/*--------------------------------*- C++ -*----------------------------------*\
| =========                 |                                                 |
| \\      /  F ield         | OpenFOAM: The Open Source CFD Toolbox           |
|  \\    /   O peration     | Version:  2212                                  |
|   \\  /    A nd           | Website:  www.openfoam.com                      |
|    \\/     M anipulation  |                                                 |
\*---------------------------------------------------------------------------*/
FoamFile
{
    version     2.0;
    format      ascii;
    arch        "LSB;label=32;scalar=64";
    class       volScalarField;
    location    "0";
    object      stateMean;
}
// * * * * * * * * * * * * * * * * * * * * * * * * * * * * * * * * * * * * * //

dimensions      [0 0 0 1 0 0 0];

internalField   nonuniform List<scalar> 
3200
(
339.04
339.867
340.671
341.458
342.197
342.868
343.355
343.781
343.929
344.125
344.266
344.129
343.977
343.667
343.255
342.77
342.08
341.336
340.603
339.879
334.049
334.743
335.51
336.105
336.825
337.285
337.717
338.097
338.362
338.398
338.469
338.436
338.222
338.031
337.646
337.122
336.716
336.029
335.356
334.685
328.934
329.437
330.096
330.71
331.231
331.593
332.05
332.386
332.491
332.688
332.715
332.611
332.495
332.339
332.05
331.597
331.108
330.519
329.94
329.45
323.803
324.225
324.714
325.215
325.59
326.072
326.328
326.599
326.685
326.782
326.82
326.841
326.671
326.491
326.274
325.941
325.515
325.135
324.674
324.267
318.548
318.863
319.272
319.632
320.013
320.242
320.52
320.663
320.829
320.884
320.911
320.786
320.77
320.678
320.472
320.208
319.965
319.598
319.288
318.905
313.37
313.546
313.867
314.069
314.3
314.529
314.661
314.824
314.958
314.946
314.978
314.95
314.988
314.799
314.569
314.449
314.233
314.002
313.808
313.488
307.987
308.131
308.276
308.408
308.603
308.749
308.826
308.904
308.902
308.997
308.978
309.014
308.965
308.861
308.796
308.708
308.57
308.487
308.314
308.137
302.657
302.716
302.754
302.776
302.894
302.881
302.932
303.043
303.047
303.024
303.077
303.036
302.959
302.997
302.926
302.85
302.834
302.836
302.826
302.745
340.034
340.83
341.771
342.579
343.263
343.921
344.488
344.841
345.151
345.298
345.33
345.281
345.092
344.834
344.363
343.865
343.296
342.469
341.596
340.924
334.886
335.453
336.24
337.051
337.652
338.243
338.615
338.988
339.245
339.362
339.464
339.385
339.241
338.947
338.571
338.09
337.581
336.887
336.15
335.567
329.571
330.139
330.743
331.41
331.949
332.45
332.743
333.072
333.257
333.435
333.446
333.411
333.224
333.051
332.724
332.306
331.895
331.304
330.683
330.142
324.299
324.722
325.268
325.718
326.137
326.577
326.975
327.121
327.287
327.368
327.419
327.319
327.269
327.124
326.914
326.557
326.161
325.665
325.198
324.742
318.902
319.267
319.675
320.091
320.407
320.739
320.982
321.179
321.332
321.37
321.397
321.335
321.282
321.121
320.943
320.663
320.35
319.953
319.652
319.203
313.521
313.774
314.055
314.319
314.549
314.745
315.026
315.138
315.287
315.279
315.251
315.309
315.222
315.121
314.963
314.763
314.549
314.365
314.017
313.852
308.18
308.341
308.409
308.663
308.721
308.961
308.988
309.175
309.145
309.161
309.181
309.179
309.15
309.062
308.991
308.85
308.711
308.615
308.416
308.293
302.739
302.777
302.759
302.916
302.931
303.069
303.002
303.121
302.976
303.109
303.147
303.104
303.027
303.035
303.053
302.991
302.875
302.855
302.87
302.785
341.372
342.188
343.151
343.963
344.653
345.348
345.871
346.342
346.593
346.803
346.873
346.781
346.632
346.327
345.917
345.34
344.727
343.929
343.02
342.304
335.986
336.743
337.547
338.218
338.842
339.417
339.927
340.313
340.474
340.678
340.745
340.729
340.492
340.265
339.838
339.387
338.829
338.14
337.4
336.747
330.529
331.116
331.764
332.404
332.959
333.434
333.872
334.149
334.378
334.469
334.552
334.464
334.411
334.106
333.798
333.369
332.931
332.253
331.697
331.199
325.004
325.535
326.058
326.593
327.016
327.406
327.725
327.998
328.136
328.252
328.291
328.229
328.129
327.906
327.731
327.37
326.965
326.505
325.987
325.522
319.531
319.826
320.249
320.655
320.962
321.364
321.621
321.753
322.002
322.013
322.01
321.958
321.95
321.774
321.546
321.319
320.983
320.559
320.198
319.884
313.927
314.25
314.545
314.789
315.076
315.291
315.457
315.541
315.743
315.737
315.738
315.746
315.71
315.559
315.448
315.227
315.017
314.665
314.484
314.146
308.377
308.477
308.712
308.887
309.055
309.209
309.258
309.399
309.461
309.417
309.469
309.466
309.367
309.336
309.25
309.171
309.05
308.925
308.629
308.564
302.82
302.883
302.924
302.987
303.07
303.074
303.146
303.207
303.158
303.107
303.152
303.166
303.178
303.11
303.049
303.034
303.019
302.982
302.904
302.885
342.794
343.643
344.609
345.519
346.266
346.981
347.531
347.989
348.271
348.467
348.521
348.381
348.258
347.895
347.458
346.942
346.214
345.346
344.544
343.78
337.11
337.928
338.756
339.502
340.185
340.79
341.317
341.651
341.981
342.105
342.151
342.047
341.888
341.614
341.26
340.757
340.208
339.448
338.682
338.032
331.626
332.182
332.893
333.54
334.082
334.675
335.047
335.301
335.55
335.64
335.725
335.607
335.543
335.244
334.917
334.492
334.02
333.448
332.815
332.182
325.855
326.378
326.959
327.487
327.937
328.293
328.677
328.933
329.13
329.252
329.273
329.187
329.067
328.946
328.636
328.278
327.847
327.403
326.904
326.44
320.135
320.518
320.99
321.352
321.758
322.115
322.342
322.543
322.678
322.775
322.793
322.738
322.698
322.46
322.291
322.044
321.675
321.367
320.911
320.569
314.46
314.663
315.049
315.271
315.552
315.861
316.006
316.175
316.177
316.281
316.313
316.269
316.224
316.135
315.957
315.682
315.5
315.167
314.982
314.695
308.664
308.807
309.052
309.221
309.371
309.511
309.63
309.584
309.768
309.753
309.744
309.822
309.737
309.633
309.573
309.468
309.355
309.165
309.009
308.889
302.933
302.99
303.032
303.075
303.126
303.123
303.163
303.262
303.265
303.292
303.291
303.229
303.314
303.293
303.198
303.161
303.19
303.017
302.974
302.96
344.177
344.981
346.098
347.017
347.849
348.548
349.179
349.576
349.947
350.124
350.223
350.153
349.886
349.605
349.094
348.594
347.805
346.897
346.018
345.191
338.354
339.216
340.022
340.872
341.557
342.194
342.639
343.103
343.322
343.466
343.492
343.591
343.321
343.144
342.605
342.101
341.491
340.791
339.978
339.268
332.605
333.251
334.002
334.635
335.218
335.807
336.185
336.557
336.747
336.887
336.931
336.904
336.773
336.489
336.121
335.677
335.211
334.529
333.916
333.281
326.78
327.221
327.809
328.334
328.868
329.268
329.633
329.911
330.128
330.186
330.268
330.198
329.999
329.839
329.581
329.191
328.783
328.249
327.755
327.301
320.818
321.256
321.606
322.05
322.481
322.811
323.079
323.337
323.449
323.473
323.618
323.537
323.432
323.223
323.107
322.775
322.396
322.069
321.624
321.279
314.837
315.143
315.558
315.786
316.142
316.376
316.466
316.599
316.83
316.774
316.858
316.841
316.751
316.714
316.476
316.281
316.046
315.769
315.466
315.143
308.982
309.144
309.352
309.48
309.698
309.824
309.924
309.983
310.131
310.073
310.133
310.132
310.061
309.993
309.947
309.808
309.676
309.462
309.341
309.091
303.02
303.126
303.075
303.209
303.288
303.309
303.263
303.345
303.425
303.353
303.371
303.313
303.322
303.351
303.372
303.276
303.256
303.179
303.09
303.088
345.575
346.562
347.537
348.574
349.415
350.171
350.68
351.226
351.577
351.824
351.84
351.743
351.55
351.226
350.703
350.188
349.372
348.508
347.555
346.671
339.607
340.43
341.305
342.146
342.853
343.55
344.066
344.446
344.776
344.957
345.028
344.947
344.755
344.406
344.124
343.465
342.875
342.133
341.251
340.557
333.695
334.263
335.013
335.714
336.28
336.838
337.346
337.652
338.009
338.057
338.114
338.135
337.944
337.719
337.301
336.897
336.342
335.666
335.035
334.361
327.546
328.106
328.724
329.271
329.81
330.163
330.566
330.885
331.101
331.273
331.241
331.186
331.027
330.82
330.553
330.109
329.768
329.14
328.604
328.169
321.473
321.864
322.342
322.778
323.172
323.514
323.789
324.072
324.235
324.337
324.349
324.275
324.209
323.992
323.821
323.476
323.164
322.708
322.284
321.921
315.313
315.621
316.001
316.269
316.533
316.834
316.975
317.225
317.288
317.35
317.407
317.352
317.289
317.177
316.989
316.803
316.523
316.252
315.963
315.707
309.19
309.444
309.574
309.731
309.955
310.117
310.271
310.295
310.405
310.464
310.446
310.377
310.352
310.344
310.197
309.961
309.975
309.794
309.585
309.397
303.114
303.181
303.173
303.285
303.312
303.387
303.451
303.501
303.519
303.508
303.482
303.509
303.458
303.474
303.454
303.352
303.313
303.279
303.257
303.188
346.926
347.88
349.003
350.062
350.958
351.679
352.342
352.872
353.145
353.325
353.434
353.396
353.212
352.721
352.317
351.702
350.925
349.983
349.059
348.121
340.817
341.628
342.617
343.426
344.221
344.816
345.418
345.806
346.142
346.318
346.376
346.322
346.099
345.799
345.367
344.802
344.121
343.411
342.465
341.764
334.655
335.254
336.013
336.849
337.507
338.017
338.432
338.775
339.136
339.239
339.262
339.289
339.15
338.857
338.392
337.948
337.419
336.773
336.022
335.37
328.343
328.858
329.561
330.161
330.621
331.184
331.539
331.819
332.004
332.172
332.207
332.139
331.923
331.787
331.494
331.115
330.6
330.014
329.458
328.986
322.088
322.484
322.991
323.487
323.901
324.281
324.55
324.797
324.912
325.026
325.12
325.021
324.949
324.778
324.489
324.23
323.831
323.474
322.905
322.585
315.761
316.021
316.484
316.74
317.088
317.318
317.573
317.699
317.838
317.943
317.894
317.919
317.822
317.659
317.448
317.247
316.995
316.723
316.374
316.164
309.501
309.644
309.939
310.047
310.195
310.378
310.503
310.677
310.735
310.753
310.767
310.753
310.677
310.571
310.534
310.428
310.208
310.117
309.939
309.758
303.165
303.217
303.326
303.35
303.366
303.481
303.456
303.58
303.573
303.573
303.609
303.693
303.625
303.542
303.583
303.52
303.441
303.302
303.317
303.175
348.269
349.282
350.431
351.39
352.332
353.177
353.836
354.32
354.669
354.852
355.027
354.915
354.674
354.344
353.784
353.166
352.353
351.39
350.379
349.457
341.975
342.786
343.686
344.596
345.428
346.102
346.682
347.116
347.485
347.631
347.689
347.653
347.526
347.121
346.714
346.094
345.424
344.615
343.775
342.949
335.621
336.327
337.063
337.742
338.503
339.059
339.556
339.96
340.227
340.387
340.446
340.413
340.222
339.998
339.546
339.053
338.446
337.843
337.1
336.462
329.212
329.779
330.33
331.041
331.557
332.02
332.393
332.693
332.964
333.118
333.125
333.105
332.935
332.752
332.412
332.008
331.551
330.953
330.308
329.891
322.705
323.191
323.622
324.156
324.58
324.953
325.265
325.467
325.656
325.723
325.782
325.819
325.588
325.379
325.227
324.882
324.563
324.094
323.636
323.263
316.219
316.535
316.894
317.259
317.532
317.768
318.094
318.224
318.308
318.423
318.481
318.439
318.366
318.231
317.986
317.769
317.51
317.278
316.967
316.582
309.774
309.883
310.198
310.399
310.59
310.679
310.866
310.917
311.008
311.042
311.023
311.103
311.002
310.947
310.825
310.717
310.499
310.305
310.137
310.008
303.292
303.367
303.389
303.507
303.505
303.602
303.654
303.647
303.656
303.709
303.784
303.662
303.682
303.678
303.654
303.566
303.526
303.469
303.414
303.332
349.505
350.55
351.672
352.775
353.744
354.519
355.179
355.691
356.059
356.359
356.465
356.436
356.159
355.766
355.268
354.579
353.744
352.748
351.737
350.81
343.048
343.897
344.868
345.898
346.706
347.349
347.941
348.406
348.656
348.982
349.044
348.972
348.757
348.432
347.906
347.362
346.595
345.864
344.92
344.109
336.403
337.232
338.026
338.848
339.479
340.109
340.612
340.986
341.35
341.411
341.479
341.435
341.297
341.026
340.714
340.145
339.548
338.749
338.021
337.412
329.917
330.53
331.137
331.804
332.327
332.856
333.265
333.595
333.835
333.927
334.001
333.926
333.791
333.618
333.282
332.843
332.352
331.794
331.136
330.588
323.24
323.781
324.238
324.771
325.214
325.666
325.891
326.091
326.343
326.428
326.441
326.346
326.364
326.145
325.85
325.577
325.229
324.706
324.325
323.833
316.63
316.943
317.282
317.68
317.933
318.326
318.587
318.727
318.709
318.878
318.927
318.887
318.872
318.733
318.513
318.32
317.983
317.606
317.242
316.992
309.965
310.225
310.374
310.641
310.791
310.956
311.088
311.232
311.322
311.347
311.386
311.386
311.273
311.17
311.1
310.962
310.79
310.589
310.409
310.216
303.347
303.414
303.523
303.584
303.605
303.639
303.729
303.762
303.901
303.814
303.823
303.824
303.867
303.84
303.676
303.636
303.576
303.508
303.451
303.428
350.744
351.805
352.937
354.081
354.971
355.912
356.541
357.154
357.534
357.75
357.811
357.841
357.632
357.237
356.614
355.949
355.128
354.149
353.082
352.068
344.099
344.951
345.938
346.944
347.829
348.425
349.078
349.62
349.907
350.245
350.202
350.172
349.896
349.633
349.174
348.552
347.751
346.973
345.981
345.198
337.306
338.121
339.047
339.702
340.427
341.096
341.601
341.997
342.3
342.497
342.571
342.436
342.345
342.064
341.606
341.083
340.514
339.74
338.934
338.252
330.588
331.229
331.913
332.645
333.175
333.653
334.076
334.455
334.626
334.819
334.857
334.813
334.623
334.427
334.046
333.627
333.104
332.532
331.971
331.388
323.837
324.267
324.781
325.395
325.869
326.226
326.526
326.763
327
327.121
327.151
327.041
326.944
326.781
326.508
326.205
325.827
325.3
324.833
324.414
317.024
317.402
317.803
318.092
318.441
318.809
318.852
319.21
319.194
319.393
319.302
319.33
319.326
319.176
318.908
318.709
318.441
318.117
317.799
317.52
310.264
310.444
310.633
310.927
311.11
311.291
311.383
311.555
311.589
311.618
311.625
311.678
311.541
311.476
311.363
311.284
311.057
310.887
310.669
310.492
303.411
303.48
303.647
303.633
303.678
303.768
303.793
303.896
303.878
303.832
303.879
303.908
303.862
303.836
303.867
303.755
303.71
303.643
303.587
303.469
351.884
352.932
354.126
355.26
356.299
357.128
357.91
358.358
358.904
359.108
359.201
359.112
358.948
358.453
357.915
357.225
356.342
355.364
354.307
353.17
345.053
345.951
347.038
347.99
348.9
349.594
350.246
350.705
351.097
351.278
351.38
351.277
351.077
350.711
350.26
349.63
348.838
347.984
347.028
346.261
338.184
338.927
339.801
340.589
341.396
342.001
342.56
342.911
343.258
343.411
343.509
343.458
343.295
343.029
342.562
342.069
341.343
340.651
339.814
339.136
331.321
331.908
332.51
333.287
333.847
334.426
334.839
335.206
335.382
335.614
335.656
335.503
335.46
335.155
334.8
334.374
333.906
333.313
332.588
332.09
324.343
324.885
325.364
325.941
326.435
326.786
327.13
327.359
327.546
327.661
327.704
327.708
327.589
327.409
327.12
326.77
326.304
325.95
325.353
324.907
317.438
317.726
318.082
318.513
318.828
319.086
319.413
319.542
319.709
319.746
319.758
319.766
319.713
319.613
319.434
319.119
318.844
318.435
318.098
317.912
310.424
310.63
310.884
311.089
311.349
311.51
311.699
311.777
311.828
311.861
311.916
311.892
311.762
311.761
311.664
311.509
311.364
311.128
310.938
310.651
303.499
303.499
303.632
303.74
303.772
303.835
303.95
303.93
303.969
303.973
304
303.95
303.974
303.983
303.913
303.846
303.718
303.746
303.634
303.658
352.88
353.97
355.166
356.444
357.457
358.361
359.003
359.659
360.014
360.341
360.427
360.341
360.113
359.713
359.087
358.434
357.538
356.45
355.366
354.236
345.924
346.883
347.968
348.9
349.847
350.624
351.302
351.76
352.097
352.291
352.473
352.346
352.128
351.75
351.255
350.683
349.925
349.011
348.11
347.083
338.972
339.733
340.571
341.476
342.152
342.871
343.419
343.842
344.165
344.304
344.341
344.278
344.154
343.795
343.387
342.841
342.256
341.493
340.633
339.851
331.862
332.493
333.261
333.957
334.622
335.102
335.545
335.916
336.185
336.402
336.331
336.291
336.201
335.877
335.519
335.131
334.57
333.904
333.251
332.721
324.842
325.348
325.887
326.438
326.973
327.314
327.709
327.879
328.174
328.251
328.326
328.212
328.114
327.901
327.705
327.409
326.937
326.443
325.963
325.475
317.671
318.107
318.533
318.873
319.233
319.493
319.761
319.938
320.13
320.142
320.208
320.191
320.107
319.953
319.78
319.553
319.273
318.874
318.463
318.168
310.661
310.857
311.105
311.346
311.55
311.774
311.864
311.954
312.092
312.014
312.106
312.117
312.161
311.963
311.929
311.672
311.57
311.419
311.125
310.891
303.647
303.657
303.708
303.781
303.872
303.884
303.988
304.051
304.101
304.09
304.05
304.076
304.072
304.025
304.03
303.857
303.841
303.783
303.772
303.683
353.793
354.889
356.253
357.365
358.527
359.38
360.172
360.752
361.164
361.443
361.545
361.493
361.17
360.777
360.222
359.406
358.5
357.509
356.342
355.296
346.747
347.649
348.791
349.822
350.79
351.525
352.176
352.657
353.004
353.296
353.41
353.296
353.101
352.727
352.25
351.601
350.796
349.933
348.99
347.993
339.701
340.423
341.376
342.264
342.982
343.63
344.238
344.629
344.898
345.084
345.215
345.133
344.993
344.703
344.266
343.635
343.032
342.245
341.391
340.593
332.493
333.16
333.861
334.554
335.243
335.735
336.214
336.517
336.755
336.965
337.041
336.919
336.865
336.599
336.226
335.683
335.194
334.593
333.911
333.234
325.32
325.723
326.407
326.879
327.463
327.815
328.198
328.431
328.701
328.761
328.761
328.783
328.652
328.474
328.183
327.9
327.428
326.924
326.406
325.937
318.055
318.46
318.808
319.207
319.555
319.96
320.157
320.375
320.481
320.546
320.498
320.579
320.552
320.338
320.128
319.934
319.545
319.251
318.8
318.484
310.814
311.091
311.335
311.508
311.796
312.002
312.113
312.197
312.289
312.38
312.368
312.397
312.314
312.204
312.063
311.959
311.747
311.5
311.314
311.067
303.642
303.753
303.776
303.926
303.943
303.956
304.07
304.112
304.094
304.141
304.16
304.129
304.082
304.113
304.068
304.012
303.909
303.774
303.828
303.79
354.58
355.876
357.165
358.33
359.495
360.369
361.14
361.711
362.119
362.437
362.529
362.481
362.18
361.75
361.213
360.457
359.457
358.431
357.262
356.176
347.486
348.476
349.505
350.602
351.595
352.338
353.028
353.566
353.98
354.175
354.334
354.163
354.043
353.66
353.109
352.421
351.561
350.704
349.662
348.785
340.228
341.082
341.948
342.881
343.694
344.395
344.958
345.451
345.677
345.892
345.931
345.901
345.711
345.448
344.984
344.364
343.71
342.899
342.079
341.29
332.958
333.636
334.388
335.087
335.719
336.357
336.772
337.103
337.412
337.513
337.662
337.607
337.41
337.146
336.824
336.372
335.782
335.218
334.444
333.844
325.636
326.188
326.774
327.312
327.811
328.319
328.609
328.914
329.101
329.223
329.314
329.285
329.063
328.874
328.659
328.307
327.861
327.351
326.852
326.377
318.312
318.739
319.071
319.53
319.862
320.153
320.377
320.703
320.821
320.875
320.897
320.915
320.825
320.713
320.477
320.249
319.926
319.524
319.174
318.871
310.976
311.259
311.455
311.731
311.981
312.158
312.289
312.472
312.433
312.483
312.511
312.465
312.499
312.454
312.291
312.091
311.994
311.763
311.531
311.24
303.681
303.839
303.805
303.883
304.074
304.111
304.129
304.187
304.176
304.245
304.235
304.174
304.14
304.163
304.149
304.145
303.993
303.93
303.821
303.921
355.439
356.652
357.893
359.164
360.3
361.313
362.069
362.627
363.073
363.414
363.455
363.421
363.17
362.791
362.201
361.414
360.401
359.292
358.111
357.002
348.097
349.128
350.266
351.391
352.325
353.154
353.85
354.372
354.821
354.989
355.094
355.057
354.774
354.341
353.882
353.199
352.418
351.444
350.39
349.502
340.825
341.668
342.609
343.464
344.357
345.02
345.54
346.039
346.348
346.595
346.586
346.576
346.368
346.088
345.633
345.063
344.313
343.555
342.638
341.856
333.424
334.12
334.942
335.658
336.273
336.865
337.311
337.656
337.93
338.137
338.118
338.17
337.941
337.764
337.336
336.762
336.259
335.654
334.918
334.306
325.985
326.49
327.119
327.705
328.183
328.711
328.994
329.284
329.536
329.646
329.745
329.671
329.551
329.367
329.101
328.646
328.237
327.709
327.189
326.689
318.647
318.931
319.421
319.807
320.175
320.505
320.749
320.951
321.119
321.157
321.209
321.244
321.08
321.046
320.776
320.529
320.186
319.77
319.445
319.116
311.252
311.435
311.695
311.883
312.119
312.283
312.442
312.588
312.699
312.686
312.825
312.768
312.663
312.627
312.482
312.318
312.146
311.925
311.704
311.543
303.772
303.835
303.966
303.997
304.113
304.117
304.202
304.241
304.266
304.29
304.271
304.264
304.213
304.204
304.157
304.133
304.072
304.002
303.96
303.846
356.075
357.33
358.614
359.855
361.012
361.954
362.817
363.42
363.993
364.185
364.275
364.216
363.99
363.466
362.885
362.066
361.127
360.046
358.817
357.638
348.639
349.729
350.905
351.934
352.896
353.796
354.47
355.028
355.405
355.639
355.804
355.682
355.504
355.127
354.579
353.855
353.013
352.079
351.106
350.112
341.335
342.096
343.059
344.014
344.85
345.531
346.167
346.653
346.914
347.1
347.226
347.232
346.966
346.602
346.125
345.609
344.891
344.094
343.217
342.406
333.787
334.561
335.34
336.032
336.743
337.267
337.838
338.121
338.461
338.579
338.614
338.638
338.446
338.232
337.808
337.403
336.751
336.1
335.356
334.723
326.307
326.74
327.429
328.079
328.556
329.081
329.369
329.645
329.835
330.031
330.124
330.052
329.965
329.728
329.408
329.017
328.598
328.102
327.531
327.077
318.776
319.231
319.652
320.016
320.437
320.713
320.983
321.276
321.367
321.534
321.557
321.425
321.369
321.236
321.034
320.801
320.448
320.055
319.726
319.355
311.243
311.539
311.803
312.058
312.276
312.446
312.564
312.744
312.843
312.89
312.846
312.908
312.803
312.765
312.591
312.492
312.309
312.061
311.803
311.653
303.825
303.9
304.044
303.969
304.103
304.196
304.218
304.257
304.269
304.324
304.428
304.276
304.28
304.237
304.237
304.135
304.089
303.967
303.967
303.915
356.657
357.864
359.259
360.525
361.631
362.658
363.521
364.094
364.575
364.842
364.977
364.902
364.665
364.219
363.576
362.741
361.841
360.612
359.461
358.286
349.111
350.13
351.388
352.475
353.48
354.28
355.107
355.582
355.984
356.254
356.401
356.301
356.013
355.689
355.164
354.428
353.607
352.631
351.565
350.626
341.586
342.509
343.455
344.448
345.291
346.013
346.612
347.106
347.435
347.666
347.744
347.666
347.515
347.137
346.69
346.059
345.395
344.52
343.705
342.878
334.104
334.896
335.637
336.389
337.066
337.654
338.231
338.536
338.819
339.013
339.17
339.05
338.816
338.525
338.242
337.648
337.211
336.463
335.729
335.109
326.62
327.147
327.808
328.34
328.859
329.327
329.653
329.993
330.161
330.321
330.378
330.397
330.257
329.977
329.741
329.426
328.883
328.411
327.793
327.294
318.971
319.313
319.853
320.255
320.587
320.977
321.246
321.458
321.591
321.643
321.731
321.723
321.641
321.472
321.243
321.027
320.635
320.276
319.847
319.481
311.415
311.56
311.955
312.148
312.361
312.597
312.735
312.933
313.016
313.021
313.101
313.07
312.968
312.93
312.738
312.631
312.434
312.194
311.892
311.772
303.831
303.849
304.072
304.136
304.159
304.219
304.329
304.304
304.341
304.33
304.385
304.39
304.373
304.344
304.237
304.243
304.239
304.035
304.043
303.926
357.011
358.344
359.712
361.02
362.147
363.176
364.002
364.631
365.112
365.408
365.545
365.425
365.169
364.704
364.18
363.298
362.365
361.157
359.933
358.75
349.584
350.594
351.746
352.932
353.793
354.76
355.483
356.065
356.487
356.744
356.852
356.789
356.501
356.133
355.609
354.876
354.087
352.992
351.991
351.056
342.058
342.861
343.885
344.809
345.698
346.407
346.974
347.473
347.843
347.979
348.103
348.053
347.886
347.53
347.11
346.448
345.723
344.893
343.976
343.19
334.379
335.063
335.931
336.704
337.388
337.961
338.467
338.886
339.202
339.343
339.409
339.345
339.239
338.934
338.57
338.093
337.447
336.748
336.037
335.397
326.801
327.29
327.99
328.576
329.085
329.549
329.96
330.263
330.455
330.666
330.628
330.587
330.547
330.222
329.964
329.575
329.113
328.619
328.057
327.561
319.119
319.49
319.987
320.413
320.829
321.097
321.342
321.669
321.799
321.938
321.972
321.944
321.793
321.651
321.472
321.164
320.811
320.489
320.029
319.753
311.51
311.716
312.05
312.238
312.532
312.706
312.856
312.986
313.062
313.105
313.125
313.187
313.125
313.023
312.85
312.672
312.517
312.304
312.088
311.848
303.914
303.916
304.042
304.119
304.172
304.257
304.386
304.424
304.389
304.429
304.372
304.419
304.339
304.439
304.329
304.241
304.134
304.163
303.967
303.89
357.404
358.667
360.04
361.357
362.581
363.583
364.421
365.108
365.521
365.808
365.954
365.872
365.67
365.2
364.512
363.647
362.655
361.589
360.366
359.184
349.814
350.907
352.102
353.262
354.281
355.156
355.903
356.403
356.862
357.084
357.181
357.142
356.904
356.552
355.906
355.221
354.306
353.39
352.317
351.353
342.166
343.076
344.104
345.045
345.965
346.69
347.29
347.768
348.108
348.301
348.395
348.346
348.082
347.8
347.367
346.748
346.089
345.169
344.325
343.463
334.525
335.271
336.13
336.805
337.625
338.196
338.726
339.117
339.385
339.539
339.624
339.628
339.468
339.099
338.731
338.195
337.66
337.02
336.255
335.644
326.926
327.449
328.135
328.712
329.193
329.788
330.126
330.416
330.645
330.795
330.863
330.8
330.668
330.486
330.206
329.786
329.302
328.737
328.187
327.702
319.235
319.61
320.085
320.571
320.939
321.223
321.531
321.721
321.946
322.007
322.004
322.053
321.906
321.8
321.439
321.279
320.942
320.582
320.133
319.824
311.556
311.74
312.067
312.334
312.579
312.796
312.944
313.065
313.141
313.23
313.206
313.228
313.193
313.07
312.927
312.725
312.623
312.366
312.175
311.895
303.93
303.959
304.032
304.11
304.23
304.262
304.38
304.383
304.401
304.447
304.515
304.382
304.451
304.352
304.299
304.293
304.213
304.154
304.046
303.97
357.555
358.796
360.283
361.621
362.785
363.761
364.657
365.284
365.758
366.08
366.188
366.087
365.877
365.368
364.705
363.955
362.846
361.828
360.568
359.352
350.048
351.053
352.301
353.395
354.468
355.356
356.056
356.664
357.079
357.283
357.437
357.272
357.128
356.714
356.152
355.444
354.662
353.578
352.477
351.546
342.348
343.268
344.235
345.209
346.055
346.785
347.472
347.953
348.325
348.534
348.512
348.553
348.355
347.988
347.504
346.928
346.234
345.345
344.491
343.654
334.701
335.419
336.241
337.085
337.665
338.251
338.791
339.299
339.495
339.664
339.727
339.727
339.562
339.257
338.856
338.429
337.863
337.085
336.343
335.681
327.04
327.556
328.189
328.827
329.36
329.914
330.213
330.561
330.721
330.836
330.967
330.921
330.741
330.566
330.291
329.838
329.454
328.898
328.285
327.828
319.318
319.704
320.105
320.564
320.988
321.347
321.599
321.879
321.977
322.08
322.081
322.121
321.941
321.786
321.642
321.408
321.044
320.651
320.199
319.849
311.538
311.87
312.042
312.393
312.546
312.837
312.959
313.076
313.189
313.199
313.297
313.248
313.19
313.037
312.983
312.833
312.556
312.427
312.146
311.996
303.877
304.013
304.114
304.183
304.182
304.315
304.374
304.395
304.393
304.5
304.452
304.495
304.46
304.441
304.432
304.282
304.244
304.126
304.118
304.015
)
;

boundaryField
{
    hotSide
    {
        type            fixedGradient;
        gradient        nonuniform List<scalar> 
400
(
321.511
322.87
325.591
329.677
335.133
341.965
350.181
359.788
370.794
383.208
397.037
412.289
428.971
447.088
466.647
487.651
510.105
534.011
559.372
586.191
323.738
325.08
327.767
331.802
337.194
343.949
352.078
361.591
372.498
384.81
398.537
413.687
430.268
448.289
467.755
488.672
511.043
534.872
560.161
586.913
326.149
327.47
330.116
334.091
339.406
346.071
354.099
363.503
374.296
386.491
400.101
415.136
431.606
449.52
468.885
489.706
511.988
535.735
560.948
587.63
328.704
330
332.597
336.503
341.73
348.292
356.205
365.485
376.15
388.215
401.695
416.604
432.954
450.753
470.009
490.73
512.919
536.579
561.714
588.325
331.33
332.599
335.142
338.97
344.099
350.546
358.332
367.477
378.003
389.928
403.271
418.047
434.27
451.949
471.095
491.712
513.807
537.382
562.439
588.978
333.918
335.158
337.643
341.389
346.414
352.74
360.392
369.397
379.779
391.562
404.765
419.407
435.503
453.065
472.101
492.618
514.622
538.114
563.096
589.569
336.321
337.531
339.959
343.622
348.544
354.751
362.274
371.142
381.385
393.031
406.101
420.618
436.595
454.047
472.983
493.409
515.33
538.747
563.663
590.076
338.36
339.543
341.92
345.509
350.339
356.44
363.847
372.595
382.718
394.244
407.2
421.608
437.485
454.844
473.695
494.045
515.897
539.253
564.114
590.478
339.852
341.015
343.352
346.885
351.645
357.665
364.985
373.643
383.675
395.113
407.984
422.312
438.116
455.407
474.197
494.491
516.294
539.606
564.428
590.758
340.643
341.795
344.11
347.613
352.334
358.311
365.584
374.193
384.176
395.567
408.393
422.679
438.443
455.699
474.456
494.722
516.498
539.788
564.589
590.901
340.643
341.795
344.11
347.613
352.334
358.311
365.584
374.193
384.176
395.567
408.393
422.679
438.443
455.699
474.456
494.722
516.498
539.788
564.589
590.901
339.852
341.015
343.352
346.885
351.645
357.665
364.985
373.643
383.675
395.113
407.984
422.312
438.116
455.407
474.197
494.491
516.294
539.606
564.428
590.758
338.36
339.543
341.92
345.509
350.339
356.44
363.847
372.595
382.718
394.244
407.2
421.608
437.485
454.844
473.695
494.045
515.897
539.253
564.114
590.478
336.321
337.531
339.959
343.622
348.544
354.751
362.274
371.142
381.385
393.031
406.101
420.618
436.595
454.047
472.983
493.409
515.33
538.747
563.663
590.076
333.918
335.158
337.643
341.389
346.414
352.74
360.392
369.397
379.779
391.562
404.765
419.407
435.503
453.065
472.101
492.618
514.622
538.114
563.096
589.569
331.33
332.599
335.142
338.97
344.099
350.546
358.332
367.477
378.003
389.928
403.271
418.047
434.27
451.949
471.095
491.712
513.807
537.382
562.439
588.978
328.704
330
332.597
336.503
341.73
348.292
356.205
365.485
376.15
388.215
401.695
416.604
432.954
450.753
470.009
490.73
512.919
536.579
561.714
588.325
326.149
327.47
330.116
334.091
339.406
346.071
354.099
363.503
374.296
386.491
400.101
415.136
431.606
449.52
468.885
489.706
511.988
535.735
560.948
587.63
323.738
325.08
327.767
331.802
337.194
343.949
352.078
361.591
372.498
384.81
398.537
413.687
430.268
448.289
467.755
488.672
511.043
534.872
560.161
586.913
321.511
322.87
325.591
329.677
335.133
341.965
350.181
359.788
370.794
383.208
397.037
412.289
428.971
447.088
466.647
487.651
510.105
534.011
559.372
586.191
)
;
    }
    coldSide
    {
        type            mixed;
        refValue        uniform 300;
        refGradient     uniform 0;
        valueFraction   uniform 0.991591;
        source          uniform 0;
        value           nonuniform List<scalar> 
400
(
300.022
300.023
300.024
300.025
300.025
300.026
300.027
300.028
300.028
300.029
300.029
300.031
300.031
300.031
300.032
300.032
300.032
300.033
300.033
300.033
300.023
300.023
300.024
300.025
300.026
300.027
300.027
300.028
300.029
300.029
300.029
300.031