/*--------------------------------*- C++ -*----------------------------------*\
| =========                 |                                                 |
| \\      /  F ield         | OpenFOAM: The Open Source CFD Toolbox           |
|  \\    /   O peration     | Version:  2212                                  |
|   \\  /    A nd           | Website:  www.openfoam.com                      |
|    \\/     M anipulation  |                                                 |
\*---------------------------------------------------------------------------*/
FoamFile
{
    version     2.0;
    format      ascii;
    arch        "LSB;label=32;scalar=64";
    class       volScalarField;
    location    "0";
    object      Tdirect;
}
// * * * * * * * * * * * * * * * * * * * * * * * * * * * * * * * * * * * * * //

dimensions      [0 0 0 1 0 0 0];

internalField   nonuniform List<scalar> 
3200
(
328.444
328.659
328.934
329.233
329.542
329.844
330.124
330.36
330.532
330.622
330.622
330.532
330.36
330.124
329.844
329.542
329.233
328.934
328.659
328.444
324.831
325.013
325.25
325.509
325.776
326.038
326.28
326.483
326.632
326.71
326.71
326.632
326.483
326.28
326.038
325.776
325.509
325.25
325.013
324.831
321.142
321.293
321.493
321.712
321.937
322.158
322.362
322.534
322.66
322.726
322.726
322.66
322.534
322.362
322.158
321.937
321.712
321.493
321.293
321.142
317.388
317.51
317.673
317.852
318.036
318.217
318.384
318.524
318.626
318.68
318.68
318.626
318.524
318.384
318.217
318.036
317.852
317.673
317.51
317.388
313.583
313.676
313.802
313.941
314.085
314.225
314.355
314.464
314.543
314.585
314.585
314.543
314.464
314.355
314.225
314.085
313.941
313.802
313.676
313.583
309.736
309.802
309.892
309.991
310.094
310.194
310.286
310.364
310.421
310.451
310.451
310.421
310.364
310.286
310.194
310.094
309.991
309.892
309.802
309.736
305.86
305.899
305.953
306.013
306.074
306.134
306.19
306.237
306.271
306.289
306.289
306.271
306.237
306.19
306.134
306.074
306.013
305.953
305.899
305.86
301.966
301.979
301.998
302.017
302.038
302.058
302.077
302.092
302.104
302.11
302.11
302.104
302.092
302.077
302.058
302.038
302.017
301.998
301.979
301.966
328.557
328.77
329.043
329.339
329.645
329.944
330.22
330.453
330.623
330.713
330.713
330.623
330.453
330.22
329.944
329.645
329.339
329.043
328.77
328.557
324.929
325.11
325.345
325.602
325.866
326.125
326.364
326.565
326.712
326.789
326.789
326.712
326.565
326.364
326.125
325.866
325.602
325.345
325.11
324.929
321.226
321.376
321.574
321.791
322.014
322.233
322.434
322.604
322.728
322.793
322.793
322.728
322.604
322.434
322.233
322.014
321.791
321.574
321.376
321.226
317.458
317.578
317.74
317.917
318.1
318.278
318.443
318.582
318.683
318.736
318.736
318.683
318.582
318.443
318.278
318.1
317.917
317.74
317.578
317.458
313.637
313.729
313.854
313.992
314.134
314.273
314.401
314.509
314.587
314.628
314.628
314.587
314.509
314.401
314.273
314.134
313.992
313.854
313.729
313.637
309.774
309.84
309.929
310.028
310.129
310.228
310.32
310.396
310.452
310.482
310.482
310.452
310.396
310.32
310.228
310.129
310.028
309.929
309.84
309.774
305.883
305.922
305.976
306.035
306.096
306.155
306.21
306.256
306.29
306.307
306.307
306.29
306.256
306.21
306.155
306.096
306.035
305.976
305.922
305.883
301.974
301.987
302.005
302.025
302.045
302.065
302.084
302.099
302.11
302.116
302.116
302.11
302.099
302.084
302.065
302.045
302.025
302.005
301.987
301.974
328.783
328.993
329.261
329.552
329.851
330.144
330.414
330.641
330.807
330.894
330.894
330.807
330.641
330.414
330.144
329.851
329.552
329.261
328.993
328.783
325.127
325.305
325.536
325.788
326.047
326.3
326.534
326.73
326.873
326.948
326.948
326.873
326.73
326.534
326.3
326.047
325.788
325.536
325.305
325.127
321.394
321.542
321.736
321.949
322.168
322.382
322.579
322.745
322.866
322.929
322.929
322.866
322.745
322.579
322.382
322.168
321.949
321.736
321.542
321.394
317.596
317.715
317.873
318.047
318.226
318.401
318.562
318.698
318.796
318.848
318.848
318.796
318.698
318.562
318.401
318.226
318.047
317.873
317.715
317.596
313.745
313.836
313.959
314.094
314.233
314.369
314.494
314.599
314.676
314.716
314.716
314.676
314.599
314.494
314.369
314.233
314.094
313.959
313.836
313.745
309.852
309.917
310.004
310.101
310.2
310.297
310.387
310.462
310.516
310.545
310.545
310.516
310.462
310.387
310.297
310.2
310.101
310.004
309.917
309.852
305.93
305.968
306.021
306.079
306.138
306.197
306.25
306.295
306.328
306.345
306.345
306.328
306.295
306.25
306.197
306.138
306.079
306.021
305.968
305.93
301.99
302.003
302.02
302.04
302.06
302.079
302.097
302.112
302.123
302.129
302.129
302.123
302.112
302.097
302.079
302.06
302.04
302.02
302.003
301.99
329.123
329.328
329.59
329.873
330.163
330.447
330.707
330.926
331.086
331.169
331.169
331.086
330.926
330.707
330.447
330.163
329.873
329.59
329.328
329.123
325.424
325.598
325.823
326.068
326.319
326.565
326.79
326.98
327.117
327.189
327.189
327.117
326.98
326.79
326.565
326.319
326.068
325.823
325.598
325.424
321.647
321.791
321.981
322.188
322.4
322.608
322.798
322.958
323.074
323.135
323.135
323.074
322.958
322.798
322.608
322.4
322.188
321.981
321.791
321.647
317.804
317.92
318.075
318.244
318.418
318.587
318.743
318.873
318.968
319.018
319.018
318.968
318.873
318.743
318.587
318.418
318.244
318.075
317.92
317.804
313.907
313.996
314.116
314.248
314.383
314.514
314.635
314.737
314.81
314.849
314.849
314.81
314.737
314.635
314.514
314.383
314.248
314.116
313.996
313.907
309.968
310.031
310.117
310.211
310.307
310.401
310.488
310.56
310.613
310.64
310.64
310.613
310.56
310.488
310.401
310.307
310.211
310.117
310.031
309.968
306
306.037
306.089
306.145
306.203
306.259
306.311
306.355
306.386
306.403
306.403
306.386
306.355
306.311
306.259
306.203
306.145
306.089
306.037
306
302.013
302.026
302.043
302.062
302.081
302.1
302.118
302.132
302.143
302.148
302.148
302.143
302.132
302.118
302.1
302.081
302.062
302.043
302.026
302.013
329.578
329.777
330.029
330.302
330.581
330.853
331.102
331.311
331.463
331.542
331.542
331.463
331.311
331.102
330.853
330.581
330.302
330.029
329.777
329.578
325.821
325.989
326.207
326.443
326.685
326.92
327.136
327.316
327.447
327.516
327.516
327.447
327.316
327.136
326.92
326.685
326.443
326.207
325.989
325.821
321.985
322.125
322.308
322.508
322.712
322.911
323.093
323.245
323.356
323.414
323.414
323.356
323.245
323.093
322.911
322.712
322.508
322.308
322.125
321.985
318.082
318.194
318.344
318.507
318.674
318.837
318.985
319.11
319.2
319.248
319.248
319.2
319.11
318.985
318.837
318.674
318.507
318.344
318.194
318.082
314.124
314.211
314.327
314.454
314.583
314.71
314.825
314.922
314.992
315.029
315.029
314.992
314.922
314.825
314.71
314.583
314.454
314.327
314.211
314.124
310.124
310.185
310.268
310.358
310.451
310.541
310.624
310.693
310.743
310.769
310.769
310.743
310.693
310.624
310.541
310.451
310.358
310.268
310.185
310.124
306.093
306.13
306.18
306.234
306.29
306.344
306.393
306.435
306.465
306.481
306.481
306.465
306.435
306.393
306.344
306.29
306.234
306.18
306.13
306.093
302.045
302.057
302.073
302.092
302.11
302.129
302.145
302.159
302.169
302.174
302.174
302.169
302.159
302.145
302.129
302.11
302.092
302.073
302.057
302.045
330.147
330.339
330.581
330.842
331.108
331.366
331.602
331.799
331.942
332.017
332.017
331.942
331.799
331.602
331.366
331.108
330.842
330.581
330.339
330.147
326.318
326.48
326.689
326.915
327.146
327.369
327.573
327.743
327.866
327.931
327.931
327.866
327.743
327.573
327.369
327.146
326.915
326.689
326.48
326.318
322.408
322.543
322.719
322.91
323.105
323.293
323.466
323.61
323.714
323.768
323.768
323.714
323.61
323.466
323.293
323.105
322.91
322.719
322.543
322.408
318.43
318.538
318.682
318.838
318.997
319.152
319.293
319.41
319.495
319.54
319.54
319.495
319.41
319.293
319.152
318.997
318.838
318.682
318.538
318.43
314.396
314.479
314.591
314.712
314.836
314.956
315.065
315.157
315.223
315.257
315.257
315.223
315.157
315.065
314.956
314.836
314.712
314.591
314.479
314.396
310.319
310.378
310.457
310.544
310.632
310.718
310.796
310.861
310.909
310.933
310.933
310.909
310.861
310.796
310.718
310.632
310.544
310.457
310.378
310.319
306.211
306.246
306.294
306.346
306.399
306.45
306.497
306.536
306.564
306.579
306.579
306.564
306.536
306.497
306.45
306.399
306.346
306.294
306.246
306.211
302.084
302.096
302.112
302.129
302.147
302.164
302.18
302.193
302.203
302.207
302.207
302.203
302.193
302.18
302.164
302.147
302.129
302.112
302.096
302.084
330.833
331.016
331.247
331.495
331.746
331.989
332.21
332.394
332.527
332.597
332.597
332.527
332.394
332.21
331.989
331.746
331.495
331.247
331.016
330.833
326.917
327.072
327.271
327.486
327.703
327.914
328.105
328.264
328.379
328.439
328.439
328.379
328.264
328.105
327.914
327.703
327.486
327.271
327.072
326.917
322.918
323.047
323.214
323.396
323.58
323.758
323.919
324.054
324.151
324.202
324.202
324.151
324.054
323.919
323.758
323.58
323.396
323.214
323.047
322.918
318.849
318.953
319.09
319.238
319.389
319.534
319.666
319.776
319.855
319.897
319.897
319.855
319.776
319.666
319.534
319.389
319.238
319.09
318.953
318.849
314.724
314.803
314.909
315.025
315.142
315.255
315.357
315.443
315.504
315.537
315.537
315.504
315.443
315.357
315.255
315.142
315.025
314.909
314.803
314.724
310.554
310.61
310.686
310.768
310.852
310.932
311.006
311.067
311.111
311.134
311.134
311.111
311.067
311.006
310.932
310.852
310.768
310.686
310.61
310.554
306.352
306.386
306.431
306.481
306.531
306.579
306.623
306.66
306.686
306.7
306.7
306.686
306.66
306.623
306.579
306.531
306.481
306.431
306.386
306.352
302.131
302.143
302.158
302.174
302.191
302.208
302.222
302.235
302.243
302.248
302.248
302.243
302.235
302.222
302.208
302.191
302.174
302.158
302.143
302.131
331.636
331.81
332.028
332.262
332.498
332.725
332.93
333.101
333.223
333.288
333.288
333.223
333.101
332.93
332.725
332.498
332.262
332.028
331.81
331.636
327.618
327.765
327.953
328.156
328.36
328.556
328.734
328.882
328.988
329.043
329.043
328.988
328.882
328.734
328.556
328.36
328.156
327.953
327.765
327.618
323.515
323.637
323.796
323.967
324.139
324.306
324.456
324.581
324.67
324.717
324.717
324.67
324.581
324.456
324.306
324.139
323.967
323.796
323.637
323.515
319.34
319.439
319.568
319.708
319.849
319.985
320.108
320.21
320.283
320.321
320.321
320.283
320.21
320.108
319.985
319.849
319.708
319.568
319.439
319.34
315.107
315.183
315.283
315.392
315.502
315.607
315.703
315.782
315.839
315.869
315.869
315.839
315.782
315.703
315.607
315.502
315.392
315.283
315.183
315.107
310.829
310.882
310.954
311.031
311.11
311.185
311.253
311.31
311.351
311.372
311.372
311.351
311.31
311.253
311.185
311.11
311.031
310.954
310.882
310.829
306.518
306.549
306.592
306.639
306.686
306.731
306.772
306.806
306.831
306.844
306.844
306.831
306.806
306.772
306.731
306.686
306.639
306.592
306.549
306.518
302.187
302.198
302.212
302.228
302.243
302.259
302.272
302.284
302.292
302.296
302.296
302.292
302.284
302.272
302.259
302.243
302.228
302.212
302.198
302.187
332.557
332.721
332.927
333.145
333.365
333.576
333.765
333.922
334.034
334.093
334.093
334.034
333.922
333.765
333.576
333.365
333.145
332.927
332.721
332.557
328.422
328.561
328.738
328.927
329.118
329.3
329.464
329.6
329.697
329.748
329.748
329.697
329.6
329.464
329.3
329.118
328.927
328.738
328.561
328.422
324.199
324.315
324.464
324.624
324.785
324.939
325.078
325.193
325.275
325.318
325.318
325.275
325.193
325.078
324.939
324.785
324.624
324.464
324.315
324.199
319.903
319.996
320.118
320.249
320.381
320.507
320.62
320.714
320.781
320.816
320.816
320.781
320.714
320.62
320.507
320.381
320.249
320.118
319.996
319.903
315.547
315.618
315.713
315.815
315.917
316.015
316.103
316.176
316.228
316.256
316.256
316.228
316.176
316.103
316.015
315.917
315.815
315.713
315.618
315.547
311.144
311.194
311.262
311.334
311.408
311.478
311.541
311.593
311.63
311.649
311.649
311.63
311.593
311.541
311.478
311.408
311.334
311.262
311.194
311.144
306.707
306.737
306.778
306.821
306.865
306.907
306.945
306.977
306.999
307.011
307.011
306.999
306.977
306.945
306.907
306.865
306.821
306.778
306.737
306.707
302.251
302.261
302.274
302.289
302.304
302.318
302.33
302.341
302.348
302.352
302.352
302.348
302.341
302.33
302.318
302.304
302.289
302.274
302.261
302.251
333.597
333.751
333.943
334.147
334.351
334.544
334.718
334.861
334.964
335.017
335.017
334.964
334.861
334.718
334.544
334.351
334.147
333.943
333.751
333.597
329.329
329.46
329.626
329.802
329.979
330.147
330.297
330.421
330.51
330.556
330.556
330.51
330.421
330.297
330.147
329.979
329.802
329.626
329.46
329.329
324.972
325.081
325.22
325.37
325.519
325.661
325.788
325.893
325.968
326.007
326.007
325.968
325.893
325.788
325.661
325.519
325.37
325.22
325.081
324.972
320.539
320.626
320.74
320.862
320.984
321.1
321.204
321.29
321.351
321.383
321.383
321.351
321.29
321.204
321.1
320.984
320.862
320.74
320.626
320.539
316.044
316.111
316.199
316.294
316.389
316.479
316.56
316.627
316.674
316.699
316.699
316.674
316.627
316.56
316.479
316.389
316.294
316.199
316.111
316.044
311.5
311.547
311.61
311.678
311.746
311.81
311.868
311.916
311.95
311.967
311.967
311.95
311.916
311.868
311.81
311.746
311.678
311.61
311.547
311.5
306.922
306.95
306.988
307.028
307.069
307.108
307.143
307.171
307.192
307.202
307.202
307.192
307.171
307.143
307.108
307.069
307.028
306.988
306.95
306.922
302.323
302.332
302.345
302.358
302.372
302.385
302.397
302.406
302.413
302.417
302.417
302.413
302.406
302.397
302.385
302.372
302.358
302.345
302.332
302.323
334.757
334.901
335.08
335.269
335.456
335.634
335.792
335.922
336.015
336.063
336.063
336.015
335.922
335.792
335.634
335.456
335.269
335.08
334.901
334.757
330.342
330.464
330.619
330.782
330.944
331.098
331.236
331.348
331.428
331.47
331.47
331.428
331.348
331.236
331.098
330.944
330.782
330.619
330.464
330.342
325.834
325.936
326.066
326.204
326.341
326.472
326.588
326.683
326.751
326.786
326.786
326.751
326.683
326.588
326.472
326.341
326.204
326.066
325.936
325.834
321.248
321.33
321.436
321.549
321.661
321.768
321.863
321.941
321.996
322.025
322.025
321.996
321.941
321.863
321.768
321.661
321.549
321.436
321.33
321.248
316.597
316.66
316.742
316.83
316.918
317
317.074
317.135
317.178
317.201
317.201
317.178
317.135
317.074
317
316.918
316.83
316.742
316.66
316.597
311.897
311.941
312
312.063
312.125
312.184
312.237
312.28
312.311
312.327
312.327
312.311
312.28
312.237
312.184
312.125
312.063
312
311.941
311.897
307.16
307.187
307.222
307.26
307.297
307.333
307.365
307.391
307.409
307.419
307.419
307.409
307.391
307.365
307.333
307.297
307.26
307.222
307.187
307.16
302.403
302.412
302.423
302.436
302.449
302.46
302.471
302.48
302.486
302.489
302.489
302.486
302.48
302.471
302.46
302.449
302.436
302.423
302.412
302.403
336.037
336.171
336.337
336.511
336.683
336.845
336.989
337.107
337.19
337.234
337.234
337.19
337.107
336.989
336.845
336.683
336.511
336.337
336.171
336.037
331.46
331.573
331.717
331.867
332.016
332.157
332.281
332.383
332.456
332.493
332.493
332.456
332.383
332.281
332.157
332.016
331.867
331.717
331.573
331.46
326.786
326.88
327.001
327.128
327.254
327.373
327.479
327.565
327.626
327.658
327.658
327.626
327.565
327.479
327.373
327.254
327.128
327.001
326.88
326.786
322.031
322.107
322.205
322.309
322.412
322.51
322.596
322.666
322.716
322.742
322.742
322.716
322.666
322.596
322.51
322.412
322.309
322.205
322.107
322.031
317.209
317.267
317.343
317.424
317.505
317.58
317.647
317.702
317.741
317.761
317.761
317.741
317.702
317.647
317.58
317.505
317.424
317.343
317.267
317.209
312.335
312.376
312.431
312.488
312.546
312.6
312.648
312.687
312.715
312.729
312.729
312.715
312.687
312.648
312.6
312.546
312.488
312.431
312.376
312.335
307.424
307.449
307.481
307.516
307.551
307.583
307.612
307.635
307.652
307.661
307.661
307.652
307.635
307.612
307.583
307.551
307.516
307.481
307.449
307.424
302.491
302.499
302.51
302.522
302.534
302.544
302.554
302.562
302.568
302.57
302.57
302.568
302.562
302.554
302.544
302.534
302.522
302.51
302.499
302.491
337.438
337.563
337.716
337.876
338.033
338.18
338.31
338.416
338.491
338.53
338.53
338.491
338.416
338.31
338.18
338.033
337.876
337.716
337.563
337.438
332.683
332.788
332.921
333.059
333.195
333.323
333.435
333.527
333.592
333.626
333.626
333.592
333.527
333.435
333.323
333.195
333.059
332.921
332.788
332.683
327.827
327.915
328.026
328.143
328.258
328.366
328.462
328.539
328.594
328.623
328.623
328.594
328.539
328.462
328.366
328.258
328.143
328.026
327.915
327.827
322.887
322.957
323.048
323.144
323.238
323.327
323.405
323.468
323.513
323.536
323.536
323.513
323.468
323.405
323.327
323.238
323.144
323.048
322.957
322.887
317.877
317.932
318.002
318.077
318.15
318.219
318.279
318.329
318.364
318.382
318.382
318.364
318.329
318.279
318.219
318.15
318.077
318.002
317.932
317.877
312.814
312.853
312.903
312.956
313.008
313.058
313.101
313.136
313.161
313.174
313.174
313.161
313.136
313.101
313.058
313.008
312.956
312.903
312.853
312.814
307.713
307.735
307.766
307.798
307.829
307.859
307.885
307.906
307.921
307.929
307.929
307.921
307.906
307.885
307.859
307.829
307.798
307.766
307.735
307.713
302.588
302.596
302.606
302.616
302.627
302.637
302.646
302.653
302.658
302.66
302.66
302.658
302.653
302.646
302.637
302.627
302.616
302.606
302.596
302.588
338.959
339.075
339.216
339.362
339.505
339.639
339.756
339.851
339.918
339.953
339.953
339.918
339.851
339.756
339.639
339.505
339.362
339.216
339.075
338.959
334.01
334.108
334.23
334.356
334.48
334.596
334.698
334.78
334.838
334.868
334.868
334.838
334.78
334.698
334.596
334.48
334.356
334.23
334.108
334.01
328.957
329.038
329.141
329.248
329.353
329.451
329.537
329.607
329.656
329.681
329.681
329.656
329.607
329.537
329.451
329.353
329.248
329.141
329.038
328.957
323.816
323.881
323.965
324.053
324.139
324.219
324.289
324.346
324.386
324.407
324.407
324.386
324.346
324.289
324.219
324.139
324.053
323.965
323.881
323.816
318.603
318.653
318.718
318.786
318.853
318.915
318.97
319.015
319.046
319.062
319.062
319.046
319.015
318.97
318.915
318.853
318.786
318.718
318.653
318.603
313.334
313.37
313.416
313.465
313.513
313.557
313.596
313.628
313.65
313.662
313.662
313.65
313.628
313.596
313.557
313.513
313.465
313.416
313.37
313.334
308.026
308.047
308.075
308.104
308.132
308.159
308.183
308.202
308.215
308.222
308.222
308.215
308.202
308.183
308.159
308.132
308.104
308.075
308.047
308.026
302.693
302.7
302.709
302.719
302.729
302.738
302.746
302.752
302.757
302.759
302.759
302.757
302.752
302.746
302.738
302.729
302.719
302.709
302.7
302.693
340.598
340.704
340.834
340.967
341.097
341.218
341.323
341.409
341.468
341.499
341.499
341.468
341.409
341.323
341.218
341.097
340.967
340.834
340.704
340.598
335.44
335.53
335.642
335.757
335.87
335.974
336.066
336.14
336.192
336.219
336.219
336.192
336.14
336.066
335.974
335.87
335.757
335.642
335.53
335.44
330.173
330.248
330.342
330.44
330.536
330.624
330.702
330.764
330.808
330.831
330.831
330.808
330.764
330.702
330.624
330.536
330.44
330.342
330.248
330.173
324.816
324.876
324.953
325.033
325.111
325.183
325.247
325.298
325.334
325.353
325.353
325.334
325.298
325.247
325.183
325.111
325.033
324.953
324.876
324.816
319.384
319.43
319.49
319.552
319.613
319.669
319.718
319.758
319.786
319.801
319.801
319.786
319.758
319.718
319.669
319.613
319.552
319.49
319.43
319.384
313.894
313.926
313.969
314.013
314.057
314.097
314.132
314.161
314.181
314.191
314.191
314.181
314.161
314.132
314.097
314.057
314.013
313.969
313.926
313.894
308.362
308.382
308.407
308.434
308.46
308.484
308.505
308.523
308.535
308.541
308.541
308.535
308.523
308.505
308.484
308.46
308.434
308.407
308.382
308.362
302.806
302.812
302.821
302.83
302.839
302.847
302.854
302.86
302.864
302.866
302.866
302.864
302.86
302.854
302.847
302.839
302.83
302.821
302.812
302.806
342.345
342.443
342.562
342.684
342.801
342.91
343.005
343.081
343.135
343.162
343.162
343.135
343.081
343.005
342.91
342.801
342.684
342.562
342.443
342.345
336.963
337.046
337.148
337.254
337.356
337.45
337.532
337.598
337.645
337.669
337.669
337.645
337.598
337.532
337.45
337.356
337.254
337.148
337.046
336.963
331.468
331.537
331.624
331.713
331.799
331.879
331.949
332.005
332.044
332.064
332.064
332.044
332.005
331.949
331.879
331.799
331.713
331.624
331.537
331.468
325.88
325.935
326.005
326.079
326.149
326.215
326.272
326.318
326.35
326.366
326.366
326.35
326.318
326.272
326.215
326.149
326.079
326.005
325.935
325.88
320.214
320.256
320.311
320.368
320.423
320.474
320.518
320.554
320.579
320.592
320.592
320.579
320.554
320.518
320.474
320.423
320.368
320.311
320.256
320.214
314.488
314.518
314.557
314.598
314.637
314.674
314.705
314.731
314.749
314.758
314.758
314.749
314.731
314.705
314.674
314.637
314.598
314.557
314.518
314.488
308.72
308.738
308.761
308.786
308.809
308.831
308.85
308.866
308.876
308.882
308.882
308.876
308.866
308.85
308.831
308.809
308.786
308.761
308.738
308.72
302.926
302.932
302.94
302.948
302.956
302.963
302.97
302.975
302.978
302.98
302.98
302.978
302.975
302.97
302.963
302.956
302.948
302.94
302.932
302.926
344.18
344.271
344.379
344.49
344.597
344.695
344.78
344.848
344.896
344.921
344.921
344.896
344.848
344.78
344.695
344.597
344.49
344.379
344.271
344.18
338.559
338.636
338.729
338.825
338.918
339.003
339.077
339.136
339.178
339.199
339.199
339.178
339.136
339.077
339.003
338.918
338.825
338.729
338.636
338.559
332.824
332.887
332.966
333.047
333.126
333.198
333.26
333.31
333.346
333.364
333.364
333.346
333.31
333.26
333.198
333.126
333.047
332.966
332.887
332.824
326.991
327.042
327.107
327.173
327.238
327.297
327.348
327.389
327.418
327.432
327.432
327.418
327.389
327.348
327.297
327.238
327.173
327.107
327.042
326.991
321.08
321.119
321.17
321.221
321.271
321.317
321.357
321.389
321.411
321.423
321.423
321.411
321.389
321.357
321.317
321.271
321.221
321.17
321.119
321.08
315.108
315.136
315.172
315.209
315.244
315.277
315.306
315.329
315.345
315.353
315.353
315.345
315.329
315.306
315.277
315.244
315.209
315.172
315.136
315.108
309.093
309.109
309.131
309.153
309.174
309.194
309.211
309.225
309.234
309.239
309.239
309.234
309.225
309.211
309.194
309.174
309.153
309.131
309.109
309.093
303.051
303.056
303.064
303.071
303.078
303.085
303.091
303.095
303.098
303.1
303.1
303.098
303.095
303.091
303.085
303.078
303.071
303.064
303.056
303.051
346.053
346.136
346.235
346.336
346.433
346.522
346.599
346.66
346.703
346.725
346.725
346.703
346.66
346.599
346.522
346.433
346.336
346.235
346.136
346.053
340.181
340.251
340.337
340.424
340.509
340.586
340.652
340.705
340.742
340.761
340.761
340.742
340.705
340.652
340.586
340.509
340.424
340.337
340.251
340.181
334.194
334.252
334.325
334.399
334.47
334.536
334.592
334.637
334.668
334.685
334.685
334.668
334.637
334.592
334.536
334.47
334.399
334.325
334.252
334.194
328.111
328.158
328.217
328.278
328.337
328.39
328.436
328.473
328.499
328.512
328.512
328.499
328.473
328.436
328.39
328.337
328.278
328.217
328.158
328.111
321.951
321.987
322.033
322.08
322.125
322.167
322.203
322.232
322.252
322.262
322.262
322.252
322.232
322.203
322.167
322.125
322.08
322.033
321.987
321.951
315.73
315.755
315.788
315.822
315.854
315.884
315.91
315.93
315.945
315.952
315.952
315.945
315.93
315.91
315.884
315.854
315.822
315.788
315.755
315.73
309.466
309.481
309.501
309.521
309.54
309.558
309.574
309.586
309.595
309.599
309.599
309.595
309.586
309.574
309.558
309.54
309.521
309.501
309.481
309.466
303.176
303.181
303.188
303.194
303.201
303.207
303.212
303.216
303.219
303.221
303.221
303.219
303.216
303.212
303.207
303.201
303.194
303.188
303.181
303.176
347.837
347.914
348.006
348.099
348.187
348.268
348.338
348.393
348.432
348.452
348.452
348.432
348.393
348.338
348.268
348.187
348.099
348.006
347.914
347.837
341.707
341.772
341.851
341.932
342.009
342.079
342.14
342.188
342.222
342.239
342.239
342.222
342.188
342.14
342.079
342.009
341.932
341.851
341.772
341.707
335.471
335.524
335.591
335.66
335.725
335.785
335.836
335.877
335.906
335.92
335.92
335.906
335.877
335.836
335.785
335.725
335.66
335.591
335.524
335.471
329.145
329.189
329.243
329.299
329.353
329.402
329.444
329.478
329.501
329.513
329.513
329.501
329.478
329.444
329.402
329.353
329.299
329.243
329.189
329.145
322.748
322.782
322.824
322.868
322.91
322.948
322.981
323.007
323.025
323.034
323.034
323.025
323.007
322.981
322.948
322.91
322.868
322.824
322.782
322.748
316.296
316.32
316.35
316.381
316.411
316.438
316.462
316.481
316.494
316.5
316.5
316.494
316.481
316.462
316.438
316.411
316.381
316.35
316.32
316.296
309.804
309.818
309.837
309.855
309.873
309.89
309.904
309.915
309.923
309.927
309.927
309.923
309.915
309.904
309.89
309.873
309.855
309.837
309.818
309.804
303.289
303.294
303.3
303.306
303.312
303.318
303.323
303.326
303.329
303.33
303.33
303.329
303.326
303.323
303.318
303.312
303.306
303.3
303.294
303.289
349.218
349.29
349.377
349.464
349.547
349.622
349.687
349.738
349.774
349.792
349.792
349.774
349.738
349.687
349.622
349.547
349.464
349.377
349.29
349.218
342.844
342.905
342.98
343.056
343.129
343.194
343.251
343.296
343.327
343.343
343.343
343.327
343.296
343.251
343.194
343.129
343.056
342.98
342.905
342.844
336.393
336.444
336.507
336.572
336.633
336.689
336.737
336.775
336.802
336.816
336.816
336.802
336.775
336.737
336.689
336.633
336.572
336.507
336.444
336.393
329.874
329.915
329.967
330.02
330.071
330.117
330.156
330.188
330.21
330.221
330.221
330.21
330.188
330.156
330.117
330.071
330.02
329.967
329.915
329.874
323.3
323.332
323.372
323.414
323.453
323.489
323.52
323.545
323.562
323.57
323.57
323.562
323.545
323.52
323.489
323.453
323.414
323.372
323.332
323.3
316.683
316.705
316.734
316.764
316.792
316.818
316.84
316.857
316.87
316.876
316.876
316.87
316.857
316.84
316.818
316.792
316.764
316.734
316.705
316.683
310.034
310.047
310.064
310.082
310.099
310.115
310.128
310.139
310.146
310.15
310.15
310.146
310.139
310.128
310.115
310.099
310.082
310.064
310.047
310.034
303.366
303.37
303.376
303.382
303.388
303.393
303.397
303.401
303.403
303.404
303.404
303.403
303.401
303.397
303.393
303.388
303.382
303.376
303.37
303.366
)
;

boundaryField
{
    hotSide
    {
        type            fixedGradient;
        gradient        nonuniform List<scalar> 
400
(
281.994
283.114
285.357
288.728
293.232
298.878
305.674
313.632
322.76
333.07
344.571
357.273
371.185
386.313
402.666
420.249
439.066
459.123
480.421
502.963
284.826
285.924
288.123
291.43
295.852
301.4
308.086
315.924
324.927
335.107
346.477
359.049
372.834
387.84
404.075
421.546
440.259
460.217
481.424
503.882
287.891
288.962
291.109
294.339
298.664
304.098
310.656
318.355
327.212
337.244
348.466
360.892
374.535
389.405
405.511
422.861
441.461
461.314
482.424
504.793
291.138
292.178
294.264
297.406
301.619
306.921
313.332
320.874
329.568
339.435
350.493
362.759
376.248
390.972
406.941
424.163
442.644
462.388
483.398
505.676
294.476
295.481
297.499
300.542
304.63
309.786
316.036
323.407
331.924
341.613
352.496
364.593
377.921
392.493
408.321
425.412
443.773
463.408
484.319
506.507
297.767
298.734
300.679
303.617
307.572
312.575
318.656
325.848
334.182
343.689
354.395
366.322
379.489
393.911
409.6
426.564
444.809
464.339
485.155
507.258
300.821
301.751
303.623
306.456
310.281
315.132
321.047
328.066
336.224
345.557
356.094
367.861
380.877
395.16
410.721
427.569
445.709
465.144
485.875
507.902
303.413
304.31
306.115
308.855
312.562
317.279
323.048
329.913
337.918
347.099
357.491
369.12
382.008
396.173
411.627
428.377
446.43
465.787
486.448
508.414
305.311
306.181
307.936
310.604
314.222
318.836
324.495
331.246
339.135
348.204
358.487
370.015
382.81
396.889
412.264
428.945
446.935
466.235
486.847
508.769
306.316
307.172
308.9
311.529
315.099
319.657
325.256
331.945
339.772
348.781
359.007
370.481
383.226
397.26
412.594
429.238
447.195
466.466
487.052
508.951
306.316
307.172
308.9
311.529
315.099
319.657
325.256
331.945
339.772
348.781
359.007
370.481
383.226
397.26
412.594
429.238
447.195
466.466
487.052
508.951
305.311
306.181
307.936
310.604
314.222
318.836
324.495
331.246
339.135
348.204
358.487
370.015
382.81
396.889
412.264
428.945
446.935
466.235
486.847
508.769
303.413
304.31
306.115
308.855
312.562
317.279
323.048
329.913
337.918
347.099
357.491
369.12
382.008
396.173
411.627
428.377
446.43
465.787
486.448
508.414
300.821
301.751
303.623
306.456
310.281
315.132
321.047
328.066
336.224
345.557
356.094
367.861
380.877
395.16
410.721
427.569
445.709
465.144
485.875
507.902
297.767
298.734
300.679
303.617
307.572
312.575
318.656
325.848
334.182
343.689
354.395
366.322
379.489
393.911
409.6
426.564
444.809
464.339
485.155
507.258
294.476
295.481
297.499
300.542
304.63
309.786
316.036
323.407
331.924
341.613
352.496
364.593
377.921
392.493
408.321
425.412
443.773
463.408
484.319
506.507
291.138
292.178
294.264
297.406
301.619
306.921
313.332
320.874
329.568
339.435
350.493
362.759
376.248
390.972
406.941
424.163
442.644
462.388
483.398
505.676
287.891
288.962
291.109
294.339
298.664
304.098
310.656
318.355
327.212
337.244
348.466
360.892
374.535
389.405
405.511
422.861
441.461
461.314
482.424
504.793
284.826
285.924
288.123
291.43
295.852
301.4
308.086
315.924
324.927
335.107
346.477
359.049
372.834
387.84
404.075
421.546
440.259
460.217
481.424
503.882
281.994
283.114
285.357
288.728
293.232
298.878
305.674
313.632
322.76
333.07
344.571
357.273
371.185
386.313
402.666
420.249
439.066
459.123
480.421
502.963
)
;
    }
    coldSide
    {
        type            mixed;
        refValue        uniform 300;
        refGradient     uniform 0;
        valueFraction   uniform 0.991591;
        source          uniform 0;
        value           nonuniform List<scalar> 
400
(
300.017
300.017
300.017
300.017
300.017
300.018
300.018
300.018
300.019
300.02
300.02
300.021
300.022
300.023
300.024
300.025
300.026
300.027
300.028
300.028
300.017
300.017
300.017
300.017
300.017
300.018
300.018
300.018
300.019
300.02
300.02
300.021
300.022
300.023
300.024
300.025
300.026
300.027
300.028
300.028
300.017
300.017
300.017