/*--------------------------------*- C++ -*----------------------------------*\
| =========                 |                                                 |
| \\      /  F ield         | OpenFOAM: The Open Source CFD Toolbox           |
|  \\    /   O peration     | Version:  2212                                  |
|   \\  /    A nd           | Website:  www.openfoam.com                      |
|    \\/     M anipulation  |                                                 |
\*---------------------------------------------------------------------------*/
FoamFile
{
    version     2.0;
    format      ascii;
    arch        "LSB;label=32;scalar=64";
    class       volScalarField;
    location    "./ITHACAoutput/true/8.8";
    object      error;
}
// * * * * * * * * * * * * * * * * * * * * * * * * * * * * * * * * * * * * * //

dimensions      [0 0 0 1 0 0 0];

internalField   nonuniform List<scalar> 
3200
(
3.02779
2.78308
2.58581
2.59301
2.76188
2.98548
3.2144
3.6131
3.84992
4.06565
4.19644
4.2255
4.15522
4.09376
4.11542
4.06983
4.16626
4.35471
4.72425
5.0279
2.52049
2.3422
2.26467
2.19289
2.31348
2.60199
2.76213
3.04778
3.29896
3.45024
3.59571
3.68081
3.64753
3.55656
3.48005
3.50139
3.58387
3.7629
4.00341
4.21964
2.16574
2.01099
1.93523
1.90152
1.87194
2.13121
2.29278
2.58366
2.81836
2.89576
3.01801
3.06005
3.02151
2.9161
2.92223
2.91634
2.95099
3.12316
3.34886
3.53707
1.73206
1.5941
1.5334
1.46277
1.62278
1.76068
1.80408
1.99687
2.272
2.3063
2.45882
2.47023
2.47467
2.37518
2.32746
2.29585
2.43315
2.51028
2.67681
2.89644
1.35958
1.25163
1.11818
1.20591
1.27304
1.27482
1.42848
1.57101
1.70439
1.81115
1.83175
1.90739
1.87307
1.88921
1.84058
1.84235
1.82397
1.99888
2.10768
2.22301
0.944078
0.82893
0.768948
0.858036
0.901725
0.941669
1.00973
1.09973
1.19529
1.24552
1.27664
1.29679
1.38792
1.31086
1.19069
1.29566
1.37369
1.43238
1.4453
1.61175
0.606457
0.512576
0.540019
0.515965
0.504254
0.568568
0.692621
0.693228
0.672131
0.737744
0.830503
0.827367
0.82415
0.813302
0.833879
0.765832
0.750979
0.859207
0.907483
0.9426
0.198463
0.21975
0.124367
0.105767
0.0939726
0.160549
0.21491
0.253526
0.224801
0.307133
0.186096
0.339343
0.258307
0.221472
0.283683
0.253001
0.263316
0.326947
0.337794
0.305675
2.09997
1.81772
1.72635
1.60831
1.74889
2.02893
2.25813
2.53201
2.8679
3.04317
3.14522
3.25421
3.13453
3.15989
3.093
3.11755
3.2104
3.40469
3.83615
4.22404
1.85598
1.57017
1.46189
1.43203
1.52745
1.69848
1.86221
2.2002
2.42243
2.64824
2.75358
2.72574
2.73275
2.71714
2.66298
2.68247
2.82816
3.01635
3.29793
3.64234
1.54445
1.36461
1.26702
1.36553
1.25464
1.4756
1.58664
1.76465
2.04653
2.2052
2.31443
2.30992
2.2532
2.22682
2.27214
2.32875
2.29871
2.5952
2.82026
3.03516
1.30515
1.13435
0.99373
1.01112
1.084
1.20986
1.30403
1.57646
1.66832
1.78439
1.93851
1.96581
1.86828
1.80148
1.92809
1.88495
1.90851
2.05778
2.34867
2.42784
0.969407
0.909349
0.778127
0.773249
0.747957
0.902905
0.995176
1.21071
1.32947
1.39133
1.42202
1.442
1.52061
1.50279
1.48036
1.4354
1.57467
1.60865
1.75829
1.97053
0.761545
0.585238
0.54574
0.526527
0.593672
0.62186
0.736533
0.814986
0.967462
1.02122
1.07969
1.07408
1.05659
1.00451
0.977575
0.990046
1.04247
1.15014
1.24158
1.35852
0.385528
0.3521
0.381368
0.377148
0.326719
0.435906
0.410459
0.502159
0.575528
0.589349
0.582233
0.607139
0.616116
0.606946
0.569082
0.588078
0.678543
0.669356
0.756632
0.854131
0.205106
0.132614
0.0563149
0.108246
0.0696424
0.152074
0.149722
0.155444
0.158707
0.223437
0.302574
0.237556
0.225083
0.167474
0.219665
0.192597
0.223325
0.252755
0.206533
0.280918
1.10459
0.74924
0.471972
0.506961
0.476502
0.778549
0.899732
1.21149
1.47862
1.65739
1.88223
1.89826
1.91097
1.89142
1.94132
1.92484
2.12036
2.38738
2.76419
3.17207
1.02649
0.709238
0.520263
0.424021
0.455796
0.697042
0.859244
1.11539
1.38376
1.48154
1.64936
1.6828
1.68347
1.59828
1.64106
1.67256
1.85235
2.02962
2.3926
2.68734
0.892949
0.629959
0.452771
0.421183
0.370487
0.581366
0.707665
0.912386
1.14994
1.30348
1.36006
1.43866
1.42475
1.36762
1.39253
1.42875
1.51523
1.75998
2.03097
2.31865
0.69913
0.449581
0.377844
0.364007
0.408303
0.432383
0.546992
0.749187
1.00275
1.05961
1.10657
1.17245
1.2179
1.12564
1.1465
1.16762
1.33825
1.40981
1.66211
1.99036
0.542167
0.363861
0.305617
0.261185
0.269615
0.373884
0.511334
0.589522
0.666416
0.861443
0.905228
0.911904
0.964542
0.894845
0.939347
0.992128
0.989967
1.13929
1.31661
1.45345
0.392128
0.274042
0.16336
0.167532
0.186301
0.284018
0.328828
0.438626
0.567769
0.588701
0.673305
0.662577
0.641205
0.631883
0.699387
0.668526
0.76895
0.758928
0.971924
1.03688
0.265833
0.241347
0.124098
0.181535
0.133794
0.240475
0.120694
0.296422
0.29683
0.39453
0.360519
0.357071
0.463223
0.38464
0.41765
0.423844
0.435638
0.498204
0.584696
0.620521
0.104535
0.0176031
0.00766452
0.0312141
0.0128851
0.109692
0.0218686
0.0715261
0.150724
0.0918532
0.0926029
0.144003
0.0620818
0.0732995
0.112425
0.0735883
0.171648
0.131153
0.186532
0.254457
0.07361
-0.234612
-0.536685
-0.634649
-0.684796
-0.537958
-0.338674
-0.0718992
0.116233
0.370675
0.475518
0.563508
0.63039
0.667415
0.659371
0.807079
0.976967
1.32483
1.80959
2.18453
0.123252
-0.239626
-0.350804
-0.557219
-0.507742
-0.390726
-0.250936
-0.0203003
0.14578
0.322481
0.449604
0.53837
0.561056
0.57719
0.601231
0.733564
0.87982
1.2298
1.58227
1.92412
0.187543
-0.12027
-0.324817
-0.420398
-0.42414
-0.299441
-0.194411
-0.0101847
0.195136
0.32946
0.470642
0.482023
0.505346
0.44334
0.51497
0.661678
0.785601
1.0724
1.43693
1.69442
0.113093
-0.031707
-0.199248
-0.323837
-0.321262
-0.251755
-0.182854
-0.0442832
0.203379
0.263459
0.352783
0.413823
0.417232
0.456299
0.477204
0.484086
0.621797
0.820463
1.13173
1.36217
0.105277
-0.114074
-0.165549
-0.322937
-0.252628
-0.182746
-0.218527
0.0613616
0.0275009
0.220042
0.24774
0.282737
0.287338
0.347099
0.361075
0.409566
0.578334
0.698347
0.917182
1.08077
0.0448632
-0.0209228
-0.132842
-0.115324
-0.152873
-0.171363
-0.0578895
-0.0200336
0.0994528
0.146229
0.225257
0.291933
0.217628
0.259046
0.233183
0.264484
0.363365
0.483958
0.635398
0.759066
0.010978
-0.00419906
-0.0927722
-0.0642267
-0.0584151
-0.0820294
-0.0283136
0.0383091
0.0721556
0.0433311
0.0935962
0.171366
0.144625
0.177625
0.180784
0.21626
0.201785
0.313505
0.414811
0.429015
-0.0277128
0.00310138
-0.0483904
-0.0429971
-0.0304664
-0.0370197
0.0408204
0.0808846
-0.0199506
0.0226015
0.0350514
0.0539751
0.00835868
-0.0460945
0.00465668
0.136949
0.126696
0.0816091
0.113276
0.167843
-0.78834
-1.21709
-1.54071
-1.66019
-1.76325
-1.69432
-1.51516
-1.31132
-1.02166
-0.872815
-0.651956
-0.626256
-0.524606
-0.496406
-0.453418
-0.25481
0.00307751
0.381673
0.927391
1.39415
-0.64401
-1.04263
-1.21263
-1.39361
-1.42355
-1.40722
-1.21425
-1.04717
-0.898443
-0.667949
-0.644426
-0.454419
-0.472201
-0.372565
-0.387451
-0.20747
0.130976
0.395441
0.835747
1.29436
-0.496411
-0.80343
-1.00868
-1.10772
-1.22113
-1.15226
-1.02099
-0.885875
-0.688308
-0.542764
-0.49212
-0.387542
-0.375935
-0.27521
-0.204012
-0.0673451
0.10939
0.348501
0.759449
1.11525
-0.395654
-0.649286
-0.770197
-0.906073
-0.946521
-0.927563
-0.874134
-0.706682
-0.533689
-0.441095
-0.310295
-0.258628
-0.229731
-0.242585
-0.210201
-0.0313296
0.0830312
0.265654
0.55587
0.918077
-0.210465
-0.478569
-0.555918
-0.711119
-0.834468
-0.70255
-0.619212
-0.534637
-0.450527
-0.37723
-0.335872
-0.22826
-0.192622
-0.200663
-0.135018
-0.0795385
0.117362
0.281358
0.451404
0.651677
-0.128991
-0.30722
-0.424463
-0.466157
-0.49357
-0.471345
-0.377361
-0.387009
-0.362321
-0.176323
-0.187544
-0.190339
-0.165124
-0.0847953
-0.134455
-0.0356041
0.0772813
0.174593
0.367515
0.514754
-0.133801
-0.190295
-0.273422
-0.270363
-0.356053
-0.231252
-0.19065
-0.173518
-0.150629
-0.174892
-0.117516
-0.039792
-0.0899395
-0.0290516
-0.0661627
-0.0188094
0.0974086
0.124125
0.272339
0.319166
-0.0702549
-0.0334899
-0.0970532
-0.0491254
-0.0343146
-0.119964
-0.0664005
-0.118715
-0.034152
-0.0475792
-0.0665831
-0.0490056
-0.0463864
-0.0652056
0.0315929
0.0276632
0.0100414
-0.00064044
0.0842554
0.137295
-1.46716
-1.88097
-2.28951
-2.54025
-2.60043
-2.65135
-2.50111
-2.32481
-2.15675
-1.912
-1.80863
-1.62816
-1.59557
-1.48579
-1.3747
-1.07894
-0.725278
-0.355176
0.231758
0.781319
-1.21528
-1.54605
-1.87435
-2.07603
-2.23793
-2.19978
-2.11605
-1.95177
-1.90538
-1.64892
-1.56221
-1.41299
-1.41752
-1.19563
-1.06654
-0.850061
-0.574372
-0.247322
0.230393
0.756133
-1.0307
-1.31269
-1.57832
-1.75431
-1.78805
-1.82714
-1.74883
-1.62893
-1.52144
-1.38414
-1.27919
-1.15329
-1.11522
-0.974406
-0.953118
-0.673068
-0.499792
-0.118981
0.197265
0.589937
-0.796675
-1.07325
-1.24931
-1.41264
-1.48782
-1.47654
-1.40828
-1.35336
-1.18113
-1.03898
-1.06204
-0.926742
-0.866971
-0.781128
-0.72865
-0.539675
-0.46479
-0.0893866
0.225067
0.548102
-0.603859
-0.797276
-0.909444
-1.09604
-1.13488
-1.18771
-1.09544
-1.00263
-0.952705
-0.838083
-0.796242
-0.687685
-0.58981
-0.54285
-0.516072
-0.435118
-0.300921
-0.0814888
0.159494
0.406088
-0.43086
-0.533378
-0.696511
-0.771299
-0.84692
-0.775426
-0.759992
-0.749469
-0.65533
-0.591502
-0.519047
-0.540111
-0.472031
-0.459055
-0.441623
-0.212912
-0.194445
-0.0939347
0.12082
0.308598
-0.261405
-0.280407
-0.3875
-0.384905
-0.447847
-0.466828
-0.452985
-0.377162
-0.429992
-0.296628
-0.296685
-0.292605
-0.241244
-0.207761
-0.273299
-0.142597
-0.0413946
-0.0129529
0.0958476
0.174021
-0.0598443
-0.0942025
-0.113959
-0.167082
-0.204304
-0.186993
-0.135858
-0.147744
-0.057976
-0.126192
-0.144038
-0.119624
-0.187425
-0.0647298
-0.0469653
-0.0690241
-0.0427031
-0.0450587
0.0429039
0.0792357
-1.92776
-2.40251
-2.87654
-3.14312
-3.31215
-3.37393
-3.32794
-3.18499
-2.98603
-2.86498
-2.71296
-2.56523
-2.3743
-2.26526
-2.0405
-1.72667
-1.35494
-0.756569
-0.246205
0.361192
-1.60595
-2.00426
-2.39537
-2.66805
-2.81804
-2.86196
-2.75463
-2.73853
-2.56034
-2.4439
-2.31977
-2.14491
-2.01586
-1.96541
-1.72861
-1.46072
-1.10683
-0.6523
-0.128339
0.424971
-1.32573
-1.70724
-1.99217
-2.24466
-2.40733
-2.42308
-2.33856
-2.19173
-2.13051
-1.95859
-1.94046
-1.76838
-1.67485
-1.55029
-1.45716
-1.21085
-0.906976
-0.561269
0.00219903
0.34762
-1.06515
-1.30747
-1.63104
-1.8065
-1.99716
-1.9448
-1.9424
-1.82126
-1.82939
-1.6863
-1.56966
-1.49904
-1.34415
-1.24619
-1.15337
-0.965788
-0.788468
-0.449667
-0.017554
0.323862
-0.774464
-0.959234
-1.27817
-1.34037
-1.40113
-1.45851
-1.45783
-1.42641
-1.26835
-1.21314
-1.13347
-1.11146
-1.00083
-1.01073
-0.881974
-0.811211
-0.524257
-0.239964
-0.0430407
0.222784
-0.582716
-0.772898
-0.836672
-0.975422
-1.03714
-1.11068
-0.976249
-0.98567
-0.920528
-0.888286
-0.809394
-0.792159
-0.759928
-0.765578
-0.634418
-0.509487
-0.428903
-0.223436
-0.0634401
0.173301
-0.385325
-0.483876
-0.447724
-0.636558
-0.636482
-0.655328
-0.601535
-0.63828
-0.620975
-0.591383
-0.530925
-0.43684
-0.435073
-0.42311
-0.362951
-0.284239
-0.250189
-0.0856729
0.0207162
0.0498133
-0.159149
-0.164125
-0.166003
-0.192735
-0.165738
-0.17253
-0.196806
-0.189909
-0.197093
-0.170897
-0.194265
-0.11872
-0.128029
-0.182038
-0.0840128
-0.0987524
-0.119923
-0.099718
-0.000225628
0.0238271
-2.16168
-2.65901
-3.21424
-3.56365
-3.88638
-3.91037
-3.85713
-3.8038
-3.68706
-3.56209
-3.39652
-3.14635
-3.03578
-2.77309
-2.52869
-2.21679
-1.70988
-1.13166
-0.507832
0.272372
-1.78137
-2.37782
-2.70643
-2.99794
-3.20175
-3.35005
-3.34412
-3.28714
-3.25397
-2.96772
-2.90541
-2.74333
-2.5371
-2.41645
-2.22741
-1.82264
-1.43649
-0.951299
-0.332892
0.312887
-1.51987
-1.86799
-2.20528
-2.57206
-2.64221
-2.8136
-2.7719
-2.69091
-2.61664
-2.52242
-2.33778
-2.28332
-2.11828
-1.98977
-1.78732
-1.6096
-1.22537
-0.721851
-0.23056
0.257716
-1.20061
-1.53195
-1.75278
-2.05064
-2.15517
-2.26297
-2.2673
-2.20226
-2.10942
-2.06354
-1.95254
-1.81068
-1.71498
-1.62448
-1.4085
-1.21313
-0.962169
-0.597694
-0.231487
0.215204
-0.979613
-1.15207
-1.3907
-1.58467
-1.63798
-1.66322
-1.79482
-1.68638
-1.66706
-1.51561
-1.57338
-1.40024
-1.36675
-1.3204
-1.06289
-0.931934
-0.781125
-0.429389
-0.21594
0.166062
-0.669578
-0.860961
-0.978713
-1.18134
-1.22721
-1.17354
-1.21362
-1.18176
-1.21224
-1.13651
-1.03143
-1.07427
-0.962969
-0.882232
-0.718258
-0.655869
-0.469672
-0.301898
-0.118141
0.0998434
-0.377939
-0.46901
-0.593551
-0.679592
-0.725594
-0.724669
-0.708797
-0.700266
-0.729163
-0.662664
-0.668704
-0.626185
-0.614849
-0.461716
-0.462057
-0.367328
-0.252586
-0.238742
-0.0551009
0.0219143
-0.120089
-0.155441
-0.1791
-0.228944
-0.212143
-0.250048
-0.25444
-0.169801
-0.263586
-0.224599
-0.154335
-0.210598
-0.182588
-0.193615
-0.156943
-0.0763294
-0.072242
-0.0197411
-0.0157401
0.0390762
-2.15668
-2.71304
-3.29586
-3.79494
-4.02786
-4.29403
-4.32055
-4.25379
-4.13185
-4.03837
-3.78775
-3.65023
-3.386
-3.1278
-2.81209
-2.3629
-1.8714
-1.11482
-0.487594
0.276587
-1.80144
-2.2042
-2.79351
-3.21636
-3.45605
-3.6288
-3.649
-3.67187
-3.51234
-3.41706
-3.26617
-3.10576
-2.94089
-2.70716
-2.44103
-2.01124
-1.47629
-0.99818
-0.331462
0.227527
-1.47791
-1.76527
-2.38939
-2.72029
-2.8281
-3.00795
-3.00279
-2.95775
-2.97784
-2.80538
-2.68953
-2.66064
-2.52384
-2.22926
-2.04326
-1.68309
-1.27394
-0.786344
-0.220148
0.220938
-1.20781
-1.5218
-1.90912
-2.17339
-2.28287
-2.47195
-2.45035
-2.39841
-2.34283
-2.28482
-2.17991
-2.02833
-1.96332
-1.74473
-1.60585
-1.37072
-1.01066
-0.651925
-0.199655
0.172018
-0.915057
-1.1778
-1.44818
-1.66886
-1.8096
-1.8304
-1.84887
-1.87957
-1.83964
-1.74892
-1.66299
-1.64194
-1.52201
-1.45864
-1.25115
-1.08825
-0.778245
-0.495284
-0.0776064
0.196069
-0.648922
-0.89153
-0.940066
-1.18037
-1.26017
-1.35045
-1.30673
-1.43866
-1.31411
-1.25924
-1.23651
-1.12643
-1.0704
-0.99267
-0.89754
-0.794685
-0.593798
-0.297939
-0.056559
0.146921
-0.391873
-0.453249
-0.653327
-0.654893
-0.72683
-0.826293
-0.878216
-0.805644
-0.699794
-0.78667
-0.754779
-0.715511
-0.624039
-0.605694
-0.529831
-0.447859
-0.386677
-0.203695
-0.058004
0.0476409
-0.114331
-0.208648
-0.13014
-0.206341
-0.250462
-0.276152
-0.288098
-0.233585
-0.248857
-0.256542
-0.251206
-0.204102
-0.213306
-0.150418
-0.158779
-0.135019
-0.126294
-0.0891439
-0.0556061
0.0366432
-1.91094
-2.58839
-3.22876
-3.7513
-4.09003
-4.2352
-4.34904
-4.42657
-4.34799
-4.21137
-3.98497
-3.85713
-3.56925
-3.25787
-2.81283
-2.39248
-1.83675
-1.10204
-0.263105
0.56862
-1.64716
-2.12237
-2.64638
-3.1371
-3.49226
-3.67328
-3.74219
-3.7553
-3.6735
-3.61688
-3.37513
-3.25039
-3.09505
-2.73019
-2.43813
-2.0516
-1.49393
-0.883522
-0.273851
0.52404
-1.36751
-1.76873
-2.18579
-2.6554
-2.91431
-3.01872
-3.11685
-3.12359
-3.04531
-2.93092
-2.82948
-2.67394
-2.59872
-2.22122
-2.05735
-1.61013
-1.27795
-0.674282
-0.108679
0.465764
-1.01383
-1.4309
-1.80178
-2.191
-2.3071
-2.42033
-2.5071
-2.5042
-2.52433
-2.39646
-2.30927
-2.25645
-2.02235
-1.85976
-1.57969
-1.29658
-0.971328
-0.538978
0.0222452
0.480638
-0.826978
-1.05783
-1.31161
-1.59873
-1.78078
-1.93616
-1.8987
-1.99665
-1.84363
-1.89887
-1.72946
-1.64938
-1.57507
-1.35828
-1.25078
-1.02931
-0.696174
-0.365567
-0.0353873
0.35615
-0.566575
-0.744116
-1.00398
-1.16968
-1.2841
-1.30613
-1.36785
-1.36443
-1.32653
-1.32502
-1.23344
-1.19586
-1.09455
-1.03136
-0.84726
-0.751401
-0.557475
-0.207606
-0.0063499
0.230585
-0.340965
-0.492468
-0.505721
-0.737425
-0.698839
-0.756025
-0.81305
-0.79249
-0.773822
-0.746664
-0.706885
-0.696671
-0.6367
-0.6021
-0.437482
-0.446739
-0.364335
-0.198868
-0.0179927
0.0785024
-0.154564
-0.110011
-0.162888
-0.238002
-0.227667
-0.24968
-0.351767
-0.281921
-0.256726
-0.287217
-0.220406
-0.221489
-0.26722
-0.20089
-0.159388
-0.129738
-0.0736451
-0.0112537
0.0304551
0.0412579
-1.40314
-2.12006
-2.80375
-3.36326
-3.85881
-4.09353
-4.22955
-4.28083
-4.25575
-4.08183
-3.96039
-3.80729
-3.46502
-3.07167
-2.65258
-2.14261
-1.43436
-0.598051
0.248881
1.05387
-1.16754
-1.74616
-2.33842
-2.84031
-3.1981
-3.45195
-3.5719
-3.5741
-3.59379
-3.50347
-3.41817
-3.17803
-2.92441
-2.61399
-2.20608
-1.73858
-1.19526
-0.490974
0.248363
0.980665
-0.974232
-1.42691
-1.83932
-2.39418
-2.61273
-2.85872
-2.97998
-3.04216
-2.98204
-2.84965
-2.84907
-2.66394
-2.34925
-2.20377
-1.79245
-1.37723
-0.983694
-0.333436
0.331597
0.86256
-0.794035
-1.16651
-1.52948
-1.83892
-2.13443
-2.31555
-2.45242
-2.49809
-2.45541
-2.35535
-2.31181
-2.14369
-1.89924
-1.77392
-1.47306
-1.18496
-0.751045
-0.268394
0.241427
0.709716
-0.622072
-0.888887
-1.20253
-1.41025
-1.6814
-1.80687
-1.78721
-1.84557
-1.87358
-1.84108
-1.70193
-1.66653
-1.51842
-1.37588
-1.09911
-0.86778
-0.54722
-0.171075
0.171176
0.60835
-0.321163
-0.680846
-0.908693
-0.97566
-1.18523
-1.2709
-1.29117
-1.37738
-1.30446
-1.28022
-1.24725
-1.16928
-0.994804
-0.994999
-0.809214
-0.586248
-0.413167
-0.108528
0.188047
0.469676
-0.262483
-0.41724
-0.457973
-0.579352
-0.762009
-0.811782
-0.853462
-0.799543
-0.743681
-0.798708
-0.765787
-0.676288
-0.616399
-0.558325
-0.544165
-0.37396
-0.137074
-0.0810829
0.147602
0.260816
-0.0976151
-0.11179
-0.180911
-0.165296
-0.24167
-0.25898
-0.25585
-0.290898
-0.279358
-0.240169
-0.304669
-0.15382
-0.192466
-0.213087
-0.144202
-0.163804
-0.118532
-0.0269573
0.0436604
0.0870925
-0.683041
-1.38954
-2.23126
-2.80485
-3.30327
-3.58773
-3.78015
-3.87854
-3.94885
-3.77088
-3.56839
-3.35699
-3.07659
-2.64845
-2.19396
-1.5339
-0.755587
0.134104
1.00845
1.8724
-0.478158
-1.13665
-1.85559
-2.36157
-2.69079
-3.06006
-3.28501
-3.30337
-3.246
-3.20083
-3.05104
-2.78241
-2.57326
-2.23905
-1.81506
-1.2717
-0.590589
0.111108
0.988558
1.62758
-0.430021
-0.938274
-1.46115
-1.87681
-2.2903
-2.51832
-2.65786
-2.73273
-2.73789
-2.65772
-2.58581
-2.302
-2.07665
-1.82887
-1.48978
-1.04717
-0.465163
0.189985
0.814846
1.44158
-0.364873
-0.662617
-1.10445
-1.58286
-1.79142
-2.07628
-2.11992
-2.2677
-2.18543
-2.18981
-1.98955
-1.91927
-1.7092
-1.43069
-1.25404
-0.878656
-0.404673
0.137229
0.634445
1.23454
-0.213194
-0.604487
-0.964732
-1.13281
-1.38336
-1.62787
-1.69225
-1.65679
-1.68344
-1.6008
-1.57834
-1.4668
-1.35718
-1.10995
-0.882875
-0.619394
-0.295882
0.125437
0.590192
0.868733
-0.155543
-0.343848
-0.583519
-0.874977
-0.950322
-1.13123
-1.13491
-1.23286
-1.19061
-1.16935
-1.09587
-1.06387
-0.955312
-0.857451
-0.611115
-0.450926
-0.128017
0.0726282
0.392549
0.660463
-0.0226342
-0.253078
-0.366529
-0.558633
-0.578917
-0.634358
-0.682393
-0.70296
-0.706486
-0.67443
-0.705437
-0.582172
-0.578032
-0.480776
-0.398998
-0.307154
-0.0805245
0.0438041
0.320324
0.406349
-0.0482621
-0.0930543
-0.107102
-0.233863
-0.129782
-0.288341
-0.226981
-0.263783
-0.273089
-0.279412
-0.252565
-0.211391
-0.249714
-0.191104
-0.144594
-0.097661
-0.0457412
0.0206023
0.0865964
0.103047
0.46345
-0.423929
-1.15386
-1.87197
-2.54004
-2.90457
-3.1274
-3.16622
-3.2256
-3.18956
-2.98977
-2.71039
-2.37535
-1.95698
-1.37571
-0.686752
0.0793284
0.992754
2.00032
2.93176
0.382644
-0.325156
-1.02179
-1.56377
-2.12822
-2.4425
-2.606
-2.70889
-2.68573
-2.71081
-2.55007
-2.36521
-2.04456
-1.5388
-1.15083
-0.551147
0.196965
0.909893
1.76448
2.5881
0.305596
-0.196412
-0.789362
-1.24375
-1.68921
-1.94268
-2.10755
-2.20702
-2.2899
-2.22781
-2.10407
-1.89195
-1.5989
-1.32452
-0.969586
-0.357336
0.121679
0.831639
1.59659
2.19746
0.340133
-0.113981
-0.588535
-1.01212
-1.41409
-1.51702
-1.7102
-1.81129
-1.79055
-1.72863
-1.61695
-1.55768
-1.26231
-1.02753
-0.655762
-0.353588
0.189847
0.73169
1.37014
1.82853
0.281853
-0.0951128
-0.401176
-0.720533
-1.04835
-1.19743
-1.27645
-1.39979
-1.3807
-1.29361
-1.24238
-1.14244
-0.928404
-0.800561
-0.484326
-0.105937
0.175201
0.589428
1.07209
1.40072
0.178394
-0.0520185
-0.286771
-0.546816
-0.752746
-0.849493
-0.919991
-0.97898
-0.970422
-0.984673
-0.870988
-0.827442
-0.765333
-0.487259
-0.33971
-0.188532
0.14738
0.388459
0.745946
1.00616
0.097839
-0.0428369
-0.197066
-0.247961
-0.429018
-0.479589
-0.539239
-0.553646
-0.576202
-0.574532
-0.519304
-0.458809
-0.337251
-0.26393
-0.174655
-0.0446915
0.0998047
0.264602
0.479781
0.697997
-0.0362404
0.0509569
-0.0517529
-0.100579
-0.185483
-0.177107
-0.166313
-0.171842
-0.219399
-0.220578
-0.190968
-0.186045
-0.11577
-0.151717
-0.0556967
-0.0483731
0.0112855
0.0697791
0.196855
0.206332
1.64407
0.826209
-0.0259805
-0.882728
-1.34729
-1.78469
-2.07209
-2.20013
-2.30974
-2.18834
-2.06635
-1.75834
-1.41731
-0.897052
-0.26106
0.439066
1.27176
2.21966
3.2671
4.23563
1.49204
0.865667
0.0389197
-0.603565
-1.09915
-1.55951
-1.68374
-1.83388
-1.91385
-1.86967
-1.65394
-1.46603
-1.09082
-0.647724
-0.199723
0.437351
1.17771
1.98878
2.89626
3.72636
1.35164
0.734405
0.0253687
-0.478768
-0.871775
-1.18834
-1.40107
-1.4802
-1.51894
-1.52545
-1.40901
-1.15373
-0.867195
-0.564517
-0.11127
0.369199
1.0476
1.74409
2.52946
3.22277
1.09792
0.656852
0.104022
-0.30048
-0.680346
-0.943979
-1.13385
-1.15873
-1.23941
-1.2035
-1.07424
-0.946025
-0.703545
-0.420286
-0.058628
0.373401
0.857228
1.45897
2.13322
2.56784
0.818834
0.479987
0.113529
-0.213723
-0.402555
-0.674744
-0.832642
-0.901141
-0.947549
-0.903767
-0.822078
-0.705382
-0.52305
-0.260384
-0.0291357
0.385691
0.804094
1.09101
1.64541
2.08169
0.663663
0.411301
0.133365
-0.158442
-0.28153
-0.440901
-0.547411
-0.619267
-0.65511
-0.590887
-0.589787
-0.468402
-0.378753
-0.22719
-0.00214246
0.246054
0.473352
0.877056
1.20891
1.45735
0.428398
0.199154
0.0513734
-0.100957
-0.194737
-0.303304
-0.359152
-0.41717
-0.335105
-0.37428
-0.402829
-0.276584
-0.267625
-0.159648
0.00508511
0.186352
0.338665
0.49052
0.768358
0.914741
0.116027
0.114926
0.0707189
-0.0211066
-0.0593213
-0.111094
-0.0920329
-0.118823
-0.184565
-0.133365
-0.0711946
-0.0712672
-0.109733
-0.0474656
-0.016807
0.117695
0.143987
0.162648
0.258564
0.263158
3.15645
2.38334
1.39614
0.642581
0.0739095
-0.463447
-0.793538
-1.01134
-1.04722
-0.976317
-0.758922
-0.484899
-0.125707
0.335363
1.04143
1.83543
2.63688
3.7021
4.7992
5.87993
2.943
2.09807
1.26477
0.594131
0.121365
-0.321089
-0.571707
-0.74173
-0.811962
-0.785835
-0.678353
-0.370733
-0.0735534
0.420575
1.05318
1.59015
2.43153
3.36303
4.25226
5.12797
2.52501
1.83222
1.20823
0.601748
0.166442
-0.196046
-0.430128
-0.545319
-0.635013
-0.597747
-0.438552
-0.276828
0.0595356
0.477806
0.810492
1.47033
2.18877
2.8396
3.6739
4.3655
2.00321
1.61037
1.02521
0.585593
0.139329
-0.100488
-0.338074
-0.446727
-0.51146
-0.467767
-0.349173
-0.174044
0.0599976
0.351729
0.793509
1.17732
1.77475
2.38631
3.10104
3.61044
1.65701
1.24395
0.814412
0.429397
0.189251
-0.0861748
-0.23297
-0.315217
-0.400778
-0.258135
-0.26996
-0.14804
0.0492195
0.264091
0.594819
1.0621
1.40302
1.84855
2.40392
2.76305
1.19224
0.896506
0.556349
0.437821
0.0952261
-0.0575779
-0.143496
-0.255309
-0.18108
-0.240656
-0.141131
-0.077676
0.121764
0.230567
0.448215
0.724263
1.05326
1.35938
1.66884
2.07573
0.736617
0.559875
0.385963
0.209102
0.121486
-0.0285272
-0.0844085
-0.164745
-0.11047
-0.0894293
-0.0969325
-0.0499997
0.0826617
0.214832
0.289933
0.401162
0.629034
0.809928
1.01851
1.18143
0.200304
0.213245
0.104214
0.0671049
0.0152218
-0.0752542
0.0130088
-0.00925465
-0.067072
-0.0412904
-0.0193034
0.00166584
0.00173021
0.0739089
0.0258071
0.148529
0.193958
0.266249
0.37332
0.383991
5.03853
4.18399
3.26713
2.38172
1.73362
1.13786
0.787002
0.593087
0.470306
0.569009
0.760395
0.993691
1.41969
1.93287
2.59953
3.45277
4.43093
5.54317
6.67604
7.71877
4.45862
3.73138
2.90169
2.14983
1.5984
1.14333
0.750742
0.602472
0.546638
0.570751
0.675902
0.952792
1.34728
1.79163
2.31273
3.09375
3.94685
4.84697
5.86351
6.746
3.81637
3.19004
2.50232
1.84899
1.34903
0.995553
0.663729
0.522044
0.495068
0.585825
0.712331
0.891824
1.20616
1.63191
2.06978
2.73701
3.41555
4.117
5.00202
5.79
3.16281
2.60485
2.12547
1.52609
1.21238
0.850757
0.702113
0.446282
0.419101
0.41294
0.59234
0.725181
1.06469
1.26532
1.77819
2.19532
2.77933
3.45649
4.15677
4.73832
2.47658
2.08598
1.67092
1.20332
0.88782
0.690027
0.47902
0.407681
0.377487
0.477821
0.468353
0.61672
0.782968
1.05551
1.31994
1.75237
2.21568
2.67469
3.27803
3.71144
1.76255
1.5181
1.19287
0.878401
0.638884
0.559563
0.359594
0.325253
0.248851
0.278319
0.376588
0.502817
0.613902
0.762236
1.01612
1.23867
1.59631
1.87364
2.39112
2.66128
1.1056
0.944979
0.700794
0.530485
0.495258
0.292276
0.315811
0.253936
0.206401
0.225493
0.245397
0.248353
0.377924
0.504178
0.590499
0.780005
0.979052
1.19939
1.40278
1.5522
0.348843
0.313063
0.241043
0.106335
0.172656
0.0960367
0.0121413
0.118798
0.0722366
0.0984249
0.0532581
0.0925875
0.125174
0.186653
0.21572
0.230995
0.32208
0.339121
0.492115
0.510458
7.09903
6.24175
5.20684
4.33352
3.60543
2.97112
2.70863
2.42819
2.31451
2.33854
2.5573
2.84097
3.30111
3.87146
4.57336
5.44208
6.38006
7.57504
8.69115
9.83182
6.2438
5.39042
4.65122
3.83847
3.24983
2.77967
2.34048
2.19235
2.00514
2.09795
2.3507
2.62593
2.94391
3.41216
3.96156
4.83148
5.6214
6.55173
7.66615
8.50024
5.26866
4.71794
3.96861
3.28729
2.81683
2.35975
2.13999
1.88955
1.89708
1.85813
1.96053
2.20013
2.48391
2.96714
3.481
4.11771
4.86683
5.6733
6.49332
7.25855
4.34527
3.9193
3.30219
2.75972
2.27188
2.02106
1.74165
1.59855
1.55647
1.53693
1.60862
1.84857
2.06934
2.41709
2.85815
3.4007
3.97052
4.58814
5.31664
5.96256
3.37414
3.0658
2.58929
2.18443
1.80306
1.58602
1.35526
1.31422
1.21609
1.25477
1.28583
1.44198
1.60726
1.9416
2.33006
2.66551
3.12654
3.68197
4.18974
4.64922
2.48233
2.26769
1.843
1.57162
1.33486
1.0985
1.01196
0.93188
0.895856
0.981832
0.958511
1.02328
1.16761
1.38198
1.63708
1.89621
2.21747
2.64691
3.09741
3.38162
1.48965
1.31587
1.18751
0.957189
0.828124
0.733454
0.644171
0.593116
0.545018
0.547292
0.564715
0.606033
0.800788
0.798482
0.975814
1.12609
1.35492
1.56068
1.81162
1.96083
0.512924
0.486809
0.392721
0.334983
0.27425
0.185815
0.25874
0.13553
0.221869
0.165248
0.17831
0.241769
0.216962
0.2656
0.296598
0.360641
0.46627
0.486176
0.621844
0.643828
9.38683
8.37243
7.42148
6.56579
5.7067
5.10827
4.81786
4.495
4.34468
4.33253
4.5551
4.88263
5.32649
5.88229
6.72988
7.54273
8.49408
9.6976
10.9942
12.2058
8.18185
7.39057
6.4969
5.68603
5.04626
4.514
4.15006
3.93
3.84245
3.93041
4.03278
4.34952
4.68183
5.2642
5.87352
6.63329
7.46672
8.50807
9.60207
10.4597
6.95905
6.3332
5.52487
4.80205
4.30203
3.86756
3.63333
3.33963
3.24263
3.3588
3.471
3.67606
4.04346
4.37526
5.03933
5.63336
6.37858
7.28669
8.10372
8.89743
5.73689
5.20372
4.53965
4.10378
3.5865
3.1853
2.95201
2.82147
2.80269
2.73934
2.89693
2.9954
3.35023
3.76362
4.13092
4.68226
5.25302
5.97494
6.68194
7.32774
4.4765
4.10392
3.61377
3.1193
2.80425
2.51593
2.34477
2.22177
2.15425
2.15149
2.26009
2.39268
2.61056
2.80259
3.25369
3.61251
4.14513
4.68434
5.18093
5.69775
3.15082
2.8998
2.54468
2.20935
2.06051
1.87292
1.78289
1.57127
1.52638
1.62844
1.60488
1.69814
1.93045
2.10505
2.3087
2.611
2.95555
3.3272
3.70332
4.08198
1.94259
1.74673
1.51451
1.33738
1.16537
1.05797
1.03417
0.956469
0.898474
0.944955
0.949943
1.04479
1.22802
1.21293
1.37468
1.57252
1.73254
2.05178
2.19506
2.41989
0.622327
0.639569
0.535439
0.434511
0.450782
0.369922
0.343795
0.364448
0.374352
0.284871
0.336057
0.346834
0.384532
0.427808
0.441082
0.57972
0.621541
0.66275
0.792132
0.804713
11.6834
10.6679
9.66227
8.70722
7.85467
7.23839
6.81139
6.56354
6.42321
6.41345
6.58906
7.01303
7.32594
8.07502
8.80612
9.67339
10.7357
11.9503
13.2747
14.3951
10.1028
9.31486
8.45664
7.53031
6.90412
6.34556
5.94625
5.63417
5.58464
5.58671
5.77085
6.05494
6.52675
6.99141
7.65085
8.44177
9.34434
10.4405
11.5618
12.525
8.6399
7.82338
7.10099
6.38854
5.85757
5.39271
5.09951
4.84864
4.70817
4.80011
4.98494
5.18084
5.4576
5.95427
6.45812
7.18451
7.85772
8.753
9.82911
10.4754
7.06966
6.49097
5.88198
5.26332
4.80353
4.44382
4.17677
3.96118
3.84829
3.99814
4.10632
4.19917
4.5254
4.92392
5.33186
5.86409
6.51986
7.22317
7.94937
8.58554
5.56707
5.05542
4.56749
4.08789
3.76776
3.42914
3.26697
3.16508
3.08272
3.07468
3.20414
3.29658
3.46159
3.7226
4.13463
4.62496
5.08101
5.56094
6.22265
6.70118
3.87699
3.6213
3.24548
2.94894
2.72992
2.39299
2.36296
2.17862
2.12157
2.2223
2.23238
2.40044
2.56927
2.71368
2.97359
3.26585
3.65274
4.02085
4.42494
4.7528
2.30537
2.26209
1.90388
1.78819
1.6788
1.45145
1.37947
1.41964
1.26957
1.2854
1.34352
1.41734
1.55596
1.67015
1.80195
1.94074
2.21989
2.44282
2.65464
2.82339
0.788946
0.726491
0.649208
0.555429
0.579393
0.491252
0.47121
0.427431
0.427945
0.468725
0.499956
0.506739
0.48854
0.542444
0.598147
0.596995
0.716062
0.790639
0.859764
0.979646
13.5436
12.4737
11.425
10.5082
9.59624
8.96422
8.57618
8.2729
8.1267
8.19368
8.36523
8.7431
9.16751
9.77556
10.5257
11.3928
12.5311
13.7509
15.0955
16.2004
11.5695
10.869
9.89659
9.0973
8.34038
7.80196
7.39976
7.08926
6.97868
6.99872
7.20069
7.51156
7.89333
8.3799
9.08462
9.95994
10.8404
11.8185
13.0308
13.9367
9.79225
9.06786
8.32556
7.58747
7.03692
6.55973
6.21851
5.98723
5.95084
5.96431
6.04227
6.27995
6.58579
7.01468
7.67251
8.284
9.06635
10.0268
10.9371
11.7752
7.96326
7.42665
6.85978
6.20475
5.69692
5.35113
5.09769
4.87063
4.88664
4.78535
4.90853
5.09362
5.40591
5.68068
6.25029
6.84437
7.45936
8.07557
8.94077
9.65579
6.23049
5.76243
5.23683
4.75823
4.48167
4.10722
3.96375
3.79712
3.68625
3.69499
3.81113
3.97505
4.14955
4.50081
4.84727
5.32398
5.75553
6.29928
6.92696
7.36814
4.42867
4.08009
3.80398
3.44972
3.13519
2.9647
2.85236
2.71307
2.72683
2.68002
2.63698
2.79917
3.0053
3.17088
3.4154
3.76419
4.16761
4.54598
4.97901
5.31369
2.64549
2.45964
2.21611
2.05857
1.8892
1.78097
1.68263
1.56596
1.63396
1.58723
1.68432
1.66379
1.80484
1.90751
2.10619
2.34811
2.43924
2.64966
2.94558
3.24583
0.894563
0.857937
0.734503
0.679515
0.647446
0.614436
0.591308
0.626196
0.53551
0.506867
0.538476
0.542091
0.642841
0.681743
0.65322
0.761968
0.814942
0.928243
0.983454
1.04863
)
;

boundaryField
{
    hotSide
    {
        type            calculated;
        value           nonuniform List<scalar> 
400
(
3.91364
2.98771
1.99613
0.970921
0.11676
-0.55216
-1.00066
-1.22019
-1.19839
-0.933333
-0.403612
0.341121
1.51504
2.72596
4.27158
6.1899
8.2897
10.6199
12.962
14.8709
3.69767
2.73398
1.66886
0.690123
-0.285393
-0.94037
-1.45093
-1.69424
-1.73275
-1.5901
-1.10117
-0.347342
0.6444
1.9236
3.51278
5.34854
7.44452
9.6166
11.9567
13.8103
3.53152
2.67345
1.4219
0.417589
-0.580469
-1.32152
-1.89887
-2.2248
-2.29237
-2.20878
-1.76468
-1.17036
-0.0682575
1.08729
2.54016
4.44503
6.42182