/*--------------------------------*- C++ -*----------------------------------*\
| =========                 |                                                 |
| \\      /  F ield         | OpenFOAM: The Open Source CFD Toolbox           |
|  \\    /   O peration     | Version:  2212                                  |
|   \\  /    A nd           | Website:  www.openfoam.com                      |
|    \\/     M anipulation  |                                                 |
\*---------------------------------------------------------------------------*/
FoamFile
{
    version     2.0;
    format      ascii;
    arch        "LSB;label=32;scalar=64";
    class       volScalarField;
    location    "0";
    object      relativeErrorField;
}
// * * * * * * * * * * * * * * * * * * * * * * * * * * * * * * * * * * * * * //

dimensions      [0 0 0 1 0 0 0];

internalField   nonuniform List<scalar> 
3200
(
0.00878925
0.00806672
0.00748059
0.00748579
0.00795621
0.00858228
0.00922254
0.0103496
0.0110148
0.0116248
0.0119987
0.0120894
0.0119024
0.0117455
0.0118305
0.0117241
0.0120276
0.0125979
0.0136932
0.0145953
0.00744275
0.00690731
0.00666743
0.00644426
0.00678578
0.00761794
0.008073
0.00889513
0.00961815
0.0100537
0.0104776
0.0107314
0.0106455
0.0103949
0.0101887
0.0102701
0.0105319
0.0110784
0.0118063
0.0124601
0.00650813
0.0060365
0.00580067
0.00569065
0.00559302
0.00635755
0.00682947
0.00768644
0.00837714
0.00860314
0.00896635
0.00909553
0.00898907
0.00868616
0.00871718
0.0087135
0.0088314
0.0093614
0.0100524
0.010629
0.00529902
0.00487256
0.0046814
0.00445992
0.00494105
0.00535383
0.00547912
0.00605841
0.00688797
0.00698921
0.00745141
0.00748896
0.00750802
0.00721357
0.00707731
0.00699043
0.00741856
0.00766378
0.00818198
0.00886127
0.00423639
0.00389728
0.00347847
0.00374746
0.00395183
0.00395319
0.00442541
0.00486301
0.00527276
0.00560128
0.00566501
0.00590076
0.00579802
0.00585275
0.0057076
0.00571911
0.00566814
0.00621817
0.00656284
0.0069268
0.00299735
0.00263043
0.00243841
0.00271886
0.00285506
0.00297925
0.00319235
0.00347482
0.00377513
0.00393288
0.00403115
0.00409569
0.0043854
0.00414438
0.00376709
0.00410233
0.00435279
0.00454223
0.00458635
0.00511712
0.00196265
0.00165832
0.00174637
0.0016678
0.00162917
0.0018361
0.00223574
0.00223688
0.00216824
0.00237957
0.00267876
0.00266902
0.00265934
0.00262529
0.00269288
0.00247429
0.00242746
0.00277859
0.00293595
0.00305049
0.000654953
0.00072513
0.000410327
0.000348902
0.000309945
0.000529449
0.000708608
0.000835832
0.000741065
0.00101243
0.000613442
0.00111866
0.000851593
0.000730245
0.000935508
0.000834459
0.000868626
0.0010787
0.00111465
0.00100877
0.00609315
0.0052663
0.00499208
0.00464114
0.00503614
0.00583044
0.00647667
0.00725051
0.00820273
0.00869867
0.00899037
0.00930766
0.00897584
0.00906307
0.00888817
0.00897737
0.00926438
0.00984536
0.0111141
0.0122562
0.00547829
0.0046287
0.00430235
0.00420681
0.00447871
0.00497109
0.00544113
0.00641959
0.00706074
0.00771472
0.00802158
0.00794481
0.00797344
0.00793913
0.00779399
0.00786543
0.00830812
0.00887711
0.009722
0.0107511
0.00463951
0.00409483
0.00379655
0.00408534
0.00374753
0.00440058
0.0047249
0.00524859
0.0060816
0.00655005
0.0068745
0.00686429
0.00670169
0.0066313
0.00677608
0.00695584
0.00687719
0.00777634
0.00846283
0.00911758
0.00399178
0.00346629
0.00303299
0.00308205
0.00329976
0.00367808
0.00395958
0.00478195
0.00505685
0.00540656
0.00587353
0.00595855
0.00566713
0.00547004
0.00586153
0.0057379
0.00581741
0.00628062
0.00717698
0.00742549
0.00301993
0.00283087
0.00242009
0.00240244
0.00232139
0.00279938
0.00308251
0.00374712
0.00411228
0.00430228
0.00439719
0.00446034
0.00470625
0.00465482
0.00458973
0.00445497
0.00489241
0.00500315
0.00547369
0.00613865
0.00241742
0.00185683
0.00173033
0.00166815
0.00187943
0.00196718
0.00232831
0.0025748
0.00305523
0.00322426
0.00340889
0.00339193
0.00333811
0.00317544
0.00309244
0.00313426
0.00330276
0.00364665
0.00393924
0.00431243
0.00124754
0.00113902
0.00123319
0.00121898
0.00105549
0.00140757
0.00132483
0.00162023
0.00185648
0.00190079
0.00187784
0.00195844
0.00198792
0.00195903
0.0018376
0.00189983
0.00219312
0.00216442
0.00244766
0.0027639
0.000676855
0.000437585
0.000185795
0.00035707
0.000229691
0.000501483
0.000493656
0.000512458
0.000523169
0.000736514
0.000997374
0.00078309
0.000742039
0.000552186
0.000724376
0.000635215
0.000736679
0.000833892
0.000681493
0.000927035
0.00320208
0.00216877
0.00136363
0.00146176
0.00137108
0.00223565
0.00257881
0.00346693
0.00422657
0.00473472
0.00537704
0.00542609
0.00546865
0.00542118
0.00557461
0.00553853
0.00611378
0.00689768
0.00800128
0.00919543
0.00302745
0.00208912
0.00152997
0.00124472
0.00133555
0.00203878
0.00250908
0.00325255
0.0040311
0.00431366
0.0048023
0.00490225
0.00490915
0.00466716
0.00479996
0.00490085
0.00543761
0.00596862
0.0070476
0.00792581
0.00268054
0.00188905
0.00135581
0.00125929
0.00110597
0.00173281
0.00210627
0.00271237
0.00341564
0.00386993
0.00403791
0.0042732
0.00423555
0.00407055
0.00415055
0.00426507
0.00453038
0.00527022
0.00609025
0.00696035
0.00213703
0.00137303
0.0011526
0.00110897
0.00124229
0.00131387
0.00166017
0.0022716
0.00303824
0.00320929
0.00335152
0.0035524
0.00369279
0.00341642
0.00348382
0.00355256
0.00407707
0.00430056
0.00507612
0.00608393
0.0016882
0.00113221
0.000950104
0.000811152
0.000836459
0.00115877
0.00158328
0.00182395
0.00206068
0.00266294
0.00279829
0.00281978
0.00298425
0.00277078
0.00291129
0.003078
0.0030745
0.00354182
0.00409684
0.00452574
0.00124434
0.000869186
0.000517786
0.000530619
0.000589619
0.00089821
0.00103922
0.00138543
0.00179259
0.00185827
0.00212533
0.00209192
0.00202528
0.00199698
0.00221182
0.0021158
0.00243547
0.0024055
0.00308268
0.00329032
0.000860039
0.000780586
0.000401202
0.000586631
0.000432154
0.000776383
0.000389502
0.000956274
0.000957348
0.00127228
0.00116261
0.00115164
0.00149438
0.00124131
0.0013484
0.00136901
0.00140776
0.00161067
0.00189108
0.00200755
0.000344942
5.80805e-05
2.52852e-05
0.000102959
4.24945e-05
0.000361703
7.21003e-05
0.000235791
0.00049683
0.000302761
0.000305232
0.000474675
0.000204657
0.000241667
0.000370714
0.000242691
0.000566177
0.000432674
0.000615454
0.000839652
0.000213093
0.000678204
0.0015486
0.00182767
0.00196812
0.00154308
0.000969701
0.000205553
0.000331936
0.00105795
0.00135719
0.00160925
0.00180223
0.00191096
0.00189134
0.00231957
0.00281349
0.00382279
0.00523105
0.00632395
0.000363065
0.000705002
0.00103045
0.00163394
0.00148622
0.00114172
0.000732087
5.91457e-05
0.000424326
0.000938178
0.00130801
0.00156705
0.00163466
0.00168391
0.00175683
0.00214723
0.00257991
0.00361243
0.0046552
0.00566793
0.000562393
0.000360283
0.000971701
0.00125576
0.001265
0.000891753
0.000578178
3.02547e-05
0.000579187
0.000977451
0.00139632
0.0014307
0.00150118
0.00131849
0.00153361
0.00197346
0.00234664
0.00320811
0.00430449
0.00508113
0.000345388
9.67516e-05
0.000607298
0.000985813
0.000976729
0.000764459
0.000554606
0.000134186
0.000615847
0.000797483
0.00106786
0.00125309
0.00126429
0.00138398
0.00144904
0.00147176
0.00189286
0.00250073
0.00345338
0.00416009
0.000327585
0.000354722
0.000514322
0.0010023
0.000783295
0.00056606
0.000676284
0.000189754
8.49972e-05
0.00067989
0.000765472
0.000873855
0.000888562
0.00107418
0.00111844
0.00126989
0.00179498
0.0021696
0.00285204
0.00336297
0.000142292
6.63288e-05
0.000420855
0.000365095
0.000483613
0.000541718
0.000182882
6.3254e-05
0.000313888
0.000461421
0.000710795
0.000921383
0.00068714
0.000818365
0.000737144
0.000836694
0.00115035
0.00153322
0.00201432
0.00240752
3.55056e-05
1.35768e-05
0.000299842
0.000207491
0.000188631
0.000264768
9.13515e-05
0.000123559
0.000232668
0.000139705
0.000301766
0.000552576
0.000466464
0.000573093
0.000583521
0.000698334
0.000651888
0.00101326
0.00134121
0.00138755
9.14366e-05
1.02318e-05
0.000159624
0.000141812
0.000100468
0.00012206
0.000134573
0.000266622
6.5758e-05
7.44925e-05
0.000115526
0.000177904
2.75529e-05
0.00015196
1.53538e-05
0.000451611
0.000417864
0.000269201
0.00037371
0.000553788
0.00227796
0.00351199
0.00443803
0.00477312
0.00505965
0.00485274
0.00433214
0.00374394
0.00291388
0.00248801
0.00185844
0.00178615
0.0014978
0.00141933
0.00129864
0.000731177
8.84798e-06
0.00109941
0.00267604
0.0040285
0.001894
0.00306267
0.00355654
0.00408051
0.00416109
0.00410655
0.00353807
0.00304737
0.00261216
0.00194107
0.00187272
0.00132119
0.00137415
0.00108557
0.00113066
0.000606441
0.0003835
0.00115979
0.00245495
0.00380663
0.00148653
0.00240348
0.00301351
0.00330465
0.00363765
0.00342758
0.00303315
0.00262887
0.00204097
0.00160874
0.00145863
0.00114914
0.0011156
0.000817589
0.000606867
0.000200615
0.000326343
0.00104117
0.00227192
0.00333969
0.00120693
0.00197898
0.00234493
0.00275532
0.0028748
0.00281388
0.00264891
0.00213953
0.00161471
0.00133411
0.000938495
0.000782497
0.000695526
0.00073511
0.000637669
9.5155e-05
0.000252493
0.000808806
0.00169426
0.00280055
0.000654283
0.00148679
0.0017256
0.00220525
0.00258526
0.00217452
0.00191492
0.00165218
0.00139153
0.00116482
0.00103711
0.00070502
0.000595257
0.000620552
0.000417904
0.000246418
0.000363953
0.000873349
0.0014024
0.00202591
0.000408841
0.000973293
0.00134388
0.00147486
0.00156049
0.0014892
0.00119151
0.00122133
0.00114299
0.000556123
0.000591512
0.000600449
0.000521103
0.00026774
0.000424808
0.000112568
0.000244508
0.000552773
0.00116431
0.00163154
0.000432566
0.000615034
0.000883357
0.000873105
0.00114933
0.000746161
0.000614918
0.000559481
0.000485566
0.000563711
0.000378776
0.000128273
0.000289996
9.37025e-05
0.000213482
6.07165e-05
0.000314569
0.000401015
0.000880201
0.00103184
0.000231769
0.000110472
0.000320103
0.000162003
0.000113144
0.000395494
0.000218878
0.000391282
0.000112555
0.000156801
0.00021943
0.000161509
0.000152889
0.00021494
0.000104155
9.12126e-05
3.31141e-05
2.11231e-06
0.000277929
0.000452933
0.00422968
0.00541545
0.00658062
0.0072881
0.00744705
0.00757939
0.00713829
0.00662616
0.00614113
0.00544142
0.00514725
0.00463602
0.00454767
0.00424051
0.00392984
0.00308984
0.00208086
0.00102086
0.000667248
0.00225247
0.00356681
0.00453239
0.00548673
0.00606743
0.00653
0.00640861
0.00615587
0.00567119
0.00553161
0.00478489
0.00453329
0.00410212
0.00411884
0.00347825
0.00310716
0.00248037
0.00167867
0.00072398
0.00067542
0.00221922
0.00308105
0.00392022
0.00470754
0.00522524
0.00531832
0.00542723
0.00518823
0.00482753
0.00450565
0.00409744
0.00378675
0.00341538
0.00330509
0.00289075
0.00283109
0.00200195
0.00148864
0.000354873
0.000589112
0.00176349
0.00242666
0.00326649
0.00379836
0.00429003
0.00451308
0.00447382
0.00426261
0.00409287
0.00356979
0.00313915
0.00320882
0.00280094
0.00262192
0.00236433
0.00220776
0.00163703
0.00141152
0.000271768
0.000685006
0.00166951
0.00187507
0.00247412
0.00281985
0.00339535
0.00351242
0.00367261
0.00338456
0.00309568
0.00294009
0.0025857
0.00245661
0.00212223
0.00182108
0.00167723
0.00159579
0.00134667
0.000932197
0.000252667
0.000494943
0.00126096
0.00136448
0.00168838
0.00220342
0.0024384
0.00267567
0.00244821
0.00239805
0.00236367
0.00206604
0.00186446
0.00163608
0.0017028
0.00148869
0.00144848
0.00139431
0.000672653
0.000614723
0.000297164
0.000382447
0.000977286
0.000844661
0.000905811
0.0012513
0.00124242
0.00144498
0.00150563
0.00146044
0.00121562
0.00138559
0.000955732
0.000955915
0.000942879
0.000777548
0.000669833
0.000881451
0.000460091
0.000133615
4.18271e-05
0.000309621
0.000562304
0.000197389
0.000310687
0.000375798
0.000550904
0.000673536
0.000616381
0.000447769
0.000486896
0.000191047
0.000415822
0.000474627
0.000394196
0.000617665
0.000213341
0.000154811
0.000227554
0.000140801
0.000148589
0.0001415
0.00026135
0.00554215
0.00689827
0.00824616
0.00899497
0.00946226
0.00962267
0.00947709
0.00905855
0.00848497
0.00813711
0.00770534
0.00728924
0.00675283
0.00645087
0.00581964
0.00493282
0.00387755
0.00216885
0.000706923
0.0010384
0.00470185
0.00586161
0.00699563
0.00778022
0.00820506
0.00832063
0.00799789
0.00794229
0.00741953
0.00707913
0.00671958
0.00621567
0.00584639
0.00570644
0.00502563
0.00425306
0.00322758
0.00190503
0.000375338
0.00124422
0.00395463
0.00508794
0.00592995
0.00667282
0.00714698
0.00718462
0.006926
0.00648492
0.00629942
0.00578899
0.00573538
0.00522868
0.00495556
0.00459142
0.00432058
0.00359481
0.00269622
0.00167069
6.5536e-06
0.00103694
0.00323871
0.00397249
0.00495065
0.00547727
0.00604867
0.00588386
0.00587093
0.00550038
0.00552176
0.00508833
0.00473637
0.00452465
0.00405948
0.00376664
0.00348944
0.00292503
0.00239061
0.00136486
5.33343e-05
0.000984738
0.00240145
0.00297262
0.00395783
0.00414686
0.00433108
0.00450467
0.00449911
0.00439934
0.00391006
0.00373898
0.00349342
0.00342642
0.00308676
0.00311928
0.00272401
0.00250756
0.00162196
0.000743048
0.000133381
0.000690808
0.00184349
0.00244411
0.00264426
0.00308083
0.00327368
0.00350366
0.00307787
0.00310614
0.00289988
0.00279783
0.00254934
0.00249549
0.00239476
0.00241368
0.00200128
0.00160817
0.00135467
0.000706158
0.000200614
0.000548256
0.0012443
0.00156213
0.00144491
0.00205353
0.00205248
0.00211246
0.00193839
0.00205621
0.00200005
0.00190454
0.00170984
0.00140699
0.00140159
0.00136343
0.00116998
0.000916594
0.000807104
0.000276485
6.68796e-05
0.000160858
0.000524823
0.000541181
0.000547309
0.000635362
0.00054629
0.000568605
0.000648534
0.000625746
0.000649372
0.000563041
0.000640029
0.000391153
0.000421853
0.000599869
0.00027688
0.000325499
0.000395333
0.000328769
7.43981e-07
7.85741e-05
0.00619452
0.00761051
0.00918583
0.010168
0.0110709
0.0111219
0.010955
0.010791
0.010451
0.0100924
0.00962327
0.00891838
0.0086122
0.00787616
0.0071921
0.00631484
0.00487875
0.00323412
0.0014535
0.000780511
0.00520051
0.00693458
0.00788248
0.00871914
0.00929854
0.0097159
0.00968663
0.00951178
0.00940886
0.00857784
0.00839775
0.00793233
0.00734143
0.00699954
0.00645998
0.00529332
0.00417783
0.00277066
0.000970832
0.000913436
0.0045225
0.00555351
0.00654881
0.00762867
0.00782706
0.00832491
0.00819272
0.00794631
0.00772206
0.00744151
0.00689679
0.00673839
0.00625533
0.00588104
0.00528833
0.00476813
0.00363441
0.00214361
0.000685451
0.000766856
0.00364303
0.00464511
0.00530966
0.00620563
0.00651523
0.00683434
0.0068413
0.00664012
0.00635685
0.00621684
0.00588242
0.00545657
0.00517092
0.00490169
0.00425377
0.00366739
0.0029117
0.00181058
0.000701904
0.000652997
0.00303259
0.00356445
0.00429954
0.00489525
0.00505582
0.00512969
0.00553164
0.00519439
0.00513269
0.00466538
0.00484319
0.00431119
0.00420985
0.00406948
0.00327814
0.00287652
0.002413
0.00132752
0.00066811
0.000514077
0.00211575
0.00271939
0.00308963
0.0037271
0.00386949
0.00369813
0.00382248
0.00372053
0.00381529
0.00357639
0.00324571
0.00338106
0.0030317
0.00277871
0.00226343
0.00206801
0.0014818
0.000953039
0.000373153
0.000315488
0.00121955
0.00151304
0.00191418
0.00219086
0.00233831
0.0023345
0.00228265
0.00225458
0.00234717
0.0021329
0.00215234
0.00201569
0.00197957
0.00148694
0.00148851
0.00118376
0.000814283
0.000769931
0.000177758
7.07139e-05
0.000395915
0.000512422
0.00059035
0.000754551
0.000699091
0.0008239
0.000838281
0.000559378
0.000868278
0.000739829
0.000508379
0.000693732
0.000601502
0.000637886
0.000517122
0.000251534
0.000238094
6.50705e-05
5.18882e-05
0.000128828
0.00615724
0.00773688
0.00938564
0.0107907
0.0114357
0.0121739
0.0122333
0.0120313
0.0116775
0.0114087
0.0107007
0.0103163
0.0095769
0.00885609
0.0079725
0.00670866
0.00532122
0.00317467
0.00139049
0.000789643
0.00524181
0.0064075
0.00811053
0.00932583
0.0100075
0.0104944
0.0105407
0.0105968
0.0101295
0.00985128
0.00941625
0.00895697
0.00848721
0.00782008
0.0070594
0.00582384
0.00428051
0.00289806
0.000963545
0.000662057
0.00438518
0.0052335
0.00707626
0.00804703
0.00835637
0.00887802
0.00885406
0.00871415
0.00876821
0.00825789
0.00791687
0.00783423
0.00743577
0.00657322
0.00603074
0.00497313
0.0037685
0.00232878
0.000652674
0.000655555
0.00365621
0.00460357
0.00577012
0.00656259
0.00688654
0.00745011
0.00737894
0.00721762
0.00704691
0.00687067
0.00655519
0.00610094
0.00590827
0.00525405
0.00483981
0.00413495
0.00305171
0.00197037
0.000603973
0.00052072
0.0028274
0.00363732
0.00446916
0.00514628
0.00557605
0.00563604
0.00568919
0.00578054
0.00565554
0.00537554
0.00511145
0.00504777
0.00468089
0.0044884
0.00385246
0.00335329
0.00239989
0.00152847
0.000239666
0.000605828
0.00204766
0.00281213
0.0029637
0.00371924
0.00396848
0.00425054
0.00411096
0.00452423
0.00413138
0.00395827
0.00388683
0.00354134
0.00336613
0.00312293
0.002825
0.00250259
0.00187101
0.000939298
0.000178403
0.000463607
0.00126344
0.00146098
0.00210524
0.00210958
0.00234051
0.00265992
0.00282623
0.00259206
0.00225111
0.00253035
0.00242777
0.00230167
0.00200777
0.00194922
0.00170558
0.00144218
0.00124559
0.000656375
0.000186967
0.0001536
0.000376822
0.000687628
0.000428846
0.000679873
0.000825148
0.000909681
0.000948939
0.000769322
0.00081957
0.000844851
0.000827279
0.000672178
0.000702532
0.000495448
0.00052304
0.000444821
0.000416124
0.000293753
0.000183257
0.000120772
0.0054328
0.00735102
0.00915759
0.0106249
0.0115682
0.011963
0.01227
0.0124766
0.0122466
0.0118575
0.01122
0.010864
0.0100602
0.00919148
0.00794526
0.00676686
0.00520227
0.00312567
0.000747218
0.00161659
0.00477512
0.00614714
0.00765599
0.00906451
0.0100783
0.0105884
0.0107757
0.0108042
0.0105624
0.0103962
0.00970135
0.00934581
0.00890462
0.00786168
0.00702801
0.00592074
0.00431663
0.00255604
0.00079317
0.0015192
0.00404461
0.00522722
0.00645336
0.00783153
0.00858602
0.00888469
0.0091652
0.0091782
0.00894347
0.00860512
0.00830729
0.00785282
0.00763594
0.00653157
0.00605519
0.0047437
0.00376905
0.00199076
0.000321185
0.00137756
0.00306079
0.00431717
0.00543166
0.00659917
0.00694269
0.00727732
0.00753252
0.00751913
0.00757619
0.00719078
0.00692914
0.00677221
0.00607232
0.0055876
0.00474973
0.00390178
0.00292558
0.00162481
6.71162e-05
0.00145106
0.00254981
0.00325998
0.00403942
0.0049202
0.0054766
0.00595047
0.00583184
0.00612967
0.0056579
0.00582638
0.00530657
0.00506179
0.00483545
0.00417195
0.00384406
0.00316555
0.00214252
0.00112585
0.000109055
0.00109811
0.00178503
0.00234355
0.00316046
0.00368018
0.0040381
0.00410538
0.00429749
0.00428519
0.00416509
0.0041598
0.00387228
0.00375482
0.0034376
0.00324031
0.00266308
0.00236293
0.00175399
0.000653531
1.99986e-05
0.000726473
0.00109826
0.00158591
0.00162811
0.0023733
0.00224841
0.00243166
0.00261437
0.00254769
0.00248728
0.0023998
0.00227195
0.0022393
0.00204686
0.00193606
0.0014071
0.00143731
0.00117256
0.000640232
5.79423e-05
0.000252858
0.000509262
0.000362439
0.000536589
0.000783949
0.000749828
0.00082224
0.00115832
0.00092826
0.000845259
0.000945622
0.000725654
0.000729243
0.000879856
0.000661506
0.000524892
0.000427296
0.000242578
3.70722e-05
0.000100336
0.000135937
0.00397053
0.00599331
0.00791645
0.00948405
0.0108676
0.0115148
0.0118846
0.0120181
0.0119402
0.0114485
0.0111079
0.010682
0.00972777
0.00863105
0.0074615
0.00603424
0.00404473
0.00168861
0.000703576
0.00298217
0.00337074
0.00503695
0.00673811
0.00817502
0.00919449
0.00991372
0.0102485
0.0102468
0.0102975
0.0100358
0.0097915
0.00910623
0.00838416
0.00750005
0.00633568
0.00499838
0.00344022
0.00141473
0.000716425
0.00283122
0.00287114
0.00420219
0.00541171
0.00703735
0.00767228
0.00838691
0.00873548
0.00891174
0.00873143
0.00834171
0.00834001
0.00780003
0.00688193
0.00646011
0.0052587
0.00404424
0.00289143
0.000981048
0.000976541
0.00254203
0.00239005
0.00350913
0.00459747
0.00552311
0.00640545
0.00694363
0.00734903
0.00748166
0.0073509
0.00704989
0.00691956
0.00641768
0.00568815
0.00531579
0.00441726
0.00355607
0.00225573
0.000806767
0.000726267
0.00213625
0.00191347
0.00273291
0.00369498
0.00433038
0.00515967
0.00554127
0.00547799
0.00565435
0.00573833
0.00563787
0.00521176
0.00510421
0.00465206
0.00421722
0.00337075
0.00266293
0.00168033
0.000525656
0.000526287
0.00187126
0.00101009
0.00214061
0.00285569
0.00306469
0.00372124
0.00398842
0.0040504
0.00431943
0.0040898
0.00401333
0.00390997
0.00366598
0.00311968
0.00312132
0.00253952
0.00184063
0.00129782
0.000341064
0.000591226
0.00147718
0.000844562
0.00134223
0.00147286
0.00186268
0.00244923
0.00260849
0.00274175
0.00256801
0.00238825
0.00256478
0.00245906
0.00217183
0.00197978
0.00179362
0.00174856
0.00120197
0.000440708
0.000260766
0.000474825
0.000839197
0.000321505
0.000368167
0.000595752
0.000544275
0.000795677
0.000852587
0.000842211
0.000957515
0.000919485
0.000790479
0.00100277
0.000506288
0.000633519
0.000701443
0.000474728
0.000539309
0.000390293
8.87722e-05
0.00014379
0.000286848
0.0019229
0.00390828
0.0062687
0.00787093
0.00925878
0.0100451
0.0105736
0.0108402
0.0110305
0.0105303
0.00996486
0.00937724
0.00859884
0.00740809
0.00614276
0.0042994
0.00212032
0.000376762
0.00283643
0.0052712
0.00137418
0.00326406
0.00532332
0.00676783
0.00770337
0.00875205
0.00938736
0.00943323
0.00926477
0.0091335
0.00870606
0.00794157
0.00734828
0.00639839
0.00519124
0.0036407
0.00169252
0.000318746
0.00283878
0.00467751
0.00126232
0.00275244
0.00428265
0.00549602
0.00670089
0.00736188
0.00776402
0.00797788
0.00798954
0.00775383
0.00754403
0.00671754
0.00606255
0.00534241
0.00435511
0.00306377
0.00136217
0.000556847
0.00239036
0.00423171
0.00109465
0.00198682
0.00330928
0.00473918
0.00535963
0.00620751
0.00633403
0.00677217
0.00652411
0.00653596
0.00593823
0.00572956
0.00510429
0.00427471
0.00374923
0.00262879
0.00121161
0.00041118
0.00190234
0.00370371
0.000654057
0.0018537
0.00295674
0.0034698
0.00423471
0.00498043
0.00517485
0.00506437
0.00514435
0.00489108
0.00482246
0.00448231
0.00414854
0.0033942
0.00270114
0.00189608
0.000906289
0.000384444
0.00180986
0.00266518
0.000488258
0.00107902
0.00183038
0.00274341
0.00297837
0.00354391
0.00355415
0.00385975
0.00372668
0.00365974
0.00342976
0.00332997
0.00299082
0.00268523
0.00191449
0.00141323
0.000401386
0.00022782
0.00123185
0.00207323
7.27417e-05
0.000813184
0.00117742
0.00179405
0.0018587
0.00203619
0.00218988
0.00225547
0.00226649
0.00216351
0.00226297
0.00186768
0.00185463
0.00154287
0.00128072
0.000986161
0.000258604
0.000140715
0.00102926
0.00130592
0.000158892
0.00030634
0.000352556
0.000769751
0.000427133
0.000948896
0.000746908
0.000867954
0.000898539
0.00091932
0.000830989
0.000695533
0.000821663
0.000628852
0.000475842
0.000321418
0.000150556
6.7818e-05
0.00028508
0.000339258
0.0012974
0.00118577
0.00322411
0.00522501
0.00708227
0.00809066
0.00870374
0.00880552
0.00896615
0.00886367
0.00830846
0.00753402
0.00660605
0.00544638
0.00383203
0.00191484
0.000221421
0.00277395
0.00559507
0.00820731
0.00109422
0.00092915
0.00291715
0.00446022
0.0060645
0.00695399
0.00741374
0.00770158
0.00763234
0.00770185
0.00724514
0.00672148
0.00581282
0.00437769
0.00327648
0.00157053
0.000561789
0.0025977
0.00504208
0.00740101
0.000893212
0.000573729
0.00230396
0.00362722
0.00492237
0.00565665
0.00613264
0.00641858
0.00665705
0.00647525
0.0061156
0.00550016
0.00465001
0.00385413
0.00282323
0.00104128
0.000354859
0.00242736
0.0046637
0.00642285
0.00101675
0.000340548
0.00175725
0.00301992
0.00421642
0.00452047
0.00509324
0.00539185
0.00532841
0.00514327
0.00481099
0.00463543
0.00375765
0.00306015
0.00195406
0.0010543
0.000566456
0.00218468
0.00409365
0.00546598
0.000862208
0.000290842
0.0012261
0.00220094
0.00320056
0.00365384
0.00389322
0.00426789
0.00420858
0.0039426
0.00378647
0.00348232
0.00283065
0.00244175
0.00147787
0.00032342
0.000535169
0.00180145
0.0032783
0.00428491
0.000558811
0.000162899
0.0008977
0.00171105
0.00235449
0.00265612
0.00287561
0.00305918
0.00303187
0.00307609
0.00272094
0.00258516
0.00239156
0.00152302
0.00106218
0.000589705
0.00046117
0.00121602
0.00233597
0.00315174
0.000314026
0.000137466
0.000632249
0.000795341
0.00137575
0.00153757
0.00172846
0.00177435
0.00184642
0.00184096
0.00166399
0.00147024
0.00108083
0.000845993
0.000559945
0.000143314
0.000320126
0.000848928
0.00153964
0.00224031
0.00011926
0.000167679
0.000170285
0.000330912
0.000610198
0.000582598
0.000547054
0.000565209
0.000721601
0.000725461
0.000628078
0.000611899
0.000380782
0.000499041
0.000183216
0.000159137
3.713e-05
0.000229597
0.000647772
0.000678999
0.00457458
0.00229713
7.21658e-05
0.00244955
0.00373511
0.00494333
0.0057349
0.00608538
0.00638573
0.00604869
0.00571148
0.00486126
0.00392018
0.00248275
0.000723097
0.00121723
0.00352909
0.00616551
0.00908358
0.0117855
0.00424373
0.00246053
0.000110531
0.00171262
0.00311621
0.0044179
0.00476652
0.00518861
0.00541274
0.00528669
0.00467672
0.00414621
0.00308626
0.00183364
0.000565788
0.00123994
0.00334177
0.00564808
0.00823218
0.0105987
0.00393221
0.00213534
7.37085e-05
0.00139001
0.00252918
0.00344523
0.00405952
0.00428672
0.0043974
0.00441548
0.00407842
0.00334011
0.00251143
0.00163566
0.000322593
0.00107111
0.00304152
0.00506743
0.0073546
0.00937576
0.00326918
0.00195493
0.000309406
0.000893192
0.00202112
0.0028027
0.00336472
0.00343716
0.00367542
0.00356839
0.00318514
0.0028054
0.00208693
0.00124721
0.000174068
0.00110927
0.00254816
0.0043396
0.00634891
0.007646
0.00249708
0.00146321
0.000345922
0.000650886
0.00122536
0.00205296
0.00253235
0.00273979
0.00288023
0.00274682
0.00249854
0.00214412
0.00159026
0.000791917
8.86475e-05
0.00117403
0.00244883
0.00332428
0.00501593
0.00634822
0.00207415
0.0012851
0.00041655
0.000494695
0.000878691
0.00137565
0.00170746
0.00193113
0.00204257
0.00184217
0.00183874
0.00146043
0.00118111
0.000708642
6.68465e-06
0.000767966
0.00147792
0.00273939
0.00377721
0.00455467
0.00137307
0.000638208
0.000164596
0.000323382
0.000623638
0.000971122
0.00114973
0.00133526
0.00107248
0.00119779
0.00128915
0.000885188
0.000856602
0.000511071
1.62816e-05
0.000596786
0.0010848
0.00157158
0.00246227
0.00293185
0.000381638
0.000377995
0.000232579
6.94097e-05
0.000195065
0.000365281
0.000302589
0.000390653
0.000606769
0.000438438
0.000234052
0.000234295
0.000360767
0.000156059
5.52621e-05
0.000387014
0.000473505
0.000534914
0.000850424
0.000865585
0.00872556
0.00658374
0.00385338
0.00177196
0.000203635
0.00127586
0.00218307
0.00278069
0.00287821
0.00268277
0.0020854
0.0013327
0.000345634
0.000922605
0.00286705
0.00505696
0.00727139
0.0102179
0.0132573
0.0162543
0.00832229
0.00592932
0.00357165
0.00167647
0.000342196
0.000904684
0.00160982
0.00208752
0.00228438
0.00221047
0.00190813
0.00104302
0.000207008
0.00118426
0.00296738
0.00448352
0.00686108
0.00949699
0.0120173
0.014501
0.00730906
0.00530091
0.00349331
0.00173862
0.000480579
0.000565709
0.00124051
0.00157204
0.00183005
0.00172238
0.00126367
0.000797793
0.000171629
0.00137801
0.00233875
0.0042454
0.00632399
0.00821001
0.0106292
0.0126367
0.00593972
0.00477286
0.00303687
0.00173365
0.000412256
0.000297176
0.000999346
0.00132004
0.00151094
0.00138168
0.00103138
0.000514155
0.000177288
0.00103971
0.00234667
0.00348352
0.00525415
0.00706871
0.00919095
0.0107053
0.0050362
0.0037795
0.00247336
0.00130348
0.000574236
0.000261369
0.000706344
0.000955432
0.00121452
0.000782173
0.000818005
0.000448623
0.000149186
0.0008007
0.00180409
0.00322268
0.00425902
0.00561402
0.00730387
0.00839785
0.00371699
0.0027943
0.00173351
0.00136374
0.000296518
0.000179233
0.000446567
0.000794367
0.000563327
0.000748608
0.000439014
0.000241645
0.000378856
0.000717538
0.00139524
0.00225523
0.00328074
0.00423566
0.00520158
0.0064714
0.00235737
0.00179148
0.00123475
0.000668811
0.000388495
9.12087e-05
0.000269831
0.000526575
0.000353065
0.000285803
0.000309783
0.0001598
0.000264212
0.000686759
0.000926991
0.00128286
0.00201196
0.00259108
0.00325902
0.0037809
0.000658498
0.000701006
0.000342563
0.000220565
5.00284e-05
0.000247318
4.27503e-05
3.04117e-05
0.000220398
0.000135678
6.34299e-05
5.47393e-06
5.68564e-06
0.000242883
8.48134e-05
0.00048816
0.000637515
0.000875188
0.00122723
0.00126237
0.013832
0.0114787
0.00895628
0.00652382
0.00474489
0.00311209
0.00215112
0.00162028
0.0012844
0.00155367
0.00207625
0.00271376
0.00387851
0.00528315
0.0071098
0.00945018
0.0121368
0.0151956
0.0183156
0.02119
0.0125309
0.0104811
0.00814492
0.00603017
0.00448036
0.00320274
0.00210184
0.00168598
0.00152925
0.00159645
0.00189057
0.00266549
0.00377027
0.00501598
0.00647849
0.00867184
0.0110707
0.0136052
0.01647
0.0189595
0.0109884
0.00918063
0.00719713
0.00531475
0.00387533
0.00285832
0.00190471
0.00149754
0.00141976
0.0016798
0.00204255
0.00255759
0.00345999
0.00468311
0.00594252
0.00786254
0.00981769
0.0118412
0.0143953
0.016671
0.0093362
0.00768618
0.00626852
0.00449845
0.00357194
0.00250536
0.00206678
0.00131328
0.00123301
0.00121474
0.00174248
0.00213351
0.00313308
0.00372467
0.00523652
0.0064679
0.00819264
0.010194
0.0122654
0.0139869
0.00750038
0.00631548
0.00505685
0.00364019
0.00268468
0.0020858
0.00144751
0.00123161
0.00114019
0.00144311
0.00141452
0.00186279
0.00236536
0.00318956
0.00398988
0.00529901
0.00670269
0.00809462
0.0099245
0.0112402
0.00548064
0.00471947
0.0037073
0.00272914
0.00198439
0.00173755
0.00111634
0.00100954
0.000772296
0.000863689
0.00116864
0.00156046
0.00190546
0.00236632
0.00315525
0.00384735
0.00495965
0.00582308
0.0074335
0.00827521
0.00353251
0.00301889
0.00223839
0.0016941
0.00158131
0.000933053
0.00100804
0.000810442
0.000658678
0.000719576
0.000783094
0.000792558
0.00120615
0.00160929
0.00188509
0.00249048
0.00312659
0.00383094
0.00448142
0.00495945
0.00114618
0.00102857
0.000791902
0.000349322
0.000567155
0.000315452
3.98786e-05
0.000390179
0.000237247
0.000323252
0.000174913
0.000304086
0.000411121
0.00061307
0.000708575
0.000758794
0.00105806
0.00111412
0.00161685
0.00167719
0.0193476
0.0170011
0.0141722
0.0117866
0.0097994
0.0080702
0.00735312
0.00658885
0.00627842
0.00634258
0.0069359
0.00770652
0.00895752
0.0105099
0.0124222
0.0147913
0.0173529
0.020618
0.0236728
0.0267956
0.0174355
0.0150448
0.0129735
0.0106996
0.00905313
0.00773897
0.00651298
0.00609835
0.00557605
0.00583331
0.00653607
0.00730241
0.00818893
0.00949521
0.0110295
0.0134592
0.0156695
0.0182745
0.0213964
0.0237365
0.0150856
0.0135029
0.0113521
0.00939793
0.00804859
0.00673922
0.00610897
0.00539221
0.00541236
0.0053006
0.00559271
0.00627697
0.00708833
0.0084702
0.0099414
0.0117656
0.0139136
0.0162283