/*--------------------------------*- C++ -*----------------------------------*\
| =========                 |                                                 |
| \\      /  F ield         | OpenFOAM: The Open Source CFD Toolbox           |
|  \\    /   O peration     | Version:  2212                                  |
|   \\  /    A nd           | Website:  www.openfoam.com                      |
|    \\/     M anipulation  |                                                 |
\*---------------------------------------------------------------------------*/
FoamFile
{
    version     2.0;
    format      ascii;
    arch        "LSB;label=32;scalar=64";
    class       volScalarField;
    location    "0";
    object      T;
}
// * * * * * * * * * * * * * * * * * * * * * * * * * * * * * * * * * * * * * //

dimensions      [0 0 0 1 0 0 0];

internalField   nonuniform List<scalar> 
3200
(
322.555
322.068
321.711
321.983
322.37
322.883
323.133
323.713
324.284
324.691
324.742
324.773
324.733
324.464
323.952
323.491
323.443
323.327
323.663
323.988
319.493
319.101
318.794
319.035
319.36
319.823
320.017
320.509
321.032
321.372
321.442
321.441
321.408
321.181
320.721
320.333
320.29
320.175
320.467
320.698
316.46
316.124
315.901
316.098
316.366
316.782
316.93
317.328
317.774
318.064
318.118
318.145
318.087
317.904
317.494
317.171
317.146
317.066
317.303
317.463
313.449
313.206
312.996
313.149
313.387
313.728
313.851
314.172
314.525
314.746
314.804
314.845
314.798
314.631
314.28
314.026
314.021
313.952
314.16
314.252
310.439
310.285
310.1
310.226
310.415
310.676
310.765
311.024
311.299
311.441
311.509
311.546
311.505
311.377
311.075
310.894
310.887
310.825
311.029
311.06
307.453
307.357
307.2
307.32
307.444
307.616
307.695
307.853
308.071
308.142
308.224
308.241
308.213
308.112
307.893
307.76
307.769
307.729
307.903
307.887
304.484
304.417
304.307
304.393
304.492
304.563
304.632
304.688
304.861
304.875
304.944
304.948
304.937
304.866
304.735
304.649
304.664
304.628
304.752
304.737
301.509
301.483
301.442
301.465
301.511
301.532
301.555
301.56
301.631
301.634
301.662
301.658
301.643
301.627
301.583
301.558
301.558
301.553
301.601
301.595
322.614
322.063
321.929
322.092
322.442
323.1
323.496
323.908
324.463
324.996
325.199
325.194
325.002
324.601
324.14
323.65
323.578
323.502
323.686
324.025
319.547
319.106
318.985
319.13
319.399
320.019
320.341
320.679
321.161
321.628
321.763
321.77
321.647
321.251
320.889
320.461
320.386
320.339
320.478
320.721
316.518
316.157
316.058
316.169
316.385
316.927
317.202
317.491
317.882
318.246
318.374
318.388
318.307
317.946
317.644
317.27
317.228
317.158
317.295
317.493
313.503
313.235
313.119
313.216
313.404
313.821
314.076
314.305
314.601
314.914
315.003
315.032
314.96
314.681
314.424
314.105
314.072
314.017
314.127
314.3
310.498
310.28
310.169
310.265
310.41
310.741
310.942
311.129
311.336
311.594
311.657
311.697
311.625
311.408
311.218
310.958
310.936
310.871
310.992
311.106
307.498
307.355
307.251
307.343
307.418
307.681
307.821
307.947
308.071
308.279
308.304
308.361
308.324
308.138
308.019
307.813
307.795
307.752
307.864
307.906
304.505
304.422
304.347
304.398
304.451
304.609
304.706
304.78
304.815
304.974
304.982
305.026
305.015
304.886
304.829
304.684
304.658
304.651
304.721
304.742
301.506
301.481
301.455
301.465
301.493
301.539
301.585
301.603
301.605
301.669
301.671
301.688
301.669
301.643
301.62
301.57
301.553
301.562
301.582
301.588
322.752
322.269
322.134
322.292
322.639
323.218
323.873
324.593
324.95
325.404
325.721
325.685
325.424
325.14
324.526
324.153
323.787
323.616
323.887
324.3
319.691
319.3
319.165
319.291
319.603
320.094
320.662
321.272
321.589
321.965
322.241
322.216
321.986
321.75
321.216
320.888
320.556
320.444
320.678
320.985
316.624
316.314
316.195
316.278
316.571
316.996
317.469
317.966
318.231
318.54
318.787
318.769
318.587
318.361
317.932
317.631
317.394
317.284
317.475
317.678
313.562
313.327
313.239
313.313
313.529
313.881
314.284
314.704
314.887
315.137
315.324
315.356
315.195
315.012
314.663
314.412
314.233
314.132
314.288
314.435
310.531
310.337
310.27
310.352
310.492
310.803
311.079
311.432
311.566
311.765
311.892
311.947
311.816
311.656
311.414
311.18
311.049
310.99
311.098
311.203
307.515
307.368
307.347
307.386
307.502
307.707
307.903
308.173
308.257
308.405
308.498
308.554
308.447
308.314
308.167
307.967
307.883
307.837
307.931
307.987
304.503
304.408
304.403
304.448
304.501
304.627
304.755
304.901
304.947
305.054
305.105
305.147
305.082
304.992
304.911
304.78
304.738
304.701
304.768
304.794
301.503
301.476
301.474
301.488
301.509
301.547
301.6
301.644
301.656
301.689
301.714
301.729
301.704
301.679
301.649
301.598
301.602
301.575
301.604
301.599
322.967
322.623
322.469
322.655
323.078
323.544
324.33
324.996
325.652
325.909
326.251
326.3
325.949
325.558
325.094
324.499
324.194
324.016
324.187
324.54
319.862
319.606
319.455
319.616
319.974
320.383
321.067
321.626
322.184
322.398
322.704
322.745
322.422
322.106
321.694
321.197
320.934
320.773
320.904
321.185
316.775
316.598
316.452
316.579
316.901
317.232
317.812
318.277
318.741
318.921
319.157
319.196
318.941
318.668
318.325
317.888
317.712
317.561
317.652
317.868
313.703
313.595
313.466
313.542
313.833
314.081
314.565
314.948
315.311
315.471
315.653
315.659
315.468
315.271
314.966
314.611
314.471
314.339
314.432
314.582
310.657
310.6
310.485
310.515
310.764
310.951
311.322
311.608
311.905
312.036
312.181
312.171
312.022
311.884
311.629
311.339
311.25
311.146
311.214
311.345
307.616
307.581
307.481
307.515
307.693
307.835
308.067
308.292
308.501
308.602
308.701
308.69
308.566
308.488
308.283
308.082
308.045
307.965
308.011
308.119
304.564
304.553
304.485
304.511
304.632
304.701
304.827
304.986
305.091
305.176
305.232
305.207
305.147
305.094
304.957
304.848
304.832
304.795
304.82
304.886
301.534
301.533
301.505
301.51
301.554
301.584
301.62
301.669
301.709
301.731
301.747
301.751
301.72
301.708
301.656
301.629
301.618
301.599
301.616
301.638
323.426
323.212
322.985
323.109
323.538
324.098
324.866
325.631
326.23
326.558
326.924
326.831
326.547
326.191
325.626
325.165
324.672
324.561
324.703
324.994
320.25
320.079
319.918
320.002
320.396
320.853
321.499
322.173
322.711
322.972
323.269
323.192
322.958
322.635
322.157
321.766
321.341
321.238
321.358
321.582
317.1
316.977
316.855
316.921
317.263
317.61
318.16
318.735
319.228
319.4
319.659
319.584
319.4
319.123
318.73
318.394
318.031
317.961
318.022
318.201
313.964
313.879
313.791
313.837
314.148
314.375
314.848
315.327
315.734
315.881
316.084
316.005
315.849
315.626
315.331
315.032
314.731
314.692
314.722
314.863
310.853
310.802
310.733
310.75
311.026
311.179
311.57
311.907
312.255
312.361
312.533
312.443
312.308
312.132
311.92
311.687
311.451
311.423
311.454
311.54
307.769
307.725
307.651
307.686
307.888
308.001
308.295
308.506
308.778
308.813
308.967
308.893
308.788
308.649
308.523
308.354
308.19
308.15
308.179
308.238
304.677
304.632
304.595
304.613
304.752
304.801
304.986
305.11
305.289
305.293
305.383
305.347
305.293
305.192
305.107
305.019
304.919
304.892
304.924
304.948
301.564
301.557
301.539
301.538
301.596
301.601
301.673
301.714
301.78
301.77
301.804
301.797
301.78
301.737
301.715
301.687
301.659
301.64
301.657
301.66
323.984
323.764
323.517
323.699
324.146
324.626
325.478
326.259
326.861
327.253
327.591
327.581
327.273
326.977
326.285
325.798
325.301
325.213
325.265
325.58
320.756
320.575
320.37
320.513
320.915
321.3
322.06
322.725
323.242
323.554
323.847
323.868
323.571
323.329
322.726
322.312
321.909
321.804
321.855
322.083
317.542
317.398
317.247
317.359
317.666
317.998
318.63
319.184
319.647
319.898
320.159
320.154
319.871
319.709
319.188
318.846
318.534
318.447
318.484
318.65
314.331
314.238
314.105
314.214
314.43
314.707
315.232
315.667
316.057
316.245
316.491
316.461
316.207
316.107
315.671
315.397
315.154
315.089
315.111
315.229
311.151
311.088
310.957
311.061
311.218
311.446
311.839
312.169
312.504
312.631
312.826
312.796
312.594
312.517
312.18
311.968
311.782
311.727
311.735
311.814
307.99
307.899
307.815
307.929
308.03
308.196
308.446
308.689
308.921
309.039
309.179
309.135
308.997
308.94
308.712
308.553
308.439
308.365
308.368
308.423
304.814
304.736
304.698
304.752
304.844
304.922
305.078
305.237
305.362
305.425
305.517
305.49
305.409
305.388
305.243
305.144
305.076
305.011
305.025
305.045
301.615
301.585
301.575
301.588
301.627
301.651
301.705
301.748
301.786
301.825
301.847
301.841
301.813
301.813
301.758
301.73
301.709
301.68
301.672
301.681
324.545
324.278
324.258
324.379
324.756
325.366
325.973
326.844
327.508
328.018
328.407
328.309
328.039
327.704
327.076
326.569
326.084
325.923
325.91
326.194
321.244
321.037
321.014
321.1
321.428
321.944
322.464
323.227
323.776
324.232
324.57
324.473
324.237
323.985
323.415
322.975
322.563
322.457
322.386
322.618
317.941
317.797
317.782
317.829
318.137
318.527
318.976
319.616
320.069
320.461
320.755
320.665
320.439
320.271
319.769
319.432
319.08
318.986
318.9
319.069
314.663
314.56
314.532
314.555
314.839
315.109
315.512
316.029
316.393
316.715
316.974
316.896
316.691
316.56
316.138
315.884
315.625
315.543
315.423
315.549
311.417
311.339
311.286
311.297
311.538
311.736
312.062
312.462
312.748
312.975
313.212
313.137
312.97
312.864
312.552
312.355
312.156
312.075
311.988
312.056
308.17
308.117
308.057
308.061
308.233
308.385
308.634
308.901
309.121
309.269
309.467
309.375
309.242
309.172
308.982
308.821
308.704
308.636
308.559
308.574
304.909
304.885
304.857
304.845
304.946
305.05
305.2
305.351
305.475
305.569
305.696
305.623
305.54
305.511
305.381
305.279
305.232
305.185
305.128
305.123
301.653
301.643
301.631
301.629
301.651
301.693
301.741
301.803
301.834
301.875
301.911
301.885
301.861
301.83
301.812
301.763
301.763
301.736
301.72
301.709
325.185
325.126
325.016
325.036
325.424
326.081
326.727
327.505
328.146
328.731
329.069
329.109
328.81
328.345
327.815
327.168
326.794
326.674
326.546
326.839
321.767
321.745
321.646
321.659
321.997
322.573
323.132
323.778
324.359
324.849
325.157
325.12
324.921
324.54
324.049
323.485
323.149
323.075
322.951
323.156
318.376
318.385
318.291
318.301
318.594
319.08
319.536
320.088
320.596
320.988
321.25
321.185
321.055
320.741
320.322
319.845
319.535
319.495
319.392
319.512
314.998
315.018
314.939
314.98
315.203
315.617
315.956
316.414
316.83
317.157
317.384
317.286
317.204
316.967
316.609
316.228
315.941
315.952
315.842
315.894
311.648
311.658
311.621
311.671
311.837
312.147
312.389
312.777
313.08
313.329
313.526
313.427
313.375
313.194
312.883
312.611
312.395
312.413
312.313
312.327
308.3
308.312
308.309
308.34
308.466
308.663
308.839
309.118
309.359
309.524
309.667
309.612
309.555
309.416
309.202
309.015
308.868
308.872
308.795
308.79
304.98
304.986
305.01
305.003
305.094
305.182
305.316
305.454
305.631
305.741
305.813
305.786
305.749
305.655
305.526
305.415
305.338
305.332
305.298
305.279
301.663
301.661
301.69
301.685
301.702
301.738
301.777
301.827
301.883
301.92
301.951
301.937
301.937
301.897
301.844
301.817
301.793
301.795
301.778
301.764
325.918
325.825
325.633
325.732
326.12
326.77
327.444
328.092
328.801
329.516
329.749
329.748
329.431
329.092
328.468
327.834
327.445
327.394
327.401
327.551
322.415
322.344
322.186
322.267
322.609
323.165
323.748
324.3
324.899
325.532
325.725
325.717
325.449
325.141
324.603
324.083
323.736
323.701
323.69
323.785
318.928
318.88
318.759
318.809
319.119
319.587
320.072
320.535
321.016
321.563
321.731
321.721
321.502
321.216
320.773
320.337
320.038
320.016
320.002
320.047
315.474
315.442
315.35
315.368
315.63
316.014
316.41
316.762
317.179
317.626
317.75
317.746
317.563
317.338
316.964
316.616
316.384
316.357
316.334
316.357
312.016
312.012
311.942
311.965
312.166
312.443
312.766
313.014
313.358
313.719
313.789
313.774
313.649
313.479
313.168
312.889
312.749
312.706
312.693
312.726
308.593
308.61
308.547
308.564
308.707
308.889
309.114
309.28
309.552
309.797
309.853
309.824
309.749
309.612
309.374
309.188
309.117
309.066
309.062
309.087
305.162
305.17
305.135
305.157
305.23
305.331
305.461
305.554
305.733
305.902
305.933
305.901
305.858
305.78
305.621
305.535
305.478
305.445
305.429
305.466
301.737
301.726
301.724
301.729
301.751
301.771
301.827
301.857
301.917
301.988
301.993
301.981
301.974
301.948
301.891
301.847
301.832
301.823
301.816
301.825
326.621
326.562
326.352
326.542
326.844
327.44
328.159
328.822
329.579
330.128
330.46
330.409
329.952
329.655
329.05
328.514
328.261
327.898
328.142
328.503
323.042
322.983
322.81
322.961
323.228
323.749
324.387
324.936
325.593
326.047
326.309
326.283
325.894
325.638
325.113
324.635
324.439
324.111
324.316
324.644
319.468
319.435
319.259
319.412
319.618
320.087
320.641
321.057
321.611
322.008
322.208
322.176
321.858
321.654
321.205
320.793
320.647
320.388
320.52
320.816
315.886
315.904
315.746
315.88
316.023
316.436
316.873
317.199
317.651
317.967
318.148
318.107
317.835
317.677
317.31
316.98
316.861
316.676
316.759
317.016
312.319
312.358
312.249
312.32
312.44
312.786
313.112
313.341
313.705
313.953
314.077
314.047
313.842
313.75
313.459
313.185
313.091
312.975
313.011
313.237
308.794
308.815
308.756
308.771
308.867
309.145
309.357
309.507
309.783
309.959
310.039
310.013
309.866
309.807
309.594
309.412
309.329
309.288
309.301
309.469
305.296
305.293
305.241
305.269
305.316
305.487
305.637
305.702
305.888
305.972
306.017
305.996
305.925
305.884
305.747
305.632
305.593
305.568
305.601
305.69
301.785
301.764
301.756
301.763
301.77
301.829
301.88
301.907
301.971
301.999
302.02
302.003
301.993
301.977
301.92
301.882
301.877
301.863
301.878
301.895
327.635
327.322
327.173
327.37
327.632
328.127
328.918
329.475
330.218
330.74
331.009
330.938
330.581
330.195
329.783
329.199
328.854
328.651
328.859
329.101
323.918
323.644
323.525
323.684
323.919
324.338
325.041
325.501
326.134
326.574
326.795
326.73
326.419
326.092
325.749
325.233
324.934
324.775
324.938
325.149
320.195
319.977
319.872
320.033
320.206
320.581
321.192
321.562
322.071
322.439
322.632
322.538
322.304
322.039
321.75
321.296
321.067
320.928
321.043
321.223
316.499
316.329
316.245
316.389
316.533
316.821
317.344
317.619
318.032
318.337
318.48
318.391
318.222
317.999
317.776
317.387
317.22
317.093
317.175
317.314
312.815
312.709
312.636
312.738
312.888
313.094
313.487
313.681
314.025
314.246
314.353
314.285
314.176
313.991
313.826
313.513
313.378
313.29
313.313
313.445
309.15
309.086
309.035
309.103
309.213
309.358
309.631
309.763
310.01
310.184
310.269
310.202
310.135
309.998
309.89
309.664
309.54
309.506
309.482
309.591
305.502
305.453
305.441
305.465
305.53
305.618
305.792
305.855
305.999
306.096
306.169
306.113
306.09
306.001
305.95
305.81
305.71
305.734
305.689
305.75
301.84
301.834
301.82
301.828
301.849
301.882
301.932
301.962
302.019
302.053
302.07
302.045
302.043
302.007
301.999
301.952
301.92
301.933
301.908
301.924
328.447
328.208
327.961
328.076
328.369
328.891
329.562
330.141
330.685
331.21
331.583
331.498
331.238
330.855
330.523
329.888
329.548
329.475
329.533
329.787
324.626
324.428
324.194
324.306
324.548
324.996
325.585
326.068
326.54
326.993
327.288
327.217
326.986
326.681
326.417
325.833
325.53
325.475
325.514
325.735
320.838
320.656
320.451
320.565
320.765
321.129
321.607
322.009
322.425
322.807
323.041
322.994
322.772
322.55
322.316
321.808
321.56
321.52
321.538
321.725
317.046
316.886
316.739
316.82
316.986
317.265
317.661
317.996
318.324
318.637
318.826
318.782
318.626
318.444
318.253
317.804
317.62
317.581
317.577
317.74
313.263
313.138
313.012
313.092
313.222
313.403
313.728
313.993
314.244
314.482
314.612
314.595
314.492
314.361
314.177
313.828
313.697
313.694
313.645
313.776
309.484
309.38
309.275
309.352
309.451
309.575
309.797
309.998
310.16
310.34
310.433
310.43
310.344
310.258
310.152
309.87
309.77
309.795
309.749
309.809
305.694
305.627
305.574
305.592
305.669
305.755
305.865
305.998
306.108
306.227
306.276
306.25
306.202
306.161
306.091
305.909
305.85
305.905
305.847
305.888
301.911
301.88
301.883
301.872
301.894
301.918
301.967
302.007
302.06
302.089
302.099
302.094
302.075
302.069
302.042
301.967
301.953
301.976
301.967
301.978
329.18
328.938
328.732
329.005
329.106
329.61
330.109
330.708
331.107
331.74
332.025
332.024
331.802
331.468
331.09
330.613
330.232
330.14
330.225
330.527
325.25
325.037
324.877
325.097
325.192
325.627
326.049
326.562
326.909
327.437
327.695
327.666
327.468
327.185
326.913
326.452
326.128
326.041
326.117
326.371
321.349
321.167
321.044
321.215
321.297
321.665
322.02
322.432
322.751
323.153
323.386
323.361
323.189
322.955
322.75
322.326
322.052
321.993
322.04
322.246
317.452
317.299
317.213
317.341
317.414
317.714
318.001
318.333
318.615
318.911
319.108
319.081
318.948
318.759
318.585
318.219
318
317.975
317.987
318.154
313.579
313.442
313.385
313.47
313.543
313.759
313.984
314.247
314.47
314.69
314.863
314.828
314.708
314.571
314.447
314.142
313.969
313.977
313.971
314.09
309.722
309.604
309.553
309.605
309.659
309.827
309.982
310.18
310.326
310.476
310.608
310.582
310.493
310.397
310.313
310.085
309.97
310
309.983
310.038
305.863
305.768
305.731
305.761
305.802
305.902
306.001
306.108
306.209
306.29
306.362
306.343
306.289
306.229
306.187
306.042
305.986
306.009
305.999
306.042
301.971
301.93
301.924
301.927
301.948
301.977
302.018
302.056
302.074
302.112
302.146
302.119
302.102
302.094
302.066
302.034
302.008
302.014
302.016
302.019
329.971
329.713
329.527
329.6
329.931
330.33
330.708
331.207
331.782
332.217
332.518
332.487
332.401
331.909
331.585
331.247
330.842
330.837
330.963
331.256
325.954
325.733
325.566
325.61
325.908
326.249
326.59
326.978
327.482
327.857
328.124
328.097
328.014
327.564
327.316
326.979
326.641
326.647
326.765
326.99
321.947
321.768
321.626
321.644
321.892
322.187
322.472
322.764
323.2
323.51
323.758
323.721
323.637
323.281
323.064
322.734
322.466
322.502
322.603
322.764
317.95
317.806
317.682
317.687
317.905
318.11
318.356
318.589
318.923
319.195
319.429
319.388
319.31
319.036
318.841
318.525
318.341
318.395
318.437
318.573
313.967
313.866
313.734
313.742
313.933
314.054
314.275
314.437
314.671
314.923
315.121
315.053
314.982
314.789
314.612
314.367
314.266
314.282
314.286
314.433
309.98
309.9
309.809
309.82
309.96
310.04
310.171
310.303
310.462
310.649
310.813
310.731
310.69
310.553
310.422
310.244
310.204
310.201
310.181
310.317
305.995
305.948
305.896
305.889
305.975
306.022
306.106
306.187
306.293
306.388
306.507
306.432
306.431
306.327
306.238
306.152
306.132
306.123
306.106
306.19
302.005
301.991
301.973
301.975
302.009
302.014
302.048
302.074
302.114
302.139
302.183
302.146
302.161
302.119
302.093
302.064
302.054
302.056
302.057
302.073
330.847
330.512
330.237
330.231
330.717
331.011
331.356
331.84
332.397
332.67
333.035
333.019
332.754
332.451
332.085
331.729
331.455
331.541
331.599
331.948
326.698
326.421
326.153
326.142
326.563
326.816
327.134
327.523
328.032
328.235
328.581
328.571
328.293
328.048
327.726
327.426
327.155
327.249
327.297
327.595
322.558
322.327
322.107
322.078
322.456
322.672
322.94
323.24
323.687
323.842
324.15
324.155
323.869
323.674
323.416
323.158
322.925
322.983
323.034
323.277
318.416
318.248
318.086
318.045
318.353
318.537
318.749
318.989
319.36
319.479
319.727
319.749
319.465
319.344
319.121
318.914
318.718
318.761
318.783
318.988
314.309
314.161
314.072
314.022
314.279
314.424
314.595
314.763
315.053
315.144
315.324
315.368
315.12
315.032
314.854
314.689
314.545
314.571
314.593
314.734
310.243
310.104
310.066
310.013
310.205
310.311
310.454
310.536
310.742
310.811
310.931
310.976
310.771
310.73
310.607
310.481
310.383
310.407
310.415
310.495
306.154
306.067
306.055
305.999
306.136
306.209
306.302
306.322
306.434
306.5
306.568
306.589
306.456
306.438
306.385
306.317
306.229
306.245
306.244
306.279
302.057
302.035
302.024
302.011
302.057
302.086
302.116
302.119
302.149
302.184
302.204
302.213
302.154
302.154
302.141
302.126
302.079
302.091
302.093
302.105
331.715
331.254
331.118
331.125
331.455
331.618
331.971
332.44
332.962
333.208
333.519
333.463
333.292
333.049
332.731
332.374
332.109
332.165
332.293
332.611
327.437
327.056
326.961
326.915
327.227
327.351
327.653
328.052
328.518
328.704
328.994
328.933
328.79
328.565
328.274
327.977
327.731
327.804
327.902
328.156
323.19
322.885
322.787
322.748
323.009
323.122
323.367
323.702
324.083
324.258
324.493
324.436
324.293
324.111
323.838
323.612
323.39
323.459
323.584
323.75
318.951
318.734
318.618
318.61
318.823
318.916
319.101
319.383
319.696
319.829
320.01
319.958
319.841
319.683
319.431
319.28
319.093
319.144
319.272
319.398
314.728
314.554
314.489
314.477
314.626
314.72
314.838
315.076
315.32
315.424
315.558
315.513
315.404
315.285
315.044
314.995
314.823
314.866
314.971
315.045
310.505
310.382
310.359
310.347
310.46
310.531
310.595
310.743
310.943
311.032
311.122
311.072
310.977
310.889
310.7
310.715
310.562
310.618
310.683
310.714
306.302
306.231
306.22
306.217
306.294
306.325
306.366
306.427
306.579
306.642
306.669
306.642
306.583
306.524
306.412
306.43
306.342
306.388
306.402
306.417
302.101
302.094
302.088
302.091
302.116
302.124
302.135
302.148
302.205
302.225
302.228
302.232
302.21
302.184
302.148
302.159
302.125
302.156
302.147
302.149
332.407
332.159
331.979
332.027
332.063
332.181
332.55
332.979
333.418
333.708
334.037
333.947
333.724
333.599
333.262
332.912
332.858
332.9
333.003
333.337
328.028
327.842
327.685
327.724
327.749
327.848
328.163
328.527
328.928
329.153
329.426
329.361
329.157
329.031
328.744
328.428
328.402
328.425
328.506
328.784
323.686
323.538
323.414
323.468
323.451
323.522
323.811
324.113
324.425
324.604
324.864
324.822
324.631
324.527
324.242
323.99
323.983
324.021
324.043
324.28
319.371
319.235
319.144
319.199
319.173
319.229
319.5
319.712
319.979
320.105
320.327
320.263
320.141
320.047
319.774
319.6
319.591
319.627
319.62
319.829
315.066
314.961
314.909
314.96
314.891
314.948
315.179
315.337
315.535
315.609
315.784
315.743
315.674
315.588
315.342
315.225
315.207
315.229
315.221
315.358
310.758
310.703
310.672
310.72
310.626
310.681
310.834
310.955
311.1
311.136
311.283
311.247
311.199
311.148
310.925
310.856
310.86
310.851
310.885
310.947
306.462
306.429
306.428
306.45
306.378
306.4
306.513
306.579
306.676
306.694
306.78
306.761
306.723
306.707
306.552
306.509
306.522
306.489
306.543
306.583
302.163
302.161
302.154
302.167
302.131
302.143
302.186
302.2
302.243
302.236
302.268
302.27
302.252
302.243
302.194
302.181
302.191
302.172
302.195
302.208
333.218
332.929
332.81
332.732
332.795
332.974
333.212
333.592
333.955
334.216
334.283
334.336
334.29
334.129
333.788
333.629
333.504
333.487
333.766
334.094
328.751
328.514
328.422
328.329
328.391
328.523
328.74
329.06
329.38
329.599
329.64
329.719
329.662
329.51
329.203
329.03
328.929
328.909
329.175
329.47
324.312
324.122
324.046
323.955
324.005
324.099
324.306
324.564
324.818
324.999
325.045
325.114
325.062
324.915
324.657
324.484
324.417
324.376
324.61
324.875
319.874
319.731
319.667
319.597
319.619
319.707
319.893
320.073
320.295
320.41
320.473
320.528
320.483
320.354
320.127
319.989
319.951
319.895
320.092
320.314
315.453
315.354
315.292
315.235
315.243
315.306
315.465
315.604
315.772
315.854
315.911
315.964
315.925
315.817
315.64
315.525
315.519
315.441
315.61
315.788
311.049
310.967
310.905
310.883
310.881
310.924
311.067
311.151
311.261
311.323
311.35
311.409
311.38
311.295
311.164
311.069
311.085
311.005
311.148
311.267
306.626
306.587
306.55
306.547
306.536
306.551
306.636
306.705
306.77
306.783
306.804
306.837
306.825
306.787
306.698
306.64
306.638
306.59
306.678
306.756
302.218
302.207
302.19
302.196
302.2
302.19
302.214
302.254
302.267
302.282
302.28
302.283
302.292
302.275
302.241
302.229
302.226
302.215
302.233
302.253
333.958
333.667
333.619
333.446
333.422
333.655
333.765
334.125
334.398
334.688
334.634
334.79
334.676
334.538
334.358
334.1
334.027
334.231
334.465
334.788
329.378
329.126
329.083
328.953
328.903
329.084
329.161
329.515
329.765
329.996
329.941
330.085
329.974
329.829
329.692
329.423
329.38
329.557
329.759
330.02
324.836
324.613
324.572
324.468
324.403
324.542
324.602
324.926
325.149
325.329
325.286
325.404
325.307
325.185
325.07
324.814
324.799
324.95
325.081
325.32
320.304
320.133
320.069
320
319.928
320.04
320.081
320.371
320.546
320.692
320.678
320.764
320.665
320.579
320.481
320.254
320.277
320.374
320.467
320.661
315.776
315.67
315.596
315.546
315.482
315.58
315.589
315.822
315.974
316.066
316.065
316.137
316.056
316.008
315.92
315.731
315.773
315.809
315.914
316.049
311.263
311.203
311.151
311.11
311.044
311.129
311.115
311.297
311.411
311.463
311.463
311.519
311.453
311.427
311.352
311.219
311.268
311.277
311.361
311.462
306.754
306.732
306.714
306.665
306.613
306.68
306.669
306.782
306.843
306.881
306.887
306.917
306.875
306.864
306.81
306.737
306.771
306.761
306.814
306.883
302.259
302.257
302.26
302.224
302.203
302.241
302.237
302.268
302.294
302.31
302.31
302.319
302.309
302.294
302.282
302.256
302.266
302.259
302.277
302.31
334.599
334.243
334.026
333.979
333.825
334.114
334.191
334.619
334.715
334.955
335.022
335.186
335.083
334.887
334.775
334.631
334.555
334.794
334.931
335.181
329.895
329.585
329.415
329.357
329.228
329.47
329.527
329.918
330.012
330.207
330.266
330.397
330.289
330.103
330.043
329.902
329.812
330.042
330.14
330.334
325.223
324.971
324.847
324.777
324.667
324.872
324.904
325.266
325.351
325.508
325.565
325.666
325.551
325.378
325.358
325.254
325.127
325.353
325.41
325.592
320.602
320.388
320.307
320.25
320.135
320.312
320.338
320.647
320.727
320.838
320.875
320.974
320.861
320.718
320.696
320.624
320.502
320.702
320.72
320.887
316.002
315.828
315.791
315.744
315.638
315.77
315.807
316.045
316.123
316.203
316.214
316.289
316.217
316.084
316.069
316.023
315.924
316.088
316.061
316.219
311.427
311.295
311.286
311.252
311.144
311.244
311.283
311.468
311.534
311.553
311.597
311.614
311.574
311.479
311.452
311.457
311.374
311.483
311.443
311.559
306.866
306.782
306.794
306.764
306.671
306.734
306.778
306.886
306.94
306.931
306.962
306.97
306.95
306.884
306.859
306.901
306.837
306.884
306.868
306.943
302.303
302.273
302.278
302.268
302.234
302.265
302.265
302.317
302.315
302.316
302.331
302.329
302.335
302.298
302.294
302.319
302.283
302.302
302.304
302.324
)
;

boundaryField
{
    hotSide
    {
        type            fixedGradient;
        gradient        nonuniform List<scalar> 
400
(
246.887
247.043
248.772
252.029
256.651
262.403
269.034
276.316
284.061
292.126
300.406
308.829
317.351
325.955
334.64
343.427
352.345
361.43
370.711
380.202
238.809
239.137
241.148
244.787
249.854
256.071
263.15
270.837
278.931
287.281
295.78
304.358
312.977
321.624
330.307
339.055
347.91
356.92
366.126
375.547
235.262
235.929
238.254
242.175
247.492
253.927
261.191
269.03
277.238
285.662
294.193
302.762
311.332
319.895
328.464
337.073
345.769
354.606
363.629
372.862
235.948
237.112
239.791
243.921
249.328
255.772
262.996
270.761
278.87
287.17
295.553
303.949
312.323
320.669
329.005
337.366
345.801
354.361
363.091
372.018
239.727
241.484
244.575
248.932
254.407
260.802
267.898
275.484
283.374
291.422
299.523
307.61
315.652
323.648
331.622
339.613
347.67
355.843
364.174
372.696
245.301
247.694
251.262
255.929
261.561
267.984
275.004
282.429
290.086
297.837
305.581
313.262
320.858
328.383
335.869
343.367
350.929
358.61
366.454
374.496
251.584
254.625
258.73
263.808
269.728
276.319
283.394
290.762
298.25
305.722
313.086
320.299
327.363
334.313
341.204
348.105
355.081
362.192
369.489
377.007
257.728
261.398
266.069
271.642
277.973
284.883
292.167
299.616
307.04
314.292
321.286
328.001
334.474
340.777
347.003
353.244
359.584
366.094
372.828
379.824
263.046
267.276
272.491
278.583
285.398
292.735
300.359
308.023
315.495
322.603
329.263
335.484
341.353
346.995
352.548
358.137
363.864
369.808
376.026
382.554
266.98
271.63
277.281
283.822
291.088
298.861
306.871
314.82
322.422
329.466
335.863
341.66
347.001
352.074
357.059
362.11
367.345
372.845
378.668
384.845
269.121
273.977
279.861
286.661
294.209
302.273
310.561
318.736
326.471
333.519
339.789
345.351
350.394
355.146
359.816
364.574
369.545
374.812
380.431
386.431
269.287
274.085
279.934
286.72
294.274
302.361
310.683
318.903
326.691
333.802
340.138
345.769
350.877
355.686
360.405
365.205
370.211
375.51
381.157
387.187
267.575
272.055
277.608
284.121
291.421
299.278
307.41
315.508
323.281
330.509
337.097
343.081
348.594
353.818
358.931
364.091
369.417
375.001
380.902
387.158
264.378
268.337
273.41
279.486
286.397
293.918
301.787
309.732
317.503
324.912
331.86
338.346
344.447
350.285
355.998
361.719
367.558
373.606
379.928
386.566
260.361
263.67
268.177
273.778
280.302
287.527
295.202
303.073
310.917
318.561
325.904
332.914
339.625
346.11
352.471
358.813
365.237
371.83
378.658
385.769
256.442
259.048
262.984
268.153
274.378
281.419
289.016
296.915
304.9
312.803
320.519
327.998
335.244
342.303
349.247
356.163
363.142
370.269
377.612
385.217
253.812
255.728
259.134
263.942
269.953
276.897
284.486
292.454
300.583
308.708
316.719
324.561
332.222
339.728
347.134
354.517
361.96
369.549
377.354
385.42
253.884
255.196
258.129
262.603
268.397
275.21
282.732
290.69
298.863
307.091
315.265
323.326
331.254
339.065
346.8
354.527
362.325
370.279
378.456
386.901
257.906
258.775
261.288
265.372
270.812
277.312
284.568
292.313
300.335
308.48
316.64
324.755
332.798
340.774
348.715
356.677
364.729
372.946
381.392
390.103
266.276
266.881
269.019
272.632
277.543
283.504
290.251
297.548
305.2
313.06
321.025
329.028
337.038
345.05
353.084
361.179
369.389
377.772
386.377
395.229
)
;
    }
    coldSide
    {
        type            mixed;
        refValue        uniform 300;
        refGradient     uniform 0;
        valueFraction   uniform 0.991591;
        source          uniform 0;
        value           nonuniform List<scalar> 
400
(
300.013
300.013
300.013
300.013
300.013
300.014
300.014
300.014
300.015
300.015
300.015
300.016
300.017
300.017
300.017
300.018
300.018
300.019
300.019
300.019
300.012
300.012
300.012
300.013
300.013
300.013
300.014
300.014
300.015
300.015
300.015
300.016
300.016
300.017
300.017
300.018
300.018