/*--------------------------------*- C++ -*----------------------------------*\
| =========                 |                                                 |
| \\      /  F ield         | OpenFOAM: The Open Source CFD Toolbox           |
|  \\    /   O peration     | Version:  2212                                  |
|   \\  /    A nd           | Website:  www.openfoam.com                      |
|    \\/     M anipulation  |                                                 |
\*---------------------------------------------------------------------------*/
FoamFile
{
    version     2.0;
    format      ascii;
    arch        "LSB;label=32;scalar=64";
    class       volScalarField;
    location    "0";
    object      Ttrue;
}
// * * * * * * * * * * * * * * * * * * * * * * * * * * * * * * * * * * * * * //

dimensions      [0 0 0 1 0 0 0];

internalField   nonuniform List<scalar> 
3200
(
325.185
325.357
325.578
325.818
326.066
326.309
326.533
326.722
326.86
326.933
326.933
326.86
326.722
326.533
326.309
326.066
325.818
325.578
325.357
325.185
321.693
321.839
322.029
322.237
322.452
322.662
322.856
323.019
323.138
323.201
323.201
323.138
323.019
322.856
322.662
322.452
322.237
322.029
321.839
321.693
318.26
318.381
318.542
318.717
318.898
319.076
319.24
319.378
319.478
319.531
319.531
319.478
319.378
319.24
319.076
318.898
318.717
318.542
318.381
318.26
314.876
314.974
315.105
315.248
315.396
315.541
315.675
315.788
315.87
315.913
315.913
315.87
315.788
315.675
315.541
315.396
315.248
315.105
314.974
314.876
311.532
311.607
311.709
311.82
311.935
312.048
312.152
312.239
312.303
312.337
312.337
312.303
312.239
312.152
312.048
311.935
311.82
311.709
311.607
311.532
308.219
308.272
308.345
308.424
308.507
308.587
308.661
308.724
308.769
308.793
308.793
308.769
308.724
308.661
308.587
308.507
308.424
308.345
308.272
308.219
304.928
304.96
305.003
305.051
305.101
305.149
305.193
305.231
305.258
305.273
305.273
305.258
305.231
305.193
305.149
305.101
305.051
305.003
304.96
304.928
301.651
301.661
301.676
301.692
301.708
301.724
301.739
301.752
301.761
301.766
301.766
301.761
301.752
301.739
301.724
301.708
301.692
301.676
301.661
301.651
325.287
325.458
325.677
325.915
326.16
326.4
326.622
326.809
326.945
327.017
327.017
326.945
326.809
326.622
326.4
326.16
325.915
325.677
325.458
325.287
321.781
321.926
322.114
322.32
322.532
322.74
322.932
323.093
323.211
323.273
323.273
323.211
323.093
322.932
322.74
322.532
322.32
322.114
321.926
321.781
318.334
318.454
318.613
318.787
318.966
319.142
319.304
319.44
319.539
319.592
319.592
319.539
319.44
319.304
319.142
318.966
318.787
318.613
318.454
318.334
314.936
315.033
315.163
315.305
315.451
315.595
315.727
315.838
315.919
315.962
315.962
315.919
315.838
315.727
315.595
315.451
315.305
315.163
315.033
314.936
311.579
311.653
311.754
311.864
311.978
312.09
312.192
312.279
312.342
312.375
312.375
312.342
312.279
312.192
312.09
311.978
311.864
311.754
311.653
311.579
308.252
308.305
308.377
308.456
308.537
308.617
308.69
308.752
308.796
308.82
308.82
308.796
308.752
308.69
308.617
308.537
308.456
308.377
308.305
308.252
304.948
304.98
305.023
305.07
305.119
305.167
305.211
305.248
305.275
305.289
305.289
305.275
305.248
305.211
305.167
305.119
305.07
305.023
304.98
304.948
301.657
301.668
301.682
301.698
301.714
301.73
301.745
301.758
301.767
301.771
301.771
301.767
301.758
301.745
301.73
301.714
301.698
301.682
301.668
301.657
325.491
325.66
325.875
326.108
326.348
326.584
326.8
326.982
327.115
327.185
327.185
327.115
326.982
326.8
326.584
326.348
326.108
325.875
325.66
325.491
321.956
322.099
322.284
322.487
322.694
322.898
323.085
323.243
323.357
323.418
323.418
323.357
323.243
323.085
322.898
322.694
322.487
322.284
322.099
321.956
318.481
318.6
318.756
318.927
319.102
319.274
319.432
319.565
319.662
319.713
319.713
319.662
319.565
319.432
319.274
319.102
318.927
318.756
318.6
318.481
315.056
315.151
315.279
315.418
315.562
315.702
315.832
315.94
316.019
316.061
316.061
316.019
315.94
315.832
315.702
315.562
315.418
315.279
315.151
315.056
311.672
311.745
311.844
311.952
312.064
312.173
312.273
312.358
312.419
312.451
312.451
312.419
312.358
312.273
312.173
312.064
311.952
311.844
311.745
311.672
308.319
308.37
308.441
308.518
308.598
308.676
308.748
308.808
308.852
308.875
308.875
308.852
308.808
308.748
308.676
308.598
308.518
308.441
308.37
308.319
304.988
305.019
305.061
305.108
305.155
305.202
305.245
305.281
305.308
305.321
305.321
305.308
305.281
305.245
305.202
305.155
305.108
305.061
305.019
304.988
301.67
301.681
301.695
301.711
301.727
301.742
301.757
301.769
301.778
301.782
301.782
301.778
301.769
301.757
301.742
301.727
301.711
301.695
301.681
301.67
325.798
325.963
326.172
326.4
326.633
326.86
327.069
327.245
327.373
327.44
327.44
327.373
327.245
327.069
326.86
326.633
326.4
326.172
325.963
325.798
322.22
322.36
322.54
322.737
322.939
323.136
323.316
323.468
323.579
323.637
323.637
323.579
323.468
323.316
323.136
322.939
322.737
322.54
322.36
322.22
318.703
318.818
318.971
319.137
319.307
319.474
319.627
319.755
319.848
319.897
319.897
319.848
319.755
319.627
319.474
319.307
319.137
318.971
318.818
318.703
315.236
315.329
315.454
315.589
315.729
315.865
315.99
316.094
316.17
316.21
316.21
316.17
316.094
315.99
315.865
315.729
315.589
315.454
315.329
315.236
311.811
311.883
311.979
312.085
312.193
312.299
312.396
312.477
312.536
312.567
312.567
312.536
312.477
312.396
312.299
312.193
312.085
311.979
311.883
311.811
308.418
308.469
308.537
308.613
308.69
308.765
308.835
308.893
308.935
308.957
308.957
308.935
308.893
308.835
308.765
308.69
308.613
308.537
308.469
308.418
305.047
305.078
305.119
305.164
305.21
305.256
305.297
305.332
305.357
305.371
305.371
305.357
305.332
305.297
305.256
305.21
305.164
305.119
305.078
305.047
301.69
301.701
301.714
301.729
301.745
301.76
301.774
301.786
301.794
301.799
301.799
301.794
301.786
301.774
301.76
301.745
301.729
301.714
301.701
301.69
326.208
326.368
326.57
326.79
327.014
327.232
327.432
327.599
327.721
327.785
327.785
327.721
327.599
327.432
327.232
327.014
326.79
326.57
326.368
326.208
322.573
322.708
322.882
323.072
323.266
323.455
323.628
323.773
323.878
323.933
323.933
323.878
323.773
323.628
323.455
323.266
323.072
322.882
322.708
322.573
318.999
319.111
319.258
319.419
319.582
319.742
319.888
320.01
320.099
320.146
320.146
320.099
320.01
319.888
319.742
319.582
319.419
319.258
319.111
318.999
315.477
315.567
315.687
315.818
315.952
316.083
316.202
316.302
316.375
316.413
316.413
316.375
316.302
316.202
316.083
315.952
315.818
315.687
315.567
315.477
311.998
312.067
312.16
312.262
312.366
312.467
312.56
312.638
312.694
312.724
312.724
312.694
312.638
312.56
312.467
312.366
312.262
312.16
312.067
311.998
308.551
308.6
308.666
308.739
308.813
308.886
308.952
309.007
309.047
309.068
309.068
309.047
309.007
308.952
308.886
308.813
308.739
308.666
308.6
308.551
305.127
305.156
305.196
305.24
305.284
305.328
305.368
305.401
305.425
305.438
305.438
305.425
305.401
305.368
305.328
305.284
305.24
305.196
305.156
305.127
301.717
301.727
301.74
301.755
301.77
301.784
301.798
301.809
301.817
301.821
301.821
301.817
301.809
301.798
301.784
301.77
301.755
301.74
301.727
301.717
326.722
326.876
327.07
327.28
327.493
327.7
327.889
328.048
328.162
328.222
328.222
328.162
328.048
327.889
327.7
327.493
327.28
327.07
326.876
326.722
323.014
323.144
323.312
323.493
323.678
323.857
324.021
324.158
324.257
324.309
324.309
324.257
324.158
324.021
323.857
323.678
323.493
323.312
323.144
323.014
319.37
319.478
319.619
319.772
319.929
320.08
320.218
320.334
320.417
320.461
320.461
320.417
320.334
320.218
320.08
319.929
319.772
319.619
319.478
319.37
315.779
315.866
315.981
316.106
316.234
316.358
316.471
316.565
316.633
316.669
316.669
316.633
316.565
316.471
316.358
316.234
316.106
315.981
315.866
315.779
312.231
312.298
312.387
312.485
312.584
312.68
312.768
312.841
312.894
312.922
312.922
312.894
312.841
312.768
312.68
312.584
312.485
312.387
312.298
312.231
308.717
308.764
308.828
308.897
308.968
309.037
309.1
309.152
309.19
309.21
309.21
309.19
309.152
309.1
309.037
308.968
308.897
308.828
308.764
308.717
305.227
305.255
305.293
305.335
305.377
305.419
305.456
305.488
305.51
305.522
305.522
305.51
305.488
305.456
305.419
305.377
305.335
305.293
305.255
305.227
301.75
301.76
301.773
301.787
301.801
301.815
301.827
301.838
301.845
301.849
301.849
301.845
301.838
301.827
301.815
301.801
301.787
301.773
301.76
301.75
327.34
327.487
327.673
327.872
328.073
328.268
328.446
328.593
328.7
328.756
328.756
328.7
328.593
328.446
328.268
328.073
327.872
327.673
327.487
327.34
323.546
323.67
323.83
324.002
324.177
324.345
324.499
324.627
324.719
324.767
324.767
324.719
324.627
324.499
324.345
324.177
324.002
323.83
323.67
323.546
319.816
319.92
320.054
320.2
320.347
320.49
320.62
320.728
320.806
320.846
320.846
320.806
320.728
320.62
320.49
320.347
320.2
320.054
319.92
319.816
316.142
316.225
316.335
316.454
316.575
316.691
316.797
316.886
316.949
316.982
316.982
316.949
316.886
316.797
316.691
316.575
316.454
316.335
316.225
316.142
312.512
312.576
312.661
312.754
312.848
312.938
313.021
313.089
313.139
313.165
313.165
313.139
313.089
313.021
312.938
312.848
312.754
312.661
312.576
312.512
308.917
308.962
309.023
309.089
309.156
309.221
309.28
309.329
309.364
309.383
309.383
309.364
309.329
309.28
309.221
309.156
309.089
309.023
308.962
308.917
305.347
305.373
305.41
305.45
305.49
305.529
305.564
305.593
305.615
305.626
305.626
305.615
305.593
305.564
305.529
305.49
305.45
305.41
305.373
305.347
301.791
301.8
301.812
301.825
301.839
301.852
301.863
301.873
301.88
301.884
301.884
301.88
301.873
301.863
301.852
301.839
301.825
301.812
301.8
301.791
328.064
328.204
328.379
328.567
328.756
328.938
329.103
329.24
329.338
329.39
329.39
329.338
329.24
329.103
328.938
328.756
328.567
328.379
328.204
328.064
324.168
324.286
324.437
324.599
324.763
324.921
325.064
325.182
325.267
325.312
325.312
325.267
325.182
325.064
324.921
324.763
324.599
324.437
324.286
324.168
320.339
320.437
320.564
320.702
320.84
320.973
321.094
321.194
321.266
321.304
321.304
321.266
321.194
321.094
320.973
320.84
320.702
320.564
320.437
320.339
316.567
316.646
316.75
316.862
316.975
317.084
317.183
317.265
317.324
317.354
317.354
317.324
317.265
317.183
317.084
316.975
316.862
316.75
316.646
316.567
312.841
312.902
312.983
313.07
313.158
313.243
313.319
313.383
313.429
313.453
313.453
313.429
313.383
313.319
313.243
313.158
313.07
312.983
312.902
312.841
309.151
309.194
309.252
309.314
309.377
309.438
309.492
309.538
309.57
309.587
309.587
309.57
309.538
309.492
309.438
309.377
309.314
309.252
309.194
309.151
305.487
305.513
305.547
305.584
305.622
305.659
305.691
305.719
305.738
305.749
305.749
305.738
305.719
305.691
305.659
305.622
305.584
305.547
305.513
305.487
301.838
301.846
301.858
301.87
301.883
301.895
301.906
301.915
301.922
301.925
301.925
301.922
301.915
301.906
301.895
301.883
301.87
301.858
301.846
301.838
328.894
329.026
329.191
329.366
329.543
329.711
329.863
329.989
330.08
330.127
330.127
330.08
329.989
329.863
329.711
329.543
329.366
329.191
329.026
328.894
324.881
324.992
325.135
325.287
325.439
325.586
325.717
325.826
325.904
325.945
325.945
325.904
325.826
325.717
325.586
325.439
325.287
325.135
324.992
324.881
320.938
321.031
321.151
321.279
321.408
321.532
321.643
321.735
321.801
321.836
321.836
321.801
321.735
321.643
321.532
321.408
321.279
321.151
321.031
320.938
317.054
317.129
317.227
317.332
317.437
317.539
317.63
317.705
317.759
317.787
317.787
317.759
317.705
317.63
317.539
317.437
317.332
317.227
317.129
317.054
313.219
313.276
313.352
313.434
313.516
313.594
313.665
313.724
313.766
313.787
313.787
313.766
313.724
313.665
313.594
313.516
313.434
313.352
313.276
313.219
309.42
309.461
309.515
309.573
309.632
309.688
309.739
309.78
309.81
309.826
309.826
309.81
309.78
309.739
309.688
309.632
309.573
309.515
309.461
309.42
305.648
305.672
305.705
305.74
305.775
305.809
305.839
305.864
305.882
305.891
305.891
305.882
305.864
305.839
305.809
305.775
305.74
305.705
305.672
305.648
301.891
301.9
301.91
301.922
301.934
301.945
301.955
301.964
301.97
301.973
301.973
301.97
301.964
301.955
301.945
301.934
301.922
301.91
301.9
301.891
329.83
329.954
330.109
330.272
330.435
330.591
330.73
330.845
330.928
330.97
330.97
330.928
330.845
330.73
330.591
330.435
330.272
330.109
329.954
329.83
325.686
325.791
325.924
326.065
326.207
326.342
326.462
326.562
326.633
326.67
326.67
326.633
326.562
326.462
326.342
326.207
326.065
325.924
325.791
325.686
321.614
321.701
321.814
321.933
322.053
322.167
322.269
322.353
322.413
322.445
322.445
322.413
322.353
322.269
322.167
322.053
321.933
321.814
321.701
321.614
317.605
317.675
317.766
317.864
317.962
318.055
318.139
318.208
318.257
318.282
318.282
318.257
318.208
318.139
318.055
317.962
317.864
317.766
317.675
317.605
313.645
313.699
313.77
313.846
313.922
313.994
314.059
314.113
314.151
314.171
314.171
314.151
314.113
314.059
313.994
313.922
313.846
313.77
313.699
313.645
309.724
309.762
309.812
309.867
309.921
309.973
310.019
310.057
310.085
310.099
310.099
310.085
310.057
310.019
309.973
309.921
309.867
309.812
309.762
309.724
305.83
305.852
305.883
305.915
305.948
305.979
306.007
306.03
306.046
306.055
306.055
306.046
306.03
306.007
305.979
305.948
305.915
305.883
305.852
305.83
301.952
301.96
301.97
301.981
301.992
302.002
302.012
302.019
302.025
302.028
302.028
302.025
302.019
302.012
302.002
301.992
301.981
301.97
301.96
301.952
330.875
330.991
331.134
331.286
331.436
331.579
331.706
331.81
331.885
331.923
331.923
331.885
331.81
331.706
331.579
331.436
331.286
331.134
330.991
330.875
326.583
326.681
326.805
326.937
327.067
327.19
327.301
327.391
327.455
327.489
327.489
327.455
327.391
327.301
327.19
327.067
326.937
326.805
326.681
326.583
322.369
322.45
322.554
322.665
322.776
322.88
322.973
323.05
323.104
323.133
323.133
323.104
323.05
322.973
322.88
322.776
322.665
322.554
322.45
322.369
318.218
318.284
318.369
318.459
318.55
318.635
318.711
318.774
318.818
318.842
318.842
318.818
318.774
318.711
318.635
318.55
318.459
318.369
318.284
318.218
314.12
314.17
314.236
314.307
314.377
314.443
314.503
314.551
314.586
314.604
314.604
314.586
314.551
314.503
314.443
314.377
314.307
314.236
314.17
314.12
310.062
310.097
310.144
310.195
310.245
310.292
310.335
310.37
310.394
310.407
310.407
310.394
310.37
310.335
310.292
310.245
310.195
310.144
310.097
310.062
306.032
306.054
306.082
306.112
306.142
306.171
306.196
306.217
306.232
306.24
306.24
306.232
306.217
306.196
306.171
306.142
306.112
306.082
306.054
306.032
302.02
302.027
302.037
302.047
302.057
302.067
302.075
302.082
302.087
302.09
302.09
302.087
302.082
302.075
302.067
302.057
302.047
302.037
302.027
302.02
332.027
332.135
332.268
332.408
332.546
332.676
332.791
332.886
332.953
332.988
332.988
332.953
332.886
332.791
332.676
332.546
332.408
332.268
332.135
332.027
327.574
327.665
327.78
327.901
328.021
328.133
328.234
328.315
328.373
328.403
328.403
328.373
328.315
328.234
328.133
328.021
327.901
327.78
327.665
327.574
323.201
323.277
323.374
323.476
323.577
323.672
323.757
323.826
323.875
323.901
323.901
323.875
323.826
323.757
323.672
323.577
323.476
323.374
323.277
323.201
318.895
318.956
319.035
319.119
319.202
319.28
319.349
319.405
319.446
319.466
319.466
319.446
319.405
319.349
319.28
319.202
319.119
319.035
318.956
318.895
314.644
314.691
314.752
314.817
314.882
314.942
314.996
315.04
315.071
315.088
315.088
315.071
315.04
314.996
314.942
314.882
314.817
314.752
314.691
314.644
310.435
310.468
310.512
310.558
310.604
310.648
310.686
310.718
310.74
310.752
310.752
310.74
310.718
310.686
310.648
310.604
310.558
310.512
310.468
310.435
306.256
306.276
306.302
306.33
306.358
306.384
306.407
306.426
306.439
306.446
306.446
306.439
306.426
306.407
306.384
306.358
306.33
306.302
306.276
306.256
302.095
302.102
302.11
302.12
302.129
302.138
302.146
302.152
302.156
302.159
302.159
302.156
302.152
302.146
302.138
302.129
302.12
302.11
302.102
302.095
333.288
333.388
333.511
333.64
333.766
333.884
333.988
334.073
334.133
334.164
334.164
334.133
334.073
333.988
333.884
333.766
333.64
333.511
333.388
333.288
328.658
328.743
328.849
328.96
329.069
329.172
329.262
329.336
329.388
329.415
329.415
329.388
329.336
329.262
329.172
329.069
328.96
328.849
328.743
328.658
324.112
324.182
324.272
324.365
324.458
324.545
324.621
324.683
324.728
324.75
324.75
324.728
324.683
324.621
324.545
324.458
324.365
324.272
324.182
324.112
319.636
319.693
319.766
319.842
319.918
319.989
320.052
320.103
320.139
320.157
320.157
320.139
320.103
320.052
319.989
319.918
319.842
319.766
319.693
319.636
315.218
315.261
315.318
315.378
315.436
315.492
315.54
315.58
315.608
315.623
315.623
315.608
315.58
315.54
315.492
315.436
315.378
315.318
315.261
315.218
310.844
310.874
310.915
310.957
310.999
311.039
311.074
311.102
311.122
311.132
311.132
311.122
311.102
311.074
311.039
310.999
310.957
310.915
310.874
310.844
306.501
306.519
306.543
306.569
306.594
306.618
306.639
306.656
306.668
306.674
306.674
306.668
306.656
306.639
306.618
306.594
306.569
306.543
306.519
306.501
302.177
302.183
302.191
302.2
302.208
302.216
302.223
302.229
302.233
302.235
302.235
302.233
302.229
302.223
302.216
302.208
302.2
302.191
302.183
302.177
334.658
334.75
334.863
334.981
335.096
335.203
335.297
335.373
335.427
335.455
335.455
335.427
335.373
335.297
335.203
335.096
334.981
334.863
334.75
334.658
329.835
329.913
330.011
330.113
330.212
330.305
330.387
330.453
330.499
330.523
330.523
330.499
330.453
330.387
330.305
330.212
330.113
330.011
329.913
329.835
325.101
325.166
325.248
325.334
325.418
325.497
325.566
325.622
325.661
325.682
325.682
325.661
325.622
325.566
325.497
325.418
325.334
325.248
325.166
325.101
320.441
320.493
320.56
320.63
320.699
320.763
320.82
320.866
320.898
320.915
320.915
320.898
320.866
320.82
320.763
320.699
320.63
320.56
320.493
320.441
315.841
315.881
315.933
315.987
316.041
316.091
316.135
316.171
316.196
316.209
316.209
316.196
316.171
316.135
316.091
316.041
315.987
315.933
315.881
315.841
311.287
311.315
311.353
311.392
311.43
311.466
311.497
311.523
311.541
311.55
311.55
311.541
311.523
311.497
311.466
311.43
311.392
311.353
311.315
311.287
306.767
306.784
306.806
306.829
306.852
306.874
306.893
306.908
306.919
306.924
306.924
306.919
306.908
306.893
306.874
306.852
306.829
306.806
306.784
306.767
302.266
302.272
302.279
302.287
302.295
302.302
302.308
302.313
302.317
302.319
302.319
302.317
302.313
302.308
302.302
302.295
302.287
302.279
302.272
302.266
336.133
336.219
336.323
336.43
336.534
336.631
336.715
336.784
336.832
336.857
336.857
336.832
336.784
336.715
336.631
336.534
336.43
336.323
336.219
336.133
331.103
331.175
331.265
331.358
331.448
331.532
331.606
331.665
331.706
331.728
331.728
331.706
331.665
331.606
331.532
331.448
331.358
331.265
331.175
331.103
326.166
326.226
326.301
326.38
326.456
326.527
326.59
326.64
326.675
326.693
326.693
326.675
326.64
326.59
326.527
326.456
326.38
326.301
326.226
326.166
321.307
321.355
321.417
321.481
321.543
321.602
321.652
321.694
321.722
321.737
321.737
321.722
321.694
321.652
321.602
321.543
321.481
321.417
321.355
321.307
316.511
316.548
316.596
316.646
316.695
316.74
316.779
316.811
316.834
316.845
316.845
316.834
316.811
316.779
316.74
316.695
316.646
316.596
316.548
316.511
311.764
311.791
311.825
311.86
311.895
311.928
311.956
311.979
311.995
312.003
312.003
311.995
311.979
311.956
311.928
311.895
311.86
311.825
311.791
311.764
307.053
307.068
307.089
307.11
307.131
307.151
307.168
307.181
307.191
307.196
307.196
307.191
307.181
307.168
307.151
307.131
307.11
307.089
307.068
307.053
302.362
302.367
302.374
302.381
302.388
302.395
302.4
302.405
302.408
302.41
302.41
302.408
302.405
302.4
302.395
302.388
302.381
302.374
302.367
302.362
337.71
337.788
337.884
337.981
338.076
338.163
338.239
338.3
338.343
338.365
338.365
338.343
338.3
338.239
338.163
338.076
337.981
337.884
337.788
337.71
332.457
332.523
332.605
332.69
332.772
332.848
332.914
332.967
333.004
333.023
333.023
333.004
332.967
332.914
332.848
332.772
332.69
332.605
332.523
332.457
327.302
327.357
327.427
327.498
327.568
327.632
327.688
327.733
327.764
327.78
327.78
327.764
327.733
327.688
327.632
327.568
327.498
327.427
327.357
327.302
322.23
322.275
322.331
322.39
322.447
322.499
322.545
322.582
322.607
322.621
322.621
322.607
322.582
322.545
322.499
322.447
322.39
322.331
322.275
322.23
317.226
317.26
317.304
317.349
317.393
317.434
317.47
317.498
317.519
317.529
317.529
317.519
317.498
317.47
317.434
317.393
317.349
317.304
317.26
317.226
312.273
312.297
312.328
312.361
312.393
312.422
312.447
312.468
312.482
312.489
312.489
312.482
312.468
312.447
312.422
312.393
312.361
312.328
312.297
312.273
307.357
307.372
307.39
307.41
307.429
307.447
307.462
307.474
307.483
307.487
307.487
307.483
307.474
307.462
307.447
307.429
307.41
307.39
307.372
307.357
302.464
302.469
302.475
302.481
302.488
302.494
302.499
302.503
302.506
302.507
302.507
302.506
302.503
302.499
302.494
302.488
302.481
302.475
302.469
302.464
339.372
339.444
339.531
339.62
339.706
339.785
339.853
339.908
339.946
339.966
339.966
339.946
339.908
339.853
339.785
339.706
339.62
339.531
339.444
339.372
333.882
333.943
334.018
334.095
334.169
334.238
334.297
334.344
334.378
334.395
334.395
334.378
334.344
334.297
334.238
334.169
334.095
334.018
333.943
333.882
328.496
328.547
328.611
328.676
328.739
328.797
328.847
328.887
328.915
328.93
328.93
328.915
328.887
328.847
328.797
328.739
328.676
328.611
328.547
328.496
323.2
323.24
323.292
323.346
323.397
323.445
323.486
323.519
323.542
323.553
323.553
323.542
323.519
323.486
323.445
323.397
323.346
323.292
323.24
323.2
317.975
318.006
318.046
318.088
318.128
318.165
318.197
318.222
318.24
318.25
318.25
318.24
318.222
318.197
318.165
318.128
318.088
318.046
318.006
317.975
312.806
312.828
312.856
312.886
312.915
312.941
312.964
312.982
312.995
313.002
313.002
312.995
312.982
312.964
312.941
312.915
312.886
312.856
312.828
312.806
307.676
307.689
307.707
307.724
307.742
307.758
307.771
307.782
307.79
307.794
307.794
307.79
307.782
307.771
307.758
307.742
307.724
307.707
307.689
307.676
302.571
302.575
302.581
302.587
302.592
302.598
302.602
302.606
302.609
302.61
302.61
302.609
302.606
302.602
302.598
302.592
302.587
302.581
302.575
302.571
341.08
341.146
341.226
341.307
341.385
341.456
341.518
341.567
341.601
341.619
341.619
341.601
341.567
341.518
341.456
341.385
341.307
341.226
341.146
341.08
335.339
335.395
335.464
335.535
335.602
335.664
335.717
335.76
335.79
335.805
335.805
335.79
335.76
335.717
335.664
335.602
335.535
335.464
335.395
335.339
329.713
329.76
329.818
329.877
329.935
329.987
330.032
330.068
330.094
330.107
330.107
330.094
330.068
330.032
329.987
329.935
329.877
329.818
329.76
329.713
324.184
324.221
324.269
324.318
324.364
324.407
324.444
324.474
324.495
324.505
324.505
324.495
324.474
324.444
324.407
324.364
324.318
324.269
324.221
324.184
318.733
318.762
318.799
318.837
318.873
318.907
318.936
318.959
318.975
318.983
318.983
318.975
318.959
318.936
318.907
318.873
318.837
318.799
318.762
318.733
313.344
313.364
313.39
313.418
313.444
313.467
313.488
313.505
313.516
313.522
313.522
313.516
313.505
313.488
313.467
313.444
313.418
313.39
313.364
313.344
307.998
308.01
308.026
308.042
308.058
308.072
308.084
308.094
308.101
308.105
308.105
308.101
308.094
308.084
308.072
308.058
308.042
308.026
308.01
307.998
302.678
302.682
302.687
302.693
302.698
302.703
302.707
302.71
302.713
302.714
302.714
302.713
302.71
302.707
302.703
302.698
302.693
302.687
302.682
302.678
342.728
342.79
342.863
342.938
343.009
343.074
343.13
343.174
343.205
343.221
343.221
343.205
343.174
343.13
343.074
343.009
342.938
342.863
342.79
342.728
336.729
336.781
336.845
336.91
336.971
337.028
337.076
337.115
337.142
337.156
337.156
337.142
337.115
337.076
337.028
336.971
336.91
336.845
336.781
336.729
330.861
330.904
330.958
331.013
331.065
331.113
331.154
331.187
331.21
331.222
331.222
331.21
331.187
331.154
331.113
331.065
331.013
330.958
330.904
330.861
325.104
325.138
325.182
325.227
325.27
325.31
325.343
325.37
325.389
325.399
325.399
325.389
325.37
325.343
325.31
325.27
325.227
325.182
325.138
325.104
319.437
319.463
319.497
319.533
319.566
319.597
319.623
319.644
319.659
319.666
319.666
319.659
319.644
319.623
319.597
319.566
319.533
319.497
319.463
319.437
313.84
313.859
313.883
313.908
313.932
313.954
313.973
313.988
313.998
314.004
314.004
313.998
313.988
313.973
313.954
313.932
313.908
313.883
313.859
313.84
308.293
308.305
308.319
308.334
308.349
308.362
308.373
308.382
308.388
308.392
308.392
308.388
308.382
308.373
308.362
308.349
308.334
308.319
308.305
308.293
302.777
302.78
302.785
302.79
302.795
302.8
302.803
302.806
302.809
302.81
302.81
302.809
302.806
302.803
302.8
302.795
302.79
302.785
302.78
302.777
344.032
344.09
344.159
344.229
344.296
344.356
344.408
344.449
344.478
344.493
344.493
344.478
344.449
344.408
344.356
344.296
344.229
344.159
344.09
344.032
337.786
337.835
337.895
337.956
338.014
338.067
338.112
338.148
338.174
338.186
338.186
338.174
338.148
338.112
338.067
338.014
337.956
337.895
337.835
337.786
331.707
331.747
331.798
331.85
331.899
331.944
331.983
332.014
332.035
332.046
332.046
332.035
332.014
331.983
331.944
331.899
331.85
331.798
331.747
331.707
325.764
325.797
325.839
325.881
325.922
325.959
325.991
326.016
326.033
326.042
326.042
326.033
326.016
325.991
325.959
325.922
325.881
325.839
325.797
325.764
319.932
319.958
319.99
320.023
320.055
320.084
320.108
320.128
320.142
320.149
320.149
320.142
320.128
320.108
320.084
320.055
320.023
319.99
319.958
319.932
314.185
314.203
314.226
314.249
314.272
314.293
314.311
314.325
314.334
314.339
314.339
314.334
314.325
314.311
314.293
314.272
314.249
314.226
314.203
314.185
308.497
308.507
308.521
308.536
308.549
308.562
308.572
308.581
308.587
308.59
308.59
308.587
308.581
308.572
308.562
308.549
308.536
308.521
308.507
308.497
302.844
302.848
302.852
302.857
302.862
302.866
302.87
302.872
302.874
302.875
302.875
302.874
302.872
302.87
302.866
302.862
302.857
302.852
302.848
302.844
)
;

boundaryField
{
    hotSide
    {
        type            fixedGradient;
        gradient        nonuniform List<scalar> 
400
(
284.798
285.978
288.34
291.886
296.623
302.557
309.695
318.045
327.616
338.415
350.451
363.731
378.262
394.051
411.103
429.423
449.014
469.879
492.022
515.444
287.071
288.233
290.559
294.054
298.726
304.581
311.631
319.885
329.355
340.05
351.981
365.157
379.586
395.276
412.234
430.464
449.971
470.757
492.827
516.181
289.531
290.671
292.955
296.389
300.983
306.746
313.693
321.836
331.189
341.765
353.576
366.635
380.951
396.532
413.386
431.519
450.935
471.638
493.63
516.913
292.137
293.252
295.487
298.85
303.354
309.012
315.841
323.858
333.079
343.523
355.203
368.133
382.326
397.79
414.534
432.563
451.884
472.5
494.411
517.621
294.816
295.903
298.083
301.367
305.77
311.311
318.011
325.89
334.97
345.271
356.811
369.605
383.668
399.011
415.641
433.566
452.791
473.318
495.15
518.288
297.457
298.514
300.635
303.835
308.132
313.549
320.113
327.849
336.782
346.937
358.335
370.993
384.927
400.148
416.667
434.49
453.622
474.065
495.821
518.891
299.908
300.935
302.998
306.113
310.305
315.601
322.032
329.629
338.421
348.436
359.698
372.228
386.041
401.151
417.567
435.297
454.344
474.711
496.399
519.408
301.988
302.988
304.998
308.038
312.136
317.324
323.637
331.111
339.78
349.674
360.819
373.238
386.948
401.964
418.294
435.946
454.923
475.227
496.859
519.818
303.511
304.49
306.459
309.442
313.468
318.574
324.799
332.181
340.757
350.56
361.619
373.957
387.592
402.538
418.806
436.401
455.328
475.587
497.18
520.103
304.317
305.285
307.233
310.184
314.172
319.233
325.41
332.742
341.268
351.023
362.036
374.33
387.926
402.836
419.07
436.636
455.536
475.773
497.344
520.249
304.317
305.285
307.233
310.184
314.172
319.233
325.41
332.742
341.268
351.023
362.036
374.33
387.926
402.836
419.07
436.636
455.536
475.773
497.344
520.249
303.511
304.49
306.459
309.442
313.468
318.574
324.799
332.181
340.757
350.56
361.619
373.957
387.592
402.538
418.806
436.401
455.328
475.587
497.18
520.103
301.988
302.988
304.998
308.038
312.136
317.324
323.637
331.111
339.78
349.674
360.819
373.238
386.948
401.964
418.294
435.946
454.923
475.227
496.859
519.818
299.908
300.935
302.998
306.113
310.305
315.601
322.032
329.629
338.421
348.436
359.698
372.228
386.041
401.151
417.567
435.297
454.344
474.711
496.399
519.408
297.457
298.514
300.635
303.835
308.132
313.549
320.113
327.849
336.782
346.937
358.335
370.993
384.927
400.148
416.667
434.49
453.622
474.065
495.821
518.891
294.816
295.903
298.083
301.367
305.77
311.311
318.011
325.89
334.97
345.271
356.811
369.605
383.668
399.011
415.641
433.566
452.791
473.318
495.15
518.288
292.137
293.252
295.487
298.85
303.354
309.012
315.841
323.858
333.079
343.523
355.203
368.133
382.326
397.79
414.534
432.563
451.884
472.5
494.411
517.621
289.531
290.671
292.955
296.389
300.983
306.746
313.693
321.836
331.189
341.765
353.576
366.635
380.951
396.532
413.386
431.519
450.935
471.638
493.63
516.913
287.071
288.233
290.559
294.054
298.726
304.581
311.631
319.885
329.355
340.05
351.981
365.157
379.586
395.276
412.234
430.464
449.971
470.757
492.827
516.181
284.798
285.978
288.34
291.886
296.623
302.557
309.695
318.045
327.616
338.415
350.451
363.731
378.262
394.051
411.103
429.423
449.014
469.879
492.022
515.444
)
;
    }
    coldSide
    {
        type            mixed;
        refValue        uniform 300;
        refGradient     uniform 0;
        valueFraction   uniform 0.991591;
        source          uniform 0;
        value           nonuniform List<scalar> 
400
(
300.014
300.014
300.014
300.014
300.014
300.015
300.015
300.015
300.016
300.016
300.017
300.018
300.018
300.019
300.02
300.021
300.022
300.023
300.023
300.024
300.014
300.014
300.014
300.014
300.015
300.015
300.015
300.016
300.016
300.016
300.017
300.018
300.018
300.019
300.02
300.021
300.022
300.023
300.023
300.024
300.014