/*--------------------------------*- C++ -*----------------------------------*\
| =========                 |                                                 |
| \\      /  F ield         | OpenFOAM: The Open Source CFD Toolbox           |
|  \\    /   O peration     | Version:  2212                                  |
|   \\  /    A nd           | Website:  www.openfoam.com                      |
|    \\/     M anipulation  |                                                 |
\*---------------------------------------------------------------------------*/
FoamFile
{
    version     2.0;
    format      ascii;
    arch        "LSB;label=32;scalar=64";
    class       volScalarField;
    location    "0";
    object      relativeErrorField;
}
// * * * * * * * * * * * * * * * * * * * * * * * * * * * * * * * * * * * * * //

dimensions      [0 0 0 1 0 0 0];

internalField   nonuniform List<scalar> 
3200
(
0.00890771
0.000778063
0.00337007
0.00504667
0.00318724
0.00988053
0.0132249
0.00592018
0.0123265
0.0112122
0.010057
0.0104103
0.00781828
0.006884
0.00481962
0.00364671
0.0129665
0.0100339
0.00884773
0.00464248
0.0113394
0.000838194
0.00384015
0.00662505
0.00644272
0.0089798
0.00569648
0.0108623
0.00723754
0.0120712
0.00938439
0.00416021
0.0104063
0.0128052
0.0130302
0.0102252
0.00895412
0.00378236
0.000699687
0.0038694
0.00125457
0.0021978
0.00290486
0.0151393
0.00943988
0.00754488
0.00805876
0.0067905
0.00732334
0.00207966
0.00316678
0.00770154
0.00964325
0.00382729
0.012724
0.00768179
0.00407222
0.00124518
0.00985006
0.00217819
0.000495307
0.00301068
0.00437843
0.00742044
0.0104622
0.00652612
0.00965591
0.00740053
0.00399951
0.00953258
0.000702005
0.00381914
0.000840761
0.00924356
0.00512609
0.00803547
0.00597489
0.00686047
0.00228833
0.00594944
8.67661e-05
0.00289568
0.00256398
0.00449931
0.0112367
0.00356631
0.00923415
0.00256756
0.000438109
0.00804349
0.00529564
0.0041038
0.000450787
0.00404884
0.00485327
0.00217375
0.00173524
0.00151618
0.00447645
0.000547886
0.00129399
0.00406858
0.000264989
0.000983855
0.00486908
0.000484711
0.000128014
0.000209509
0.00529063
0.00037541
0.00890781
0.000876516
0.000867334
0.00138951
0.0022259
0.00321939
0.00473917
0.00247648
0.00670791
0.000204771
0.000431491
0.00255266
0.000695638
0.00729481
0.00820492
0.00337457
0.00591104
0.00442426
0.000949727
0.000575031
0.00300425
0.00412318
0.0027153
0.00628695
0.0055176
0.00715181
0.000978605
0.00751315
0.00476894
0.000407023
0.00450694
0.00490504
0.000844041
0.00350815
0.00133559
0.00244162
0.00307899
0.00462554
0.00286055
0.00117442
0.0060593
0.000842396
0.00569612
0.000795574
0.00304715
0.00129379
0.00233785
0.000911804
0.00659488
0.00150768
0.00304924
0.000188444
0.00981048
0.0092827
0.00406154
0.0109954
0.00935581
0.00710045
0.0139466
0.00177709
0.0054063
0.000202087
0.0110845
0.00126149
0.00283956
0.00526243
0.00431858
0.0106069
0.00635099
0.00343261
0.00654005
0.00261579
0.00277177
0.000334302
0.0103375
0.000423578
0.00844713
0.00183111
1.10565e-05
0.00164101
0.000983986
0.00864064
0.000138624
0.00700621
0.000585304
0.00626673
0.00211423
0.00360651
0.0012616
0.00262456
0.0103578
0.00375506
0.00915873
0.00777663
0.00853658
0.00588512
0.0098987
0.00130745
0.0088559
0.00236391
0.0131593
0.00837556
0.0112129
0.00542866
0.00177637
0.012752
0.00597804
0.00420272
0.00537249
0.00183946
0.00375286
0.000898571
0.00852977
0.00779433
0.0059486
0.00630801
0.0114528
0.0072212
0.00733518
0.0042884
0.00310527
0.000628658
0.00948801
0.00648916
0.00516022
0.00713431
0.00715115
0.00639256
0.000665823
0.0002458
0.00392726
0.00106314
0.00279992
0.00402971
0.00212409
0.00935121
0.00858864
0.00224681
0.00114338
0.00252347
0.00264796
0.00256921
0.00390303
0.00634683
0.000716686
0.00704723
0.000341423
0.00592181
0.00132777
0.00396402
0.00174932
0.00242829
0.00507726
0.00165184
0.00352219
0.00101609
0.00878432
0.00277526
0.0115653
0.00192748
0.007742
0.00188012
0.00763373
0.00638633
0.000677799
0.00629915
0.00188436
0.00078562
0.00203893
0.00598011
0.00310138
0.00096336
0.00491176
0.00716915
0.00119462
0.00672567
0.00342908
0.000567849
0.00180792
0.0024412
0.00335136
0.00775435
0.000882957
0.00240484
0.0071885
0.00352031
0.00119917
0.000500373
0.0015124
0.00813191
2.93727e-05
0.00478286
0.00353641
0.00209194
0.00093545
0.00203054
0.00435086
0.00651992
0.00316311
0.00120453
0.00452751
0.00221829
0.00460652
0.00213408
0.000338944
0.000749669
0.00179524
4.16518e-06
0.00345268
0.00139126
0.00723688
0.00581775
0.00360084
0.00540472
0.0099846
0.00977577
0.0071245
0.00720089
0.00746832
0.0101576
0.00497161
0.00022816
0.00747622
0.00461348
0.00612758
0.0118282
0.00553091
0.0057415
0.00242424
0.006563
0.000717702
0.00328341
0.0103899
0.00669509
0.011031
0.000310625
0.00504252
0.00434479
0.0054104
0.0105093
0.00825953
0.00331419
0.00518174
0.00221408
0.00653794
0.00799017
0.00769294
0.00199806
0.000375589
0.0079388
0.00539569
0.00522482
0.000930803
0.000431518
0.0125042
0.00207714
0.00597466
0.0042016
0.00924567
0.00360975
0.00344109
0.00123541
0.00204907
0.0132118
0.000610682
0.0114942
0.00730282
0.00825265
0.000650287
0.00157343
0.00336239
0.00281062
0.00315119
0.00153991
0.00747027
0.00975686
0.0013949
0.00233077
0.00303918
0.00748208
0.00270019
0.00153259
0.00442818
0.00126215
0.00254646
0.00371051
0.00387888
0.0038979
0.00383998
0.00178903
0.00271935
0.00180876
0.00628474
0.00623759
0.00596188
0.00694526
0.00555231
0.00341961
0.010012
0.00188711
0.001124
0.000444016
0.00117072
0.00238026
0.00458944
0.0014922
0.00708371
0.00143542
0.00196202
0.00830602
8.54749e-05
0.00366852
0.00683156
0.00758994
0.00526452
0.00180431
0.00514122
0.000770795
0.00501115
0.000210931
0.00102216
0.00237779
0.00435811
0.00313168
3.02225e-05
6.23706e-05
0.00105167
0.000812528
0.00343592
0.00531219
0.000124435
0.00180018
0.00189946
0.00687005
0.0018605
0.00652294
0.00255902
0.0088669
0.00708186
0.0133544
0.00295608
0.00533362
0.00197801
0.0029885
0.00867228
0.00600184
0.00255986
0.00587665
0.00327686
0.00531319
0.00362288
0.00607658
0.00240497
0.00150182
0.00143597
0.00229017
0.00207523
0.00263782
0.000500249
0.00568755
0.00436458
0.000984252
0.0024404
0.0074528
0.00179738
0.00405303
0.00787664
0.00317101
0.000103452
0.000744279
0.00848057
0.000167183
0.00680243
0.00650685
0.00631357
0.00436639
0.00618919
0.00593286
0.00357012
0.0038537
0.00157989
0.000816941
0.00534051
0.000438922
0.00201412
0.00803381
0.000410054
0.000998923
0.00132669
0.0146058
0.00451471
0.000855622
0.00182209
0.00174397
0.00425429
0.00115254
0.00352716
0.000642794
0.00595414
0.000426618
0.00156653
1.19043e-05
0.000134029
0.00126888
0.000198918
0.00477281
0.00114758
0.000214015
0.000736487
0.00337038
0.00076374
0.00636991
0.00235185
0.0047846
0.00912069
0.0020347
0.00999768
0.00335851
0.00295729
0.00213452
0.00156405
0.004099
0.00241086
0.000851504
0.00675058
0.00189767
0.00104733
0.00480995
0.00233645
0.00736034
0.00105245
0.00923939
0.0059028
0.000734331
0.00519619
0.00445676
0.00965782
0.00998168
0.00409933
0.00123656
0.00537089
0.00077794
0.000579025
0.00889493
0.00860423
0.00193269
0.00277263
0.00167591
6.08636e-05
0.00353108
0.00111598
0.00256107
0.000346818
0.00779149
0.00472328
0.00956045
0.00218006
0.00290524
0.00310712
0.000885455
0.00271551
0.00547936
0.00489278
0.00658721
0.000143175
0.00122322
0.0023655
0.00170569
0.00433621
0.00289515
0.00237684
0.0025402
0.00151102
0.00803489
0.00327826
0.00767987
0.00483459
0.00021776
0.00086108
0.000849891
0.00311772
0.00365952
0.00413397
0.00534568
0.00483521
0.0043644
0.000417554
0.00381475
0.00520122
0.00144125
0.00427467
0.00298274
0.00590783
0.00192327
0.00583555
0.00351507
0.00209814
0.000210039
0.00568902
0.00354881
0.000478024
0.00235511
0.00365958
0.00693876
0.00487231
0.0035226
0.00214873
0.0048427
0.00420788
0.00397176
0.00191641
0.00439366
0.00407137
0.00168243
0.00152158
0.00408239
0.00311114
0.0103359
0.00817096
0.00596196
0.000234417
0.00338981
0.00291738
0.00531787
0.000489989
0.00306219
0.00179266
0.00826547
0.00366565
0.00493304
0.0100853
0.00442326
0.00334288
0.00531394
0.00376339
0.000607223
0.00340734
0.000370714
0.00638179
0.00186824
0.00127237
0.00182792
0.00368521
0.0056572
0.000130623
0.00127511
0.00378004
0.00350723
0.0026065
0.00711859
0.0027212
0.00888409
0.00389287
0.000648678
0.00699334
0.00537451
0.00529551
0.00162563
0.00444254
0.000272527
0.00245711
0.000446464
0.00255806
0.00751536
0.0061501
0.00708328
0.00249107
0.00217563
0.00645433
0.00232449
0.0021304
0.000648453
0.00419039
0.00700759
0.00106916
0.00344896
0.000404123
0.00337081
0.00222313
0.00521752
0.002352
0.000127685
0.00363001
0.0018927
0.00613605
8.06552e-05
0.00312241
0.00406767
0.00135839
4.70386e-05
0.00332695
0.000285759
0.00244175
0.00319336
0.00603146
0.00139737
0.00522492
0.00113421
8.51969e-05
0.00592917
0.00294558
0.00175156
0.000215546
0.00592007
0.00267437
0.0056746
0.0080492
0.00420028
0.00678725
0.00481093
0.00304493
0.0019096
0.0122686
0.00112503
0.00410173
0.00280812
0.0096257
0.00156723
0.000259099
0.00629108
0.000873337
0.00615851
7.41204e-05
0.00195808
0.000583049
0.00415894
0.00011216
0.000672808
0.00436988
0.00409502
0.000966478
0.00177636
0.00111492
0.00324086
0.000253724
0.00039588
0.000407704
0.00490123
0.00518892
0.00341125
0.00314453
0.00173028
0.0024755
0.00338119
0.00282637
0.000143356
0.0046109
0.000994538
0.00078944
8.58144e-05
0.000981582
0.000536856
0.000801007
0.0094689
0.00022436
0.00786989
0.00156414
0.00269606
0.0046736
0.00213707
0.00144797
0.00267399
0.003828
0.0032909
0.00400018
0.00382015
0.00761281
0.0024664
0.000615008
0.00855919
0.00122602
0.00160216
0.00448202
0.00125933
0.0055206
0.00613987
0.000525082
0.00124518
0.00396502
0.00127924
0.00170524
0.00169621
0.00443537
0.00289015
0.000606309
0.00160185
0.00340571
0.00102756
0.000367466
0.000367492
0.00858512
0.00700906
0.00520983
0.00356227
0.00460611
0.00318858
0.00205163
0.000516545
0.00475827
0.000856313
3.7744e-05
0.00192358
0.0057021
0.007827
0.00309164
0.000199928
0.0016802
0.000964886
0.0057513
0.00218097
0.00566992
0.000967437
0.00230138
0.00102929
0.00512084
8.43474e-05
0.00754745
4.34767e-05
0.00280377
0.000815414
0.00161666
0.000961259
0.000302102
0.0027783
0.000343499
0.00139246
0.000413497
0.00723853
0.000948751
0.00663112
0.00153145
0.00777848
0.00306269
0.0042418
0.00415041
6.55077e-05
0.000745078
0.00750557
0.00406601
0.00701433
0.00629042
0.0045517
0.00306202
0.00369773
0.00363424
6.21409e-05
0.00127668
0.00652355
0.00376457
0.00384384
0.00159522
0.00680949
0.0010285
0.00414746
0.00490627
0.00610706
0.000356028
0.000491971
0.000388552
0.000435111
0.00636436
0.00197707
0.00182389
0.00122278
0.00354631
0.00354795
0.00176415
0.000898087
0.000155412
0.00600046
0.00742774
0.00107864
0.000262918
0.00283136
0.00222147
0.00608469
0.000656148
0.00571227
0.0020604
0.00627976
0.0010002
0.00421153
0.000665682
0.00625387
3.48606e-05
0.00179075
0.000122631
0.00713003
0.00274344
0.00138575
0.00787251
0.014659
0.00348135
0.00570017
0.00262268
0.00530574
0.0061172
0.00372157
0.00150795
0.00257254
0.000923668
0.00338231
0.00405109
0.00159745
0.00730281
0.00803939
0.00823184
0.00468591
0.0047046
0.00222434
0.00034257
0.00202656
0.00197019
0.00387507
0.003857
0.00177014
0.00613606
0.00128607
0.00453228
0.000444875
0.00540545
0.00678351
0.000742054
8.87613e-05
0.00280169
0.00289228
0.00190474
0.00583799
0.00165817
0.00761867
0.0114902
0.000726091
0.000494971
0.00319906
0.000589338
0.00191718
0.00497785
0.00374181
0.000850228
0.00225704
0.00357784
0.0012553
0.00868656
0.00297733
0.00480621
0.00262385
0.00829944
0.00172608
0.00108312
0.00183318
0.00977359
0.00460747
0.00324619
0.0036619
0.00514959
0.000901183
0.000436025
0.00439834
0.00108652
0.00169552
0.00731334
0.00241333
0.0022397
0.00410909
0.00324952
0.00128601
0.00630731
0.0052165
0.00135986
0.00888281
0.0137169
0.0032207
0.0015161
0.00104497
0.00059063
0.00366154
0.00342199
0.00108119
0.00359382
0.00987644
0.00119817
0.00620852
0.00128744
6.56647e-05
0.000426736
0.00249438
0.00338127
0.00896875
0.000582308
0.0126
0.00753337
7.3973e-06
0.00485259
1.06272e-06
0.00109483
0.000983741
0.000249928
0.00207964
0.00586152
0.00327437
0.00541964
0.00466869
0.00288425
0.00430763
0.0048362
0.00120755
7.35301e-06
0.00412784
0.000774713
0.00850773
0.00779702
0.00665053
0.00026945
0.00333592
0.000324283
0.00100289
0.00517175
0.00368464
0.00226123
0.000700496
0.00631866
0.0037277
0.000340351
0.00160608
0.00426535
0.000780964
0.00364169
0.00054308
0.00232641
0.00612078
0.00390186
0.000125252
0.00220923
0.00206647
2.24258e-05
0.000311014
0.000597036
0.00433763
0.000328048
0.0105947
0.000227316
0.00515576
0.00628138
0.0029707
0.000640239
0.00390986
0.00427605
0.00341393
0.00516885
0.00156739
0.00133727
0.0062042
0.00242839
0.000376987
0.00482275
0.00146109
0.00134549
0.00339339
0.000981547
0.00654669
0.00510906
0.0066027
0.0057016
0.00571981
0.000706217
0.00430079
0.00267489
0.00370458
0.00190832
0.00101175
0.000229657
0.00184375
0.00258567
0.00105277
0.00172377
0.00338292
0.00327354
0.00458717
0.00254389
0.00528345
0.00467918
0.00302243
0.00453103
0.000970373
6.04384e-05
0.00214176
0.000716456
0.00326252
0.00141749
0.0105825
0.00133444
0.0041344
0.00415607
0.000503257
0.000896776
0.00176407
0.00258418
0.00108807
0.00637038
0.00717243
0.00080205
0.00189763
0.00247116
0.00648833
0.000301563
0.00880614
0.00568798
0.00138789
0.00493155
0.00161023
0.0174156
0.00846069
0.00265714
0.00431853
0.000139162
0.00106343
0.00190638
0.00385677
0.000624592
0.0080576
0.00425603
0.00633687
0.00714459
0.0028701
0.00406367
0.00449903
0.00460934
0.00135599
0.00517236
0.0169798
0.0150166
0.00154795
0.00643653
8.45979e-05
0.00298244
0.000207491
0.00469658
0.000530471
0.000666094
8.50402e-05
0.000569447
0.00199126
0.00117583
0.00703952
0.000467255
0.00231704
0.000883188
0.00231239
0.00108035
0.0120184
0.0118822
0.00449701
0.000410224
0.00437328
0.000904844
0.000778289
0.000397528
0.00606062
0.00220286
0.00515006
0.00453823
0.00906255
0.00132145
0.000445511
0.00110495
0.00244521
0.00856131
0.000204224
0.00535551
0.0060184
0.00180463
0.00169722
0.0026155
0.00227781
0.00262653
0.00359677
0.00196946
0.00217302
0.00255026
0.00104026
0.00191232
0.00300949
0.000244376
0.00283288
5.88576e-07
0.00339409
0.00133926
0.00130808
0.00279457
0.01179
0.00600866
0.00546816
0.000939962
0.000175789
0.0027975
0.000969482
0.00182652
0.00130288
0.00657438
0.00365632
0.00192766
5.95967e-05
0.00287314
0.0011477
0.00248716
0.00387181
0.00311439
0.00159215
0.00832299
0.0106726
0.00923972
0.00524228
0.00708454
0.00183478
0.00480144
0.00558596
0.00166999
0.00362277
0.00161037
0.00157858
0.00163286
0.00147825
0.00310744
0.00221671
0.00268749
0.00738466
0.000188399
0.000205475
0.000906314
0.00806624
0.00617918
0.00153804
0.00316973
0.00446395
0.00155165
0.00166699
0.00160944
0.00690374
0.00130218
0.00227071
0.000463372
0.0008457
0.00154911
0.00110299
0.00408664
0.000933503
0.0010594
0.00287351
0.000549777
0.00530989
0.000760967
0.00199658
0.00726157
0.00669145
0.00589789
0.0085055
0.00355312
0.00323955
0.00238555
0.00379611
0.00650413
0.00322602
0.000150171
0.00301862
0.000830221
0.00380245
0.00295491
0.000812204
0.000914782
0.00344002
0.015752
0.00810859
0.00386007
0.000864764
0.00259537
0.0005028
0.00313738
0.00752739
0.00042548
0.00851985
0.0058293
0.00419135
0.00426838
0.00125325
0.0101531
0.00415762
0.00289184
0.00753163
0.00803143
0.00980742
0.0044225
0.0122583
0.00563183
0.00331881
0.00148778
0.00344593
0.0019141
0.00151836
0.000834376
0.00105958
0.00791704
0.00769417
0.00500676
0.00574004
0.0083513
0.000155113
0.00432351
0.0113311
0.0102981
0.00841014
0.0117261
0.00315321
0.00345874
0.00625962
0.0039949
0.000852015
0.00433677
0.0083397
0.00556868
0.00698564
0.00299519
0.00467549
0.0035923
0.00362468
0.00524471
0.000738705
0.00607004
0.00774937
0.00332493
0.00443227
0.00659906
0.00415305
0.00382263
0.00611423
0.0017214
0.00578189
0.00245601
0.00223552
0.00227098
0.00426866
0.00528154
0.000722009
0.00404725
0.0023663
0.000263626
0.00250132
0.00167113
0.0111538
0.00501526
0.0116072
0.00798234
0.00113545
0.000876968
0.00330803
0.00196294
0.00613459
0.00766693
0.00158457
0.00169036
0.0055503
0.00285942
0.000502103
0.00591407
0.00642846
0.00200995
0.0059324
0.00804139
0.006953
0.00634748
0.00516985
0.0121157
0.00339309
0.00513616
0.00365216
0.000281989
0.00146278
0.00736741
0.0042799
0.00270519
0.002529
0.00401415
0.00448146
0.000774326
0.000148059
0.00548582
0.00077881
0.00204519
0.00353623
0.000429314
0.00791524
0.00251133
0.000106576
0.000524988
0.0013846
0.00248556
0.0031268
0.00264686
0.00378774
0.00067315
9.57718e-05
0.000224692
0.000656651
0.00154292
0.005447
0.00398349
0.00922829
0.00465864
0.00210516
0.00458901
0.00414124
0.00124232
0.00138101
0.00352835
0.0121822
0.000437337
0.00731865
0.0110773
0.00148462
0.00201961
0.00545198
0.00230005
0.00225079
0.000566414
0.00388327
0.00067692
0.00155973
0.00206649
0.00403837
0.00419712
0.00180712
0.0139704
0.00976626
0.00531032
0.00586837
0.00844681
0.00202779
0.00158655
0.00791244
0.0121411
0.00688778
0.0105797
0.00937795
0.00580332
0.00640599
0.00143206
0.00186531
0.00108853
0.00154176
0.0112218
0.0126173
0.0108275
0.000294911
0.00920845
0.00127861
0.000973461
2.50569e-05
0.00296232
0.000200429
0.011907
8.87156e-05
0.00165468
0.00636602
0.00181688
0.00177872
0.000685851
0.000481134
0.000518889
0.00647334
0.00104318
0.0117802
0.012513
0.00872585
0.00182775
0.00398336
0.00333145
0.00101413
0.00279684
0.00192835
0.00416063
0.0075808
0.00346582
0.0103882
0.0104711
0.000826753
0.0063078
0.00255029
0.00212776
0.00134662
0.00222523
0.00355808
0.00445844
0.00384546
0.00190521
0.000145732
0.0084537
0.000601731
0.00187055
0.000678143
0.00297616
0.000988016
0.00272776
0.00206608
0.00720035
0.0047225
0.00199322
0.00103752
0.00258538
0.00200772
0.011578
0.000539457
0.00838853
0.00659031
0.00434528
0.00229336
0.00467655
0.00920354
0.000301615
0.00276929
0.0012109
0.00399458
0.013267
0.00066396
0.00471586
0.00508134
0.00586599
0.00341048
0.00258264
0.00127331
0.00112305
0.00687247
0.00365259
0.00926201
0.00261435
0.000184293
0.00273614
0.00189408
0.000833278
0.00138968
0.00403432
0.00372114
0.000762968
0.0050664
0.00225588
0.00249606
0.000770268
0.000792684
0.00379291
0.00528038
0.00218086
0.00944162
0.00645887
0.00263044
0.00353403
0.00215542
0.000130672
0.00135088
5.46817e-05
0.00120316
0.00241784
0.00150455
0.00341806
0.00701718
0.00438344
0.000375414
0.00765068
0.00631698
0.0070689
0.00236957
0.00482919
0.00713499
0.000726601
0.000370189
0.00350946
0.00114293
0.00108941
0.00336325
0.00940391
0.00117759
9.88833e-05
0.000890014
0.00765656
0.0023698
0.0018916
0.000487146
0.00329357
0.00396777
0.00577758
0.000229577
0.00540227
0.00049242
0.0145824
0.0148613
0.000131112
0.0015928
0.00440844
0.00453162
0.00163413
0.00408097
0.00247647
0.00531351
0.00620894
0.00549087
0.00953781
0.00344722
0.00168206
0.0075628
0.00339973
0.00224002
0.0100878
0.015851
0.0168514
6.16941e-05
0.00423332
0.000500241
0.00336135
0.00141442
0.00406357
0.000228546
0.0103347
0.000241362
0.000569488
0.00141281
0.000610342
0.00370853
0.00102298
0.00291953
3.0135e-05
0.00947035
0.000484373
0.0130365
0.00936264
0.00859394
0.00924308
0.00311858
0.000407487
0.00666528
0.00114068
0.00820912
0.00236582
0.00250976
0.00794969
0.00249999
0.000601426
0.00744287
0.00168465
0.00444166
0.000786246
0.005026
0.00928703
0.00828277
0.00930463
0.00783081
0.00194096
0.00660852
0.0053399
0.000551753
5.47163e-05
0.00192194
0.00155467
0.00472095
0.00375957
0.000345943
0.00172525
0.0119036
0.00101997
0.00729405
5.16497e-06
0.00391594
0.010051
0.00847871
0.00493325
0.0100332
0.0099354
0.00485685
0.00180204
0.0032736
0.00356113
0.000462074
0.00437348
4.96513e-05
0.00118163
0.00289288
0.000135431
0.0062427
0.000224481
0.00145745
0.00329512
0.00282244
0.0027052
0.0110222
0.00310276
0.00419238
0.00699283
0.00916822
0.00158311
0.00498919
0.000844374
0.00211343
0.00206676
0.00288715
0.00322736
0.000203004
0.0043689
0.0030408
0.00451454
0.00538417
0.00940677
0.0103714
0.00297221
0.00627843
0.0035896
0.00364778
0.00153284
0.00687317
0.00223996
0.000302482
0.00138258
0.00118842
0.00570722
9.15019e-05
0.0087678
0.00215332
0.00776792
0.00664932
0.00127404
0.00311384
0.00348707
0.000248591
0.00498246
0.00128143
0.00097883
0.000137491
0.00413611
0.00236251
0.000583124
0.00782736
0.00371131
0.00190585
0.0049863
0.00609856
0.00165068
0.0069067
0.00208262
0.0013253
0.00162359
0.000258071
0.000370611
0.00210207
0.00140965
0.00554809
0.0222052
0.0116245
0.0091939
0.0061343
0.00316124
0.00338789
0.000520877
0.00455363
0.00513199
0.00427117
0.00598066
0.00354184
0.00762066
0.00110944
0.00309363
0.00226053
0.00491486
0.00384348
0.00639746
0.0128508
0.0136703
0.0100876
0.00928023
0.00649857
0.00162246
0.00532844
0.00444393
0.00406896
0.00351303
0.000899087
0.00545164
0.00811234
0.0092304
0.00954985
9.30351e-05
0.00171727
0.00580194
0.00105578
0.009852
0.010842
0.00910435
0.00658383
0.00562026
0.000876414
0.00566284
0.000839411
0.00555279
0.00572971
0.00189208
0.00255178
0.00263925
0.00299296
0.00489759
1.27824e-05
0.00497011
0.00149263
0.00196048
0.00577706
0.00729074
0.00663473
0.0102444
0.00709064
0.000889664
0.00515604
0.00211247
0.00639565
0.00397236
0.00179547
0.00716162
0.0041397
0.0020622
0.00461061
0.000391008
0.00560246
0.00660726
0.00513742
0.00108834
0.00666498
0.00427063
0.00138053
0.0149461
0.00260798
0.00119385
0.000611585
0.00277572
0.000699242
0.00380577
0.00116674
0.00423091
0.000612085
0.00808244
0.00319737
0.00386877
0.00410032
0.00202467
0.0042945
0.00283192
0.00184918
0.00787623
0.0116877
0.00184768
0.00478161
0.00721112
0.00483869
0.000124322
0.00171378
0.000185537
0.0027581
0.000406599
0.00447073
0.0010129
0.00423613
0.0040046
0.00094914
0.000294882
0.000506551
0.00770777
0.00253248
0.00060694
0.00172607
0.00475644
0.00365272
0.00153395
0.000295144
0.00731436
0.00431196
0.00332311
0.00335895
0.000242544
0.00107537
4.05673e-05
0.00164411
0.00699638
0.00632689
0.00247609
0.0068942
0.00140119
2.35136e-05
0.00133721
0.00256049
0.00126604
0.00205831
0.00147093
0.00297133
0.00243643
0.00659809
0.00336861
0.0021688
0.00233633
0.00166889
0.00270987
0.00851491
0.00460045
0.000193707
0.007603
0.00137036
0.000737898
0.00156848
0.00464374
0.00371861
0.0174077
0.0073775
0.0120777
0.00177329
0.00280787
5.80428e-05
0.00382874
0.00181396
0.00690034
0.00594902
0.00542562
0.00094788
0.00326716
4.43384e-05
0.00237438
0.00385936
0.000349804
0.0113984
0.0119144
0.0116626
0.0161605
0.00181757
0.00591415
0.00170636
0.00783476
0.00244317
0.0041938
0.00107749
0.0075813
0.000179291
0.000647447
0.00369543
0.000539474
0.0078707
0.000531253
0.00237971
0.000449127
0.00970252
0.00107106
0.00529659
0.0127118
0.00617046
0.00383546
0.00592057
0.000756232
0.00570493
0.00672865
0.00852798
0.00119596
0.00495766
0.00510498
0.00900448
0.00487419
0.00709463
0.00193528
0.00340266
0.00635983
0.00095902
0.00281195
0.00956606
0.00537931
0.0017471
0.00152961
0.00901867
0.000392806
0.00388292
0.00078046
0.00477251
0.00111017
0.006206
0.00414127
0.0019345
0.00479148
0.00441073
0.00127871
0.0111101
0.00824138
0.00635332
0.0035393
0.00145955
0.0164045
0.00702403
0.0064712
0.00710481
0.00480132
0.00175899
0.00695612
0.000850168
0.00550141
0.00138985
0.00484105
0.00117805
0.00671608
0.00530617
0.00304682
0.000198063
0.00688768
0.00280786
0.0104834
0.0050371
0.00271912
0.00944394
0.0102248
7.46898e-05
0.00263711
0.00507009
0.00897349
0.00140537
0.00806315
0.00113674
0.00761422
0.00202691
0.00708099
0.00411585
0.00255119
0.00246267
0.00409899
0.000296887
0.00102702
0.00310622
0.0025425
0.000618266
0.00379903
0.000859348
0.00360202
0.00529057
0.00215944
0.00633648
0.00393933
0.00151614
0.00320827
0.00758607
0.00359546
0.00121503
0.00393075
0.00187512
0.00230785
0.00876389
0.000342937
0.00495388
0.00174915
0.00182484
0.00112866
0.00335262
0.00453624
0.00795499
0.00255708
0.00259125
0.00593829
0.00352441
0.001563
0.00110458
0.00722476
0.000112743
0.00307504
0.000989327
0.00141765
0.001355
0.000387407
0.00323539
0.0179713
0.0064291
0.000944816
0.00763019
0.00102717
0.00924381
0.0058522
0.000344737
0.000853083
0.00290642
0.00248164
0.000303922
0.00367486
0.000303166
0.00326722
0.00692171
0.00727385
0.00586392
0.00271674
0.00773689
0.020403
0.00939598
0.0071733
0.000259171
0.000925975
0.000494079
0.00109235
0.00462575
0.00427463
0.00473079
0.00288159
0.000559419
0.000550332
0.00173319
0.00853988
0.00139206
0.00495645
0.00541208
0.00242375
0.00941013
0.0147728
0.0107729
0.00584703
0.00355611
0.00113878
0.00235345
0.00220215
0.00267652
0.00388245
0.00279986
0.00189929
0.00206957
0.00263964
0.00354184
0.00250277
0.00563478
0.00337952
0.00176243
0.0110837
0.00659786
0.00378159
0.00844615
0.0131562
0.00143159
0.00290839
0.00235108
0.00317871
0.00735166
0.00275234
0.00224957
0.00732735
0.00234361
0.00891913
0.000475652
0.00818221
0.00461801
0.00484104
0.00136852
0.0043611
0.00359923
0.00135783
0.00252381
0.0054355
0.000789004
0.000198604
0.000962536
0.00420535
0.000865499
0.00830084
0.00316798
0.00501087
0.000844144
0.00209397
0.00120835
8.13828e-05
0.00268749
0.0031897
0.00675645
0.00015583
0.0015701
0.00259272
0.00455334
0.00665291
0.00552041
0.00559305
0.00519198
0.00644155
0.000423877
0.0104057
0.0025785
0.00290376
0.00495263
0.00744469
4.89061e-07
8.58624e-05
0.00373328
0.00267401
0.00157461
0.000912269
0.00960548
0.00535275
0.00949556
0.00150921
0.00504054
0.000680487
0.00484163
0.00912283
0.00263052
0.000628317
0.000452287
0.0026366
0.000837568
0.00836484
0.00102535
0.000892033
0.00230374
0.000117145
0.00490197
0.0017003
0.000792726
0.00701623
0.00606987
0.00183961
0.00483187
0.00250931
0.000250886
0.000830091
0.00329031
0.00770852
0.002612
0.00284686
0.00289847
0.00201493
0.00395522
0.00469157
0.00205507
0.00211852
0.0119942
0.00413844
0.000329348
0.0121248
0.0116575
0.0110915
0.000638856
0.00301962
0.000213095
0.00142279
0.00325947
0.00303934
0.00012268
0.00545898
0.000890101
0.00539811
0.0020376
0.00130721
0.00542741
0.0026694
0.00344643
0.00708922
0.0151349
0.0153823
0.00109346
0.00513515
0.00103115
0.0034069
0.00153438
0.00275665
0.000709245
0.00313405
0.000212308
0.00121701
0.000988768
0.000308448
0.00042023
6.02707e-05
0.00409615
0.00012974
0.00532149
0.000959915
0.0100081
0.0093481
0.01075
0.00380869
0.00466443
0.00813519
0.00171746
0.000332471
0.00252254
0.00685172
0.00140469
0.000556107
0.00122365
0.000321148
0.00251012
0.000944921
0.00212704
0.00249526
0.0033085
0.00605178
0.00554293
0.00243709
1.7471e-05
0.00386389
0.00113976
0.00710938
0.00014129
0.00523715
0.00218576
0.0031942
0.00312949
0.001815
0.00517762
0.00141558
0.00276194
0.00452473
0.00413592
0.00149145
0.00273945
0.0086088
0.00614127
0.00332136
0.000516298
0.00506743
0.00547083
0.000550727
0.000826721
0.00212593
0.000868544
0.00968858
0.00245488
0.00105114
0.00829871
0.00297419
0.0010718
0.000225887
0.000396243
0.000933554
0.00140218
0.00135571
0.000108156
0.00231366
0.00264867
0.00363296
0.00476554
0.00256574
0.001598
0.00270915
0.00265576
0.00194984
0.00130892
0.00558795
0.000253726
0.000774765
0.000310108
0.00232557
0.00064286
0.00707085
0.00215617
0.000346145
0.00105447
0.000228509
0.00199821
0.000520906
0.00303531
0.00172999
0.00219973
0.00217787
0.000991113
0.00296546
0.00242243
0.000741827
0.00555321
0.0041097
0.000139344
0.00198322
0.000718984
0.000100837
0.00495313
0.00492113
0.00643626
0.000307778
0.00132878
0.00440211
0.00016627
0.00303048
0.00123669
0.00174046
0.00476917
0.00174291
0.00240583
0.00240089
0.00430378
0.00460832
0.00164957
0.000864333
0.000179828
0.00384819
0.00639744
0.00351568
0.00255714
0.0137096
0.0125789
0.0096003
0.000279511
0.0023222
0.0041169
0.00299334
0.00657747
0.00246988
0.00312312
0.00565251
0.00104467
0.0011526
0.00130583
0.00533982
0.00187062
0.000462112
0.00355164
0.00424112
0.00390863
0.00545168
0.00774075
0.0044874
0.0069128
0.000715263
0.00714745
0.000443125
0.00156703
0.00778982
0.00014638
0.00551224
0.000137661
0.00522691
0.00299313
0.000430537
0.00420468
0.00868355
0.00398994
0.00404321
0.00857961
0.0073927
0.000952445
0.00178314
0.00719725
0.00571225
0.00590954
0.00185863
0.00192733
0.0026554
0.00288843
0.00228739
0.00474155
0.00504911
0.00515942
0.00222392
0.00210479
0.00315628
0.00273408
0.00610836
0.0105891
0.007098
0.00366128
0.00191823
0.00509715
0.000963858
0.000141666
0.00592558
0.00146738
0.00101488
0.00753553
0.000206228
0.00203762
0.00680873
0.000844827
0.00639261
0.000291478
0.00301386
0.000334664
0.00129357
0.00678358
0.0123938
0.000606007
0.00649093
0.00105606
0.00831418
0.00452236
0.00369217
0.00310389
0.00209322
0.00342849
0.00169835
0.000949242
0.00203763
0.00151832
0.000263419
0.00197341
0.00222748
2.94459e-05
0.00347042
0.00284819
0.00572321
0.000943427
0.00155542
0.00617074
0.00480748
0.0042025
0.00526598
0.0052476
0.00627217
0.00102321
0.000296664
0.00610515
0.000876871
0.000834584
0.00180103
0.00357267
0.00480825
0.000298802
0.00355944
0.00381186
0.000472617
0.00226576
0.0025747
0.00471996
0.00161066
0.000620813
0.00581953
0.000311498
0.00175195
0.00132678
0.0126386
0.0026001
0.00256598
0.00026178
0.00022006
0.00252256
0.00127333
0.00607779
0.000490424
0.000299416
0.0057504
0.000503594
0.00503778
0.00360555
0.00556307
0.00698885
0.00102832
0.00322372
0.00178565
0.00125869
0.00318314
0.0024691
0.00118065
0.00122884
0.000410269
0.00244477
0.00705909
0.00652024
0.00523417
0.00232613
0.0110813
0.00328683
0.00292568
0.00194277
0.0067671
0.00213047
0.00305977
0.00384613
0.00416338
0.0039966
0.00625303
0.0101106
0.00484489
0.00596991
0.000365695
0.00658433
0.000762037
0.000290631
0.00082006
0.00578243
0.00212877
0.000250125
0.00100271
0.000189005
0.00496435
9.52673e-05
0.00108334
0.000326251
0.00413825
0.000661034
0.000657289
0.00819441
0.00137863
0.00744691
0.00046635
0.0017209
0.000107513
0.0085999
0.000717399
0.00303744
0.00614704
0.00377293
0.00531469
0.000877954
0.00249457
0.0058621
0.0017079
0.00180482
0.00701298
0.00974219
0.00358544
4.59232e-05
0.00891623
0.00431299
0.00459751
0.00338991
0.00269654
0.000607858
0.00320759
0.00673594
0.00824783
0.00506744
0.000642759
0.00165592
0.00107568
0.003528
0.00425462
0.00101285
0.00710144
0.00460659
0.00186285
0.000524737
0.00398988
0.00684347
0.00414323
0.00624545
0.00253722
0.00276425