/*--------------------------------*- C++ -*----------------------------------*\
| =========                 |                                                 |
| \\      /  F ield         | OpenFOAM: The Open Source CFD Toolbox           |
|  \\    /   O peration     | Version:  2212                                  |
|   \\  /    A nd           | Website:  www.openfoam.com                      |
|    \\/     M anipulation  |                                                 |
\*---------------------------------------------------------------------------*/
FoamFile
{
    version     2.0;
    format      ascii;
    arch        "LSB;label=32;scalar=64";
    class       volScalarField;
    location    "0";
    object      relativeErrorField;
}
// * * * * * * * * * * * * * * * * * * * * * * * * * * * * * * * * * * * * * //

dimensions      [0 0 0 1 0 0 0];

internalField   nonuniform List<scalar> 
3200
(
0.0127425
0.00686837
0.00120138
0.00335537
0.00643365
0.00881509
0.0106483
0.011396
0.0120415
0.0123353
0.0129094
0.0127803
0.0126551
0.012404
0.0118902
0.0109257
0.00936847
0.00636595
0.00190238
0.0035464
0.0110559
0.00597492
0.000924896
0.00302643
0.00584017
0.00794351
0.00898172
0.0102591
0.0108236
0.0110099
0.0112897
0.0113353
0.01137
0.0111485
0.0108194
0.00981221
0.008503
0.00568307
0.00192376
0.00251473
0.00926711
0.00504143
0.00068003
0.00260471
0.00491462
0.00661052
0.00763091
0.00865723
0.00913385
0.00969527
0.0097435
0.0099779
0.00976101
0.00961745
0.00950166
0.00887474
0.00733056
0.00531674
0.00175268
0.00208092
0.00765649
0.00432823
0.000777484
0.00229995
0.00415406
0.00573529
0.00640486
0.00724657
0.0077148
0.00796306
0.00806976
0.00816785
0.00807606
0.00828581
0.00813072
0.00719197
0.00620795
0.0043005
0.00167508
0.0015265
0.00615395
0.00317911
0.000696483
0.00174253
0.00342508
0.00445435
0.00517988
0.00587778
0.00637144
0.00644436
0.00645008
0.00643998
0.00651585
0.00658736
0.00617602
0.00582107
0.00518541
0.00346521
0.0014383
0.000869993
0.00413466
0.00232395
0.000175588
0.00131608
0.00261913
0.00327271
0.00388413
0.00426805
0.00463354
0.00460187
0.00456316
0.00469092
0.00493044
0.00460941
0.00460717
0.00419658
0.00378039
0.00275569
0.00101812
0.000539544
0.00255213
0.00157589
0.000188387
0.000543747
0.00154845
0.00202091
0.00242596
0.00250827
0.00282108
0.002995
0.00289181
0.00308714
0.00284137
0.00283028
0.00280604
0.00264201
0.00241503
0.00156171
0.000743537
0.000319176
0.000697349
0.000288365
0.000198719
0.000351169
0.000338899
0.000568068
0.000793009
0.000971674
0.000765089
0.000868084
0.000901472
0.00134707
0.00115641
0.00107295
0.000984721
0.000915874
0.000868965
0.000415456
0.000351554
3.34e-05
0.0126208
0.00648518
0.000903765
0.00334326
0.00642459
0.00842419
0.00967707
0.0105988
0.0111239
0.0112782
0.0114664
0.0115452
0.01139
0.0115827
0.0114797
0.0108174
0.00896556
0.00623698
0.00175933
0.00349692
0.0106442
0.00579701
0.000955032
0.00292414
0.00565804
0.00740649
0.00861005
0.0092201
0.00998024
0.0101166
0.0103206
0.0103396
0.0105405
0.010173
0.00998767
0.00953587
0.00823484
0.00569957
0.00197082
0.00259359
0.00918605
0.00470934
0.000626613
0.00236421
0.00489275
0.00636624
0.00740726
0.00806425
0.00868186
0.00883945
0.00881208
0.00918664
0.00910252
0.0090595
0.00889166
0.00826208
0.00722105
0.00511686
0.0015286
0.00175476
0.00736663
0.00400159
0.000638115
0.00231973
0.00408063
0.00530825
0.00628865
0.00694295
0.00736707
0.00744942
0.00771809
0.00744923
0.00763766
0.00754254
0.00748364
0.00718347
0.00619786
0.00427024
0.00173556
0.00144045
0.00583677
0.00332005
0.000619245
0.00164302
0.00337088
0.00404065
0.00505242
0.00543
0.00573181
0.0060277
0.00610647
0.00582114
0.00607273
0.00597841
0.00591394
0.00572351
0.00485767
0.00349795
0.0013224
0.00083328
0.00439666
0.00225169
0.000560786
0.00124591
0.00228176
0.00307286
0.00352191
0.00392519
0.00422545
0.00415258
0.00431784
0.00426468
0.0046808
0.00445135
0.00448711
0.00410887
0.00338384
0.00248953
0.0010541
0.000416648
0.00257278
0.00178918
0.000202507
0.000762483
0.00145254
0.00189048
0.00212969
0.00248486
0.00245131
0.00248038
0.00258775
0.00269197
0.00283163
0.002674
0.00286149
0.00253065
0.00246151
0.00139737
0.000707039
0.0002995
0.000972444
0.000781186
0.000152284
0.00035105
0.000468186
0.000607234
0.000697392
0.000996477
0.000906048
0.000885452
0.00116813
0.000765221
0.00090944
0.000964274
0.00122286
0.000596332
0.000752168
0.000702305
0.000431914
8.22911e-05
0.0123513
0.00638969
0.00119849
0.00290106
0.00575761
0.0074776
0.00871652
0.00925425
0.00945825
0.00965562
0.00968279
0.00978013
0.00972876
0.00981264
0.0102897
0.00965108
0.00818517
0.00574165
0.00158297
0.00335182
0.0105492
0.00559131
0.000961016
0.00239975
0.00505759
0.00648091
0.00748859
0.00821725
0.00866083
0.00833024
0.00877475
0.00878107
0.00892374
0.00901884
0.00897904
0.00871389
0.00767621
0.00546962
0.00170353
0.00285296
0.00887713
0.00495986
0.000822869
0.00228417
0.00430329
0.00569663
0.00639758
0.00713531
0.00718644
0.00765903
0.00755892
0.00764752
0.00755248
0.00787856
0.00808094
0.00776642
0.00671822
0.00459041
0.00133931
0.00207602
0.00735384
0.00398055
0.000529919
0.001683
0.00386308
0.00482075
0.00565223
0.00608438
0.00623567
0.00650068
0.00643833
0.00637502
0.00670588
0.00659663
0.00682553
0.0063455
0.00554381
0.00403101
0.00152902
0.00144078
0.00572139
0.00326197
0.000336639
0.00147554
0.00283779
0.00372622
0.00456064
0.00494558
0.00494948
0.00511011
0.00490139
0.00509129
0.00541246
0.00530822
0.00545776
0.00503696
0.00457522
0.00329404
0.00110213
0.00122281
0.00405392
0.00238198
0.000448439
0.00105944
0.00189503
0.00290553
0.00306078
0.00353951
0.00392231
0.00372347
0.00380504
0.00393272
0.00386738
0.00395422
0.00385704
0.00366135
0.00323698
0.00233161
0.000952886
0.000904439
0.00248467
0.00153438
0.00027121
0.00057829
0.00141663
0.00172847
0.00194905
0.00209833
0.00234713
0.00220781
0.00221664
0.00251935
0.0023427
0.00228396
0.00262903
0.00237478
0.00215788
0.0013611
0.000608731
0.000354746
0.000974719
0.00035757
6.42337e-05
0.000289443
0.000445893
0.000565068
0.000855281
0.000667132
0.000743924
0.000798625
0.000679427
0.000788213
0.00080511
0.00100578
0.000653317
0.000832813
0.000795821
0.000537998
0.000290153
0.000189557
0.0123221
0.00669322
0.00164835
0.00220308
0.00481527
0.00663457
0.00714422
0.00750401
0.00760806
0.00759141
0.00725868
0.0073517
0.0077136
0.00807837
0.00848464
0.0083035
0.00710158
0.00499213
0.000746563
0.00376542
0.0106641
0.0059608
0.0013133
0.00216493
0.00435154
0.00572279
0.00627084
0.00678669
0.00689035
0.00689546
0.00664162
0.00695729
0.00691399
0.00735562
0.00735829
0.00764376
0.00666681
0.00432062
0.00095035
0.00283602
0.00891242
0.00514061
0.0012266
0.00168601
0.00355678
0.00495512
0.00563838
0.0059353
0.00601546
0.00569581
0.00588435
0.00585791
0.00622823
0.0066192
0.00678622
0.00659629
0.00571401
0.00412601
0.000998027
0.00246249
0.00742212
0.00420115
0.00104672
0.00159497
0.00293692
0.00424906
0.00466849
0.00475998
0.00501979
0.00485818
0.00483394
0.00490742
0.00525827
0.00551258
0.00581488
0.0056152
0.00510586
0.00355574
0.00114346
0.00173212
0.00591428
0.00339069
0.000886104
0.00110956
0.0024694
0.00325825
0.00382989
0.00382219
0.00392359
0.00379591
0.00404073
0.0041057
0.00420552
0.00455461
0.00455917
0.00455199
0.00416706
0.00272161
0.00112339
0.00110725
0.00450516
0.0023414
0.00049895
0.000613544
0.00165526
0.00234906
0.00263291
0.00288772
0.00276311
0.00311768
0.00284146
0.0027753
0.00310045
0.00321216
0.00340164
0.00351469
0.00293935
0.0020978
0.000640655
0.000755134
0.00275958
0.00154217
0.000376806
0.000525575
0.00119779
0.00144666
0.00180741
0.00165789
0.00183895
0.0019077
0.00197464
0.00199675
0.00196795
0.00204113
0.00209618
0.00202147
0.0018367
0.00151936
0.000711376
0.000341036
0.000579433
0.000574457
0.00028028
0.000309947
0.000330273
0.000454984
0.000613562
0.00033091
0.000579914
0.000769471
0.000529696
0.000676625
0.000714056
0.000598145
0.000895375
0.000686726
0.000532405
0.000290201
7.27327e-05
9.53882e-05
0.0123268
0.00732351
0.00213603
0.00154476
0.00368387
0.00517518
0.00574299
0.00582923
0.00558879
0.00502805
0.00484578
0.00501649
0.00555774
0.00610683
0.00678566
0.0067484
0.00599001
0.00374027
0.000138115
0.00466077
0.0107729
0.00629557
0.00184277
0.00139947
0.003323
0.00471066
0.00496333
0.00522267
0.00475628
0.00452031
0.00434186
0.00450946
0.00484614
0.00555433
0.0059369
0.0061824
0.00541128
0.00343566
0.000282666
0.00351956
0.00933595
0.00552202
0.00165634
0.00123586
0.00303487
0.00396201
0.00415915
0.00456328
0.00436264
0.00387397
0.00381317
0.00401814
0.00435371
0.00477247
0.00536991
0.00542096
0.00478335
0.00320021
0.000525557
0.00272381
0.00772021
0.00426905
0.00128513
0.00100826
0.00235093
0.00359986
0.00353727
0.0036682
0.00350907
0.00350204
0.00356575
0.00322677
0.0037738
0.00417626
0.00466083
0.00476441
0.00420143
0.00278801
0.000531214
0.00206163
0.00606754
0.00371397
0.00123924
0.000694882
0.00194816
0.00254611
0.00307913
0.0029597
0.00276211
0.00278933
0.0027781
0.00273811
0.00310404
0.0035746
0.00367276
0.00369239
0.00332045
0.00225421
0.000623555
0.00166436
0.00454748
0.00273528
0.000953264
0.000631357
0.00140038
0.00187406
0.00236581
0.00209787
0.00195464
0.00202856
0.00203173
0.00192193
0.00238524
0.00261122
0.00283413
0.00297634
0.00253722
0.00196541
0.000469209
0.00112212
0.00258307
0.00154347
0.000420107
0.000188726
0.000784991
0.00121117
0.00116443
0.00134802
0.0013188
0.00137211
0.00111558
0.00112839
0.00128726
0.00181742
0.00163948
0.00174766
0.00146982
0.00119671
0.000322002
0.000566785
0.000946749
0.000312478
8.71315e-05
0.000124824
0.000111668
0.000414325
0.000180128
0.000611999
0.000609845
0.000309246
0.000300861
0.00048824
0.000553579
0.000547378
0.00078076
0.000638458
0.000651204
0.000527195
0.000108474
0.000267756
0.0129359
0.0078752
0.00300335
0.000302189
0.0027077
0.0035429
0.00424513
0.0038874
0.00312231
0.00266467
0.00214803
0.0023998
0.00289387
0.00392977
0.00470129
0.00509185
0.0044928
0.00227413
0.00122542
0.00533918
0.0110231
0.00700758
0.00267627
0.000335305
0.00198526
0.00342637
0.00358631
0.00343483
0.00293412
0.00240451
0.00209309
0.00221494
0.00283368
0.00348788
0.00432923
0.00451402
0.00408974
0.00225884
0.000561715
0.00415596
0.0094989
0.00592083
0.00251143
0.000281374
0.00199753
0.00277103
0.0032008
0.00290638
0.00283514
0.00223105
0.002039
0.00205746
0.00291059
0.00345746
0.00381765
0.00419664
0.00381245
0.00202256
0.00054013
0.00301848
0.00786701
0.00480899
0.00198943
0.000380432
0.00146511
0.00243186
0.00261194
0.00227711
0.00217667
0.00202195
0.00144776
0.00186015
0.00203891
0.00294058
0.00317121
0.00337498
0.00316073
0.00210628
0.000456884
0.00259845
0.00612892
0.00378938
0.0015966
0.000187168
0.00114008
0.00182991
0.00202614
0.00209461
0.00192129
0.00157438
0.00156816
0.00149821
0.00176906
0.00206681
0.00273242
0.00265621
0.00266497
0.00151773
8.79646e-05
0.00208259
0.00439844
0.00280526
0.00095319
7.77992e-05
0.000850364
0.0015356
0.0017325
0.00185283
0.00117113
0.00107556
0.000956304
0.00096148
0.0013581
0.0019354
0.00189813
0.0020686
0.00193008
0.00123779
0.000118825
0.00122692
0.00286051
0.00198531
0.000745237
0.00013442
0.000481458
0.000911136
0.000809902
0.000974843
0.000916038
0.000677966
0.000449031
0.000662465
0.00080706
0.000886101
0.00138006
0.00154673
0.00133325
0.000705835
0.000116308
0.000593408
0.000809294
0.0004599
0.000172272
0.000148101
0.00020085
0.000150971
0.00050576
0.000379689
0.000363648
1.66919e-05
0.000531874
0.000207932
0.000283943
0.000303737
0.000400785
0.000597009
0.000620033
0.000269582
0.00013816
0.000137471
0.0133555
0.00824931
0.00380377
0.000527628
0.00146118
0.00212229
0.00250089
0.00185885
0.00104856
0.000188485
0.000161424
0.00012307
0.000810511
0.00190091
0.00292256
0.00338757
0.00263695
0.000765248
0.00230652
0.00647753
0.0114602
0.00726201
0.00331792
0.000516688
0.00129573
0.00211371
0.00200778
0.00170593
0.00112834
0.000323049
0.000261242
0.000236719
0.000871529
0.00178736
0.00265047
0.00317744
0.00278672
0.00102955
0.00172042
0.00508447
0.00981148
0.00638417
0.00305691
0.00050092
0.0010942
0.00172353
0.00178669
0.00157785
0.00109808
0.00042205
8.31832e-05
0.000179197
0.000894952
0.00175967
0.00241696
0.00274073
0.00253973
0.00123288
0.00151719
0.00398593
0.00789668
0.00542332
0.00235099
0.000382974
0.000854409
0.00154041
0.0016194
0.0010348
0.00093506
0.000360367
5.62431e-05
0.000516068
0.000749733
0.00161378
0.00224328
0.00237474
0.00211347
0.00105728
0.000944226
0.00305623
0.00641514
0.00415697
0.001968
0.00046856
0.00090836
0.00107222
0.00125216
0.00118015
0.000662646
0.000351175
3.56681e-05
0.000173455
0.000656925
0.0012408
0.00180766
0.00206361
0.00170087
0.000843963
0.000776383
0.00234017
0.00478294
0.00319784
0.00154963
0.000394167
0.000429845
0.000778607
0.00109283
0.00100036
0.00055776
0.000158644
0.000228685
0.000141509
0.000641208
0.000914021
0.00134937
0.00167774
0.00128507
0.000611369
0.000510289
0.00155979
0.00270502
0.00176144
0.000724782
0.000194784
0.000326649
0.000617529
0.000470545
0.00059666
0.000359689
7.27231e-05
0.000118378
0.000103788
0.000444529
0.000656755
0.000848636
0.000907404
0.000927175
0.000745041
0.000109301
0.000897144
0.000903237
0.000777074
0.000358945
7.24651e-05
9.09079e-05
6.49603e-06
0.000298346
0.000101027
0.000382159
9.72691e-05
1.02631e-05
0.000127547
0.000395718
0.00033576
0.000139029
9.76405e-07
0.000226924
0.000430685
7.38615e-05
0.000482484
0.0136068
0.00892094
0.00475362
0.00156824
0.000422613
0.00130319
0.00123038
0.000364722
0.000888135
0.00188131
0.00251233
0.00216938
0.00116731
0.000129338
0.00113014
0.00174521
0.00137622
0.000349916
0.00346822
0.00725795
0.0116996
0.00815099
0.00415903
0.00126929
0.00036897
0.00105017
0.000824088
0.000457665
0.000646426
0.00162657
0.00187586
0.00169356
0.000988659
0.000126619
0.0011611
0.00204895
0.00146658
8.25848e-05
0.00272264
0.00572917
0.010066
0.00683443
0.00351292
0.00128131
0.000207896
0.000789629
0.000753254
0.000385812
0.000420023
0.00122314
0.00149504
0.00119715
0.000635999
0.000181279
0.00128391
0.00160914
0.00137628
0.000249195
0.00206496
0.00459805
0.00819286
0.0056379
0.00301101
0.0011012
0.000183524
0.000641467
0.000827408
0.00043503
0.00026747
0.000860694
0.00123229
0.00114496
0.00052716
0.00035865
0.000929498
0.00155716
0.00134583
0.00038871
0.00164005
0.00363404
0.00650785
0.00465885
0.00249492
0.000801646
0.000287542
0.000670991
0.000691934
0.000302528
0.000194048
0.000840746
0.000918106
0.000692217
0.000266916
0.000410393
0.00103154
0.00138646
0.00138328
0.000186648
0.00128595
0.00293898
0.00467839
0.00323149
0.00186773
0.000349103
0.000310641
0.000382172
0.000484217
0.000182856
0.000105322
0.000664258
0.000721566
0.000697221
0.000164645
0.000309048
0.000839594
0.00112944
0.00106761
0.000202737
0.000631306
0.00210621
0.00317982
0.00183739
0.00112874
0.000515625
0.000121385
0.000135687
0.000512892
0.000385676
4.17383e-06
0.000229318
0.000462605
0.000404481
0.000374743
0.000181417
0.000408373
0.000748881
0.000361576
0.000160157
0.000580502
0.00121527
0.000693191
0.000956542
0.000494304
0.000146953
0.000184824
0.000160456
0.000215248
0.000115062
4.13743e-05
6.79932e-05
7.91564e-05
5.52117e-05
0.000135352
0.00015528
2.12391e-05
9.05831e-05
0.00012187
0.000226133
7.54851e-05
0.000432475
0.0137137
0.00914905
0.00515158
0.00213854
0.000444744
3.4944e-05
0.000266799
0.000966832
0.0024054
0.00338938
0.00392052
0.00385479
0.00301883
0.00133806
0.000456668
0.000509167
0.000223024
0.00120158
0.00425596
0.00751801
0.0119973
0.00787509
0.00459676
0.00191299
0.000281097
0.000104108
1.23786e-05
0.000700639
0.00198584
0.00271148
0.00335064
0.00325463
0.00231625
0.00124994
0.000224148
0.000614016
0.000381311
0.000910508
0.00341804
0.00636154
0.0102326
0.00723014
0.00372424
0.00174663
0.000600968
0.000173187
3.38487e-05
0.000483533
0.0014337
0.00241737
0.00261367
0.00256677
0.00186965
0.000860337
0.000188241
0.00086819
0.000684501
0.000598736
0.00266452
0.00512831
0.00854826
0.00576523
0.00347219
0.00124362
0.000345549
0.000112894
0.000107486
0.000473808
0.00123286
0.00193013
0.00219948
0.00227946
0.00159517
0.00061526
0.000223609
0.000787103
0.000569848
0.000397779
0.00211238
0.00427443
0.00643164
0.00445346
0.00267768
0.00111539
2.0692e-05
9.43321e-05
0.00013237
0.000419795
0.000798447
0.00136631
0.00186258
0.00151904
0.00119999
0.00048035
9.73757e-05
0.000439508
0.00042155
0.000191165
0.00165594
0.00317475
0.00480033
0.00332468
0.00196531
0.000926635
0.00011657
0.000145343
6.98087e-05
0.000156078
0.000791618
0.000909683
0.00138061
0.000937096
0.000691311
0.00025087
7.52379e-05
0.000245669
0.000488676
7.25229e-05
0.00121186
0.0022523
0.00298537
0.00219088
0.0011509
0.000672932
0.000101959
0.000127411
3.39448e-05
0.000150839
0.000513918
0.000580487
0.000565459
0.000875303
0.000517724
0.000136188
0.000171111
0.000197054
0.000345013
8.31548e-05
0.000630926
0.00159778
0.00103495
0.000705917
0.000347689
0.000320569
7.34783e-07
0.000142996
3.17081e-05
0.000132494
9.52854e-05
0.000292104
0.000332825
0.000344247
0.000276659
0.000204098
0.000104764
0.000136053
0.000160381
0.000115725
0.000430213
0.000531105
0.0135254
0.00945745
0.00555213
0.00234189
0.00100861
0.000685663
0.000683921
0.00183303
0.00331912
0.00433719
0.00486572
0.00490498
0.00402205
0.00249019
0.00122197
0.000396226
0.000715871
0.00207648
0.00478242
0.00802997
0.0119171
0.00829685
0.00471454
0.00240497
0.00088539
0.000491423
0.000635243
0.00158089
0.00262417
0.00370754
0.00434589
0.00429
0.00306964
0.00202543
0.000735766
4.08388e-05
0.000256421
0.00131416
0.00393864
0.00665419
0.0100762
0.00693392
0.00408112
0.00205575
0.000769021
0.000315225
0.000666387
0.00120062
0.00218755
0.00309766
0.00354764
0.00328426
0.00278131
0.0015873
0.00058763
6.976e-05
7.47616e-05
0.00127661
0.00307985
0.00530884
0.00843256
0.00597395
0.00372531
0.00161787
0.00064239
0.000235429
0.000573731
0.000958994
0.00177115
0.00239518
0.00302528
0.00261052
0.00212038
0.00118099
0.000277191
0.000288718
0.000125393
0.000803466
0.00236284
0.00404686
0.00649731
0.004729
0.00271947
0.00144572
0.000448356
0.000175332
0.000473341
0.000841247
0.00147943
0.00191893
0.00249718
0.00221746
0.00166075
0.0010646
0.00022803
0.00020766
6.02116e-05
0.000589998
0.00180992
0.00334874
0.00483565
0.0036053
0.00213113
0.000982352
0.000267973
9.1103e-05
0.000237514
0.000476589
0.00119991
0.0014614
0.00165058
0.00158071
0.00124386
0.000893072
0.000267304
0.000106399
0.00025275
0.000379711
0.00114628
0.00218065
0.00283697
0.00182111
0.00130004
0.000728067
0.000248136
0.000255888
0.000152814
0.000424937
0.000614192
0.000902111
0.000851175
0.00083378
0.000579827
0.000365878
7.54956e-05
0.000310053
0.000198342
0.000154942
0.000664028
0.00145601
0.000855632
0.00069255
0.000293044
0.000142326
4.18033e-05
0.000244296
4.05368e-05
0.000195576
0.000242441
0.000318
0.000431202
0.000123114
0.000100408
9.02667e-05
0.000136851
3.751e-06
0.000277229
0.000117891
0.000181228
0.000608011
0.0130183
0.0089645
0.0053427
0.00288346
0.00112848
0.000833095
0.00127852
0.00223689
0.0035284
0.00485011
0.00541859
0.00513366
0.00424934
0.00271605
0.00167543
0.000813199
0.00109738
0.00255937
0.00496349
0.00809094
0.0114424
0.00808351
0.00495556
0.00276262
0.00106804
0.000700437
0.00102428
0.00180039
0.00281865
0.00409999
0.00472958
0.00417107
0.00363647
0.00242579
0.0011011
0.000360808
0.000689055
0.00172407
0.00383686
0.00657469
0.0096861
0.00691185
0.00416834
0.00208153
0.000999867
0.000587246
0.00101968
0.00162064
0.00251713
0.00342293
0.00374473
0.00368924
0.00301338
0.00182396
0.00102945
0.000325635
0.000328894
0.00142861
0.00323599
0.00536455
0.00810077
0.0057969
0.00336825
0.00165312
0.000941117
0.000625213
0.000728946
0.00106641
0.00211125
0.0028005
0.00333751
0.0030209
0.00226297
0.00126866
0.000618425
8.6908e-05
2.47273e-05
0.000851543
0.00252359
0.00409505
0.00640177
0.00455511
0.00253479
0.00142679
0.000777211
0.000260876
0.000332305
0.000926012
0.00163142
0.00224856
0.00208159
0.00230626
0.00190557
0.00116757
0.000520619
2.19405e-07
8.37094e-05
0.000772457
0.00175683
0.00309229
0.0044555
0.0032429
0.00205277
0.00111661
0.000465079
0.000321709
0.000500891
0.000839689
0.00133534
0.00163346
0.00177635
0.00166673
0.00126985
0.000939935
0.000163001
1.14972e-05
4.39528e-05
0.000500787
0.00114695
0.00234658
0.00278904
0.00225687
0.00117028
0.000791131
0.00041072
0.000340845
6.38148e-05
0.000554094
0.000722314
0.000737428
0.00116979
0.00104921
0.000879257
0.000464657
6.28636e-05
7.78518e-05
0.000162208
9.8171e-05
0.00102811
0.00146554
0.00109634
0.000946315
0.000340125
0.000355994
7.04147e-05
0.000147745
9.22314e-05
8.25722e-06
0.000277396
0.00023276
0.000120927
0.000549208
0.000259606
5.02487e-05
0.000347761
3.19561e-05
7.30067e-05
0.000274312
0.000381896
0.000488691
0.0124554
0.00870257
0.00500731
0.00244495
0.00103093
0.000567421
0.000929711
0.00200274
0.00311355
0.00437484
0.00488063
0.0049938
0.00409004
0.00276678
0.00130811
0.000637483
0.000725224
0.00211982
0.00458891
0.00771055
0.0109899
0.00762299
0.00458
0.00211015
0.000871046
0.00039465
0.000644104
0.00174705
0.00275864
0.00369532
0.00421698
0.00420184
0.00328059
0.0023254
0.0010601
0.000413908
0.000636266
0.00164861
0.00358241
0.00619903
0.00938479
0.00664003
0.00398116
0.00199505
0.000914017
0.000292013
0.000767458
0.00148161
0.00205044
0.00293666
0.00360648
0.00324769
0.00272534
0.00180371
0.000836935
0.000127224
0.000111483
0.00114089
0.0027665
0.00511267
0.00758923
0.00539287
0.00317933
0.00162464
0.000651665
0.000285789
0.000620072
0.00127674
0.00206315
0.0025639
0.00304566
0.00280475
0.00221478
0.00107125
0.000603705
7.60177e-05
9.41068e-05
0.000992062
0.00221073
0.0038815
0.00612973
0.00432385
0.00244921
0.00133566
0.000588444
0.000349328
0.00048736
0.000924137
0.00145647
0.00189433
0.00223864
0.00208173
0.0017657
0.000936361
0.000442209
5.63048e-05
8.10114e-05
0.000564912
0.00166833
0.0032823
0.0046927
0.00317077
0.00193936
0.000895691
0.000503135
0.000377773
0.000149433
0.00041858
0.00100323
0.00151651
0.00167122
0.00149497
0.00117099
0.00078907
4.14378e-05
6.46618e-05
1.17425e-05
0.000421578
0.00140568
0.00226311
0.00258834
0.00181321
0.00101199
0.000502911
0.000279391
0.000141789
2.09034e-05
0.000135129
0.00053835
0.000715497
0.00101527
0.00100841
0.000711362
0.00017195
1.59847e-06
1.5567e-05
0.00018547
0.000216532
0.000750516
0.0012236
0.000760857
0.000459293
0.00022642
0.000217622
0.000329454
5.64815e-05
6.66685e-05
8.37635e-05
0.000253308
0.000250889
0.000328693
0.000154944
0.000383645
0.000183954
0.000212432
7.07006e-05
0.000126653
0.000115196
0.000264858
0.000271252
0.0112845
0.0075773
0.00416761
0.00192611
0.000478917
2.38287e-05
0.000324781
0.00118875
0.00214836
0.00341662
0.00411331
0.00367661
0.00289124
0.00177235
0.00069661
0.000146688
0.00030182
0.00157808
0.00371377
0.0066234
0.00984779
0.00673797
0.00352555
0.00152974
0.000220419
0.000121516
0.000253027
0.00117225
0.00214688
0.00290743
0.0033995
0.00317177
0.00238799
0.00149011
0.000356804
8.75007e-05
0.000127552
0.000992506
0.00321121
0.00556839
0.00861123
0.00598655
0.00317802
0.00137005
0.000243387
1.55077e-05
0.000198398
0.00102622
0.0017311
0.00229963
0.0027829
0.00263225
0.00210355
0.00109807
0.000168003
0.000600374
0.00022363
0.000656918
0.00246361
0.00452989
0.00699207
0.0047885
0.00278683
0.00129513
0.000289459
7.38326e-05
0.000177582
0.000564868
0.00133595
0.00208612
0.00247062
0.00221143
0.0014509
0.000841169
7.17505e-05
0.000195995
0.000409128
0.000647248
0.00178978
0.00353611
0.00565465
0.00365312
0.00209758
0.00071504
0.000231508
8.31667e-05
9.45791e-05
0.000585992
0.000966511
0.00157641
0.00174865
0.00177047
0.00105777
0.000489679
2.87801e-05
0.000299395
0.000340847
0.000260946
0.00126718
0.00262453
0.00378746
0.00306563
0.00154564
0.000754865
0.000334451
0.000147203
1.80107e-06
0.000328953
0.000822761
0.000886137
0.00114862
0.00122894
0.000746595
0.000197205
8.36119e-06
0.000228989
6.572e-05
4.9406e-05
0.0011654
0.00183933
0.0026809
0.00156986
0.00102516
0.000549235
3.41629e-05
0.00021218
7.91243e-05
0.000276276
0.000404436
0.000565184
0.000675568
0.000592673
0.000345431
0.000176447
4.04356e-05
0.000461036
4.51184e-05
0.000164793
0.000517481
0.00113843
0.000884242
0.000630211
0.000310225
0.000134716
2.14165e-05
0.000117217
0.000200889
2.36467e-05
0.000116901
0.000197007
0.000515789
1.86934e-05
6.77047e-05
4.36649e-05
0.000169474
1.67503e-05
0.000166433
2.21802e-05
0.000234721
0.000506894
0.00973705
0.00616943
0.00304449
0.000353068
0.000664867
0.00105146
0.000976224
2.59688e-05
0.000919248
0.00165503
0.00254294
0.00222147
0.00144942
0.000668545
0.000433689
0.000835768
0.000699683
0.000513012
0.00292771
0.00561279
0.0085312
0.00565136
0.00260468
0.000447628
0.000505374
0.000923126
0.000857209
0.000106913
0.000811143
0.00177976
0.00200815
0.00176342
0.00105588
0.000228813
0.000563325
0.00126049
0.00111108
0.000258739
0.00200893
0.00438662
0.00729263
0.00462013
0.00222791
0.00055424
0.000609721
0.000741052
0.000644368
1.78699e-05
0.000697204
0.00113131
0.00166441
0.00158846
0.000798761
0.000104745
0.000828671
0.00119674
0.000969748
0.000200413
0.00166669
0.00352073
0.00622426
0.00396678
0.00187671
0.000345278
0.000434628
0.000827763
0.000793108
4.4946e-05
0.000528897
0.00107718
0.00114973
0.00104983
0.000441011
9.41765e-05
0.000511323
0.000982492
0.000879674
0.000147071
0.00105914
0.00261519
0.00470281
0.00300317
0.00139458
0.00014202
0.000448454
0.000690731
0.000485024
7.46644e-05
0.00048212
0.000831291
0.000933516
0.000827091
0.000546459
0.000292233
0.000452366
0.000893011
0.000924724
0.00017545
0.000574758
0.00201377
0.00350972
0.00245759
0.00091934
8.48268e-05
0.00023965
0.000365486
0.000375925
0.000372021
0.000189124
0.000536229
0.000841805
0.000597063
0.000293781
0.000228513
0.000426207
0.000949618
0.000627897
0.000214056
0.000507831
0.0013988
0.00206837
0.00137183
0.000518909
0.000265993
7.21641e-06
0.00039502
0.000209899
0.000199341
6.8803e-05
0.00012305
0.000274585
0.000282196
0.000466528
0.000128091
0.000128993
0.000620526
0.000387445
0.000412635
0.000242271
0.000757229
0.000936406
0.000464871
0.000481996
7.01382e-05
4.50025e-05
5.78835e-05
1.65481e-05
6.11249e-05
1.79526e-06
0.000194516
9.03516e-05
0.000218465
8.4615e-05
3.11503e-05
0.000514545
0.000583674
0.000379165
1.9853e-05
0.000267627
0.00037841
0.00797993
0.00438924
0.0013986
0.000873067
0.00231833
0.00259718
0.00250733
0.00174918
0.000818744
0.000114678
0.00014397
8.10121e-05
0.000308866
0.00152169
0.002135
0.00257934
0.00224338
0.000988459
0.00107658
0.00374415
0.00679416
0.00394069
0.00133052
0.000944206
0.00204034
0.00235444
0.00235859
0.00172082
0.000893666
0.000373854
1.13328e-05
0.000128878
0.000640612
0.00120627
0.00216711
0.00239052
0.00228997
0.00134611
0.000650281
0.00293
0.00588378
0.00350193
0.00117968
0.000624074
0.00166196
0.00213785
0.00191899
0.00148144
0.000720382
0.000182985
6.87071e-05
0.000155159
0.000561951
0.00129476
0.00217577
0.00230864
0.00222131
0.00128024
0.000454536
0.00214214
0.00485346
0.00303109
0.000793934
0.000364121
0.00151381
0.00170883
0.00157845
0.00110563
0.000685011
0.000174465
0.000257911
0.000130514
0.000643345
0.00116225
0.00177155
0.00195674
0.00191661
0.00134741
8.55373e-05
0.00169121
0.00377016
0.00246206
0.000539652
0.000530526
0.000954076
0.00138842
0.0014537
0.000943219
0.00069452
0.000249673
0.000224329
0.000169703
0.000470258
0.000876483
0.00129651
0.00162047
0.0015917
0.00122241
0.000209424
0.00107945
0.0026699
0.00162434
0.000704109
0.000343265
0.000965586
0.00114217
0.000832557
0.000628688
0.000348885
2.17043e-05
5.37917e-05
0.00010292
0.000468645
0.00078595
0.00112309
0.000993919
0.00109052
0.000748558
0.000224443
0.0010732
0.00186775
0.00108252
0.000167734
0.000218402
0.00039671
0.000844791
0.000619945
0.000399006
0.000154942
9.71232e-05
0.000149849
0.000205829
0.000349729
0.000352247
0.000697677
0.00080735
0.000836825
0.00060617
0.000220131
0.000437758
0.000677927
0.000177597
0.000211564
7.83089e-05
5.89659e-05
0.000170679
0.000185989
0.000232344
4.97309e-05
1.64729e-05
5.42893e-05
0.000181963
3.385e-05
0.000163811
0.000280607
0.000130727
0.000283242
9.5257e-05
0.000159576
0.000239433
0.00580047
0.00266624
0.000549031
0.00299699
0.0042031
0.0044818
0.00450292
0.00389662
0.00327762
0.00268513
0.00239956
0.00218149
0.00293668
0.0034297
0.00442468
0.00444976
0.0042545
0.00297059
0.000826815
0.00167188
0.0049987
0.00249272
0.000651384
0.00236617
0.00359128
0.00422236
0.00400639
0.00380902
0.00295846
0.00240316
0.00240026
0.00222269
0.00274064
0.00344089
0.00393239
0.00439338
0.00391975
0.00292209
0.000913268
0.00127949
0.00429218
0.00182783
0.000227509
0.0024429
0.00309596
0.00352325
0.00348735
0.002965
0.00288772
0.00216588
0.00200616
0.00199467
0.00237576
0.00308553
0.00374323
0.00398271
0.00364933
0.0027849
0.00114557
0.000767581
0.00373029
0.00147045
0.000349484
0.00212702
0.00260769
0.00298129
0.00288929
0.0025874
0.00237101
0.00192829
0.00161562
0.00186114
0.0020892
0.00268359
0.00290899
0.00346421
0.00311511
0.00228409
0.00111627
0.000354366
0.00284065
0.00144999
0.0003332
0.00139778
0.00215591
0.00228851
0.00235475
0.00211068
0.00172751
0.00142689
0.00148123
0.00161151
0.00192821
0.00215006
0.00270373
0.00282141
0.0025842
0.0020612
0.00100617
0.000239926
0.00224671
0.000941646
9.68801e-05
0.00109211
0.00150179
0.00188757
0.00173617
0.00151473
0.00157056
0.00122583
0.000966276
0.00119405
0.00162274
0.00150036
0.00200106
0.00219824
0.00196923
0.00120327
0.000813972
0.000177685
0.0013768
0.000768713
0.00011351
0.000695616
0.00106429
0.00104192
0.00104311
0.00086276
0.000910031
0.000736648
0.000627383
0.000768115
0.000938373
0.00111254
0.00100743
0.00100649
0.00117781
0.000633135
0.000187374
5.41826e-05
0.000425405
0.000320878
3.29862e-05
0.000405419
0.000127343
0.000401839
0.000176498
0.000430752
9.77356e-05
0.000303597
0.000100846
0.00028909
0.000190029
0.000346224
0.000573623
0.000482579
0.000319449
0.00029671
0.0001211
8.20507e-05
0.00329896
1.7587e-05
0.00314638
0.00515923
0.00639394
0.00698706
0.00703201
0.00643377
0.00591557
0.00554109
0.00511297
0.00518057
0.0058425
0.00640359
0.00675878
0.00685072
0.00643999
0.0053031
0.00325983
0.000355847
0.00312993
0.000189871