/*--------------------------------*- C++ -*----------------------------------*\
| =========                 |                                                 |
| \\      /  F ield         | OpenFOAM: The Open Source CFD Toolbox           |
|  \\    /   O peration     | Version:  2212                                  |
|   \\  /    A nd           | Website:  www.openfoam.com                      |
|    \\/     M anipulation  |                                                 |
\*---------------------------------------------------------------------------*/
FoamFile
{
    version     2.0;
    format      ascii;
    arch        "LSB;label=32;scalar=64";
    class       volScalarField;
    location    "0";
    object      stateMean;
}
// * * * * * * * * * * * * * * * * * * * * * * * * * * * * * * * * * * * * * //

dimensions      [0 0 0 1 0 0 0];

internalField   nonuniform List<scalar> 
3200
(
348.65
347.507
346.666
346.299
346.472
346.858
347.339
348.021
348.483
348.743
348.541
348.222
347.578
346.722
345.782
344.906
344.21
344.046
344.479
345.484
342.124
341.148
340.398
340.102
340.218
340.552
341.167
341.545
341.945
342.196
342.099
341.769
341.161
340.421
339.565
338.859
338.233
338.15
338.47
339.234
335.576
334.787
334.145
333.934
334.071
334.393
334.87
335.216
335.558
335.633
335.617
335.272
334.842
334.2
333.42
332.742
332.352
332.143
332.524
333.187
329.102
328.51
328.009
327.725
327.86
328.069
328.519
328.806
329.063
329.197
329.161
328.912
328.531
327.897
327.278
326.86
326.441
326.344
326.546
327.1
322.675
322.101
321.816
321.594
321.632
321.866
322.154
322.368
322.527
322.672
322.67
322.505
322.161
321.698
321.309
320.858
320.484
320.478
320.618
320.98
316.098
315.796
315.484
315.416
315.419
315.618
315.798
315.99
316.103
316.233
316.245
316.084
315.779
315.568
315.195
314.92
314.638
314.56
314.743
314.966
309.677
309.536
309.326
309.342
309.279
309.377
309.475
309.638
309.679
309.698
309.73
309.596
309.535
309.35
309.133
308.941
308.763
308.785
308.819
308.988
303.191
303.12
303.167
303.082
303.168
303.181
303.187
303.197
303.306
303.298
303.288
303.129
303.141
303.102
303.054
302.993
302.925
302.981
302.926
302.99
348.728
347.487
346.666
346.394
346.553
347.06
347.731
348.341
348.837
349.142
349.076
348.688
348.063
347.062
345.991
345.021
344.44
344.193
344.641
345.586
342.089
341.185
340.497
340.215
340.348
340.792
341.34
341.938
342.264
342.527
342.457
342.139
341.482
340.801
339.906
339.021
338.403
338.233
338.55
339.364
335.638
334.76
334.202
334.081
334.136
334.523
334.984
335.446
335.734
335.943
335.952
335.563
335.095
334.427
333.672
333.005
332.455
332.284
332.682
333.167
329.078
328.47
328.025
327.773
327.931
328.248
328.589
328.931
329.197
329.384
329.295
329.17
328.701
328.174
327.53
326.91
326.499
326.416
326.593
327.143
322.628
322.198
321.838
321.669
321.685
322.031
322.22
322.532
322.749
322.82
322.795
322.72
322.324
321.92
321.425
320.926
320.633
320.514
320.707
321.023
316.22
315.812
315.641
315.468
315.551
315.703
315.929
316.112
316.243
316.385
316.332
316.231
315.873
315.635
315.255
314.973
314.793
314.679
314.77
314.967
309.708
309.624
309.351
309.292
309.325
309.43
309.578
309.655
309.801
309.863
309.829
309.726
309.547
309.409
309.129
308.991
308.766
308.856
308.852
309.006
303.283
303.278
303.16
303.088
303.134
303.173
303.22
303.193
303.265
303.295
303.209
303.308
303.219
303.139
302.986
303.095
302.966
302.901
302.91
302.963
348.879
347.681
346.975
346.732
346.945
347.524
348.175
348.899
349.492
349.772
349.762
349.378
348.732
347.79
346.539
345.586
344.895
344.57
344.927
345.777
342.267
341.313
340.679
340.554
340.692
341.225
341.818
342.357
342.778
343.195
343.041
342.737
342.114
341.291
340.367
339.44
338.753
338.49
338.837
339.66
335.711
335.009
334.42
334.243
334.451
334.846
335.403
335.823
336.29
336.386
336.42
336.134
335.681
334.903
334.043
333.287
332.757
332.611
332.91
333.448
329.218
328.599
328.114
328.092
328.099
328.49
328.864
329.266
329.613
329.733
329.754
329.567
329.06
328.551
327.828
327.281
326.823
326.618
326.796
327.286
322.703
322.285
321.844
321.808
321.932
322.194
322.43
322.729
323.036
323.146
323.214
322.99
322.578
322.188
321.634
321.222
320.809
320.676
320.883
321.259
316.192
315.928
315.673
315.589
315.728
315.801
316.111
316.264
316.362
316.541
316.515
316.359
316.16
315.828
315.499
315.169
314.901
314.796
314.877
315.2
309.728
309.59
309.414
309.386
309.368
309.507
309.655
309.792
309.847
309.96
309.957
309.794
309.716
309.551
309.228
309.071
308.897
308.909
308.928
309.07
303.299
303.164
303.146
303.118
303.152
303.195
303.179
303.298
303.319
303.326
303.362
303.306
303.256
303.134
303.168
303.034
302.965
302.964
302.968
303.061
349.235
348.131
347.447
347.256
347.52
348.027
348.897
349.652
350.256
350.6
350.718
350.346
349.579
348.569
347.378
346.301
345.551
345.143
345.558
346.283
342.621
341.736
341.071
340.878
341.146
341.665
342.385
342.97
343.489
343.778
343.866
343.466
342.927
342.012
341.103
340.018
339.34
339.152
339.388
339.967
335.989
335.321
334.785
334.65
334.881
335.248
335.785
336.33
336.77
337.125
337.061
336.823
336.231
335.454
334.631
333.859
333.3
332.995
333.273
333.841
329.457
328.877
328.471
328.29
328.551
328.803
329.291
329.789
330.085
330.339
330.347
330.122
329.624
329.012
328.286
327.669
327.135
326.961
327.127
327.596
322.933
322.485
322.167
322.057
322.165
322.443
322.746
323.158
323.423
323.621
323.541
323.364
323.034
322.511
322.022
321.493
321.071
321.006
321.034
321.389
316.453
316.028
315.794
315.824
315.885
316.046
316.305
316.517
316.768
316.768
316.856
316.764
316.45
316.121
315.712
315.297
315.089
314.975
315.088
315.272
309.885
309.661
309.509
309.458
309.485
309.636
309.734
309.956
310.028
310.073
310.053
309.979
309.86
309.662
309.435
309.23
309.052
308.922
308.964
309.137
303.204
303.253
303.233
303.131
303.204
303.242
303.265
303.41
303.377
303.341
303.414
303.348
303.293
303.269
303.108
303.096
303.064
303.06
303.057
303.057
349.729
348.813
348.043
347.87
348.252
348.828
349.633
350.445
351.14
351.66
351.724
351.342
350.541
349.506
348.264
347.181
346.321
346.002
346.325
347.08
343.084
342.251
341.621
341.472
341.791
342.265
343.048
343.687
344.375
344.736
344.797
344.461
343.817
342.844
341.843
340.811
340.101
339.821
340.014
340.622
336.488
335.787
335.241
335.082
335.304
335.795
336.464
336.943
337.456
337.857
337.878
337.573
337.014
336.257
335.321
334.502
333.892
333.616
333.767
334.284
329.847
329.175
328.805
328.713
328.947
329.192
329.813
330.273
330.69
330.884
330.863
330.784
330.238
329.602
328.841
328.151
327.663
327.467
327.602
327.995
323.208
322.803
322.479
322.371
322.492
322.809
323.104
323.534
323.881
324.022
324.025
323.889
323.487
322.943
322.444
321.928
321.524
321.354
321.408
321.794
316.628
316.306
316.079
315.946
316.079
316.294
316.472
316.836
317.084
317.167
317.166
317.094
316.745
316.394
315.99
315.58
315.344
315.157
315.295
315.549
309.927
309.753
309.607
309.64
309.681
309.767
309.983
310.093
310.224
310.272
310.351
310.283
310.112
309.78
309.635
309.382
309.243
309.107
309.176
309.303
303.347
303.205
303.203
303.213
303.292
303.274
303.412
303.338
303.379
303.492
303.495
303.416
303.356
303.301
303.163
303.132
303.054
303.017
303.077
303.141
350.562
349.593
348.889
348.798
349.034
349.784
350.49
351.412
352.257
352.722
352.904
352.512
351.762
350.601
349.378
348.2
347.335
347.053
347.286
347.933
343.705
343.002
342.377
342.264
342.631
343.04
343.809
344.549
345.22
345.666
345.774
345.469
344.757
343.843
342.729
341.763
340.979
340.692
340.806
341.371
336.995
336.35
335.926
335.764
335.976
336.479
337.03
337.712
338.157
338.582
338.647
338.42
337.71
336.943
336.126
335.235
334.579
334.406
334.551
334.832
330.264
329.703
329.361
329.216
329.503
329.808
330.318
330.905
331.281
331.513
331.704
331.386
330.984
330.209
329.564
328.872
328.3
328.015
328.275
328.537
323.515
323.101
322.847
322.765
322.957
323.22
323.6
323.947
324.271
324.523
324.525
324.408
324.053
323.587
322.928
322.467
321.965
321.843
321.853
322.214
316.785
316.522
316.259
316.285
316.4
316.529
316.783
317.009
317.416
317.547
317.585
317.482
317.166
316.719
316.414
316.014
315.699
315.567
315.599
315.785
310.135
310.006
309.817
309.755
309.863
309.938
310.16
310.267
310.399
310.533
310.604
310.478
310.319
310.136
309.793
309.532
309.384
309.367
309.428
309.434
303.346
303.287
303.265
303.329
303.295
303.38
303.337
303.428
303.471
303.596
303.44
303.518
303.457
303.398
303.304
303.175
303.096
303.131
303.19
303.143
351.462
350.44
349.835
349.698
350.022
350.773
351.534
352.505
353.329
353.915
354.039
353.656
352.875
351.745
350.492
349.347
348.592
348.242
348.375
349.077
344.505
343.709
343.173
343.086
343.346
343.916
344.725
345.475
346.14
346.663
346.684
346.449
345.763
344.802
343.731
342.699
341.953
341.686
341.818
342.334
337.65
337.028
336.597
336.474
336.684
337.192
337.824
338.439
338.995
339.431
339.546
339.307
338.671
337.833
336.958
336.129
335.452
335.157
335.398
335.702
330.722
330.332
329.879
329.832
330.035
330.396
330.905
331.545
331.898
332.257
332.358
332.038
331.639
330.907
330.164
329.533
329.009
328.757
328.86
329.134
323.954
323.55
323.277
323.26
323.29
323.695
324.052
324.422
324.839
325.071
325.173
324.998
324.592
324.055
323.456
322.916
322.559
322.37
322.461
322.642
317.155
316.882
316.669
316.638
316.716
316.932
317.13
317.406
317.725
317.946
317.923
317.857
317.52
317.187
316.751
316.32
316.106
315.986
316.033
316.137
310.235
310.079
309.942
309.979
310.021
310.127
310.351
310.461
310.641
310.786
310.772
310.785
310.508
310.293
310.056
309.841
309.632
309.487
309.568
309.676
303.424
303.432
303.367
303.303
303.365
303.457
303.428
303.537
303.488
303.593
303.62
303.565
303.448
303.417
303.417
303.393
303.256
303.127
303.174
303.296
352.443
351.525
350.963
350.8
351.059
351.668
352.526
353.522
354.464
355.076
355.299
354.917
354.064
353.006
351.729
350.594
349.769
349.425
349.625
350.236
345.358
344.748
344.151
343.982
344.247
344.809
345.607
346.331
347.144
347.711
347.797
347.508
346.833
345.848
344.77
343.668
343.042
342.754
342.892
343.32
338.384
337.8
337.333
337.277
337.475
337.952
338.573
339.203
339.84
340.304
340.396
340.104
339.55
338.767
337.785
337.002
336.381
336.068
336.2
336.552
331.349
330.91
330.572
330.511
330.659
331.058
331.494
332.037
332.568
332.921
333.045
332.86
332.357
331.65
330.962
330.205
329.703
329.452
329.595
329.85
324.394
324.106
323.817
323.71
323.804
324.107
324.487
324.936
325.327
325.659
325.684
325.489
325.121
324.579
323.99
323.448
323.004
322.951
323.018
323.244
317.414
317.174
317.034
316.869
316.978
317.261
317.504
317.83
318.086
318.35
318.369
318.275
317.94
317.56
317.116
316.718
316.42
316.379
316.352
316.601
310.557
310.271
310.226
310.225
310.219
310.398
310.447
310.624
310.844
310.966
311.039
310.969
310.86
310.55
310.313
310.025
309.953
309.826
309.882
309.949
303.419
303.542
303.461
303.419
303.382
303.451
303.49
303.566
303.648
303.673
303.676
303.652
303.642
303.602
303.506
303.411
303.337
303.242
303.275
303.34
353.515
352.596
352.037
351.871
352.168
352.876
353.727
354.611
355.577
356.166
356.355
356.091
355.337
354.106
353.025
351.832
351.042
350.654
350.886
351.355
346.353
345.511
345.109
344.957
345.167
345.773
346.478
347.268
348.109
348.568
348.79
348.55
347.829
346.907
345.731
344.858
344.167
343.843
343.983
344.424
339.194
338.656
338.085
338.07
338.337
338.699
339.332
339.95
340.608
341.117
341.183
340.993
340.421
339.613
338.694
337.84
337.25
337.033
337.121
337.48
332.08
331.542
331.282
331.078
331.315
331.675
332.208
332.71
333.235
333.61
333.699
333.584
333.082
332.376
331.638
330.94
330.479
330.267
330.338
330.672
324.846
324.498
324.309
324.216
324.278
324.637
325.069
325.458
325.793
326.089
326.251
326.027
325.711
325.182
324.636
324.128
323.718
323.505
323.594
323.795
317.792
317.53
317.375
317.34
317.38
317.581
317.86
318.144
318.497
318.614
318.763
318.543
318.314
317.962
317.603
317.265
316.891
316.775
316.862
316.986
310.701
310.577
310.419
310.448
310.449
310.547
310.73
310.915
311.118
311.187
311.182
311.23
311.029
310.783
310.534
310.356
310.132
310.088
310.094
310.271
303.591
303.532
303.478
303.529
303.492
303.506
303.59
303.603
303.702
303.778
303.79
303.778
303.727
303.538
303.581
303.533
303.383
303.408
303.448
303.438
354.629
353.839
353.254
352.955
353.311
353.984
354.688
355.677
356.621
357.201
357.389
357.184
356.454
355.329
354.173
353.095
352.382
352.033
352.2
352.707
347.345
346.636
346.081
346.002
346.193
346.738
347.399
348.231
348.953
349.519
349.741
349.533
348.748
347.881
346.823
345.901
345.261
344.91
345.138
345.538
340
339.384
338.993
338.914
339.085
339.507
340.143
340.75
341.39
341.859
342.012
341.764
341.288
340.456
339.599
338.8
338.244
338.046
338.085
338.395
332.742
332.287
332.008
331.806
331.978
332.314
332.85
333.325
333.844
334.183
334.393
334.124
333.712
333.052
332.328
331.669
331.228
331.042
331.094
331.295
325.411
325.112
324.821
324.794
324.856
325.133
325.558
325.949
326.35
326.594
326.782
326.591
326.216
325.75
325.15
324.643
324.305
324.131
324.168
324.393
318.19
317.993
317.783
317.693
317.741
317.947
318.229
318.498
318.866
319.022
319.082
318.987
318.742
318.437
318.003
317.622
317.301
317.227
317.214
317.35
310.886
310.687
310.678
310.666
310.682
310.842
310.855
311.151
311.293
311.426
311.41
311.361
311.199
311.017
310.785
310.509
310.378
310.323
310.328
310.458
303.615
303.603
303.533
303.542
303.568
303.682
303.667
303.753
303.795
303.833
303.867
303.758
303.724
303.682
303.566
303.556
303.583
303.48
303.448
303.539
355.782
354.949
354.405
354.306
354.447
355.063
355.864
356.733
357.57
358.238
358.441
358.142
357.449
356.375
355.361
354.335
353.675
353.424
353.541
354.052
348.33
347.672
347.223
347.13
347.202
347.699
348.369
349.097
349.778
350.396
350.615
350.25
349.737
348.857
347.839
346.957
346.413
346.107
346.207
346.653
340.837
340.313
339.917
339.772
339.963
340.351
340.969
341.561
342.142
342.596
342.706
342.542
342.036
341.243
340.501
339.734
339.178
338.99
339.071
339.378
333.422
332.993
332.621
332.511
332.731
333.058
333.479
333.908
334.481
334.829
335.008
334.784
334.307
333.659
333.056
332.447
331.954
331.786
331.909
332.097
325.993
325.649
325.329
325.327
325.47
325.638
325.961
326.401
326.806
327.099
327.044
327.026
326.72
326.233
325.722
325.217
324.836
324.757
324.742
324.921
318.506
318.302
318.163
318.121
318.167
318.361
318.633
318.917
319.2
319.36
319.405
319.305
319.054
318.772
318.311
318.023
317.78
317.67
317.637
317.837
311.133
311.075
310.881
310.917
310.951
311.073
311.116
311.373
311.501
311.545
311.679
311.603
311.475
311.241
310.987
310.799
310.621
310.548
310.694
310.723
303.775
303.765
303.629
303.685
303.649
303.631
303.747
303.752
303.864
303.864
303.83
303.947
303.834
303.734
303.782
303.638
303.599
303.609
303.594
303.59
357.067
356.293
355.664
355.464
355.661
356.153
356.866
357.727
358.463
359.09
359.271
359.135
358.472
357.521
356.417
355.521
354.854
354.642
354.84
355.393
349.454
348.754
348.285
348.041
348.215
348.619
349.212
350.01
350.658
351.139
351.321
351.162
350.546
349.799
348.85
348.056
347.529
347.269
347.356
347.798
341.814
341.269
340.86
340.703
340.847
341.117
341.707
342.301
342.744
343.177
343.406
343.154
342.727
342.061
341.302
340.579
340.063
339.895
339.956
340.367
334.134
333.714
333.381
333.287
333.381
333.654
334.116
334.621
335.087
335.361
335.522
335.335
334.934
334.267
333.76
333.189
332.777
332.654
332.658
332.904
326.587
326.239
325.939
325.907
325.989
326.218
326.535
326.9
327.232
327.457
327.57
327.436
327.175
326.682
326.248
325.779
325.446
325.327
325.376
325.662
319.068
318.752
318.583
318.486
318.593
318.772
318.895
319.14
319.438
319.661
319.71
319.595
319.38
319.099
318.665
318.412
318.197
318.1
318.192
318.297
311.363
311.221
311.106
311.088
311.158
311.247
311.313
311.457
311.651
311.741
311.834
311.797
311.637
311.374
311.203
311.066
310.874
310.858
310.891
310.939
303.77
303.712
303.686
303.73
303.811
303.772
303.814
303.851
303.926
303.937
303.961
303.896
303.943
303.85
303.69
303.732
303.702
303.582
303.653
303.621
358.289
357.485
356.9
356.753
356.875
357.292
357.944
358.684
359.332
359.945
360.195
359.88
359.294
358.462
357.55
356.756
356.174
355.98
356.115
356.638
350.472
349.823
349.245
349.113
349.209
349.607
350.195
350.889
351.495
351.898
352.071
351.854
351.315
350.628
349.774
349.101
348.624
348.363
348.598
348.987
342.744
342.208
341.708
341.566
341.649
341.999
342.459
343.058
343.523
343.833
343.999
343.832
343.427
342.767
342.061
341.361
341.023
340.849
341.01
341.357
334.907
334.462
334.165
334.057
334.104
334.34
334.741
335.128
335.57
335.915
336.044
335.863
335.425
334.964
334.389
333.942
333.489
333.452
333.464
333.758
327.187
326.756
326.537
326.388
326.528
326.704
327.008
327.37
327.635
327.909
327.965
327.899
327.524
327.137
326.722
326.354
326.044
325.938
325.98
326.201
319.319
319.245
318.965
318.929
319.008
319.053
319.275
319.524
319.784
319.856
319.94
319.914
319.657
319.339
319.103
318.828
318.709
318.489
318.64
318.699
311.713
311.461
311.414
311.396
311.363
311.406
311.603
311.75
311.851
311.932
311.967
311.91
311.772
311.633
311.459
311.208
311.211
311.146
311.134
311.234
303.915
303.869
303.813
303.803
303.812
303.809
303.82
303.917
303.966
304.001
304.098
303.936
303.931
303.868
303.794
303.8
303.711
303.726
303.749
303.801
359.532
358.733
358.192
357.824
358.04
358.442
358.944
359.689
360.283
360.689
361.009
360.752
360.201
359.535
358.663
357.979
357.448
357.288
357.577
358.064
351.562
350.956
350.387
350.148
350.317
350.639
351.074
351.747
352.23
352.694
352.774
352.566
352.08
351.455
350.765
350.052
349.602
349.567
349.685
350.117
343.601
343.019
342.619
342.482
342.509
342.86
343.242
343.752
344.186
344.438
344.622
344.492
344.021
343.499
342.83
342.308
341.96
341.788
342.01
342.314
335.717
335.229
334.871
334.715
334.802
334.994
335.292
335.775
336.131
336.399
336.423
336.306
335.938
335.59
335.101
334.619
334.305
334.195
334.258
334.513
327.704
327.352
327.092
326.958
327.036
327.21
327.499
327.814
328.123
328.304
328.337
328.236
328.017
327.562
327.288
326.891
326.61
326.579
326.56
326.827
319.82
319.628
319.325
319.256
319.346
319.487
319.642
319.772
320.043
320.201
320.298
320.173
319.985
319.689
319.468
319.12
319.029
318.964
319.006
319.147
311.877
311.745
311.593
311.632
311.664
311.651
311.805
311.885
312.022
312.068
312.116
312.089
312.093
311.83
311.734
311.473
311.428
311.302
311.393
311.469
304.049
303.935
303.978
303.85
303.924
303.929
303.984
303.986
304.022
304.091
304.059
304.089
303.979
303.97
303.791
303.733
303.756
303.826
303.713
303.88
360.85
359.998
359.452
359.178
359.184
359.571
360.03
360.649
361.228
361.608
361.701
361.553
361.169
360.386
359.737
359.09
358.686
358.595
358.811
359.333
352.635
352.002
351.54
351.211
351.281
351.593
351.962
352.486
352.988
353.281
353.417
353.258
352.868
352.368
351.659
351.158
350.738
350.6
350.848
351.281
344.536
344.024
343.61
343.389
343.417
343.612
344.001
344.404
344.845
345.123
345.21
345.04
344.721
344.216
343.599
343.195
342.84
342.766
342.979
343.255
336.415
336.05
335.611
335.548
335.478
335.705
336.007
336.373
336.66
336.907
337.053
336.847
336.528
336.147
335.684
335.33
335.027
334.893
335.063
335.356
328.296
328.056
327.669
327.57
327.678
327.763
327.942
328.271
328.466
328.671
328.679
328.638
328.426
328.131
327.793
327.459
327.222
327.092
327.319
327.416
320.191
319.99
319.868
319.713
319.69
319.797
320.039
320.22
320.39
320.551
320.527
320.535
320.271
320.054
319.803
319.681
319.474
319.404
319.399
319.681
312.197
312.031
311.85
311.838
311.888
311.846
312.002
312.14
312.266
312.369
312.386
312.25
312.156
312.086
311.892
311.76
311.645
311.609
311.625
311.751
304.1
303.974
304.018
304.015
304.008
304.007
304.031
304.04
304.113
304.131
304.153
304.073
304.121
304.038
303.974
303.986
303.905
303.925
303.872
303.967
362.158
361.427
360.75
360.359
360.398
360.736
361.112
361.639
362.08
362.407
362.511
362.479
361.988
361.501
360.757
360.309
359.904
359.876
360.168
360.671
353.809
353.262
352.57
352.392
352.372
352.53
352.938
353.275
353.764
354.058
354.059
354.025
353.654
353.139
352.633
352.088
351.843
351.769
352.062
352.499
345.511
344.942
344.585
344.182
344.307
344.482
344.775
345.182
345.368
345.7
345.755
345.677
345.386
344.914
344.406
344
343.766
343.703
343.919
344.298
337.279
336.744
336.418
336.116
336.24
336.378
336.64
336.927
337.13
337.346
337.452
337.302
337.095
336.709
336.403
335.951
335.783
335.767
335.875
336.145
328.955
328.671
328.307
328.187
328.161
328.323
328.481
328.706
328.933
329.084
329.066
328.971
328.766
328.548
328.186
327.942
327.797
327.739
327.865
328.102
320.742
320.446
320.272
320.117
320.145
320.169
320.346
320.52
320.575
320.722
320.806
320.696
320.485
320.422
320.132
319.922
319.836
319.918
319.884
320.08
312.456
312.339
312.159
312.075
312.056
312.151
312.228
312.346
312.375
312.452
312.486
312.42
312.323
312.206
312.162
312.074
311.924
311.996
312.041
312.043
304.16
304.153
304.097
303.997
304.113
304.06
304.154
304.098
304.213
304.159
304.22
304.155
304.171
304.103
304.008
304.005
304.023
303.997
304.018
304.056
363.467
362.631
361.935
361.651
361.633
361.812
362.139
362.632
363.014
363.249
363.405
363.282
362.848
362.369
361.895
361.467
361.186
361.152
361.455
362.143
355.056
354.324
353.767
353.499
353.381
353.563
353.86
354.225
354.537
354.701
354.901
354.688
354.434
354.024
353.454
353.109
352.904
352.86
353.3
353.673
346.445
345.903
345.44
345.276
345.183
345.305
345.567
345.847
346.132
346.349
346.309
346.211
346.014
345.662
345.222
344.883
344.719
344.625
344.922
345.217
337.951
337.514
337.242
336.999
337.027
337.045
337.273
337.525
337.768
337.839
337.852
337.823
337.565
337.342
336.964
336.666
336.589
336.477
336.732
337.044
329.625
329.204
328.982
328.763
328.702
328.801
328.986
329.231
329.344
329.423
329.553
329.42
329.24
328.913
328.706
328.504
328.321
328.329
328.518
328.707
321.137
320.833
320.673
320.5
320.531
320.527
320.683
320.851
320.936
321.069
321.107
321.007
320.921
320.761
320.536
320.44
320.26
320.253
320.322
320.522
312.691
312.552
312.441
312.296
312.352
312.355
312.462
312.516
312.536
312.567
312.569
312.606
312.522
312.361
312.224
312.21
312.231
312.174
312.242
312.326
304.267
304.211
304.252
304.177
304.145
304.17
304.136
304.266
304.216
304.237
304.292
304.167
304.183
304.126
304.093
304
304.014
304.045
304.088
304.136
364.753
364.049
363.304
362.874
362.815
363.034
363.274
363.631
363.942
364.222
364.232
364.051
363.741
363.425
362.966
362.641
362.342
362.484
362.833
363.474
356.045
355.457
354.831
354.604
354.43
354.578
354.826
355.121
355.309
355.524
355.636
355.474
355.254
354.853
354.381
354.076
353.931
354.051
354.433
354.859
347.433
346.787
346.376
346.085
346.128
346.173
346.251
346.527
346.829
346.877
347.03
346.864
346.629
346.287
345.964
345.703
345.506
345.609
345.902
346.287
338.773
338.323
337.935
337.694
337.661
337.791
337.826
338.126
338.327
338.302
338.34
338.356
338.125
337.87
337.579
337.366
337.206
337.228
337.382
337.747
330.189
329.794
329.5
329.316
329.354
329.366
329.512
329.532
329.737
329.863
329.855
329.768
329.665
329.44
329.242
329.015
328.995
328.908
329.077
329.251
321.542
321.417
321.114
320.96
320.927
320.95
321.076
321.141
321.237
321.304
321.355
321.205
321.09
320.98
320.806
320.708
320.64
320.623
320.73
321.018
312.867
312.852
312.648
312.556
312.547
312.609
312.687
312.707
312.795
312.785
312.765
312.755
312.74
312.65
312.532
312.552
312.389
312.438
312.488
312.634
304.344
304.306
304.241
304.199
304.228
304.21
304.304
304.203
304.276
304.266
304.326
304.328
304.212
304.225
304.159
304.204
304.186
304.176
304.251
304.231
365.967
365.24
364.499
364.132
363.962
364.127
364.278
364.575
364.756
365.027
364.963
364.886
364.639
364.381
363.973
363.692
363.59
363.712
364.124
364.752
357.144
356.521
355.886
355.576
355.354
355.495
355.646
355.962
356.135
356.231
356.268
356.222
355.931
355.619
355.414
355.041
354.948
355.031
355.439
355.849
348.324
347.714
347.271
347.013
346.834
346.888
347.07
347.254
347.41
347.523
347.567
347.452
347.24
346.986
346.667
346.447
346.398
346.43
346.793
347.122
339.57
338.979
338.635
338.337
338.244
338.317
338.419
338.651
338.761
338.852
338.924
338.811
338.579
338.408
338.209
337.936
337.828
337.946
338.163
338.442
330.655
330.383
329.982
329.849
329.734
329.749
329.891
330.036
330.114
330.314
330.252
330.134
330
329.861
329.616
329.509
329.414
329.468
329.632
329.92
321.935
321.641
321.48
321.337
321.295
321.401
321.35
321.467
321.463
321.585
321.599
321.494
321.428
321.258
321.141
321.036
321.031
321.085
321.179
321.299
313.189
313.023
312.917
312.852
312.743
312.741
312.872
312.931
312.952
312.908
312.973
312.935
312.849
312.727
312.748
312.591
312.704
312.615
312.658
312.786
304.416
304.362
304.259
304.302
304.282
304.308
304.297
304.242
304.395
304.37
304.274
304.349
304.263
304.252
304.312
304.21
304.258
304.244
304.264
304.28
367.003
366.162
365.484
365.093
364.918
364.904
365.051
365.306
365.561
365.674
365.656
365.564
365.441
365.127
364.753
364.495
364.456
364.614
365.104
365.793
357.925
357.296
356.643
356.275
356.083
356.12
356.353
356.545
356.74
356.762
356.81
356.736
356.517
356.272
355.934
355.791
355.641
355.785
356.236
356.601
348.917
348.388
347.902
347.556
347.459
347.429
347.613
347.771
347.852
348.007
348.049
347.854
347.696
347.54
347.171
346.972
347.046
347.138
347.414
347.83
339.933
339.513
339.137
338.831
338.878
338.799
338.883
339.055
339.16
339.254
339.227
339.115
339.028
338.735
338.592
338.408
338.338
338.419
338.651
339.018
331.088
330.755
330.375
330.162
330.124
330.087
330.267
330.29
330.355
330.464
330.471
330.366
330.247
330.15
330.011
329.866
329.749
329.748
330.063
330.247
322.144
322.028
321.744
321.498
321.477
321.538
321.611
321.597
321.761
321.75
321.715
321.731
321.595
321.514
321.392
321.257
321.258
321.35
321.428
321.613
313.398
313.187
313.014
312.942
312.996
312.917
313.007
313.036
313.019
312.984
313.052
313.003
312.927
312.885
312.887
312.757
312.742
312.766
312.831
312.91
304.46
304.438
304.368
304.381
304.274
304.298
304.259
304.3
304.312
304.426
304.404
304.378
304.348
304.375
304.281
304.243
304.284
304.231
304.286
304.312
)
;

boundaryField
{
    hotSide
    {
        type            fixedGradient;
        gradient        nonuniform List<scalar> 
400
(
321.511
322.87
325.591
329.677
335.133
341.965
350.181
359.788
370.794
383.208
397.037
412.289
428.971
447.088
466.647
487.651
510.105
534.011
559.372
586.191
323.738
325.08
327.767
331.802
337.194
343.949
352.078
361.591
372.498
384.81
398.537
413.687
430.268
448.289
467.755
488.672
511.043
534.872
560.161
586.913
326.149
327.47
330.116
334.091
339.406
346.071
354.099
363.503
374.296
386.491
400.101
415.136
431.606
449.52
468.885
489.706
511.988
535.735
560.948
587.63
328.704
330
332.597
336.503
341.73
348.292
356.205
365.485
376.15
388.215
401.695
416.604
432.954
450.753
470.009
490.73
512.919
536.579
561.714
588.325
331.33
332.599
335.142
338.97
344.099
350.546
358.332
367.477
378.003
389.928
403.271
418.047
434.27
451.949
471.095
491.712
513.807
537.382
562.439
588.978
333.918
335.158
337.643
341.389
346.414
352.74
360.392
369.397
379.779
391.562
404.765
419.407
435.503
453.065
472.101
492.618
514.622
538.114
563.096
589.569
336.321
337.531
339.959
343.622
348.544
354.751
362.274
371.142
381.385
393.031
406.101
420.618
436.595
454.047
472.983
493.409
515.33
538.747
563.663
590.076
338.36
339.543
341.92
345.509
350.339
356.44
363.847
372.595
382.718
394.244
407.2
421.608
437.485
454.844
473.695
494.045
515.897
539.253
564.114
590.478
339.852
341.015
343.352
346.885
351.645
357.665
364.985
373.643
383.675
395.113
407.984
422.312
438.116
455.407
474.197
494.491
516.294
539.606
564.428
590.758
340.643
341.795
344.11
347.613
352.334
358.311
365.584
374.193
384.176
395.567
408.393
422.679
438.443
455.699
474.456
494.722
516.498
539.788
564.589
590.901
340.643
341.795
344.11
347.613
352.334
358.311
365.584
374.193
384.176
395.567
408.393
422.679
438.443
455.699
474.456
494.722
516.498
539.788
564.589
590.901
339.852
341.015
343.352
346.885
351.645
357.665
364.985
373.643
383.675
395.113
407.984
422.312
438.116
455.407
474.197
494.491
516.294
539.606
564.428
590.758
338.36
339.543
341.92
345.509
350.339
356.44
363.847
372.595
382.718
394.244
407.2
421.608
437.485
454.844
473.695
494.045
515.897
539.253
564.114
590.478
336.321
337.531
339.959
343.622
348.544
354.751
362.274
371.142
381.385
393.031
406.101
420.618
436.595
454.047
472.983
493.409
515.33
538.747
563.663
590.076
333.918
335.158
337.643
341.389
346.414
352.74
360.392
369.397
379.779
391.562
404.765
419.407
435.503
453.065
472.101
492.618
514.622
538.114
563.096
589.569
331.33
332.599
335.142
338.97
344.099
350.546
358.332
367.477
378.003
389.928
403.271
418.047
434.27
451.949
471.095
491.712
513.807
537.382
562.439
588.978
328.704
330
332.597
336.503
341.73
348.292
356.205
365.485
376.15
388.215
401.695
416.604
432.954
450.753
470.009
490.73
512.919
536.579
561.714
588.325
326.149
327.47
330.116
334.091
339.406
346.071
354.099
363.503
374.296
386.491
400.101
415.136
431.606
449.52
468.885
489.706
511.988
535.735
560.948
587.63
323.738
325.08
327.767
331.802
337.194
343.949
352.078
361.591
372.498
384.81
398.537
413.687
430.268
448.289
467.755
488.672
511.043
534.872
560.161
586.913
321.511
322.87
325.591
329.677
335.133
341.965
350.181
359.788
370.794
383.208
397.037
412.289
428.971
447.088
466.647
487.651
510.105
534.011
559.372
586.191
)
;
    }
    coldSide
    {
        type            mixed;
        refValue        uniform 300;
        refGradient     uniform 0;
        valueFraction   uniform 0.991591;
        source          uniform 0;
        value           nonuniform List<scalar> 
400
(
300.027
300.028
300.028
300.027
300.028
300.028
300.029
300.029
300.03
300.03
300.032
300.032
300.033
300.034
300.034
300.035
300.036
300.037
300.037
300.038
300.026
300.028
300.027
300.027
300.027
300.028
300.029
300.03
300.03
300.03
300.032
300.031
300.033
300.033
300.033
300.035
300.035
300.036