/*--------------------------------*- C++ -*----------------------------------*\
| =========                 |                                                 |
| \\      /  F ield         | OpenFOAM: The Open Source CFD Toolbox           |
|  \\    /   O peration     | Version:  2212                                  |
|   \\  /    A nd           | Website:  www.openfoam.com                      |
|    \\/     M anipulation  |                                                 |
\*---------------------------------------------------------------------------*/
FoamFile
{
    version     2.0;
    format      ascii;
    arch        "LSB;label=32;scalar=64";
    class       volScalarField;
    location    "0";
    object      Tdirect;
}
// * * * * * * * * * * * * * * * * * * * * * * * * * * * * * * * * * * * * * //

dimensions      [0 0 0 1 0 0 0];

internalField   nonuniform List<scalar> 
3200
(
346.771
347.545
348.533
349.61
350.72
351.809
352.814
353.663
354.281
354.607
354.607
354.281
353.663
352.814
351.809
350.72
349.61
348.533
347.545
346.771
340.55
341.206
342.058
342.99
343.95
344.892
345.761
346.494
347.028
347.31
347.31
347.028
346.494
345.761
344.892
343.95
342.99
342.058
341.206
340.55
334.325
334.868
335.586
336.374
337.185
337.981
338.715
339.333
339.784
340.022
340.022
339.784
339.333
338.715
337.981
337.185
336.374
335.586
334.868
334.325
328.094
328.532
329.117
329.761
330.424
331.074
331.674
332.179
332.546
332.741
332.741
332.546
332.179
331.674
331.074
330.424
329.761
329.117
328.532
328.094
321.86
322.197
322.651
323.151
323.666
324.172
324.637
325.029
325.315
325.465
325.465
325.315
325.029
324.637
324.172
323.666
323.151
322.651
322.197
321.86
315.624
315.862
316.186
316.543
316.911
317.272
317.604
317.884
318.088
318.195
318.195
318.088
317.884
317.604
317.272
316.911
316.543
316.186
315.862
315.624
309.386
309.528
309.722
309.936
310.157
310.374
310.573
310.741
310.864
310.928
310.928
310.864
310.741
310.573
310.374
310.157
309.936
309.722
309.528
309.386
303.146
303.194
303.259
303.331
303.405
303.477
303.544
303.6
303.641
303.663
303.663
303.641
303.6
303.544
303.477
303.405
303.331
303.259
303.194
303.146
346.912
347.68
348.66
349.727
350.826
351.903
352.896
353.734
354.344
354.666
354.666
354.344
353.734
352.896
351.903
350.826
349.727
348.66
347.68
346.912
340.673
341.323
342.168
343.091
344.042
344.974
345.832
346.556
347.083
347.362
347.362
347.083
346.556
345.832
344.974
344.042
343.091
342.168
341.323
340.673
334.428
334.967
335.679
336.459
337.263
338.05
338.775
339.386
339.831
340.065
340.065
339.831
339.386
338.775
338.05
337.263
336.459
335.679
334.967
334.428
328.179
328.613
329.193
329.831
330.487
331.131
331.723
332.222
332.585
332.776
332.776
332.585
332.222
331.723
331.131
330.487
329.831
329.193
328.613
328.179
321.926
322.26
322.71
323.205
323.715
324.215
324.676
325.063
325.345
325.493
325.493
325.345
325.063
324.676
324.215
323.715
323.205
322.71
322.26
321.926
315.671
315.907
316.228
316.582
316.946
317.303
317.631
317.908
318.109
318.215
318.215
318.109
317.908
317.631
317.303
316.946
316.582
316.228
315.907
315.671
309.414
309.555
309.747
309.96
310.178
310.393
310.59
310.756
310.876
310.94
310.94
310.876
310.756
310.59
310.393
310.178
309.96
309.747
309.555
309.414
303.156
303.203
303.267
303.338
303.412
303.484
303.55
303.605
303.646
303.667
303.667
303.646
303.605
303.55
303.484
303.412
303.338
303.267
303.203
303.156
347.197
347.953
348.916
349.963
351.039
352.093
353.063
353.881
354.475
354.789
354.789
354.475
353.881
353.063
352.093
351.039
349.963
348.916
347.953
347.197
340.919
341.559
342.389
343.296
344.227
345.139
345.978
346.684
347.198
347.469
347.469
347.198
346.684
345.978
345.139
344.227
343.296
342.389
341.559
340.919
334.636
335.166
335.866
336.632
337.419
338.189
338.898
339.494
339.928
340.156
340.156
339.928
339.494
338.898
338.189
337.419
336.632
335.866
335.166
334.636
328.348
328.776
329.346
329.972
330.615
331.245
331.824
332.311
332.664
332.851
332.851
332.664
332.311
331.824
331.245
330.615
329.972
329.346
328.776
328.348
322.058
322.386
322.829
323.315
323.815
324.304
324.754
325.132
325.407
325.552
325.552
325.407
325.132
324.754
324.304
323.815
323.315
322.829
322.386
322.058
315.765
315.997
316.313
316.66
317.017
317.366
317.687
317.957
318.153
318.257
318.257
318.153
317.957
317.687
317.366
317.017
316.66
316.313
315.997
315.765
309.47
309.609
309.798
310.007
310.221
310.431
310.623
310.786
310.903
310.965
310.965
310.903
310.786
310.623
310.431
310.221
310.007
309.798
309.609
309.47
303.175
303.221
303.284
303.354
303.426
303.496
303.561
303.615
303.655
303.675
303.675
303.655
303.615
303.561
303.496
303.426
303.354
303.284
303.221
303.175
347.625
348.363
349.303
350.321
351.366
352.386
353.323
354.111
354.683
354.985
354.985
354.683
354.111
353.323
352.386
351.366
350.321
349.303
348.363
347.625
341.289
341.914
342.724
343.606
344.509
345.392
346.203
346.884
347.378
347.639
347.639
347.378
346.884
346.203
345.392
344.509
343.606
342.724
341.914
341.289
334.948
335.467
336.149
336.894
337.658
338.404
339.089
339.664
340.081
340.301
340.301
340.081
339.664
339.089
338.404
337.658
336.894
336.149
335.467
334.948
328.604
329.021
329.578
330.186
330.811
331.42
331.98
332.449
332.79
332.97
332.97
332.79
332.449
331.98
331.42
330.811
330.186
329.578
329.021
328.604
322.256
322.577
323.008
323.481
323.967
324.441
324.875
325.24
325.505
325.644
325.644
325.505
325.24
324.875
324.441
323.967
323.481
323.008
322.577
322.256
315.907
316.133
316.441
316.779
317.126
317.464
317.774
318.035
318.223
318.323
318.323
318.223
318.035
317.774
317.464
317.126
316.779
316.441
316.133
315.907
309.555
309.691
309.875
310.078
310.286
310.489
310.676
310.832
310.945
311.005
311.005
310.945
310.832
310.676
310.489
310.286
310.078
309.875
309.691
309.555
303.203
303.248
303.31
303.378
303.448
303.516
303.578
303.631
303.669
303.689
303.689
303.669
303.631
303.578
303.516
303.448
303.378
303.31
303.248
303.203
348.2
348.916
349.824
350.806
351.81
352.788
353.684
354.435
354.979
355.266
355.266
354.979
354.435
353.684
352.788
351.81
350.806
349.824
348.916
348.2
341.786
342.392
343.175
344.025
344.894
345.741
346.515
347.165
347.635
347.883
347.883
347.635
347.165
346.515
345.741
344.894
344.025
343.175
342.392
341.786
335.368
335.871
336.531
337.249
337.984
338.699
339.353
339.902
340.299
340.508
340.508
340.299
339.902
339.353
338.699
337.984
337.249
336.531
335.871
335.368
328.947
329.351
329.889
330.477
331.077
331.662
332.196
332.644
332.969
333.139
333.139
332.969
332.644
332.196
331.662
331.077
330.477
329.889
329.351
328.947
322.523
322.833
323.251
323.707
324.174
324.628
325.044
325.392
325.644
325.776
325.776
325.644
325.392
325.044
324.628
324.174
323.707
323.251
322.833
322.523
316.097
316.317
316.614
316.94
317.274
317.598
317.895
318.143
318.323
318.418
318.418
318.323
318.143
317.895
317.598
317.274
316.94
316.614
316.317
316.097
309.67
309.801
309.979
310.175
310.375
310.57
310.748
310.897
311.005
311.062
311.062
311.005
310.897
310.748
310.57
310.375
310.175
309.979
309.801
309.67
303.241
303.285
303.345
303.411
303.478
303.543
303.603
303.653
303.689
303.708
303.708
303.689
303.653
303.603
303.543
303.478
303.411
303.345
303.285
303.241
348.925
349.613
350.485
351.424
352.381
353.309
354.157
354.865
355.378
355.647
355.647
355.378
354.865
354.157
353.309
352.381
351.424
350.485
349.613
348.925
342.413
342.996
343.747
344.56
345.389
346.192
346.925
347.538
347.981
348.214
348.214
347.981
347.538
346.925
346.192
345.389
344.56
343.747
342.996
342.413
335.897
336.381
337.014
337.701
338.402
339.081
339.7
340.218
340.592
340.788
340.788
340.592
340.218
339.7
339.081
338.402
337.701
337.014
336.381
335.897
329.379
329.768
330.285
330.846
331.419
331.974
332.48
332.903
333.209
333.369
333.369
333.209
332.903
332.48
331.974
331.419
330.846
330.285
329.768
329.379
322.859
323.157
323.558
323.995
324.44
324.871
325.265
325.593
325.831
325.955
325.955
325.831
325.593
325.265
324.871
324.44
323.995
323.558
323.157
322.859
316.337
316.548
316.834
317.145
317.463
317.772
318.053
318.287
318.457
318.546
318.546
318.457
318.287
318.053
317.772
317.463
317.145
316.834
316.548
316.337
309.813
309.94
310.111
310.298
310.489
310.674
310.843
310.984
311.085
311.139
311.139
311.085
310.984
310.843
310.674
310.489
310.298
310.111
309.94
309.813
303.29
303.332
303.389
303.452
303.516
303.578
303.634
303.682
303.716
303.734
303.734
303.716
303.682
303.634
303.578
303.516
303.452
303.389
303.332
303.29
349.801
350.46
351.29
352.182
353.086
353.96
354.754
355.416
355.894
356.145
356.145
355.894
355.416
354.754
353.96
353.086
352.182
351.29
350.46
349.801
343.171
343.728
344.444
345.216
345.999
346.755
347.443
348.016
348.429
348.645
348.645
348.429
348.016
347.443
346.755
345.999
345.216
344.444
343.728
343.171
336.537
337
337.603
338.256
338.918
339.557
340.138
340.622
340.971
341.154
341.154
340.971
340.622
340.138
339.557
338.918
338.256
337.603
337
336.537
329.902
330.274
330.766
331.3
331.841
332.364
332.839
333.234
333.519
333.669
333.669
333.519
333.234
332.839
332.364
331.841
331.3
330.766
330.274
329.902
323.265
323.551
323.932
324.347
324.768
325.174
325.544
325.851
326.072
326.188
326.188
326.072
325.851
325.544
325.174
324.768
324.347
323.932
323.551
323.265
316.627
316.829
317.101
317.397
317.698
317.988
318.252
318.471
318.629
318.712
318.712
318.629
318.471
318.252
317.988
317.698
317.397
317.101
316.829
316.627
309.988
310.108
310.272
310.449
310.63
310.804
310.962
311.094
311.189
311.239
311.239
311.189
311.094
310.962
310.804
310.63
310.449
310.272
310.108
309.988
303.348
303.388
303.443
303.503
303.563
303.622
303.675
303.719
303.751
303.767
303.767
303.751
303.719
303.675
303.622
303.563
303.503
303.443
303.388
303.348
350.834
351.46
352.246
353.086
353.934
354.75
355.489
356.102
356.543
356.774
356.774
356.543
356.102
355.489
354.75
353.934
353.086
352.246
351.46
350.834
344.064
344.593
345.271
345.999
346.733
347.44
348.079
348.61
348.992
349.192
349.192
348.992
348.61
348.079
347.44
346.733
345.999
345.271
344.593
344.064
337.292
337.731
338.302
338.917
339.538
340.136
340.676
341.125
341.447
341.616
341.616
341.447
341.125
340.676
340.136
339.538
338.917
338.302
337.731
337.292
330.518
330.872
331.338
331.84
332.348
332.837
333.279
333.645
333.909
334.047
334.047
333.909
333.645
333.279
332.837
332.348
331.84
331.338
330.872
330.518
323.744
324.015
324.377
324.767
325.163
325.542
325.886
326.171
326.376
326.483
326.483
326.376
326.171
325.886
325.542
325.163
324.767
324.377
324.015
323.744
316.969
317.161
317.418
317.697
317.98
318.251
318.496
318.7
318.846
318.923
318.923
318.846
318.7
318.496
318.251
317.98
317.697
317.418
317.161
316.969
310.193
310.307
310.462
310.63
310.799
310.962
311.109
311.232
311.319
311.365
311.365
311.319
311.232
311.109
310.962
310.799
310.63
310.462
310.307
310.193
303.417
303.455
303.507
303.563
303.62
303.674
303.724
303.765
303.794
303.81
303.81
303.794
303.765
303.724
303.674
303.62
303.563
303.507
303.455
303.417
352.027
352.618
353.357
354.144
354.934
355.691
356.372
356.936
357.341
357.552
357.552
357.341
356.936
356.372
355.691
354.934
354.144
353.357
352.618
352.027
345.095
345.595
346.233
346.915
347.599
348.254
348.845
349.333
349.683
349.865
349.865
349.683
349.333
348.845
348.254
347.599
346.915
346.233
345.595
345.095
338.163
338.578
339.115
339.691
340.27
340.824
341.323
341.736
342.032
342.186
342.186
342.032
341.736
341.323
340.824
340.27
339.691
339.115
338.578
338.163
331.23
331.564
332.002
332.473
332.947
333.4
333.808
334.145
334.387
334.513
334.513
334.387
334.145
333.808
333.4
332.947
332.473
332.002
331.564
331.23
324.297
324.553
324.893
325.259
325.628
325.98
326.297
326.56
326.747
326.846
326.846
326.747
326.56
326.297
325.98
325.628
325.259
324.893
324.553
324.297
317.363
317.545
317.787
318.049
318.312
318.564
318.79
318.978
319.112
319.182
319.182
319.112
318.978
318.79
318.564
318.312
318.049
317.787
317.545
317.363
310.43
310.538
310.684
310.841
310.999
311.15
311.286
311.398
311.479
311.521
311.521
311.479
311.398
311.286
311.15
310.999
310.841
310.684
310.538
310.43
303.496
303.532
303.581
303.634
303.687
303.737
303.783
303.821
303.848
303.862
303.862
303.848
303.821
303.783
303.737
303.687
303.634
303.581
303.532
303.496
353.383
353.938
354.63
355.362
356.094
356.791
357.416
357.931
358.299
358.491
358.491
358.299
357.931
357.416
356.791
356.094
355.362
354.63
353.938
353.383
346.268
346.738
347.335
347.969
348.603
349.207
349.748
350.194
350.513
350.679
350.679
350.513
350.194
349.748
349.207
348.603
347.969
347.335
346.738
346.268
339.154
339.543
340.046
340.583
341.119
341.63
342.088
342.465
342.734
342.875
342.875
342.734
342.465
342.088
341.63
341.119
340.583
340.046
339.543
339.154
332.04
332.353
332.763
333.202
333.641
334.058
334.433
334.741
334.961
335.076
335.076
334.961
334.741
334.433
334.058
333.641
333.202
332.763
332.353
332.04
324.926
325.167
325.485
325.826
326.167
326.492
326.783
327.023
327.194
327.283
327.283
327.194
327.023
326.783
326.492
326.167
325.826
325.485
325.167
324.926
317.813
317.983
318.21
318.453
318.697
318.929
319.137
319.309
319.431
319.495
319.495
319.431
319.309
319.137
318.929
318.697
318.453
318.21
317.983
317.813
310.699
310.801
310.937
311.083
311.23
311.369
311.494
311.597
311.671
311.709
311.709
311.671
311.597
311.494
311.369
311.23
311.083
310.937
310.801
310.699
303.587
303.621
303.666
303.715
303.764
303.811
303.853
303.887
303.912
303.925
303.925
303.912
303.887
303.853
303.811
303.764
303.715
303.666
303.621
303.587
354.905
355.425
356.069
356.747
357.421
358.06
358.63
359.098
359.431
359.605
359.605
359.431
359.098
358.63
358.06
357.421
356.747
356.069
355.425
354.905
347.585
348.024
348.58
349.168
349.752
350.305
350.799
351.205
351.493
351.643
351.643
351.493
351.205
350.799
350.305
349.752
349.168
348.58
348.024
347.585
340.266
340.631
341.099
341.596
342.09
342.558
342.976
343.319
343.563
343.69
343.69
343.563
343.319
342.976
342.558
342.09
341.596
341.099
340.631
340.266
332.949
333.242
333.624
334.03
334.435
334.818
335.159
335.44
335.639
335.743
335.743
335.639
335.44
335.159
334.818
334.435
334.03
333.624
333.242
332.949
325.632
325.858
326.154
326.47
326.784
327.082
327.348
327.566
327.721
327.802
327.802
327.721
327.566
327.348
327.082
326.784
326.47
326.154
325.858
325.632
318.317
318.476
318.688
318.913
319.138
319.351
319.541
319.696
319.807
319.865
319.865
319.807
319.696
319.541
319.351
319.138
318.913
318.688
318.476
318.317
311.002
311.097
311.224
311.36
311.495
311.622
311.737
311.83
311.897
311.931
311.931
311.897
311.83
311.737
311.622
311.495
311.36
311.224
311.097
311.002
303.688
303.72
303.762
303.808
303.853
303.896
303.934
303.965
303.988
303.999
303.999
303.988
303.965
303.934
303.896
303.853
303.808
303.762
303.72
303.688
356.598
357.081
357.678
358.304
358.922
359.505
360.023
360.445
360.746
360.902
360.902
360.746
360.445
360.023
359.505
358.922
358.304
357.678
357.081
356.598
349.049
349.458
349.973
350.515
351.051
351.556
352.005
352.371
352.631
352.766
352.766
352.631
352.371
352.005
351.556
351.051
350.515
349.973
349.458
349.049
341.503
341.842
342.277
342.735
343.188
343.615
343.995
344.305
344.525
344.639
344.639
344.525
344.305
343.995
343.615
343.188
342.735
342.277
341.842
341.503
333.959
334.232
334.587
334.961
335.332
335.682
335.992
336.246
336.426
336.519
336.519
336.426
336.246
335.992
335.682
335.332
334.961
334.587
334.232
333.959
326.418
326.627
326.902
327.193
327.482
327.754
327.996
328.193
328.333
328.405
328.405
328.333
328.193
327.996
327.754
327.482
327.193
326.902
326.627
326.418
318.878
319.026
319.222
319.43
319.636
319.831
320.003
320.144
320.244
320.296
320.296
320.244
320.144
320.003
319.831
319.636
319.43
319.222
319.026
318.878
311.339
311.427
311.545
311.67
311.794
311.911
312.014
312.099
312.159
312.19
312.19
312.159
312.099
312.014
311.911
311.794
311.67
311.545
311.427
311.339
303.801
303.83
303.87
303.912
303.953
303.992
304.027
304.055
304.076
304.086
304.086
304.076
304.055
304.027
303.992
303.953
303.912
303.87
303.83
303.801
358.463
358.911
359.463
360.037
360.602
361.132
361.6
361.981
362.25
362.39
362.39
362.25
361.981
361.6
361.132
360.602
360.037
359.463
358.911
358.463
350.662
351.042
351.518
352.015
352.505
352.964
353.37
353.7
353.933
354.054
354.054
353.933
353.7
353.37
352.964
352.505
352.015
351.518
351.042
350.662
342.866
343.181
343.582
344.003
344.417
344.805
345.149
345.428
345.625
345.728
345.728
345.625
345.428
345.149
344.805
344.417
344.003
343.582
343.181
342.866
335.073
335.326
335.653
335.998
336.337
336.655
336.936
337.164
337.326
337.409
337.409
337.326
337.164
336.936
336.655
336.337
335.998
335.653
335.326
335.073
327.283
327.478
327.731
327.999
328.263
328.51
328.729
328.906
329.032
329.097
329.097
329.032
328.906
328.729
328.51
328.263
327.999
327.731
327.478
327.283
319.496
319.633
319.814
320.005
320.194
320.371
320.527
320.654
320.744
320.79
320.79
320.744
320.654
320.527
320.371
320.194
320.005
319.814
319.633
319.496
311.71
311.792
311.901
312.015
312.129
312.235
312.329
312.405
312.459
312.487
312.487
312.459
312.405
312.329
312.235
312.129
312.015
311.901
311.792
311.71
303.925
303.953
303.989
304.027
304.065
304.101
304.132
304.158
304.176
304.185
304.185
304.176
304.158
304.132
304.101
304.065
304.027
303.989
303.953
303.925
360.501
360.916
361.424
361.95
362.464
362.944
363.366
363.708
363.949
364.074
364.074
363.949
363.708
363.366
362.944
362.464
361.95
361.424
360.916
360.501
352.425
352.776
353.214
353.67
354.116
354.532
354.898
355.194
355.403
355.511
355.511
355.403
355.194
354.898
354.532
354.116
353.67
353.214
352.776
352.425
344.355
344.646
345.016
345.401
345.778
346.13
346.44
346.691
346.868
346.959
346.959
346.868
346.691
346.44
346.13
345.778
345.401
345.016
344.646
344.355
336.29
336.524
336.825
337.141
337.45
337.738
337.991
338.196
338.341
338.416
338.416
338.341
338.196
337.991
337.738
337.45
337.141
336.825
336.524
336.29
328.229
328.409
328.642
328.887
329.128
329.352
329.549
329.709
329.821
329.88
329.88
329.821
329.709
329.549
329.352
329.128
328.887
328.642
328.409
328.229
320.171
320.298
320.465
320.64
320.812
320.972
321.113
321.227
321.307
321.349
321.349
321.307
321.227
321.113
320.972
320.812
320.64
320.465
320.298
320.171
312.115
312.191
312.291
312.396
312.499
312.596
312.68
312.749
312.797
312.822
312.822
312.797
312.749
312.68
312.596
312.499
312.396
312.291
312.191
312.115
304.061
304.086
304.12
304.155
304.19
304.222
304.25
304.273
304.29
304.298
304.298
304.29
304.273
304.25
304.222
304.19
304.155
304.12
304.086
304.061
362.711
363.094
363.56
364.04
364.507
364.941
365.321
365.627
365.842
365.954
365.954
365.842
365.627
365.321
364.941
364.507
364.04
363.56
363.094
362.711
354.336
354.66
355.062
355.479
355.884
356.259
356.589
356.854
357.041
357.138
357.138
357.041
356.854
356.589
356.259
355.884
355.479
355.062
354.66
354.336
345.969
346.238
346.577
346.929
347.272
347.59
347.868
348.093
348.251
348.333
348.333
348.251
348.093
347.868
347.59
347.272
346.929
346.577
346.238
345.969
337.609
337.824
338.101
338.389
338.67
338.93
339.158
339.342
339.472
339.538
339.538
339.472
339.342
339.158
338.93
338.67
338.389
338.101
337.824
337.609
329.253
329.419
329.633
329.857
330.076
330.279
330.456
330.599
330.7
330.752
330.752
330.7
330.599
330.456
330.279
330.076
329.857
329.633
329.419
329.253
320.902
321.019
321.172
321.332
321.489
321.633
321.76
321.863
321.935
321.972
321.972
321.935
321.863
321.76
321.633
321.489
321.332
321.172
321.019
320.902
312.554
312.624
312.716
312.812
312.906
312.993
313.069
313.131
313.174
313.196
313.196
313.174
313.131
313.069
312.993
312.906
312.812
312.716
312.624
312.554
304.208
304.232
304.262
304.294
304.326
304.355
304.381
304.401
304.416
304.423
304.423
304.416
304.401
304.381
304.355
304.326
304.294
304.262
304.232
304.208
365.084
365.436
365.863
366.301
366.725
367.116
367.457
367.731
367.924
368.023
368.023
367.924
367.731
367.457
367.116
366.725
366.301
365.863
365.436
365.084
356.387
356.685
357.053
357.433
357.8
358.14
358.435
358.673
358.84
358.926
358.926
358.84
358.673
358.435
358.14
357.8
357.433
357.053
356.685
356.387
347.7
347.947
348.258
348.579
348.89
349.177
349.427
349.629
349.77
349.843
349.843
349.77
349.629
349.427
349.177
348.89
348.579
348.258
347.947
347.7
339.022
339.22
339.474
339.736
339.991
340.226
340.431
340.596
340.711
340.771
340.771
340.711
340.596
340.431
340.226
339.991
339.736
339.474
339.22
339.022
330.351
330.503
330.7
330.904
331.102
331.285
331.445
331.573
331.663
331.709
331.709
331.663
331.573
331.445
331.285
331.102
330.904
330.7
330.503
330.351
321.685
321.793
321.933
322.079
322.221
322.352
322.466
322.557
322.622
322.655
322.655
322.622
322.557
322.466
322.352
322.221
322.079
321.933
321.793
321.685
313.024
313.089
313.173
313.26
313.345
313.424
313.492
313.548
313.586
313.606
313.606
313.586
313.548
313.492
313.424
313.345
313.26
313.173
313.089
313.024
304.366
304.387
304.415
304.445
304.473
304.5
304.522
304.541
304.554
304.561
304.561
304.554
304.541
304.522
304.5
304.473
304.445
304.415
304.387
304.366
367.596
367.92
368.31
368.709
369.093
369.446
369.753
369.998
370.169
370.258
370.258
370.169
369.998
369.753
369.446
369.093
368.709
368.31
367.92
367.596
358.553
358.827
359.165
359.51
359.844
360.15
360.415
360.628
360.777
360.854
360.854
360.777
360.628
360.415
360.15
359.844
359.51
359.165
358.827
358.553
349.525
349.752
350.037
350.329
350.612
350.871
351.096
351.276
351.402
351.467
351.467
351.402
351.276
351.096
350.871
350.612
350.329
350.037
349.752
349.525
340.51
340.692
340.924
341.164
341.395
341.607
341.792
341.939
342.042
342.095
342.095
342.042
341.939
341.792
341.607
341.395
341.164
340.924
340.692
340.51
331.505
331.645
331.825
332.011
332.191
332.356
332.5
332.615
332.695
332.736
332.736
332.695
332.615
332.5
332.356
332.191
332.011
331.825
331.645
331.505
322.508
322.607
322.736
322.869
322.997
323.116
323.218
323.3
323.358
323.387
323.387
323.358
323.3
323.218
323.116
322.997
322.869
322.736
322.607
322.508
313.518
313.577
313.654
313.734
313.811
313.882
313.944
313.993
314.028
314.045
314.045
314.028
313.993
313.944
313.882
313.811
313.734
313.654
313.577
313.518
304.531
304.551
304.576
304.603
304.629
304.653
304.674
304.69
304.702
304.708
304.708
304.702
304.69
304.674
304.653
304.629
304.603
304.576
304.551
304.531
370.181
370.479
370.837
371.201
371.55
371.869
372.145
372.365
372.518
372.597
372.597
372.518
372.365
372.145
371.869
371.55
371.201
370.837
370.479
370.181
360.773
361.025
361.335
361.65
361.953
362.23
362.469
362.66
362.794
362.862
362.862
362.794
362.66
362.469
362.23
361.953
361.65
361.335
361.025
360.773
351.388
351.597
351.858
352.125
352.382
352.616
352.819
352.981
353.094
353.152
353.152
353.094
352.981
352.819
352.616
352.382
352.125
351.858
351.597
351.388
342.023
342.191
342.404
342.623
342.833
343.025
343.191
343.324
343.417
343.464
343.464
343.417
343.324
343.191
343.025
342.833
342.623
342.404
342.191
342.023
332.675
332.804
332.969
333.14
333.303
333.453
333.582
333.686
333.758
333.795
333.795
333.758
333.686
333.582
333.453
333.303
333.14
332.969
332.804
332.675
323.341
323.432
323.55
323.672
323.789
323.896
323.988
324.062
324.114
324.14
324.14
324.114
324.062
323.988
323.896
323.789
323.672
323.55
323.432
323.341
314.016
314.071
314.141
314.215
314.285
314.349
314.405
314.449
314.48
314.496
314.496
314.48
314.449
314.405
314.349
314.285
314.215
314.141
314.071
314.016
304.698
304.716
304.74
304.764
304.788
304.809
304.828
304.843
304.853
304.859
304.859
304.853
304.843
304.828
304.809
304.788
304.764
304.74
304.716
304.698
372.674
372.95
373.28
373.614
373.934
374.224
374.475
374.674
374.813
374.884
374.884
374.813
374.674
374.475
374.224
373.934
373.614
373.28
372.95
372.674
362.888
363.121
363.407
363.697
363.974
364.227
364.445
364.618
364.739
364.801
364.801
364.739
364.618
364.445
364.227
363.974
363.697
363.407
363.121
362.888
353.143
353.337
353.578
353.824
354.06
354.274
354.459
354.606
354.708
354.761
354.761
354.708
354.606
354.459
354.274
354.06
353.824
353.578
353.337
353.143
343.436
343.592
343.789
343.99
344.183
344.359
344.511
344.631
344.715
344.758
344.758
344.715
344.631
344.511
344.359
344.183
343.99
343.789
343.592
343.436
333.759
333.879
334.032
334.189
334.34
334.477
334.595
334.689
334.754
334.788
334.788
334.754
334.689
334.595
334.477
334.34
334.189
334.032
333.879
333.759
324.108
324.192
324.302
324.414
324.522
324.62
324.704
324.771
324.818
324.842
324.842
324.818
324.771
324.704
324.62
324.522
324.414
324.302
324.192
324.108
314.474
314.524
314.59
314.657
314.722
314.781
314.832
314.872
314.9
314.915
314.915
314.9
314.872
314.832
314.781
314.722
314.657
314.59
314.524
314.474
304.851
304.867
304.889
304.912
304.934
304.954
304.971
304.984
304.994
304.998
304.998
304.994
304.984
304.971
304.954
304.934
304.912
304.889
304.867
304.851
374.635
374.894
375.205
375.518
375.817
376.088
376.321
376.506
376.634
376.7
376.7
376.634
376.506
376.321
376.088
375.817
375.518
375.205
374.894
374.635
364.488
364.708
364.977
365.25
365.511
365.747
365.95
366.112
366.224
366.281
366.281
366.224
366.112
365.95
365.747
365.511
365.25
364.977
364.708
364.488
354.43
354.613
354.841
355.073
355.295
355.496
355.669
355.806
355.902
355.951
355.951
355.902
355.806
355.669
355.496
355.295
355.073
354.841
354.613
354.43
344.446
344.594
344.78
344.971
345.153
345.318
345.46
345.573
345.652
345.692
345.692
345.652
345.573
345.46
345.318
345.153
344.971
344.78
344.594
344.446
334.52
334.634
334.779
334.928
335.07
335.199
335.31
335.398
335.459
335.49
335.49
335.459
335.398
335.31
335.199
335.07
334.928
334.779
334.634
334.52
324.638
324.719
324.822
324.929
325.031
325.123
325.203
325.266
325.31
325.332
325.332
325.31
325.266
325.203
325.123
325.031
324.929
324.822
324.719
324.638
314.787
314.835
314.898
314.962
315.023
315.079
315.126
315.164
315.191
315.204
315.204
315.191
315.164
315.126
315.079
315.023
314.962
314.898
314.835
314.787
304.955
304.971
304.992
305.013
305.034
305.052
305.069
305.081
305.09
305.095
305.095
305.09
305.081
305.069
305.052
305.034
305.013
304.992
304.971
304.955
)
;

boundaryField
{
    hotSide
    {
        type            fixedGradient;
        gradient        nonuniform List<scalar> 
400
(
497.106
498.655
501.762
506.442
512.719
520.621
530.182
541.436
554.422
569.176
585.735
604.132
624.398
646.562
670.647
696.676
724.664
754.627
786.576
820.519
507.292
508.761
511.709
516.159
522.141
529.692
538.857
549.683
562.215
576.503
592.591
610.521
630.331
652.052
675.715
701.342
728.953
758.563
790.184
823.823
518.316
519.688
522.448
526.624
532.256
539.396
548.098
558.424
570.435
584.19
599.744
617.148
636.448
657.681
680.88
706.071
733.276
762.508
793.781
827.1
529.994
531.255
533.795
537.654
542.883
549.549
557.724
567.486
578.91
592.07
607.034
623.863
642.609
663.316
686.021
710.752
737.53
766.37
797.284
830.277
542.001
543.136
545.43
548.933
553.714
559.855
567.45
576.594
587.382
599.903
614.239
630.459
648.626
668.788
690.984
715.245
741.592
770.039
800.595
833.264
553.836
554.836
556.867
559.992
564.296
569.885
576.871
585.373
595.505
607.371
621.068
636.677
654.266
673.888
695.585
719.388
745.318
773.387
803.603
835.966
564.822
565.686
567.455
570.203
574.037
579.081
585.473
593.351
602.848
614.089
627.179
642.211
659.259
678.38
699.618
723.002
748.554
776.283
806.194
838.284
574.145
574.888
576.42
578.831
582.243
586.803
592.667
599.996
608.939
619.635
632.202
646.74
663.327
682.024
702.875
725.91
751.147
778.595
808.255
840.123
580.968
581.618
582.969
585.122
588.214
592.406
597.872
604.788
613.317
623.607
635.787
649.96
666.21
684.598
705.169
727.951
752.963
780.209
809.691
841.4
584.584
585.182
586.435
588.448
591.365
595.358
600.61
607.303
615.609
625.683
637.656
651.636
667.707
685.931
706.355
729.005
753.898
781.039
810.427
842.055
584.584
585.182
586.435
588.448
591.365
595.358
600.61
607.303
615.609
625.683
637.656
651.636
667.707
685.931
706.355
729.005
753.898
781.039
810.427
842.055
580.968
581.618
582.969
585.122
588.214
592.406
597.872
604.788
613.317
623.607
635.787
649.96
666.21
684.598
705.169
727.951
752.963
780.209
809.691
841.4
574.145
574.888
576.42
578.831
582.243
586.803
592.667
599.996
608.939
619.635
632.202
646.74
663.327
682.024
702.875
725.91
751.147
778.595
808.255
840.123
564.822
565.686
567.455
570.203
574.037
579.081
585.473
593.351
602.848
614.089
627.179
642.211
659.259
678.38
699.618
723.002
748.554
776.283
806.194
838.284
553.836
554.836
556.867
559.992
564.296
569.885
576.871
585.373
595.505
607.371
621.068
636.677
654.266
673.888
695.585
719.388
745.318
773.387
803.603
835.966
542.001
543.136
545.43
548.933
553.714
559.855
567.45
576.594
587.382
599.903
614.239
630.459
648.626
668.788
690.984
715.245
741.592
770.039
800.595
833.264
529.994
531.255
533.795
537.654
542.883
549.549
557.724
567.486
578.91
592.07
607.034
623.863
642.609
663.316
686.021
710.752
737.53
766.37
797.284
830.277
518.316
519.688
522.448
526.624
532.256
539.396
548.098
558.424
570.435
584.19
599.744
617.148
636.448
657.681
680.88
706.071
733.276
762.508
793.781
827.1
507.292
508.761
511.709
516.159
522.141
529.692
538.857
549.683
562.215
576.503
592.591
610.521
630.331
652.052
675.715
701.342
728.953
758.563
790.184
823.823
497.106
498.655
501.762
506.442
512.719
520.621
530.182
541.436
554.422
569.176
585.735
604.132
624.398
646.562
670.647
696.676
724.664
754.627
786.576
820.519
)
;
    }
    coldSide
    {
        type            mixed;
        refValue        uniform 300;
        refGradient     uniform 0;
        valueFraction   uniform 0.991591;
        source          uniform 0;
        value           nonuniform List<scalar> 
400
(
300.026
300.027
300.027
300.027
300.027
300.028
300.028
300.029
300.029
300.03
300.031
300.032
300.033
300.034
300.035
300.037
300.038
300.04
300.041
300.042
300.027
300.027
300.027
300.027
300.028
300.028
300.028
300.029
300.03
300.03
300.031
300.032
300.033
300.034
300.036
300.037
300.038