/*--------------------------------*- C++ -*----------------------------------*\
| =========                 |                                                 |
| \\      /  F ield         | OpenFOAM: The Open Source CFD Toolbox           |
|  \\    /   O peration     | Version:  2212                                  |
|   \\  /    A nd           | Website:  www.openfoam.com                      |
|    \\/     M anipulation  |                                                 |
\*---------------------------------------------------------------------------*/
FoamFile
{
    version     2.0;
    format      ascii;
    arch        "LSB;label=32;scalar=64";
    class       volScalarField;
    location    "./ITHACAoutput/true/17.6";
    object      error;
}
// * * * * * * * * * * * * * * * * * * * * * * * * * * * * * * * * * * * * * //

dimensions      [0 0 0 1 0 0 0];

internalField   nonuniform List<scalar> 
3200
(
1.35779
1.24827
1.16718
1.08453
1.13901
1.23645
1.38948
1.5218
1.65635
1.70761
1.85171
1.82913
1.88998
1.75859
1.90539
1.83939
1.91737
2.03176
2.17617
2.29145
1.14778
1.01371
0.945428
0.93154
0.904597
1.02653
1.1177
1.28544
1.29547
1.45461
1.49995
1.55121
1.514
1.49455
1.55416
1.5744
1.6261
1.69557
1.80177
1.98922
0.943553
0.855825
0.736439
0.794603
0.77602
0.809293
0.898908
0.974938
1.09772
1.10926
1.23598
1.23666
1.25374
1.19091
1.27634
1.1876
1.29378
1.43179
1.461
1.64347
0.731173
0.692391
0.505515
0.519481
0.651216
0.676759
0.662101
0.709634
0.827839
0.908016
0.926053
0.996282
0.968138
0.956877
1.00933
0.968977
1.00747
1.06237
1.24548
1.29282
0.575444
0.534272
0.441808
0.329705
0.384591
0.486111
0.519898
0.585938
0.667707
0.735365
0.680742
0.666633
0.779367
0.709606
0.687164
0.811127
0.785337
0.806169
0.888329
0.992972
0.368163
0.263328
0.301709
0.33441
0.333697
0.323699
0.358928
0.44261
0.454329
0.528478
0.513344
0.514885
0.513842
0.564099
0.465546
0.542942
0.489351
0.608665
0.659017
0.70734
0.134018
0.222375
0.144681
0.16692
0.238368
0.184868
0.222711
0.241805
0.282537
0.318638
0.270436
0.330616
0.354163
0.320605
0.266127
0.262704
0.322329
0.352647
0.386783
0.407943
0.125857
0.0311871
0.101821
0.0415406
0.0432172
0.0234069
0.0572917
0.0909523
0.151983
0.0749406
0.117619
0.129307
0.133183
0.0859672
0.134505
0.0634664
0.0650154
0.0541211
0.0697385
0.122181
0.540582
0.411875
0.317034
0.277318
0.200578
0.334864
0.414027
0.563666
0.756934
0.789238
0.886417
0.94645
0.952701
0.942829
0.936226
0.965817
1.02809
1.18443
1.27634
1.53769
0.502441
0.404097
0.266177
0.207825
0.222291
0.267724
0.427204
0.474015
0.551464
0.711774
0.816212
0.829277
0.842732
0.743026
0.752599
0.818877
0.856635
1.00716
1.057
1.35909
0.434039
0.337459
0.218961
0.169649
0.161678
0.231105
0.366412
0.335915
0.495465
0.570012
0.597674
0.628831
0.587693
0.67075
0.6455
0.699303
0.72694
0.868141
0.997275
1.1417
0.34759
0.312402
0.0909927
0.159112
0.116535
0.179698
0.236768
0.340295
0.374141
0.473307
0.489756
0.578377
0.472061
0.496648
0.457129
0.517252
0.592283
0.639642
0.874103
0.921554
0.307499
0.122464
0.138736
0.0507321
0.0805722
0.083175
0.153909
0.265464
0.293296
0.289799
0.451393
0.34956
0.339837
0.459223
0.367726
0.471059
0.453183
0.568112
0.669224
0.601094
0.159501
0.079135
0.068234
0.0722711
-0.0114071
0.135797
0.106487
0.176477
0.132928
0.25978
0.312675
0.252945
0.237629
0.252431
0.308369
0.289873
0.31607
0.381869
0.464027
0.500355
0.088995
0.0247284
0.0699525
0.0852858
0.0359246
-0.00516181
0.0678972
0.0968219
0.093417
0.100026
0.128555
0.177883
0.142345
0.163761
0.135865
0.221645
0.179311
0.237784
0.25378
0.255478
0.0406364
0.0387831
-0.0137394
0.0411618
-0.00885091
0.0654718
-0.0543155
0.0225509
0.038085
-0.00462363
0.0908155
-0.0193214
0.0404214
0.0452325
0.119241
-0.00299645
0.0194831
0.131452
0.120143
0.135253
-0.431585
-0.583315
-0.721465
-0.790197
-0.726491
-0.798998
-0.681694
-0.532473
-0.413769
-0.373615
-0.249232
-0.281236
-0.247699
-0.244703
-0.14056
-0.102625
-0.0822904
0.0630425
0.258971
0.452953
-0.363344
-0.463924
-0.619902
-0.669182
-0.682066
-0.648437
-0.644979
-0.506546
-0.345159
-0.352868
-0.309104
-0.211937
-0.23682
-0.14453
-0.219468
-0.161169
-0.0847014
0.137351
0.270155
0.482792
-0.266044
-0.321241
-0.556807
-0.556362
-0.619366
-0.500551
-0.518974
-0.420411
-0.301466
-0.261184
-0.192321
-0.259211
-0.243355
-0.179284
-0.192237
-0.129667
-0.096805
0.104018
0.198423
0.324532
-0.227319
-0.319828
-0.40087
-0.423944
-0.496818
-0.472154
-0.397647
-0.372536
-0.324664
-0.230046
-0.197418
-0.163559
-0.205788
-0.150453
-0.124737
-0.0564621
-0.0190533
0.017676
0.191718
0.283775
-0.174383
-0.21106
-0.337216
-0.351091
-0.277372
-0.409259
-0.355749
-0.327002
-0.195765
-0.189693
-0.196704
-0.0877317
-0.124169
-0.134852
-0.117052
-0.0717939
-0.0198736
0.0192079
0.131506
0.231175
-0.0537895
-0.229141
-0.201763
-0.216135
-0.268569
-0.311418
-0.195334
-0.220851
-0.114799
-0.164651
-0.109583
-0.145224
-0.128457
-0.0778546
-0.148624
-0.0695866
-0.0480568
0.128376
0.167006
0.178892
-0.090647
-0.134307
-0.0890824
-0.226687
-0.146978
-0.146142
-0.145767
-0.0645429
-0.0877626
-0.110099
-0.106088
-0.0705558
-0.0106678
-0.0611785
-0.0797025
-0.00871127
-0.00457775
0.0360552
0.091321
0.0922432
-0.0168155
-0.0139664
-0.0335244
-0.0590816
-0.0491198
-0.0629213
-0.0327682
-0.0240927
0.0106104
-0.0398126
-0.03463
-0.037119
-0.0196322
-0.055829
-0.00112676
0.120196
-0.0205126
0.0621665
0.0282827
0.10034
-1.26965
-1.48916
-1.76279
-1.91826
-1.90782
-1.92328
-1.82405
-1.75612
-1.65687
-1.63892
-1.59052
-1.54532
-1.47956
-1.45962
-1.43913
-1.3453
-1.2283
-1.01136
-0.687815
-0.441041
-1.0662
-1.31846
-1.52481
-1.53945
-1.5986
-1.64001
-1.5906
-1.46157
-1.39071
-1.36471
-1.38511
-1.357
-1.33653
-1.19088
-1.2103
-1.13091
-1.07255
-0.854864
-0.643875
-0.457029
-0.997024
-1.12625
-1.22131
-1.30152
-1.38104
-1.40476
-1.31853
-1.34304
-1.19576
-1.1025
-1.08922
-1.1353
-1.09073
-1.06628
-1.01678
-0.989044
-0.86655
-0.668467
-0.491064
-0.374755
-0.811715
-0.900085
-0.998189
-1.1039
-1.09826
-1.06986
-1.09919
-1.09873
-0.980915
-0.940738
-0.843789
-0.942098
-0.896193
-0.873932
-0.819265
-0.816285
-0.721141
-0.554392
-0.41517
-0.313717
-0.589107
-0.693807
-0.809067
-0.855682
-0.913712
-0.889312
-0.877243
-0.804063
-0.806993
-0.745303
-0.771263
-0.652191
-0.696395
-0.623648
-0.652703
-0.631561
-0.538619
-0.453288
-0.280892
-0.280711
-0.444608
-0.546459
-0.613905
-0.559374
-0.635489
-0.740345
-0.574475
-0.594521
-0.559824
-0.537582
-0.51956
-0.508617
-0.45943
-0.548242
-0.430812
-0.474841
-0.406404
-0.348766
-0.167388
-0.192633
-0.253468
-0.2518
-0.298515
-0.400978
-0.372352
-0.342106
-0.399114
-0.316417
-0.313656
-0.273263
-0.315869
-0.326283
-0.23598
-0.30684
-0.359174
-0.319024
-0.233662
-0.259709
-0.196588
-0.0993364
-0.0215125
-0.136555
-0.141861
-0.155546
-0.206836
-0.141884
-0.0890077
-0.108233
-0.0875833
-0.145497
-0.0662525
-0.0962434
-0.12883
-0.075784
-0.0580918
-0.0913852
-0.0702919
-0.0477282
-0.0542095
-0.0368069
-2.20297
-2.43019
-2.71203
-2.83283
-2.96101
-2.9676
-2.926
-2.9098
-2.86057
-2.75854
-2.74954
-2.69001
-2.61367
-2.60918
-2.52153
-2.43265
-2.21647
-2.02587
-1.69551
-1.40581
-1.85526
-2.03137
-2.28913
-2.44937
-2.54251
-2.63854
-2.51987
-2.48085
-2.40241
-2.41892
-2.34221
-2.29873
-2.24869
-2.25424
-2.14505
-2.07086
-1.95606
-1.77123
-1.50329
-1.19957
-1.64075
-1.81925
-1.94859
-2.10547
-2.18451
-2.10155
-2.13679
-2.1605
-2.04732
-2.00442
-1.9446
-1.93158
-1.91244
-1.87163
-1.87888
-1.69236
-1.6214
-1.50256
-1.23639
-1.04441
-1.28295
-1.42355
-1.53803
-1.65403
-1.72638
-1.79095
-1.72115
-1.66884
-1.66155
-1.61716
-1.6327
-1.60962
-1.5084
-1.5448
-1.44516
-1.40038
-1.29599
-1.2433
-0.957432
-0.803298
-1.05494
-1.1732
-1.18847
-1.2797
-1.38649
-1.35498
-1.32843
-1.36618
-1.36516
-1.2687
-1.25956
-1.28626
-1.23683
-1.11548
-1.10995
-1.05686
-1.01114
-0.881511
-0.79851
-0.678156
-0.641601
-0.810673
-0.895935
-0.903506
-1.06455
-0.986795
-0.934609
-0.981576
-0.960146
-0.855796
-0.905702
-0.875677
-0.926981
-0.909937
-0.831637
-0.792091
-0.757199
-0.714826
-0.60489
-0.470254
-0.38839
-0.439833
-0.504635
-0.615718
-0.552214
-0.630838
-0.540362
-0.605088
-0.558476
-0.553898
-0.557336
-0.574337
-0.501814
-0.486332
-0.46837
-0.469977
-0.433034
-0.40126
-0.317939
-0.31199
-0.176687
-0.183911
-0.179019
-0.148768
-0.268251
-0.208303
-0.220111
-0.221217
-0.179128
-0.171983
-0.230969
-0.279682
-0.18911
-0.202079
-0.181564
-0.15432
-0.128338
-0.127831
-0.217713
-0.0579956
-2.94166
-3.21021
-3.59134
-3.65586
-3.81151
-3.92978
-3.91327
-3.94745
-3.85602
-3.81621
-3.79404
-3.74937
-3.71687
-3.64539
-3.5312
-3.38943
-3.18478
-2.89439
-2.61594
-2.21686
-2.4927
-2.77378
-2.99211
-3.19107
-3.31636
-3.45555
-3.35617
-3.37589
-3.31648
-3.30458
-3.24772
-3.24915
-3.18501
-3.18329
-3.09921
-2.97742
-2.78002
-2.51135
-2.24825
-1.96347
-2.11488
-2.39887
-2.58763
-2.7675
-2.82138
-2.86034
-2.93195
-2.88983
-2.83368
-2.80849
-2.78262
-2.754
-2.67396
-2.65209
-2.6054
-2.45176
-2.27227
-2.1422
-1.83442
-1.62589
-1.76005
-1.92646
-2.04535
-2.16961
-2.25359
-2.32437
-2.35493
-2.26529
-2.31199
-2.27185
-2.30242
-2.28818
-2.28269
-2.20586
-2.15896
-2.04915
-1.91907
-1.69628
-1.53131
-1.31911
-1.4043
-1.50509
-1.66693
-1.74048
-1.79652
-1.82755
-1.8396
-1.81006
-1.7964
-1.81942
-1.7356
-1.68941
-1.71255
-1.72443
-1.63215
-1.49995
-1.50293
-1.28614
-1.10906
-1.1055
-0.956758
-1.044
-1.18248
-1.23465
-1.28032
-1.31536
-1.33336
-1.28876
-1.3086
-1.28724
-1.3403
-1.22954
-1.18012
-1.22221
-1.12866
-1.10327
-1.02936
-0.870242
-0.747676
-0.694251
-0.535378
-0.642696
-0.68722
-0.755464
-0.829052
-0.80953
-0.791703
-0.810511
-0.762216
-0.771051
-0.760205
-0.787899
-0.763679
-0.817509
-0.72585
-0.629326
-0.632112
-0.582544
-0.502613
-0.482604
-0.251815
-0.264438
-0.225067
-0.255491
-0.279414
-0.26538
-0.271683
-0.223609
-0.228097
-0.254469
-0.254209
-0.261916
-0.282604
-0.255002
-0.211852
-0.222284
-0.232657
-0.159776
-0.138861
-0.147184
-3.59443
-3.85824
-4.27588
-4.4767
-4.66758
-4.77077
-4.86069
-4.83881
-4.81464
-4.80719
-4.74096
-4.71288
-4.59461
-4.52947
-4.46156
-4.28982
-4.02762
-3.67252
-3.31187
-2.90428
-3.06338
-3.38376
-3.65995
-3.78324
-4.0774
-4.1226
-4.19754
-4.23023
-4.14725
-4.10747
-4.06551
-4.08841
-3.96989
-3.97454
-3.75384
-3.68431
-3.37994
-3.15796
-2.81482
-2.5045
-2.58029
-2.80596
-3.01763
-3.29322
-3.37314
-3.47933
-3.4856
-3.46193
-3.48094
-3.46017
-3.48075
-3.45919
-3.38971
-3.33786
-3.20815
-3.00549
-2.88658
-2.72912
-2.3622
-2.11978
-1.98734
-2.31137
-2.45457
-2.68445
-2.7908
-2.80004
-2.82091
-2.86428
-2.90097
-2.91998
-2.87061
-2.88862
-2.80701
-2.6825
-2.61801
-2.56546
-2.37273
-2.18436
-1.88868
-1.74116
-1.65786
-1.73733
-1.91554
-2.10273
-2.13622
-2.15522
-2.25088
-2.23566
-2.18995
-2.22111
-2.19689
-2.24249
-2.14196
-2.12272
-2.10115
-1.93069
-1.91995
-1.72422
-1.49299
-1.33878
-1.16354
-1.28472
-1.3777
-1.44709
-1.55562
-1.5558
-1.69567
-1.61184
-1.55611
-1.64323
-1.60863
-1.60911
-1.59081
-1.48722
-1.40611
-1.37351
-1.35416
-1.19257
-1.09685
-0.965344
-0.672115
-0.833181
-0.790482
-0.884412
-0.881506
-0.930984
-0.953487
-0.946826
-0.925879
-0.946783
-0.974116
-0.989906
-0.9288
-0.910657
-0.878124
-0.836033
-0.844928
-0.724397
-0.570774
-0.545094
-0.28204
-0.230562
-0.245553
-0.247389
-0.255631
-0.272784
-0.314722
-0.370777
-0.363492
-0.336217
-0.27518
-0.289086
-0.248254
-0.263784
-0.285344
-0.27282
-0.227217
-0.210033
-0.226925
-0.205381
-3.9717
-4.4186
-4.82193
-5.04346
-5.33457
-5.48111
-5.54499
-5.63223
-5.66365
-5.63316
-5.61109
-5.54981
-5.34247
-5.32104
-5.23142
-4.97638
-4.67648
-4.33318
-3.9342
-3.52106
-3.43974
-3.73301
-4.14394
-4.40031
-4.588
-4.76338
-4.83609
-4.8695
-4.81483
-4.77454
-4.76847
-4.7026
-4.68978
-4.5909
-4.42934
-4.26359
-4.00078
-3.65418
-3.42178
-3.05706
-2.93806
-3.10406
-3.45182
-3.71434
-3.89326
-4.02163
-4.06279
-4.07357
-4.07137
-4.07105
-4.03589
-3.97984
-3.95815
-3.92819
-3.75646
-3.64603
-3.38394
-3.05796
-2.82495
-2.56765
-2.30922
-2.55717
-2.81934
-3.00805
-3.12117
-3.22742
-3.38369
-3.31661
-3.33809
-3.3198
-3.25695
-3.27844
-3.17847
-3.16288
-3.10041
-2.97591
-2.72589
-2.50723
-2.36173
-2.02361
-1.79054
-2.04503
-2.19754
-2.34488
-2.45657
-2.54651
-2.62481
-2.46387
-2.56791
-2.58548
-2.58716
-2.52892
-2.54641
-2.51672
-2.43396
-2.25151
-2.14718
-1.98221
-1.8218
-1.50691
-1.25189
-1.48268
-1.61633
-1.59636
-1.7716
-1.85036
-1.83718
-1.85498
-1.90134
-1.85252
-1.83973
-1.80717
-1.76979
-1.7992
-1.7191
-1.63516
-1.47023
-1.44586
-1.27303
-1.14691
-0.786734
-0.860717
-0.926623
-0.973946
-1.07892
-1.12051
-1.07898
-1.13939
-1.12002
-1.13175
-1.04766
-1.02069
-1.06791
-1.01345
-0.938438
-1.02485
-0.956501
-0.818937
-0.813545
-0.696786
-0.251567
-0.239637
-0.364589
-0.276473
-0.344899
-0.375156
-0.4086
-0.371618
-0.350024
-0.339227
-0.424074
-0.366734
-0.305063
-0.347766
-0.314656
-0.360514
-0.324422
-0.265584
-0.203346
-0.219511
-4.29768
-4.80194
-5.11046
-5.52088
-5.89477
-6.04659
-6.10661
-6.26331
-6.25083
-6.26617
-6.23428
-6.13014
-6.15503
-5.95136
-5.84525
-5.48858
-5.20865
-4.79701
-4.32881
-3.97646
-3.74685
-4.06486
-4.40398
-4.72401
-4.94554
-5.15929
-5.30462
-5.39246
-5.41536
-5.36774
-5.35926
-5.32739
-5.28297
-5.10456
-4.96635
-4.72574
-4.49308
-4.16019
-3.78723
-3.34934
-3.13735
-3.44309
-3.79282
-3.98783
-4.22601
-4.38254
-4.44109
-4.5192
-4.58701
-4.52592
-4.51998
-4.42864
-4.37733
-4.32266
-4.17711
-3.99375
-3.76505
-3.51803
-3.095
-2.85987
-2.53623
-2.77135
-3.03733
-3.29484
-3.51025
-3.54216
-3.66061
-3.66674
-3.74422
-3.69727
-3.75309
-3.68316
-3.62963
-3.47077
-3.45345
-3.28096
-3.02939
-2.76537
-2.56747
-2.29575
-1.9233
-2.10329
-2.30768
-2.53253
-2.67661
-2.74694
-2.8791
-2.89498
-2.95195
-2.92255
-2.85687
-2.85713
-2.84839
-2.71967
-2.65271
-2.63805
-2.37116
-2.16277
-1.95472
-1.77381
-1.43877
-1.55426
-1.74291
-1.82749
-1.86988
-1.93129
-1.94548
-2.06232
-2.08597
-2.08013
-2.09216
-2.03585
-1.96835
-1.94217
-1.93681
-1.7968
-1.74764
-1.58581
-1.40257
-1.19414
-0.826622
-0.894763
-1.00388
-1.0876
-1.0925
-1.19574
-1.23047
-1.28159
-1.26049
-1.31964
-1.20403
-1.25925
-1.18776
-1.15039
-1.10294
-1.14192
-0.979816
-0.914228
-0.781327
-0.815805
-0.276147
-0.283831
-0.403136
-0.318789
-0.357094
-0.408028
-0.418859
-0.438351
-0.409417
-0.432882
-0.442747
-0.456922
-0.400645
-0.338064
-0.357863
-0.282144
-0.352292
-0.336253
-0.26743
-0.226862
-4.43223
-4.96001
-5.37761
-5.68995
-6.16578
-6.35846
-6.60228
-6.66614
-6.76978
-6.69648
-6.70376
-6.69657
-6.56106
-6.39306
-6.23299
-5.83327
-5.57671
-5.14982
-4.58085
-4.15471
-3.91773
-4.33419
-4.60563
-4.96967
-5.26582
-5.47548
-5.66467
-5.73405
-5.78351
-5.81389
-5.77682
-5.83631
-5.63542
-5.51748
-5.29252
-5.07712
-4.70815
-4.42099
-3.93387
-3.53726
-3.17311
-3.51417
-3.91328
-4.16105
-4.45397
-4.66094
-4.77223
-4.82015
-4.8746
-4.95118
-4.9139
-4.793
-4.7457
-4.62695
-4.43507
-4.30998
-3.94958
-3.6363
-3.32643
-2.94874
-2.62999
-2.94561
-3.19065
-3.47012
-3.54929
-3.81253
-3.92651
-4.00324
-3.92038
-3.98641
-4.01576
-3.91787
-3.87395
-3.78856
-3.68871
-3.46982
-3.23261
-2.95988
-2.72056
-2.474
-2.03209
-2.22895
-2.41612
-2.7219
-2.85186
-2.89561
-2.99178
-3.05091
-3.14654
-3.11719
-3.08887
-3.10588
-3.02554
-2.93175
-2.81337
-2.7316
-2.50455
-2.34307
-2.06709
-1.84906
-1.4607
-1.55622
-1.75071
-1.9085
-2.06422
-2.07198
-2.19503
-2.12894
-2.28362
-2.17269
-2.21057
-2.23318
-2.14668
-2.1299
-2.01912
-1.88982
-1.7808
-1.69603
-1.51631
-1.35573
-0.911883
-1.01489
-1.06273
-1.107
-1.19961
-1.31398
-1.28879
-1.36169
-1.35866
-1.38334
-1.29159
-1.27451
-1.28496
-1.30399
-1.19182
-1.18788
-1.09991
-1.02717
-0.854134
-0.783744
-0.228301
-0.283365
-0.312931
-0.40624
-0.396735
-0.43961
-0.439318
-0.431432
-0.5058
-0.491769
-0.436083
-0.447469
-0.455166
-0.449192
-0.403862
-0.368774
-0.327311
-0.310384
-0.324562
-0.28993
-4.48504
-4.96078
-5.49093
-5.88931
-6.31062
-6.60265
-6.76245
-6.96296
-7.06879
-7.06525
-7.01454
-7.00413
-6.76242
-6.66536
-6.35355
-6.11566
-5.67308
-5.17096
-4.68178
-4.25812
-3.79327
-4.26321
-4.66334
-5.0719
-5.46002
-5.68453
-5.90289
-6.01433
-6.09735
-6.14177
-6.00846
-6.02843
-5.93833
-5.75748
-5.51325
-5.24721
-4.86599
-4.58475
-4.05929
-3.60563
-3.16063
-3.5464
-3.96427
-4.25371
-4.57777
-4.74193
-4.97921
-5.05133
-5.02055
-5.11931
-5.09097
-4.99172
-5.06467
-4.85927
-4.5963
-4.40165
-4.17265
-3.74235
-3.41636
-2.95918
-2.58739
-2.9217
-3.19051
-3.46659
-3.78894
-3.98118
-4.00626
-4.14992
-4.16433
-4.14922
-4.16154
-4.12732
-4.09091
-3.9916
-3.79674
-3.53739
-3.42398
-3.09972
-2.72051
-2.44181
-1.96973
-2.24142
-2.52783
-2.6853
-2.93034
-3.02057
-3.116
-3.19309
-3.22052
-3.28768
-3.24794
-3.18771
-3.13533
-3.03873
-2.97067
-2.79169
-2.61454
-2.43063
-2.12681
-1.89959
-1.43744
-1.58044
-1.7618
-1.90389
-2.04506
-2.18992
-2.2039
-2.31576
-2.28236
-2.28722
-2.38945
-2.27533
-2.25471
-2.18975
-2.0713
-2.07907
-1.84801
-1.67964
-1.47952
-1.3549
-0.897019
-0.965585
-1.05133
-1.14822
-1.2168
-1.34717
-1.3074
-1.32598
-1.42739
-1.38054
-1.43928
-1.36142
-1.28749
-1.30269
-1.36931
-1.22738
-1.0836
-1.03056
-0.896502
-0.768999
-0.342137
-0.330457
-0.36791
-0.402052
-0.453655
-0.450133
-0.438014
-0.466614
-0.398827
-0.532313
-0.477445
-0.374218
-0.386617
-0.41434
-0.427748
-0.339742
-0.342725
-0.342761
-0.297641
-0.353225
-4.22328
-4.80017
-5.32898
-5.85403
-6.31879
-6.63657
-6.89268
-6.98175
-7.21802
-7.19081
-7.20581
-7.09728
-6.97845
-6.70973
-6.51739
-6.11616
-5.77117
-5.1984
-4.60853
-4.023
-3.60785
-4.01816
-4.59907
-5.05752
-5.36248
-5.68877
-5.86906
-6.03693
-6.13945
-6.17836
-6.14472
-6.14105
-6.0224
-5.7618
-5.5446
-5.26801
-4.89215
-4.37768
-3.93783
-3.52554
-3.08694
-3.44791
-3.75563
-4.19146
-4.53131
-4.83114
-5.00321
-5.10102
-5.24441
-5.20324
-5.20075
-5.17668
-5.04943
-4.88381
-4.68309
-4.45491
-4.08491
-3.7156
-3.28186
-2.95713
-2.43961
-2.76018
-3.10542
-3.39768
-3.74025
-3.84902
-3.96446
-4.19873
-4.23294
-4.25894
-4.17456
-4.1485
-4.10719
-3.93499
-3.86193
-3.57173
-3.38021
-2.9866
-2.66272
-2.3814
-1.92113
-2.19137
-2.45968
-2.7086
-2.82646
-3.05338
-3.16782
-3.14205
-3.2483
-3.27542
-3.3191
-3.20932
-3.17403
-3.12312
-2.98054
-2.80767
-2.5375
-2.37901
-2.08149
-1.83873
-1.29082
-1.56675
-1.79971
-1.88724
-2.06343
-2.20023
-2.27629
-2.2866
-2.25682
-2.39061
-2.4031
-2.32496
-2.28331
-2.25817
-2.11027
-1.99781
-1.86168
-1.69163
-1.45075
-1.26046
-0.824631
-0.884729
-1.03057
-1.11817
-1.23474
-1.31823
-1.30704
-1.34502
-1.3488
-1.3721
-1.44364
-1.43844
-1.34547
-1.34398
-1.32948
-1.19169
-1.05364
-0.995988
-0.807778
-0.790583
-0.297665
-0.31896
-0.35572
-0.393917
-0.394703
-0.494067
-0.482427
-0.472618
-0.492638
-0.437314
-0.518787
-0.437348
-0.373212
-0.441593
-0.412934
-0.405626
-0.335451
-0.31142
-0.34368
-0.258866
-3.8187
-4.50561
-5.01405
-5.63774
-6.03854
-6.43162
-6.75022
-6.94872
-7.05161
-7.12784
-7.15521
-7.01962
-6.89228
-6.61261
-6.28822
-5.98221
-5.61863
-4.99406
-4.40094
-3.82476
-3.25716
-3.75396
-4.33977
-4.81026
-5.20006
-5.52148
-5.80716
-5.95097
-6.08269
-6.09422
-6.1845
-5.99298
-5.95651
-5.68655
-5.50532
-5.13805
-4.79591
-4.26041
-3.70558
-3.26045
-2.70647
-3.09471
-3.57466
-4.00548
-4.35064
-4.59901
-4.86596
-5.01858
-5.08142
-5.15465
-5.12839
-5.04384
-4.98037
-4.81384
-4.57454
-4.40476
-3.98207
-3.62351
-3.10095
-2.68895
-2.2136
-2.53833
-2.90548
-3.22783
-3.63456
-3.75016
-3.92754
-4.12329
-4.21058
-4.25002
-4.1685
-4.14642
-4.01055
-3.94771
-3.73793
-3.4519
-3.19607
-2.9085
-2.47029
-2.25608
-1.7138
-1.97383
-2.22688
-2.5701
-2.71935
-2.94369
-3.04682
-3.13022
-3.22721
-3.2746
-3.1936
-3.24063
-3.11527
-2.94002
-2.85096
-2.67878
-2.51696
-2.27209
-1.94478
-1.7129
-1.27009
-1.38603
-1.56041
-1.7667
-1.95254
-2.02378
-2.17969
-2.25261
-2.30477
-2.32496
-2.25809
-2.29949
-2.20165
-2.20414
-2.07573
-1.94726
-1.75876
-1.5574
-1.37564
-1.15379
-0.760958
-0.795893
-0.928997
-1.07481
-1.15991
-1.27178
-1.3356
-1.37797
-1.35955
-1.37832
-1.40892
-1.41394
-1.35789
-1.32909
-1.29239
-1.10342
-1.0851
-0.932575
-0.896221
-0.67537
-0.259549
-0.22794
-0.367037
-0.330104
-0.460217
-0.423275
-0.462395
-0.479376
-0.412731
-0.502493
-0.439118
-0.47533
-0.466616
-0.482018
-0.417824
-0.348393
-0.340561
-0.319742
-0.27538
-0.266576
-3.23302
-3.85877
-4.62096
-5.12926
-5.67735
-6.08851
-6.33133
-6.61621
-6.71859
-6.83669
-6.82209
-6.71545
-6.58823
-6.36567
-6.08245
-5.60743
-5.18331
-4.5618
-3.84089
-3.29122
-2.78487
-3.32567
-3.85801
-4.40053
-4.76263
-5.11195
-5.44442
-5.67767
-5.80472
-5.83714
-5.86034
-5.75631
-5.66306
-5.44236
-5.2137
-4.84038
-4.34612
-3.872
-3.20179
-2.79489
-2.29559
-2.7328
-3.19692
-3.63627
-3.99283
-4.36294
-4.55331
-4.74421
-4.8981
-4.90925
-4.91048
-4.919
-4.6942
-4.5449
-4.29545
-3.99672
-3.64731
-3.17481
-2.73871
-2.28946
-1.829
-2.19405
-2.58638
-2.97949
-3.28047
-3.52304
-3.69732
-3.8625
-3.96677
-3.9732
-4.02063
-3.92573
-3.81956
-3.64714
-3.51273
-3.19824
-2.95383
-2.62863
-2.20941
-1.88893
-1.4516
-1.67749
-1.98879
-2.2902
-2.55858
-2.74393
-2.92398
-2.89221
-3.10355
-3.11996
-3.08142
-3.10165
-3.00739
-2.83906
-2.7641
-2.46538
-2.331
-2.00143
-1.62645
-1.48265
-1.06496
-1.2304
-1.39764
-1.6023
-1.75868
-1.93519
-1.97919
-2.14131
-2.17222
-2.18671
-2.23677
-2.22405
-2.14914
-2.02523
-1.93909
-1.78153
-1.60679
-1.47637
-1.2898
-1.04932
-0.569741
-0.651659
-0.852234
-1.01604
-1.12008
-1.19701
-1.21134
-1.25683
-1.28306
-1.35273
-1.22516
-1.36114
-1.30447
-1.2325
-1.10799
-1.12165
-0.942094
-0.886623
-0.717929
-0.631589
-0.17745
-0.18754
-0.334351
-0.330399
-0.381705
-0.403673
-0.401958
-0.401783
-0.431227
-0.481667
-0.454771
-0.384305
-0.447723
-0.395032
-0.381623
-0.364876
-0.331962
-0.204354
-0.231397
-0.238749
-2.53673
-3.15779
-3.82718
-4.49665
-5.00896
-5.43938
-5.88144
-6.1291
-6.26115
-6.31676
-6.36213
-6.24136
-6.02118
-5.879
-5.50189
-5.12734
-4.56368
-3.91669
-3.17054
-2.59673
-2.14398
-2.60457
-3.25669
-3.80764
-4.27328
-4.64703
-5.01365
-5.12816
-5.28922
-5.43006
-5.40215
-5.34003
-5.22276
-5.0234
-4.68648
-4.29451
-3.89917
-3.36581
-2.73789
-2.13101
-1.75526
-2.11204
-2.728
-3.22159
-3.59287
-3.8784
-4.18237
-4.34812
-4.40954
-4.59552
-4.50513
-4.49623
-4.35367
-4.17955
-3.88768
-3.65599
-3.19461
-2.82132
-2.37438
-1.77746
-1.3985
-1.75639
-2.13437
-2.56962
-2.88096
-3.13653
-3.37741
-3.48244
-3.60371
-3.6652
-3.67366
-3.60281
-3.58156
-3.45627
-3.17078
-2.9151
-2.60771
-2.18623
-1.78709
-1.45835
-0.985199
-1.35368
-1.62931
-1.99569
-2.22384
-2.41099
-2.63589
-2.75565
-2.79039
-2.88299
-2.89278
-2.80327
-2.71973
-2.59256
-2.53068
-2.34625
-2.02718
-1.71247
-1.45642
-1.11631
-0.767379
-0.967832
-1.21043
-1.45215
-1.66411
-1.70717
-1.87531
-1.93486
-2.05484
-1.9792
-2.03861
-2.00767
-1.89514
-1.87513
-1.73505
-1.59599
-1.40324
-1.24838
-0.959625
-0.781287
-0.463277
-0.519248
-0.681729
-0.868346
-0.949049
-1.07759
-1.06693
-1.2017
-1.17584
-1.28344
-1.17196
-1.22374
-1.13632
-1.10842
-1.06284
-0.940617
-0.860618
-0.692363
-0.659526
-0.482219
-0.127485
-0.190825
-0.267124
-0.353636
-0.349395
-0.380114
-0.327161
-0.38511
-0.43409
-0.312614
-0.361366
-0.401245
-0.391369
-0.400931
-0.367623
-0.329414
-0.231592
-0.27275
-0.16712
-0.197566
-1.54891
-2.23488
-2.94963
-3.67899
-4.2308
-4.66985
-4.98342
-5.32121
-5.55918
-5.6775
-5.71766
-5.59198
-5.40131
-5.17696
-4.78626
-4.32978
-3.77164
-3.10924
-2.41141
-1.71006
-1.21349
-1.88501
-2.46934
-3.08175
-3.62632
-4.00496
-4.32049
-4.59208
-4.63561
-4.80215
-4.80159
-4.73952
-4.59859
-4.42517
-4.04161
-3.68601
-3.08843
-2.6199
-1.9778
-1.40585
-1.0294
-1.48064
-2.06465
-2.45643
-2.89531
-3.39137
-3.62624
-3.78472
-3.96981
-4.04328
-4.03943
-3.98053
-3.81788
-3.61186
-3.44358
-3.05504
-2.64287
-2.166
-1.64459
-1.14381
-0.779688
-1.18797
-1.60441
-2.07356
-2.43564
-2.61202
-2.89528
-3.08337
-3.1449
-3.27612
-3.26122
-3.21167
-3.13888
-2.9349
-2.69332
-2.52776
-2.11308
-1.75604
-1.27242
-0.943523
-0.586099
-0.838159
-1.29171
-1.55265
-1.85061
-2.01728
-2.35482
-2.39496
-2.5354
-2.51977
-2.59069
-2.44851
-2.41117
-2.23473
-2.08522
-1.86242
-1.61198
-1.27629
-0.974727
-0.711713
-0.409536
-0.655985
-0.931692
-1.09631
-1.23758
-1.44347
-1.58386
-1.64362
-1.79248
-1.80163
-1.83233
-1.68621
-1.69525
-1.58869
-1.51389
-1.32095
-1.13064
-0.835409
-0.660774
-0.454015
-0.268787
-0.396622
-0.497284
-0.671732
-0.764563
-0.81465
-0.939027
-1.04773
-1.02511
-1.06687
-1.02891
-1.04091
-1.02151
-0.968115
-0.875671
-0.819122
-0.725043
-0.647712
-0.417775
-0.234525
-0.0843603
-0.123731
-0.176455
-0.250051
-0.258185
-0.190966
-0.384913
-0.3106
-0.388676
-0.328515
-0.431267
-0.30939
-0.348183
-0.269091
-0.325263
-0.320494
-0.248208
-0.172887
-0.125572
-0.0711979
-0.376905
-1.12582
-1.84386
-2.69524
-3.31889
-3.74493
-4.11403
-4.49127
-4.65491
-4.74378
-4.86081
-4.64504
-4.51126
-4.18931
-3.91306
-3.42886
-2.80974
-2.18134
-1.28311
-0.624157
-0.308324
-0.960212
-1.5304
-2.1386
-2.74656
-3.06689
-3.52469
-3.71938
-3.8665
-3.98681
-4.05582
-3.89973
-3.80333
-3.57727
-3.24923
-2.83093
-2.31074
-1.71122
-1.09412
-0.503439
-0.0954347
-0.656803
-1.27484
-1.74026
-2.25552
-2.57307
-2.8848
-3.14649
-3.23609
-3.37633
-3.40766
-3.32664
-3.09986
-3.02238
-2.71908
-2.32326
-1.92168
-1.39497
-0.841602
-0.348509
-0.0410792
-0.522272
-0.966426
-1.40413
-1.77465
-2.09591
-2.35007
-2.56297
-2.63506
-2.71655
-2.66318
-2.67392
-2.59634
-2.41785
-2.15873
-1.90451
-1.52467
-1.10497
-0.675824
-0.259262
-0.0525802
-0.329158
-0.761878
-1.18267
-1.40568
-1.66363
-1.84611
-1.94967
-2.06169
-2.04032
-2.06141
-2.07412
-1.97825
-1.82105
-1.71597
-1.40236
-1.17655
-0.790527
-0.432779
-0.177117
0.0452819
-0.23424
-0.537277
-0.792275
-1.00114
-1.10876
-1.33796
-1.3679
-1.39339
-1.47443
-1.45103
-1.45383
-1.37042
-1.29015
-1.14506
-0.981524
-0.881401
-0.599681
-0.383861
-0.105407
-0.0438443
-0.113792
-0.251991
-0.438013
-0.601478
-0.677216
-0.731637
-0.853629
-0.856206
-0.890351
-0.894317
-0.874888
-0.824744
-0.875177
-0.687966
-0.612653
-0.445361
-0.255288
-0.243336
-0.0903522
0.0302378
0.0210479
-0.124618
-0.132036
-0.152909
-0.219762
-0.24474
-0.281829
-0.347667
-0.31979
-0.27027
-0.24441
-0.325407
-0.270545
-0.240656
-0.210387
-0.205367
-0.13956
-0.0729405
-0.013181
0.790496
0.0927119
-0.657914
-1.48096
-2.07087
-2.5451
-3.05431
-3.4447
-3.57474
-3.73447
-3.81161
-3.65521
-3.46104
-3.17042
-2.79928
-2.31995
-1.71737
-0.991893
-0.221223
0.571337
0.861663
0.229878
-0.535877
-1.11709
-1.65367
-2.13515
-2.46429
-2.87577
-3.00539
-3.097
-3.17595
-3.05372
-2.94618
-2.70006
-2.28896
-1.91518
-1.42031
-0.740615
-0.0857234
0.502948
0.777934
0.16465
-0.385523
-0.855639
-1.42704
-1.75236
-2.08868
-2.33228
-2.4836
-2.62625
-2.59374
-2.50093
-2.40609
-2.20447
-1.92015
-1.59164
-1.04247
-0.594972
0.00206774
0.493962
0.716682
0.242955
-0.212464
-0.677078
-1.08915
-1.43834
-1.67693
-1.93186
-2.02116
-2.01191
-2.05195
-2.07237
-1.91148
-1.71983
-1.52535
-1.28179
-0.834058
-0.408157
0.0484691
0.454097
0.508189
0.176517
-0.223616
-0.481113
-0.861352
-1.05119
-1.27846
-1.42253
-1.58047
-1.61188
-1.64989
-1.58382
-1.42479
-1.35785
-1.16953
-1.01396
-0.628113
-0.282339
0.101553
0.339944
0.479967
0.137219
-0.112088
-0.348103
-0.554113
-0.76129
-0.859063
-1.03803
-1.06305
-1.15436
-1.18048
-1.13386
-1.0237
-0.923833
-0.807068
-0.667992
-0.472422
-0.232395
0.0223702
0.297351
0.232732
0.0935287
-0.0730649
-0.178181
-0.345881
-0.464338
-0.510312
-0.648682
-0.65546
-0.718503
-0.745266
-0.690917
-0.620436
-0.601159
-0.49164
-0.368083
-0.290677
-0.137212
0.0110516
0.174004
0.0961827
0.00691754
0.0149154
-0.0043579
-0.0781834
-0.200148
-0.139154
-0.217714
-0.185963
-0.206778
-0.206935
-0.187689
-0.221229
-0.175305
-0.193218
-0.119992
-0.0797387
-0.00397659
-0.0198274
0.00973024
2.1469
1.34275
0.592668
-0.169091
-0.923766
-1.48005
-1.86557
-2.25958
-2.42402
-2.59377
-2.69353
-2.49859
-2.36387
-2.10041
-1.66596
-1.08738
-0.48799
0.256379
1.0397
1.8587
1.97024
1.42109
0.587938
-0.107862
-0.659052
-1.18236
-1.56139
-1.8541
-2.02619
-2.20455
-2.22473
-2.06089
-1.92323
-1.75565
-1.31741
-0.872232
-0.339566
0.284482
0.989495
1.54867
1.65985
1.18445
0.627921
-0.0524448
-0.528423
-0.889697
-1.30268
-1.50187
-1.68512
-1.78148
-1.81821
-1.82902
-1.58762
-1.42467
-1.10199
-0.743229
-0.203288
0.373209
0.870334
1.40616
1.38986
0.976969
0.472797
0.0526057
-0.395361
-0.746563
-1.02202
-1.24826
-1.36596
-1.47327
-1.42528
-1.35051
-1.28599
-1.13072
-0.852318
-0.589086
-0.14955
0.261143
0.748937
1.16172
1.12331
0.770867
0.369019
0.0569871
-0.261634
-0.53262
-0.720797
-0.978045
-1.03505
-1.0581
-1.04784
-1.04913
-0.999034
-0.919414
-0.687655
-0.413014
-0.103533
0.22984
0.57057
0.902606
0.816173
0.578989
0.254762
0.0505548
-0.211996
-0.430509
-0.541355
-0.657456
-0.74602
-0.702535
-0.735045
-0.831895
-0.638165
-0.606742
-0.337654
-0.222878
-0.106572
0.213942
0.455203
0.675785
0.490944
0.365102
0.153243
0.030988
-0.15631
-0.192199
-0.309785
-0.385515
-0.402703
-0.440288
-0.417735
-0.480513
-0.377961
-0.332282
-0.232284
-0.156092
-0.0622151
0.0173844
0.240433
0.405478
0.127009
0.15037
0.00999587
0.0162108
-0.045941
-0.109562
-0.0335673
-0.14405
-0.200775
-0.16628
-0.132237
-0.165622
-0.169728
-0.1646
-0.0505712
-0.0170485
0.00726641
0.0107744
0.075622
0.0939486
3.2324
2.43576
1.60358
0.803712
0.145765
-0.493553
-0.966064
-1.26705
-1.52437
-1.66123
-1.75031
-1.6629
-1.43724
-1.09453
-0.73587
-0.234603
0.425449
1.26366
2.00934
2.78047
2.84716
2.13486
1.39334
0.725378
0.15413
-0.29947
-0.717401
-1.08284
-1.20977
-1.44802
-1.44744
-1.35492
-1.22879
-0.915533
-0.527146
-0.145847
0.40295
1.1032
1.82858
2.44231
2.37427
1.84944
1.24204
0.707449
0.172977
-0.286765
-0.629467
-0.872509
-1.00668
-1.16637
-1.14905
-1.17497
-0.982829
-0.702754
-0.440255
-0.025881
0.407164
0.948136
1.52811
2.08654
1.98127
1.49767
1.04789
0.540703
0.121794
-0.299732
-0.474015
-0.700955
-0.879532
-0.981358
-0.990157
-0.957611
-0.760731
-0.56703
-0.406177
-0.0678188
0.381181
0.766087
1.25217
1.64574
1.58901
1.22326
0.858206
0.459129
0.158552
-0.150655
-0.387077
-0.538572
-0.647199
-0.738046
-0.753082
-0.692444
-0.555971
-0.488281
-0.274276
-0.00979815
0.173896
0.605481
0.979744
1.32965
1.08222
0.861195
0.564556
0.266926
0.0768724
-0.107278
-0.28073
-0.36695
-0.439321
-0.530143
-0.529173
-0.473039
-0.36075
-0.31651
-0.136384
-0.0709146
0.175461
0.434429
0.722707
0.933866
0.667284