/*--------------------------------*- C++ -*----------------------------------*\
| =========                 |                                                 |
| \\      /  F ield         | OpenFOAM: The Open Source CFD Toolbox           |
|  \\    /   O peration     | Version:  2212                                  |
|   \\  /    A nd           | Website:  www.openfoam.com                      |
|    \\/     M anipulation  |                                                 |
\*---------------------------------------------------------------------------*/
FoamFile
{
    version     2.0;
    format      ascii;
    arch        "LSB;label=32;scalar=64";
    class       volScalarField;
    location    "0";
    object      T;
}
// * * * * * * * * * * * * * * * * * * * * * * * * * * * * * * * * * * * * * //

dimensions      [0 0 0 1 0 0 0];

internalField   nonuniform List<scalar> 
3200
(
317.558
317.668
318.025
318.036
318.583
318.595
318.961
319.284
319.458
319.475
319.729
319.542
319.624
319.786
319.325
319.573
319.43
319.326
319.014
318.98
315.171
315.264
315.541
315.539
316.062
316.012
316.351
316.655
316.82
316.808
317.056
316.875
316.96
317.083
316.696
316.856
316.736
316.743
316.439
316.431
312.8
312.884
313.069
313.112
313.539
313.526
313.766
314.065
314.225
314.211
314.368
314.234
314.323
314.422
314.079
314.244
314.09
314.151
313.849
313.842
310.454
310.574
310.647
310.751
311.026
311.103
311.222
311.509
311.661
311.654
311.739
311.575
311.717
311.834
311.502
311.646
311.505
311.592
311.305
311.291
308.115
308.207
308.269
308.411
308.568
308.663
308.692
309.004
309.086
309.13
309.169
308.959
309.127
309.223
308.926
309.067
308.98
309.029
308.784
308.769
305.794
305.825
305.907
306.036
306.145
306.217
306.19
306.454
306.513
306.535
306.567
306.376
306.538
306.594
306.363
306.491
306.453
306.474
306.265
306.222
303.486
303.496
303.57
303.62
303.701
303.727
303.721
303.882
303.925
303.902
303.951
303.807
303.929
303.945
303.806
303.887
303.881
303.893
303.732
303.699
301.147
301.175
301.182
301.222
301.218
301.246
301.223
301.295
301.308
301.29
301.315
301.256
301.331
301.315
301.285
301.295
301.312
301.298
301.251
301.231
318.223
318.411
318.646
319.018
319.22
319.254
319.42
320.058
320.076
320.185
320.162
320.296
320.289
320.51
319.966
320.15
319.926
319.943
319.696
319.629
315.691
315.845
316.074
316.354
316.582
316.59
316.742
317.319
317.287
317.426
317.404
317.466
317.506
317.673
317.221
317.344
317.241
317.205
317.011
316.962
313.204
313.354
313.552
313.758
313.956
313.918
314.108
314.617
314.583
314.675
314.668
314.73
314.781
314.891
314.482
314.62
314.585
314.53
314.376
314.357
310.746
310.895
311.036
311.205
311.382
311.332
311.507
311.944
311.877
312.001
311.926
311.982
312.055
312.112
311.824
311.941
311.945
311.871
311.753
311.704
308.314
308.443
308.545
308.715
308.833
308.778
308.925
309.32
309.195
309.297
309.242
309.255
309.35
309.407
309.234
309.248
309.276
309.227
309.172
309.093
305.951
306.028
306.081
306.221
306.318
306.263
306.401
306.664
306.592
306.64
306.615
306.575
306.637
306.714
306.594
306.587
306.645
306.585
306.592
306.477
303.555
303.606
303.671
303.715
303.794
303.782
303.866
303.98
303.962
303.966
303.926
303.962
303.975
304.021
303.967
303.95
303.99
303.985
303.991
303.912
301.205
301.196
301.231
301.236
301.284
301.246
301.306
301.342
301.32
301.321
301.317
301.337
301.327
301.368
301.332
301.32
301.342
301.351
301.35
301.319
318.989
319.19
319.666
319.819
320.161
320.32
320.55
320.881
320.825
320.887
321.035
321.059
321.178
321.316
321.049
321.121
320.902
320.844
320.682
320.175
316.408
316.541
316.906
317.039
317.373
317.472
317.72
318
317.989
317.98
318.105
318.145
318.239
318.376
318.162
318.216
318.04
317.983
317.885
317.421
313.816
313.898
314.177
314.311
314.627
314.663
314.88
315.185
315.158
315.109
315.322
315.275
315.352
315.448
315.317
315.358
315.206
315.189
315.103
314.671
311.257
311.299
311.554
311.642
311.917
311.919
312.148
312.414
312.339
312.312
312.493
312.439
312.53
312.583
312.509
312.551
312.355
312.387
312.412
311.972
308.733
308.729
308.954
308.982
309.188
309.239
309.475
309.694
309.492
309.527
309.66
309.678
309.695
309.798
309.702
309.76
309.594
309.63
309.636
309.295
306.237
306.196
306.394
306.383
306.537
306.566
306.764
306.932
306.733
306.78
306.914
306.926
306.901
307.027
306.935
306.962
306.858
306.848
306.871
306.661
303.733
303.69
303.852
303.825
303.914
303.919
304.037
304.173
304.037
304.057
304.171
304.176
304.144
304.234
304.148
304.166
304.132
304.123
304.144
304.021
301.243
301.258
301.282
301.294
301.311
301.321
301.377
301.401
301.35
301.347
301.391
301.396
301.385
301.417
301.385
301.382
301.377
301.397
301.389
301.366
319.618
319.987
320.384
320.707
321.17
321.246
321.458
321.84
321.971
322.05
322.261
322.173
322.4
322.234
322.171
322.015
321.935
321.848
321.649
321.322
316.909
317.227
317.525
317.823
318.219
318.324
318.518
318.821
318.928
318.97
319.158
319.094
319.312
319.148
319.069
318.96
318.869
318.859
318.695
318.415
314.261
314.492
314.723
314.964
315.316
315.408
315.605
315.842
315.922
315.955
316.101
316.039
316.265
316.113
316.013
315.958
315.867
315.911
315.826
315.555
311.641
311.838
311.988
312.167
312.448
312.553
312.707
312.95
312.905
312.968
313.113
313.07
313.257
313.114
313.021
313.002
312.863
313.01
312.943
312.732
309.04
309.219
309.315
309.424
309.625
309.726
309.877
310.047
309.971
310.067
310.173
310.111
310.264
310.166
310.068
310.077
309.975
310.081
310.069
309.935
306.466
306.573
306.664
306.703
306.843
306.936
307.045
307.178
307.096
307.184
307.235
307.182
307.323
307.227
307.149
307.189
307.118
307.169
307.186
307.105
303.862
303.915
304.038
303.992
304.061
304.133
304.223
304.311
304.264
304.282
304.326
304.309
304.395
304.336
304.275
304.314
304.261
304.273
304.3
304.299
301.298
301.316
301.371
301.326
301.356
301.387
301.426
301.439
301.417
301.439
301.442
301.442
301.464
301.461
301.425
301.455
301.427
301.433
301.446
301.444
320.672
320.942
321.508
321.737
322.077
322.154
322.56
322.88
323.017
323.016
323.18
323.263
323.243
323.291
323.361
322.915
322.976
322.84
322.651
322.272
317.811
318.027
318.504
318.679
318.994
319.064
319.441
319.694
319.862
319.806
319.98
320.035
320.025
320.075
320.136
319.731
319.813
319.707
319.563
319.256
315.023
315.161
315.539
315.69
315.97
316.03
316.359
316.56
316.737
316.692
316.829
316.846
316.859
316.878
316.94
316.637
316.635
316.601
316.469
316.281
312.243
312.349
312.615
312.755
312.991
313.077
313.34
313.482
313.654
313.616
313.719
313.699
313.725
313.775
313.811
313.524
313.559
313.504
313.402
313.278
309.488
309.545
309.747
309.845
310.052
310.127
310.353
310.44
310.583
310.568
310.641
310.618
310.661
310.712
310.714
310.508
310.512
310.444
310.41
310.267
306.767
306.781
306.907
307
307.132
307.229
307.366
307.437
307.539
307.565
307.585
307.528
307.617
307.661
307.643
307.481
307.477
307.424
307.391
307.336
304.065
304.079
304.149
304.194
304.288
304.328
304.397
304.497
304.523
304.548
304.569
304.493
304.563
304.619
304.618
304.502
304.466
304.45
304.427
304.424
301.375
301.38
301.398
301.402
301.454
301.453
301.445
301.513
301.509
301.524
301.534
301.503
301.527
301.533
301.548
301.481
301.495
301.483
301.491
301.471
321.412
321.595
322.261
322.521
322.869
323.155
323.557
323.947
324.03
324.106
324.367
324.352
324.264
324.534
324.434
324.055
324.058
324.032
323.469
323.234
318.47
318.599
319.135
319.39
319.695
319.969
320.307
320.617
320.738
320.747
320.976
320.983
320.866
321.182
321.107
320.709
320.76
320.697
320.239
320.055
315.586
315.65
316.094
316.322
316.588
316.852
317.1
317.34
317.476
317.495
317.677
317.651
317.566
317.88
317.825
317.411
317.517
317.371
317.116
316.913
312.684
312.754
313.081
313.261
313.52
313.719
313.958
314.149
314.243
314.287
314.394
314.409
314.296
314.621
314.533
314.176
314.298
314.139
313.994
313.756
309.795
309.898
310.135
310.262
310.505
310.654
310.833
311.015
311.077
311.124
311.14
311.145
311.1
311.36
311.263
310.989
311.113
310.945
310.87
310.655
306.963
307.089
307.192
307.266
307.519
307.62
307.718
307.85
307.953
307.946
307.902
307.894
307.923
308.109
308.023
307.801
307.946
307.844
307.768
307.602
304.183
304.275
304.303
304.331
304.549
304.574
304.616
304.692
304.823
304.776
304.723
304.692
304.737
304.844
304.831
304.633
304.762
304.731
304.643
304.522
301.408
301.452
301.44
301.429
301.548
301.547
301.541
301.554
301.628
301.592
301.577
301.576
301.601
301.622
301.613
301.542
301.591
301.614
301.55
301.504
322.129
322.724
322.963
323.51
323.819
324.101
324.549
324.788
325.052
325.037
325.46
325.478
325.372
325.46
325.243
325.226
325.183
324.963
324.486
324.124
319.076
319.573
319.765
320.236
320.509
320.751
321.19
321.298
321.566
321.571
321.937
321.932
321.835
321.945
321.817
321.73
321.725
321.568
321.162
320.821
316.059
316.458
316.633
317.031
317.283
317.481
317.888
317.93
318.127
318.188
318.453
318.463
318.374
318.495
318.408
318.28
318.351
318.19
317.899
317.583
313.067
313.36
313.548
313.899
314.126
314.234
314.617
314.62
314.729
314.851
315.029
315.017
314.96
315.13
315.077
314.915
314.983
314.802
314.621
314.383
310.107
310.314
310.516
310.744
310.992
311.032
311.307
311.335
311.433
311.56
311.619
311.605
311.585
311.794
311.738
311.58
311.636
311.476
311.393
311.161
307.211
307.321
307.514
307.629
307.889
307.867
308.025
308.07
308.2
308.245
308.258
308.277
308.263
308.441
308.414
308.245
308.273
308.216
308.145
307.949
304.34
304.379
304.499
304.565
304.695
304.751
304.803
304.842
304.93
304.946
304.92
304.967
304.975
305.069
305.065
304.945
304.949
304.929
304.864
304.751
301.466
301.465
301.514
301.548
301.571
301.604
301.606
301.617
301.648
301.659
301.64
301.669
301.689
301.698
301.71
301.653
301.658
301.658
301.643
301.579
323.004
323.79
323.894
324.244
324.673
325.163
325.601
325.847
325.872
325.986
326.432
326.389
326.334
326.416
326.212
326.136
326.148
325.766
325.297
324.983
319.798
320.459
320.553
320.838
321.227
321.677
322.113
322.262
322.26
322.39
322.788
322.735
322.653
322.793
322.628
322.533
322.574
322.202
321.807
321.548
316.63
317.223
317.238
317.537
317.869
318.236
318.658
318.741
318.733
318.881
319.233
319.133
319.059
319.233
319.108
318.968
319.033
318.729
318.398
318.173
313.53
314.007
314.016
314.286
314.554
314.853
315.207
315.3
315.296
315.429
315.688
315.615
315.544
315.685
315.622
315.446
315.533
315.255
315.006
314.799
310.506
310.845
310.84
311.077
311.266
311.502
311.777
311.913
311.899
311.985
312.174
312.105
312.068
312.165
312.127
311.987
312.031
311.803
311.651
311.486
307.483
307.714
307.72
307.916
308.045
308.224
308.394
308.528
308.511
308.563
308.65
308.632
308.618
308.665
308.656
308.57
308.555
308.406
308.276
308.177
304.444
304.636
304.627
304.718
304.834
304.962
305.015
305.132
305.12
305.152
305.207
305.193
305.18
305.211
305.213
305.143
305.117
305.041
304.986
304.886
301.492
301.535
301.537
301.574
301.616
301.661
301.686
301.722
301.706
301.738
301.729
301.74
301.744
301.721
301.742
301.726
301.73
301.696
301.673
301.616
323.875
324.556
324.764
325.086
325.516
326.102
326.436
326.824
327.004
327.4
327.518
327.299
327.232
327.323
327.208
327.024
326.947
326.625
326.328
325.865
320.549
321.141
321.331
321.585
321.951
322.455
322.78
323.114
323.291
323.651
323.774
323.55
323.431
323.569
323.459
323.275
323.226
322.974
322.733
322.313
317.257
317.786
317.97
318.185
318.464
318.895
319.187
319.444
319.631
319.952
320.071
319.848
319.682
319.831
319.776
319.573
319.584
319.374
319.137
318.855
314.039
314.499
314.685
314.806
315.092
315.37
315.646
315.844
316.017
316.277
316.398
316.228
316.044
316.125
316.182
315.94
315.957
315.793
315.616
315.423
310.862
311.225
311.431
311.513
311.717
311.923
312.162
312.318
312.432
312.589
312.776
312.607
312.41
312.502
312.556
312.359
312.355
312.272
312.159
311.972
307.719
308.03
308.133
308.229
308.38
308.492
308.668
308.808
308.884
308.993
309.107
309.019
308.797
308.92
308.969
308.814
308.811
308.735
308.662
308.532
304.624
304.818
304.841
304.931
305.021
305.118
305.222
305.282
305.351
305.39
305.477
305.439
305.252
305.326
305.379
305.269
305.272
305.245
305.202
305.119
301.536
301.624
301.623
301.642
301.668
301.728
301.738
301.77
301.796
301.835
301.827
301.809
301.753
301.782
301.817
301.778
301.761
301.769
301.745
301.721
324.723
325.464
325.627
326.004
326.464
326.855
327.438
327.792
327.769
328.379
328.55
328.219
328.478
328.183
328.182
327.769
327.645
327.448
327.326
326.676
321.334
321.964
322.133
322.343
322.741
323.113
323.654
323.961
323.884
324.514
324.644
324.34
324.565
324.33
324.317
323.888
323.818
323.689
323.616
323.017
317.983
318.513
318.671
318.796
319.116
319.443
319.879
320.158
320.129
320.72
320.771
320.478
320.694
320.521
320.492
320.109
320.022
319.94
319.914
319.412
314.651
315.101
315.216
315.308
315.539
315.803
316.175
316.436
316.402
316.925
316.977
316.681
316.87
316.74
316.715
316.386
316.321
316.254
316.26
315.82
311.349
311.735
311.81
311.847
312
312.237
312.556
312.747
312.72
313.129
313.198
312.937
313.09
313.022
312.951
312.74
312.659
312.617
312.61
312.291
308.112
308.403
308.432
308.447
308.528
308.743
308.947
309.103
309.091
309.372
309.396
309.226
309.332
309.289
309.216
309.105
309.045
309.015
308.979
308.788
304.872
305.061
305.041
305.072
305.089
305.257
305.372
305.447
305.47
305.621
305.64
305.536
305.604
305.612
305.57
305.491
305.448
305.411
305.417
305.272
301.621
301.701
301.679
301.68
301.713
301.756
301.811
301.82
301.813
301.878
301.919
301.857
301.879
301.884
301.868
301.831
301.824
301.804
301.82
301.77
325.464
326.134
326.701
326.85
327.424
327.934
328.282
328.703
328.683
329.084
329.315
329.237
329.189
328.947
328.743
328.6
328.423
328.141
328.151
327.479
321.939
322.521
322.996
323.105
323.619
324.094
324.388
324.767
324.733
325.012
325.283
325.209
325.177
324.956
324.796
324.648
324.487
324.265
324.294
323.725
318.504
318.973
319.371
319.449
319.862
320.272
320.536
320.864
320.877
321.009
321.311
321.249
321.249
321.021
320.905
320.764
320.592
320.444
320.486
320.008
315.124
315.45
315.743
315.863
316.144
316.495
316.712
316.993
317.011
317.08
317.373
317.307
317.32
317.147
317.045
316.914
316.739
316.679
316.689
316.303
311.749
311.973
312.201
312.334
312.478
312.784
312.934
313.162
313.18
313.266
313.495
313.378
313.417
313.271
313.202
313.079
312.949
312.923
312.947
312.637
308.389
308.495
308.701
308.79
308.883
309.14
309.203
309.388
309.383
309.473
309.606
309.519
309.614
309.459
309.416
309.301
309.217
309.234
309.188
308.993
305.054
305.104
305.231
305.244
305.334
305.507
305.548
305.658
305.634
305.679
305.783
305.716
305.836
305.669
305.663
305.545
305.53
305.511
305.472
305.396
301.685
301.707
301.748
301.773
301.798
301.847
301.846
301.909
301.891
301.893
301.953
301.9
301.951
301.888
301.898
301.856
301.846
301.837
301.818
301.821
326.201
326.565
327.269
327.686
328.222
328.7
329.215
329.637
329.368
329.77
330.192
330.019
330
329.808
329.781
329.579
329.145
329.127
328.627
328.173
322.598
322.9
323.503
323.861
324.329
324.748
325.178
325.599
325.291
325.65
326.07
325.905
325.854
325.7
325.688
325.492
325.121
325.137
324.712
324.299
319.035
319.289
319.788
320.107
320.53
320.822
321.193
321.572
321.361
321.632
321.959
321.848
321.782
321.671
321.684
321.479
321.132
321.216
320.823
320.457
315.568
315.697
316.105
316.356
316.782
316.955
317.339
317.594
317.431
317.637
317.92
317.803
317.782
317.659
317.693
317.51
317.204
317.303
316.971
316.69
312.049
312.184
312.474
312.676
313.053
313.155
313.445
313.6
313.525
313.715
313.878
313.806
313.821
313.657
313.722
313.576
313.347
313.415
313.152
312.928
308.589
308.688
308.909
309.033
309.342
309.386
309.576
309.674
309.608
309.832
309.894
309.82
309.864
309.702
309.777
309.648
309.523
309.573
309.35
309.189
305.171
305.199
305.322
305.455
305.627
305.615
305.729
305.81
305.72
305.917
305.884
305.887
305.948
305.834
305.873
305.788
305.718
305.749
305.573
305.507
301.742
301.739
301.781
301.815
301.892
301.882
301.917
301.953
301.911
301.994
301.961
301.979
301.992
301.953
301.974
301.944
301.922
301.928
301.877
301.84
326.936
327.454
327.803
328.528
328.908
329.332
329.905
330.24
330.174
330.686
330.903
330.86
330.82
330.773
330.724
330.518
330.031
329.902
329.28
328.853
323.265
323.652
323.944
324.606
324.925
325.259
325.801
326.041
325.986
326.452
326.647
326.586
326.551
326.545
326.521
326.314
325.896
325.841
325.274
324.893
319.635
319.89
320.16
320.719
321.028
321.272
321.746
321.954
321.918
322.332
322.45
322.347
322.334
322.342
322.352
322.144
321.855
321.806
321.3
321.002
316.013
316.198
316.423
316.891
317.148
317.32
317.745
317.916
317.84
318.193
318.28
318.205
318.214
318.21
318.236
318.025
317.848
317.806
317.386
317.159
312.424
312.527
312.75
313.13
313.305
313.414
313.728
313.879
313.813
314.084
314.164
314.123
314.144
314.175
314.19
313.971
313.893
313.817
313.484
313.298
308.855
308.948
309.13
309.343
309.51
309.539
309.745
309.882
309.858
310.01
310.038
310.067
310.092
310.156
310.158
309.976
309.925
309.856
309.599
309.496
305.339
305.4
305.497
305.598
305.753
305.727
305.806
305.938
305.925
306.02
305.979
306.038
306.041
306.131
306.071
305.969
305.944
305.92
305.766
305.671
301.782
301.837
301.84
301.836
301.946
301.9
301.943
301.997
301.983
302.02
302.008
302.031
302.028
302.056
302.034
302.003
301.996
301.99
301.932
301.896
327.572
328.088
328.564
329.261
329.612
330.132
330.586
331.1
330.987
331.459
331.585
331.712
331.537
331.691
331.452
331.048
330.861
330.694
330.164
329.882
323.754
324.195
324.654
325.219
325.485
326.011
326.406
326.843
326.699
327.088
327.253
327.338
327.157
327.3
327.129
326.79
326.618
326.483
326.028
325.782
320.017
320.318
320.789
321.192
321.517
321.912
322.311
322.67
322.502
322.81
322.978
323.048
322.865
323.028
322.863
322.564
322.425
322.295
321.924
321.72
316.31
316.52
316.968
317.239
317.557
317.856
318.228
318.518
318.375
318.568
318.783
318.816
318.587
318.825
318.622
318.374
318.306
318.154
317.856
317.706
312.647
312.775
313.191
313.379
313.617
313.816
314.118
314.366
314.255
314.397
314.615
314.596
314.376
314.624
314.435
314.242
314.207
314.087
313.808
313.704
309.001
309.085
309.439
309.514
309.655
309.796
310.067
310.216
310.152
310.23
310.412
310.423
310.242
310.428
310.296
310.127
310.127
310.049
309.844
309.742
305.402
305.452
305.685
305.714
305.774
305.869
306.014
306.108
306.082
306.131
306.249
306.252
306.134
306.242
306.192
306.073
306.053
306.056
305.914
305.818
301.833
301.829
301.916
301.905
301.946
301.969
302.022
302.046
302.031
302.06
302.096
302.096
302.053
302.102
302.086
302.031
302.012
302.05
301.972
301.943
328.11
328.47
329.202
329.797
330.184
330.727
331.359
331.758
331.819
331.902
332.135
332.368
332.177
332.393
332.181
331.78
331.457
331.322
330.816
330.507
324.234
324.573
325.144
325.672
326.003
326.438
327.05
327.36
327.44
327.484
327.689
327.889
327.77
327.926
327.778
327.419
327.127
327.011
326.597
326.341
320.428
320.763
321.209
321.597
321.893
322.246
322.791
323.017
323.138
323.159
323.335
323.491
323.426
323.496
323.447
323.124
322.847
322.698
322.405
322.155
316.682
316.971
317.326
317.601
317.876
318.14
318.581
318.785
318.87
318.936
319.062
319.118
319.114
319.195
319.174
318.905
318.625
318.488
318.27
318.039
312.996
313.203
313.487
313.644
313.89
314.1
314.397
314.568
314.592
314.737
314.777
314.808
314.829
314.903
314.944
314.655
314.5
314.304
314.2
313.97
309.28
309.403
309.657
309.703
309.908
310.056
310.212
310.379
310.382
310.521
310.524
310.588
310.578
310.654
310.694
310.469
310.354
310.176
310.115
309.951
305.549
305.608
305.817
305.808
305.945
306.035
306.105
306.229
306.269
306.318
306.302
306.35
306.306
306.401
306.405
306.31
306.226
306.112
306.079
305.966
301.867
301.881
301.952
301.948
302
302.026
302.025
302.098
302.112
302.109
302.124
302.135
302.106
302.16
302.156
302.11
302.091
302.051
302.04
301.981
328.775
329.066
329.678
330.461
330.866
331.231
331.914
332.295
332.528
332.608
332.836
332.873
332.763
333.073
332.909
332.623
332.129
331.981
331.587
330.935
324.842
325.017
325.607
326.272
326.61
326.857
327.455
327.825
328.032
328.117
328.293
328.36
328.252
328.503
328.341
328.163
327.726
327.623
327.23
326.723
320.947
321.05
321.564
322.164
322.463
322.576
323.054
323.421
323.62
323.676
323.811
323.937
323.854
323.981
323.849
323.772
323.373
323.272
322.947
322.56
317.073
317.198
317.544
318.074
318.328
318.348
318.756
319.056
319.224
319.284
319.418
319.519
319.501
319.539
319.473
319.371
319.042
318.954
318.716
318.378
313.259
313.334
313.637
314.029
314.264
314.184
314.494
314.756
314.922
314.937
315.066
315.147
315.169
315.181
315.201
315.015
314.803
314.687
314.527
314.275
309.445
309.486
309.707
310.004
310.193
310.118
310.312
310.501
310.651
310.636
310.748
310.767
310.835
310.874
310.898
310.706
310.573
310.461
310.333
310.156
305.661
305.685
305.85
306
306.121
306.087
306.178
306.297
306.392
306.356
306.44
306.451
306.524
306.547
306.552
306.374
306.341
306.299
306.167
306.083
301.907
301.89
301.961
302.017
302.041
302.046
302.061
302.093
302.152
302.135
302.166
302.149
302.19
302.188
302.2
302.124
302.134
302.095
302.073
302.051
329.304
329.701
330.216
331.024
331.615
332.004
332.404
332.695
333.117
333.18
333.366
333.564
333.536
333.558
333.316
333.076
332.869
332.417
331.983
331.673
325.24
325.566
326.059
326.744
327.274
327.597
327.951
328.166
328.513
328.652
328.752
328.957
328.926
328.995
328.714
328.542
328.398
327.992
327.622
327.328
321.283
321.516
321.975
322.543
322.95
323.236
323.553
323.725
324.03
324.128
324.204
324.436
324.357
324.456
324.163
324.039
323.973
323.613
323.283
322.976
317.348
317.551
317.918
318.37
318.685
318.903
319.169
319.345
319.616
319.653
319.715
319.95
319.837
319.929
319.698
319.612
319.59
319.268
319.001
318.719
313.484
313.633
313.918
314.255
314.514
314.616
314.871
314.986
315.171
315.256
315.292
315.46
315.394
315.42
315.287
315.201
315.239
314.935
314.793
314.542
309.634
309.727
309.964
310.16
310.337
310.424
310.595
310.662
310.789
310.858
310.919
310.99
310.993
310.979
310.941
310.873
310.845
310.608
310.566
310.389
305.791
305.8
305.967
306.105
306.199
306.266
306.324
306.399
306.451
306.491
306.579
306.591
306.645
306.586
306.569
306.532
306.487
306.317
306.366
306.255
301.947
301.925
301.996
302.06
302.095
302.086
302.116
302.146
302.156
302.158
302.206
302.201
302.236
302.21
302.209
302.18
302.171
302.105
302.161
302.116
329.468
330.101
330.669
331.372
331.871
332.481
333.025
333.247
333.584
333.818
333.908
334.157
334.093
334.053
333.814
333.535
333.251
332.982
332.494
331.975
325.447
325.989
326.41
327.016
327.487
328.037
328.463
328.686
328.948
329.157
329.214
329.432
329.411
329.339
329.126
328.895
328.686
328.485
328.036
327.64
321.457
321.928
322.215
322.758
323.153
323.61
323.954
324.18
324.409
324.53
324.59
324.8
324.762
324.682
324.487
324.342
324.198
324.012
323.63
323.329
317.507
317.902
318.077
318.516
318.803
319.225
319.521
319.726
319.901
319.976
320.039
320.189
320.155
320.112
319.991
319.849
319.789
319.595
319.252
319.089
313.554
313.888
313.999
314.352
314.54
314.895
315.115
315.346
315.416
315.513
315.518
315.645
315.654
315.569
315.534
315.395
315.36
315.23
314.91
314.841
309.655
309.907
310.001
310.271
310.369
310.608
310.733
310.922
310.965
311.083
311.093
311.15
311.145
311.089
311.1
310.971
310.974
310.881
310.641
310.612
305.777
305.933
306.022
306.218
306.223
306.368
306.43
306.522
306.553
306.609
306.676
306.695
306.68
306.62
306.655
306.568
306.586
306.544
306.372
306.384
301.953
301.992
302.004
302.093
302.083
302.155
302.165
302.173
302.204
302.207
302.243
302.248
302.246
302.213
302.229
302.197
302.199
302.195
302.137
302.128
329.646
330.349
331.03
331.812
332.285
333.039
333.626
333.718
333.987
334.158
334.207
334.46
334.451
334.274
334.095
333.795
333.711
333.482
332.816
332.362
325.539
326.179
326.709
327.43
327.843
328.478
329.029
329.097
329.303
329.492
329.504
329.717
329.72
329.53
329.43
329.151
329.055
328.877
328.316
327.961
321.522
322.056
322.478
323.13
323.468
324.003
324.448
324.544
324.707
324.839
324.81
325.036
325.033
324.888
324.788
324.55
324.459
324.313
323.864
323.606
317.533
317.979
318.28
318.866
319.118
319.538
319.938
320.005
320.146
320.239
320.207
320.417
320.417
320.292
320.202
320.031
319.898
319.813
319.447
319.28
313.607
313.925
314.155
314.629
314.835
315.186
315.477
315.507
315.584
315.701
315.624
315.84
315.852
315.734
315.665
315.523
315.415
315.381
315.071
314.957
309.72
309.907
310.095
310.451
310.608
310.845
311.031
311.067
311.092
311.205
311.111
311.231
311.297
311.212
311.117
311.055
310.983
310.982
310.789
310.66
305.838
305.957
306.039
306.272
306.365
306.498
306.625
306.642
306.649
306.759
306.626
306.726
306.781
306.727
306.665
306.647
306.597
306.592
306.518
306.377
301.959
301.993
302.03
302.104
302.139
302.209
302.224
302.234
302.218
302.27
302.203
302.256
302.27
302.263
302.21
302.217
302.213
302.202
302.186
302.145
329.94
330.508
331.276
332.148
332.63
333.085
333.713
334.032
334.18
334.3
334.553
334.784
334.894
334.56
334.329
334.332
334.163
333.565
332.987
332.628
325.808
326.288
326.967
327.713
328.093
328.588
329.092
329.307
329.448
329.537
329.771
329.992
330.077
329.806
329.58
329.597
329.466
328.95
328.422
328.137
321.71
322.175
322.711
323.34
323.662
324.139
324.516
324.667
324.776
324.924
325.108
325.295
325.324
325.072
324.9
324.956
324.838
324.405
323.969
323.704
317.729
318.105
318.485
319.06
319.231
319.721
320.033
320.115
320.163
320.327
320.444
320.642
320.626
320.424
320.323
320.409
320.243
319.92
319.538
319.308
313.734
314.064
314.297
314.858
314.904
315.307
315.549
315.624
315.668
315.733
315.846
315.998
315.975
315.795
315.781
315.846
315.738
315.443
315.155
314.993
309.843
310.043
310.185
310.637
310.626
310.938
311.079
311.171
311.16
311.251
311.277
311.417
311.377
311.206
311.251
311.315
311.265
311.033
310.815
310.694
305.927
306.055
306.104
306.394
306.366
306.588
306.663
306.719
306.688
306.759
306.778
306.847
306.811
306.691
306.731
306.815
306.767
306.666
306.479
306.41
301.987
302.027
302.048
302.157
302.118
302.217
302.247
302.243
302.237
302.272
302.272
302.293
302.263
302.227
302.253
302.3
302.273
302.244
302.171
302.151
)
;

boundaryField
{
    hotSide
    {
        type            fixedGradient;
        gradient        nonuniform List<scalar> 
400
(
193.926
203.815
213.679
223.474
233.156
242.68
252.001
261.075
269.855
278.298
286.36
294
301.178
307.856
313.998
319.573
324.55
328.903
332.61
335.652
197.709
207.909
218.087
228.2
238.202
248.046
257.685
267.074
276.165
284.912
293.271
301.199
308.653
315.596
321.989
327.8
332.996
337.552
341.444
344.651
201.094
211.582
222.054
232.463
242.762
252.904
262.84
272.523
281.904
290.936
299.573
307.77
315.485
322.676
329.305
335.338
340.742
345.49
349.556
352.92
204.093
214.847
225.587
236.268
246.841
257.257
267.466
277.42
287.069
296.364
305.257
313.703
321.658
329.079
335.927
342.167
347.764
352.69
356.919
360.429
206.722
217.715
228.698
239.625
250.445
261.109
271.566
281.765
291.657
301.19
310.316
318.989
327.162
334.792
341.84
348.268
354.041
359.13
363.508
367.153
208.994
220.198
231.397
242.542
253.581
264.466
275.142
285.56
295.667
305.413
314.747
323.621
331.988
339.806
347.031
353.627
359.557
364.792
369.304
373.069
210.922
222.31
233.695
245.028
256.258
267.333
278.2
288.807
299.101
309.03
318.544
327.592
336.129
344.108
351.488
358.23
364.297
369.659
374.286
378.157
212.517
224.058
235.6
247.09
258.48
269.714
280.741
291.506
301.956
312.039
321.703
330.898
339.576
347.691
355.2
362.064
368.246
373.713
378.438
382.397
213.787
225.451
237.116
248.733
260.249
271.611
282.764
293.655
304.23
314.435
324.219
333.53
342.32
350.543
358.155
365.115
371.388
376.94
381.741
385.769
214.736
226.49
238.247
249.956
261.565
273.02
284.267
295.25
305.917
316.212
326.083
335.479
344.351
352.652
360.339
367.37
373.708
379.321
384.178
388.256
215.362
227.173
238.988
250.756
262.424
273.937
285.242
296.284
307.007
317.358
327.283
336.732
345.655
354.004
361.737
368.811
375.189
380.839
385.73
389.838
215.658
227.492
239.331
251.123
262.814
274.351
285.679
296.743
307.488
317.86
327.806
337.275
346.216
354.584
362.333
369.422
375.814
381.476
386.379
390.496
215.613
227.437
239.264
251.044
262.723
274.247
285.562
296.613
307.345
317.703
327.636
337.091
346.019
354.372
362.108
369.184
375.564
381.214
386.105
390.211
215.212
226.99
238.771
250.503
262.133
273.609
284.875
295.876
306.559
316.869
326.753
336.161
345.043
353.352
361.044
368.08
374.421
380.034
384.89
388.965
214.434
226.131
237.83
249.479
261.025
272.416
283.596
294.512
305.11
315.336
325.139
334.466
343.27
351.503
359.124
366.09
372.366
377.918
382.718
386.742
213.257
224.839
236.421
247.95
259.376
270.645
281.705
292.5
302.978
313.087
322.773
331.987
340.681
348.809
356.329
363.199
369.385
374.853
379.575
383.528
211.656
223.09
234.519
245.894
257.164
268.277
279.18
289.82
300.144
310.1
319.638
328.708
337.262
345.255
352.645
359.394
365.465
370.827
375.451
379.315
209.609
220.859
232.102
243.288
254.368
265.29
276.003
286.453
296.59
306.362
315.719
324.614
332.998
340.829
348.064
354.666
360.6
365.834
370.341
374.1
207.093
218.127
229.15
240.114
250.97
261.668
272.157
282.385
292.303
301.86
311.007
319.697
327.884
335.525
342.581
349.013
354.788
359.875
364.248
367.886
204.088
214.873
225.645
236.355
246.955
257.397
267.631
277.607
287.275
296.587
305.496
313.954
321.918
329.346
336.199
342.44
348.037
352.959
357.183
360.685
)
;
    }
    coldSide
    {
        type            mixed;
        refValue        uniform 300;
        refGradient     uniform 0;
        valueFraction   uniform 0.991591;
        source          uniform 0;
        value           nonuniform List<scalar> 
400
(
300.01
300.01
300.01
300.011
300.012
300.012
300.012
300.013
300.013
300.014
300.014
300.015
300.015
300.015
300.016
300.016
300.016
300.016
300.016
300.017
300.01
300.01
300.011
300.011
300.012
300.012
300.012
300.013
300.014
300.014
300.014
300.015
300.015
300.015
300.016
300.016
300.016
300.017
300.017
300.017
300.01
300.01
300.011