/*--------------------------------*- C++ -*----------------------------------*\
| =========                 |                                                 |
| \\      /  F ield         | OpenFOAM: The Open Source CFD Toolbox           |
|  \\    /   O peration     | Version:  2212                                  |
|   \\  /    A nd           | Website:  www.openfoam.com                      |
|    \\/     M anipulation  |                                                 |
\*---------------------------------------------------------------------------*/
FoamFile
{
    version     2.0;
    format      ascii;
    arch        "LSB;label=32;scalar=64";
    class       volScalarField;
    location    "0";
    object      T;
}
// * * * * * * * * * * * * * * * * * * * * * * * * * * * * * * * * * * * * * //

dimensions      [0 0 0 1 0 0 0];

internalField   nonuniform List<scalar> 
3200
(
347.83
346.914
346.367
346.244
346.661
347.194
348.021
348.61
349.31
349.651
349.625
349.552
348.904
348.354
347.42
346.601
345.924
345.696
346.006
346.662
341.525
340.727
340.275
340.165
340.545
340.977
341.69
342.183
342.784
343.092
343.052
342.988
342.431
341.965
341.14
340.429
339.852
339.627
339.891
340.398
335.207
334.499
334.137
334.031
334.362
334.72
335.315
335.699
336.24
336.5
336.473
336.417
335.933
335.532
334.842
334.231
333.759
333.541
333.77
334.163
328.877
328.247
327.954
327.859
328.146
328.436
328.937
329.244
329.659
329.909
329.843
329.82
329.443
329.107
328.529
328.053
327.646
327.464
327.658
327.963
322.489
322
321.758
321.685
321.914
322.15
322.531
322.763
323.053
323.298
323.23
323.195
322.926
322.655
322.212
321.854
321.532
321.376
321.538
321.744
316.069
315.734
315.556
315.503
315.674
315.849
316.095
316.26
316.467
316.643
316.627
316.575
316.389
316.198
315.894
315.638
315.389
315.269
315.397
315.539
309.652
309.463
309.34
309.321
309.423
309.533
309.668
309.774
309.885
309.982
309.994
309.973
309.847
309.716
309.562
309.4
309.248
309.168
309.245
309.343
303.231
303.175
303.129
303.128
303.163
303.19
303.241
303.286
303.318
303.348
303.353
303.343
303.293
303.255
303.214
303.152
303.092
303.072
303.097
303.135
347.782
346.89
346.242
346.213
346.667
347.264
348.143
348.901
349.636
350.081
350.072
349.837
349.335
348.571
347.511
346.636
345.991
345.727
346.021
346.55
341.47
340.731
340.153
340.149
340.517
341.05
341.772
342.429
343.05
343.471
343.447
343.226
342.774
342.116
341.198
340.474
339.898
339.647
339.896
340.327
335.133
334.543
334.035
334.035
334.334
334.775
335.391
335.953
336.434
336.821
336.801
336.617
336.237
335.653
334.877
334.312
333.783
333.57
333.765
334.106
328.77
328.319
327.888
327.911
328.127
328.465
328.996
329.451
329.808
330.163
330.127
329.985
329.683
329.173
328.577
328.089
327.677
327.484
327.633
327.892
322.388
322.05
321.721
321.751
321.923
322.156
322.579
322.925
323.195
323.495
323.473
323.352
323.115
322.684
322.27
321.87
321.545
321.37
321.516
321.689
315.997
315.782
315.53
315.554
315.699
315.843
316.163
316.388
316.575
316.807
316.8
316.695
316.531
316.2
315.938
315.652
315.399
315.272
315.387
315.488
309.597
309.494
309.337
309.344
309.444
309.518
309.723
309.852
309.955
310.102
310.09
310.009
309.946
309.723
309.577
309.409
309.238
309.185
309.232
309.299
303.21
303.193
303.132
303.133
303.184
303.19
303.26
303.315
303.335
303.379
303.387
303.36
303.331
303.264
303.206
303.156
303.101
303.084
303.09
303.113
347.841
347.02
346.383
346.462
346.788
347.548
348.45
349.316
350.06
350.594
350.789
350.61
349.895
348.944
347.917
347.011
346.222
345.849
346.121
346.865
341.508
340.817
340.299
340.346
340.617
341.262
342.048
342.762
343.416
343.868
344.042
343.881
343.283
342.435
341.568
340.77
340.091
339.761
340.004
340.592
335.19
334.585
334.164
334.201
334.419
334.945
335.634
336.203
336.763
337.157
337.266
337.17
336.655
335.93
335.201
334.497
333.949
333.658
333.882
334.326
328.831
328.33
327.981
328.019
328.192
328.617
329.189
329.67
330.094
330.443
330.518
330.427
330.006
329.424
328.838
328.216
327.787
327.557
327.733
328.047
322.44
322.066
321.774
321.81
321.953
322.295
322.728
323.104
323.429
323.703
323.749
323.71
323.338
322.892
322.448
321.917
321.618
321.453
321.564
321.792
316.042
315.804
315.579
315.604
315.708
315.952
316.266
316.5
316.73
316.977
317.005
316.949
316.691
316.348
316.027
315.645
315.452
315.352
315.409
315.577
309.638
309.517
309.372
309.386
309.451
309.591
309.777
309.912
310.039
310.208
310.23
310.166
310.025
309.813
309.622
309.403
309.277
309.218
309.248
309.355
303.229
303.193
303.144
303.158
303.172
303.208
303.285
303.333
303.38
303.419
303.442
303.404
303.366
303.288
303.22
303.155
303.106
303.085
303.095
303.14
348.14
347.233
346.655
346.773
347.172
348.051
348.846
349.816
350.786
351.279
351.551
351.456
350.718
349.62
348.57
347.513
346.634
346.241
346.546
347.164
341.778
341.006
340.531
340.648
340.956
341.703
342.377
343.188
344.051
344.48
344.717
344.606
343.958
343.01
342.104
341.201
340.446
340.114
340.373
340.865
335.392
334.747
334.382
334.482
334.704
335.322
335.878
336.554
337.282
337.665
337.868
337.744
337.202
336.373
335.635
334.856
334.223
333.978
334.173
334.568
328.989
328.477
328.196
328.258
328.445
328.946
329.357
329.937
330.518
330.858
331.007
330.887
330.44
329.765
329.182
328.531
327.988
327.827
327.971
328.27
322.571
322.214
321.967
321.998
322.164
322.548
322.847
323.294
323.739
324.045
324.14
324.045
323.687
323.16
322.703
322.187
321.77
321.654
321.779
321.983
316.135
315.919
315.717
315.731
315.878
316.136
316.351
316.664
316.96
317.207
317.261
317.183
316.92
316.552
316.195
315.845
315.548
315.455
315.575
315.711
309.668
309.592
309.452
309.456
309.55
309.704
309.839
310.017
310.193
310.331
310.377
310.326
310.15
309.948
309.697
309.507
309.332
309.263
309.353
309.441
303.238
303.223
303.169
303.165
303.209
303.26
303.305
303.352
303.42
303.461
303.491
303.47
303.398
303.339
303.245
303.192
303.128
303.096
303.139
303.176
348.464
347.684
347.132
347.324
347.866
348.621
349.524
350.568
351.492
352.29
352.495
352.284
351.455
350.439
349.176
348.155
347.354
346.912
347.078
347.73
342.054
341.4
340.911
341.096
341.588
342.165
342.94
343.864
344.664
345.327
345.504
345.332
344.59
343.716
342.601
341.763
341.074
340.692
340.801
341.342
335.616
335.094
334.676
334.838
335.251
335.696
336.361
337.14
337.814
338.34
338.52
338.401
337.731
336.981
336.04
335.356
334.753
334.47
334.544
334.939
329.18
328.735
328.416
328.558
328.878
329.233
329.765
330.419
330.949
331.386
331.528
331.45
330.881
330.255
329.494
328.939
328.437
328.224
328.269
328.533
322.728
322.362
322.132
322.237
322.492
322.757
323.161
323.706
324.082
324.412
324.534
324.487
324.057
323.545
322.915
322.511
322.144
321.964
322.01
322.179
316.261
315.987
315.82
315.912
316.093
316.259
316.54
316.953
317.208
317.453
317.539
317.51
317.204
316.843
316.37
316.085
315.826
315.708
315.749
315.848
309.764
309.606
309.519
309.564
309.66
309.75
309.938
310.203
310.343
310.475
310.537
310.523
310.327
310.121
309.829
309.665
309.506
309.422
309.471
309.537
303.281
303.222
303.189
303.202
303.23
303.258
303.327
303.427
303.468
303.503
303.532
303.529
303.458
303.389
303.288
303.252
303.179
303.155
303.174
303.196
348.957
348.284
347.763
347.954
348.617
349.312
350.201
351.379
352.415
353.064
353.402
353.2
352.38
351.288
350.09
349.064
348.069
347.721
347.895
348.502
342.481
341.928
341.479
341.647
342.24
342.793
343.546
344.542
345.457
345.997
346.299
346.111
345.387
344.445
343.429
342.542
341.696
341.401
341.538
342.021
335.997
335.547
335.173
335.297
335.811
336.254
336.879
337.72
338.466
338.911
339.191
339.025
338.406
337.615
336.763
336.011
335.3
335.062
335.134
335.541
329.487
329.126
328.812
328.886
329.355
329.705
330.205
330.874
331.471
331.829
332.097
331.965
331.423
330.787
330.078
329.467
328.9
328.691
328.726
329.058
322.968
322.69
322.418
322.496
322.861
323.144
323.529
324.026
324.484
324.755
325.006
324.881
324.441
323.965
323.372
322.947
322.486
322.349
322.345
322.579
316.458
316.21
316.036
316.081
316.368
316.531
316.826
317.182
317.498
317.696
317.892
317.778
317.456
317.127
316.697
316.387
316.06
315.978
315.957
316.104
309.904
309.74
309.644
309.666
309.848
309.919
310.107
310.326
310.511
310.618
310.753
310.689
310.487
310.287
310.028
309.832
309.649
309.609
309.58
309.658
303.327
303.26
303.227
303.233
303.306
303.326
303.384
303.464
303.524
303.558
303.606
303.592
303.512
303.452
303.367
303.305
303.234
303.212
303.211
303.236
349.698
348.869
348.411
348.679
349.25
350.107
351.024
352.169
353.361
354.011
354.37
354.089
353.391
352.383
350.974
349.898
348.814
348.579
348.758
349.318
343.141
342.44
342.034
342.238
342.746
343.489
344.248
345.217
346.254
346.807
347.106
346.871
346.262
345.38
344.182
343.266
342.317
342.128
342.284
342.731
336.562
335.967
335.625
335.784
336.227
336.858
337.458
338.266
339.14
339.615
339.843
339.637
339.131
338.386
337.403
336.623
335.839
335.664
335.805
336.141
329.941
329.478
329.202
329.326
329.655
330.162
330.655
331.312
332.042
332.41
332.588
332.425
332.022
331.407
330.613
330
329.345
329.187
329.317
329.576
323.315
322.946
322.763
322.843
323.072
323.459
323.849
324.333
324.931
325.22
325.348
325.199
324.923
324.418
323.834
323.369
322.841
322.706
322.823
322.991
316.688
316.378
316.304
316.332
316.486
316.763
317.044
317.382
317.82
318.024
318.126
318.012
317.796
317.444
317.026
316.737
316.34
316.248
316.321
316.419
310.023
309.826
309.814
309.824
309.9
310.058
310.229
310.427
310.712
310.835
310.906
310.818
310.689
310.485
310.211
310.053
309.815
309.769
309.789
309.863
303.353
303.284
303.288
303.292
303.316
303.37
303.426
303.5
303.583
303.634
303.656
303.62
303.572
303.52
303.414
303.359
303.289
303.266
303.277
303.309
350.572
349.734
349.278
349.506
349.969
350.881
351.9
353.11
354.27
354.99
355.308
355.051
354.315
353.247
352.013
350.779
349.873
349.603
349.683
350.096
343.884
343.194
342.766
342.974
343.359
344.134
345.005
346.046
347.051
347.641
347.92
347.703
347.055
346.117
345.071
344.005
343.245
343.018
343.069
343.4
337.17
336.629
336.245
336.379
336.728
337.356
338.1
338.963
339.804
340.299
340.564
340.349
339.796
339.015
338.132
337.244
336.613
336.404
336.444
336.715
330.426
330.026
329.694
329.785
330.079
330.566
331.191
331.887
332.572
332.958
333.184
333.011
332.542
331.901
331.198
330.484
329.976
329.794
329.836
330.032
323.678
323.388
323.119
323.186
323.426
323.783
324.242
324.794
325.331
325.628
325.807
325.665
325.309
324.815
324.247
323.697
323.334
323.164
323.21
323.335
316.94
316.736
316.565
316.577
316.742
317.008
317.291
317.705
318.118
318.304
318.447
318.317
318.092
317.736
317.327
316.934
316.679
316.535
316.604
316.659
310.18
310.07
309.982
309.951
310.062
310.226
310.383
310.628
310.891
310.988
311.096
310.993
310.876
310.663
310.402
310.161
310.021
309.921
309.986
310.011
303.417
303.385
303.351
303.331
303.368
303.429
303.482
303.559
303.662
303.678
303.727
303.678
303.648
303.572
303.487
303.408
303.365
303.329
303.345
303.364
351.299
350.532
350.264
350.336
350.895
351.599
352.728
353.931
354.95
355.766
356.21
355.89
355.264
354.096
352.884
351.743
350.865
350.625
350.591
351.013
344.517
343.875
343.625
343.699
344.158
344.765
345.72
346.757
347.611
348.307
348.668
348.398
347.862
346.84
345.817
344.831
344.076
343.895
343.847
344.206
337.69
337.204
336.982
337.044
337.399
337.892
338.708
339.591
340.265
340.85
341.156
340.917
340.48
339.635
338.768
337.928
337.291
337.137
337.105
337.372
330.857
330.49
330.313
330.369
330.614
331.027
331.696
332.414
332.939
333.411
333.666
333.473
333.08
332.423
331.721
331.007
330.521
330.352
330.368
330.556
324.015
323.729
323.609
323.656
323.82
324.141
324.673
325.234
325.643
325.986
326.181
326.034
325.702
325.225
324.683
324.106
323.757
323.595
323.616
323.78
317.15
316.954
316.881
316.904
317.043
317.249
317.628
318.04
318.334
318.567
318.701
318.614
318.353
318.026
317.65
317.222
316.994
316.859
316.863
316.995
310.291
310.178
310.149
310.158
310.253
310.371
310.587
310.842
311.012
311.149
311.228
311.197
311.01
310.829
310.608
310.354
310.215
310.122
310.127
310.207
303.451
303.414
303.408
303.407
303.435
303.469
303.543
303.63
303.697
303.741
303.763
303.747
303.694
303.64
303.557
303.473
303.424
303.387
303.404
303.427
352.185
351.486
351.222
351.175
351.734
352.595
353.51
354.738
355.814
356.576
356.838
356.718
356.021
354.985
353.805
352.678
351.858
351.527
351.511
351.968
345.261
344.672
344.432
344.428
344.883
345.622
346.403
347.449
348.379
349.043
349.242
349.127
348.499
347.595
346.609
345.666
344.949
344.653
344.644
345.034
338.33
337.845
337.658
337.634
338.034
338.635
339.284
340.173
340.951
341.492
341.652
341.558
340.998
340.238
339.42
338.626
338.032
337.768
337.767
338.103
331.397
331.007
330.874
330.824
331.154
331.636
332.14
332.878
333.521
333.956
334.062
334.009
333.54
332.933
332.245
331.601
331.096
330.88
330.905
331.157
324.427
324.119
324.047
323.996
324.253
324.621
325.031
325.589
326.078
326.418
326.485
326.459
326.075
325.618
325.075
324.558
324.175
324.009
324.035
324.213
317.469
317.241
317.182
317.144
317.333
317.593
317.914
318.288
318.644
318.882
318.91
318.908
318.629
318.311
317.921
317.551
317.268
317.154
317.149
317.282
310.501
310.35
310.318
310.296
310.414
310.569
310.769
310.996
311.208
311.351
311.338
311.365
311.195
311.008
310.758
310.557
310.374
310.297
310.278
310.36
303.519
303.465
303.461
303.451
303.497
303.543
303.61
303.679
303.756
303.805
303.799
303.807
303.749
303.681
303.61
303.54
303.476
303.443
303.447
303.472
353.116
352.491
352.104
352.067
352.641
353.418
354.304
355.539
356.584
357.343
357.527
357.581
356.941
355.89
354.712
353.474
352.773
352.387
352.389
352.989
346.057
345.556
345.194
345.186
345.674
346.34
347.076
348.135
349.043
349.664
349.835
349.878
349.304
348.423
347.407
346.315
345.729
345.37
345.398
345.926
339.002
338.599
338.283
338.294
338.699
339.238
339.855
340.739
341.489
342.016
342.161
342.197
341.709
340.969
340.089
339.172
338.694
338.383
338.431
338.828
331.937
331.641
331.362
331.384
331.692
332.135
332.631
333.351
333.946
334.407
334.486
334.533
334.104
333.507
332.798
332.028
331.656
331.407
331.453
331.755
324.877
324.661
324.391
324.435
324.665
325.026
325.414
325.954
326.412
326.758
326.815
326.873
326.486
326.052
325.496
324.91
324.624
324.425
324.47
324.695
317.813
317.649
317.414
317.465
317.606
317.92
318.172
318.549
318.874
319.099
319.149
319.211
318.896
318.601
318.189
317.796
317.602
317.457
317.487
317.632
310.732
310.61
310.461
310.497
310.584
310.771
310.913
311.147
311.334
311.48
311.505
311.548
311.331
311.165
310.918
310.672
310.576
310.49
310.512
310.577
303.599
303.558
303.502
303.523
303.555
303.617
303.65
303.734
303.805
303.851
303.854
303.873
303.797
303.742
303.653
303.572
303.544
303.52
303.518
303.546
354.092
353.579
353.17
353.167
353.583
354.342
355.122
356.326
357.309
357.993
358.325
358.319
357.516
356.608
355.511
354.361
353.584
353.322
353.359
353.908
346.907
346.516
346.15
346.118
346.477
347.125
347.769
348.828
349.655
350.232
350.523
350.529
349.821
349.047
348.109
347.074
346.426
346.205
346.221
346.684
339.717
339.424
339.087
339.039
339.357
339.908
340.388
341.336
342.018
342.484
342.718
342.747
342.129
341.504
340.699
339.827
339.275
339.075
339.094
339.469
332.513
332.306
331.996
331.968
332.239
332.694
333.035
333.843
334.358
334.746
334.945
334.959
334.455
333.955
333.274
332.594
332.116
331.966
331.978
332.266
325.286
325.145
324.915
324.885
325.096
325.466
325.693
326.315
326.684
327.013
327.168
327.193
326.822
326.401
325.853
325.358
324.957
324.851
324.869
325.085
318.079
317.996
317.792
317.786
317.941
318.212
318.345
318.793
319.044
319.297
319.413
319.441
319.173
318.862
318.459
318.116
317.805
317.743
317.773
317.896
310.859
310.834
310.676
310.668
310.77
310.947
311.019
311.278
311.44
311.615
311.664
311.687
311.528
311.347
311.079
310.878
310.704
310.659
310.676
310.728
303.639
303.636
303.586
303.578
303.609
303.674
303.702
303.777
303.836
303.901
303.913
303.908
303.87
303.8
303.71
303.636
303.583
303.579
303.586
303.594
355.104
354.548
353.99
354.042
354.356
355.041
355.859
356.972
357.828
358.555
358.85
358.725
358.035
357.314
356.255
355.306
354.523
354.319
354.359
354.891
347.804
347.325
346.853
346.883
347.165
347.738
348.426
349.368
350.118
350.754
350.999
350.902
350.27
349.65
348.725
347.921
347.235
347.072
347.106
347.523
340.486
340.064
339.69
339.7
339.952
340.426
340.998
341.767
342.413
342.929
343.13
343.084
342.517
341.989
341.194
340.541
339.935
339.805
339.842
340.19
333.158
332.814
332.492
332.5
332.695
333.099
333.56
334.163
334.699
335.111
335.272
335.252
334.765
334.346
333.677
333.158
332.641
332.566
332.599
332.855
325.812
325.539
325.282
325.285
325.419
325.755
326.101
326.565
326.999
327.279
327.408
327.429
327.05
326.731
326.183
325.779
325.362
325.332
325.372
325.537
318.46
318.259
318.073
318.073
318.148
318.41
318.65
318.959
319.3
319.47
319.584
319.607
319.33
319.099
318.709
318.406
318.134
318.094
318.129
318.241
311.089
310.974
310.869
310.867
310.894
311.066
311.213
311.383
311.603
311.679
311.76
311.797
311.604
311.458
311.227
311.035
310.888
310.852
310.889
310.954
303.724
303.674
303.646
303.638
303.643
303.713
303.759
303.819
303.893
303.916
303.936
303.954
303.899
303.844
303.766
303.691
303.644
303.643
303.644
303.67
356.093
355.551
354.954
354.967
355.352
355.946
356.656
357.658
358.401
359.083
359.406
359.195
358.662
357.858
357.026
356.164
355.481
355.262
355.384
355.816
348.661
348.191
347.645
347.7
348.025
348.526
349.113
349.971
350.63
351.174
351.471
351.28
350.817
350.118
349.411
348.658
348.082
347.893
347.971
348.333
341.19
340.804
340.342
340.411
340.686
341.104
341.576
342.275
342.844
343.272
343.549
343.39
342.993
342.404
341.789
341.167
340.663
340.506
340.592
340.885
333.701
333.397
333.024
333.104
333.304
333.659
334.012
334.597
335.042
335.387
335.629
335.501
335.168
334.695
334.168
333.697
333.258
333.118
333.219
333.451
326.225
325.997
325.699
325.766
325.926
326.193
326.447
326.901
327.253
327.519
327.728
327.631
327.359
326.998
326.572
326.199
325.853
325.763
325.847
325.996
318.725
318.58
318.366
318.411
318.55
318.729
318.903
319.214
319.475
319.649
319.818
319.754
319.551
319.289
318.975
318.731
318.461
318.395
318.472
318.567
311.242
311.161
311.022
311.064
311.16
311.263
311.343
311.525
311.699
311.814
311.898
311.869
311.744
311.572
311.395
311.248
311.082
311.042
311.101
311.135
303.773
303.742
303.689
303.717
303.737
303.781
303.81
303.863
303.917
303.967
303.991
303.976
303.943
303.883
303.823
303.773
303.715
303.696
303.72
303.729
357.162
356.606
356.025
356.034
356.338
356.842
357.522
358.283
358.972
359.59
359.911
359.678
359.195
358.454
357.679
356.977
356.477
356.261
356.433
356.918
349.574
349.109
348.602
348.603
348.855
349.309
349.872
350.553
351.115
351.636
351.884
351.721
351.277
350.638
349.98
349.37
348.931
348.739
348.891
349.267
341.989
341.594
341.175
341.122
341.358
341.757
342.216
342.799
343.254
343.681
343.892
343.771
343.384
342.832
342.259
341.76
341.395
341.186
341.342
341.65
334.375
334.08
333.726
333.642
333.839
334.191
334.55
335.032
335.377
335.734
335.925
335.824
335.509
335.038
334.57
334.161
333.871
333.697
333.815
334.039
326.756
326.531
326.263
326.159
326.305
326.581
326.865
327.251
327.513
327.798
327.966
327.866
327.628
327.244
326.887
326.576
326.34
326.197
326.291
326.451
319.132
318.97
318.797
318.675
318.787
318.994
319.182
319.465
319.657
319.85
319.995
319.912
319.75
319.454
319.187
319.005
318.823
318.706
318.775
318.899
311.494
311.393
311.301
311.232
311.269
311.399
311.523
311.668
311.809
311.913
312.005
311.94
311.873
311.7
311.528
311.405
311.322
311.23
311.265
311.366
303.854
303.816
303.786
303.763
303.772
303.826
303.862
303.902
303.96
303.99
304.018
304.002
303.985
303.926
303.858
303.828
303.799
303.759
303.777
303.801
358.247
357.54
357.051
357.014
357.168
357.753
358.304
358.993
359.545
360.058
360.303
360.218
359.747
359.216
358.417
357.893
357.441
357.21
357.358
357.924
350.521
349.927
349.521
349.44
349.577
350.083
350.535
351.122
351.606
352.054
352.247
352.172
351.779
351.288
350.618
350.177
349.765
349.591
349.665
350.147
342.791
342.287
341.952
341.868
341.973
342.397
342.766
343.261
343.673
344.034
344.205
344.165
343.824
343.366
342.81
342.429
342.071
341.962
341.991
342.395
335.017
334.652
334.349
334.275
334.369
334.706
334.983
335.402
335.734
336.013
336.184
336.142
335.862
335.474
335.012
334.695
334.392
334.306
334.338
334.65
327.24
326.977
326.754
326.692
326.746
327.003
327.211
327.539
327.803
328.022
328.17
328.11
327.877
327.57
327.215
326.964
326.744
326.677
326.704
326.948
319.47
319.287
319.136
319.086
319.123
319.301
319.443
319.666
319.874
320.026
320.146
320.086
319.906
319.679
319.467
319.264
319.094
319.044
319.084
319.257
311.686
311.586
311.51
311.475
311.487
311.585
311.673
311.799
311.936
312.037
312.098
312.063
311.942
311.805
311.714
311.579
311.472
311.439
311.459
311.551
303.914
303.885
303.86
303.854
303.85
303.885
303.92
303.956
303.999
304.034
304.054
304.042
303.996
303.961
303.927
303.893
303.834
303.831
303.849
303.866
359.325
358.612
358.096
358.04
358.145
358.582
359.079
359.575
360.153
360.695
360.823
360.773
360.324
359.836
359.299
358.673
358.305
358.287
358.352
358.929
351.438
350.85
350.39
350.345
350.433
350.799
351.229
351.626
352.129
352.607
352.694
352.648
352.251
351.837
351.366
350.841
350.513
350.488
350.542
351.022
343.558
343.067
342.688
342.622
342.697
342.985
343.356
343.704
344.098
344.522
344.58
344.542
344.183
343.834
343.449
343.011
342.748
342.71
342.748
343.123
335.684
335.254
334.967
334.871
334.963
335.174
335.477
335.773
336.07
336.44
336.466
336.447
336.153
335.853
335.555
335.172
334.99
334.947
334.986
335.269
327.794
327.431
327.224
327.12
327.229
327.353
327.578
327.828
328.036
328.348
328.366
328.347
328.122
327.876
327.651
327.343
327.218
327.174
327.227
327.415
319.863
319.604
319.455
319.38
319.468
319.549
319.692
319.879
320.024
320.263
320.263
320.267
320.113
319.907
319.769
319.531
319.434
319.421
319.439
319.581
311.938
311.768
311.704
311.647
311.693
311.755
311.833
311.924
312.013
312.166
312.167
312.181
312.088
311.957
311.883
311.724
311.676
311.669
311.668
311.755
303.997
303.938
303.929
303.905
303.918
303.953
303.967
303.998
304.022
304.083
304.073
304.088
304.05
304.01
303.984
303.928
303.912
303.906
303.915
303.947
360.377
359.598
359.073
358.954
359.094
359.46
359.89
360.271
360.748
361.188
361.342
361.304
361.021
360.422
360.023
359.518
359.351
359.281
359.469
360.125
352.336
351.701
351.221
351.1
351.235
351.556
351.922
352.216
352.652
353.014
353.153
353.117
352.876
352.346
351.999
351.543
351.433
351.366
351.503
352.068
344.284
343.774
343.366
343.258
343.361
343.644
343.965
344.169
344.571
344.84
344.97
344.944
344.72
344.264
343.987
343.598
343.542
343.463
343.544
344.031
336.242
335.808
335.506
335.425
335.496
335.714
335.977
336.126
336.486
336.68
336.786
336.754
336.567
336.201
335.943
335.673
335.636
335.576
335.627
336.003
328.188
327.855
327.655
327.607
327.613
327.768
327.996
328.094
328.378
328.497
328.622
328.585
328.425
328.143
327.935
327.716
327.737
327.687
327.73
328.023
320.148
319.905
319.757
319.753
319.739
319.847
319.997
320.063
320.272
320.348
320.466
320.422
320.307
320.087
319.932
319.803
319.822
319.778
319.832
320.042
312.094
311.958
311.87
311.868
311.865
311.92
312
312.031
312.176
312.232
312.307
312.27
312.196
312.056
311.957
311.894
311.909
311.887
311.924
312.054
304.05
304.01
303.99
303.984
303.973
303.997
304.022
304.032
304.087
304.099
304.14
304.11
304.088
304.04
304.003
303.989
303.993
303.977
304.01
304.037
361.461
360.7
360.072
359.995
360.053
360.378
360.737
360.976
361.434
361.777
361.89
361.842
361.657
361.024
360.637
360.328
360.188
360.084
360.41
361.169
353.266
352.635
352.073
352.005
352.062
352.353
352.643
352.803
353.224
353.506
353.611
353.572
353.4
352.845
352.507
352.213
352.118
352.033
352.314
352.948
345.045
344.54
344.069
343.987
344.068
344.309
344.564
344.661
345.023
345.248
345.347
345.305
345.152
344.673
344.409
344.138
344.078
343.984
344.235
344.759
336.864
336.435
336.049
335.993
336.082
336.273
336.476
336.549
336.829
336.981
337.095
337.064
336.937
336.551
336.325
336.07
336.048
335.963
336.155
336.587
328.694
328.341
328.041
328.008
328.116
328.236
328.377
328.426
328.643
328.739
328.846
328.823
328.716
328.435
328.244
328.037
328.018
327.941
328.089
328.422
320.505
320.25
320.029
320.009
320.1
320.198
320.277
320.288
320.469
320.518
320.608
320.607
320.517
320.325
320.179
320.023
320.017
319.938
320.044
320.283
312.313
312.17
312.031
312.012
312.057
312.16
312.188
312.157
312.322
312.321
312.372
312.38
312.327
312.214
312.125
312.002
312.023
311.97
312.022
312.157
304.133
304.094
304.031
304.026
304.048
304.077
304.088
304.065
304.137
304.128
304.144
304.15
304.128
304.091
304.067
304.018
304.03
304.009
304.031
304.069
362.273
361.498
361.014
360.798
360.875
361.036
361.304
361.574
361.931
362.115
362.413
362.365
362.046
361.661
361.211
360.989
360.837
360.907
361.243
362.033
353.922
353.286
352.87
352.682
352.746
352.893
353.1
353.307
353.605
353.788
354.065
354.015
353.732
353.381
352.977
352.791
352.676
352.706
352.99
353.664
345.585
345.067
344.717
344.57
344.629
344.765
344.916
345.069
345.315
345.501
345.708
345.69
345.433
345.116
344.769
344.607
344.524
344.533
344.777
345.332
337.256
336.837
336.565
336.471
336.526
336.651
336.751
336.845
337.031
337.229
337.402
337.393
337.174
336.88
336.596
336.455
336.418
336.394
336.591
337.026
328.956
328.614
328.443
328.352
328.42
328.519
328.604
328.633
328.784
328.946
329.079
329.097
328.889
328.672
328.434
328.329
328.308
328.291
328.425
328.769
320.69
320.429
320.342
320.239
320.317
320.386
320.45
320.446
320.559
320.685
320.782
320.791
320.632
320.456
320.296
320.222
320.21
320.199
320.307
320.535
312.418
312.266
312.228
312.146
312.204
312.253
312.288
312.277
312.356
312.412
312.481
312.476
312.384
312.267
312.17
312.117
312.131
312.128
312.198
312.327
304.16
304.11
304.096
304.071
304.087
304.104
304.118
304.115
304.138
304.165
304.192
304.173
304.143
304.114
304.074
304.058
304.067
304.062
304.084
304.136
)
;

boundaryField
{
    hotSide
    {
        type            fixedGradient;
        gradient        nonuniform List<scalar> 
400
(
504.848
502.615
502.785
505.288
509.869
516.168
523.802
532.426
541.76
551.593
561.782
572.24
582.931
593.866
605.099
616.719
628.843
641.589
655.052
669.272
490.31
488.371
488.999
492.105
497.38
504.394
512.704
521.926
531.753
541.967
552.419
563.024
573.756
584.637
595.734
607.161
619.059
631.581
644.845
658.908
483.037
481.678
482.847
486.441
492.147
499.537
508.164
517.637
527.647
537.968
548.449
559.009
569.624
580.325
591.189
602.339
613.925
626.105
639.009
652.698
482.541
482.036
483.841
487.849
493.783
501.27
509.909
519.335
529.247
539.421
549.708
560.026
570.356
580.735
591.247
602.012
613.176
624.885
637.259
650.363
487.03
487.554
490.118
494.602
500.77
508.306
516.867
526.123
535.793
545.662
555.585
565.486
575.355
585.238
595.225
605.437
616.012
627.083
638.758
651.106
494.44
496.088
499.54
504.662
511.235
518.976
527.574
536.725
546.162
555.678
565.138
574.481
583.716
592.909
602.167
611.622
621.413
631.669
642.497
653.971
503.019
505.827
510.281
516.227
523.438
531.632
540.499
549.73
559.05
568.252
577.21
585.889
594.334
602.65
610.982
619.487
628.323
637.626
647.507
658.046
511.356
515.301
520.817
527.729
535.789
544.692
554.09
563.633
573.009
581.985
590.443
598.385
605.916
613.208
620.467
627.895
635.677
643.966
652.878
662.494
518.277
523.239
529.773
537.688
546.711
556.498
566.64
576.71
586.317
595.177
603.171
610.353
616.918
623.134
629.284
635.63
642.386
649.719
657.748
666.552
522.8
528.53
535.881
544.655
554.565
565.226
576.164
586.858
596.81
605.664
613.289
619.805
625.513
630.788
635.997
641.449
647.385
653.978
661.345
669.558
524.203
530.309
538.098
547.372
557.835
569.078
580.584
591.758
602.025
610.962
618.429
624.591
629.828
634.589
639.293
644.278
649.798
656.027
663.081
671.028
522.161
528.16
535.889
545.15
555.641
566.947
578.543
589.83
600.23
609.318
616.948
623.278
628.676
633.588
638.429
643.539
649.176
655.517
662.683
670.743
516.858
522.274
529.461
538.219
548.242
559.125
570.37
581.434
591.806
601.113
609.211
616.197
622.353
628.042
633.627
639.424
645.684
652.592
660.277
668.819
509.01
513.473
519.776
527.724
537.016
547.26
557.998
568.754
579.097
588.71
597.446
605.335
612.551
619.356
626.038
632.87
640.089
647.883
656.391
665.702
499.814
503.096
508.359
515.418
523.975
533.641
543.981
554.557
564.989
574.99
584.407
593.217
601.514
609.473
617.315
625.273
633.565
642.382
651.868
662.119
490.906
492.919
497.137
503.39
511.366
520.655
530.805
541.385
552.025
562.454
572.506
582.127
591.36
600.326
609.197
618.179
627.479
637.291
647.768
659.006
484.388
485.165
488.423
494.005
501.568
510.646
520.746
531.417
542.288
553.089
563.652
573.905
583.863
593.612
603.298
613.108
623.25
633.926
645.299
657.465
482.729
482.436
484.85
489.83
496.995
505.832
515.809
526.46
537.416
548.412
559.282
569.944
580.398
590.708
600.999
611.445
622.25
633.624
645.737
658.682
488.1
487.033
488.715
493.023
499.585
507.896
517.437
527.755
538.496
549.404
560.315
571.144
581.876
592.557
603.292
614.234
625.57
637.495
650.169
663.672
501.204
499.691
500.743
504.264
509.95
517.377
526.098
535.712
545.896
556.408
567.089
577.847
588.655
599.541
610.584
621.906
633.658
645.995
659.044
672.864
)
;
    }
    coldSide
    {
        type            mixed;
        refValue        uniform 300;
        refGradient     uniform 0;
        valueFraction   uniform 0.991591;
        source          uniform 0;
        value           nonuniform List<scalar> 
400
(
300.027
300.027
300.027
300.027
300.028
300.028
300.028
300.029
300.029
300.03
300.03
300.031
300.031
300.032
300.032
300.033
300.034
300.034
300.035
300.035
300.027
300.027
300.027
300.027
300.027
300.027
300.028
300.028
300.029
300.029
300.03
300.031
300.031
300.031
300.032
300.033