/*--------------------------------*- C++ -*----------------------------------*\
| =========                 |                                                 |
| \\      /  F ield         | OpenFOAM: The Open Source CFD Toolbox           |
|  \\    /   O peration     | Version:  2212                                  |
|   \\  /    A nd           | Website:  www.openfoam.com                      |
|    \\/     M anipulation  |                                                 |
\*---------------------------------------------------------------------------*/
FoamFile
{
    version     2.0;
    format      ascii;
    arch        "LSB;label=32;scalar=64";
    class       volScalarField;
    location    "./ITHACAoutput/true/14.8";
    object      error;
}
// * * * * * * * * * * * * * * * * * * * * * * * * * * * * * * * * * * * * * //

dimensions      [0 0 0 1 0 0 0];

internalField   nonuniform List<scalar> 
3200
(
2.77239
4.26879
5.62425
6.43537
6.79459
7.12358
7.09855
7.08053
6.94786
6.9972
7.02264
7.0898
7.13831
7.34849
7.54939
7.57447
7.34404
6.71381
5.70169
4.29905
2.35656
3.54349
4.71638
5.49255
5.88912
6.05391
6.12492
6.08858
5.99449
5.93812
5.95033
6.03778
6.06285
6.26849
6.38969
6.42949
6.20105
5.65541
4.76485
3.66236
1.95623
2.9941
3.92893
4.5543
4.89885
5.06512
5.08043
5.06733
4.97419
4.91317
4.95855
5.09026
5.14597
5.19859
5.36257
5.33087
5.15427
4.75232
3.86916
2.97952
1.61942
2.37118
3.15877
3.75134
3.98342
4.07749
4.11671
4.03423
3.99433
4.05042
3.96786
4.01282
4.09077
4.15557
4.27145
4.23097
4.20414
3.74333
3.11065
2.41224
1.27747
1.8775
2.43548
2.80133
3.06308
3.15146
3.10835
3.24183
3.17899
3.08931
3.1178
3.12156
3.18727
3.2097
3.31494
3.32579
3.17693
2.84473
2.40879
1.8418
0.851835
1.34038
1.822
1.97757
2.09034
2.2154
2.22619
2.29345
2.24437
2.16368
2.23989
2.24134
2.24234
2.29417
2.2798
2.27956
2.21803
2.09628
1.65981
1.30514
0.497987
0.805517
0.964611
1.13725
1.32772
1.34528
1.30796
1.30551
1.30445
1.29258
1.28558
1.33391
1.27027
1.40441
1.40817
1.33136
1.38477
1.25324
1.04338
0.778268
0.152223
0.255213
0.413693
0.525949
0.363046
0.463288
0.466317
0.463274
0.447558
0.46469
0.383881
0.48401
0.422827
0.42004
0.395616
0.529683
0.411325
0.333387
0.34074
0.248945
2.64676
4.11325
5.41613
6.30119
6.72457
6.846
6.91572
6.84081
6.69589
6.62636
6.61434
6.70046
6.90707
7.13279
7.27878
7.35745
7.19105
6.65943
5.53921
4.26907
2.27997
3.51794
4.74602
5.39483
5.71435
5.86462
5.88159
5.81815
5.68761
5.62343
5.64765
5.7323
5.86886
6.02369
6.19475
6.33825
6.09822
5.575
4.7212
3.5642
1.89871
2.89819
3.8619
4.4504
4.74805
4.88136
4.91708
4.82559
4.70099
4.72491
4.69831
4.81315
4.9054
5.043
5.15678
5.27675
5.09047
4.55673
3.77714
2.98553
1.49288
2.41579
3.16274
3.66223
3.8331
3.93487
3.90803
3.98857
3.87492
3.86012
3.79159
3.84955
3.9692
4.02252
4.17228
4.20074
4.0845
3.67617
3.08152
2.38645
1.1989
1.85302
2.47675
2.7818
3.01472
3.06384
3.14079
3.06799
2.97507
2.97453
2.96722
3.06842
3.03007
3.11678
3.14925
3.2207
3.13151
2.80668
2.30333
1.79511
0.916656
1.25672
1.76573
1.99485
2.04687
2.14123
2.16919
2.16596
2.10664
2.03849
2.04008
2.24197
2.19252
2.21819
2.25059
2.39653
2.22514
2.05437
1.67917
1.28421
0.484573
0.706051
1.01439
1.16435
1.20431
1.26092
1.26899
1.29604
1.25791
1.25063
1.26084
1.22313
1.27695
1.29994
1.32238
1.29804
1.29211
1.26032
0.985028
0.756311
0.131222
0.287553
0.289724
0.423011
0.3829
0.446528
0.473272
0.378996
0.452834
0.35589
0.410602
0.372743
0.466792
0.410164
0.416863
0.438818
0.413524
0.430609
0.36942
0.247525
2.5451
3.96382
5.27288
5.98091
6.4926
6.6325
6.60624
6.39566
6.25988
6.1294
6.09737
6.21157
6.37936
6.68393
6.87281
7.07801
6.98965
6.45307
5.42969
4.11293
2.21353
3.44226
4.48667
5.22929
5.53212
5.62713
5.54311
5.52187
5.38376
5.20498
5.21863
5.30663
5.49537
5.6626
5.88563
5.99486
5.77228
5.43355
4.57024
3.54113
1.9082
2.88231
3.71508
4.33519
4.54759
4.72397
4.66887
4.57581
4.50932
4.32849
4.39727
4.4002
4.52849
4.85531
4.91622
5.04954
4.86402
4.45683
3.7673
2.7679
1.51505
2.37102
2.98773
3.49391
3.77068
3.77726
3.86785
3.6943
3.64379
3.60222
3.52284
3.60875
3.69674
3.89117
4.01906
4.00072
3.92182
3.57188
2.98645
2.29095
1.18966
1.65552
2.32392
2.68528
2.92279
2.87434
2.94136
2.90183
2.84443
2.76833
2.78059
2.73861
2.89482
2.99579
2.9989
3.09142
2.99561
2.78337
2.25432
1.76217
0.803932
1.35382
1.61685
1.92388
2.02163
2.07624
2.0929
1.9998
1.98292
2.0048
1.8801
1.9651
2.06634
2.01229
2.23658
2.17652
2.13079
1.92643
1.5566
1.27139
0.51124
0.758966
0.960113
1.20322
1.21855
1.26298
1.24192
1.18659
1.16835
1.14722
1.24068
1.23618
1.18464
1.22497
1.26282
1.36621
1.30245
1.14051
1.02148
0.701649
0.172717
0.177482
0.419724
0.325648
0.40974
0.420995
0.4531
0.405834
0.382288
0.445263
0.371852
0.346202
0.393388
0.368388
0.391303
0.49433
0.361756
0.440134
0.310186
0.241822
2.37448
3.83198
4.99311
5.75147
6.08455
6.20816
6.15297
5.96154
5.76525
5.67665
5.62654
5.7461
5.87432
6.27455
6.53439
6.74619
6.62694
6.13323
5.05805
3.93183
2.04208
3.12085
4.30393
4.91772
5.22279
5.27618
5.25571
5.17238
4.92196
4.88369
4.74288
4.8981
4.99745
5.29347
5.48063
5.69531
5.62776
5.13013
4.31443
3.2897
1.75589
2.67895
3.53331
4.09588
4.37161
4.47999
4.42624
4.30261
4.17434
4.04775
3.94677
4.09035
4.2352
4.39014
4.62263
4.66799
4.72204
4.26093
3.50926
2.62965
1.37993
2.15316
2.9104
3.34735
3.53499
3.61623
3.6287
3.55569
3.23069
3.35908
3.22111
3.26395
3.40661
3.54699
3.74905
3.76299
3.77575
3.44579
2.86193
2.25985
1.07756
1.66123
2.21839
2.52386
2.74894
2.79435
2.66249
2.76705
2.61439
2.47178
2.43111
2.51007
2.55139
2.76246
2.86036
2.94342
2.82085
2.61294
2.16772
1.68481
0.674017
1.25304
1.5032
1.74271
1.95083
2.02449
1.88284
1.95465
1.83936
1.7858
1.79146
1.76522
1.82861
1.91107
2.02763
2.04928
2.04599
1.77868
1.51824
1.21306
0.451397
0.636911
0.899977
1.20563
1.09179
1.13709
1.1928
1.16047
1.16775
1.09369
1.04637
1.12148
1.11772
1.17582
1.21291
1.14178
1.19736
1.06092
0.872999
0.650516
0.115641
0.219154
0.380186
0.406115
0.363246
0.383572
0.386747
0.42635
0.361527
0.370863
0.322081
0.315128
0.452928
0.414268
0.340296
0.435284
0.452142
0.401604
0.343823
0.21407
2.17482
3.48127
4.76636
5.41434
5.72132
5.81936
5.76042
5.55402
5.23588
5.08263
5.04439
5.15463
5.39034
5.76567
5.99005
6.26135
6.17837
5.77587
4.72733
3.6275
1.8615
2.90411
4.04556
4.66898
4.9854
5.05126
5.01172
4.74314
4.55121
4.37854
4.32597
4.44776
4.69597
4.88638
5.19172
5.28666
5.26342
4.81773
4.03893
3.0827
1.62343
2.42952
3.29304
3.92479
4.18552
4.1822
4.13654
3.91087
3.76521
3.64758
3.62639
3.69833
3.83361
4.08435
4.26713
4.37771
4.38698
3.96727
3.33647
2.54109
1.25595
2.00423
2.72394
3.12984
3.37661
3.3871
3.37144
3.18356
3.0434
2.9722
2.90506
3.02248
3.08045
3.32113
3.49689
3.6825
3.56981
3.24254
2.60979
1.97028
1.06547
1.5307
2.08566
2.42471
2.54858
2.5404
2.6371
2.48195
2.38889
2.32937
2.31815
2.28519
2.40549
2.56291
2.62407
2.73899
2.7533
2.46676
1.96178
1.58233
0.730233
1.07576
1.45675
1.74223
1.85048
1.80007
1.81658
1.80485
1.79293
1.65737
1.53508
1.68069
1.70268
1.71916
1.88881
1.93939
1.94229
1.76072
1.42594
1.05203
0.486015
0.647689
0.863193
0.94452
1.12973
1.16317
1.12051
1.01779
0.950996
1.04233
0.89747
1.00694
0.97374
1.05549
1.15629
1.14953
1.14906
1.00237
0.82324
0.639181
0.13748
0.178966
0.273818
0.341936
0.31716
0.289164
0.336617
0.347684
0.269155
0.250401
0.336278
0.385388
0.361711
0.375244
0.430024
0.331585
0.384854
0.385843
0.280197
0.221417
1.97908
3.1863
4.44023
5.12195
5.5094
5.49863
5.41365
5.07329
4.84012
4.59862
4.42415
4.55385
4.89896
5.29068
5.53613
5.89771
5.77217
5.33408
4.4507
3.2802
1.61322
2.64758
3.71119
4.33835
4.68339
4.67877
4.61388
4.37392
4.10564
3.90568
3.89516
3.93725
4.19491
4.48327
4.73673
4.90316
4.87344
4.47318
3.74945
2.82336
1.37766
2.3037
3.11615
3.62931
3.93119
3.95925
3.81574
3.70595
3.42978
3.32247
3.17818
3.24955
3.50517
3.75585
3.93744
4.08832
4.1279
3.78347
3.02875
2.25805
1.09494
1.8454
2.46835
2.90358
3.15235
3.20282
3.13187
3.01748
2.86972
2.6777
2.67243
2.6749
2.81394
2.98995
3.22626
3.40262
3.32517
2.93616
2.50309
1.91364
0.826185
1.37735
1.97284
2.29102
2.43488
2.4911
2.41261
2.34989
2.20896
2.04918
2.09398
2.0705
2.10952
2.30839
2.51727
2.56237
2.51402
2.30361
1.85963
1.37719
0.638817
1.03394
1.29716
1.6378
1.7411
1.85205
1.71632
1.63389
1.5911
1.46234
1.48084
1.434
1.49118
1.60944
1.73387
1.84228
1.76836
1.67342
1.37592
1.02575
0.359009
0.67575
0.733679
0.999338
1.02407
1.0135
0.964477
0.994924
0.894354
0.820376
0.854102
0.887109
0.910135
1.03245
1.02026
1.05958
1.03086
0.945254
0.764103
0.592988
0.13271
0.246417
0.318455
0.251651
0.406261
0.354057
0.300292
0.276533
0.312276
0.240095
0.270276
0.286913
0.309457
0.386388
0.410728
0.468061
0.429869
0.297012
0.335031
0.14974
1.65376
2.87847
3.99849
4.63978
5.13006
5.12679
4.96575
4.67575
4.39717
4.14264
4.09611
4.19983
4.41314
4.82477
5.18254
5.44656
5.37044
4.89685
4.07431
3.02157
1.41977
2.48022
3.44556
4.11039
4.36233
4.39476
4.30268
3.9964
3.81344
3.62968
3.51635
3.59468
3.82173
4.10036
4.40695
4.64229
4.57288
4.27593
3.48795
2.5361
1.23537
2.02687
2.79213
3.35729
3.66573
3.68722
3.54622
3.44101
3.17325
3.06669
2.92125
2.90783
3.14222
3.45417
3.77985
3.84919
3.78055
3.42349
2.81134
2.09453
0.984729
1.65377
2.28039
2.78608
2.93461
3.06983
2.89024
2.72427
2.64534
2.47341
2.34199
2.3919
2.58142
2.79384
2.89855
3.14132
3.09426
2.74041
2.33718
1.70704
0.749716
1.29336
1.78795
2.13235
2.33495
2.38857
2.29837
2.19645
1.96848
1.94589
1.92148
1.80989
1.9761
2.11823
2.28049
2.35704
2.3248
2.15601
1.73243
1.34769
0.560971
0.890697
1.27106
1.48321
1.59304
1.66241
1.57043
1.475
1.47033
1.37347
1.31095
1.35614
1.39884
1.55477
1.66078
1.66823
1.65529
1.46216
1.22237
0.942915
0.327083
0.469441
0.824735
0.885715
1.00997
0.955204
0.954758
0.971634
0.838591
0.765911
0.840962
0.765417
0.758891
0.873756
0.997927
1.0076
0.995561
0.945536
0.725444
0.586451
0.0859323
0.215648
0.21992
0.285689
0.371298
0.298502
0.297348
0.343853
0.32196
0.278971
0.185188
0.289003
0.286704
0.301644
0.33176
0.286279
0.29045
0.296255
0.208031
0.128909
1.45116
2.65972
3.76502
4.46119
4.82616
4.88457
4.73968
4.45851
4.13085
3.80455
3.79387
3.81823
4.06294
4.44719
4.92333
5.09783
5.05964
4.61589
3.83409
2.81398
1.31303
2.21355
3.23844
3.85041
4.13383
4.22579
4.0391
3.87628
3.61321
3.30608
3.16463
3.25933
3.42099
3.88387
4.17318
4.25919
4.29855
3.81877
3.20578
2.37693
1.05055
1.8989
2.61671
3.29897
3.4885
3.55911
3.45868
3.2199
2.98677
2.79152
2.6506
2.69508
2.8949
3.25054
3.44734
3.49973
3.60335
3.218
2.6733
1.89169
0.835188
1.54812
2.2069
2.62654
2.68566
2.88602
2.77646
2.50855
2.42723
2.27527
2.2134
2.27329
2.40829
2.65811
2.81398
2.9054
2.88459
2.60504
2.11923
1.61
0.63808
1.12633
1.60534
1.97517
2.19563
2.25448
2.16116
2.06846
1.90028
1.79342
1.68077
1.74516
1.88906
1.90239
2.22439
2.27548
2.19468
2.00156
1.6155
1.15171
0.470378
0.806398
1.17104
1.45582
1.58292
1.48665
1.56804
1.43695
1.33174
1.1476
1.19834
1.21438
1.34198
1.40643
1.55093
1.58694
1.56117
1.45507
1.11443
0.833564
0.250388
0.491686
0.692099
0.804344
0.902343
1.01399
0.934823
0.844789
0.82168
0.719307
0.740229
0.658774
0.793621
0.846071
0.843126
0.899151
0.909055
0.872364
0.69358
0.514739
0.084581
0.104282
0.290358
0.346496
0.30862
0.369654
0.304012
0.287996
0.267616
0.219352
0.234495
0.266035
0.309045
0.268336
0.3405
0.275177
0.297181
0.236133
0.165662
0.20211
1.33423
2.47642
3.52266
4.26622
4.59642
4.7015
4.50207
4.2883
3.8748
3.72922
3.49351
3.60367
3.85135
4.20796
4.61379
4.83019
4.74647
4.2833
3.58128
2.65653
1.15591
2.13211
3.04353
3.65162
3.93223
3.98549
3.98307
3.76077
3.43168
3.16087
3.0074
3.17416
3.2911
3.59039
3.96572
4.08031
4.04623
3.72384
2.96631
2.2103
0.999676
1.77792
2.65089
3.10136
3.31098
3.43326
3.35039
3.13667
2.87271
2.62548
2.57513
2.58517
2.74142
3.05453
3.27618
3.41657
3.30739
2.99899
2.47827
1.83348
0.838598
1.37048
2.03036
2.51703
2.72535
2.74767
2.62526
2.58705
2.37929
2.17113
2.051
2.21586
2.22413
2.49973
2.62104
2.7252
2.7397
2.45397
2.08103
1.43815
0.649968
1.12104
1.55515
1.97269
2.01823
2.15277
2.07422
1.92212
1.75853
1.61422
1.57158
1.61909
1.78144
1.90499
2.04711
2.10111
2.12056
1.88607
1.57562
1.12453
0.546301
0.775773
1.16876
1.36395
1.49017
1.51674
1.51895
1.43925
1.32296
1.15776
1.13858
1.15812
1.32818
1.30257
1.54775
1.49895
1.49066
1.37839
1.11404
0.875877
0.244473
0.466462
0.633933
0.808012
0.847747
0.98513
0.86938
0.797875
0.790678
0.719371
0.704243
0.674818
0.733722
0.811567
0.844275
0.994207
0.897493
0.738136
0.647008
0.485106
0.060525
0.192329
0.284882
0.230595
0.330525
0.258851
0.308312
0.251166
0.248692
0.188676
0.239791
0.236094
0.256843
0.3045
0.284101
0.397233
0.299651
0.236336
0.26007
0.133345
1.34177
2.42641
3.34638
4.12726
4.59628
4.65214
4.46735
4.31568
3.90843
3.64731
3.4076
3.50485
3.80869
4.16812
4.46889
4.69967
4.64229
4.22128
3.44419
2.55435
1.12658
2.09644
2.95678
3.53784
3.90425
4.03605
3.94702
3.61987
3.34162
3.15694
3.026
3.03118
3.224
3.63562
3.85758
4.06226
3.99129
3.59298
2.95677
2.20262
0.976669
1.75371
2.48043
3.01973
3.23454
3.37034
3.28075
3.10338
2.83199
2.58118
2.54786
2.56703
2.74633
2.99155
3.22633
3.36619
3.28606
3.0246
2.43339
1.91163
0.841787
1.41996
1.99896
2.37438
2.68462
2.76402
2.60857
2.46471
2.32949
2.16251
2.1489
2.08329
2.27315
2.39452
2.61633
2.72338
2.65173
2.42931
1.91053
1.48793
0.591325
1.03147
1.55035
1.85771
2.06243
2.0906
2.08619
1.89746
1.83794
1.66687
1.60612
1.63087
1.79591
1.85933
2.00232
2.01996
2.02747
1.87053
1.55022
1.11693
0.415807
0.766173
1.09839
1.32927
1.51422
1.49692
1.45696
1.47525
1.34552
1.17126
1.17284
1.18983
1.30278
1.34376
1.49201
1.55223
1.38814
1.38672
1.04275
0.749065
0.305844
0.515004
0.698821
0.792599
0.814432
0.884024
0.893037
0.842591
0.78585
0.656942
0.711667
0.740411
0.676341
0.803981
0.766922
0.936492
0.879973
0.738614
0.648691
0.47094
0.146697
0.112713
0.244348
0.307839
0.313411
0.336539
0.264894
0.284689
0.228045
0.269033
0.280458
0.23508
0.259444
0.279828
0.242331
0.269119
0.318415
0.190725
0.223117
0.169983
1.41124
2.43645
3.44675
4.1945
4.6154
4.64752
4.59394
4.30108
4.07068
3.79579
3.60414
3.71598
3.97568
4.22613
4.60491
4.74128
4.64933
4.18927
3.49321
2.6171
1.23978
2.09936
2.93503
3.5208
3.9597
4.03159
3.87549
3.77408
3.4186
3.26135
3.12618
3.18239
3.39448
3.70082
3.92642
4.0494
3.97315
3.59517
2.93722
2.18125
1.04088
1.74955
2.4675
3.06445
3.29736
3.40115
3.30435
3.12404
2.88694
2.72313
2.63449
2.66238
2.77935
3.09028
3.24849
3.45747
3.35636
3.04212
2.50302
1.90111
0.852254
1.4224
1.98614
2.39633
2.64769
2.76561
2.76341
2.52958
2.41194
2.30806
2.11827
2.14752
2.36688
2.5219
2.6982
2.81059
2.69546
2.37615
2.02197
1.55086
0.651134
1.16081
1.57592
1.81896
2.12044
2.063
2.07664
1.98469
1.83109
1.68073
1.7236
1.71076
1.79683
1.94063
1.99314
2.15765
2.03097
1.8322
1.48146
1.12709
0.491419
0.861342
1.14695
1.335
1.43612
1.42355
1.47064
1.41129
1.35922
1.22096
1.25727
1.20658
1.2772
1.43397
1.46042
1.51244
1.40204
1.35048
1.03857
0.821131
0.317934
0.437305
0.6458
0.786915
0.860332
0.933075
0.929077
0.860888
0.804819
0.786219
0.721646
0.739748
0.74419
0.813527
0.922514
0.801097
0.918301
0.835648
0.621716
0.54195
0.106452
0.110038
0.227116
0.320173
0.256217
0.276639
0.319062
0.211941
0.341308
0.243935
0.293092
0.195205
0.212796
0.295659
0.265805
0.270572
0.265421
0.277049
0.183655
0.162852
1.63706
2.56649
3.66361
4.25775
4.68054
4.89356
4.87482
4.58494
4.3605
4.15296
3.98908
4.01629
4.27507
4.55194
4.80217
4.90394
4.84987
4.38824
3.63304
2.86655
1.39314
2.24012
3.13279
3.70448
4.0776
4.17223
4.13276
4.00805
3.75737
3.58179
3.46361
3.40849
3.69378
4.00206
4.19645
4.2583
4.10493
3.68814
3.07169
2.43174
1.19756
1.88434
2.55356
3.13481
3.47242
3.5619
3.48907
3.31553
3.18059
3.08007
2.8911
2.85587
3.12925
3.29735
3.46581
3.51569
3.34682
3.03312
2.55019
2.08807
0.930374
1.5372
2.02712
2.5081
2.79265
2.89203
2.90961
2.76028
2.63705
2.48987
2.32117
2.34966
2.48552
2.69057
2.83254
2.83796
2.81117
2.46196
2.13419
1.56341
0.775222
1.16019
1.61024
1.95394
2.15738
2.19049
2.17364
2.24724
1.97902
1.95996
1.80655
1.88669
1.92552
2.02927
2.17144
2.19493
2.09764
1.94032
1.56478
1.27846
0.520709
0.857544
1.12765
1.37767
1.5601
1.69659
1.57648
1.50823
1.40269
1.4009
1.3329
1.32392
1.39985
1.4164
1.52584
1.6299
1.53287
1.35764
1.15608
0.932173
0.370243
0.529376
0.668011
0.793409
0.886235
0.984029
0.823748
0.90035
0.88902
0.857663
0.812717
0.817095
0.890693
0.86449
0.989744
0.965747
0.884377
0.752717
0.656713
0.50376
0.0834281
0.116342
0.245991
0.324872
0.341438
0.36331
0.318221
0.370368
0.271838
0.274859
0.264852
0.221479
0.25363
0.306898
0.320048
0.327875
0.265889
0.264121
0.177097
0.183281
1.96186
2.93359
3.93066
4.5428
4.98664
5.25503
5.21222
5.04637
4.73621
4.62314
4.52435
4.62066
4.78652
5.04223
5.22797
5.27029
5.13369
4.7315
3.98884
3.18333
1.75016
2.50151
3.36889
3.96228
4.29955
4.5036
4.52252
4.331
4.13928
4.10008
3.9306
3.99328
4.08155
4.27957
4.46715
4.44106
4.44532
3.92067
3.44201
2.76757
1.44164
2.12363
2.82898
3.33766
3.67301
3.80621
3.85241
3.66608
3.60145
3.38779
3.34107
3.39239
3.38801
3.67246
3.74384
3.82883
3.66259
3.35982
2.83254
2.21605
1.29454
1.75897
2.32859
2.74291
2.96495
3.10375
3.06309
3.02068
2.90009
2.79579
2.72025
2.75036
2.8088
2.92691
3.11118
3.10736
2.9805
2.74844
2.25368
1.88228
0.927788
1.37404
1.82207
2.15433
2.31529
2.46655
2.37582
2.29962
2.27309
2.14881
2.09744
2.04987
2.16621
2.31874
2.34346
2.40433
2.28307
2.09324
1.80805
1.46033
0.697092
1.03287
1.22756
1.47604
1.71991
1.63439
1.66336
1.61154
1.67618
1.47079
1.43608
1.45161
1.54417
1.62969
1.71431
1.72109
1.60019
1.38726
1.26719
1.06198
0.370151
0.542304
0.816102
0.923158
1.00408
1.0059
1.07819
1.01072
0.935068
0.915504
0.893228
0.914721
0.974587
0.920604
0.960847
0.975897
0.966434
0.765979
0.745865
0.597395
0.13109
0.229786
0.275113
0.300981
0.332668
0.396357
0.341332
0.352367
0.323264
0.316058
0.248227
0.191178
0.320361
0.324325
0.250627
0.315773
0.357139
0.336789
0.206088
0.1316
2.49017
3.40176
4.31653
5.0288
5.48352
5.64609
5.72015
5.65954
5.45448
5.41919
5.2526
5.29778
5.47795
5.61283
5.71616
5.76246
5.57632
5.2338
4.45721
3.7096
2.15894
2.96486
3.66986
4.35575
4.69802
4.91124
4.94145
4.86397
4.77707
4.51134
4.54381
4.62739
4.67174
4.85748
4.93988
4.95587
4.83262
4.50961
3.85115
3.13645
1.75756
2.37659
3.20098
3.58822
3.98096
4.13941
4.22608
4.16875
4.03203
3.91487
3.78978
3.8533
3.96468
4.11087
4.18158
4.19141
4.10791
3.71485
3.18786
2.61731
1.39457
2.03299
2.53935
3.06017
3.22654
3.44485
3.39426
3.35889
3.27235
3.28236
3.08595
3.1804
3.17198
3.31148
3.41223
3.3875
3.28682
3.02572
2.62323
2.122
1.18809
1.4873
1.96924
2.30831
2.49079
2.6246
2.61269
2.63719
2.48607
2.45683
2.48667
2.43982
2.46958
2.54222
2.65415
2.65425
2.51814
2.3279
2.00414
1.71856
0.832471
1.1239
1.46995
1.72396
1.75742
1.97448
1.9558
1.84769
1.88212
1.82364
1.73166
1.68116
1.74704
1.84996
1.83518
1.88445
1.79644
1.63292
1.47514
1.17434
0.628252
0.698408
0.886029
0.988068
1.03008
1.20065
1.26086
1.17938
1.12557
1.11616
0.996125
1.01099
1.03898
1.10407
1.12537
1.11805
1.00876
0.994264
0.845658
0.704001
0.198173
0.206596
0.352439
0.360056
0.394296
0.387425
0.389484
0.386422
0.381733
0.353157
0.283398
0.366068
0.33231
0.443377
0.354631
0.355105
0.328763
0.344365
0.333095
0.195084
3.06188
4.02052
4.97606
5.60881
6.1672
6.33663
6.48809
6.47994
6.28983
6.1206
6.14214
6.16242
6.28062
6.50227
6.48726
6.43099
6.28999
5.80846
5.11383
4.2976
2.68922
3.4586
4.27786
4.84514
5.25302
5.48668
5.57233
5.64221
5.53142
5.35958
5.23967
5.29749
5.55186
5.56874
5.5576
5.56068
5.34902
4.96608
4.4206
3.77244
2.22444
2.87589
3.57336
4.07146
4.43527
4.61755
4.76667
4.6819
4.60996
4.49611
4.47802
4.44323
4.6497
4.66311
4.77172
4.64963
4.53217
4.23031
3.68725
3.12679
1.93944
2.42625
2.92165
3.31652
3.59578
3.82994
3.84721
3.84145
3.7866
3.7343
3.64364
3.75762
3.71343
3.81599
3.90235
3.81426
3.55706
3.45024
3.0051
2.54507
1.4341
1.8537
2.32531
2.64842
2.82388
2.98975
3.00565
2.98214
2.93136
2.83799
2.85698
2.83914
2.91965
2.97692
2.97085
2.99622
2.84518
2.69028
2.36054
1.99181
1.00304
1.35057
1.6899
1.86464
1.99197
2.03971
2.06487
2.12093
2.18017
1.98996
2.03766
2.07569
2.11816
2.19072
2.10017
2.13567
2.04002
1.84511
1.65853
1.43707
0.611164
0.741526
1.01785
1.07454
1.2173
1.24045
1.3033
1.24221
1.26043
1.22357
1.185
1.23744
1.26694
1.25456
1.29297
1.30825
1.21454
1.08559
0.900097
0.771236
0.215779
0.254353
0.333665
0.290743
0.437071
0.445376
0.387464
0.448746
0.444439
0.409722
0.469204
0.369219
0.440117
0.426349
0.408551
0.433031
0.4353
0.34911
0.328348
0.302533
3.84461
4.80621
5.76703
6.41782
6.91846
7.28478
7.33995
7.3974
7.30445
7.28647
7.19529
7.15829
7.26903
7.39484
7.38655
7.33412
7.05604
6.58734
5.88454
5.16794
3.3929
4.19411
4.85679
5.53946
5.98889
6.21468
6.35674
6.33836
6.31704
6.21653
6.22842
6.23316
6.2938
6.33345
6.31673
6.34346
6.08386
5.70192
5.08258
4.49221
2.85618
3.46037
4.17092
4.65653
5.07358
5.26963
5.33319
5.39624
5.35807
5.28178
5.32302
5.22127
5.26956
5.36734
5.40748
5.31868
5.1133
4.71887
4.30778
3.7457
2.36573
2.90684
3.39855
3.79613
4.17983
4.29703
4.34826
4.47828
4.42096
4.29321
4.2653
4.2831
4.27689
4.37766
4.42817
4.26721
4.15172
3.87103
3.5377
3.13823
1.91178
2.18688
2.68585
2.98446
3.2404
3.40233
3.37389
3.45511
3.39015
3.40058
3.31126
3.29088
3.44163
3.35284
3.433
3.37438
3.22363
3.05592
2.71562
2.37395
1.40352
1.58445
1.90396
2.203
2.25569
2.36215
2.41859
2.37088
2.33913
2.36578
2.4181
2.42575
2.36761
2.41945
2.45906
2.43615
2.30333
2.12235
1.87715
1.73282
0.767783
0.940657
1.1786
1.26936
1.3146
1.41511
1.50402
1.41697
1.43201
1.51612
1.47139
1.48243
1.44239
1.39414
1.48609
1.46062
1.37912
1.24534
1.14127
0.924048
0.29595
0.302131
0.373333
0.418798
0.489269
0.549385
0.525728
0.485069
0.509047
0.47118
0.416549
0.526067
0.463883
0.448846
0.391659
0.443198
0.446129
0.415312
0.375339
0.402981
4.87318
5.72878
6.55447
7.38452
7.87645
8.17766
8.37576
8.40157
8.4577
8.43401
8.46349
8.38774
8.44156
8.51645
8.47762
8.29164
8.05884
7.60639
6.85604
6.13558
4.27934
4.86024
5.7207
6.40417
6.80737
6.99974
7.26715
7.27708
7.30096
7.25664
7.27672
7.22253
7.28765
7.26293
7.28153
7.14169
6.93025
6.44309
5.98196
5.26323
3.56796
4.20047
4.89005
5.39464
5.74634
6.02678
6.14857
6.07181
6.14928
6.13822
6.15435
6.12813
6.14429
6.11188
6.11582
6.10955
5.86636
5.50535
4.99782
4.3886
2.95476
3.43981
3.9661
4.30742
4.72949
4.93231
4.98836
5.0694
5.04106
4.97782
5.02055
5.00799
4.96719
5.05835
4.94384
5.0082
4.7977
4.40131
4.08205
3.67296
2.25737
2.64733
3.0972
3.37984
3.64395
3.77883
3.81916
3.91951
3.86169
3.86414
3.87696
3.85079
3.8786
3.81046
3.89969
3.84886
3.64364
3.42141
3.12748
2.80083
1.58894
1.8698
2.15625
2.44518
2.57692
2.74003
2.76578
2.77854
2.77684
2.8267
2.70318
2.75673
2.75117
2.79024
2.76095
2.72382
2.63163
2.45167
2.22493
2.06318
0.959104
1.21426
1.31773
1.38401
1.57032
1.636
1.68668
1.66828
1.65252
1.65609
1.67525
1.68497
1.67683
1.61717
1.72355
1.6286
1.5559
1.52603
1.31201
1.14625
0.338563
0.390423
0.375088
0.444447
0.550951
0.555702
0.505389
0.51031
0.547
0.608923
0.555712
0.545856
0.55771
0.520573
0.584615
0.490963
0.550149
0.527064
0.396295
0.434296
5.87656
6.76016
7.67495
8.46784
8.94195
9.20737
9.55639
9.54041
9.60798
9.58245
9.53201
9.65324
9.65339
9.67846
9.55792
9.52707
9.12479
8.62283
7.95804
7.23067
5.07571
5.84247
6.64602
7.23777
7.74072
7.95846
8.15093
8.26787
8.2861
8.32077
8.33653
8.38134
8.30841
8.41121
8.29041
8.16298
7.78017
7.50948
6.83796
6.17702
4.25823
4.87494
5.5304
6.13866
6.43896
6.7675
6.92764
6.96292
6.97929
6.95091
6.96028
6.99876
7.03196
7.00254
6.97078
6.8626
6.63607
6.16258
5.74681
5.26054
3.51744
3.92416
4.55272
4.94925
5.20803
5.53859
5.63066
5.72072
5.70047
5.72005
5.7353
5.71756
5.74569
5.70286
5.67199
5.57532
5.3463
5.11203
4.66561
4.23331
2.80866
3.15079
3.52378
3.8843
3.98916
4.205
4.38117
4.46585
4.36599
4.44979
4.43262
4.36568
4.48572
4.42356
4.38798
4.32923
4.2468
3.88862
3.60884
3.31566
1.9568
2.17733
2.57205
2.77774
2.95951
3.04454
3.15326
3.10686
3.16397
3.22567
3.17313
3.19287
3.14562
3.11724
3.12777
3.1261
2.90422
2.85212
2.58987
2.34348
1.14826
1.26439
1.51563
1.68878
1.69833
1.80319
1.85706
1.83869
1.99981
1.79952
1.82693
1.90622
1.96987
1.91072
1.88778
1.83471
1.76891
1.68306
1.56987
1.406
0.409626
0.490775
0.537065
0.554448
0.604483
0.478134
0.609781
0.585242
0.668021
0.649072
0.676178
0.649028
0.60449
0.644966
0.727763
0.616016
0.579668
0.588619
0.554866
0.42557
6.95095
7.88784
8.74813
9.33645
10.051
10.397
10.6491
10.8014
10.9025
10.8161
10.8493
10.9005
10.9133
10.89
10.7763
10.6107
10.2123
9.69103
8.94216
8.33024
6.03483
6.80556
7.52024
8.12087
8.56002
8.9638
9.09129
9.31052
9.34171
9.37152
9.27658
9.32809
9.37426
9.42474
9.18053
9.12016
8.68247
8.3601
7.75485
7.14468
5.01904
5.64801
6.3072
6.75061
7.2113
7.51934
7.655
7.7463
7.81783
7.88035
7.91709
7.85152
7.92316
7.77386
7.74425
7.59475
7.33541
7.03159
6.52331
5.99732
4.06632
4.5793
5.10024
5.51827
5.9212
6.10651
6.29005
6.36411
6.40293
6.34071
6.39681
6.42012
6.49057
6.39115
6.33093
6.18693
5.99553
5.62439
5.27016
4.83453
3.04065
3.63693
3.97527
4.29813
4.56023
4.70362
4.86079
4.91969
5.0103
4.9824
4.883
4.94111
4.97845
4.99509
4.89167
4.78883
4.67321
4.44103
4.0972
3.755
2.27716
2.5618
2.79372
3.04376
3.22686
3.40723
3.53633
3.57727
3.55441
3.54365
3.58001
3.52958
3.53184
3.55462
3.53346
3.40197
3.27946
3.07427
2.90013
2.70841
1.39844
1.46249
1.70751
1.80971
1.94367
2.02021
2.08908
2.13813
2.13738
2.09351
2.19927
2.18422
2.13933
2.14945
2.07191
1.9778
1.95881
1.87771
1.73785
1.65524
0.452893
0.490075
0.611086
0.634699
0.731396
0.681027
0.684723
0.681592
0.686457
0.74432
0.709093
0.743244
0.755166
0.691653
0.698071
0.698443
0.643063
0.626057
0.515446
0.523826
7.88236
8.66191
9.53177
10.29
10.8563
11.2699
11.63
11.7876
11.8368
11.8883
12.0085
11.8914
11.9743
11.8739
11.8223
11.5463
11.0844
10.555
9.98681
9.12162
6.75495
7.48253
8.17529
8.85251
9.36488
9.64692
9.97897
10.1262
10.1932
10.1385
10.2663
10.2368
10.1523
10.1404
9.95783
9.80737
9.53095
9.14797
8.50051
7.90085
5.59801
6.20858
6.8847
7.44856
7.80117
8.1703
8.31398
8.46699
8.55216
8.52643
8.52598
8.55353
8.56467
8.47598
8.39702
8.22868
7.98081
7.52983
7.05303
6.56457
4.49948
5.08616
5.59459
6.00866
6.36034
6.62279
6.70264
6.80876
6.98297
7.00235
6.94173
6.93288
6.92327
6.88693
6.842
6.70603
6.42826
6.14974
5.62263
5.36196
3.55031
3.92204
4.28399
4.66855
4.90252
5.10018
5.187
5.24688
5.32259
5.33264
5.37088
5.39315
5.24871
5.29693
5.33812
5.15591
4.95948
4.7119
4.45543
4.08665
2.55709
2.77576
3.10428
3.36844
3.48116
3.6101
3.7369
3.74547
3.79804
3.77083
3.84886
3.80974
3.84728
3.81385
3.6925
3.65273
3.56805
3.36603
3.11072
2.88307
1.54905
1.68882
1.82168
2.03502
2.13032
2.12042
2.12732
2.27299
2.23788
2.29446
2.30177
2.33489
2.30018
2.26296
2.29319
2.16391
2.1056
2.07066
1.84419
1.75844
0.511896
0.582542
0.562303
0.586619
0.696985
0.691611
0.709792
0.766791
0.815334
0.785228
0.739199
0.722684
0.768439
0.814575
0.791812
0.728525
0.786372
0.623281
0.631988
0.616421
)
;

boundaryField
{
    hotSide
    {
        type            calculated;
        value           nonuniform List<scalar> 
400
(
3.39156
3.26812
3.17084
3.00684
2.81601
2.63137
2.31946
2.13258
2.03372
2.06175
2.15412
2.4053
2.75797
3.31666
3.92128
4.73947
5.80609
6.8501
7.96773
8.94497
4.89745
4.74404
4.59885
4.4734
4.13125
3.84705
3.55225
3.34883
3.18318
3.15322
3.18573
3.3407
3.73523
4.23337
4.88464
5.70543
6.66569
7.73737
8.90798
9.72761
6.26319
6.0571
5.91791
5.64427
5.42577
5.11002
4.68089
4.46227
4.23708
4.08036
4.2027
4.44399
4.73801
5.15338
5.84499
6.67066
7.49541
8.65585
9.77163
10.6005
7.0852
6.95294
6.63653
6.41292
6.08365
5.80122
5.33115
5.16689
4.98854
4.86858
4.95724
5.0444
5.35589
5.8709
6.48254
7.32581
8.32943
9.45234
10.3632
11.3617
7.45562
7.38739
7.15906
6.75652
6.40073
6.19827
5.8305
5.54036
5.32664
5.3449
5.38486
5.47334
5.80533
6.33072
7.04556
7.83064
8.82514
9.92986
11.0809
11.9308
7.79564
7.51974
7.30963
6.89044
6.50864
6.19685
5.83601
5.60694
5.4393
5.40772
5.42335
5.69215
6.07899
6.49804
7.21927
8.20083
9.12983
10.1984
11.4296
12.3469
7.78085
7.59957
7.29323
6.84477
6.45878
6.12044
5.68299
5.46949
5.24672
5.22919
5.37546
5.67857
6.04083
6.5763
7.3745
8.25936
9.33095
10.5501
11.6841
12.7092
7.77152
7.53324
7.09102
6.66138
6.26004
5.78729
5.3997
5.19452
5.03862
5.0827
5.08729
5.39291
5.87877
6.51908
7.36939
8.31953
9.35917
10.5363
11.8384
12.8685
7.64522
7.3946
6.96134
6.47096
5.94746
5.55935
5.12597
4.87133
4.62921
4.67915
4.86022
5.17148
5.5713
6.31642
7.18141
8.22848
9.41699
10.6054
11.9408
12.9189
7.69793
7.32839
6.8341
6.38545
5.79714
5.3206
4.874
4.54737
4.48576
4.41997
4.58708
4.9655
5.45963
6.28238
7.01328
8.21148
9.39417
10.5806
11.8551
12.971
7.72337
7.31636
6.80206
6.33534
5.75891
5.14613
4.82746
4.53669
4.25005
4.18026
4.39543
4.80161
5.36083
6.11579
7.03483
8.12029
9.42365
10.5302
11.8883
13.0912
7.78715
7.39916
6.91303
6.45181
5.86621
5.27307
4.92863
4.55871
4.35808
4.27558
4.50553
4.82726
5.45575
6.15972
7.054
8.08231
9.34703
10.6506
11.9388
12.9735
7.8293
7.5995
7.07472
6.57416
6.09636
5.61296
5.13709
4.79895
4.60168
4.57571
4.76188
5.08304
5.61892
6.3375
7.17007
8.19116
9.39916
10.6493
11.9503
13.0552
8.03079
7.81664
7.37092
6.96635
6.46403
5.99748
5.54201
5.177
4.95261
4.92996
5.00765
5.35569
5.87084
6.46898
7.38868
8.31425
9.47164
10.6722
11.9251
12.9531
8.22145
7.95252
7.54993
7.21667
6.67934
6.23436
5.89176
5.6457
5.35159
5.22447
5.38074
5.60077
6.05193
6.56812
7.3699
8.3026
9.42979
10.549
11.809
12.8993
8.2355
8.02028
7.74448
7.41817
6.94076
6.58658
6.147
5.81202
5.56041
5.44829
5.51073
5.69674
6.08899
6.60966
7.30935
8.24629
9.24033
10.515
11.6405
12.6208
7.99387
7.8428
7.64527
7.28839
6.84768
6.45144
6.06181
5.76534
5.4688
5.38361
5.41207
5.63652
5.94678
6.41842
7.16372
7.96402
9.00374
10.1093
11.2391
12.1562
7.35275
7.3004
7.0981
6.7844
6.43528
6.00388
5.57925
5.31314
4.99772
4.95525
4.94521
5.16863
5.53885
6.07065
6.6774
7.49096
8.54733
9.60372
10.7145
11.6237
6.33036
6.16999
6.06472
5.69946
5.37731
5.11146
4.74809
4.5232
4.28804
4.17099
4.24249
4.40724
4.79048
5.28881
5.97795
6.78376
7.79296
8.93525
9.9623
11.0525
4.91823
4.89043
4.73868
4.56419
4.2687
3.9325
3.68727
3.4954
3.35603
3.27433