/*--------------------------------*- C++ -*----------------------------------*\
| =========                 |                                                 |
| \\      /  F ield         | OpenFOAM: The Open Source CFD Toolbox           |
|  \\    /   O peration     | Version:  2212                                  |
|   \\  /    A nd           | Website:  www.openfoam.com                      |
|    \\/     M anipulation  |                                                 |
\*---------------------------------------------------------------------------*/
FoamFile
{
    version     2.0;
    format      ascii;
    arch        "LSB;label=32;scalar=64";
    class       volScalarField;
    location    "0";
    object      T;
}
// * * * * * * * * * * * * * * * * * * * * * * * * * * * * * * * * * * * * * //

dimensions      [0 0 0 1 0 0 0];

internalField   nonuniform List<scalar> 
3200
(
347.447
348.429
349.53
350.5
351.339
352.097
352.793
352.799
352.892
353.21
353.09
352.663
352.482
351.897
350.937
350.145
349.136
348.233
347.069
345.795
341.154
341.999
342.937
343.783
344.491
345.156
345.826
345.809
345.899
346.161
346.065
345.701
345.5
345.045
344.189
343.53
342.697
341.864
340.845
339.762
334.805
335.535
336.321
337.058
337.622
338.221
338.792
338.772
338.884
339.022
339.025
338.673
338.464
338.137
337.442
336.927
336.242
335.438
334.568
333.64
328.507
329.087
329.696
330.333
330.758
331.263
331.738
331.717
331.832
331.937
331.956
331.681
331.458
331.207
330.636
330.249
329.747
328.987
328.303
327.546
322.173
322.629
323.078
323.562
323.943
324.342
324.686
324.696
324.783
324.877
324.925
324.68
324.484
324.331
323.843
323.558
323.195
322.563
322.071
321.439
315.843
316.213
316.489
316.832
317.125
317.381
317.641
317.652
317.7
317.78
317.838
317.675
317.507
317.385
317.046
316.837
316.639
316.157
315.793
315.369
309.508
309.713
309.892
310.104
310.29
310.454
310.556
310.609
310.625
310.711
310.719
310.62
310.531
310.476
310.239
310.111
309.998
309.697
309.505
309.262
303.184
303.25
303.313
303.377
303.439
303.513
303.536
303.569
303.558
303.603
303.594
303.584
303.538
303.521
303.426
303.394
303.334
303.238
303.184
303.101
348.874
349.445
350.793
351.569
352.464
352.981
353.642
353.858
354.215
354.366
354.185
353.795
353.415
352.956
352.085
351.336
350.536
349.076
347.832
346.907
342.357
342.815
343.985
344.666
345.492
345.866
346.533
346.66
346.957
347.113
346.98
346.616
346.346
345.912
345.192
344.487
343.843
342.564
341.467
340.697
335.896
336.257
337.18
337.798
338.507
338.787
339.376
339.498
339.759
339.858
339.733
339.442
339.263
338.899
338.253
337.627
337.135
336.067
335.107
334.461
329.379
329.673
330.352
330.942
331.488
331.713
332.27
332.33
332.549
332.634
332.504
332.298
332.095
331.838
331.21
330.785
330.392
329.529
328.742
328.192
322.885
323.129
323.572
324.084
324.471
324.674
325.141
325.136
325.339
325.358
325.294
325.16
324.956
324.748
324.213
323.963
323.658
322.96
322.373
321.957
316.38
316.55
316.845
317.227
317.483
317.619
317.996
317.95
318.124
318.123
318.09
318.001
317.787
317.665
317.277
317.128
316.909
316.397
315.998
315.719
309.862
309.972
310.153
310.357
310.517
310.602
310.799
310.753
310.921
310.904
310.878
310.8
310.659
310.612
310.384
310.281
310.123
309.856
309.617
309.474
303.303
303.371
303.412
303.479
303.533
303.531
303.609
303.596
303.672
303.653
303.665
303.632
303.586
303.541
303.475
303.429
303.391
303.297
303.232
303.198
350.196
351.035
352.204
353.297
353.881
354.531
355.219
355.51
355.588
355.831
355.93
355.536
354.932
354.516
353.603
352.838
351.831
350.686
349.362
348.327
343.485
344.132
345.192
346.159
346.665
347.208
347.847
348.038
348.143
348.311
348.432
348.049
347.568
347.267
346.456
345.814
344.951
343.951
342.78
341.902
336.803
337.304
338.168
338.995
339.467
339.904
340.45
340.617
340.745
340.857
340.92
340.608
340.212
339.993
339.318
338.801
338.068
337.229
336.218
335.46
330.149
330.533
331.216
331.883
332.275
332.593
333.059
333.271
333.326
333.451
333.443
333.156
332.864
332.723
332.14
331.782
331.19
330.5
329.615
329.001
323.491
323.774
324.338
324.829
325.071
325.356
325.685
325.887
325.914
326.018
326.009
325.778
325.561
325.503
325.004
324.733
324.261
323.728
323.03
322.565
316.786
316.986
317.392
317.789
317.895
318.081
318.342
318.479
318.514
318.597
318.579
318.44
318.264
318.247
317.864
317.683
317.342
316.97
316.459
316.134
310.06
310.218
310.449
310.703
310.72
310.832
311.009
311.087
311.09
311.183
311.134
311.087
310.963
310.975
310.709
310.612
310.399
310.223
309.875
309.708
303.351
303.396
303.507
303.582
303.564
303.621
303.69
303.733
303.717
303.784
303.749
303.712
303.678
303.687
303.582
303.574
303.478
303.433
303.314
303.251
351.702
352.682
353.523
354.822
355.696
356.268
357.005
357.245
357.519
357.506
357.383
357.092
356.671
356.025
355.223
354.359
353.363
352.158
350.934
349.576
344.757
345.552
346.3
347.493
348.241
348.715
349.36
349.546
349.813
349.783
349.658
349.424
349.071
348.542
347.785
347.095
346.237
345.197
344.111
342.988
337.853
338.477
339.162
340.16
340.771
341.208
341.716
341.899
342.115
342.077
342.021
341.805
341.484
341.044
340.385
339.877
339.113
338.209
337.319
336.375
330.936
331.458
332.045
332.852
333.312
333.705
334.089
334.29
334.432
334.393
334.402
334.155
333.892
333.544
333.024
332.61
332.046
331.224
330.496
329.759
324.036
324.476
324.907
325.54
325.892
326.209
326.475
326.647
326.773
326.785
326.764
326.536
326.379
326.139
325.68
325.374
324.956
324.212
323.699
323.142
317.152
317.442
317.809
318.229
318.474
318.734
318.897
319.064
319.143
319.167
319.135
318.936
318.87
318.698
318.327
318.108
317.869
317.296
316.945
316.54
310.3
310.433
310.713
310.933
311.077
311.249
311.343
311.486
311.513
311.501
311.477
311.38
311.315
311.246
310.998
310.888
310.743
310.397
310.189
309.961
303.459
303.482
303.591
303.656
303.716
303.755
303.792
303.847
303.859
303.863
303.861
303.809
303.802
303.784
303.698
303.666
303.605
303.498
303.42
303.35
353.222
354.316
355.36
356.68
357.35
358.125
358.536
358.795
359.189
359.087
359.022
358.789
358.445
357.85
356.774
355.755
354.927
353.723
352.305
351.181
346.055
347.021
347.9
349.077
349.613
350.303
350.653
350.889
351.244
351.147
351.118
350.913
350.586
350.134
349.173
348.349
347.602
346.57
345.364
344.398
338.95
339.743
340.462
341.443
341.937
342.504
342.816
343.07
343.317
343.235
343.189
343.002
342.746
342.395
341.561
340.958
340.285
339.344
338.397
337.598
331.833
332.496
333.082
333.882
334.305
334.748
334.998
335.287
335.415
335.37
335.296
335.14
334.956
334.695
333.961
333.549
332.932
332.125
331.426
330.816
324.753
325.22
325.705
326.346
326.686
327.03
327.203
327.464
327.588
327.527
327.414
327.304
327.193
326.979
326.371
326.125
325.62
324.952
324.445
323.998
317.703
317.987
318.356
318.792
319.06
319.283
319.43
319.632
319.731
319.674
319.587
319.475
319.406
319.255
318.814
318.667
318.34
317.79
317.491
317.189
310.634
310.793
311.037
311.261
311.416
311.582
311.654
311.81
311.881
311.795
311.784
311.67
311.631
311.529
311.271
311.205
311.043
310.679
310.509
310.323
303.575
303.625
303.705
303.771
303.819
303.864
303.913
303.973
303.968
303.973
303.942
303.906
303.887
303.852
303.771
303.741
303.714
303.575
303.511
303.467
354.619
355.67
357.028
358.038
358.875
359.502
360.029
360.54
361.033
360.836
360.791
360.567
360.148
359.328
358.25
357.599
356.609
355.196
353.566
352.822
347.275
348.203
349.351
350.264
350.926
351.483
351.941
352.403
352.841
352.644
352.629
352.437
352.062
351.363
350.471
349.938
349.029
347.814
346.405
345.848
339.954
340.75
341.705
342.511
343.018
343.465
343.937
344.34
344.659
344.534
344.442
344.33
344.02
343.449
342.649
342.305
341.449
340.444
339.285
338.839
332.647
333.331
334.132
334.807
335.166
335.567
335.919
336.307
336.502
336.432
336.349
336.263
335.988
335.584
334.859
334.642
333.895
333.101
332.173
331.807
325.375
325.898
326.564
327.073
327.326
327.693
327.903
328.258
328.399
328.312
328.252
328.176
327.947
327.672
327.09
326.982
326.344
325.729
325.057
324.726
318.155
318.458
318.979
319.317
319.512
319.816
319.915
320.217
320.284
320.207
320.16
320.099
319.944
319.771
319.334
319.293
318.804
318.348
317.943
317.658
310.919
311.073
311.405
311.608
311.726
311.887
311.995
312.189
312.16
312.128
312.112
312.049
311.979
311.865
311.594
311.592
311.317
310.997
310.785
310.596
303.648
303.699
303.816
303.891
303.923
303.966
304.027
304.091
304.038
304.064
304.066
304.036
304.02
303.986
303.909
303.879
303.792
303.693
303.604
303.526
356.183
357.249
358.649
359.647
360.453
361.292
361.707
362.362
362.525
362.659
362.117
362.242
361.744
360.994
359.971
359.084
357.961
356.512
355.129
354.034
348.658
349.521
350.745
351.644
352.308
353.066
353.415
353.965
354.113
354.236
353.797
353.838
353.457
352.841
351.922
351.2
350.207
349.006
347.82
346.897
341.171
341.877
342.876
343.611
344.201
344.855
345.175
345.606
345.752
345.838
345.533
345.475
345.191
344.683
343.95
343.323
342.444
341.455
340.49
339.725
333.662
334.268
335.063
335.601
336.105
336.672
336.9
337.244
337.412
337.475
337.261
337.202
336.954
336.56
335.967
335.453
334.732
333.932
333.162
332.542
326.185
326.642
327.275
327.644
328.052
328.539
328.705
328.965
329.058
329.135
328.958
328.938
328.715
328.439
328.003
327.565
326.977
326.448
325.811
325.327
318.713
319.059
319.506
319.803
320.07
320.396
320.512
320.7
320.768
320.796
320.694
320.694
320.551
320.309
320.005
319.689
319.263
318.913
318.444
318.145
311.25
311.455
311.711
311.941
312.052
312.242
312.284
312.46
312.482
312.465
312.434
312.445
312.358
312.19
312.043
311.839
311.584
311.373
311.085
310.92
303.757
303.846
303.929
304.017
304.031
304.107
304.122
304.191
304.189
304.178
304.196
304.171
304.155
304.086
304.049
303.98
303.895
303.815
303.741
303.66
357.504
358.721
359.851
361.234
361.928
362.717
363.52
364.017
364.127
364.211
364.061
363.761
363.194
362.492
361.43
360.373
359.424
358.049
356.533
355.303
349.817
350.83
351.77
352.985
353.582
354.276
355.038
355.441
355.53
355.523
355.451
355.219
354.761
354.151
353.161
352.224
351.493
350.345
348.975
348.005
342.096
343.006
343.737
344.737
345.255
345.874
346.521
346.847
346.989
346.875
346.861
346.668
346.324
345.778
344.938
344.12
343.586
342.593
341.429
340.659
334.44
335.159
335.772
336.541
336.972
337.543
338.036
338.287
338.45
338.301
338.3
338.143
337.883
337.441
336.741
336.056
335.653
334.871
333.902
333.29
326.822
327.32
327.763
328.37
328.741
329.208
329.569
329.776
329.905
329.765
329.756
329.638
329.463
329.092
328.543
328
327.724
327.123
326.403
325.935
319.184
319.512
319.829
320.228
320.518
320.917
321.184
321.279
321.351
321.243
321.217
321.162
321.094
320.799
320.397
320.018
319.821
319.361
318.906
318.568
311.507
311.722
311.937
312.141
312.311
312.562
312.738
312.783
312.811
312.785
312.737
312.709
312.678
312.512
312.275
312.033
311.899
311.619
311.378
311.179
303.841
303.936
304
304.063
304.139
304.212
304.282
304.303
304.287
304.279
304.257
304.262
304.246
304.203
304.139
304.016
303.97
303.881
303.81
303.748
358.852
359.882
361.135
362.362
363.505
364.07
364.792
365.37
365.597
365.555
365.493
365.141
364.545
363.885
362.937
361.816
360.723
359.338
357.826
356.327
350.941
351.799
352.892
353.951
354.934
355.469
356.088
356.59
356.755
356.746
356.714
356.411
355.89
355.4
354.541
353.497
352.622
351.379
350.124
348.855
343.042
343.786
344.707
345.604
346.42
346.852
347.469
347.844
347.946
347.961
347.975
347.692
347.262
346.916
346.134
345.214
344.514
343.45
342.426
341.379
335.219
335.841
336.579
337.289
338.004
338.278
338.859
339.148
339.196
339.217
339.255
339.026
338.647
338.412
337.739
336.953
336.406
335.515
334.713
333.865
327.386
327.856
328.493
329.033
329.546
329.762
330.212
330.479
330.439
330.51
330.529
330.38
330.083
329.874
329.4
328.729
328.313
327.63
326.994
326.31
319.542
319.893
320.395
320.752
321.127
321.269
321.604
321.767
321.705
321.75
321.795
321.722
321.544
321.355
321.013
320.506
320.252
319.777
319.257
318.797
311.711
311.962
312.276
312.457
312.715
312.771
312.968
313.034
313.011
313.038
313.08
313.082
312.951
312.826
312.655
312.294
312.16
311.906
311.572
311.281
303.932
303.997
304.13
304.173
304.283
304.278
304.333
304.374
304.375
304.372
304.372
304.416
304.327
304.309
304.253
304.1
304.083
303.992
303.868
303.79
360.1
361.001
362.207
363.555
364.909
365.586
366.177
366.693
366.805
366.946
366.808
366.612
365.906
365.201
364.384
363.139
361.958
360.693
358.96
357.463
352.05
352.768
353.769
355.01
356.195
356.768
357.285
357.731
357.796
357.935
357.863
357.697
357.047
356.513
355.785
354.712
353.66
352.596
351.085
349.793
344.079
344.599
345.433
346.528
347.516
347.972
348.412
348.754
348.878
348.946
348.874
348.796
348.27
347.842
347.178
346.278
345.424
344.491
343.249
342.12
336.084
336.481
337.162
338.118
338.854
339.185
339.571
339.852
339.98
340.056
339.929
339.867
339.501
339.142
338.532
337.841
337.17
336.403
335.418
334.494
328.082
328.369
328.883
329.673
330.198
330.424
330.755
330.954
331.077
331.16
331.044
330.997
330.752
330.462
329.93
329.428
328.946
328.303
327.599
326.923
320.055
320.247
320.621
321.24
321.576
321.704
321.989
322.04
322.184
322.266
322.173
322.176
321.989
321.797
321.342
321.043
320.709
320.223
319.702
319.256
312.061
312.178
312.403
312.747
312.979
313.022
313.222
313.211
313.313
313.383
313.328
313.345
313.196
313.124
312.84
312.65
312.469
312.155
311.807
311.587
304.046
304.079
304.169
304.259
304.352
304.374
304.434
304.427
304.432
304.496
304.487
304.479
304.419
304.391
304.303
304.246
304.184
304.084
303.953
303.879
361.249
362.293
363.47
364.764
366.006
366.903
367.552
367.779
368.176
368.227
367.963
367.94
367.234
366.348
365.579
364.238
362.82
361.727
360.056
358.619
353.069
353.883
354.906
356.05
357.115
357.88
358.433
358.693
359.016
359.088
358.844
358.781
358.231
357.46
356.782
355.682
354.414
353.519
352.071
350.831
344.908
345.501
346.372
347.373
348.264
348.846
349.406
349.623
349.895
349.976
349.775
349.655
349.222
348.599
348.028
347.089
346.019
345.305
344.083
343.038
336.749
337.224
337.852
338.723
339.411
339.855
340.386
340.58
340.803
340.892
340.703
340.573
340.24
339.794
339.293
338.502
337.64
337.115
336.104
335.283
328.607
328.921
329.405
330.101
330.615
330.951
331.37
331.506
331.739
331.796
331.62
331.54
331.3
330.98
330.576
329.94
329.276
328.928
328.093
327.437
320.451
320.678
321.012
321.519
321.859
322.101
322.443
322.452
322.689
322.742
322.583
322.511
322.387
322.137
321.843
321.369
320.953
320.68
320.081
319.594
312.277
312.383
312.668
312.945
313.15
313.274
313.491
313.433
313.618
313.67
313.557
313.505
313.434
313.282
313.104
312.848
312.586
312.411
312.042
311.779
304.112
304.132
304.248
304.352
304.418
304.445
304.535
304.503
304.569
304.582
304.548
304.532
304.51
304.448
304.397
304.298
304.217
304.171
304.02
303.953
362.174
363.242
364.574
366.048
366.98
368.094
368.719
369.127
369.377
369.425
369.124
368.777
368.291
367.432
366.645
365.494
364.005
362.697
360.871
359.817
353.841
354.714
355.868
357.116
357.947
358.944
359.456
359.879
360.021
360.137
359.868
359.586
359.132
358.377
357.68
356.768
355.458
354.341
352.78
351.847
345.567
346.246
347.185
348.285
348.966
349.826
350.216
350.621
350.745
350.853
350.639
350.399
350.023
349.354
348.764
348.028
346.94
345.983
344.694
343.873
337.278
337.842
338.565
339.482
340.05
340.733
341.069
341.397
341.473
341.598
341.45
341.205
340.923
340.335
339.881
339.265
338.426
337.605
336.621
335.927
328.98
329.49
330.017
330.713
331.122
331.666
331.958
332.186
332.209
332.347
332.255
332.045
331.848
331.351
331.017
330.543
329.91
329.252
328.502
327.945
320.733
321.115
321.456
321.911
322.271
322.619
322.826
323.019
323.007
323.114
323.083
322.879
322.764
322.381
322.148
321.819
321.357
320.897
320.372
319.957
312.471
312.669
312.878
313.161
313.382
313.6
313.704
313.821
313.793
313.882
313.86
313.74
313.684
313.439
313.295
313.096
312.834
312.556
312.238
311.989
304.194
304.244
304.333
304.388
304.497
304.566
304.6
304.64
304.619
304.661
304.637
304.618
304.591
304.497
304.448
304.396
304.292
304.224
304.119
304.023
363.011
364.631
365.646
366.86
368.205
369.044
369.847
370.129
370.445
370.453
370.348
369.973
369.402
368.653
367.718
366.325
365.06
363.521
361.962
360.535
354.551
355.938
356.788
357.846
358.993
359.793
360.459
360.698
360.978
361.015
360.929
360.599
360.129
359.44
358.67
357.437
356.362
354.981
353.718
352.539
346.111
347.283
347.956
348.904
349.866
350.593
351.111
351.271
351.515
351.63
351.554
351.291
350.87
350.259
349.629
348.54
347.66
346.5
345.44
344.512
337.699
338.686
339.172
340.014
340.714
341.381
341.845
341.928
342.077
342.264
342.165
341.981
341.59
341.098
340.612
339.694
339.007
338.001
337.181
336.452
329.281
330.08
330.466
331.131
331.628
332.178
332.552
332.577
332.731
332.895
332.785
332.637
332.348
331.976
331.632
330.853
330.347
329.508
328.911
328.402
320.876
321.487
321.743
322.251
322.594
323.009
323.233
323.247
323.385
323.468
323.43
323.275
323.145
322.877
322.607
322.069
321.677
321.024
320.674
320.241
312.521
312.895
313.07
313.35
313.595
313.817
313.986
313.939
314.047
314.089
314.096
313.939
313.907
313.76
313.583
313.251
313.029
312.593
312.426
312.14
304.209
304.314
304.394
304.453
304.549
304.622
304.681
304.658
304.7
304.706
304.719
304.676
304.669
304.606
304.529
304.421
304.359
304.211
304.176
304.062
363.943
365.314
366.395
367.838
368.962
369.893
370.841
371.144
371.49
371.555
371.303
370.941
370.251
369.58
368.672
367.291
365.793
364.224
362.646
361.041
355.384
356.523
357.423
358.675
359.68
360.557
361.305
361.593
361.894
361.967
361.753
361.447
360.831
360.238
359.486
358.267
357.026
355.685
354.252
352.887
346.839
347.786
348.495
349.593
350.363
351.206
351.807
352.067
352.354
352.405
352.204
352.013
351.46
350.945
350.301
349.269
348.266
347.107
345.914
344.782
338.292
339.059
339.636
340.564
341.16
341.85
342.389
342.536
342.824
342.845
342.686
342.572
342.134
341.643
341.164
340.328
339.513
338.531
337.563
336.687
329.753
330.358
330.796
331.521
331.959
332.539
332.945
333.008
333.29
333.349
333.18
333.103
332.791
332.373
332.003
331.368
330.74
329.975
329.221
328.598
321.234
321.692
321.993
322.519
322.782
323.253
323.532
323.55
323.794
323.861
323.708
323.668
323.423
323.09
322.841
322.414
321.964
321.4
320.898
320.426
312.74
313.017
313.188
313.521
313.668
313.969
314.123
314.128
314.296
314.339
314.278
314.189
314.042
313.833
313.669
313.447
313.224
312.836
312.586
312.27
304.268
304.368
304.413
304.536
304.577
304.693
304.745
304.739
304.789
304.818
304.778
304.759
304.701
304.632
304.556
304.499
304.483
304.282
304.218
304.098
364.793
366.148
367.125
368.515
369.826
370.744
371.367
371.923
372.269
372.127
372.019
371.634
370.994
370.4
369.325
367.894
366.551
364.931
363.326
361.733
356.117
357.262
358.105
359.297
360.404
361.211
361.801
362.318
362.593
362.445
362.36
362.033
361.527
360.989
360.06
358.856
357.669
356.243
354.876
353.511
347.477
348.407
349.114
350.116
351.029
351.693
352.216
352.682
352.969
352.805
352.709
352.474
352.077
351.596
350.759
349.782
348.79
347.552
346.43
345.381
338.853
339.563
340.19
340.992
341.703
342.214
342.727
343.077
343.317
343.201
343.088
342.905
342.605
342.196
341.534
340.727
339.95
338.887
338.017
337.161
330.183
330.758
331.249
331.865
332.419
332.792
333.216
333.514
333.691
333.577
333.48
333.385
333.153
332.801
332.329
331.666
331.046
330.285
329.616
328.894
321.542
321.986
322.318
322.793
323.177
323.393
323.738
323.94
324.087
323.981
323.927
323.851
323.676
323.399
323.095
322.632
322.206
321.675
321.204
320.663
312.907
313.176
313.416
313.706
313.935
314.009
314.257
314.339
314.457
314.408
314.384
314.302
314.147
314.042
313.869
313.619
313.322
313.038
312.769
312.426
304.321
304.411
304.497
304.588
304.683
304.688
304.787
304.799
304.844
304.855
304.853
304.792
304.713
304.685
304.649
304.573
304.461
304.366
304.288
304.161
364.966
366.471
367.959
369.445
370.505
371.33
372.251
372.597
372.91
372.985
372.427
372.153
371.645
370.899
370.044
368.613
367.218
365.844
363.989
362.33
356.207
357.487
358.816
360.068
361.064
361.721
362.535
362.823
363.139
363.147
362.713
362.473
362.044
361.385
360.641
359.44
358.239
357.078
355.481
354.063
347.516
348.561
349.689
350.752
351.578
352.191
352.83
353.103
353.4
353.361
353.06
352.796
352.484
351.928
351.253
350.308
349.246
348.308
346.973
345.802
338.886
339.725
340.648
341.482
342.141
342.697
343.213
343.403
343.684
343.611
343.396
343.179
342.939
342.449
341.88
341.207
340.268
339.534
338.469
337.533
330.198
330.92
331.599
332.232
332.78
333.238
333.588
333.749
333.967
333.878
333.766
333.594
333.407
332.989
332.568
332.041
331.278
330.743
329.909
329.199
321.603
322.11
322.571
323.017
323.385
323.779
323.964
324.116
324.24
324.182
324.11
323.977
323.896
323.553
323.297
322.852
322.3
321.97
321.376
320.856
312.983
313.29
313.565
313.819
314.052
314.28
314.4
314.503
314.556
314.519
314.435
314.358
314.368
314.115
314.004
313.72
313.402
313.206
312.851
312.502
304.366
304.46
304.551
304.635
304.72
304.792
304.842
304.885
304.874
304.854
304.831
304.807
304.829
304.724
304.682
304.585
304.477
304.438
304.299
304.179
365.668
366.893
368.371
369.936
371.112
371.928
372.603
373.069
373.468
373.525
373.121
372.837
372.297
371.55
370.519
369.309
367.531
366.205
364.523
362.786
356.847
357.86
359.173
360.541
361.608
362.266
362.812
363.198
363.641
363.669
363.305
363.079
362.639
362.011
361.114
360.082
358.492
357.333
355.901
354.479
348.068
348.912
350.049
351.157
352.096
352.66
353.059
353.427
353.809
353.834
353.527
353.352
353.026
352.504
351.697
350.864
349.445
348.511
347.295
346.18
339.315
340.011
340.922
341.816
342.583
343.091
343.381
343.685
343.989
344.012
343.765
343.645
343.417
342.993
342.261
341.635
340.379
339.701
338.726
337.843
330.601
331.179
331.847
332.485
333.065
333.533
333.702
333.965
334.148
334.197
334.015
333.941
333.773
333.448
332.865
332.381
331.352
330.896
330.17
329.5
321.877
322.287
322.761
323.196
323.601
323.957
324.066
324.277
324.351
324.428
324.302
324.268
324.147
323.89
323.507
323.128
322.4
322.089
321.57
321.105
313.118
313.352
313.65
313.881
314.168
314.424
314.447
314.614
314.583
314.66
314.623
314.574
314.524
314.349
314.119
313.885
313.45
313.257
312.931
312.706
304.401
304.457
304.559
304.642
304.758
304.848
304.836
304.893
304.897
304.908
304.906
304.865
304.869
304.795
304.724
304.653
304.498
304.452
304.341
304.254
366.212
367.176
368.796
370.237
371.475
372.421
372.858
373.481
373.804
374.107
373.752
373.335
372.674
371.932
370.895
369.651
368.04
366.806
365.061
363.226
357.315
358.122
359.547
360.817
361.887
362.652
363.096
363.599
363.888
364.186
363.866
363.569
362.982
362.329
361.396
360.339
358.916
357.904
356.368
354.851
348.452
349.125
350.332
351.409
352.327
352.912
353.375
353.803
353.985
354.287
353.95
353.765
353.286
352.737
351.888
351.011
349.839
349.008
347.678
346.423
339.626
340.177
341.144
342.056
342.78
343.225
343.656
344.028
344.15
344.395
344.064
343.975
343.626
343.129
342.438
341.749
340.743
340.108
339.04
338.015
330.808
331.258
331.995
332.696
333.237
333.599
333.971
334.269
334.342
334.498
334.197
334.194
333.923
333.558
333.04
332.476
331.693
331.229
330.372
329.612
322.028
322.34
322.878
323.389
323.74
324.011
324.261
324.501
324.506
324.632
324.416
324.464
324.21
323.964
323.594
323.239
322.62
322.313
321.705
321.206
313.283
313.421
313.765
314.033
314.274
314.397
314.581
314.74
314.671
314.771
314.651
314.75
314.541
314.364
314.174
313.993
313.55
313.411
313.037
312.753
304.468
304.506
304.6
304.721
304.791
304.823
304.889
304.934
304.888
304.925
304.907
304.947
304.87
304.808
304.739
304.695
304.537
304.493
304.364
304.274
366.425
367.628
369.013
370.67
371.586
372.6
373.19
373.829
374.096
374.299
373.949
373.729
373.006
372.253
371.12
370.016
368.406
366.82
365.162
363.496
357.525
358.541
359.717
361.197
361.969
362.804
363.324
363.944
364.162
364.378
364.027
363.877
363.251
362.576
361.631
360.679
359.252
357.898
356.504
355.047
348.644
349.51
350.487
351.76
352.396
353.047
353.523
354.104
354.242
354.429
354.122
354.025
353.52
352.94
352.147
351.365
350.106
349.008
347.832
346.61
339.785
340.501
341.255
342.311
342.825
343.345
343.723
344.3
344.389
344.523
344.236
344.167
343.805
343.284
342.652
342.014
341.024
340.117
339.135
338.177
330.973
331.485
332.069
332.902
333.299
333.693
333.945
334.5
334.516
334.657
334.369
334.37
334.09
333.638
333.158
332.671
331.92
331.196
330.426
329.733
322.16
322.494
322.954
323.489
323.773
324.054
324.228
324.643
324.684
324.768
324.513
324.606
324.382
324.009
323.703
323.323
322.807
322.315
321.714
321.248
313.342
313.509
313.806
314.095
314.315
314.472
314.544
314.798
314.824
314.891
314.701
314.805
314.673
314.403
314.247
314.002
313.707
313.372
313.044
312.779
304.464
304.523
304.628
304.715
304.799
304.854
304.876
304.951
304.978
304.989
304.931
304.951
304.956
304.83
304.786
304.704
304.596
304.489
304.359
304.299
366.615
367.908
369.171
370.77
371.851
372.626
373.464
374.012
374.175
374.323
374.25
373.823
373.102
372.514
371.427
370.183
368.594
367.047
365.196
363.508
357.691
358.76
359.871
361.283
362.204
362.84
363.605
364.05
364.188
364.345
364.289
363.914
363.331
362.843
361.908
360.819
359.435
358.11
356.528
355.096
348.791
349.675
350.648
351.813
352.666
353.14
353.758
354.132
354.288
354.39
354.356
354.062
353.588
353.14
352.409
351.476
350.287
349.189
347.878
346.627
339.909
340.543
341.489
342.395
343.07
343.454
343.914
344.242
344.396
344.504
344.482
344.263
343.826
343.424
342.91
342.153
341.124
340.224
339.26
338.203
331.039
331.503
332.315
332.98
333.529
333.779
334.131
334.399
334.54
334.643
334.627
334.464
334.11
333.745
333.394
332.828
331.98
331.332
330.621
329.723
322.17
322.498
323.098
323.58
323.978
324.164
324.362
324.528
324.67
324.769
324.772
324.584
324.381
324.156
323.928
323.495
322.849
322.414
321.906
321.202
313.321
313.503
313.888
314.204
314.423
314.523
314.626
314.741
314.816
314.879
314.888
314.785
314.646
314.547
314.377
314.094
313.713
313.451
313.2
312.728
304.466
304.518
304.678
304.78
304.837
304.863
304.913
304.948
304.969
304.998
305
304.986
304.909
304.884
304.821
304.735
304.595
304.504
304.429
304.264
)
;

boundaryField
{
    hotSide
    {
        type            fixedGradient;
        gradient        nonuniform List<scalar> 
400
(
503.08
521.304
539.16
556.569
573.452
589.728
605.319
620.15
634.147
647.239
659.358
670.443
680.436
689.283
696.938
703.361
708.516
712.378
714.925
716.145
515.741
534.448
552.78
570.655
587.991
604.706
620.72
635.956
650.337
663.79
676.247
687.644
697.921
707.023
714.903
721.518
726.834
730.823
733.462
734.74
526.953
546.089
564.843
583.131
600.87
617.975
634.366
649.961
664.683
678.459
691.217
702.891
713.421
722.751
730.831
737.619
743.079
747.181
749.905
751.236
536.646
556.154
575.274
593.92
612.008
629.452
646.168
662.075
677.094
691.148
704.167
716.083
726.833
736.361
744.616
751.555
757.141
761.343
764.14
765.518
544.766
564.585
584.011
602.958
621.338
639.065
656.055
672.224
687.491
701.781
715.019
727.138
738.073
747.768
756.17
763.236
768.928
773.215
776.076
777.494
551.271
571.338
591.009
610.196
628.81
646.765
663.973
680.351
695.818
710.296
723.71
735.991
747.076
756.904
765.426
772.594
778.372
782.728
785.639
787.091
556.13
576.382
596.235
615.601
634.389
652.512
669.883
686.418
702.033
716.651
730.196
742.599
753.794
763.723
772.333
779.579
785.42
789.828
792.778
794.256
559.327
579.7
599.671
619.152
638.053
656.286
673.763
690.399
706.111
720.82
734.451
746.933
758.2
768.195
776.863
784.159
790.043
794.485
797.46
798.955
560.857
581.284
601.309
620.842
639.795
658.078
675.603
692.285
708.042
722.793
736.463
748.981
760.283
770.307
779.003
786.322
792.226
796.684
799.672
801.175
560.725
581.141
601.155
620.678
639.621
657.894
675.41
692.084
707.832
722.575
736.238
748.75
760.046
770.066
778.757
786.072
791.974
796.43
799.417
800.92
558.947
579.287
599.226
618.677
637.548
655.752
673.202
689.812
705.499
720.186
733.796
746.259
757.51
767.49
776.146
783.431
789.308
793.744
796.716
798.21
555.547
575.747
595.549
614.865
633.605
651.682
669.009
685.501
701.078
715.659
729.171
741.543
752.711
762.617
771.206
778.435
784.264
788.662
791.607
793.082
550.558
570.557
590.16
609.281
627.831
645.724
662.873
679.196
694.61
709.039
722.409
734.649
745.697
755.494
763.988
771.135
776.894
781.238
784.141
785.59
544.024
563.76
583.105
601.973
620.276
637.929
654.848
670.95
686.154
700.385
713.569
725.639
736.53
746.186
754.556
761.594
767.264
771.536
774.386
775.8
535.993
555.409
574.439
592.997
610.999
628.36
644.997
660.829
675.777
689.765
702.723
714.584
725.284
734.768
742.986
749.893
755.453
759.637
762.421
763.793
526.524
545.564
564.223
582.419
600.067
617.086
633.392
648.908
663.555
677.26
689.953
701.568
712.045
721.328
729.367
736.121
741.553
745.634
748.342
749.664
515.681
534.293
552.531
570.314
587.559
604.188
620.118
635.274
649.579
662.961
675.353
686.689
696.911
705.964
713.802
720.381
725.667
729.632
732.254
733.521
503.537
521.672
539.441
556.764
573.561
589.755
605.267
620.022
633.946
646.969
659.025
670.052
679.991
688.79
696.402
702.788
707.913
711.749
714.276
715.482
490.174
507.787
525.041
541.861
558.168
573.886
588.94
603.257
616.765
629.396
641.086
651.774
661.404
669.925
677.293
683.468
688.417
692.114
694.538
695.678
475.678
492.728
509.428
525.705
541.483
556.689
571.25
585.094
598.154
610.363
621.658
631.982
641.28
649.504
656.609
662.558
667.319
670.866
673.182
674.253
)
;
    }
    coldSide
    {
        type            mixed;
        refValue        uniform 300;
        refGradient     uniform 0;
        valueFraction   uniform 0.991591;
        source          uniform 0;
        value           nonuniform List<scalar> 
400
(
300.027
300.028
300.028
300.029
300.03
300.031
300.032
300.032
300.033
300.034
300.035
300.035
300.035
300.036
300.036
300.037
300.037
300.038
300.038
300.038
300.027
300.028
300.029
300.029
300.03
300.031
300.032
300.033
300.034
300.034
300.035
300.036
300.036
300.037
300.037
300.038
300.037
300.038