/*--------------------------------*- C++ -*----------------------------------*\
| =========                 |                                                 |
| \\      /  F ield         | OpenFOAM: The Open Source CFD Toolbox           |
|  \\    /   O peration     | Version:  2212                                  |
|   \\  /    A nd           | Website:  www.openfoam.com                      |
|    \\/     M anipulation  |                                                 |
\*---------------------------------------------------------------------------*/
FoamFile
{
    version     2.0;
    format      ascii;
    arch        "LSB;label=32;scalar=64";
    class       volScalarField;
    location    "0";
    object      T;
}
// * * * * * * * * * * * * * * * * * * * * * * * * * * * * * * * * * * * * * //

dimensions      [0 0 0 1 0 0 0];

internalField   nonuniform List<scalar> 
3200
(
323.397
323.571
323.681
324.044
324.314
324.687
324.733
324.815
324.864
325.009
324.557
324.764
324.617
324.516
324.077
324.278
323.518
323.095
322.824
322.222
320.391
320.579
320.599
320.919
321.175
321.508
321.5
321.621
321.677
321.796
321.406
321.625
321.457
321.394
321
321.189
320.467
320.131
319.915
319.347
317.335
317.547
317.478
317.732
318.021
318.308
318.265
318.384
318.424
318.532
318.205
318.385
318.269
318.184
317.873
318.007
317.38
317.128
316.961
316.475
314.201
314.461
314.34
314.511
314.832
315.014
314.971
315.121
315.142
315.18
314.952
315.067
314.993
314.916
314.701
314.854
314.258
314.095
313.964
313.594
311.075
311.353
311.154
311.293
311.569
311.731
311.658
311.846
311.84
311.808
311.63
311.726
311.702
311.659
311.423
311.631
311.097
310.947
310.911
310.66
307.945
308.124
307.981
308.098
308.253
308.415
308.359
308.52
308.503
308.452
308.342
308.405
308.38
308.333
308.132
308.331
307.947
307.806
307.778
307.674
304.766
304.879
304.787
304.878
304.946
305.083
305.015
305.128
305.148
305.092
304.971
305.09
305.049
304.985
304.848
305.001
304.77
304.67
304.675
304.615
301.602
301.644
301.605
301.642
301.664
301.724
301.685
301.711
301.744
301.695
301.65
301.722
301.686
301.657
301.615
301.68
301.599
301.568
301.577
301.531
323.859
324.119
324.406
324.568
325.185
325.492
325.524
325.724
325.621
325.727
325.43
325.547
325.308
325.443
324.902
325.049
324.295
323.751
323.343
323.007
320.777
320.998
321.184
321.331
321.942
322.176
322.175
322.405
322.242
322.386
322.102
322.217
322.013
322.12
321.654
321.794
321.125
320.617
320.299
320.047
317.642
317.841
317.946
318.143
318.654
318.84
318.816
319.061
318.852
319.005
318.776
318.832
318.665
318.775
318.407
318.513
317.933
317.495
317.247
317.025
314.455
314.683
314.71
314.914
315.322
315.491
315.439
315.64
315.443
315.628
315.46
315.439
315.326
315.414
315.152
315.164
314.702
314.358
314.187
313.988
311.251
311.466
311.448
311.665
311.937
312.08
312.02
312.229
312.021
312.221
312.081
312.035
311.972
311.979
311.806
311.791
311.405
311.234
311.096
310.913
308.094
308.243
308.169
308.325
308.545
308.66
308.602
308.72
308.631
308.795
308.696
308.638
308.582
308.545
308.417
308.43
308.169
308.04
307.988
307.821
304.893
304.979
304.908
305
305.129
305.198
305.149
305.244
305.203
305.309
305.239
305.182
305.145
305.123
305.055
305.085
304.921
304.83
304.797
304.714
301.649
301.676
301.634
301.664
301.701
301.727
301.729
301.777
301.733
301.763
301.757
301.742
301.721
301.715
301.698
301.72
301.639
301.62
301.604
301.591
324.716
325.301
325.746
325.9
326.394
326.647
326.612
327.007
326.794
327.116
326.666
326.481
326.732
326.387
326.021
325.929
325.452
324.792
324.334
324.183
321.476
322.03
322.376
322.522
322.934
323.155
323.1
323.484
323.278
323.564
323.15
323.031
323.299
322.902
322.606
322.517
322.115
321.524
321.157
321.023
318.239
318.716
318.957
319.085
319.45
319.621
319.646
319.905
319.754
319.976
319.636
319.584
319.778
319.418
319.177
319.079
318.798
318.249
317.895
317.822
314.93
315.383
315.525
315.618
315.964
316.092
316.108
316.273
316.247
316.393
316.101
316.053
316.271
315.929
315.752
315.655
315.402
314.95
314.645
314.592
311.581
312.045
312.095
312.171
312.475
312.519
312.582
312.654
312.67
312.752
312.552
312.506
312.68
312.445
312.274
312.199
311.996
311.635
311.371
311.347
308.284
308.671
308.642
308.715
308.934
308.918
308.991
309.059
309.04
309.113
308.962
308.964
309.06
308.93
308.792
308.707
308.589
308.288
308.133
308.079
304.95
305.213
305.201
305.256
305.361
305.341
305.387
305.45
305.438
305.495
305.388
305.372
305.428
305.409
305.29
305.228
305.188
304.978
304.91
304.833
301.668
301.751
301.74
301.738
301.795
301.787
301.811
301.842
301.825
301.844
301.82
301.803
301.792
301.822
301.783
301.758
301.758
301.659
301.641
301.624
325.648
326.171
326.913
327.034
327.537
327.836
328.034
328.093
328.242
328.39
328.023
327.73
327.927
327.464
327.246
326.97
326.406
326.27
325.346
325.239
322.338
322.753
323.385
323.527
323.913
324.198
324.36
324.414
324.56
324.734
324.34
324.071
324.292
323.842
323.673
323.406
322.946
322.802
322.053
321.945
318.98
319.348
319.815
319.96
320.28
320.508
320.651
320.707
320.843
321.02
320.666
320.391
320.641
320.182
320.086
319.821
319.448
319.308
318.703
318.628
315.595
315.904
316.27
316.337
316.667
316.81
316.885
317.002
317.09
317.303
316.989
316.698
316.962
316.487
316.518
316.235
315.908
315.799
315.323
315.303
312.197
312.398
312.696
312.687
313.047
313.066
313.112
313.246
313.324
313.499
313.215
313.001
313.21
312.844
312.936
312.631
312.364
312.282
311.909
311.908
308.772
308.859
309.122
309.04
309.39
309.349
309.365
309.507
309.528
309.662
309.443
309.295
309.402
309.166
309.28
309.017
308.784
308.782
308.49
308.483
305.303
305.317
305.517
305.445
305.666
305.626
305.6
305.733
305.738
305.802
305.673
305.581
305.602
305.485
305.556
305.407
305.291
305.284
305.125
305.083
301.789
301.768
301.854
301.823
301.892
301.887
301.862
301.928
301.943
301.947
301.89
301.877
301.872
301.842
301.868
301.81
301.765
301.802
301.737
301.69
326.88
327.465
327.859
328.357
328.816
329.035
329.259
329.214
329.45
329.607
329.404
328.943
328.932
328.652
328.589
328.203
327.697
327.309
326.662
325.978
323.372
323.855
324.21
324.697
325.029
325.229
325.39
325.386
325.616
325.729
325.527
325.15
325.114
324.893
324.85
324.463
324.076
323.711
323.181
322.529
319.835
320.278
320.485
320.933
321.206
321.421
321.531
321.523
321.714
321.862
321.591
321.281
321.303
321.056
321.091
320.746
320.408
320.095
319.626
319.098
316.291
316.644
316.795
317.122
317.358
317.569
317.666
317.668
317.772
317.944
317.691
317.438
317.507
317.233
317.352
317.025
316.707
316.453
316.075
315.629
312.71
312.967
313.062
313.289
313.489
313.694
313.771
313.785
313.832
313.955
313.786
313.526
313.677
313.445
313.537
313.266
312.968
312.777
312.56
312.16
309.089
309.296
309.365
309.443
309.63
309.793
309.848
309.88
309.876
309.988
309.868
309.634
309.784
309.646
309.671
309.513
309.232
309.146
308.995
308.697
305.475
305.544
305.624
305.655
305.794
305.909
305.938
305.961
305.968
305.987
305.961
305.782
305.886
305.802
305.812
305.748
305.516
305.501
305.441
305.235
301.867
301.829
301.863
301.889
301.946
301.994
301.978
301.999
302.004
302.002
301.983
301.962
301.964
301.947
301.941
301.945
301.853
301.861
301.829
301.77
328.112
328.641
329.163
329.62
330.036
330.346
330.33
330.502
330.497
330.68
330.445
330.297
330.171
329.91
329.672
329.38
328.837
328.248
327.772
327.038
324.455
324.884
325.362
325.724
326.119
326.426
326.348
326.504
326.479
326.678
326.431
326.296
326.233
326.002
325.755
325.521
325.048
324.567
324.128
323.484
320.767
321.113
321.486
321.815
322.144
322.414
322.36
322.499
322.433
322.577
322.397
322.272
322.284
322.072
321.841
321.635
321.223
320.824
320.45
319.909
317.02
317.328
317.576
317.921
318.139
318.346
318.372
318.424
318.373
318.505
318.336
318.231
318.308
318.088
317.925
317.706
317.381
317.05
316.793
316.318
313.23
313.545
313.666
313.98
314.117
314.276
314.315
314.356
314.323
314.4
314.256
314.185
314.275
314.105
313.94
313.8
313.528
313.296
313.082
312.735
309.435
309.703
309.759
310.017
310.098
310.188
310.281
310.258
310.233
310.298
310.182
310.137
310.198
310.097
309.947
309.884
309.689
309.504
309.354
309.12
305.657
305.806
305.862
306.008
306.067
306.097
306.195
306.156
306.123
306.179
306.113
306.094
306.153
306.069
305.957
305.921
305.832
305.71
305.628
305.472
301.905
301.943
301.955
302.004
302.014
302.039
302.089
302.073
302.024
302.057
302.064
302.059
302.048
302.045
301.981
301.98
301.97
301.917
301.896
301.829
329.173
329.632
330.482
330.767
331.144
331.503
331.655
331.632
331.806
331.977
331.943
331.693
331.394
331.144
330.742
330.663
329.955
329.563
328.983
328.444
325.394
325.762
326.463
326.728
327.091
327.377
327.479
327.438
327.565
327.766
327.703
327.493
327.308
327.019
326.708
326.598
326.007
325.667
325.194
324.709
321.617
321.837
322.376
322.643
322.99
323.22
323.308
323.278
323.334
323.546
323.487
323.29
323.14
322.873
322.685
322.55
322.047
321.767
321.37
320.897
317.814
317.915
318.31
318.581
318.866
319.034
319.106
319.109
319.109
319.305
319.263
319.083
318.978
318.764
318.662
318.475
318.079
317.849
317.497
317.12
313.886
314.003
314.23
314.487
314.685
314.839
314.881
314.931
314.859
315.015
315.02
314.8
314.788
314.615
314.557
314.396
314.108
313.889
313.627
313.352
309.958
310.056
310.167
310.373
310.496
310.619
310.657
310.681
310.622
310.704
310.74
310.58
310.572
310.462
310.395
310.32
310.087
309.918
309.727
309.564
305.941
306.073
306.117
306.242
306.301
306.39
306.427
306.402
306.365
306.419
306.465
306.365
306.346
306.272
306.28
306.207
306.022
305.989
305.848
305.752
301.979
302.063
302.067
302.107
302.101
302.135
302.151
302.139
302.123
302.151
302.171
302.141
302.108
302.083
302.104
302.084
302.025
302.008
301.964
301.923
330.349
330.615
331.388
331.808
332.144
332.556
332.558
332.978
332.879
333.292
333.13
332.701
332.651
332.255
331.996
331.727
331.035
330.466
329.802
329.21
326.418
326.531
327.305
327.581
327.953
328.239
328.234
328.594
328.534
328.911
328.728
328.449
328.355
327.994
327.764
327.565
326.906
326.453
325.916
325.354
322.459
322.481
323.186
323.423
323.692
323.944
323.912
324.234
324.188
324.527
324.383
324.109
324.035
323.756
323.475
323.357
322.78
322.424
322.029
321.495
318.481
318.438
319.011
319.182
319.46
319.627
319.631
319.863
319.87
320.071
320.01
319.736
319.713
319.453
319.263
319.175
318.597
318.392
318.081
317.581
314.39
314.407
314.806
314.956
315.154
315.247
315.314
315.477
315.487
315.604
315.605
315.379
315.379
315.139
315.011
314.952
314.476
314.297
314.093
313.687
310.297
310.343
310.595
310.712
310.828
310.886
310.93
311.082
311.098
311.149
311.172
311.019
311.007
310.805
310.713
310.734
310.376
310.186
310.054
309.807
306.177
306.259
306.384
306.433
306.499
306.537
306.602
306.668
306.688
306.666
306.75
306.63
306.617
306.476
306.397
306.48
306.248
306.132
306.035
305.924
302.072
302.102
302.144
302.168
302.177
302.175
302.231
302.225
302.245
302.22
302.269
302.223
302.218
302.168
302.136
302.175
302.087
302.06
302.019
301.998
331.283
331.687
332.41
332.918
333.238
333.578
333.774
334.036
334.097
334.326
334.311
334.113
333.837
333.647
333.264
332.885
332.149
331.597
330.997
330.167
327.219
327.496
328.212
328.594
328.904
329.175
329.353
329.545
329.611
329.821
329.833
329.65
329.376
329.232
328.885
328.556
327.888
327.446
326.941
326.197
323.115
323.283
323.939
324.236
324.524
324.768
324.88
325.043
325.134
325.26
325.302
325.118
324.882
324.82
324.499
324.235
323.612
323.283
322.868
322.21
318.93
319.102
319.628
319.848
320.076
320.317
320.435
320.493
320.637
320.724
320.783
320.591
320.403
320.368
320.07
319.871
319.334
319.101
318.726
318.206
314.729
314.88
315.266
315.433
315.614
315.823
315.972
315.902
316.109
316.17
316.179
316.024
315.914
315.877
315.661
315.5
314.999
314.935
314.566
314.21
310.513
310.638
310.886
310.99
311.134
311.329
311.451
311.368
311.506
311.554
311.555
311.453
311.39
311.382
311.195
311.078
310.715
310.751
310.43
310.173
306.292
306.414
306.485
306.621
306.684
306.826
306.889
306.843
306.922
306.954
306.901
306.846
306.846
306.87
306.75
306.664
306.443
306.507
306.289
306.1
302.094
302.141
302.153
302.235
302.235
302.278
302.315
302.303
302.312
302.33
302.309
302.278
302.297
302.304
302.276
302.232
302.166
302.181
302.1
302.04
332.108
333
333.412
333.928
334.462
334.701
335.021
335.305
335.458
335.382
335.399
335.365
334.946
334.771
334.288
334.121
333.3
332.585
332.153
331.329
327.901
328.662
329.064
329.469
329.964
330.174
330.426
330.627
330.826
330.738
330.764
330.71
330.34
330.186
329.777
329.636
328.947
328.303
327.932
327.235
323.663
324.286
324.696
324.964
325.419
325.628
325.811
325.961
326.164
326.06
326.083
326.032
325.759
325.559
325.235
325.137
324.553
323.98
323.696
323.115
319.417
319.903
320.294
320.431
320.833
321.079
321.194
321.243
321.525
321.393
321.421
321.327
321.175
320.904
320.674
320.603
320.125
319.607
319.443
318.923
315.152
315.495
315.86
315.918
316.238
316.419
316.568
316.541
316.799
316.67
316.726
316.62
316.523
316.287
316.12
316.038
315.691
315.29
315.145
314.698
310.809
311.105
311.359
311.388
311.631
311.731
311.882
311.801
312.025
311.905
312.006
311.888
311.814
311.643
311.55
311.422
311.253
310.902
310.882
310.482
306.49
306.695
306.852
306.838
306.957
307.043
307.175
307.079
307.24
307.169
307.2
307.165
307.092
307.006
306.951
306.875
306.759
306.569
306.575
306.276
302.186
302.241
302.271
302.283
302.322
302.371
302.421
302.371
302.427
302.383
302.428
302.415
302.369
302.346
302.34
302.296
302.25
302.201
302.222
302.096
332.83
333.76
334.49
334.981
335.438
335.76
336.16
336.32
336.577
336.431
336.407
336.298
335.983
335.7
335.224
334.817
334.172
333.558
333.258
332.217
328.557
329.331
330.001
330.39
330.777
331.09
331.401
331.523
331.779
331.635
331.62
331.56
331.265
330.973
330.558
330.218
329.62
329.109
328.879
327.944
324.226
324.865
325.455
325.78
326.078
326.378
326.629
326.696
326.971
326.875
326.823
326.745
326.533
326.235
325.894
325.605
325.068
324.658
324.494
323.711
319.842
320.383
320.9
321.114
321.389
321.627
321.814
321.87
322.125
322.097
321.98
321.946
321.739
321.474
321.21
321.006
320.526
320.184
320.02
319.429
315.43
315.909
316.282
316.403
316.672
316.805
317.011
317.007
317.281
317.222
317.094
317.115
316.939
316.759
316.523
316.328
315.98
315.711
315.557
315.119
311
311.419
311.612
311.688
311.915
312.035
312.176
312.141
312.39
312.3
312.214
312.251
312.133
312.042
311.826
311.643
311.442
311.242
311.127
310.802
306.593
306.896
306.977
307.009
307.176
307.22
307.286
307.318
307.45
307.393
307.323
307.357
307.262
307.245
307.109
306.983
306.927
306.744
306.665
306.495
302.235
302.319
302.345
302.345
302.423
302.407
302.422
302.449
302.496
302.478
302.449
302.457
302.426
302.423
302.393
302.338
302.343
302.257
302.236
302.191
333.822
334.615
335.493
335.954
336.298
336.71
337.046
337.363
337.529
337.268
337.334
337.373
337.194
336.861
336.319
335.854
335.421
334.647
334.143
333.33
329.433
330.051
330.845
331.231
331.499
331.917
332.217
332.445
332.62
332.378
332.397
332.446
332.304
332.042
331.543
331.123
330.72
330.078
329.641
328.929
324.934
325.481
326.153
326.514
326.707
327.138
327.329
327.459
327.632
327.468
327.471
327.473
327.399
327.164
326.706
326.37
326.032
325.464
325.091
324.504
320.439
320.881
321.463
321.751
321.861
322.278
322.372
322.461
322.637
322.488
322.515
322.53
322.459
322.265
321.874
321.575
321.309
320.86
320.5
320.084
315.912
316.214
316.722
316.957
317.04
317.366
317.397
317.466
317.648
317.49
317.533
317.53
317.473
317.335
317.052
316.813
316.584
316.217
315.953
315.654
311.378
311.549
311.963
312.125
312.201
312.424
312.392
312.491
312.648
312.478
312.523
312.542
312.472
312.395
312.253
312.048
311.841
311.603
311.442
311.216
306.858
306.925
307.174
307.278
307.34
307.492
307.452
307.491
307.58
307.479
307.531
307.643
307.507
307.43
307.367
307.264
307.121
306.994
306.909
306.77
302.305
302.324
302.412
302.422
302.458
302.52
302.503
302.503
302.535
302.528
302.525
302.556
302.516
302.503
302.469
302.425
302.383
302.372
302.315
302.264
334.771
335.471
336.192
336.941
337.216
337.452
338.093
338.356
338.488
338.316
338.359
338.23
338.161
337.622
337.26
336.901
336.118
335.65
335.017
334.387
330.247
330.787
331.407
332.107
332.306
332.493
333.074
333.302
333.403
333.273
333.31
333.243
333.114
332.691
332.35
332.073
331.424
330.968
330.407
329.873
325.656
326.064
326.631
327.215
327.359
327.513
328.053
328.248
328.305
328.222
328.28
328.195
328.114
327.707
327.422
327.223
326.705
326.262
325.773
325.356
321.032
321.344
321.842
322.291
322.377
322.554
323.018
323.163
323.228
323.143
323.263
323.107
323.063
322.674
322.462
322.314
321.917
321.583
321.117
320.784
316.378
316.604
317.007
317.374
317.386
317.592
317.93
318.062
318.094
318.046
318.193
318.012
317.962
317.652
317.479
317.407
317.087
316.817
316.47
316.202
311.732
311.889
312.176
312.453
312.485
312.598
312.836
312.91
312.923
312.919
313.057
312.889
312.859
312.626
312.499
312.471
312.247
312.046
311.782
311.612
307.051
307.181
307.304
307.504
307.549
307.568
307.75
307.768
307.771
307.763
307.839
307.771
307.698
307.59
307.502
307.504
307.38
307.252
307.102
306.952
302.354
302.42
302.443
302.528
302.545
302.525
302.606
302.622
302.577
302.592
302.614
302.609
302.602
302.553
302.5
302.495
302.468
302.419
302.372
302.34
335.711
336.419
336.807
337.807
338.266
338.524
338.957
339.38
339.443
339.284
339.358
339.221
339.178
338.812
338.065
337.671
337.144
336.176
335.72
334.995
331.015
331.68
331.98
332.83
333.283
333.489
333.82
334.228
334.193
334.102
334.188
334.096
334.059
333.708
333.107
332.743
332.235
331.339
330.997
330.4
326.296
326.85
327.164
327.81
328.201
328.377
328.694
328.987
328.985
328.932
328.979
328.925
328.903
328.576
328.071
327.842
327.339
326.545
326.248
325.799
321.567
321.966
322.277
322.79
323.067
323.218
323.501
323.773
323.752
323.706
323.76
323.73
323.732
323.395
323.028
322.848
322.452
321.738
321.473
321.181
316.798
317.067
317.367
317.739
317.936
318.082
318.283
318.508
318.456
318.466
318.524
318.515
318.509
318.201
317.954
317.819
317.516
316.9
316.682
316.551
312.041
312.232
312.446
312.715
312.806
312.944
313.082
313.221
313.177
313.224
313.244
313.287
313.278
313.002
312.87
312.791
312.541
312.055
311.905
311.863
307.199
307.366
307.517
307.655
307.692
307.813
307.847
307.93
307.913
307.956
307.934
308
307.99
307.803
307.733
307.718
307.553
307.226
307.164
307.132
302.4
302.472
302.489
302.565
302.597
302.643
302.641
302.667
302.653
302.66
302.673
302.67
302.681
302.615
302.586
302.595
302.529
302.411
302.416
302.381
336.279
336.984
337.625
338.634
339.032
339.571
339.807
340.043
340.128
340.421
340.274
340.212
340.036
339.482
339.179
338.678
337.772
337.189
336.455
335.669
331.501
332.131
332.679
333.601
333.89
334.35
334.571
334.763
334.839
335.078
335.006
334.967
334.809
334.293
333.983
333.579
332.804
332.292
331.651
331.002
326.717
327.227
327.694
328.488
328.739
329.113
329.323
329.413
329.546
329.701
329.722
329.707
329.562
329.102
328.768
328.471
327.814
327.363
326.798
326.291
321.923
322.284
322.702
323.371
323.542
323.841
323.993
324.102
324.231
324.325
324.358
324.363
324.264
323.852
323.519
323.314
322.823
322.38
321.915
321.604
317.119
317.375
317.694
318.221
318.366
318.537
318.697
318.759
318.895
318.929
318.971
318.982
318.902
318.533
318.334
318.133
317.793
317.424
317.043
316.896
312.299
312.428
312.688
313.021
313.123
313.245
313.338
313.429
313.543
313.533
313.589
313.582
313.551
313.234
313.113
312.948
312.731
312.47
312.211
312.118
307.405
307.46
307.61
307.823
307.883
307.96
308.028
308.068
308.131
308.107
308.15
308.145
308.166
307.952
307.88
307.816
307.658
307.502
307.335
307.295
302.468
302.506
302.546
302.603
302.65
302.669
302.685
302.704
302.713
302.726
302.743
302.717
302.746
302.666
302.637
302.627
302.572
302.52
302.453
302.457
336.94
337.559
338.283
339.403
339.718
340.215
340.486
340.767
341.044
341.208
341.006
340.848
340.679
340.362
339.701
339.335
338.778
338.004
337.093
336.467
332.129
332.649
333.256
334.243
334.5
334.885
335.17
335.44
335.632
335.803
335.587
335.452
335.331
335.02
334.457
334.17
333.678
332.944
332.208
331.664
327.296
327.713
328.172
329.043
329.248
329.569
329.821
330.016
330.213
330.347
330.161
330.022
329.967
329.712
329.195
328.983
328.503
327.91
327.292
326.825
322.423
322.743
323.108
323.827
323.98
324.224
324.412
324.575
324.745
324.892
324.726
324.602
324.56
324.358
323.931
323.758
323.32
322.898
322.404
321.944
317.476
317.71
318.008
318.593
318.696
318.846
318.977
319.109
319.26
319.401
319.276
319.198
319.134
318.974
318.641
318.506
318.154
317.806
317.478
317.072
312.535
312.676
312.903
313.321
313.379
313.454
313.54
313.689
313.807
313.854
313.806
313.738
313.722
313.568
313.355
313.253
312.96
312.752
312.471
312.2
307.569
307.639
307.754
307.996
308.042
308.078
308.145
308.241
308.303
308.317
308.284
308.29
308.31
308.163
308.022
307.981
307.79
307.658
307.49
307.324
302.539
302.539
302.608
302.682
302.703
302.714
302.726
302.767
302.782
302.789
302.779
302.794
302.804
302.758
302.706
302.676
302.62
302.552
302.499
302.461
337.551
338.154
339.006
339.752
340.255
340.929
341.023
341.379
341.52
341.528
341.578
341.452
341.285
341.021
340.301
339.82
339.177
338.648
337.493
336.853
332.682
333.155
333.881
334.528
334.953
335.564
335.623
335.936
336.061
336.061
336.118
336.016
335.84
335.632
335.015
334.53
334.002
333.555
332.532
331.987
327.737
328.124
328.727
329.282
329.619
330.148
330.185
330.475
330.572
330.547
330.633
330.582
330.342
330.232
329.715
329.268
328.803
328.447
327.581
327.121
322.809
323.047
323.541
324.022
324.26
324.719
324.761
325.014
325.056
325.02
325.091
325.105
324.83
324.748
324.306
323.975
323.586
323.325
322.649
322.248
317.826
317.966
318.344
318.692
318.894
319.281
319.296
319.444
319.522
319.44
319.536
319.625
319.321
319.268
318.906
318.682
318.384
318.169
317.663
317.408
312.782
312.868
313.145
313.372
313.516
313.821
313.842
313.903
314
313.894
313.985
314.065
313.811
313.786
313.498
313.389
313.153
313.001
312.626
312.503
307.726
307.756
307.893
308.045
308.149
308.321
308.357
308.375
308.385
308.34
308.434
308.456
308.31
308.276
308.074
308.051
307.926
307.826
307.58
307.539
302.584
302.598
302.649
302.706
302.75
302.79
302.816
302.832
302.806
302.801
302.858
302.847
302.803
302.76
302.708
302.702
302.677
302.62
302.543
302.509
338.098
338.771
339.323
340.273
340.837
341.29
341.507
342.041
342.161
342.161
341.955
342.133
341.858
341.497
340.999
340.395
339.794
339.018
338.125
337.45
333.151
333.673
334.118
334.97
335.484
335.876
335.991
336.505
336.604
336.61
336.429
336.597
336.363
336.001
335.588
335.055
334.574
333.898
333.099
332.511
328.147
328.563
328.963
329.631
330.086
330.462
330.45
330.947
331.046
331.014
330.845
331.081
330.839
330.503
330.155
329.689
329.304
328.757
328.051
327.551
323.067
323.449
323.749
324.277
324.692
324.971
324.93
325.342
325.462
325.394
325.284
325.481
325.245
324.962
324.677
324.306
324.038
323.59
323.01
322.582
317.935
318.323
318.48
318.926
319.249
319.426
319.411
319.72
319.838
319.723
319.711
319.874
319.633
319.406
319.179
318.922
318.708
318.382
317.899
317.573
312.799
313.144
313.22
313.581
313.756
313.866
313.875
314.129
314.185
314.062
314.119
314.246
314.028
313.874
313.687
313.549
313.369
313.139
312.778
312.556
307.692
307.916
307.9
308.166
308.295
308.336
308.358
308.508
308.528
308.456
308.515
308.593
308.413
308.333
308.216
308.165
308.026
307.847
307.706
307.56
302.588
302.648
302.647
302.748
302.763
302.771
302.809
302.862
302.846
302.834
302.87
302.879
302.826
302.804
302.756
302.723
302.696
302.638
302.592
302.541
338.633
339.313
339.937
340.507
341.382
341.724
342.066
342.472
342.574
342.808
342.614
342.905
342.25
341.927
341.408
341.144
340.407
339.554
338.804
338.119
333.571
334.107
334.697
335.181
335.963
336.216
336.529
336.863
336.97
337.212
336.999
337.245
336.676
336.366
335.978
335.709
335.058
334.364
333.717
333.076
328.454
328.89
329.425
329.838
330.441
330.717
330.994
331.224
331.342
331.59
331.359
331.558
331.073
330.799
330.511
330.211
329.667
329.135
328.551
328.049
323.305
323.708
324.127
324.48
324.946
325.163
325.395
325.606
325.686
325.936
325.683
325.837
325.417
325.215
324.961
324.739
324.305
323.892
323.402
322.998
318.134
318.467
318.776
319.063
319.421
319.542
319.768
319.93
320.034
320.231
320.019
320.105
319.721
319.6
319.404
319.262
318.928
318.629
318.215
317.961
312.933
313.193
313.413
313.649
313.856
313.92
314.154
314.257
314.294
314.495
314.321
314.362
314.074
313.959
313.852
313.814
313.538
313.331
313.006
312.861
307.766
307.932
308.06
308.232
308.333
308.361
308.484
308.56
308.582
308.68
308.64
308.622
308.474
308.36
308.305
308.313
308.094
308.041
307.827
307.733
302.593
302.67
302.692
302.764
302.783
302.788
302.838
302.874
302.859
302.911
302.903
302.896
302.853
302.812
302.783
302.772
302.692
302.695
302.611
302.602
338.755
339.639
340.471
340.881
341.675
342.001
342.235
342.699
343.284
343.32
343.218
343.205
342.565
342.166
341.737
341.464
340.487
339.94
338.999
338.418
333.688
334.426
335.112
335.546
336.163
336.451
336.653
337.056
337.581
337.658
337.513
337.489
336.921
336.585
336.218
336.021
335.144
334.689
333.81
333.35
328.614
329.188
329.747
330.185
330.641
330.89
331.076
331.413
331.809
331.959
331.78
331.728
331.336
330.983
330.669
330.5
329.82
329.395
328.633
328.268
323.49
323.895
324.353
324.751
325.114
325.339
325.492
325.732
326.036
326.19
326.056
325.943
325.705
325.389
325.146
324.959
324.455
324.086
323.488
323.15
318.324
318.582
318.98
319.308
319.529
319.693
319.835
320.075
320.244
320.436
320.296
320.174
320.018
319.754
319.628
319.43
319.082
318.819
318.267
318.005
313.133
313.266
313.57
313.842
313.951
314.042
314.152
314.395
314.459
314.643
314.534
314.427
314.296
314.097
314.062
313.906
313.683
313.45
313.047
312.862
307.89
307.951
308.17
308.33
308.389
308.422
308.521
308.652
308.693
308.808
308.728
308.631
308.556
308.444
308.419
308.36
308.262
308.093
307.784
307.716
302.645
302.683
302.745
302.804
302.82
302.824
302.865
302.894
302.909
302.956
302.928
302.885
302.864
302.824
302.826
302.791
302.754
302.726
302.596
302.593
)
;

boundaryField
{
    hotSide
    {
        type            fixedGradient;
        gradient        nonuniform List<scalar> 
400
(
232.176
244.123
256.03
267.843
279.509
290.974
302.182
313.079
323.611
333.724
343.367
352.49
361.045
368.987
376.275
382.869
388.736
393.846
398.171
401.691
236.625
248.917
261.172
273.336
285.354
297.169
308.725
319.966
330.835
341.278
351.242
360.674
369.525
377.75
385.304
392.148
398.246
403.567
408.083
411.772
240.484
253.09
265.663
278.147
290.485
302.621
314.496
326.051
337.231
347.977
358.235
367.953
377.078
385.564
393.366
400.442
406.755
412.274
416.969
420.818
243.756
256.643
269.5
282.271
294.898
307.322
319.483
331.323
342.782
353.803
364.328
374.304
383.679
392.403
400.43
407.718
414.229
419.93
424.79
428.786
246.449
259.581
272.688
285.711
298.591
311.269
323.683
335.774
347.481
358.744
369.507
379.713
389.309
398.245
406.474
413.952
420.641
426.505
431.515
435.646
248.573
261.914
275.234
288.472
301.569
314.465
327.096
339.402
351.322
362.795
373.763
384.168
393.956
403.077
411.481
419.126
425.97
431.978
437.12
441.371
250.142
263.655
277.149
290.564
303.84
316.915
329.726
342.211
354.308
365.955
377.093
387.665
397.614
406.89
415.443
423.227
430.203
436.334
441.589
445.942
251.17
264.815
278.444
291.997
305.412
318.627
331.579
344.205
356.441
368.226
379.499
390.203
400.281
409.68
418.352
426.249
433.332
439.563
444.91
449.348
251.671
265.409
279.133
292.783
306.297
319.612
332.664
345.391
357.727
369.612
380.984
391.784
401.957
411.448
420.207
428.189
435.352
441.659
447.077
451.579
251.658
265.448
279.226
292.932
306.504
319.877
332.99
345.776
358.174
370.119
381.552
392.413
402.644
412.193
421.01
429.047
436.262
442.62
448.086
452.633
251.142
264.943
278.734
292.455
306.042
319.433
332.563
345.369
357.787
369.755
381.21
392.093
402.349
411.922
420.763
428.824
436.065
442.447
447.938
452.51
250.131
263.903
277.665
291.358
304.92
318.286
331.393
344.177
356.575
368.524
379.963
390.832
401.075
410.638
419.471
427.527
434.764
441.145
446.636
451.212
248.631
262.332
276.025
289.649
303.143
316.442
329.485
342.206
354.544
366.435
377.819
388.636
398.831
408.349
417.142
425.161
432.366
438.719
444.188
448.746
246.645
260.236
273.818
287.332
300.716
313.908
326.844
339.462
351.699
363.493
374.783
385.512
395.623
405.063
413.783
421.736
428.881
435.18
440.603
445.122
244.174
257.615
271.046
284.409
297.643
310.686
323.476
335.95
348.047
359.705
370.865
381.469
391.461
400.789
409.404
417.261
424.319
430.54
435.893
440.353
241.218
254.47
267.711
280.883
293.927
306.781
319.385
331.677
343.595
355.08
366.073
376.516
386.356
395.54
404.02
411.752
418.695
424.814
430.076
434.457
237.775
250.8
263.812
276.755
289.571
302.198
314.578
326.649
338.352
349.628
360.418
370.667
380.321
389.33
397.647
405.226
412.03
418.022
423.173
427.456
233.844
246.605
259.352
272.029
284.579
296.943
309.062
320.877
332.329
343.361
353.915
363.938
373.376
382.18
390.305
397.707
404.347
410.191
415.21
419.378
229.424
241.886
254.333
266.709
278.958
291.024
302.848
314.372
325.54
336.295
346.582
356.348
365.541
374.114
382.021
389.221
395.676
401.352
406.221
410.259
224.517
236.648
248.761
260.803
272.719
284.453
295.95
307.152
318.005
328.453
338.444
347.925
356.846
365.162
372.828
379.803
386.052
391.543
396.246
400.139
)
;
    }
    coldSide
    {
        type            mixed;
        refValue        uniform 300;
        refGradient     uniform 0;
        valueFraction   uniform 0.991591;
        source          uniform 0;
        value           nonuniform List<scalar> 
400
(
300.013
300.014
300.014
300.015
300.016
300.016
300.017
300.017
300.018
300.018
300.019
300.019
300.02
300.02
300.021
300.021
300.022
300.022
300.022
300.022
300.014
300.014
300.015
300.015
300.015
300.016
300.017
300.018
300.018
300.019
300.02
300.02
300.02
300.021
300.021
300.021
300.022
300.022
300.022
300.023
300.014