/*--------------------------------*- C++ -*----------------------------------*\
| =========                 |                                                 |
| \\      /  F ield         | OpenFOAM: The Open Source CFD Toolbox           |
|  \\    /   O peration     | Version:  2212                                  |
|   \\  /    A nd           | Website:  www.openfoam.com                      |
|    \\/     M anipulation  |                                                 |
\*---------------------------------------------------------------------------*/
FoamFile
{
    version     2.0;
    format      ascii;
    arch        "LSB;label=32;scalar=64";
    class       volScalarField;
    location    "0";
    object      stateMean;
}
// * * * * * * * * * * * * * * * * * * * * * * * * * * * * * * * * * * * * * //

dimensions      [0 0 0 1 0 0 0];

internalField   nonuniform List<scalar> 
3200
(
346.394
347.826
345.925
347.845
346.079
347.024
345.483
346.882
350.489
349.369
350.372
347.738
347.783
347.475
347.605
346.206
346.705
345.326
345.809
347.187
341.486
342.4
338.34
338.473
339.824
338.379
340.335
341.516
340.25
342.874
342.401
342.757
343.422
340.261
340.916
338.438
340.599
337.356
340.045
339.782
333.712
334.51
333.576
333.091
334.447
332.081
335.978
336.467
334.616
335.975
335.563
336.725
334.337
335.915
334.513
334.433
330.874
331.684
333.32
333.203
328.64
327.632
328.188
328.928
327.396
327.15
328.482
328.796
327.556
330.35
328.783
329.467
327.184
329.593
327.238
328.508
328.418
329.169
327.309
327.114
321.527
320.836
321.854
323.524
321.431
320.853
321.525
322.382
323.14
322.432
322.667
322.743
322.898
322.317
321.196
321.136
320.202
320.412
322.046
320.303
317.472
315.973
313.75
313.47
317.875
314.133
315.983
316.587
315.154
315.962
315.839
317.426
316.797
314.757
317.531
314.883
315.486
314.23
316.383
313.95
310.331
310.079
307.605
310.728
308.79
308.933
308.2
310.711
312.804
308.819
309.5
309.821
311.375
307.716
309.943
308.863
308.945
307.808
310.053
308.789
302.873
301.535
303.624
302.798
300.722
301.772
302.433
301.004
305.819
303.675
303.985
303.61
304.74
301.034
302.937
305.645
303.541
303.516
304.042
303.452
348.793
345.519
345.769
343.969
347.139
347.211
347.085
348.345
350.573
351.999
350.444
352.631
347.767
346.262
346.344
347.174
347.036
344.121
344.43
345.902
339.602
338.2
338.836
340.232
339.136
342.226
342.043
345.099
342.779
346.207
346.072
342.14
344.714
339.319
342.356
339.577
340.447
338.415
338.31
342.792
337.294
336.464
332.595
335.691
333.327
336.477
334.325
335.724
334.916
334.732
336.832
336.837
335.02
334.961
334.597
333.244
333.283
334.583
332.375
333.761
327.701
328.872
328.313
327.658
328.808
328.199
328.364
329.172
330.167
329.434
327.921
330.326
329.582
329.105
326.692
326.002
326.162
328.498
328.168
327.252
320.572
322.066
321.839
323.491
320.54
323.178
323.496
322.092
322.719
322.516
324.546
323.309
321.122
322.184
323.055
322.01
321.765
321.149
319.103
323.936
316.967
316.481
316.408
315.348
316.185
317.699
315.046
317.957
316.577
316.638
316.327
316.11
317.587
314.363
316.101
316.614
314.481
315.527
316.21
316.087
310.151
309.112
308.36
310.71
310.999
309.292
309.818
310.668
308.527
312.061
310.603
310.022
309.038
309.8
309.108
308.677
309.435
307.381
308.377
309.427
302.357
302.866
302.584
304.341
303.003
304.182
301.247
302.734
303.12
303.023
304.266
302.234
302.293
301.908
302.379
303.837
302.44
303.025
303.095
302.018
343.945
345.683
345.665
346.304
346.141
347.143
348.907
349.031
350.369
348.967
350.445
349.454
348.64
348.41
347.043
346.215
345.629
344.781
344.619
346.771
342.085
339.206
340.43
338.358
338.035
342.701
342.952
341.974
343.908
343.399
341.482
344.407
341.549
340.836
341.56
339.795
340.398
339.749
338.699
338.84
335.297
333.955
334.269
333.017
334.82
332.676
334.052
336.293
336.211
338.2
336.224
335.225
337.927
335.293
334.539
331.786
333.075
334.178
332.513
334.352
329.091
328.737
326.832
326.564
327.708
328.339
329.946
328.737
329.665
330.062
330.086
330.77
329.786
329.349
327.057
328.961
327.857
326.351
324.84
329.44
322.47
322.692
319.557
322.238
320.977
320.557
320.891
322.724
323.078
324.059
323.508
323.087
322.622
322.296
320.736
323.55
322.684
321.433
319.992
320.69
317.695
316.66
315.349
313.256
317.187
315.587
314.875
314.929
316.487
317.991
318.581
316.68
316.28
316.935
315.669
317.839
314.001
314.664
313.161
316.365
307.971
310.636
310.551
309.422
309.2
310.272
310.107
308.836
309.417
310.942
309.236
310.04
309.01
309.634
311.6
309.002
309.571
309.222
309.204
309.788
302.13
303.278
305.21
304.678
304.916
302.336
303.045
304.878
302.284
304.29
304.112
303.624
303.398
304.672
304.223
302.996
304.281
304.638
302.936
301.923
348.714
345.738
344.709
345.561
342.8
347.693
349.796
348.619
350.842
350.147
350.282
351.096
350.468
348.991
349.115
345.235
344.427
343.111
345.41
345.354
341.668
338.986
341.276
339.938
339.302
342.31
339.534
344.815
343.104
345.618
345.616
343.58
344.607
342.397
343.363
342.2
340.248
341.819
339.009
340.543
334.413
333.899
333.317
333.61
334.409
335.332
335.208
335.156
337.203
336.913
338.494
337.77
334.289
334.852
334.497
332.912
334.05
335.214
332.539
334.173
329.825
328.398
328.396
329.237
328.969
327.251
331.177
330.346
331.223
330.964
332.105
330.185
330.708
328.945
329.747
327.749
328.509
326.854
327.732
327.704
320.561
320.151
321.233
322.597
322.983
322.518
324.134
321.778
325.166
326
323.058
323.481
324.098
322.949
322.821
321.692
321.527
318.914
319.7
322.146
315.562
314.279
317.307
318.139
317.816
316.684
315.827
317.098
318.905
318.337
316.281
317.15
316.981
314.947
317.767
316.411
315.659
314.816
315.958
316.477
310.551
308.803
309.716
309.579
308.171
312.556
310.032
311.761
311.184
311.857
308.909
308.577
311.032
308.783
311.395
309.736
309.627
309.26
307.67
307.674
303.814
303.95
302.032
305.726
302.822
303.703
303.673
302.754
304.036
301.416
304.307
301.528
302.702
302.41
302.473
301.862
303.595
304.114
302.931
302.977
346.325
345.977
346.994
345.793
346.987
348.867
348.769
351.239
350.987
351.628
352.501
351.266
353.003
347.349
349.035
347.46
346.61
347.016
344.845
347.962
341.55
338.161
341.143
339.663
341.786
341.966
341.991
343.961
342.805
344.643
345.205
343.886
342.827
342.766
342.564
340.873
340.045
338.918
339.705
341.07
334.603
335.574
336.222
334.263
334.362
334.206
336.594
337.094
338.677
340.343
337.125
338.844
336.885
335.836
335.67
333.545
334.739
333.346
333.244
335.053
326.188
327.651
328.191
328.275
328.643
328.134
329.73
331.513
332.64
330.477
330.969
331.846
332.737
329.379
330.264
329.403
327.31
327.414
327.963
327.656
323.381
321.861
322.551
321.884
321.669
322.104
321.399
323.325
324.692
324.394
325.497
324.399
324.611
323.022
322.068
322.416
320.078
321.899
322.807
320.31
315.744
316.173
317.598
316.042
315.974
315.784
315.268
317.637
318.655
318.306
318.299
317.207
316.308
315.344
316.073
313.744
316.031
316.277
314.573
316.048
307.555
309.411
307.897
308.431
308.939
310.875
308.985
309.3
311.298
311.899
309.574
309.665
310.19
312.595
310.093
310.262
309.313
308.74
310.255
310.497
305.706
302.057
305.199
305.419
302.831
303.934
302.834
302.938
304.625
302.667
303.99
301.553
304.202
302.812
301.419
304.742
302.621
302.973
302.008
306.065
348.48
349.3
346.554
349.402
346.168
348.756
350.888
351.243
352.091
352.504
352.586
352.279
352.753
350.594
351.177
346.251
346.261
347.722
346.456
348.895
343.322
339.727
341.08
340.974
342.7
343.02
343.92
344.078
342.385
345.702
345.734
347.589
345.28
343.97
343.255
340.61
341.143
340.239
340.012
340.214
335.271
337.028
335.371
333.795
334.367
334.875
337.365
337.289
337.243
337.618
337.839
338.201
337.135
336.296
336.64
335.827
332.413
334.191
332.875
335.429
329.416
329.243
327.701
328.551
330.162
329.698
328.791
329.774
331.15
333.308
332.442
332.358
329.262
332.102
331.862
328.504
328.15
325.598
327.381
327.811
321.673
322.062
322.8
322.139
320.754
323.66
323.839
322.129
323.632
326.601
324.977
325.817
325.849
325.151
321.8
321.781
324.515
320.547
321.825
320.955
317.293
315.708
315.026
317.964
316.075
315.821
314.846
317.733
317.819
315.816
318.118
319.403
316.919
316.983
316.134
315.536
315.725
314.41
314.88
315.247
308.637
308.91
309.185
310.187
311.04
309.712
310.831
310.719
309.417
310.415
310.328
311.566
311.287
312.672
310.789
310.02
309.251
309.374
310.4
309.44
305.254
302.754
301.904
304.798
304.069
302.605
304.218
301.453
302.884
303.72
302.214
304.615
304.569
304.269
303.695
304.16
304.349
304.603
302.816
301.055
350.208
348.703
349.043
346.424
348.445
350.758
354.009
352.442
352.64
351.802
352.746
353.206
350.889
353.18
351.068
347.469
348.69
348.915
350.156
348.361
341.968
340.034
341.406
341.564
341.095
341.674
343.912
344.597
344.936
347.004
348.257
346.418
344.245
345.152
343.122
341.715
342.487
341.732
341.882
341.298
335.853
335.846
334.116
333.868
337.343
337.644
336.874
339.785
339.657
339.079
340.11
340.18
338.592
337.31
334.933
336.899
335.494
334.216
335.307
335.454
328.657
329.029
327.957
327.899
328.724
331.929
329.89
331.002
330.332
331.746
332.438
331.391
332.101
331.765
329.185
329.938
328.911
328.856
329.372
329.658
323.207
324.181
322.285
322.583
322.547
323.072
323.757
323.893
324.825
323.209
323.887
323.764
324.207
325.242
321.234
322.024
322.37
321.657
320.884
323.138
318.912
317.46
316.823
315.855
316.166
317.061
316.333
316.719
318.466
317.749
318.429
319.802
317.85
317.563
316.366
316.607
315.478
316.672
317.184
317.268
309.749
309.08
311.229
308.797
309.075
310.629
310.377
310.45
311.597
311.655
310.215
309.845
311.85
312.26
309.99
310.078
309.343
309.619
309.106
310.603
302.311
303.705
302.804
303.469
302.868
304.507
303.03
302.854
303.261
304.49
303.476
303.528
303.617
304.951
303.891
302.164
305.385
303.525
304.469
305.253
348.154
349.533
349.52
349.702
349.674
350.096
351.993
352.08
353.929
354.972
354.589
354.49
355.075
350.728
351.672
350.102
351.122
350.142
350.58
349.046
344.267
340.63
343.785
342.369
340.481
343.969
343.83
345.595
347.611
346.126
346.283
347.611
345.728
345.77
343.885
343.541
342.426
343.832
340.778
340.782
334.75
336.621
337.875
335.643
337.09
337.006
339.055
341.189
339.648
337.08
340.122
342.128
340.298
336.861
336.754
335.808
335.382
335.978
336.812
335.896
327.932
331.43
330.564
330.268
328.691
332.107
331.654
330.715
332.138
334.684
335.241
331.945
332.507
331.805
330.494
331.179
328.83
330.214
330.779
330.243
323.157
322.808
321.85
323.011
322.74
326.283
323.375
325.999
324.45
324.414
325.047
325.548
325.512
323.261
324.032
327.419
323.644
323.012
322.578
324.05
317.363
316.542
315.508
317.523
316.657
318.207
318.489
318.088
317.558
317.163
317.87
320.468
317.121
317.376
316.964
317.36
317
316.62
315
313.746
310.268
309.797
309.199
310.745
310.205
309.327
312.936
308.549
311.756
310.246
308.68
311.064
310.365
310.427
309.66
311.655
310.391
308.605
308.618
309.142
304.08
303.339
302.466
301.618
301.062
303.981
302.157
304.637
302.754
304.301
303.12
304.59
303.783
305.778
302.731
303.458
302.33
304.038
302.327
302.56
352.128
349.626
351.567
349.731
350.664
353.121
353.177
353.616
354.894
357.468
355.842
357.52
355.487
353.778
354.087
352.065
349.953
350.581
349.044
351.903
345.601
345.685
345.118
344.093
345.824
346.283
347.588
347.659
346.84
348.304
351.421
347.164
348.998
346.171
343.944
346.986
344.05
342.787
344.972
345.284
337.784
336.355
337.461
337.885
338.092
335.844
339.109
339.064
343.153
340.276
339.963
340.417
339.814
339.688
338.666
336.061
338.78
335.312
333.912
338.208
329.044
329.779
331.144
329.604
330.52
331.292
331.771
331.66
332.524
330.827
334.079
335.363
333.874
332.047
331.044
327.313
327.666
331.182
329.1
330.136
324.138
324.54
321.729
324.497
323.326
325.939
322.579
327.452
328.785
327.538
327.166
326.915
327.813
325.494
322.216
325.551
324.022
320.508
325.056
323.805
316.029
315.212
317.428
316.973
317.028
318.818
315.864
317.541
317.168
317.883
318.124
318.94
318.356
320.451
317.76
317.573
317.795
317.05
315.048
317.638
310.201
310.18
308.327
310.796
307.505
310.869
310.952
312.276
310.54
310.84
312.009
310.575
312.783
311.008
308.53
311.995
309.476
310.645
309.543
310.461
303.325
302.001
302.828
302.716
302.792
303.401
304.474
303.44
303.297
303.558
303.317
305.062
301.872
303.188
301.33
302.195
302.89
303.845
303.832
302.022
351.893
352.186
350.747
351.518
353.392
353.326
355.125
355.214
355.562
357.832
356.867
354.38
355.766
355.315
353.967
351.654
350.044
349.554
350.275
348.884
344.238
341.827
344.494
343.83
345.394
345.385
347.761
345.855
348.193
347.033
347.782
349.156
346.86
345.298
345.61
344.119
343.947
344.464
341.386
344.647
338.029
338.639
337.409
337.754
338.398
339.858
339.898
339.167
342.803
341.504
343.464
341.451
341.443
341.385
338.613
338.717
336.118
337.35
337.706
337.986
330.98
331.253
330.838
331.933
330.411
332.279
332.804
331.876
333.144
336.158
334.843
331.804
332.106
332.486
330.542
331.406
329.437
331.601
330.655
329.402
322.82
323.71
323.943
322.325
324.625
325.172
325.783
326.687
324.88
325.223
326.872
326.013
326.447
325.471
325.508
326.292
321.58
323.249
323.797
323.661
316.473
316.172
317.816
317.908
317.129
320.226
317.162
318.22
319.544
317.757
317.797
320.503
317.233
316.969
319.606
314.752
316.51
314.929
316.473
316.496
309.646
309.919
312.676
311.982
309.331
312.556
309.958
313.071
310.77
311.151
311.881
310.128
313.61
311.524
310.398
311.657
310.222
309.653
309.651
309.482
302.525
303.808
304.099
303.339
304.45
303.68
303.935
303.854
303.578
304.67
302.903
304.012
305.018
305.609
302.992
305.86
301.718
302.859
302.014
303.46
354.394
354.352
352.855
354.164
351.724
351.08
353.841
356.085
355.041
357.499
357.054
356.244
355.853
353.447
354.236
354.248
351.74
352.589
351.787
353.131
346.496
343.381
345.242
344.955
346.573
345.803
345.524
346.672
349.93
346.844
347.523
349.506
347.007
348.816
345.589
346.309
344.994
344.81
343.371
344.682
340.389
341.313
338.093
338.797
336.704
335.692
338.372
338.403
342.884
343.1
342.057
344.174
339.703
339.473
339.274
339.79
337.883
340.296
340.559
335.801
331.963
330.175
331.503
332.029
331.537
332.814
333.012
333.83
334.523
334.049
337.339
335.33
333.55
333.637
334.39
331.679
332.253
331.538
331.889
331.034
324.074
323.718
324.403
325.736
325.321
325.153
324.499
326.305
326.567
327.308
328.631
326.357
327.797
328.02
326.274
326.29
325.788
323.748
325.734
324.512
317.731
316.745
316.787
318.634
316.781
319.248
318.863
316.957
319.864
321.182
319.847
318.885
318.159
318.836
318.572
318.417
317.623
317.08
320.328
318.319
311.346
309.422
310.606
308.771
312.68
309.144
310.077
312.344
310.288
313.871
310.021
310.16
310.701
309.826
309.991
312.532
312.043
311.392
309.998
310.055
303.359
302.773
303.258
303.912
304.763
302.454
301.699
305.33
302.915
303.832
302.888
301.371
304.038
302.939
302.898
305.684
303.504
301.487
305.079
302.51
353.075
354.002
352.229
353.506
353.785
354.184
354.971
357.325
358.043
357.204
360.309
356.56
357.002
355.83
356.167
353.365
354.478
352.156
350.793
352.687
344.491
346.51
347.738
345.401
347.297
348.069
348.573
349.198
349.325
349.174
351.583
350.709
349.236
350.485
348.214
347.737
345.082
345.183
346.756
344.204
339.689
338.612
338.782
339.708
339.434
341.581
339.939
341.688
341.997
344.155
345.5
341.347
341.625
341.805
340.293
340.406
339.808
338.186
338.718
339.804
333.33
332.175
332.542
332.471
332.142
332.883
334.608
333.139
334.855
334.204
334.956
333.18
334.045
333.916
330.815
331.799
332.308
331.481
332.121
329.237
325.568
326.792
323.776
324
324.51
325.629
327.45
324.422
325.847
329.261
329.386
330.428
328.899
324.864
326.763
324.975
324.479
325.564
323.426
326.416
317.364
318.85
317.078
319.921
318.356
318.772
317.789
318.352
321.085
320.191
320.492
321.678
318.803
318.331
315.892
317.04
319.917
318.599
316.96
318.465
313.052
308.762
309.419
311.176
310.011
309.927
311.014
310.464
311.327
312.523
311.841
311.8
313.003
311.695
311.851
310.271
312.46
308.353
309.933
309.57
303.721
303.525
303.537
304.592
303.751
303.361
304.352
302.778
303.382
304.001
303.183
304.471
303.64
300.464
303.123
302.808
302.958
304.08
301.814
304.578
356.319
353.923
353.703
355.568
356.55
353.823
355.122
356.551
358.145
358.176
359.212
358.724
357.999
356.999
354.515
354.588
355.923
352.919
354.883
355.945
348.253
345.173
347.558
345.8
348.743
347.54
347.486
348.646
349.195
349.568
349.352
350.867
348.536
348.556
348.387
347.207
346.468
346.167
345.72
345.025
340.87
340.444
339.921
337.924
338.387
341.321
339.319
344.593
342.853
343.854
342.403
341.288
343.728
341.134
340.141
342.018
338.997
337.816
341.343
339.926
333.267
332.629
334.877
328.491
333.765
333.087
334.324
334.815
333.999
335.429
335.163
334.19
334.655
334.271
332.483
333.245
332.35
334.193
334.901
333.155
326.388
326.151
325.511
327.023
324.615
325.665
325.222
326.432
327.068
327.493
326.962
325.745
325.372
325.117
328.12
321.995
326.191
327.315
324.719
325.411
320.221
318.625
316.695
317.128
316.567
318.426
318.908
317.994
318.289
320.448
322.494
321.622
319.15
316.844
318.369
319.473
318.532
318.142
319.7
317.262
312.077
311.263
312.79
311.364
309.93
309.213
311.249
311.055
311.332
311.86
311.639
310.817
312.844
309.898
309.178
312.686
308.218
311.751
312.81
310.478
303.088
302.855
305.229
303.446
302.641
304.888
303.803
302.968
303.176
304.187
301.13
302.763
302.878
304.884
302.257
304.428
302.893
304.504
301.648
302.747
354.918
354.993
356.068
353.512
356.427
356.406
356.536
358.834
360.923
359.708
359.252
358.677
357.594
357.852
357.798
357.26
354.661
354.125
353.796
357.178
349.657
349.949
347.712
347.351
348.481
349.101
350.482
349.476
351.581
351.313
350.452
352.746
348.951
349.101
349.444
348.063
348.401
346.89
347.866
348.293
343.685
341.136
339.975
339.186
340.927
340.428
343.092
340.718
343.452
343.483
343.898
342.716
343.105
341.497
340.483
342.732
338.96
340.823
338.395
339.996
335.354
334.207
332.921
333.196
333.371
332.727
333.897
335.977
334.11
334.572
333.21
335.001
333.414
336.576
332.53
333.536
333.708
333.35
330.785
332.602
324.694
323.7
326.224
324.88
325.368
326.191
325.617
325.81
327.677
327.906
325.829
327.247
327.704
327.289
326.586
327.367
324.607
325.788
324.92
324.664
315.976
319.188
318.854
319.972
318.887
319.463
318.259
320.801
319.662
321.935
316.633
321.213
319.443
319.206
319.753
321.184
319.333
319.526
317.791
319.296
310.756
310.345
309.248
311.446
312.657
311.763
309.944
311.254
311.153
311.677
311.233
312.403
311.557
311.441
310.147
310.303
309.563
311.416
311.159
311.616
304.714
303.323
303.434
302.225
303.934
304.475
304.367
304.21
303.392
303.461
304.96
303.912
303.472
304.068
303.719
303.536
305.54
302.501
305.165
302.58
359.118
357.737
356.202
358.13
356.09
355.433
357.416
359.101
360.738
359.15
361.452
359.176
359.015
361.04
359.6
356.533
356.037
357.109
355.519
356.356
350.694
347.99
349.185
349.368
350.625
349.912
350.203
350.567
350.848
351.23
351.196
349.281
350.86
350.268
349.27
348.784
349.14
348.816
347.746
347.666
340.66
341.709
341.084
341.12
340.167
342.455
342.282
344.701
343.689
343.008
345.565
343.508
343.854
342.367
341.891
341.181
342.648
339.325
342.047
339.426
335.619
332.671
334.356
333.204
332.69
334.489
334.243
333.279
335.71
336.045
334.786
336.908
334.884
335.645
334.514
335.902
334.427
333.746
333.589
332.478
326.501
325.283
325.046
324.951
326.486
326.51
326.862
328.613
326.767
328.308
330.199
327.802
327.185
327.063
327.542
326.202
327.207
325.309
325.755
326.566
319.047
317.983
318.565
317.021
318.742
317.273
319.322
320.54
317.967
320.211
318.753
320.913
321.575
321.07
320.556
318.75
317.863
318.282
319.547
319.004
312.946
310.027
312.279
312.901
309.915
311.998
309.997
310.753
310.36
310.482
310.464
312.368
311.77
310.977
312.995
310.128
310.788
310.669
312.95
310.842
304.63
301.697
303.136
304.609
304.977
304.45
304.656
302.774
304.079
303.767
304.792
302.8
304.669
305.012
303.62
304.342
303.215
302.487
304.602
302.19
358.722
356.656
356.834
357.8
360.047
358.642
358.622
358.798
358.479
361.405
361.97
361.393
360.427
356.753
358.1
359.072
357.722
357.932
357.768
357.251
350.902
350.066
348.881
351.507
350.654
347.096
354.267
350.928
351.839
352.918
351.933
352.411
351.851
349.365
351.011
350.724
351.159
347.969
350.769
351.132
344.488
343.329
343.142
340.696
342.278
341.105
344.844
345.141
345.071
345.703
345.528
345.002
344.019
343.603
342.53
343.05
344.008
343.142
343.963
343.426
336.095
334.871
333.684
335.081
334.925
333.442
336.02
334.7
337.075
336.611
337.91
333.985
338.591
332.452
336.593
335.541
335.125
335.021
334.968
336.406
326.66
328.774
326.596
328.472
328.275
325.772
328.427
329.362
326.992
328.503
329.283
328.656
328.55
328.105
327.375
327.056
325.213
328.597
329.332
329.361
319.664
319.363
320.347
318.208
318.412
319.3
318.402
318.972
319.999
318.231
322.31
320.844
319.986
321.241
319.812
321.652
319.278
318.587
319.443
317.582
309.056
312.083
311.401
311.431
314.188
312.364
311.649
311.938
312.704
313.32
311.878
313.555
312.143
311.469
309.07
310.722
310.438
311.203
310.881
310.991
305.678
305.799
305.184
302.064
303.593
304.88
304.084
304.876
305.287
305.094
303.946
303.995
301.221
305.247
305.235
305.408
302.743
300.538
304.21
301.678
361.285
359.515
359.382
357.025
358.119
359.2
356.765
360.741
361.612
361.737
359.399
361.721
361.205
359.672
358.622
357.846
358.889
358.73
359.316
358.321
350.487
351.146
351.04
352.191
351.753
352.551
351.906
353.045
355.114
353.913
353.478
352.468
353.944
352.224
353.1
351.714
352.509
348.764
350.901
349.479
341.394
344.773
343.953
342.397
341.472
343.382
346.024
344.06
345.053
345.814
346.951
343.109
346.616
343.16
343.681
341.938
344.419
341.475
343.67
343.309
336.641
336.405
334.61
333.524
336.139
335.223
337.1
337.807
335.554
337.205
337.42
337.237
336.958
336.631
334.64
335.676
334.515
333.176
337.344
334.534
328.54
327.549
325.896
326.312
326.966
327.949
326.93
328.143
328.735
329.909
328.147
328.831
327.827
328.214
329.946
327.585
327.368
328.085
330.314
328.308
320.298
320.421
317.326
319.095
320.531
319.026
321.076
317.338
319.872
318.406
321.484
319.836
318.412
320.929
319.429
319.378
318.703
318.617
319.545
319.245
310.008
313.863
310.799
310.815
310.208
312.681
311.1
312.268
311.241
311.199
313.139
312.1
310.361
312.326
310.988
311.844
312.77
310.606
312.506
312.53
303.025
303.717
302.818
303.754
304.939
303.999
304.407
304.726
302.985
304.367
304.232
303.675
303.831
304.519
303.529
304.155
305.518
304.49
305.865
303.823
360.076
358.121
357.354
360.534
359.067
360.522
361.5
360.669
361.504
362.504
361.02
360.79
361.954
360.638
359.486
359.664
358.273
358.028
358.356
360.306
351.46
353.823
353.674
351.519
350.593
354.322
353.181
352.247
353.989
352.079
352.462
352.863
354.303
352.203
352.993
351.144
350.901
350.608
350.785
352.106
343.073
342.293
342.41
343.086
344.261
344.362
343.751
345.441
347.235
346.077
345.938
344.129
343.759
345.262
342.469
341.934
341.589
342.152
343.315
343.099
334.268
335.217
334.89
333.907
336.774
335.11
335.11
336.782
336.606
337.49
336.937
334.507
336.199
334.88
335.531
337.188
337.954
334.45
336.024
335.491
328.13
329.416
327.786
326.698
327.077
328.778
329.368
327.001
330.537
327.287
329.886
329.39
326.234
328.905
329.361
327.108
327.931
328.084
325.529
328.041
321.376
319.051
319.682
320.361
318.736
319.957
319.599
321.414
319.105
322.483
318.467
319.451
321.814
317.835
317.132
319.534
319.942
317.734
320.611
318.967
312.163
312.427
310.414
311.319
312.707
310.563
311.216
312.381
311.713
312.633
311.26
313.522
313.525
311.145
312.225
312.237
309.119
312.269
310.181
310.857
303.771
304.311
304.013
304.389
304.335
304.483
303.398
305.765
304.407
304.31
302.349
305.297
303.777
303.826
303.257
303.17
304.884
304.354
302.891
303.561
361.101
360.574
362.205
360.159
360.881
360.283
360.525
362.818
362.602
360.484
362.233
362.851
362.598
361.607
358.466
361.166
362.549
360.562
360.879
361.962
352.771
354.77
352.579
355.027
353.079
355.887
352.277
356.993
352.426
356.689
356.91
353.726
356.456
353.19
355.427
351.776
355.034
352.45
354.67
354.091
347.962
347.128
344.181
343.125
345.637
343.445
345.023
345.515
343.515
344.732
343.517
346.407
343.861
343.245
344.687
344.318
345.533
343.211
342.535
342.688
338.371
339.983
335.777
337.35
335.878
337.265
335.595
335.458
336.232
337.435
337.661
338.009
337.907
335.964
337.613
337.214
336.257
336.183
336.855
334.545
329.982
327.97
327.307
327.552
328.839
329.195
327.454
327.488
326.692
332.127
327.984
328.415
328.762
327.184
330.369
327.714
329.029
329.075
327.341
329.256
318.179
321.286
319.807
319.168
319.593
320.707
320.347
318.34
320.786
320.453
320.446
319.371
321.775
320.081
317.843
318.989
321.623
318.611
320.049
319.859
311.932
312.623
312.969
313.181
311.554
311.959
310.28
312.391
313.695
314.447
312.858
313.573
311.194
313.659
313.576
312.538
313.926
312.149
308.959
311.915
302.602
304.752
305.181
305.001
306.548
304.585
305.237
307.243
303.377
304.828
307.674
304.052
303.371
304.772
303.275
303.666
304.152
304.311
304.506
301.636
362.347
363.011
361.081
360.055
362.258
361.176
361.192
361.024
361.835
361.434
362.766
363.436
363.275
361.324
358.731
359.755
360.568
360.81
360.557
362.019
355.234
353.004
353.304
351.816
353.17
354.193
354.102
353.726
354.212
354.298
353.82
354.604
352.47
352.049
354.469
353.697
351.209
352.872
353.496
355.22
346.367
346.059
343.831
344.359
343.414
344.777
344.652
344.364
345.464
344.754
347.842
347.734
345.18
344.997
344.678
343.381
342.692
345.489
344.597
347.298
337.272
338.173
335.845
335.544
335.864
336.392
337.246
335.912
337.676
337.338
337.986
339.026
337.133
338.863
334.991
339.084
336.104
335.805
336.155
336.125
328.21
329.657
330.532
327.828
328.343
328.177
331.224
328.205
329.42
329.611
330.013
327.436
326.78
328.352
328.27
328.554
327.576
328.505
329.013
326.912
320.464
320.423
320.602
319.343
320.145
319.369
321.284
320.859
321.63
316.648
320.776
323.081
320.64
322.995
322.929
321.114
321.633
319.923
319.756
320.219
311.734
312.267
313.081
312.089
310.115
311.577
313.4
312.887
313.562
310.905
311.071
311.478
310.851
311.272
311.94
314.182
313.55
313.034
313.958
313.464
303.933
303.587
305.507
305.216
303.473
305.708
303.487
304.513
303.709
304.999
304.161
303.221
305.687
304.786
303.357
305.509
306.17
305.245
304.769
303.004
)
;

boundaryField
{
    hotSide
    {
        type            fixedGradient;
        gradient        nonuniform List<scalar> 
400
(
321.511
322.87
325.591
329.677
335.133
341.965
350.181
359.788
370.794
383.208
397.037
412.289
428.971
447.088
466.647
487.651
510.105
534.011
559.372
586.191
323.738
325.08
327.767
331.802
337.194
343.949
352.078
361.591
372.498
384.81
398.537
413.687
430.268
448.289
467.755
488.672
511.043
534.872
560.161
586.913
326.149
327.47
330.116
334.091
339.406
346.071
354.099
363.503
374.296
386.491
400.101
415.136
431.606
449.52
468.885
489.706
511.988
535.735
560.948
587.63
328.704
330
332.597
336.503
341.73
348.292
356.205
365.485
376.15
388.215
401.695
416.604
432.954
450.753
470.009
490.73
512.919
536.579
561.714
588.325
331.33
332.599
335.142
338.97
344.099
350.546
358.332
367.477
378.003
389.928
403.271
418.047
434.27
451.949
471.095
491.712
513.807
537.382
562.439
588.978
333.918
335.158
337.643
341.389
346.414
352.74
360.392
369.397
379.779
391.562
404.765
419.407
435.503
453.065
472.101
492.618
514.622
538.114
563.096
589.569
336.321
337.531
339.959
343.622
348.544
354.751
362.274
371.142
381.385
393.031
406.101
420.618
436.595
454.047
472.983
493.409
515.33
538.747
563.663
590.076
338.36
339.543
341.92
345.509
350.339
356.44
363.847
372.595
382.718
394.244
407.2
421.608
437.485
454.844
473.695
494.045
515.897
539.253
564.114
590.478
339.852
341.015
343.352
346.885
351.645
357.665
364.985
373.643
383.675
395.113
407.984
422.312
438.116
455.407
474.197
494.491
516.294
539.606
564.428
590.758
340.643
341.795
344.11
347.613
352.334
358.311
365.584
374.193
384.176
395.567
408.393
422.679
438.443
455.699
474.456
494.722
516.498
539.788
564.589
590.901
340.643
341.795
344.11
347.613
352.334
358.311
365.584
374.193
384.176
395.567
408.393
422.679
438.443
455.699
474.456
494.722
516.498
539.788
564.589
590.901
339.852
341.015
343.352
346.885
351.645
357.665
364.985
373.643
383.675
395.113
407.984
422.312
438.116
455.407
474.197
494.491
516.294
539.606
564.428
590.758
338.36
339.543
341.92
345.509
350.339
356.44
363.847
372.595
382.718
394.244
407.2
421.608
437.485
454.844
473.695
494.045
515.897
539.253
564.114
590.478
336.321
337.531
339.959
343.622
348.544
354.751
362.274
371.142
381.385
393.031
406.101
420.618
436.595
454.047
472.983
493.409
515.33
538.747
563.663
590.076
333.918
335.158
337.643
341.389
346.414
352.74
360.392
369.397
379.779
391.562
404.765
419.407
435.503
453.065
472.101
492.618
514.622
538.114
563.096
589.569
331.33
332.599
335.142
338.97
344.099
350.546
358.332
367.477
378.003
389.928
403.271
418.047
434.27
451.949
471.095
491.712
513.807
537.382
562.439
588.978
328.704
330
332.597
336.503
341.73
348.292
356.205
365.485
376.15
388.215
401.695
416.604
432.954
450.753
470.009
490.73
512.919
536.579
561.714
588.325
326.149
327.47
330.116
334.091
339.406
346.071
354.099
363.503
374.296
386.491
400.101
415.136
431.606
449.52
468.885
489.706
511.988
535.735
560.948
587.63
323.738
325.08
327.767
331.802
337.194
343.949
352.078
361.591
372.498
384.81
398.537
413.687
430.268
448.289
467.755
488.672
511.043
534.872
560.161
586.913
321.511
322.87
325.591
329.677
335.133
341.965
350.181
359.788
370.794
383.208
397.037
412.289
428.971
447.088
466.647
487.651
510.105
534.011
559.372
586.191
)
;
    }
    coldSide
    {
        type            mixed;
        refValue        uniform 300;
        refGradient     uniform 0;
        valueFraction   uniform 0.991591;
        source          uniform 0;
        value           nonuniform List<scalar> 
400
(
300.024
300.02
300.018
300.032
300.048
300.044
300.019
300.034
300.028
300.021
300.028
300.031
300.026
300.04
300.039
300.048
300.025
300.032
300.022
300.033
300.013
300.024
300.028
300.033
300.017
300.023
300.031
300.028
300.017
300.032
300.023
300.03
300.024
300.028
300.014
300.049
300.031
300.036
300.04
300.03
300.03
300.022
300.044
300.017