/*--------------------------------*- C++ -*----------------------------------*\
| =========                 |                                                 |
| \\      /  F ield         | OpenFOAM: The Open Source CFD Toolbox           |
|  \\    /   O peration     | Version:  2212                                  |
|   \\  /    A nd           | Website:  www.openfoam.com                      |
|    \\/     M anipulation  |                                                 |
\*---------------------------------------------------------------------------*/
FoamFile
{
    version     2.0;
    format      ascii;
    arch        "LSB;label=32;scalar=64";
    class       volScalarField;
    location    "0";
    object      T;
}
// * * * * * * * * * * * * * * * * * * * * * * * * * * * * * * * * * * * * * //

dimensions      [0 0 0 1 0 0 0];

internalField   nonuniform List<scalar> 
3200
(
324.992
324.326
323.976
323.909
324.172
324.969
325.456
326.04
326.497
326.894
327.2
327.103
326.66
326.34
325.745
325.208
324.826
324.764
325.123
325.633
321.776
321.232
320.907
320.863
321.086
321.773
322.182
322.67
323.074
323.436
323.703
323.598
323.216
322.94
322.45
321.949
321.612
321.552
321.883
322.315
318.505
318.078
317.796
317.77
317.93
318.536
318.846
319.254
319.588
319.955
320.142
320.044
319.735
319.497
319.087
318.628
318.36
318.275
318.584
318.955
315.217
314.867
314.626
314.621
314.747
315.254
315.508
315.805
316.079
316.392
316.537
316.462
316.211
316.017
315.676
315.262
315.062
314.99
315.256
315.546
311.884
311.592
311.395
311.42
311.52
311.932
312.113
312.334
312.531
312.806
312.919
312.843
312.653
312.504
312.246
311.902
311.749
311.711
311.937
312.117
308.529
308.296
308.156
308.169
308.269
308.551
308.687
308.823
308.979
309.169
309.259
309.213
309.063
308.961
308.785
308.537
308.407
308.382
308.572
308.676
305.126
304.985
304.905
304.91
304.986
305.144
305.215
305.315
305.386
305.505
305.564
305.533
305.452
305.399
305.302
305.148
305.059
305.04
305.161
305.212
301.729
301.678
301.657
301.643
301.671
301.721
301.739
301.788
301.805
301.845
301.87
301.851
301.829
301.809
301.786
301.727
301.691
301.689
301.735
301.755
325.121
324.507
324.102
324.169
324.475
325.19
325.912
326.474
326.996
327.506
327.623
327.571
327.059
326.67
326.142
325.466
324.974
324.998
325.272
325.757
321.879
321.383
321.021
321.045
321.333
321.942
322.577
323.049
323.509
323.937
324.025
324.011
323.547
323.224
322.75
322.176
321.741
321.769
322.009
322.389
318.584
318.197
317.879
317.882
318.155
318.659
319.204
319.573
319.985
320.315
320.395
320.42
319.991
319.734
319.316
318.834
318.47
318.494
318.679
318.999
315.267
314.947
314.695
314.69
314.909
315.336
315.771
316.065
316.406
316.662
316.738
316.737
316.401
316.22
315.853
315.465
315.157
315.18
315.335
315.598
311.92
311.675
311.474
311.448
311.646
311.964
312.317
312.525
312.802
313.003
313.062
313.046
312.786
312.655
312.359
312.052
311.816
311.834
311.994
312.149
308.539
308.36
308.214
308.169
308.366
308.553
308.836
308.947
309.175
309.315
309.363
309.346
309.172
309.057
308.819
308.616
308.441
308.459
308.593
308.68
305.127
305.031
304.935
304.881
305.047
305.137
305.325
305.381
305.511
305.594
305.647
305.616
305.529
305.444
305.282
305.169
305.076
305.088
305.176
305.215
301.717
301.693
301.657
301.639
301.69
301.723
301.794
301.798
301.845
301.874
301.899
301.88
301.849
301.82
301.76
301.733
301.706
301.704
301.731
301.738
325.37
324.776
324.51
324.643
324.998
325.571
326.42
327.031
327.651
328.109
328.373
328.206
327.729
327.328
326.657
325.963
325.459
325.249
325.495
325.968
322.085
321.602
321.385
321.48
321.798
322.248
323.005
323.538
324.06
324.472
324.69
324.518
324.115
323.761
323.186
322.608
322.121
321.986
322.174
322.583
318.749
318.359
318.183
318.254
318.543
318.892
319.542
320.008
320.445
320.777
320.97
320.81
320.482
320.147
319.687
319.207
318.767
318.681
318.84
319.168
315.387
315.088
314.93
315.002
315.241
315.528
316.053
316.432
316.79
317.05
317.202
317.064
316.817
316.526
316.151
315.745
315.404
315.325
315.474
315.711
311.994
311.782
311.668
311.7
311.907
312.123
312.526
312.819
313.096
313.295
313.415
313.321
313.13
312.861
312.575
312.262
312.028
311.97
312.081
312.228
308.564
308.449
308.341
308.353
308.522
308.689
308.983
309.171
309.384
309.527
309.606
309.551
309.413
309.205
309.01
308.77
308.62
308.571
308.637
308.747
305.158
305.084
305.013
305.013
305.105
305.218
305.409
305.497
305.635
305.732
305.778
305.748
305.657
305.539
305.397
305.289
305.199
305.144
305.197
305.258
301.737
301.715
301.679
301.668
301.702
301.746
301.815
301.842
301.891
301.917
301.943
301.926
301.893
301.867
301.802
301.779
301.747
301.727
301.741
301.749
325.946
325.4
325.113
325.312
325.686
326.301
327.085
327.739
328.477
328.871
329.115
328.941
328.421
327.942
327.34
326.522
326.058
325.771
325.954
326.475
322.605
322.149
321.918
322.064
322.37
322.904
323.601
324.155
324.78
325.122
325.337
325.172
324.689
324.298
323.8
323.058
322.679
322.424
322.573
323.022
319.227
318.817
318.653
318.748
319.012
319.457
320.066
320.51
321.05
321.326
321.534
321.377
320.948
320.625
320.212
319.563
319.249
319.028
319.173
319.541
315.794
315.438
315.337
315.381
315.622
315.981
316.491
316.837
317.288
317.496
317.675
317.524
317.175
316.924
316.577
316.057
315.805
315.618
315.783
316.05
312.31
312.029
311.959
312.001
312.192
312.483
312.87
313.152
313.482
313.67
313.758
313.655
313.378
313.193
312.919
312.529
312.312
312.184
312.334
312.524
308.815
308.601
308.534
308.574
308.726
308.946
309.222
309.421
309.654
309.803
309.842
309.745
309.569
309.43
309.226
308.957
308.818
308.731
308.849
308.964
305.284
305.18
305.13
305.156
305.225
305.377
305.548
305.655
305.816
305.904
305.902
305.854
305.754
305.659
305.526
305.381
305.297
305.253
305.324
305.393
301.78
301.742
301.721
301.726
301.744
301.812
301.86
301.896
301.953
301.987
301.969
301.961
301.929
301.894
301.855
301.8
301.775
301.756
301.794
301.807
326.765
326.155
325.816
326.083
326.437
327.13
327.922
328.612
329.348
329.721
329.931
329.827
329.437
328.798
328.005
327.149
326.753
326.429
326.637
327.071
323.306
322.784
322.517
322.721
323.036
323.636
324.323
324.897
325.52
325.835
326.019
325.939
325.606
325.049
324.358
323.626
323.284
322.981
323.167
323.531
319.828
319.369
319.151
319.326
319.577
320.084
320.678
321.141
321.659
321.925
322.104
322.013
321.736
321.252
320.685
320.058
319.793
319.525
319.681
319.973
316.306
315.907
315.725
315.903
316.08
316.495
316.979
317.368
317.785
317.992
318.139
318.064
317.82
317.445
316.969
316.453
316.259
316.022
316.144
316.369
312.729
312.396
312.288
312.443
312.558
312.878
313.245
313.55
313.887
314.049
314.126
314.093
313.895
313.592
313.248
312.824
312.685
312.515
312.588
312.739
309.116
308.893
308.803
308.911
308.994
309.225
309.491
309.687
309.938
310.075
310.099
310.098
309.927
309.7
309.475
309.167
309.065
308.962
308.987
309.107
305.476
305.356
305.301
305.365
305.404
305.554
305.702
305.842
305.974
306.072
306.041
306.061
305.957
305.821
305.691
305.519
305.44
305.406
305.4
305.464
301.841
301.794
301.774
301.799
301.813
301.87
301.905
301.959
301.997
302.034
302.021
302.034
301.998
301.951
301.904
301.85
301.828
301.82
301.819
301.825
327.688
327.014
326.691
327.003
327.235
327.872
328.717
329.446
330.245
330.676
330.875
330.734
330.272
329.661
328.837
328.036
327.469
327.272
327.329
327.716
324.127
323.533
323.254
323.555
323.735
324.25
325.003
325.611
326.292
326.644
326.87
326.735
326.313
325.797
325.09
324.39
323.898
323.735
323.789
324.1
320.497
319.995
319.761
320.035
320.182
320.604
321.248
321.733
322.296
322.604
322.827
322.693
322.316
321.872
321.305
320.71
320.313
320.137
320.176
320.445
316.825
316.425
316.238
316.474
316.588
316.929
317.445
317.842
318.279
318.538
318.725
318.624
318.288
317.939
317.483
317.003
316.668
316.537
316.564
316.764
313.131
312.815
312.667
312.876
312.966
313.207
313.608
313.91
314.253
314.439
314.589
314.508
314.24
313.964
313.637
313.233
313.008
312.905
312.908
313.06
309.402
309.174
309.077
309.229
309.302
309.451
309.747
309.966
310.202
310.338
310.432
310.375
310.197
309.982
309.766
309.464
309.309
309.243
309.223
309.338
305.643
305.531
305.467
305.556
305.604
305.695
305.861
305.991
306.131
306.205
306.27
306.229
306.126
305.992
305.882
305.68
305.603
305.556
305.531
305.605
301.891
301.857
301.832
301.872
301.88
301.907
301.96
301.998
302.065
302.08
302.105
302.098
302.055
302.001
301.977
301.892
301.884
301.858
301.854
301.873
328.565
328.031
327.79
327.931
328.166
328.816
329.643
330.432
331.22
331.685
331.949
331.798
331.279
330.599
329.773
328.989
328.397
328.196
328.102
328.46
324.88
324.457
324.222
324.329
324.518
325.079
325.771
326.466
327.13
327.555
327.772
327.647
327.173
326.582
325.887
325.209
324.687
324.498
324.461
324.748
321.138
320.817
320.588
320.659
320.844
321.287
321.879
322.459
323.011
323.379
323.561
323.487
323.065
322.555
321.968
321.373
320.981
320.787
320.741
320.979
317.36
317.103
316.889
316.953
317.116
317.457
317.941
318.413
318.862
319.164
319.308
319.278
318.913
318.51
318.015
317.531
317.24
317.053
317.003
317.212
313.548
313.345
313.157
313.233
313.347
313.594
313.99
314.337
314.714
314.927
315.02
315.031
314.749
314.423
314.042
313.662
313.442
313.281
313.246
313.414
309.707
309.545
309.392
309.463
309.556
309.719
310.022
310.251
310.537
310.681
310.739
310.76
310.542
310.319
310.055
309.785
309.631
309.525
309.472
309.618
305.837
305.734
305.631
305.695
305.748
305.838
306.019
306.167
306.329
306.418
306.463
306.48
306.328
306.209
306.031
305.881
305.791
305.733
305.707
305.774
301.952
301.92
301.886
301.916
301.936
301.958
302.027
302.06
302.112
302.147
302.177
302.17
302.12
302.087
302.024
301.978
301.941
301.925
301.92
301.938
329.496
329.137
328.88
328.874
329.203
329.728
330.638
331.41
332.106
332.666
332.849
332.71
332.248
331.486
330.737
329.975
329.413
329.119
329.01
329.298
325.665
325.399
325.165
325.164
325.422
325.881
326.64
327.323
327.936
328.38
328.568
328.435
328.011
327.363
326.737
326.079
325.598
325.327
325.223
325.468
321.79
321.604
321.402
321.399
321.611
321.994
322.596
323.2
323.7
324.093
324.254
324.156
323.774
323.205
322.687
322.129
321.714
321.521
321.398
321.594
317.884
317.717
317.578
317.578
317.767
318.024
318.537
319.034
319.445
319.745
319.919
319.857
319.517
319.026
318.577
318.172
317.817
317.649
317.562
317.72
313.956
313.822
313.712
313.721
313.88
314.025
314.45
314.833
315.171
315.383
315.531
315.504
315.221
314.839
314.472
314.155
313.863
313.758
313.704
313.823
309.986
309.887
309.819
309.824
309.967
310.026
310.34
310.607
310.875
310.996
311.126
311.104
310.895
310.626
310.316
310.105
309.924
309.852
309.794
309.893
306
305.941
305.894
305.908
305.992
306.031
306.228
306.376
306.55
306.599
306.695
306.689
306.561
306.394
306.197
306.075
305.974
305.905
305.872
305.957
301.998
301.987
301.968
301.985
302.004
302.011
302.096
302.139
302.185
302.217
302.25
302.254
302.208
302.137
302.065
302.041
302.007
301.982
301.972
302.001
330.501
330.189
329.918
329.957
330.345
330.883
331.71
332.419
333.046
333.485
333.839
333.704
333.163
332.428
331.747
331.004
330.308
330.069
330.043
330.31
326.54
326.289
326.067
326.104
326.418
326.866
327.583
328.186
328.707
329.103
329.4
329.27
328.814
328.18
327.586
326.976
326.36
326.15
326.102
326.353
322.532
322.349
322.176
322.183
322.445
322.8
323.42
323.912
324.356
324.683
324.937
324.844
324.419
323.925
323.419
322.909
322.398
322.193
322.139
322.369
318.504
318.355
318.223
318.226
318.434
318.705
319.209
319.623
319.98
320.253
320.453
320.388
320.024
319.605
319.181
318.827
318.39
318.194
318.131
318.348
314.429
314.319
314.228
314.235
314.397
314.592
314.981
315.317
315.576
315.772
315.943
315.917
315.605
315.268
314.928
314.695
314.35
314.19
314.102
314.314
310.331
310.244
310.204
310.205
310.314
310.443
310.712
310.965
311.139
311.291
311.407
311.397
311.157
310.932
310.679
310.51
310.276
310.177
310.081
310.246
306.22
306.167
306.148
306.121
306.196
306.292
306.44
306.598
306.696
306.791
306.855
306.848
306.707
306.578
306.417
306.306
306.189
306.144
306.053
306.166
302.077
302.083
302.065
302.054
302.077
302.117
302.166
302.226
302.242
302.273
302.303
302.296
302.257
302.2
302.149
302.11
302.079
302.067
302.022
302.081
331.63
331.286
331.136
331.167
331.415
331.96
332.646
333.32
334.007
334.385
334.63
334.589
333.956
333.26
332.631
331.913
331.284
331.045
330.928
331.154
327.543
327.234
327.108
327.118
327.34
327.816
328.387
328.973
329.549
329.849
330.081
330.061
329.512
328.902
328.362
327.747
327.219
327.002
326.897
327.075
323.407
323.146
323.029
323.022
323.226
323.624
324.108
324.585
325.062
325.296
325.508
325.488
325.024
324.524
324.04
323.544
323.122
322.935
322.829
322.969
319.219
319.017
318.914
318.889
319.067
319.382
319.758
320.154
320.54
320.726
320.919
320.881
320.524
320.114
319.706
319.325
318.991
318.824
318.739
318.836
314.998
314.843
314.776
314.736
314.868
315.09
315.379
315.709
315.991
316.141
316.297
316.247
315.998
315.673
315.345
315.069
314.813
314.669
314.619
314.685
310.738
310.627
310.594
310.544
310.665
310.785
310.994
311.237
311.429
311.545
311.669
311.604
311.447
311.221
310.972
310.766
310.606
310.491
310.487
310.521
306.458
306.416
306.394
306.349
306.429
306.487
306.601
306.763
306.856
306.953
307.025
306.967
306.883
306.739
306.597
306.472
306.382
306.3
306.318
306.309
302.162
302.164
302.144
302.129
302.158
302.167
302.207
302.261
302.296
302.335
302.352
302.338
302.307
302.259
302.223
302.173
302.139
302.11
302.125
302.112
332.791
332.405
332.268
332.385
332.524
333.05
333.622
334.176
334.753
335.149
335.567
335.326
334.708
334.051
333.395
332.844
332.309
332.006
331.901
331.985
328.529
328.228
328.102
328.186
328.291
328.756
329.251
329.714
330.19
330.54
330.919
330.719
330.179
329.581
329.022
328.563
328.116
327.867
327.735
327.797
324.219
323.987
323.875
323.925
324.034
324.42
324.834
325.216
325.599
325.903
326.211
326.038
325.6
325.08
324.617
324.261
323.883
323.665
323.548
323.579
319.89
319.698
319.6
319.626
319.733
320.023
320.369
320.668
321.012
321.242
321.481
321.341
320.986
320.579
320.187
319.927
319.603
319.402
319.344
319.35
315.531
315.369
315.283
315.312
315.39
315.604
315.849
316.11
316.378
316.543
316.727
316.617
316.329
316.061
315.74
315.548
315.3
315.119
315.091
315.102
311.118
311.015
310.958
310.969
311.025
311.163
311.315
311.531
311.716
311.835
311.968
311.886
311.696
311.494
311.267
311.14
310.953
310.81
310.783
310.806
306.702
306.626
306.595
306.593
306.615
306.71
306.798
306.943
307.046
307.126
307.188
307.146
307.028
306.9
306.795
306.705
306.584
306.505
306.492
306.485
302.248
302.22
302.205
302.209
302.219
302.247
302.277
302.328
302.36
302.399
302.404
302.39
302.362
302.319
302.278
302.249
302.217
302.185
302.176
302.182
333.969
333.708
333.461
333.387
333.67
334.053
334.644
335.15
335.519
336.031
336.288
336.111
335.522
334.873
334.26
333.695
333.202
332.941
332.845
332.922
329.561
329.346
329.134
329.05
329.308
329.586
330.122
330.567
330.883
331.309
331.508
331.378
330.869
330.29
329.779
329.315
328.889
328.64
328.57
328.592
325.102
324.903
324.754
324.693
324.895
325.096
325.558
325.927
326.228
326.553
326.727
326.616
326.18
325.684
325.263
324.87
324.515
324.293
324.254
324.263
320.62
320.433
320.343
320.285
320.43
320.574
320.973
321.269
321.503
321.746
321.92
321.829
321.472
321.051
320.711
320.414
320.108
319.906
319.886
319.903
316.082
315.929
315.893
315.838
315.94
316.038
316.345
316.575
316.76
316.914
317.08
317.018
316.719
316.413
316.129
315.928
315.679
315.504
315.484
315.511
311.509
311.397
311.381
311.343
311.412
311.485
311.685
311.866
311.997
312.088
312.221
312.178
311.958
311.743
311.549
311.412
311.232
311.09
311.067
311.086
306.922
306.844
306.832
306.818
306.865
306.92
307.031
307.151
307.22
307.246
307.338
307.33
307.18
307.066
306.937
306.885
306.763
306.67
306.659
306.668
302.327
302.298
302.303
302.291
302.3
302.327
302.362
302.395
302.422
302.427
302.466
302.466
302.41
302.368
302.331
302.312
302.263
302.239
302.227
302.24
335.076
334.827
334.647
334.559
334.742
335.012
335.509
336.121
336.507
336.839
336.985
336.889
336.361
335.779
335.176
334.574
334.068
333.871
333.821
333.896
330.527
330.325
330.154
330.068
330.23
330.461
330.881
331.408
331.735
332.037
332.159
332.081
331.588
331.11
330.598
330.064
329.636
329.463
329.395
329.447
325.926
325.76
325.623
325.505
325.654
325.864
326.215
326.659
326.918
327.168
327.288
327.242
326.804
326.404
325.963
325.533
325.15
325.027
324.935
324.984
321.297
321.133
321.048
320.923
321.032
321.233
321.491
321.872
322.056
322.267
322.374
322.335
321.987
321.685
321.296
320.957
320.647
320.559
320.429
320.488
316.621
316.485
316.41
316.315
316.377
316.546
316.74
317.061
317.17
317.328
317.442
317.415
317.137
316.926
316.608
316.357
316.11
316.046
315.909
315.966
311.903
311.815
311.76
311.686
311.71
311.832
311.98
312.217
312.296
312.39
312.477
312.467
312.249
312.108
311.885
311.697
311.537
311.485
311.379
311.426
307.154
307.114
307.082
307.012
307.026
307.098
307.202
307.346
307.382
307.447
307.495
307.481
307.344
307.268
307.139
307.033
306.929
306.917
306.833
306.872
302.4
302.392
302.389
302.356
302.364
302.366
302.416
302.462
302.466
302.494
302.509
302.51
302.457
302.442
302.39
302.366
302.327
302.313
302.292
302.302
336.337
336.022
335.808
335.692
335.871
336.06
336.522
336.925
337.291
337.537
337.683
337.521
337.019
336.61
336.003
335.434
335.011
334.812
334.801
334.83
331.623
331.361
331.189
331.066
331.214
331.35
331.763
332.114
332.405
332.627
332.737
332.612
332.181
331.829
331.298
330.812
330.439
330.266
330.267
330.284
326.856
326.638
326.503
326.396
326.507
326.629
326.942
327.264
327.474
327.666
327.776
327.666
327.323
327.003
326.551
326.142
325.822
325.672
325.674
325.703
322.032
321.845
321.771
321.69
321.746
321.839
322.098
322.378
322.517
322.675
322.773
322.697
322.434
322.166
321.767
321.443
321.154
321.042
321.05
321.082
317.189
317.001
317.009
316.933
316.964
317.023
317.224
317.469
317.554
317.673
317.739
317.701
317.495
317.299
316.983
316.698
316.471
316.404
316.409
316.43
312.306
312.176
312.196
312.131
312.157
312.185
312.332
312.52
312.582
312.652
312.703
312.689
312.519
312.404
312.168
311.935
311.78
311.77
311.731
311.765
307.397
307.31
307.353
307.305
307.311
307.332
307.411
307.533
307.574
307.609
307.637
307.643
307.528
307.461
307.332
307.155
307.094
307.093
307.067
307.085
302.478
302.444
302.468
302.444
302.447
302.454
302.493
302.529
302.542
302.563
302.562
302.561
302.519
302.505
302.463
302.388
302.385
302.384
302.374
302.374
337.513
337.05
336.942
336.919
336.929
336.992
337.377
337.818
338.145
338.337
338.354
338.231
337.784
337.291
336.81
336.32
335.918
335.578
335.618
335.832
332.64
332.241
332.164
332.149
332.14
332.198
332.517
332.863
333.164
333.324
333.331
333.221
332.856
332.421
331.988
331.577
331.249
330.926
330.968
331.172
327.703
327.398
327.333
327.319
327.296
327.325
327.598
327.884
328.141
328.28
328.301
328.182
327.882
327.526
327.134
326.795
326.531
326.252
326.288
326.458
322.726
322.476
322.438
322.448
322.398
322.393
322.65
322.887
323.094
323.182
323.223
323.096
322.871
322.59
322.258
321.974
321.77
321.537
321.56
321.694
317.716
317.55
317.498
317.525
317.483
317.427
317.662
317.858
318.012
318.077
318.11
317.996
317.824
317.609
317.359
317.128
316.968
316.821
316.818
316.909
312.684
312.58
312.527
312.578
312.512
312.453
312.646
312.775
312.898
312.946
312.965
312.879
312.759
312.592
312.417
312.244
312.133
312.058
312.058
312.09
307.629
307.585
307.525
307.559
307.53
307.483
307.613
307.673
307.753
307.773
307.797
307.749
307.66
307.567
307.455
307.361
307.293
307.264
307.261
307.275
302.549
302.552
302.516
302.538
302.53
302.514
302.551
302.576
302.594
302.605
302.608
302.602
302.567
302.533
302.505
302.473
302.442
302.439
302.436
302.452
338.581
338.264
338.185
338.059
338.004
337.921
338.235
338.499
338.916
339.118
338.998
338.818
338.484
338.015
337.563
337.14
336.731
336.563
336.556
336.947
333.562
333.297
333.254
333.118
333.063
332.985
333.251
333.489
333.856
334.014
333.9
333.751
333.456
333.05
332.678
332.308
331.953
331.803
331.803
332.143
328.482
328.269
328.25
328.115
328.069
327.988
328.221
328.437
328.734
328.866
328.787
328.625
328.388
328.038
327.755
327.409
327.14
327.008
327.019
327.275
323.371
323.188
323.174
323.077
323.029
322.967
323.151
323.329
323.611
323.673
323.624
323.462
323.287
322.995
322.781
322.472
322.277
322.176
322.16
322.368
318.191
318.083
318.059
318.002
317.943
317.921
318.045
318.177
318.427
318.47
318.409
318.267
318.146
317.919
317.772
317.512
317.376
317.3
317.276
317.411
313.014
312.961
312.917
312.894
312.83
312.831
312.9
313.012
313.224
313.24
313.174
313.079
312.978
312.823
312.717
312.544
312.447
312.396
312.383
312.459
307.811
307.817
307.753
307.761
307.702
307.728
307.756
307.814
307.957
307.963
307.915
307.869
307.812
307.7
307.655
307.566
307.491
307.457
307.457
307.49
302.623
302.628
302.597
302.597
302.582
302.585
302.599
302.622
302.677
302.675
302.653
302.644
302.634
302.582
302.578
302.544
302.509
302.507
302.501
302.507
339.706
339.346
339.156
339.008
338.901
339.064
339.223
339.317
339.731
339.778
339.742
339.486
339.209
338.712
338.359
338.025
337.665
337.421
337.519
337.732
334.548
334.256
334.09
333.949
333.841
333.971
334.127
334.203
334.569
334.599
334.568
334.325
334.094
333.642
333.355
333.059
332.772
332.538
332.617
332.819
329.336
329.131
328.956
328.817
328.733
328.83
328.956
329.044
329.36
329.382
329.346
329.125
328.944
328.547
328.33
328.069
327.82
327.611
327.681
327.863
324.086
323.93
323.787
323.639
323.576
323.66
323.73
323.842
324.114
324.131
324.097
323.89
323.744
323.429
323.254
323.037
322.832
322.67
322.718
322.865
318.787
318.689
318.575
318.43
318.377
318.461
318.481
318.585
318.824
318.824
318.805
318.641
318.517
318.262
318.117
317.971
317.804
317.683
317.715
317.814
313.46
313.409
313.32
313.204
313.132
313.223
313.226
313.291
313.496
313.481
313.455
313.367
313.253
313.069
312.98
312.863
312.745
312.687
312.681
312.752
308.094
308.082
308.007
307.953
307.9
307.945
307.962
307.988
308.121
308.099
308.101
308.054
307.971
307.873
307.799
307.742
307.642
307.639
307.624
307.673
302.706
302.711
302.69
302.672
302.661
302.671
302.674
302.67
302.721
302.719
302.723
302.697
302.676
302.643
302.601
302.592
302.561
302.563
302.557
302.575
340.735
340.46
340.137
339.899
339.855
340.013
340.093
340.201
340.432
340.472
340.308
340.165
339.893
339.525
339.066
338.722
338.441
338.318
338.315
338.688
335.426
335.197
334.902
334.706
334.672
334.812
334.867
334.961
335.15
335.2
335.07
334.911
334.677
334.351
333.949
333.664
333.429
333.33
333.326
333.641
330.062
329.888
329.66
329.455
329.403
329.561
329.573
329.694
329.821
329.875
329.809
329.602
329.418
329.132
328.805
328.557
328.37
328.305
328.299
328.541
324.651
324.527
324.355
324.17
324.102
324.257
324.254
324.373
324.468
324.501
324.47
324.281
324.117
323.889
323.636
323.411
323.254
323.218
323.233
323.398
319.207
319.112
319
318.866
318.798
318.91
318.904
319.003
319.055
319.091
319.102
318.938
318.795
318.62
318.436
318.255
318.105
318.12
318.103
318.231
313.741
313.661
313.627
313.523
313.456
313.536
313.528
313.604
313.635
313.655
313.697
313.545
313.456
313.314
313.195
313.051
312.937
312.963
312.969
313.047
308.259
308.219
308.204
308.151
308.087
308.143
308.147
308.181
308.199
308.202
308.232
308.151
308.096
308.005
307.93
307.857
307.774
307.792
307.807
307.863
302.768
302.751
302.757
302.733
302.705
302.743
302.737
302.733
302.751
302.752
302.755
302.748
302.713
302.684
302.657
302.648
302.599
302.611
302.618
302.641
341.741
341.455
340.992
340.826
340.687
340.776
340.871
340.82
341.139
341.08
340.968
340.714
340.573
340.153
339.822
339.493
339.269
339.16
339.285
339.527
336.287
336.038
335.619
335.506
335.373
335.45
335.529
335.495
335.775
335.716
335.622
335.381
335.239
334.898
334.617
334.324
334.157
334.032
334.152
334.35
330.787
330.58
330.221
330.162
330.012
330.069
330.143
330.116
330.355
330.289
330.232
329.994
329.9
329.599
329.365
329.126
328.984
328.875
328.974
329.132
325.234
325.09
324.824
324.75
324.618
324.665
324.723
324.698
324.889
324.818
324.833
324.572
324.502
324.267
324.094
323.89
323.779
323.678
323.777
323.894
319.676
319.544
319.369
319.314
319.206
319.237
319.254
319.239
319.379
319.353
319.361
319.135
319.065
318.921
318.786
318.61
318.536
318.453
318.536
318.621
314.073
313.968
313.86
313.832
313.76
313.761
313.781
313.756
313.851
313.841
313.857
313.684
313.63
313.538
313.439
313.3
313.249
313.198
313.258
313.305
308.461
308.391
308.319
308.321
308.288
308.264
308.291
308.256
308.325
308.314
308.341
308.228
308.186
308.121
308.084
307.984
307.967
307.932
307.976
308
302.841
302.816
302.789
302.796
302.787
302.774
302.778
302.762
302.789
302.791
302.784
302.761
302.743
302.717
302.716
302.673
302.672
302.649
302.686
302.691
342.561
342.151
341.617
341.599
341.367
341.415
341.374
341.354
341.6
341.476
341.452
341.215
341.118
340.704
340.254
340.065
339.916
339.726
339.899
340.116
336.956
336.606
336.144
336.12
335.958
335.951
335.917
335.911
336.142
336.02
336.021
335.809
335.737
335.36
334.966
334.798
334.666
334.505
334.636
334.845
331.302
331.033
330.657
330.607
330.505
330.478
330.45
330.441
330.632
330.545
330.567
330.376
330.313
329.995
329.656
329.502
329.379
329.265
329.368
329.57
325.635
325.415
325.144
325.081
325.001
324.975
324.98
324.949
325.095
325.026
325.072
324.906
324.855
324.579
324.306
324.187
324.059
324.006
324.067
324.259
319.981
319.799
319.615
319.531
319.484
319.444
319.48
319.434
319.559
319.499
319.534
319.403
319.365
319.128
318.925
318.834
318.74
318.737
318.764
318.936
314.284
314.17
314.072
313.958
313.933
313.908
313.944
313.917
313.99
313.959
313.981
313.879
313.848
313.655
313.548
313.464
313.401
313.418
313.44
313.584
308.591
308.541
308.469
308.381
308.378
308.351
308.39
308.373
308.418
308.398
308.402
308.335
308.327
308.194
308.138
308.085
308.049
308.068
308.068
308.176
302.878
302.854
302.852
302.806
302.809
302.801
302.811
302.802
302.824
302.82
302.821
302.79
302.792
302.746
302.728
302.718
302.7
302.716
302.696
302.741
)
;

boundaryField
{
    hotSide
    {
        type            fixedGradient;
        gradient        nonuniform List<scalar> 
400
(
252.624
254.581
258.497
264.316
271.833
280.755
290.767
301.581
312.957
324.706
336.683
348.782
360.923
373.051
385.124
397.116
409.007
420.788
432.456
444.015
243.043
245.193
249.441
255.717
263.777
273.271
283.839
295.164
306.987
319.112
331.395
343.729
356.042
368.284
380.422
392.434
404.31
416.046
427.644
439.115
238.807
241.336
245.929
252.513
260.839
270.563
281.325
292.803
304.738
316.929
329.229
341.535
353.774
365.902
377.891
389.729
401.41
412.939
424.325
435.584
239.56
242.639
247.603
254.374
262.739
272.398
283.033
294.345
306.082
318.046
330.09
342.107
354.028
365.812
377.438
388.902
400.207
411.366
422.396
433.32
243.909
247.636
253.017
259.97
268.314
277.806
288.173
299.151
310.505
322.045
333.626
345.146
356.542
367.779
378.849
389.756
400.519
411.159
421.702
432.176
250.273
254.683
260.541
267.755
276.164
285.556
295.691
306.331
317.259
328.293
339.298
350.182
360.896
371.425
381.778
391.979
402.059
412.056
422.004
431.936
257.351
262.444
268.835
276.418
285.034
294.478
304.522
314.933
325.497
336.037
346.428
356.599
366.529
376.232
385.748
395.129
404.428
413.695
422.976
432.308
264.144
269.888
276.84
284.881
293.843
303.51
313.641
323.982
334.301
344.416
354.209
363.639
372.726
381.532
390.142
398.643
407.113
415.62
424.216
432.939
269.863
276.173
283.655
292.183
301.574
311.593
321.964
332.394
342.606
352.392
361.639
370.344
378.585
386.492
394.203
401.844
409.521
417.312
425.275
433.447
273.877
280.591
288.481
297.416
307.205
317.593
328.264
338.872
349.082
358.641
367.437
375.51
383.01
390.134
397.078
404.002
411.03
418.249
425.716
433.464
275.736
282.609
290.677
299.809
309.808
320.408
331.267
341.998
352.22
361.645
370.157
377.828
384.858
391.496
397.971
404.465
411.112
418.001
425.19
432.711
275.245
281.979
289.923
298.947
308.852
319.366
330.148
340.808
350.965
360.333
368.795
376.418
383.403
389.995
396.424
402.876
409.487
416.351
423.528
431.052
272.528
278.831
286.361
294.987
304.509
314.662
325.121
335.531
345.556
354.941
363.573
371.484
378.82
385.781
392.563
399.34
406.244
413.373
420.794
428.547
268.048
273.69
280.601
288.651
297.643
307.321
317.384
327.519
337.438
346.922
355.856
364.234
372.137
379.701
387.078
394.414
401.833
409.435
417.291
425.449
262.567
267.409
273.608
281.041
289.514
298.771
308.524
318.482
328.388
338.044
347.33
356.209
364.712
372.924
380.956
388.925
396.945
405.113
413.505
422.17
257.136
261.122
266.608
273.482
281.54
290.51
300.093
309.999
319.979
329.843
339.465
348.79
357.819
366.603
375.222
383.775
392.367
401.092
410.03
419.231
253.113
256.261
261.087
267.488
275.236
284.025
293.525
303.434
313.503
323.54
333.423
343.084
352.509
361.729
370.807
379.828
388.893
398.098
407.526
417.225
252.104
254.516
258.751
264.716
272.157
280.735
290.096
299.928
309.981
320.07
330.072
339.918
349.585
359.091
368.485
377.844
387.264
396.843
406.662
416.77
255.524
257.388
261.097
266.569
273.557
281.727
290.732
300.268
310.096
320.037
329.971
339.826
349.573
359.219
368.802
378.386
388.057
397.903
407.998
418.384
263.83
265.352
268.593
273.488
279.833
287.346
295.73
304.714
314.077
323.653
333.323
343.012
352.685
362.337
371.992
381.699
391.522
401.53
411.782
422.305
)
;
    }
    coldSide
    {
        type            mixed;
        refValue        uniform 300;
        refGradient     uniform 0;
        valueFraction   uniform 0.991591;
        source          uniform 0;
        value           nonuniform List<scalar> 
400
(
300.015
300.014
300.015
300.015
300.015
300.016
300.016
300.017
300.017
300.018
300.019
300.02
300.02
300.021
300.021
300.022
300.023
300.023
300.024
300.024
300.014
300.014
300.014
300.015
300.015
300.016
300.016
300.017
300.018
300.018
300.019
300.019
300.02
300.021
300.021
300.022
300.023