/*--------------------------------*- C++ -*----------------------------------*\
| =========                 |                                                 |
| \\      /  F ield         | OpenFOAM: The Open Source CFD Toolbox           |
|  \\    /   O peration     | Version:  2212                                  |
|   \\  /    A nd           | Website:  www.openfoam.com                      |
|    \\/     M anipulation  |                                                 |
\*---------------------------------------------------------------------------*/
FoamFile
{
    version     2.0;
    format      ascii;
    arch        "LSB;label=32;scalar=64";
    class       volScalarField;
    location    "./ITHACAoutput/true/19";
    object      error;
}
// * * * * * * * * * * * * * * * * * * * * * * * * * * * * * * * * * * * * * //

dimensions      [0 0 0 1 0 0 0];

internalField   nonuniform List<scalar> 
3200
(
0.429318
0.970309
1.08193
1.37348
1.5776
1.11869
1.55584
0.777811
1.37695
1.25903
0.0320624
1.19631
0.746287
0.596201
0.99458
0.215431
0.593192
0.461057
0.615136
-0.935382
0.391379
-0.691706
0.471617
1.61867
1.10478
1.77823
2.40939
1.37349
1.6271
1.94016
0.697834
0.442654
0.618946
0.961754
1.56916
0.692512
0.271206
1.05764
0.0662411
-0.253451
-0.0119587
0.522167
1.15258
1.36262
1.81942
1.421
0.295191
0.63518
1.15288
0.0834276
0.282248
1.25036
0.00314455
0.924958
0.549865
1.96913
0.334544
0.288874
0.473563
-0.169596
-0.284191
0.263027
1.25114
0.408091
1.43687
0.510738
-0.138521
0.553988
0.796733
1.19105
0.703704
0.951385
1.33494
0.48596
0.81935
0.823431
0.526494
-0.172373
0.264203
0.223939
-0.0451841
0.555202
0.327087
0.446397
1.44526
-0.0779422
-0.303591
0.459783
1.12687
0.10761
0.30707
0.0690283
0.720023
0.449731
0.381937
-0.221808
0.273983
0.80205
-0.316998
-0.886931
-0.416006
0.483214
0.619032
0.517033
1.45243
0.932256
-0.211174
1.13412
1.11591
0.0863911
1.50374
0.989708
0.369962
-0.255386
0.141191
0.478264
-0.20969
1.95035
-0.365111
0.0426521
-0.254273
1.08669
0.0339845
1.09195
0.471253
0.0464647
1.33338
0.160104
0.561151
0.160572
-0.0147003
0.249399
0.58049
0.191427
0.986566
0.538195
0.0930731
-0.0831065
-0.439057
-0.497172
-0.222819
0.327929
0.0620018
-0.400766
0.931875
-0.282904
-0.367343
-0.864276
0.299714
0.137999
-0.783913
0.849413
0.305048
0.602772
0.294661
0.0591596
0.365369
-0.0822752
-0.00582084
0.0468903
-0.569076
0.464171
1.53795
1.19539
2.87151
1.27494
1.26928
1.76432
1.25349
1.72491
-0.0271679
0.194118
0.290584
0.462152
0.733797
0.938268
0.224459
0.402731
-0.461395
-1.04201
-0.938979
0.453135
1.90169
0.512698
1.36644
0.154017
1.36881
-0.224916
0.628775
0.0964526
0.150994
0.831103
-0.123447
0.320465
0.260587
2.05755
0.0732679
1.11704
-0.0743428
-0.858922
0.270815
1.16183
0.204935
1.65966
0.943139
1.36349
1.50986
1.22738
1.52711
1.19702
-0.481246
1.30738
0.49763
1.82706
0.831531
0.772304
0.549642
-0.109302
0.532055
-0.682016
-0.702891
0.089692
-0.0806708
0.828627
1.89223
0.581423
1.85452
0.505189
1.08518
0.133795
0.824023
0.184669
0.17979
0.887206
0.0742958
1.21288
0.309099
0.259732
0.351873
-0.644372
0.54456
0.0610003
0.227742
0.206051
0.708029
0.871714
0.0489913
-0.306857
0.147848
0.0639039
1.49675
0.0838164
0.101941
0.485801
0.294388
0.19896
1.10678
-0.721707
0.167891
-0.0461107
0.409253
-0.106051
-0.377085
1.05788
0.64785
1.49604
-0.00228582
0.449746
0.480966
-0.396669
0.116554
0.880322
0.49117
0.24203
0.87573
-0.21739
0.356394
-0.354668
0.322677
0.360015
0.139224
0.496526
0.154341
0.139767
0.936423
0.760826
0.130522
0.73996
0.196773
0.152705
0.0392442
0.359837
-0.111811
0.181849
0.70461
0.0514575
-1.29195
-0.488467
0.249688
-0.0136433
-0.29403
0.80876
-1.06478
1.17666
0.537524
0.467247
0.517707
0.5586
0.520427
0.588109
-0.120387
0.289373
0.0117693
-0.158641
-0.601926
-0.432945
0.592469
-0.819987
-0.100357
0.429243
0.492493
0.226348
0.394046
1.168
1.81113
1.23336
1.46496
0.599747
1.64605
1.52025
0.563283
0.975489
1.0209
0.445981
0.910408
0.372857
0.640796
1.05158
0.122795
-0.18341
0.393572
0.526473
0.656182
1.03791
1.46451
-0.0810023
1.30727
1.30765
0.995178
0.361778
0.48996
0.448046
0.819467
0.835044
0.67755
1.71155
-0.580582
0.515012
0.0911387
-1.16751
-1.2533
1.01754
0.197434
1.47816
1.26769
0.444004
0.281971
1.12907
1.06531
-0.22823
0.308112
0.2494
0.798727
0.14641
0.128834
0.238884
0.803464
0.0761032
-0.130633
0.0519625
0.337043
-0.231522
-0.292432
0.0863147
0.185255
1.13486
0.512536
0.811698
0.40655
0.678713
0.0164455
0.74813
0.109243
0.00365273
-0.505204
1.12209
-0.164439
-0.34316
-0.315815
-0.887784
-0.0462701
0.496854
-0.164423
0.869374
0.6354
-0.060696
-0.299834
0.115698
0.656179
0.699339
0.622683
0.615434
0.833295
-0.0791453
0.918897
-0.302954
-0.695057
0.0651079
-0.363663
-0.093935
-0.0807071
0.721765
-1.19411
1.54338
0.72249
0.617566
0.90855
-0.151937
0.684504
0.848
0.648804
-0.0341088
0.328438
1.37686
0.646387
0.0444838
0.327235
-0.190212
-0.10212
-0.0529423
-0.251834
0.378558
0.614113
0.265277
0.839986
0.568583
0.225044
-0.153661
0.188536
-0.431706
-0.488178
-0.0833864
0.431259
0.465116
0.434754
0.367144
-0.663936
0.304772
-0.316497
-0.494498
-0.0878947
-0.314267
0.168864
-0.1368
0.618111
0.696815
0.801412
0.301082
0.543791
-0.564624
-0.110805
0.438097
-0.321433
0.0154816
0.613274
0.421354
0.379892
0.416944
0.419219
0.146707
-1.06831
0.597547
0.16062
0.567107
2.12305
1.33619
2.11831
0.80049
0.937233
0.0981308
0.420322
1.1486
0.802747
0.748513
1.44108
0.863499
1.09208
1.20238
0.591491
-1.05852
0.580973
-0.332977
-0.0741378
0.349896
0.722362
-0.172232
1.31236
0.161913
0.712481
0.041227
0.0760098
0.262314
-0.056596
0.518034
-0.340825
-0.268863
0.145644
0.439709
-0.126059
-0.0438669
-0.721625
-0.106242
0.396135
0.810777
0.179694
1.54489
0.497608
-0.476102
-0.0406756
0.981251
-0.0142496
0.32089
1.0821
0.6673
0.353916
-0.242442
0.309737
0.516661
-1.0862
-0.817901
-0.0816028
0.578436
0.483302
0.146836
0.966939
1.14606
1.56694
0.951888
-0.237313
-0.112995
0.97148
-0.0506823
0.0689222
-0.136966
-0.624024
0.997898
0.192093
-0.522973
-0.000114298
-1.15035
-0.217714
0.323776
0.0679554
0.0329889
0.368765
-0.261086
1.19654
0.194791
0.0351061
0.217287
0.288611
0.447557
-0.245286
-0.129837
0.133733
0.0466131
-0.437515
-0.0523526
0.0622477
-0.301668
0.562952
0.121509
-0.00830815
0.0124831
0.15039
0.138242
-0.164564
0.662792
-0.286614
0.230618
0.150752
-0.800699
-0.724535
0.398672
0.76813
0.242434
-0.187286
-0.139009
0.209819
-0.189034
-0.964906
0.16678
0.199258
0.138904
1.02328
0.979189
0.160783
-0.285034
-0.0623124
1.16636
0.248125
0.401279
-0.500702
-0.0607621
0.258275
0.480669
-0.495214
0.0844064
0.383013
-0.506395
-0.430854
0.805999
-0.109099
0.686583
0.106705
-0.335249
0.437962
0.120641
-0.919385
0.734083
0.311072
0.348045
-0.267529
0.518788
-0.637584
-0.665484
0.0890322
-0.490037
-0.0781925
0.419257
-1.62326
0.117331
0.556215
1.28134
1.71602
1.14754
1.30726
0.569615
0.568878
0.0475447
0.406017
0.123088
0.143902
0.917772
-0.0333293
0.253857
-0.254241
0.0376928
-0.2716
-0.797984
0.502027
0.603211
0.842617
-0.311705
0.677314
0.848058
-0.289061
0.551968
0.574192
0.450586
0.570453
-0.0553336
-0.232119
0.0374297
-0.250965
0.529838
0.375375
0.628327
0.187251
-1.44374
-0.294014
0.325574
1.05157
0.386426
0.458584
0.823235
0.232505
0.66855
-0.20727
0.351852
0.0430428
0.140659
0.302537
0.051216
-0.0715914
0.588997
0.975994
0.256881
0.0649295
-0.989448
-0.0584739
0.431036
0.412194
-0.500336
0.326761
0.506922
0.127912
-0.773988
-0.756464
0.106049
0.253048
0.375687
0.141446
-0.179801
0.838281
0.0288506
0.111319
0.619068
-0.503348
-0.808033
0.187203
-0.181732
0.464597
0.862301
0.220503
-0.146098
0.155202
0.781959
-0.260736
1.01081
0.574756
-0.687223
-0.850278
-0.0350188
0.36066
-0.57938
0.633284
0.583023
-0.745452
-1.11458
0.389825
0.503857
0.76193
1.17843
1.24692
0.235331
0.44611
-0.0313056
0.244034
-0.0175405
-1.04375
-0.0717363
0.944956
-0.19876
0.337598
0.666707
-0.657085
-0.267454
-0.320567
-0.944382
0.116603
0.740487
-0.470247
-0.0399077
-0.340238
0.613336
0.0929999
0.220164
-0.307915
-0.0856149
-0.923793
-0.191369
-0.447417
0.377425
0.139458
-0.302737
0.412776
0.582532
-0.622551
-0.833797
-0.306858
-1.05009
0.567208
0.614211
0.448203
0.0918825
0.631364
0.265364
-0.125073
0.408792
-0.113662
-0.0788748
-0.0577453
-0.945161
0.496051
0.0660512
0.960945
-0.0612692
-0.325838
-0.585893
-1.22653
-0.120161
0.148971
-0.457813
0.683275
0.14199
0.38323
0.93203
0.32373
-0.0647004
0.410648
-0.281393
-0.24408
-0.0544208
0.562203
-0.171383
-0.168071
0.417544
-0.45974
-1.62031
0.0362259
-0.415242
0.780509
0.215212
0.192245
-0.0284704
0.607337
-0.252007
-0.673572
0.102182
-0.0366802
0.0911865
0.0405108
0.1218
0.242442
-0.131466
0.143417
-0.456725
-0.172167
-0.482882
-0.468407
-0.159802
-1.02313
-0.161466
0.459286
0.779816
0.127666
-0.0472881
-0.00423455
-0.0106456
-0.0751934
-0.235301
0.140956
-0.298122
-1.12633
-0.276046
-0.0671652
0.0467936
-0.406277
-0.518444
-1.28573
0.330481
1.04022
0.663793
0.409532
-0.042603
0.68384
0.119737
0.355875
-1.02622
-0.0112352
0.04104
0.171624
-0.709602
-0.281903
-0.181389
-0.488572
-0.248171
-0.589094
-0.338762
-0.700972
-0.686156
-0.15818
-0.259014
0.0159125
0.515364
0.513457
0.0683791
0.167522
0.128685
-0.444073
-0.0155861
-0.546248
-0.194313
0.145044
0.765577
0.688703
0.0259188
-0.122079
-0.55036
0.0139208
0.176667
-0.614727
-0.28889
0.325742
0.345664
-0.219412
-0.0481391
0.359223
-0.152213
-0.0707574
-0.303239
-0.161527
-0.219263
0.719929
0.43764
-0.671863
0.40975
-0.721027
0.0550306
-1.47011
-0.511329
0.162472
0.0751827
0.777035
0.46157
-0.030607
-0.0125663
-0.898094
0.427576
0.31019
-0.564381
-0.0758648
-0.422388
0.29741
0.613469
0.0371559
-0.793822
0.206763
0.0599226
0.476247
-0.432851
0.583481
-0.156505
-0.465774
0.613291
0.89457
-0.487927
1.05024
0.210012
-0.352813
0.214468
-0.246048
-0.175277
-0.1838
0.622801
0.126261
-0.502927
0.765966
-0.39864
-1.07736
-0.530294
-0.526885
-0.601651
-0.210606
0.4826
1.1055
-0.29398
0.192841
-0.0929869
0.491628
-0.326922
-0.395492
-0.0322608
-0.926983
-0.358395
0.180478
-0.0536856
-1.39616
-0.306511
-1.52812
-1.06656
-0.240132
0.019453
0.199906
0.194132
0.325081
-0.6672
-0.583372
-0.175025
-0.0301074
-0.507988
0.255156
-0.59923
-1.00379
0.537983
0.0799242
0.180869
-0.322151
-0.965086
0.0822245
-0.103069
0.458729
0.572784
0.437202
0.0911197
-0.0668342
-0.0623879
-0.0819407
-0.67489
0.273155
0.110395
-1.39007
-0.260273
-0.809589
-0.156197
-0.697641
-0.344354
-1.27138
0.42003
-1.49052
-0.905736
-0.154718
0.477791
-0.507698
0.0307803
0.129214
0.104374
1.14664
-0.358379
-0.594793
-0.879007
-0.573395
-0.404466
-0.157271
0.698371
-0.05204
-0.841553
-0.894343
-0.145142
-1.00541
0.907786
-0.807776
0.251398
-0.192934
0.16964
-0.603946
0.73688
0.0141887
-0.586345
0.251803
-0.375495
-0.970382
-0.783837
-0.213315
0.465869
0.460113
-0.557269
0.642989
-0.738121
-0.706811
-0.18867
-0.902148
-0.132519
0.0481065
0.0700798
-0.625645
0.349279
-0.24269
0.624966
-0.279073
0.506942
0.123348
-0.133741
-0.241901
-0.0139801
0.0897778
-0.60166
-0.0418978
-0.994222
-0.180804
0.352006
-0.0125138
0.0361552
-0.395883
-0.551403
0.0615261
0.10204
0.450642
-0.389231
0.378535
-0.426275
-0.0992067
0.64594
0.571246
-0.0516416
-0.593666
-0.0339637
-0.0734751
0.542223
-0.0619146
-0.143029
-0.438578
-0.989453
-0.000273852
0.386329
0.531124
-0.231115
-0.150097
-1.0332
-0.0750061
-0.0720135
-0.032796
-0.0381
-0.119051
-0.19355
1.8504
0.66394
0.219069
-0.221973
-1.57838
-0.798352
-0.493956
-0.613072
0.319361
-0.210301
0.861555
-0.622928
-0.831312
0.405117
-1.06375
-0.344425
-0.876981
-0.921255
0.60185
-0.0739998
0.0465403
-0.476236
-0.969129
-1.12555
-1.25243
0.265923
-0.285023
-0.262885
0.457791
0.287317
-0.445345
-0.28505
-0.451933
-0.260688
-0.212277
-1.01659
-0.134949
0.525013
-0.141257
0.343842
0.117041
0.252345
0.372856
-1.96788
-1.06639
-0.794805
-0.577951
-0.33407
0.466667
0.0310995
0.897335
-0.295106
-0.545021
-0.981172
-0.819027
-0.773314
-0.85946
-0.0208235
-0.812447
-0.0683605
-0.694482
-0.310151
-1.0523
-0.228251
-1.32139
-0.858257
-0.914498
0.274186
0.0363956
0.859291
0.598387
-0.882736
-0.689587
-0.69671
-0.711199
-1.08351
-0.180259
-0.0543787
0.0237436
-0.180018
-0.105551
-0.866434
-0.647825
-0.635883
0.0181151
-0.400406
-0.823406
0.493077
0.0566691
-0.542838
-0.171741
0.695586
-0.537089
-0.146445
-0.568094
-0.120347
-0.723901
-0.149225
-0.867689
0.758703
-0.0439812
-0.768138
-0.723095
0.372255
-0.33395
-0.0297584
0.349295
0.164708
0.709399
-0.441007
0.1952
-0.029868
0.052015
0.406315
-0.380703
-0.24908
0.10349
-0.0761432
-0.316671
0.161095
0.283445
0.135189
-0.415437
-0.837904
-0.0820119
-0.493421
-0.392564
-0.00203878
0.99968
-0.680016
0.0680804
0.20709
-0.660645
0.023425
-0.564664
-0.425062
-0.0722557
-0.108243
-0.600384
-0.187245
-0.57041
-0.611049
-0.2038
-0.0787361
-0.883827
-0.526343
-0.136657
0.0725106
0.141342
-0.445627
0.249787
-0.987637
0.43247
0.900843
-0.0936523
0.21501
-0.882685
-1.11705
0.853042
-0.507189
-0.668614
-0.627838
-0.179155
-0.192449
-1.56435
-0.883248
-0.880219
-0.56772
-0.255816
0.280026
-0.273473
0.0182615
-0.43352
-0.911316
-1.22526
-0.501344
-0.505077
-1.20383
-1.01091
0.419742
-0.303603
-0.0693869
-0.257586
-1.94017
-1.69439
-1.23772
-0.0779128
-0.916427
0.268361
-0.273526
0.132934
-0.668619
-0.680779
-1.10896
-0.854989
-0.932553
-0.932915
-0.771853
-0.506745
-0.151462
-0.292052
-1.59117
-0.87093
-0.702835
-1.24094
-0.308188
-0.693643
-0.308152
-0.0776164
0.454878
-0.744865
-0.557143
-0.458859
-0.85303
-0.914396
-1.08997
-0.170441
-0.353518
-0.177367
0.0837063
-0.479408
0.291113
-1.21773
-1.15652
-1.42201
-1.06526
-0.117071
-0.0690485
-0.152076
-0.0532846
-0.99169
0.584007
-0.623517
-0.631156
-0.682099
-0.0735624
0.112426
0.190124
0.0769234
-0.350114
-0.77864
-0.745704
0.0290743
-0.835874
-0.0246067
-0.701572
-0.431574
0.624078
-0.181285
0.0238178
-0.0660064
-0.759446
-0.308908
-0.684269
-0.312323
-0.551233
0.448946
-0.619217
0.624844
-0.568912
-0.0733714
0.161064
-0.267954
-2.06338
-0.344333
-0.238689
-0.218057
-0.125584
1.18603
0.151241
0.290424
-0.0511326
-0.342074
0.120686
-0.440973
-0.139703
0.01648
-0.723382
0.473798
-0.067412
-1.38112
0.421778
0.223318
-0.452535
0.281084
-1.01938
0.171863
0.256807
-0.690802
-0.979818
0.100321
-0.446241
-0.755196
0.687192
-0.783041
-0.452842
-0.0863332
0.563558
-0.421352
0.317356
0.0737069
0.490458
-0.0870157
-0.870985
0.213147
-0.0413638
0.356613
-0.307603
-0.611014
0.612655
0.644105
0.55184
0.993943
0.161664
-0.506065
0.22106
0.306398
0.154563
0.395037
0.118272
-0.76319
-0.282216
-0.191369
-0.46605
-1.83319
-1.93142
-0.802073
-0.627617
-0.375589
0.140535
-0.582558
-0.822358
-0.695641
-1.3055
-0.657338
-1.0877
-0.831931
-0.563404
-0.257384
-0.261477
0.15741
-0.99866
-1.18771
-0.55555
-1.38853
-0.211308
-1.14376
0.401721
0.136696
0.38067
-0.426276
0.191419
-0.83194
0.135023
0.0249509
-1.11108
-0.154094
-0.70752
-0.158857
-0.565593
-0.300818
-0.803709
-0.268879
-1.53733
-0.583423
-0.901152
0.28453
-0.144455
0.62357
-1.01967
-0.353632
-1.15031
-0.72409
-0.25355
-0.344274
-1.18302
-0.52813
-0.0257153
-1.29572
-0.645185
-0.835711
-0.671728
-1.81682
-1.23287
-0.476811
-0.270364
-0.916459
-0.871681
-0.153705
-0.0772395
0.0426209
-0.487039
-0.0465226
-0.634109
-1.03241
-0.721224
-0.526228
-0.354633
-0.519073
0.0867603
-1.27116
-0.85039
-1.09888
-0.484914
-0.866843
-0.0573774
0.042619
-0.0332523
-0.190718
-0.277667
0.30951
0.119747
-0.341115
0.176592
-0.889592
-0.96284
-0.888822
-0.101022
-0.53094
0.215093
-0.862419
-0.194096
-0.59547
-1.13431
-0.31768
0.198331
0.194502
-0.0380079
0.412148
0.0609372
-0.660756
0.184017
0.110956
0.287953
0.73698
-0.251105
-0.712626
-0.0806348
-0.391832
-0.267045
-0.67782
0.0325082
-0.23432
-0.991267
-0.806675
-0.0996858
-1.14408
-0.289408
0.166525
0.347226
0.07628
-0.536814
0.0104125
0.491852
-1.11181
-1.0413
0.186046
0.093657
0.274502
-0.499099
-0.639727
0.0581083
-0.239054
-0.038062
-0.784272
0.623756
-0.0911254
-0.0205037
0.75332
0.410348
-0.403133
0.434541
0.257507
-0.411671
0.198873
-0.0685956
-0.0433478
0.164928
0.920257
0.345419
-0.0830215
0.0109308
-0.29228
-0.424111
-1.76726
-1.19068
-1.33316
0.337297
-0.814605
-0.339243
-0.496739
-1.17973
0.15568
-1.00847
-1.74354
-0.482015
-2.23342
-0.561475
0.157156
-1.16516
-1.02053
-0.114455
-1.18604
-1.40083
-2.14013
-0.0956182
-0.74032
-0.17904
-0.831778
0.0721745
0.223265
-0.0566596
-1.10213
0.14037
0.0874265
-0.264482
-0.0206033
-0.662785
-0.153247
-0.396815
-0.0369356
-0.64499
-0.339479
-0.778911
-1.6367
-1.06215
-0.527545
-0.264962
-0.311807
-0.563055
-0.184031
-0.440305
-0.857928
-0.104085
-0.826594
-0.625354
-0.535029
-0.00478315
-0.214615
-0.395558
-1.11825
0.0073098
-0.720255
-0.639191
-0.658176
-0.5615
-1.35144
-0.377952
-0.226573
-0.854011
-0.31193
-0.382646
-0.357374
0.0572055
-1.01849
-1.23998
-0.392787
-0.359112
0.191787
-0.69748
-0.917289
-0.742466
-0.290782
-0.490937
-0.38648
-0.997603
-0.653703
-0.149869
-0.464637
-0.951509
-0.402593
0.388199
0.225174
-1.22333
-0.479671
-0.256211
-0.612808
-1.24874
-0.654519
-1.1741
-0.171693
0.3161
-0.232368
-0.535338
-0.765115
-0.898963
-0.0491113
-0.370198
0.207477
-0.0118727
0.125127
-0.836328
-0.640452
-0.245012
1.05798
-0.456846
0.0998303
-0.0165265
-0.433553
-0.114778
-1.24858
0.478828
-0.376739
-0.601195
0.353212
1.52108
-0.664308
0.178303
-0.169939
0.87519
-0.743438
-0.172983
-0.109492
-0.0918916
-1.00552
0.469721
0.390331
-0.2376
-0.957884
0.137904
-0.346571
-0.127851
-0.185805
-0.0968282
0.295626
-0.0314941
-0.0145512
-0.852362
0.127129
-0.346256
0.438049
0.103522
0.223891
-0.861056
-0.419
-0.935721
-0.491526
-0.110504
0.938307
-0.414559
0.192139
-0.0652618
0.321959
-0.122429
-1.95737
-1.3676
0.0628438
-1.64482
0.0843183
-0.39431
-0.519414
-0.668081
-1.57418
-0.656053
-0.385821
-1.34136
0.112956
-1.26507
-0.325726
-0.334678
-0.375409
-0.16194
-0.804871
-1.59584
-1.69951
-2.02465
-1.16757
-0.719929
-0.702913
-0.444733
-0.223778
-0.650059
-0.649631
-1.03052
-0.6872
-1.50248
-1.61289
-0.875361
-0.0717286
-0.13258
-0.0788392
-0.43799
-1.21828
-0.575294
-2.08447
-1.46701
-0.199322
-0.258239
-0.809172
-0.563305
-0.400094
-0.46793
0.218896
-0.142228
-1.40482
0.0323207
0.253812
-0.151542
-1.71318
0.227401
-0.625942
0.157908
-0.934502
-0.853379
-1.90245
-1.70944
-0.845919
-0.22017
-1.18426
-0.473832
-1.77259
-1.10242
-0.523196
-0.806781
-0.259757
-0.590647
-1.04455
-0.813761
-0.416314
-0.959178
-0.216942
-1.06105
-0.437341
-1.20308
-1.35425
-0.942809
-0.536812
-0.264019
-0.368126
-0.17696
-0.786997
-0.610075
-0.72162
-1.0612
-1.32563
-1.15614
-0.544113
-0.488431
-0.683316
-0.0615364
-0.896064
-0.349093
-1.322
-0.811936
0.129109
0.198479
0.053026
-0.197567
0.273575
-1.35944
0.327323
-0.263756
0.257794
-0.570828
-1.7406
0.121889
-0.777037
-0.542277
-0.266126
-0.271981
0.446465
-0.10244
0.269022
-0.0163153
-0.721904
-0.914823
-0.464138
-0.175396
-0.125953
0.168346
-0.414407
-1.19478
0.190326
0.0551514
-0.890704
0.174317
0.326531
-0.71357
-0.294098
-0.0963584
-0.293746
-0.637097
0.165072
-1.10077
-0.294289
0.455763
-0.392673
0.371898
-0.223422
-0.235206
-0.705262
0.79405
0.190029
-0.266224
0.197671
0.239343
-0.356346
0.26366
-1.2178
-0.0285145
-0.218116
-0.371476
-0.362369
-0.414637
-1.84914
-1.50566
-1.87733
-0.751824
-0.528131
0.216033
-1.00771
-1.64683
-0.616515
-0.776894
-0.484976
-0.900248
-0.404709
0.2525
0.872804
-0.370411
-0.463981
-0.207918
-1.28976
-1.16119
-1.85868
0.0168476
-1.17601
-0.250637
-0.517377
-0.0180442
-0.647335
0.359737
-0.637899
0.0204924
0.299146
-0.610128
-0.295267
-0.603507
-0.126584
-0.207543
0.0432195
-0.292292
-0.233061
-1.32688
-2.27189
-2.03659
-1.01838
-1.05461
-0.247311
-0.657775
-0.589136
-0.0439017
-0.139336
0.243198
-1.01443
-1.1027
-0.363006
-0.661909
0.566664
-0.832956
-0.212403
-0.185303
-0.664569
-0.508135
-2.08546
-0.856368
-0.262911
-0.793461
-0.568056
-0.511789
-0.0585044
-0.360091
-0.500897
-0.439317
-0.17454
-1.85037
-0.83345
-0.536048
-0.0351625
0.490471
-0.108186
-0.565615
-0.868739
-0.432631
-1.18676
-0.872144
0.125737
0.904888
-0.868906
0.0891106
-0.138149
-0.202901
0.603394
-0.117149
-0.172723
-0.489003
0.103359
0.245873
-0.173935
-0.410831
-0.801512
0.320056
-0.901108
-0.870675
-0.88864
-0.4778
-0.838916
-0.347742
-0.0672823
0.0158629
-0.20927
-0.747975
-0.106867
-0.42394
0.244452
-1.41968
0.702629
-0.399687
-0.916201
-0.0288749
0.546301
-0.357634
-0.0763181
-0.608
-0.562109
0.0100756
0.367274
-0.0229177
0.222693
0.0350849
-0.48214
0.567835
0.175618
-0.573748
0.662723
-0.477749
0.089352
0.0547715
0.195625
0.532441
-0.345051
-0.319713
-0.23722
-0.786114
0.704895
1.23336
-0.576387
0.294991
-0.158319
-0.142848
-0.607069
0.228957
0.257134
0.0766395
0.100958
0.0876013
-0.436001
0.264462
0.222454
-0.406236
-0.652246
0.214527
0.243543
-0.349221
-2.05937
-1.99589
-1.43368
0.243223
-1.39506
-1.57855
-0.356546
0.0688661
-1.14556
-0.62263
-0.635406
-0.615907
0.398401
-1.31385
-0.35327
0.0852145
0.182259
-0.274669
-0.426826
-0.227444
-1.37289
-1.26463
-1.30292
-1.05495
-0.848724
-0.736897
-0.596236
-0.205971
-0.118929
-0.560764
-0.540004
-0.660549
-0.837691
0.0808735
0.40931
0.552635
-0.18737
-0.624709
-0.794708
-0.432095
-0.881927
-0.931095
-0.741609
-0.976074
-0.270064
-0.471391
-0.547735
-0.246307
-0.851867
-0.238575
-1.21716
-0.566078
-1.04523
-0.580483
-0.323401
-1.30489
-0.440142
-0.524966
-0.322622
-0.432487
-0.481963
-1.50153
-1.5624
-0.959004
0.368158
0.17797
-0.726999
-0.677265
-0.506324
-0.532162
0.0828855
0.237208
-0.623578
-0.302754
-0.271529
-0.187973
0.628558
-0.572495
-0.239435
-0.902628
-1.34279
-1.72139
0.123618
-0.345099
-0.103159
-0.572151
-0.318494
-0.830061
-0.316691
0.32046
0.159291
0.207598
-0.436289
0.276317
-0.0854923
0.283311
-0.150849
-0.0107864
0.115634
-0.79678
-0.208664
-0.653982
0.316163
-0.515535
-0.434385
-0.324867
0.277121
-0.121249
0.0443983
0.240394
0.102711
-1.00805
0.217551
0.0904619
-0.450076
0.764677
-0.16626
-0.449311
-0.850541
-0.439515
-0.941269
-0.124066
0.28429
0.563344
0.560409
-0.253115
-0.100036
0.920697
-1.05065
0.263686
-0.320019
-1.19823
-0.633621
-0.14733
-0.610179
0.0775574
0.520223
0.271087
-0.0680355
-0.406275
-1.03338
0.37703
-0.0604627
-0.389196
0.312385
0.867268
0.286919
0.146664
-0.98102
-0.338516
0.176107
-0.645682
0.884976
0.0334189
0.784296
0.296091
0.657464
0.485426
0.566694
0.617963
-1.4506
-1.35095
-0.665852
-0.274948
-0.281757
-0.187437
-0.290802
-1.14805
0.220109
-0.520065
-0.346468
0.0137553
0.38691
-0.134909
0.604425
1.03523
0.238916
1.06735
-0.120864
-0.278433
-1.34016
-0.318678
-0.892363
0.383302
-0.299641
0.0216046
-0.761886
0.295812
-0.719397
0.235447
-0.156433
-0.205336
0.0962092
0.711935
0.0315942
0.052424
0.172069
0.291843
-0.0770855
-0.489378
-1.93506
-1.08035
-0.299864
-0.661974
-0.8459
-0.334262
-0.402097
-0.772114
-0.35769
-0.923597
-0.891351
-0.0926554
0.000528006
-0.841705
-0.391527
0.3503
-0.273117
-0.337587
-0.493721
0.430117
-0.916046
0.202392
-0.926088
-0.779786
-0.968693
0.657081
-0.33863
0.123217
0.304185
-0.814642
-0.260854
-0.320011
0.330746
-0.226663
-0.134115
0.161498
-0.843022
-0.871156
0.534076
-0.967753
-0.670771
0.291102
-0.805164
-0.332167
-0.258849
-0.572775
-0.506737
-0.162893
0.422167
1.22854
-0.846558
0.472294
-0.638318
-0.0290061
-0.73806
0.328776
-0.137286
-0.935082
-1.28072
-0.733981
-0.138776
-0.260643
-1.43666
0.481499
-0.0797174
-0.649488
-0.476239
0.122275
0.0405931
0.593015
0.743951
-0.556847
1.44296
0.259221
0.0421036
-0.0931531
-0.46707
0.659781
0.31762
0.0580654
-0.866932
-0.562572
-1.32502
0.211784
0.0717881
-0.436545
-0.716451
0.789755
-0.351737
-0.635093
-0.783168
0.350715
-0.487379
-0.539709
-0.39347
-0.542687
0.496309
-0.664392
-0.724058
0.198589
0.0890766
-0.587792
0.166838
0.160378
0.194879
0.315893
0.422127
-0.107482
0.531762
-0.206774
0.720829
0.751651
0.422815
-0.141509
0.582341
0.118614
-0.90102
0.409158
-0.0446068
-0.90278
-1.27225
-0.75986
-0.830694
-0.473648
-0.59293
-0.489956
-0.0959092
0.538989
0.290121
0.269187
0.27125
-0.542696
0.829818
0.370704
1.15684
0.924311
0.212189
1.36445
1.1755
0.0220236
-0.80664
-1.12332
-0.347082
-0.368648
-0.104558
-0.0395868
0.377413
0.029146
-0.192844
0.342676
-0.0788259
0.223796
0.0861227
0.717603
0.266788
0.585082
0.0289779
-0.133562
0.0792822
-0.381551
-1.79067
-0.816232
-0.784267
0.360761
-0.429097
-0.852858
-0.0512511
0.155153
0.58817
-0.517206
0.00472684
0.243795
0.458093
-0.47064
0.00502789
0.486073
-0.247632
0.497465
-0.0391459
0.423211
-0.58061
-0.318339
-1.32778
-1.23349
-1.17707
-1.12962
0.188987
0.339222
0.512295
0.167928
-0.0899013
-0.377677
0.516525
-0.649363
-0.43491
0.103606
0.180179
1.02376
0.485887
-0.860816
-1.92113
0.375086
-0.667933
-0.9177
-0.844141
-0.291733
-0.144856
1.60087
-0.495625
0.173866
0.973009
-0.100994
-0.232378
-0.26544
0.0986165
0.054768
-0.163228
0.648897
0.14905
0.189268
-0.489349
-1.09873
-0.925952
-0.830126
0.298103
-0.401058
-0.119922
0.341118
1.0123
-0.631589
0.232294
0.026141
0.00279912
-0.878695
0.0952952
0.398964
0.102884
-0.517027
-0.00578212
-0.0782875
-0.697555
-0.751477
-0.0215213
0.0225471
-0.246069
-0.606485
0.180652
-0.479672
-0.248299
0.231186
-0.788052
-0.448994
-0.0132379
-0.276407
0.358577
-0.260086
-0.314314
0.342256
0.0761636
0.174605
-0.884586
-0.0207697
0.474601
0.0290278
-0.0482297
0.0562553
0.349956
0.465407
0.207929
-0.0400051
0.110188
0.234063
-0.549441
0.416793
-0.546428
0.75718
-0.117339
-0.354021
-0.118785
0.195066
-1.34634
-1.07432
-0.682569
-0.961853
-0.374086
-0.799214
1.04838
1.10095
0.137183
0.404133
0.687965
0.598584
0.743368
1.33703
0.532118
0.351137
1.14742
0.703787
0.699687
0.858688
-1.26414
0.0773794
-1.48668
0.0160733
1.06853
0.269471
1.22848
-0.211539
0.155914
-0.297848
-0.218708
0.0296263
0.0736984
0.800485
0.0274738
0.948805
0.167784
0.52352
-0.120383
-0.202149
-1.38457
-1.04084
-0.560766
-0.836796
0.843258
-0.596659
-0.451012
-0.103865
0.135165
0.76169
-0.196657
-0.00160673
-0.189676
-0.55218
1.29707
0.45966
0.953871
0.163769
0.581948
0.0787605
-0.280217
-1.16811
-0.932671
-0.572318
-0.725554
-0.463322
0.0855359
0.506543
0.16031
-0.490448
0.444783
0.207797
0.641123
0.405733
0.322514
0.196936
0.960109
-0.217684
-0.136447
-0.721028
-0.569412
-1.22766
-0.0898228
-0.803069
0.453016
0.195163
-0.377044
0.135976
0.225505
0.675403
0.737615
0.271324
-0.229879
0.633835
0.0114126
-0.378575
0.65257
-0.148306
0.193793
0.117542
-0.606384
-0.665101
0.579084
-0.434581
0.217826
0.397925
-0.32078
-0.124197
-0.114356
-0.730494
-0.145944
-0.276551
0.661102
0.0813344
0.342002
-0.159996
0.879029
-0.475623
1.09721
-0.600473
0.682988
-0.693353
-0.162117
0.0955176
-0.00726738
-0.141339
0.0677553
0.181946
0.211487
-0.730527
-0.437831
-0.210751
0.611032
0.580214
-0.801925
0.486639
0.783332
-0.00172552
-0.116637
1.04893
0.626523
-0.0890338
-0.851271
0.553843
-0.283171
-0.181458
-0.104788
-0.429163
0.351918
0.296604
-0.346932
0.104191
0.498283
-0.330074
-0.46265
1.01091
0.242988
-0.229915
0.465252
0.403046
-1.15807
-0.582592
0.0433151
-0.174976
0.582049
1.47283
1.1003
1.11772
0.653856
1.13692
1.38447
0.777595
0.842801
1.24674
2.20097
1.68836
0.843539
2.7249
1.02047
0.331415
-0.897838
-1.04781
0.230014
0.34202
0.599438
0.646329
0.894805
0.781017
1.18516
0.455879
1.12196
0.949224
1.36315
1.12786
1.20595
1.75693
1.7573
0.585773
0.960448
0.743055
0.0224082
-0.387554
-0.667891
-0.406719
-0.650307
0.318921
0.634393
-0.123709
1.5235
0.845775
0.674526
0.932305
1.06971
1.2788
1.20701
0.466098
0.669656
1.95499
0.708554
0.271389
-1.03438
-0.520744
0.428715
0.0953639
-0.735163
0.456994
0.102488
0.792368
0.400734
0.167318
0.379154
-1.13956
0.833684
1.10901
1.21028
1.16937
1.38731
1.85746
0.971455
-0.342335
-0.967773
0.633615
-0.324511
-0.472961
-0.814017
0.787654
0.0855268
0.267054
0.25266
0.881158
-0.107135
0.255627
1.65974
0.327117
0.0915419
0.564413
0.0151385
0.77636
0.692518
-0.248252
-0.994441
-0.0306246
-0.0876194
-0.36188
-0.0299492
-0.644229
0.133965
-0.594059
0.756638
0.50858
-0.307018
-0.0117312
0.556647
0.00786006
-0.0332354
-0.207627
0.23753
1.5533
0.446901
0.864445
-0.124156
-0.464736
-0.311667
-0.472584
0.985697
0.27108
-0.131158
0.33696
-0.0997752
0.0218451
0.418234
0.667969
-0.132691
-1.14653
-0.00752698
0.659319
0.626782
0.137429
0.748852
-0.373738
0.173487
-0.962891
0.539628
0.537511
-0.352507
0.257004
-0.193165
0.515762
1.24651
-0.152089
-0.687135
0.193977
-0.409467
0.0279584
-0.07399
-0.306222
0.0219993
-0.256255
-0.34333
0.0975842
-0.247661
0.20914
-0.0752519
0.310798
1.33326
0.919743
0.289657
1.99937
1.5657
1.56623
2.15915
1.88221
1.97558
1.86163
2.94783
1.84813
2.80228
1.67313
1.30412
0.632403
-0.768977
-0.257579
1.03276
0.140449
-0.0491809
0.222948
0.773221
-0.0861698
0.468754
0.0581447
0.226687
1.14392
0.0261744
1.83259
0.510415
1.86353
0.474981
1.00556
-0.140613
0.728811
0.0342788
-0.226117
-0.066167
0.0668848
0.0410818
0.724616
-0.109314
0.780464
0.590965
0.426353
0.878362
1.06379
2.02684
1.41369
1.5224
1.46918
1.54948
0.979125
-0.13128
0.865305
-0.403483
-0.612712
0.0604612
0.0469859
-0.18344
-0.0462384
0.420332
0.820109
0.796323
0.238101
1.77041
0.584258
0.937554
0.814082
0.591521
1.30257
0.95855
0.646204
0.295624
0.290306
-0.270857
-0.393704
0.0726224
-0.399023
0.567972
0.856328
-0.178182
0.866729
0.768462
0.962533
0.255781
0.994541
0.867654
0.952914
0.812155
1.28214
1.00685
0.698035
0.693548
-0.211483
-0.155711
0.323959
-0.447463
-0.397447
0.606963
-0.0355592
-0.635319
0.212375
0.0523704
0.0467133
0.517761
0.392054
0.122537
0.736914
-0.252049
-0.228139
-0.0872801
0.773921
0.439225
-0.30087
-0.54317
0.767528
0.500442
0.482397
0.0417674
-0.120287
0.350712
-0.641094
0.0500918
0.936129
1.04826
0.188797
-0.21056
0.0500759
-0.214421
-0.245858
-0.252918
-0.180082
0.960931
0.483909
0.211652
-0.607962
-0.554844
0.429634
-0.370021
-0.0563979
0.600413
0.24878
-0.259852
0.473804
-0.479153
-0.624274
-0.938764
0.225756
0.22078
0.0704437
0.609452
0.00999219
-0.0744076
-0.0711595
-0.291528
0.167508
0.483043
1.272
0.962432
0.755898
0.682803
1.47515
1.50558
2.31026
2.18274
1.74321
1.93845
2.06908
3.57259
1.89956
2.92669
2.09245
1.35656
1.98902
0.277487
0.0719161
-0.0697184
1.08913
1.15514
1.5389
1.15157
1.03196
1.18863
0.783483
0.87498
1.86318
1.11347
2.10166
2.4364
2.33315
2.58554
1.44085
1.31343
0.709343
-0.53443
-0.157727
0.396651
-0.232782
0.392612
0.922583
1.56308
0.944324
0.764416
0.311522
1.25461
0.657964
1.70365