/*--------------------------------*- C++ -*----------------------------------*\
| =========                 |                                                 |
| \\      /  F ield         | OpenFOAM: The Open Source CFD Toolbox           |
|  \\    /   O peration     | Version:  2212                                  |
|   \\  /    A nd           | Website:  www.openfoam.com                      |
|    \\/     M anipulation  |                                                 |
\*---------------------------------------------------------------------------*/
FoamFile
{
    version     2.0;
    format      ascii;
    arch        "LSB;label=32;scalar=64";
    class       volScalarField;
    location    "0";
    object      relativeErrorField;
}
// * * * * * * * * * * * * * * * * * * * * * * * * * * * * * * * * * * * * * //

dimensions      [0 0 0 1 0 0 0];

internalField   nonuniform List<scalar> 
3200
(
0.00135376
0.00305786
0.00340707
0.00432163
0.00495972
0.00351406
0.00488351
0.00243985
0.00431721
0.00394652
0.000100502
0.00375083
0.00234096
0.00187137
0.0031242
0.000677281
0.00186647
0.0014519
0.00193856
0.00294953
0.00124307
0.00219584
0.00149618
0.0051315
0.0034998
0.00562914
0.00762205
0.00434256
0.00514232
0.0061304
0.00220497
0.00139897
0.00195692
0.00304249
0.00496731
0.00219379
0.000859774
0.00335532
0.000210285
0.000804994
3.82595e-05
0.00166987
0.00368385
0.00435254
0.00580803
0.00453338
0.000941209
0.00202429
0.00367291
0.00026574
0.000899037
0.00398346
1.00215e-05
0.00294921
0.00175422
0.00628595
0.00106862
0.000923295
0.00151444
0.000542588
0.000915896
0.000847403
0.00402899
0.0013135
0.00462239
0.00164221
0.000445188
0.00177974
0.00255886
0.00382471
0.00225973
0.00305555
0.00428864
0.00156181
0.00263451
0.00264896
0.0016946
0.000555085
0.00085119
0.000721717
0.0001467
0.0018021
0.0010613
0.00144786
0.00468568
0.000252597
0.000983526
0.00148908
0.00364874
0.000348392
0.000994154
0.000223509
0.00233191
0.00145697
0.00123779
0.000719126
0.000888643
0.00260241
0.00102893
0.00287961
0.00136074
0.00158027
0.00202393
0.00168996
0.00474601
0.0030454
0.000689661
0.00370303
0.00364298
0.000282008
0.0049087
0.00323099
0.00120797
0.000834049
0.00046123
0.00156279
0.00068539
0.00637667
0.00119404
0.000139513
0.000837975
0.00358087
0.000111969
0.00359703
0.00155209
0.000153007
0.0043901
0.000527067
0.00184714
0.000528529
4.83863e-05
0.000820949
0.00191098
0.000630267
0.00324875
0.00177257
0.000306595
0.000273811
0.00144678
0.00163847
0.00073989
0.00108887
0.000205864
0.00133058
0.00309372
0.000939155
0.0012194
0.00286885
0.00099483
0.000458048
0.00260197
0.00281942
0.00101257
0.00200092
0.000978187
0.000196403
0.00121306
0.000273177
1.93278e-05
0.000155703
0.00179411
0.00146253
0.00484222
0.00376062
0.009026
0.00400425
0.00398346
0.00553354
0.00392959
0.00540613
8.51483e-05
0.000608547
0.000911377
0.0014504
0.00230466
0.00294926
0.000706132
0.00126799
0.00145378
0.00328511
0.00298181
0.00143825
0.00603207
0.0016251
0.00432807
0.000487486
0.00432965
0.00071103
0.00198696
0.000304729
0.000477045
0.00262632
0.000390256
0.00101365
0.000824794
0.00651708
0.000232238
0.00354321
0.000235965
0.00272759
0.000866295
0.00371494
0.000654922
0.00530066
0.00301036
0.00434939
0.00481362
0.0039112
0.00486465
0.00381246
0.00153275
0.00416471
0.00158576
0.0058249
0.0026525
0.00246508
0.00175546
0.000349302
0.00170125
0.00218166
0.00226502
0.000288929
0.000259752
0.00266677
0.00608666
0.0018693
0.00595965
0.00162283
0.00348495
0.000429607
0.00264589
0.000593048
0.000577542
0.0028511
0.000238865
0.00390141
0.000994773
0.00083631
0.0011335
0.00207645
0.00176786
0.00019798
0.000738886
0.000668256
0.00229532
0.00282486
0.000158703
0.000993733
0.000478688
0.000206878
0.00484547
0.000271373
0.000330128
0.00157371
0.000953989
0.000644999
0.00358945
0.00234151
0.0005449
0.000149694
0.00133856
0.000346801
0.0012328
0.00345754
0.00211681
0.00488685
7.46474e-06
0.0014684
0.00157009
0.00129479
0.000380452
0.00287376
0.00160365
0.000790391
0.00286059
0.000710308
0.00116483
0.00115952
0.00105519
0.00117751
0.000458804
0.00163609
0.000508488
0.000460396
0.00308405
0.00250531
0.000429725
0.00243589
0.0006477
0.000502619
0.00012917
0.00118444
0.000368072
0.000598713
0.00232019
0.000169472
0.00425569
0.00160929
0.000822743
4.49606e-05
0.000976336
0.00268541
0.00353533
0.00390655
0.0017845
0.0015511
0.00171852
0.00185418
0.00172741
0.00195204
0.000399585
0.000960495
3.90663e-05
0.000526606
0.00199819
0.00143731
0.00196702
0.00272255
0.000333227
0.00142532
0.00155206
0.000712912
0.00124019
0.00367314
0.005691
0.00387241
0.00459619
0.00188049
0.00515882
0.00476342
0.00176495
0.00305724
0.00320101
0.00139923
0.00285843
0.00117161
0.00201518
0.00330965
0.00038676
0.000578005
0.0012494
0.00167047
0.00208071
0.00328884
0.00463732
0.000256312
0.00413389
0.00413286
0.00314406
0.00114272
0.0015476
0.00141551
0.00258995
0.00264061
0.00214394
0.00541956
0.00183971
0.00163307
0.000289179
0.00370628
0.00400795
0.00325267
0.000630776
0.00471973
0.00404526
0.001416
0.000898758
0.00359715
0.00339289
0.000726758
0.000981127
0.000794311
0.0025447
0.00046667
0.00041087
0.000762288
0.00256544
0.00024314
0.000417581
0.000166172
0.00108584
0.000745639
0.000941388
0.000277726
0.00059578
0.00364791
0.00164676
0.00260698
0.00130538
0.00217895
5.2797e-05
0.00240216
0.000350862
1.17361e-05
0.00162394
0.00360863
0.000529098
0.00110469
0.00101711
0.00286015
0.000150183
0.00161227
0.000533361
0.00281903
0.00205954
0.00019666
0.000971144
0.000374629
0.00212424
0.0022637
0.00201557
0.00199233
0.0026982
0.000256347
0.0029773
0.00098197
0.00225379
0.000211199
0.00118007
0.000304894
0.000263936
0.00235995
0.00390341
0.00504373
0.00236041
0.00201707
0.00296671
0.00049602
0.00223431
0.00276776
0.00211761
0.000111336
0.00107223
0.0044959
0.0021112
0.000145331
0.0010694
0.000621779
0.000333901
0.000173137
0.000829837
0.00124728
0.00202308
0.000873761
0.00276624
0.00187215
0.000740877
0.000505811
0.000620551
0.00142086
0.00160672
0.000274459
0.00141959
0.00153123
0.00143149
0.00120908
0.00218685
0.00100402
0.0010428
0.00162946
0.000291849
0.00104347
0.000560655
0.000454173
0.00205199
0.00231314
0.00266022
0.000999374
0.00180493
0.00187405
0.000367773
0.00145411
0.00106692
5.13899e-05
0.00203582
0.0013988
0.00126123
0.00138432
0.00139194
0.000487133
0.00336474
0.00188097
0.000505239
0.00178249
0.00666775
0.00419325
0.00664299
0.00250882
0.00293612
0.000307349
0.00131646
0.00359827
0.0025159
0.00234733
0.00452242
0.00271194
0.00343254
0.00378218
0.0018619
0.00333391
0.00184336
0.00105599
0.000234972
0.00110821
0.00228632
0.000544757
0.00414833
0.000511535
0.00225011
0.000130174
0.000240001
0.000828422
0.000178805
0.00163749
0.001078
0.000850966
0.000461292
0.00139361
0.000399778
0.000139184
0.00230668
0.000339469
0.00126508
0.00258777
0.000573194
0.00492513
0.00158554
0.00151634
0.000129507
0.00312366
4.53614e-05
0.00102168
0.00344637
0.00212623
0.00112829
0.00077335
0.000988594
0.00164998
0.00347066
0.00261443
0.000262802
0.00186225
0.0015553
0.000472304
0.0031087
0.00368281
0.00503313
0.00305642
0.000761787
0.000362668
0.00311807
0.000162692
0.000221302
0.000439943
0.00200528
0.00320823
0.000617879
0.00168296
3.67977e-07
0.00370471
0.000706457
0.00105035
0.000220377
0.000106942
0.001195
0.000845743
0.00387465
0.000630598
0.000113626
0.0007032
0.000934026
0.00144858
0.000794066
0.000420441
0.000433205
0.000151051
0.00141832
0.000169778
0.000201936
0.000978876
0.00184065
0.000397218
2.71531e-05
4.07868e-05
0.000491245
0.000451443
0.000537268
0.00216344
0.000935408
0.000752599
0.000491963
0.00261321
0.00236498
0.00130159
0.00250841
0.000791906
0.000611932
0.000454316
0.000685908
0.000618071
0.00317915
0.000549444
0.000656342
0.000457465
0.0033695
0.00322381
0.000529271
0.000938169
0.000205078
0.00383844
0.00081657
0.00132066
0.00164802
0.000200019
0.000850326
0.00158277
0.00163094
0.000278028
0.0012618
0.00166846
0.00143057
0.00267607
0.000362211
0.00227935
0.000354224
0.00111285
0.00145373
0.000400426
0.0030515
0.00243643
0.00103245
0.00115518
0.000887973
0.00172202
0.00211644
0.00220918
0.000295573
0.00162693
0.000259614
0.00139206
0.00510859
0.000369052
0.00174831
0.00402454
0.0053857
0.00359887
0.00409699
0.00178418
0.00178113
0.000148828
0.00127095
0.000385385
0.000450737
0.00287632
0.000104526
0.000796726
0.000798542
0.000118477
0.00085429
0.00251134
0.00159178
0.00191172
0.00266884
0.000986631
0.00214246
0.00268081
0.000913216
0.00174294
0.00181246
0.00142203
0.00180033
0.000174663
0.000732959
0.00011825
0.000793329
0.00167596
0.00118816
0.00199011
0.000593442
0.00457766
0.000939269
0.00103969
0.00335639
0.00123271
0.00146206
0.00262319
0.000740492
0.00212833
0.000659642
0.0011196
0.000136963
0.000447652
0.000963126
0.000163115
0.000228122
0.00187784
0.00311344
0.000819906
0.000207346
0.00316093
0.000188225
0.00138705
0.00132586
0.00160865
0.00105009
0.00162832
0.000410704
0.00248429
0.00242743
0.000340258
0.000811902
0.00120555
0.000454004
0.000577312
0.0026927
9.27152e-05
0.000357907
0.0019913
0.00161975
0.00260103
0.000607224
0.000589333
0.00150613
0.00279442
0.00071431
0.000473111
0.000502427
0.00253071
0.000843673
0.00327036
0.00185956
0.00222367
0.00275182
0.000113365
0.00116793
0.00187688
0.00205225
0.00189005
0.0024174
0.00361532
0.00127424
0.00164669
0.00248954
0.00384941
0.00407207
0.000768326
0.00145615
0.000102165
0.000796284
5.72306e-05
0.00340551
0.000234076
0.00308383
0.000648773
0.00110221
0.00217726
0.00214641
0.000873882
0.00104767
0.00308694
0.000384118
0.00243908
0.00154872
0.000131412
0.00112019
0.00201902
0.0003061
0.000724562
0.00101327
0.000281723
0.00303981
0.000629742
0.00147245
0.00124226
0.000459076
0.000996724
0.00135923
0.00191852
0.00205061
0.00274672
0.00101881
0.0034863
0.00188304
0.00203897
0.00148781
0.000304987
0.0020956
0.00088075
0.000415109
0.00135673
0.00037723
0.00026178
0.000191658
0.00313714
0.00164655
0.000219256
0.00319002
0.000203404
0.00108179
0.00194523
0.00385622
0.000377587
0.00046781
0.00143663
0.00214259
0.000444935
0.0012001
0.00291713
0.00101284
0.000202384
0.00128451
0.000880384
0.000763939
0.000170421
0.0017617
0.000537417
0.000527413
0.0013112
0.00144466
0.00509427
0.000114762
0.00131489
0.00247011
0.000680665
0.000607641
8.99332e-05
0.0019174
0.000795227
0.00212479
0.000322278
0.000115688
0.000287649
0.000127835
0.000384529
0.000765834
0.000415534
0.000453593
0.00144541
0.000545178
0.00152975
0.0014953
0.000509947
0.00326332
0.00051473
0.00146335
0.00248331
0.000406356
0.000150456
1.34692e-05
3.38563e-05
0.000239137
0.000748443
0.000448479
0.000948909
0.00358679
0.000879523
0.000214113
0.000149251
0.00129648
0.00165503
0.00413622
0.00106284
0.00334405
0.002133
0.00131539
0.000136779
0.00219463
0.000384143
0.00114146
0.00329115
3.6032e-05
0.000131634
0.000550609
0.00227731
0.000905061
0.000582607
0.00156995
0.000797809
0.00189455
0.0010898
0.00227264
0.00222408
0.000512558
0.000839006
5.15263e-05
0.00166824
0.00166155
0.000221219
0.000541862
0.000416202
0.00143625
5.04145e-05
0.00176721
0.0006288
0.00046951
0.00247902
0.00223087
8.39859e-05
0.000395702
0.00178433
4.54882e-05
0.000577186
0.00200791
0.000943382
0.00106346
0.00112822
0.000715987
0.000157059
0.00117184
0.000496509
0.000230806
0.000989217
0.000526999
0.000715502
0.0023498
0.00142877
0.002194
0.00133838
0.00235565
0.00017982
0.00484188
0.00168392
0.000534983
0.000247523
0.00255783
0.00151916
0.000100723
4.13492e-05
0.00295493
0.00140676
0.00102055
0.00185694
0.000249632
0.00139002
0.000978864
0.00201941
0.000122328
0.00261387
0.000680915
0.000197358
0.00158109
0.00143697
0.00193694
0.000519511
0.00154603
0.00203559
0.00296905
0.00161935
0.00348547
0.000696969
0.00117089
0.000711768
0.000816593
0.000581741
0.000610054
0.00206725
0.000419117
0.00166953
0.00254284
0.00132344
0.0033832
0.00166443
0.00165269
0.00188593
0.000659714
0.00151072
0.00345855
0.000919258
0.000602784
0.000290604
0.00153644
0.00102189
0.00123668
0.000100928
0.00290181
0.00112265
0.000565723
0.000168396
0.00438212
0.000962524
0.00483601
0.0033739
0.000759204
6.14663e-05
0.000631272
0.000612687
0.00102543
0.00210368
0.00183879
0.00055159
9.48831e-05
0.00160118
0.000804507
0.0018902
0.003168
0.00169887
0.000252539
0.000571836
0.00101907
0.0030542
0.000262254
0.000328619
0.00146191
0.00182447
0.00139189
0.00028995
0.000212576
0.00019836
0.000260458
0.00214492
0.000868133
0.000350902
0.00441968
0.000827839
0.00257617
0.000497274
0.00222217
0.00109741
0.00405361
0.00133968
0.00479152
0.0029108
0.000497036
0.00153428
0.00162963
9.87595e-05
0.000414437
0.000334662
0.00367573
0.00114871
0.00190648
0.0028178
0.00183852
0.00129727
0.000504608
0.00224166
0.00016711
0.00270351
0.00287419
0.000466583
0.00325781
0.00294082
0.00261604
0.000813908
0.000624423
0.000548857
0.00195346
0.00238287
4.58744e-05
0.00189558
0.000814047
0.00121404
0.00313795
0.00253532
0.000690167
0.00150777
0.00148963
0.00180476
0.00208299
0.00239171
0.00230865
0.000616153
0.00294557
0.000432582
0.000156997
0.000228655
0.00204092
0.00113919
0.000791444
0.00203796
0.000910033
0.0016532
0.000402303
0.000436277
0.000789271
4.56246e-05
0.000293062
0.00196446
0.000136828
0.00324741
0.000595341
0.00115895
4.11951e-05
0.000119006
0.00130287
0.00181444
0.000202432
0.000335693
0.00148242
0.00128036
0.00124517
0.00140227
0.000326373
0.00212526
0.00187973
0.000169955
0.00195406
0.000111808
0.00024191
0.0017854
0.000205533
0.000474784
0.0014558
0.00328419
9.08927e-07
0.00128218
0.00176266
0.000766984
0.000498105
0.00342866
0.000248908
0.00023898
0.000108838
0.000126444
0.000395117
0.0006424
0.00614184
0.00220385
0.0007272
0.000736863
0.00494964
0.00250235
0.00154733
0.00191924
0.00099913
0.000657528
0.00269224
0.00194566
0.00259567
0.00126471
0.00332084
0.00107542
0.00273917
0.00287879
0.00188175
0.000231511
0.000145696
0.00149182
0.00303763
0.00352959
0.00395872
0.000840199
0.000900079
0.000829713
0.00144406
0.000905826
0.00140336
0.000897876
0.00142313
0.000820778
0.000668356
0.00320124
0.000425075
0.00165441
0.00044534
0.00108462
0.000369402
0.000796886
0.00117806
0.00622015
0.00339773
0.00253153
0.00184002
0.00106308
0.00148432
9.88721e-05
0.00285164
0.000937495
0.001731
0.00311581
0.0026009
0.00245606
0.00273034
6.61751e-05
0.00258295
0.000217433
0.00220998
0.000987428
0.00335166
0.000727251
0.00424423
0.0027559
0.00293544
0.000879763
0.000116734
0.00275502
0.00191787
0.00282842
0.00220909
0.00223167
0.00227808
0.00347102
0.000577578
0.000174287
7.61255e-05
0.000577385
0.000338676
0.00278116
0.0020802
0.00204241
5.86584e-05
0.00129628
0.00266495
0.00159536
0.000183297
0.0017553
0.000555183
0.00224811
0.00173558
0.000473189
0.00183561
0.000388895
0.00233962
0.000482396
0.00280572
0.00245403
0.000142302
0.00248608
0.00234096
0.0012054
0.00109025
9.71379e-05
0.00113995
0.000537415
0.00231414
0.0014383
0.000636505
9.73773e-05
0.000169563
0.00132446
0.00124097
0.000811973
0.000337405
0.000248286
0.00103279
0.000525508
0.000924833
0.000441196
0.00135608
0.00273551
0.000269964
0.00162408
0.00129195
6.70885e-06
0.00328913
0.00223708
0.000223941
0.00068113
0.00217275
7.70381e-05
0.00185701
0.00139795
0.000237653
0.00035605
0.00197512
0.00061607
0.001877
0.002011
0.000670799
0.000259181
0.00293367
0.00174703
0.00045357
0.000240655
0.000469079
0.00147886
0.000828911
0.00327733
0.00143505
0.00298921
0.00031076
0.000713464
0.00292906
0.0037069
0.0028309
0.00168323
0.00221906
0.00208382
0.000594648
0.000638792
0.00489777
0.0027641
0.00275308
0.00177461
0.000799167
0.000874299
0.000853402
5.69628e-05
0.00135186
0.00284133
0.00382015
0.00156336
0.00157547
0.00375668
0.00315627
0.00131127
0.000949022
0.000217022
0.000806107
0.00607441
0.00534822
0.00390528
0.000245713
0.00288863
0.000845448
0.00086129
0.000418401
0.00210365
0.00214134
0.00348766
0.00268892
0.00293327
0.00293519
0.00242935
0.00159566
0.000477168
0.000920565
0.00501807
0.00274798
0.00221845
0.00394916
0.000980463
0.00220583
0.00097951
0.000246606
0.00144464
0.0023647
0.00176819
0.00145594
0.00270631
0.00290099
0.00345842
0.000540924
0.0011223
0.0005633
0.000265956
0.00152387
0.000925758
0.00387405
0.0036805
0.00456293
0.00341729
0.000375432
0.000221348
0.00048733
0.000170691
0.00317577
0.00186973
0.00199584
0.0020201
0.00218315
0.000235469
0.000359938
0.00060885
0.000246416
0.00112194
0.00249608
0.00239137
9.32691e-05
0.00268214
7.96178e-05
0.00226956
0.00139576
0.00201776
0.000585959
7.69638e-05
0.000213237
0.00245294
0.000997597
0.00220963
0.00100855
0.00178017
0.00145005
0.00200042
0.0020191
0.00183887
0.000237223
0.0005209
0.000866822
0.00667631
0.00112353
0.00077871
0.00071126
0.000409549
0.00386702
0.000493018
0.000946563
0.000166629
0.00111462
0.000393223
0.00143679
0.00045521
5.37044e-05
0.00235768
0.0015445
0.000219795
0.00450403
0.00137576
0.000728562
0.00147658
0.000924953
0.00335414
0.00056543
0.00084479
0.00227217
0.00322241
0.000329898
0.0014673
0.00248303
0.00225936
0.00257449
0.00148891
0.000283875
0.00185322
0.00138574
0.00104384
0.000242466
0.00161361
0.000286315
0.00286612
0.000707415
0.000137279
0.00118349
0.00102079
0.00202759
0.00203295
0.00213724
0.00183103
0.00329787
0.00053639
0.00167909
0.000733472
0.00101664
0.000512864
0.00131084
0.000392475
0.00253268
0.000936586
0.000635117
0.00154678
0.0057291
0.00603359
0.00250429
0.00195851
0.0011714
0.000438075
0.00181509
0.00256125
0.00216599
0.00406428
0.00204643
0.00338671
0.00259106
0.00175541
0.000802313
0.000815503
0.000491206
0.00311809
0.00371029
0.00173621
0.00437588
0.000665691
0.00360159
0.00126437
0.000430026
0.00119699
0.00133984
0.000601448
0.00261337
0.000424093
7.83682e-05
0.00349023
0.000484171
0.00222382
0.000499514
0.00177928
0.000946789
0.00253079
0.000847058
0.00484483
0.00185419
0.00286311
0.000903652
0.000458592
0.00197879
0.00323447
0.00112136
0.00364653
0.00229493
0.000803515
0.00109103
0.00374945
0.0016742
8.15426e-05
0.00411014
0.00204738
0.00265308
0.00213337
0.00577234
0.00391822
0.00152829
0.000866369
0.00293582
0.00279142
0.000492051
0.000247184
0.000136357
0.00155781
0.000148779
0.0020277
0.00330134
0.00230647
0.00168316
0.00113457
0.00166115
0.000277742
0.00407068
0.00272417
0.00352132
0.00155426
0.00280233
0.000185455
0.000137719
0.000107423
0.000615956
0.000896547
0.000999134
0.000386484
0.00110081
0.000569838
0.00287059
0.00310717
0.00286869
0.000326111
0.00171433
0.00069468
0.00278608
0.000627202
0.00192468
0.00366701
0.00103591
0.000646644
0.000634048
0.000123876
0.00134302
0.000198533
0.00215239
0.000599346
0.000361352
0.000937733
0.00240001
0.000817777
0.00232104
0.000262665
0.00127659
0.000870189
0.00220916
0.000105972
0.000763984
0.00323239
0.00265349
0.000327881
0.00376265
0.000951692
0.00054754
0.00114156
0.000250758
0.00176455
3.42245e-05
0.00161661
0.00365427
0.00342263
0.000611547
0.000307883
0.000902472
0.00164105
0.00210369
0.000191106
0.000786283
0.000125202
0.00260259
0.00206986
0.000302379
6.80342e-05
0.00249952
0.00136149
0.00133751
0.00144167
0.000854309
0.00136576
0.000659777
0.000227574
0.000143814
0.000547193
0.0030533
0.0011461
0.000275477
3.62714e-05
0.000969899
0.0014074
0.00551194
0.00371219
0.00415437
0.00105054
0.00253588
0.00105556
0.00154495
0.00366788
0.000483902
0.00313423
0.00541875
0.00149825
0.00694392
0.00174629
0.000488996
0.00362716
0.00317854
0.000356662
0.00369772
0.00436906
0.00673264
0.000300706
0.00232722
0.000562569
0.00261239
0.000226586
0.000700658
0.000177757
0.00345692
0.000440234
0.00027419
0.000829573
6.46381e-05
0.00207998
0.000481108
0.00124629
0.000116056
0.00202755
0.00106761
0.00245039
0.00519381
0.00336965
0.00167302
0.000839961
0.000988091
0.00178364
0.000582784
0.00139398
0.00271564
0.000329434
0.0026162
0.00197946
0.00169387
1.51471e-05
0.000679855
0.00125349
0.00354499
2.31818e-05
0.00228499
0.00202838
0.00210699
0.0017971
0.00432405
0.00120891
0.000724488
0.00272997
0.000996864
0.00122259
0.00114167
0.000182735
0.00325343
0.00396127
0.00125499
0.00114765
0.000613074
0.00223025
0.00293403
0.00237559
0.000930661
0.00157162
0.0012482
0.00322136
0.00211039
0.000483711
0.00149927
0.00306958
0.0012985
0.00125186
0.000726054
0.00394428
0.00154656
0.000826131
0.00197618
0.00402761
0.00211149
0.00378853
0.00055415
0.00102048
0.000750339
0.00172897
0.00249319
0.00292898
0.000159987
0.00120576
0.000675646
3.86565e-05
0.000407344
0.00272229
0.00208452
0.00079742
0.00344333
0.00148693
0.000324953
5.3801e-05
0.00141162
0.000373771
0.00406668
0.00155985
0.00122748
0.00195904
0.00116137
0.00500096
0.00218388
0.0005861
0.000558545
0.00287623
0.00244302
0.000568398
0.000359758
0.00030192
0.00330374
0.00154336
0.00128257
0.000780779
0.00314799
0.000453254
0.00113921
0.000420305
0.000610885
0.000318373
0.000980889
0.000104495
4.8278e-05
0.00282787
0.000421758
0.00114869
0.00145317
0.000343409
0.000742694
0.00285628
0.0013899
0.00310398
0.00163052
0.000366581
0.00311279
0.00137533
0.000637457
0.000216526
0.00106824
0.000406219
0.00609128
0.00425439
0.00019541
0.0051121
0.000261939
0.00122441
0.00161226
0.00207306
0.00488357
0.00203504
0.00119679
0.0041613
0.000350504
0.00392677
0.00101144
0.00103969
0.00116677
0.000503546
0.00250383
0.00496622
0.00533613
0.00635503
0.00366336
0.00225792
0.00220366
0.00139372
0.000701047
0.00203593
0.00203418
0.00322652
0.0021516
0.0047047
0.00505143
0.00274231
0.000224786
0.000415643
0.000247264
0.00137424
0.00382399
0.00180631
0.0066038
0.00464641
0.000631097
0.000817356
0.00256023
0.00178172
0.00126512
0.00147928
0.000691885
0.000449513
0.00443995
0.000102159
0.000802381
0.000479187
0.00541875
0.0007195
0.00198118
0.00049997
0.00295982
0.00270359
0.00608191
0.00546375
0.002703
0.000703315
0.00378195
0.00151278
0.00565789
0.00351809
0.00166942
0.0025741
0.000828774
0.00188464
0.00333343
0.00259743
0.00132914
0.00306314
0.000693003
0.00339042
0.00139783
0.0038461
0.00436908
0.0030412
0.00173121
0.000851263
0.00118667
0.000570313
0.00253589
0.0019655
0.00232463
0.00341834
0.00427013
0.0037244
0.00175299
0.00157384
0.00220222
0.000198364
0.00288914
0.00112582
0.00426434
0.00261947
0.000420387
0.000646186
0.00017261
0.000643009
0.000890247
0.00442312
0.00106484
0.000857952
0.000838492
0.00185658
0.0056612
0.000396453
0.00252757
0.00176413
0.000865875
0.00088506
0.00145309
0.000333462
0.000875851
5.31236e-05
0.00237253
0.00300634
0.00152513
0.000576285
0.000413795
0.000553015
0.00136121
0.00392427
0.000625095
0.000181132
0.00292531
0.000572517
0.00107249
0.00234388
0.00096611
0.000316566
0.000965141
0.00209347
0.000542467
0.00361767
0.000976297
0.00151195
0.00130261
0.00123366
0.00074111
0.00078017
0.00233927
0.00263371
0.000630277
0.000882994
0.000655621
0.000793841
0.00118193
0.000874528
0.0040394
9.45849e-05
0.000723534
0.0012323
0.00120212
0.00137555
0.00574047
0.00467262
0.00582362
0.00233122
0.00163691
0.000669314
0.00312099
0.00509896
0.00190849
0.00240471
0.00150114
0.00278682
0.00125307
0.000782022
0.00270412
0.00114806
0.00143869
0.000644979
0.00400258
0.00360479
0.00582347
5.27705e-05
0.00368221
0.000784474
0.00161875
5.64365e-05
0.00202404
0.00112452
0.00199368
6.40406e-05
0.00093486
0.00190689
0.000922986
0.001887
0.000395914
0.000649354
0.000135274
0.000915195
0.000729998
0.00415729
0.00718452
0.00643886
0.00321872
0.00333215
0.00078116
0.00207704
0.00185981
0.000138561
0.000439703
0.0007674
0.00320099
0.00347978
0.00114571
0.00208954
0.00178934
0.00263098
0.000671112
0.000585673
0.00210109
0.0016069
0.00665701
0.00273308
0.000838864
0.00253101
0.00181153
0.0016317
0.000186484
0.0011476
0.00159614
0.00139982
0.000556146
0.00589634
0.00265618
0.00170867
0.000112106
0.00156411
0.000345097
0.00180469
0.00277257
0.001381
0.00382424
0.00280999
0.000405036
0.0029143
0.00279784
0.000286877
0.000444673
0.000653007
0.00194174
0.000376969
0.0005558
0.00157363
0.000332646
0.000791417
0.000559955
0.00132286
0.00258137
0.001031
0.00290331
0.00280568
0.00289102
0.00155426
0.00272857
0.00113086
0.00021877
5.15714e-05
0.000680269
0.00243118
0.000347331
0.00137781
0.000794471
0.00461413
0.00228379
0.00129925
0.00297864
9.38873e-05
0.00177657
0.0011632
0.000248259
0.00197801
0.00184641
3.30941e-05
0.00120624
7.52618e-05
0.000731257
0.000115199
0.00158296
0.00186419
0.000576527
0.00188348
0.00217557
0.00156838
0.000293341
0.000179825
0.000642319
0.00174838
0.00113315
0.00105003
0.000779168
0.00258222
0.00233807
0.00409084
0.00191172
0.000978374
0.00052507
0.000473747
0.00201325
0.000759288
0.000852717
0.000254153
0.000334799
0.000290506
0.00144591
0.000877051
0.000737756
0.00134729
0.00216326
0.000711531
0.00080779
0.00115833
0.00637622
0.00617776
0.00443591
0.000752252
0.00431306
0.0048786
0.00110158
0.000212713
0.00353777
0.00192265
0.00196211
0.00190207
0.00123058
0.00405927
0.0010918
0.000263455
0.0005637
0.000849844
0.00132113
0.000704213
0.0042915
0.00395205
0.00407036
0.00329458
0.00264964
0.0022998
0.0018603
0.000642501
0.000370926
0.00174881
0.00168407
0.00206017
0.00261307
0.000252331
0.00127743
0.00172528
0.00058515
0.00195161
0.00248352
0.00135069
0.00278347
0.002938
0.00233943
0.00307816
0.000851433
0.00148576
0.00172598
0.000775992
0.00268345
0.000751479
0.00383389
0.00178319
0.003293
0.00182917
0.00101931
0.00411393
0.00138803
0.00165602
0.00101801
0.00136499
0.00153598
0.00478437
0.00497721
0.00305427
0.00117224
0.000566543
0.00231385
0.00215522
0.00161106
0.00169318
0.000263717
0.00075477
0.00198437
0.000963589
0.000864377
0.000598519
0.00200185
0.00182374
0.000762922
0.0028766
0.00432151
0.00553917
0.000397714
0.00111006
0.000331766
0.00183975
0.00102396
0.00266832
0.00101795
0.00103001
0.00051199
0.000667288
0.0014025
0.000888358
0.0002749
0.000911145
0.000485231
3.47028e-05
0.000372094
0.00256428
0.000678224
0.00212544
0.00102739
0.00167503
0.00141118
0.00105526
0.000900066
0.000393769
0.00014418
0.000780635
0.000333536
0.00327358
0.000706522
0.000293812
0.00146197
0.00248419
0.000540199
0.00146006
0.00276425
0.00142856
0.00309015
0.00040728
0.000933184
0.00184902
0.00183924
0.000830652
0.000328268
0.0030211
0.00344739
0.000865184
0.00105002
0.00393161
0.00207911
0.000483462
0.00200243
0.00025454
0.00170749
0.000889846
0.000223345
0.00133378
0.00342699
0.00125031
0.000200502
0.00129058
0.00103585
0.00287573
0.000951356
0.000486297
0.00325274
0.0011224
0.000583908
0.00214087
0.00293433
0.000110809
0.00260061
0.000981818
0.00218017
0.00160973
0.00187928
0.00204934
0.00447859
0.00416975
0.00205445
0.000848035
0.000868734
0.000577732
0.000896079
0.00353681
0.000677982
0.00160178
0.00106711
4.23693e-05
0.00119196
0.00041571
0.001863
0.00319188
0.0007369
0.00329326
0.000373051
0.000859635
0.00417878
0.000993437
0.00278099
0.00119416
0.000933231
6.72685e-05
0.00237164
0.000920635
0.00223862
0.000732608
0.00048675
0.000638962
0.000299425
0.00221615
9.83721e-05
0.000163274
0.000536071
0.000909509
0.000240304
0.00152595
0.00609434
0.00340181
0.000943965
0.00208332
0.00266147
0.00105144
0.00126455
0.0024278
0.00112457
0.00290358
0.0028022
0.000291306
1.66023e-06
0.00264706
0.00123157
0.00110215
0.000859537
0.00106272
0.00155462
0.00135463
0.00291425
0.000643771
0.00294508
0.00247927
0.00307923
0.00208828
0.00107601
0.000391473
0.000966331
0.00258782
0.000828638
0.00101661
0.00105081
0.000720232
0.000426232
0.00051336
0.00268033
0.00277039
0.0016988
0.00307875
0.00215578
0.000935446
0.00258694
0.00106704
0.000831379
0.00183937
0.00162707
0.000522974
0.00135527
0.0039438
0.00271758
0.00151619
0.00204934
9.31351e-05
0.00237015
0.00105597
0.000441016
0.00300436
0.00411556
0.00235893
0.000450619
0.000846255
0.00466398
0.00156294
0.00025873
0.00210774
0.00154535
0.00039674
0.000131703
0.00192396
0.00241365
0.00180667
0.00468189
0.000841149
0.000136636
0.000302337
0.00151611
0.00214192
0.00103125
0.000188544
0.00284439
0.00184569
0.00434683
0.000694719
0.00023547
0.0014318
0.00234971
0.00259
0.00115348
0.00208268
0.00256826
0.00115013
0.00159836
0.00177005
0.00129052
0.00178005
0.00162806
0.00217959
0.0023755
0.000651568
0.000295343
0.00194885
0.000553145
0.000531713
0.000646079
0.00104725
0.00139941
0.000356313
0.00176281
0.000685463
0.00238957
0.00249176
0.00140167
0.000469124
0.00193058
0.000393241
0.00298722
0.00135655
0.000147896
0.00299326
0.00391605
0.00233827
0.00255543
0.00145659
0.00182284
0.00150583
0.000294693
0.00165577
0.000891122
0.00082676
0.000833098
0.00166692
0.0025492
0.00113903
0.00355542
0.0028416
0.000652535
0.0041974
0.00361729
6.77898e-05
0.00250855
0.00349262
0.00107884
0.00114555
0.000324816
0.000122948
0.0011719
9.04849e-05
0.000598617
0.00106365
0.000244672
0.000694698
0.000267371
0.00222823
0.000828586
0.0018176
9.00468e-05
0.000415154
0.000246503
0.00118658
0.00562688
0.00256438
0.00246338
0.00113287
0.00134714
0.00267695
0.000160836
0.000486829
0.00184532
0.00162259
1.48291e-05
0.000764878
0.00143737
0.00147696
1.57816e-05
0.00152602
0.000777619
0.00156253
0.000122986
0.00132987
0.00184367
0.0010107
0.0042148
0.0039147
0.0037349
0.00358368
0.000599463
0.00107587
0.00162464
0.000532526
0.000285091
0.00119772
0.0016382
0.00205976
0.00137974
0.000328748
0.000571829
0.00324974
0.00154266
0.00273344
0.00616524
0.00120358
0.00214293
0.0029438
0.00270742
0.000935545
0.000464473
0.00513261
0.00158893
0.000557379
0.00311927
0.000323779
0.000745036
0.000851122
0.000316249
0.000175658
0.000523604
0.00208186
0.000478272
0.000607395
0.00158728
0.0035636
0.0030029
0.00269181
0.000966539
0.00130022
0.000388749
0.00110572
0.00328114
0.00204711
0.000752911
8.47304e-05
9.07319e-06
0.00284845
0.000308943
0.00129356
0.000333616
0.00167674
1.87536e-05
0.000253938
0.0022872
0.00246388
7.05578e-05
7.39156e-05
0.000806628
0.00198797
0.000592116
0.00157214
0.000813782
0.000757683
0.00258275
0.00147155
4.33876e-05
0.000905971
0.00117536
0.000852575
0.00103041
0.00112209
0.000249719
0.000572509
0.0029323
6.88481e-05
0.00157318
9.62177e-05
0.000159862
0.00018646
0.00115992
0.00154255
0.000689155
0.000132592
0.000365204
0.000775777
0.00182108
0.00138145
0.00181115
0.00250975
0.00038894
0.00117349
0.000393753
0.000646619
0.00413088
0.00329549
0.00209318
0.00294876
0.00114651
0.00244882
0.00321155
0.00337196
0.000420108
0.00123754
0.00210668
0.0018331
0.00227678
0.00409577
0.00163043
0.00107618
0.00351765
0.00215825
0.00214629
0.00263466