/*--------------------------------*- C++ -*----------------------------------*\
| =========                 |                                                 |
| \\      /  F ield         | OpenFOAM: The Open Source CFD Toolbox           |
|  \\    /   O peration     | Version:  2212                                  |
|   \\  /    A nd           | Website:  www.openfoam.com                      |
|    \\/     M anipulation  |                                                 |
\*---------------------------------------------------------------------------*/
FoamFile
{
    version     2.0;
    format      ascii;
    arch        "LSB;label=32;scalar=64";
    class       volScalarField;
    location    "0";
    object      stateMean;
}
// * * * * * * * * * * * * * * * * * * * * * * * * * * * * * * * * * * * * * //

dimensions      [0 0 0 1 0 0 0];

internalField   nonuniform List<scalar> 
3200
(
316.7
316.346
316.473
316.442
316.505
317.228
317.034
318.017
317.567
317.764
318.991
317.748
318.049
317.994
317.352
317.868
317.222
317.094
316.701
318.064
314.457
315.699
314.741
313.819
314.565
314.12
313.699
314.912
314.787
314.542
315.784
315.971
315.666
315.146
314.329
314.977
315.167
314.155
314.941
315.101
312.58
312.177
311.72
311.7
311.44
312.031
313.334
313.144
312.734
313.862
313.663
312.637
313.776
312.704
312.902
311.29
312.728
312.584
312.225
312.738
310.571
310.129
309.283
310.281
309.413
310.496
311.291
310.72
310.566
310.219
310.706
310.412
309.939
310.666
310.188
310.027
310.163
310.706
310.128
310.063
308.049
307.531
307.868
307.87
306.996
308.641
308.98
308.31
307.712
308.768
308.569
308.77
308.05
308.226
308.181
308.663
308.042
307.393
308.403
308.891
306.137
305.296
305.238
305.426
304.58
305.187
306.411
305.133
305.201
306.257
304.839
305.327
305.897
306.455
305.978
305.554
306.153
303.907
306.144
305.678
303.691
302.384
303.484
302.478
303.153
303.63
302.391
303.605
303.233
303.649
303.825
303.545
303.185
303.533
302.689
303.086
303.477
303.601
303.91
303.934
301.375
300.836
301.117
301.598
300.283
301.515
301.615
302.126
300.972
301.139
302.061
300.423
300.957
300.645
300.937
301.156
300.832
301.261
301.17
301.105
317.76
316.912
316.075
316.676
315.265
317.122
317.368
317.076
317.734
317.34
319.092
318.793
318.549
318.175
317.663
317.199
317.647
317.21
317.837
318.233
315.841
314.606
313.361
314.974
314.35
315.788
314.78
316.549
315.822
316.423
316.368
315.62
316.447
315.829
315.681
313.658
315.414
314.146
315.133
315.761
312.342
311.582
312.711
311.444
312.355
312.126
312.154
312.585
312.392
312.779
314.457
312.612
313.314
311.837
312.657
312.526
312.554
313.025
312.212
313.295
311.027
310.339
310.65
309.894
308.99
310.456
309.325
310.796
310.304
311.301
310.611
311.204
311.121
310.293
310.963
309.669
310.414
310.309
310.077
310.968
307.488
308.053
307.995
308.136
307.758
307.715
308.649
309.099
308.712
308.832
307.399
308.776
308.69
308.212
308.293
308.267
307.235
308.945
307.946
308.079
305.333
305.905
306.253
304.904
305.402
304.64
306.218
305.833
305.85
306.754
306.24
305.451
305.792
305.974
305.26
306.267
305.606
306.231
305.476
305.382
303.31
302.986
303.376
303.441
302.698
302.925
303.603
303.034
303.606
303.665
303.779
303.443
303.886
303.552
302.981
303.583
304.873
304.018
303.233
303.463
301.45
300.359
302.248
300.024
300.68
300.769
300.734
300.706
300.755
300.692
301.4
300.986
301.253
301.411
301.838
301.651
300.609
302.003
301.268
300.727
316.823
317.272
317.337
316.816
316.433
317.266
317.268
318.331
317.429
317.63
318.587
318.1
317.91
318.287
317.589
317.871
317.343
316.679
317.375
317.498
314.616
314.638
314.709
314.546
314.344
316.111
314.925
315.095
315.532
316.231
316.103
316.079
315.584
315.397
315.352
314.097
316.165
314.85
315.073
316.178
313.957
311.814
312.805
311.709
312.109
313.119
313.452
312.75
312.918
314.267
313.731
313.734
313.08
313.588
313.434
313.138
312.384
312.926
312.963
312.652
310.061
310.733
310.931
310.705
310.761
309.963
310.725
310.544
311.034
310.807
311.47
310.693
311.247
311.234
311.603
309.824
310.955
310.982
310.817
311.286
308.137
307.673
308.441
307.526
307.881
308.695
309.043
308.718
308.245
308.237
308.313
308.286
308.001
308.822
307.715
308.819
309.09
308.212
308.534
308.185
305.864
305.117
307.109
304.456
305.364
305.552
305.339
306.465
305.675
305.537
305.736
306.394
305.985
304.871
305.524
306.042
305.672
306.105
305.941
305.836
303.726
303.129
302.939
303.339
302.816
303.137
303.528
303.946
303.632
304.267
304.323
303.904
303.361
303.288
303.271
303.289
304.268
303.248
303.824
303.968
301.253
301.49
301.022
301.345
300.607
300.545
300.457
300.97
300.737
301.851
301.397
300.843
301.592
301.243
300.629
300.804
300.828
300.774
300.757
301.018
318.57
317.083
317.747
317.587
316.283
317.317
316.761
318.27
318.271
319.183
318.861
318.059
318.267
318.13
317.212
317.543
317.062
316.706
317.09
318.561
314.59
315.655
315.592
315.381
315.228
316.335
315.047
316.362
315.931
316.665
316.63
316.381
316.581
315.841
316.504
316.219
315.585
315.078
315.448
315.215
313.563
313.072
312.735
312.5
313.316
312.131
313.344
314.457
314.122
313.154
314.149
313.76
312.899
313.175
313.322
313.738
313.001
312.614
314.052
313.659
310.592
310.033
310.262
310.745
310.076
310.045
309.759
310.487
311.759
311.678
310.594
311.573
311.37
311.463
311.815
310.045
310.7
311.268
310.611
311.66
308.396
307.931
308.292
308.441
308.222
308.967
307.614
308.704
308.928
308.78
308.708
308.515
309.144
308.941
308.572
308.544
308.912
308.412
308.193
308.48
305.282
305.778
305.982
306.044
305.99
306.084
306.462
305.697
306.692
306.198
306.278
307.206
307.085
305.898
305.454
305.898
306.243
306.113
305.69
306.034
304.476
303.377
303.39
303.499
302.665
302.758
303.621
304.105
303.909
302.696
303.614
303.446
304.321
303.843
303.479
303.207
304.133
303.505
303.161
304.017
301.608
300.382
301.312
300.532
301.129
301.588
300.83
301.16
302.209
300.561
300.984
300.942
301.549
300.749
301.891
301.901
301.13
301.693
301.266
300.758
319.375
317.808
317.589
317.101
316.909
317.713
317.771
318.689
318.822
319.412
319.054
319.268
319.115
318.16
318.894
318.371
318.636
318.107
318.197
318.55
314.886
314.931
314.881
316.241
315.462
315.496
316.82
316.136
316.228
316.41
316.291
316.857
316.92
316.494
316.595
315.609
315.554
315.096
315.347
316.832
313.318
312.819
312.253
313.092
313.197
313.006
313.754
313.451
314.423
313.914
314.223
314.075
313.817
313.936
313.901
313.067
312.502
313.048
313.08
314.013
310.717
310.326
310.475
311.529
310.847
310.809
311.317
312.327
312.388
311.567
311.42
311.256
311.412
311.625
310.478
311.145
310.918
310.268
311.26
311.467
308.107
308.551
308.005
307.718
308.472
308.949
308.749
308.206
309.31
308.07
308.506
309.736
309.838
308.939
308.442
309.272
307.947
307.887
309.114
309.409
305.538
305.477
305.291
304.954
304.966
306.056
305.917
306.454
306.222
306.507
307.533
306.538
305.478
306.562
305.953
305.546
306.789
306.32
306.302
306.872
303.444
302.853
304.106
303.723
304.072
303.166
303.729
303.638
304.192
303.984
304.822
304.075
304.305
303.445
303.64
304.035
303.27
303.053
304.216
304.395
301.501
302.254
300.652
300.621
300.803
301.175
300.65
301.028
301.427
300.898
301.421
301.381
301.351
302.226
300.771
301.185
300.274
301.28
301.53
301.78
319.293
318.353
318.295
319.129
318.219
318.984
318.948
318.57
319.302
319.756
319.28
319.907
319.746
319.385
318.564
319.073
318.839
318.026
318.693
319.686
315.624
316.215
315.201
315.964
316.187
316.601
316.143
317.151
317.68
316.96
317.099
316.915
316.858
316.628
316.331
316.51
316.036
316.439
315.972
316.143
313.721
313.53
314.546
313.851
313.4
313.243
314.045
314.345
314.392
314.447
314.511
314.623
314.157
314.471
315.149
314.135
313.757
313.476
313.776
313.771
312.133
310.611
310.026
310.538
310.93
311.517
310.913
311.579
311.417
312.838
311.823
311.732
311.527
312.307
311.756
311.521
311.691
311.314
311.53
311.186
309.141
309.198
308.767
308.974
308.806
308.412
308.509
309.033
308.991
309.06
309.633
309.175
309.647
309.216
308.782
308.056
308.026
308.583
308.634
308.99
306.018
305.907
306.768
306.517
305.979
306.033
306.666
306.552
306.186
306.718
306.637
306.848
306.666
306.666
305.659
305.867
306.9
305.743
306.805
305.977
305.094
304.165
303.534
303.666
303.01
303.37
303.904
303.92
304.829
303.516
303.634
304.495
303.983
304.295
303.535
303.174
303.704
304.49
303.447
303.564
300.739
301.658
300.656
301.411
301.736
300.672
300.403
301.798
300.268
301.112
301.675
301.104
301.556
301.473
301.469
300.647
301.128
301.742
300.459
301.614
319.522
319.134
319.332
319.623
319.45
318.967
318.537
320.096
319.725
320.071
319.486
320.245
320.197
319.674
320.377
319.597
318.841
318.859
320
318.752
317.515
317.189
316.535
316.463
316.471
316.66
316.695
317.825
317.841
317.486
317.341
317.766
316.903
317.619
317.858
316.133
316.402
316.114
316.444
316.952
313.448
313.745
313.329
313.373
313.669
314.169
314.468
314.58
314.684
315.321
314.373
314.492
315.908
314.661
315.07
314.262
314.644
314.132
314.913
313.11
312.565
312.07
311.437
310.933
312.05
311.638
311.654
311.775
310.801
312.342
312.579
312.827
312.452
312.187
311.826
310.844
311.463
312.124
312.058
311.219
309.621
307.777
309.586
308.627
309.173
308.908
309.771
308.504
309.281
309.909
309.071
309.67
310.211
309.951
309.291
308.514
308.418
309.335
308.042
309.354
306.865
306.396
307.175
306.477
306.369
306.417
307.177
306.255
306.885
306.037
306.941
306.135
306.481
306.685
306.729
306.431
306.254
306.875
306.249
307.152
303.88
303.377
303.781
303.775
304.251
304.448
303.873
303.865
303.539
304.391
303.623
304.416
304.066
303.289
303.326
303.907
304.405
303.802
303.802
303.157
301.302
301.393
301.702
302.267
301.292
300.92
300.788
301.561
301.487
302.374
301.416
301.409
301.363
301.357
301.425
301.486
299.428
300.599
301.031
301.462
320.467
319.839
319.725
320.047
319.32
320.046
319.152
320.786
321.1
319.92
321.389
320.613
321.04
320.935
319.234
319.713
319.387
319.707
320.01
320.015
317.624
316.234
316.949
317.102
316.559
316.901
317.787
317.756
318.015
317.872
317.823
318.58
317.606
316.817
317.329
316.673
316.722
316.412
316.127
318.34
314.921
314.757
314.678
314.582
313.931
314.512
313.776
315.077
315.405
315.882
315.72
315.633
315.641
314.694
315.355
314.466
314.942
314.41
315.014
314.083
312.66
312.283
312.451
311.385
311.746
311.041
311.408
312.978
312.849
312.889
312.903
313.243
312.275
312.06
311.876
311.962
311.765
312.403
312.073
311.975
308.805
309.288
309.799
308.577
309.109
309.8
309.513
308.713
309.996
309.631
310.053
309.579
310.133
309.49
310.125
308.407
309.114
309.744
309.611
308.451
306.64
306.382
306.065
306.317
305.841
307.057
306.48
306.754
306.707
306.372
307.159
307.008
306.621
306.751
306.933
306.389
306.199
306.279
306.767
307.144
303.87
304.309
304.246
303.896
302.935
304.654
303.942
303.832
304.721
304.048
304.636
304.485
304.111
304.118
304.574
304.122
304.464
304.464
304.02
303.867
302.154
301.805
301.429
301.232
301.178
301.778
301.094
302.342
300.929
300.464
301.459
301.146
302.237
302.461
300.479
301.826
301.974
301.92
301.458
301.462
320.964
320.426
320.602
320.48
320.359
320.006
320.723
320.569
321.118
321.647
321.961
321.185
321.092
321.654
321.297
319.683
320.216
319.791
319.801
321.34
318.508
318.173
317.167
318.169
317.151
317.851
317.587
318.507
318.603
319.076
318.822
318.855
318.771
318.492
318.084
317.57
317.545
318.68
317.806
317.517
315.47
314.637
315.153
314.906
314.816
314.417
315.738
315.65
315.623
316.054
316.115
316.254
315.263
315.347
315.049
314.654
315.077
314.168
315.547
315.386
313.067
312.79
311.948
312.014
312.212
312.222
313.26
311.765
313.032
313.069
313.12
312.482
312.237
312.078
312.092
312.41
312.724
312.577
311.696
312.481
309.085
309.824
309.636
308.669
309.563
309.443
309.61
310.366
309.961
310.36
309.988
310.203
309.158
310.163
308.842
309.951
309.366
309.043
309.39
311.123
306.819
306.758
306.796
306.767
305.518
306.614
306.53
306.916
307.24
306.794
307.356
307.038
306.849
307.543
306.291
306.771
308.022
306.156
306.296
306.928
303.609
304.935
303.779
303.732
304.718
305.044
303.997
304.57
304.898
303.467
304.937
304.596
304.21
303.533
304.485
303.71
303.915
303.461
304.003
304.761
301.091
301.354
300.967
301.645
301.961
300.749
300.729
300.83
300.395
301.23
301.898
301.168
301.076
301.218
300.967
301.232
302.1
301.606
301.504
301.77
321.811
322.043
321.081
321.084
321.009
320.661
321.536
321.899
321.862
322.518
321.87
322.254
321.909
321.516
321.059
320.894
320.299
321.278
321.3
320.534
318.703
317.638
318.716
317.323
317.741
317.643
318.581
318.072
319.172
318.245
318.355
319.451
318.417
318.863
318.183
318.444
318.026
318.376
317.696
318.851
315.235
315.647
314.582
315.141
314.503
316.27
315.715
316.602
316.241
315.805
315.895
316.7
315.98
315.387
316.546
315.772
315.833
315.539
316.563
315.885
312.467
312.336
313.081
313.143
312.531
312.555
312.526
313.13
312.743
313.358
313.756
313.417
313.169
312.924
312.997
312.29
313.542
313.015
313.165
312.475
310.196
309.444
309.421
309.579
309.82
309.985
309.468
309.716
310.218
309.722
310.789
310.84
310.725
309.879
310.238
309.414
310.408
309.658
309.982
310.463
306.985
306.51
306.568
306.86
306.469
306.876
307.648
306.845
306.947
306.786
306.337
307.309
307.742
307.068
307.329
307.148
307.5
306.73
306.942
307.658
304.812
304.13
305.207
304.387
303.966
303.82
304.121
304.759
304.23
303.757
305.361
305.281
304.036
304.103
303.892
304.632
304.738
304.005
304.269
304.043
302.127
300.727
301.453
301.395
300.633
300.987
301.81
300.98
301.163
301.836
301.225
301.49
301.458
301.242
300.477
301.041
301.457
301.351
301.643
301.767
322.391
321.94
322.238
320.732
322.047
321.725
322.021
322.817
321.562
322.768
323.504
322.2
323.87
322.085
321.229
322.397
322.09
321.019
321.935
322.025
320.013
318.075
318.853
318.434
319.229
318.458
318.427
318.805
319.919
318.714
318.767
319.081
318.769
319.313
318.683
318.794
318.292
318.758
318.318
318.652
316.761
316.274
315.853
315.711
315.877
316.241
315.963
316.302
316.779
316.056
316.779
316.546
316.397
315.784
315.893
315.961
316.564
315.318
315.932
315.763
313.035
313.008
313.891
313.016
312.963
313.682
313.223
313.362
313.384
312.995
314.07
314.267
313.372
313.27
312.636
313.433
313.555
313.282
312.738
312.868
310.015
310.682
310.409
309.982
310.373
310.932
310.447
309.709
309.909
311.377
310.634
310.39
310.71
311.293
310.635
311.082
310.004
309.439
309.916
310.164
307.647
307.819
307.02
307.396
306.873
307.144
307.053
308.051
307.882
307.501
306.198
307.699
307.115
307.195
307.566
307.195
308.275
306.492
307.297
307.483
303.781
302.636
304.851
304.042
304.423
303.409
305.054
304.507
304.459
304.45
305.364
303.88
303.944
304.549
305.242
304.115
304.567
304.315
304.343
304.231
301.09
301.424
301.419
302.267
301.299
301.782
301.007
301.349
301.234
302.322
301.88
302.394
301.945
301.556
300.498
301.841
301.223
301.469
301.071
301.508
323.296
322.824
321.537
323.396
321.817
322.435
322.685
322.937
323.915
323.035
322.765
323.682
322.156
323.431
322.367
322.236
322.126
321.762
322.261
322.935
320.191
320.615
319.883
319.566
319.678
319.542
319.43
319.944
320.007
320.421
320.077
320.859
320.907
320.081
319.169
319.108
318.925
319.153
319.808
319.066
317.731
317.196
316.033
316.203
316.863
316.721
316.649
316.792
316.158
316.547
317.81
316.345
316.07
316.401
317.871
315.827
316.571
315.676
316.664
316.5
314.706
314.579
313.802
313.266
314.32
313.694
315.068
314.459
313.923
314.23
313.683
313.991
314.402
314.109
313.636
314.095
313.263
314.017
313.307
314.007
311.316
310.955
310.616
310.413
310.587
310.462
311.13
311.001
311.146
311.503
311.768
311.58
310.935
310.831
310.968
310.281
311.045
310.428
311.334
310.774
306.99
306.957
307.149
307.451
307.028
308.708
307.064
307.689
307.191
308.033
309.203
307.327
308.202
307.933
307.615
307.574
306.807
307.304
306.886
307.135
304.998
305.213
304.79
304.531
304.512
304.247
304.854
305.655
304.285
304.427
305.373
304.301
304.133
305.154
304.709
304.482
304.65
304.963
304.133
305.377
301.728
300.985
301.843
301.088
301.693
301.715
302.193
300.701
301.31
301.768
301.304
301.261
301.851
301.224
302.698
301.499
301.678
301.821
301.803
301.849
323.972
323.737
324.241
323.255
323.168
322.552
323.889
324.62
323.655
323.849
323.557
323.938
323.378
322.628
321.895
323.01
322.967
322.572
323.521
323.284
321.029
319.245
320.553
319.748
320.132
319.744
320.471
319.544
320.598
319.97
319.691
320.57
320.199
320.428
319.853
319.823
319.454
319.669
319.495
320.497
318.492
318.334
317.411
317.55
316.842
317.347
317.361
316.884
317.026
316.669
317.926
317.99
317.203
317.434
316.122
317.428
316.707
316.578
316.962
316.728
315.358
314.19
313.676
314.289
314.146
314.167
313.782
314.138
314.318
314.277
314.013
315.667
314.611
314.259
313.69
313.088
313.604
313.979
314.203
313.706
311.513
311.245
310.308
309.594
311.432
310.534
310.813
310.921
310.146
310.882
310.938
311.238
310.615
310.429
310.797
310.974
311.301
310.114
311.274
311.197
308.268
307.891
308.295
307.851
307.615
307.575
307.838
308.407
307.788
308.116
307.448
309.101
306.956
308.029
308.507
307.577
306.957
307.814
307.489
307.987
304.995
304.443
304.112
304.53
304.311
304.525
305.064
304.033
304.438
305.195
303.958
305.092
304.512
304.527
304.364
304.002
304.852
304.799
304.69
305.219
300.781
300.26
302.077
301.216
301.678
301.671
302.143
301.313
301.29
301.472
301.448
301.459
301.978
301.272
301.306
301.926
302.163
301.286
301.249
301.835
325.035
325.072
324.633
323.083
324.845
325.145
324.025
323.682
324.955
324.462
324.474
324.425
323.353
324.982
323.919
323.365
323.144
323.474
323.503
323.203
321.281
321.258
321.402
321.264
321.166
321.154
321.102
320.783
320.747
321.215
321.194
321.289
321.415
320.425
320.008
319.764
320.396
320.724
320.788
320.34
317.726
317.846
317.746
318.073
317.458
317.744
317.896
317.655
318.304
317.713
318.691
318.018
318.454
317.928
317.596
318.493
317.537
317.529
317.238
317.276
314.265
315.342
315.474
314.947
313.695
313.955
314.921
314.921
314.785
314.829
314.214
314.042
314.868
314.497
314.405
314.251
313.359
314.484
314.079
314.686
312.066
312.487
310.698
311.227
311.043
311.566
311.36
311.91
311.424
310.802
310.963
310.899
311.516
310.766
311.079
310.657
311.033
310.833
310.65
311.52
307.872
308.347
307.418
308.292
308.251
308.181
307.613
308.039
307.893
307.707
307.844
308.945
307.7
307.8
308.306
307.052
307.942
308.183
308.544
308.103
305.544
304.745
304.361
304.108
304.136
304.972
304.839
303.835
305.819
304.51
305.094
305.966
305.39
304.886
305.329
304.618
304.151
304.374
304.689
305.009
302.576
301.172
301.617
301.955
301.262
300.715
301.302
301.447
302.579
301.939
301.424
302.244
300.709
301.556
300.798
301.278
300.909
301.072
300.982
300.925
325.348
325.34
324.768
324.493
324.613
324.623
324.818
325.749
324.433
325.2
325.026
324.639
324.214
324.662
323.832
323.296
323.979
323.035
324.11
324.175
322.045
321.102
321.772
320.598
321.379
321.148
322.011
321.017
322.077
321.147
321.538
321.563
321.217
320.537
321.138
321.027
320.809
320.588
320.86
321.194
319.452
318.662
317.964
318.411
318.678
318.243
318.379
318.803
318.427
319.013
318.98
318.162
318.03
318.819
318.301
317.482
318.022
318.002
318.076
317.087
315.249
314.183
315.378
315.302
315.559
313.995
315.047
314.629
314.479
315.614
315.06
315.103
314.421
314.935
314.786
314.429
315.365
315.323
313.851
315.301
311.821
310.899
312.047
311.628
311.608
311.971
311.948
311.638
311.078
310.283
312.359
311.028
312.113
311.47
312.136
311.02
311.433
312.177
312.471
311.884
308.107
308.257
309.47
307.591
308.19
308.794
308.651
308.078
308.176
307.633
307.482
308.774
306.757
307.916
308.103
308.203
308.539
307.373
307.678
307.91
305.653
305.366
306.15
304.636
304.799
305.329
305.627
304.135
305.288
305.576
305.724
304.585
305.412
305.451
305.285
305.414
304.352
305.489
305.527
304.587
301.515
302.198
301.45
301.465
301.438
301.324
301.224
301.758
301.123
301.863
300.935
300.903
301.228
301.788
301.058
301.514
302.526
301.208
301.655
302.507
326.153
325.727
325.901
325.65
325.871
325.863
325.551
324.982
325.278
325.323
325.321
326.111
324.691
325.084
324.216
324.354
324.964
323.706
323.791
324.859
322.363
322.751
322.064
322.178
322.003
322.02
321.674
322.08
322.342
321.827
322.249
321.925
322.023
321.333
321.713
321.313
321.78
321.851
321.549
321.938
320.027
319.112
319.155
318.088
318.953
319.446
318.705
318.547
318.149
319.271
318.749
318.493
318.244
319.125
318.588
318.038
318.697
317.874
318.335
317.813
315.501
315.286
316.357
316.326
316.331
316.341
315.072
314.962
314.817
315.175
315.433
315.707
314.784
315.91
315.646
315.05
314.913
314.005
314.482
315.781
313.527
311.268
312.359
312.658
312.632
312.124
312.016
310.301
312.419
311.761
310.962
312.024
312.134
312.136
311.733
311.733
311.903
311.042
311.494
311.417
308.783
309.419
309.279
309.219
308.125
308.856
308.602
308.163
307.508
309.16
308.296
308.494
308.501
309.361
308.36
308.024
308.286
308.87
308.326
308.372
305.68
305.748
305.039
305.016
305.305
305.684
304.914
305.588
305.365
304.891
305.91
305.566
305.121
305.371
304.719
305.319
305.353
304.675
304.921
304.807
302.555
301.696
301.207
301.66
301.744
301.646
301.358
301.247
301.507
301.757
301.607
301.481
302.261
301.291
302.248
300.939
301.806
302.036
301.794
301.475
327.266
327.072
326.775
327.151
326.656
327.166
325.393
325.399
326.405
326.159
325.875
325.943
325.757
325.104
325.835
325.931
325.042
325.388
325.298
325.061
323.716
322.441
324.086
322.667
321.695
322.569
321.674
323.165
322.833
323.306
323.227
322.959
322.879
322.102
322.811
321.815
322.515
322.075
322.638
322.654
320.376
320.087
319.676
320.023
318.411
319.913
319.822
319.518
319.31
318.699
319.658
319.447
319.604
319.923
318.019
318.794
318.232
318.951
318.464
318.912
315.816
316.748
316.569
316.266
316.476
316.264
315.76
315.374
315.746
316.409
315.474
315.698
315.24
315.44
315.478
315.553
314.734
315.854
315.716
316.257
312.653
313.346
312.251
313.009
311.797
312.095
312.701
312.216
312.146
311.707
311.644
312.101
312.582
311.69
312.279
312.629
311.553
312.309
311.924
311.966
309.24
309.323
308.11
309.156
308.534
308.383
309.127
308.95
308.954
309.577
308.993
309.117
308.165
308.725
308.439
308.912
307.842
309.165
307.561
309.234
304.503
305.893
305.381
305.142
305.264
305.415
305.221
305.119
305.098
306.044
305.751
305.52
304.69
304.709
306.076
304.77
304.455
305.221
305.317
304.137
301.111
301.832
302.6
301.202
302.045
301.949
301.878
302.206
301.428
301.484
302.128
301.676
301.279
302.103
302.231
300.751
301.513
301.979
301.278
301.335
328.142
327.639
327.1
327.406
326.733
325.919
326.359
326.394
326.895
326.431
326.184
326.771
326.669
326.212
325.191
325.627
326.387
324.418
326.036
326.653
324.264
324.475
323.272
323.236
323.052
323.072
322.881
323.041
322.669
323.415
322.749
322.905
322.459
322.648
322.512
321.894
321.821
322.916
322.467
322.623
319.737
320.197
320.54
320.344
320.649
319.736
319.47
320.268
318.648
319.339
319.51
319.239
319.074
318.825
318.848
319.533
319.267
317.917
319.1
319.488
317.193
316.721
315.822
316.209
317.09
315.945
316.34
315.682
316.095
316.341
316.129
317.636
315.64
315.333
315.192
315.186
314.917
314.394
315.229
316.501
313.534
311.963
312.962
313.151
313.532
311.966
312.7
312.543
312.575
311.956
312.944
312.572
311.15
312.459
312.662
312.154
312.663
311.861
311.904
312.814
309.971
309.03
309.116
309.419
309.116
309.756
309
309.746
308.407
308.662
309.478
309.176
308.595
309.126
309.145
309.294
308.819
307.475
308.552
308.113
305.515
305.87
305.734
305.912
304.47
305.201
305.616
305.159
305.604
305.485
305.089
304.836
305.629
306.632
305.48
304.797
304.812
305.285
304.656
305.765
301.634
302.774
301.277
301.285
302.182
301.577
302.032
301.326
300.598
301.998
302.533
301.651
302.251
301.811
301.908
302.135
301.801
302.073
302.154
301.709
328.255
327.865
328.228
327.923
326.978
327.462
328.152
326.491
326.958
326.975
326.382
326.642
326.514
326.58
325.434
326.463
325.432
326.48
326.77
327.375
325.003
324.548
323.326
324.289
324.545
324.334
323.837
324.738
324.212
324.638
324.469
323.537
324.626
322.777
324.047
322.632
323.954
323.353
324.431
323.505
320.445
320.752
320.65
320.577
320.659
320.027
320.906
320.052
320.266
320.444
319.992
319.793
318.805
319.383
319.23
319.231
319.095
319.605
320.657
319.614
317.142
317.39
316.765
316.826
317.103
317.009
316.579
316.208
316.253
316.821
315.289
316.465
316.09
316.185
316.371
315.617
315.914
316.179
316.481
316.449
313.282
313.434
313.004
313.514
312.584
312.329
313.391
312.369
312.484
312.297
313.004
312.257
312.368
312.26
312.373
311.87
312.108
312.379
312.346
313.222
309.448
308.989
309.786
309.763
308.785
309.452
310.072
309.241
309.412
309.423
308.952
309.072
309.33
308.7
309.668
309.62
309.453
308.565
308.874
309.593
306.122
304.824
305.107
305.142
305.597
305.774
305.315
306.317
305.632
304.75
304.638
305.493
305.887
305.616
305.868
305.885
305.877
305.787
304.631
305.095
301.658
302.482
302.434
301.455
302.26
301.951
301.299
301.653
302.164
301.432
302.385
302.528
302.841
301.673
301.674
301.82
301.276
301.869
301.948
301.941
329.101
328.704
328.464
327.751
328.133
328.404
328.534
327.786
327.786
326.998
327.125
327.549
327.323
327.148
325.587
327.195
326.096
326.855
327.515
326.82
324.611
324.869
325.076
323.983
323.98
323.654
324.09
324.249
324.119
324.539
324.447
323.445
324.168
323.14
322.757
322.802
322.486
323.565
323.628
324.179
321.54
321.208
320.708
321.394
320.821
320.34
319.742
320.394
320.597
321.061
320.118
320.703
319.634
320.582
319.896
319.47
320.111
319.813
320.645
320.335
317.123
317.788
317.601
317.171
316.421
317.049
317.601
317.065
315.995
317.267
315.809
316.789
316.319
316.462
316.159
316.571
315.948
316.292
315.718
315.308
313.05
313.552
313.801
313.153
313.129
312.624
313.066
313.001
312.77
313.197
312.834
313.48
312.53
312.526
312.736
313.185
312.627
312.82
312.272
312.207
309.774
309.414
310.049
309.715
310.028
309.465
309.384
308.903
309.038
308.802
309.553
309.33
309.002
308.859
308.847
309.002
309.027
308.933
308.234
309.556
304.954
306.207
305.249
306.056
306.005
305.85
305.959
305.715
305.848
305.667
305.238
305.263
305.188
305.022
306.384
304.364
304.905
306.266
305.498
306.608
302.927
302.02
302.001
301.374
301.889
301.398
302.393
302.482
301.609
301.876
302.192
302.278
300.682
300.827
302.045
302.183
301.152
302.122
301.782
301.361
)
;

boundaryField
{
    hotSide
    {
        type            fixedGradient;
        gradient        nonuniform List<scalar> 
400
(
321.511
322.87
325.591
329.677
335.133
341.965
350.181
359.788
370.794
383.208
397.037
412.289
428.971
447.088
466.647
487.651
510.105
534.011
559.372
586.191
323.738
325.08
327.767
331.802
337.194
343.949
352.078
361.591
372.498
384.81
398.537
413.687
430.268
448.289
467.755
488.672
511.043
534.872
560.161
586.913
326.149
327.47
330.116
334.091
339.406
346.071
354.099
363.503
374.296
386.491
400.101
415.136
431.606
449.52
468.885
489.706
511.988
535.735
560.948
587.63
328.704
330
332.597
336.503
341.73
348.292
356.205
365.485
376.15
388.215
401.695
416.604
432.954
450.753
470.009
490.73
512.919
536.579
561.714
588.325
331.33
332.599
335.142
338.97
344.099
350.546
358.332
367.477
378.003
389.928
403.271
418.047
434.27
451.949
471.095
491.712
513.807
537.382
562.439
588.978
333.918
335.158
337.643
341.389
346.414
352.74
360.392
369.397
379.779
391.562
404.765
419.407
435.503
453.065
472.101
492.618
514.622
538.114
563.096
589.569
336.321
337.531
339.959
343.622
348.544
354.751
362.274
371.142
381.385
393.031
406.101
420.618
436.595
454.047
472.983
493.409
515.33
538.747
563.663
590.076
338.36
339.543
341.92
345.509
350.339
356.44
363.847
372.595
382.718
394.244
407.2
421.608
437.485
454.844
473.695
494.045
515.897
539.253
564.114
590.478
339.852
341.015
343.352
346.885
351.645
357.665
364.985
373.643
383.675
395.113
407.984
422.312
438.116
455.407
474.197
494.491
516.294
539.606
564.428
590.758
340.643
341.795
344.11
347.613
352.334
358.311
365.584
374.193
384.176
395.567
408.393
422.679
438.443
455.699
474.456
494.722
516.498
539.788
564.589
590.901
340.643
341.795
344.11
347.613
352.334
358.311
365.584
374.193
384.176
395.567
408.393
422.679
438.443
455.699
474.456
494.722
516.498
539.788
564.589
590.901
339.852
341.015
343.352
346.885
351.645
357.665
364.985
373.643
383.675
395.113
407.984
422.312
438.116
455.407
474.197
494.491
516.294
539.606
564.428
590.758
338.36
339.543
341.92
345.509
350.339
356.44
363.847
372.595
382.718
394.244
407.2
421.608
437.485
454.844
473.695
494.045
515.897
539.253
564.114
590.478
336.321
337.531
339.959
343.622
348.544
354.751
362.274
371.142
381.385
393.031
406.101
420.618
436.595
454.047
472.983
493.409
515.33
538.747
563.663
590.076
333.918
335.158
337.643
341.389
346.414
352.74
360.392
369.397
379.779
391.562
404.765
419.407
435.503
453.065
472.101
492.618
514.622
538.114
563.096
589.569
331.33
332.599
335.142
338.97
344.099
350.546
358.332
367.477
378.003
389.928
403.271
418.047
434.27
451.949
471.095
491.712
513.807
537.382
562.439
588.978
328.704
330
332.597
336.503
341.73
348.292
356.205
365.485
376.15
388.215
401.695
416.604
432.954
450.753
470.009
490.73
512.919
536.579
561.714
588.325
326.149
327.47
330.116
334.091
339.406
346.071
354.099
363.503
374.296
386.491
400.101
415.136
431.606
449.52
468.885
489.706
511.988
535.735
560.948
587.63
323.738
325.08
327.767
331.802
337.194
343.949
352.078
361.591
372.498
384.81
398.537
413.687
430.268
448.289
467.755
488.672
511.043
534.872
560.161
586.913
321.511
322.87
325.591
329.677
335.133
341.965
350.181
359.788
370.794
383.208
397.037
412.289
428.971
447.088
466.647
487.651
510.105
534.011
559.372
586.191
)
;
    }
    coldSide
    {
        type            mixed;
        refValue        uniform 300;
        refGradient     uniform 0;
        valueFraction   uniform 0.991591;
        source          uniform 0;
        value           nonuniform List<scalar> 
400
(
300.012
300.012
300.011
300.014
300.013
300.006
300.011
300.018
300.009
300.018
300.009
300.015
300.007
300.022
300.013
300.021
300.009
300.014
300.014
300.025
300.007
300.003
300.013
300.003
300.019
300.014
300.012
300.015
300.011
300.006
300.012
300.008
300.002
300.01