/*--------------------------------*- C++ -*----------------------------------*\
| =========                 |                                                 |
| \\      /  F ield         | OpenFOAM: The Open Source CFD Toolbox           |
|  \\    /   O peration     | Version:  2212                                  |
|   \\  /    A nd           | Website:  www.openfoam.com                      |
|    \\/     M anipulation  |                                                 |
\*---------------------------------------------------------------------------*/
FoamFile
{
    version     2.0;
    format      ascii;
    arch        "LSB;label=32;scalar=64";
    class       volScalarField;
    location    "0";
    object      Tdirect;
}
// * * * * * * * * * * * * * * * * * * * * * * * * * * * * * * * * * * * * * //

dimensions      [0 0 0 1 0 0 0];

internalField   nonuniform List<scalar> 
3200
(
345.221
345.473
345.796
346.147
346.509
346.865
347.193
347.469
347.671
347.778
347.778
347.671
347.469
347.193
346.865
346.509
346.147
345.796
345.473
345.221
339.216
339.43
339.708
340.012
340.325
340.632
340.916
341.155
341.329
341.421
341.421
341.329
341.155
340.916
340.632
340.325
340.012
339.708
339.43
339.216
333.201
333.378
333.613
333.87
334.134
334.394
334.633
334.835
334.982
335.06
335.06
334.982
334.835
334.633
334.394
334.134
333.87
333.613
333.378
333.201
327.178
327.321
327.512
327.722
327.939
328.151
328.346
328.511
328.631
328.694
328.694
328.631
328.511
328.346
328.151
327.939
327.722
327.512
327.321
327.178
321.15
321.26
321.408
321.571
321.739
321.904
322.056
322.184
322.277
322.326
322.326
322.277
322.184
322.056
321.904
321.739
321.571
321.408
321.26
321.15
315.117
315.195
315.301
315.417
315.537
315.655
315.764
315.855
315.921
315.956
315.956
315.921
315.855
315.764
315.655
315.537
315.417
315.301
315.195
315.117
309.082
309.128
309.192
309.261
309.334
309.404
309.469
309.524
309.564
309.585
309.585
309.564
309.524
309.469
309.404
309.334
309.261
309.192
309.128
309.082
303.045
303.06
303.081
303.105
303.129
303.153
303.174
303.193
303.206
303.213
303.213
303.206
303.193
303.174
303.153
303.129
303.105
303.081
303.06
303.045
345.41
345.661
345.98
346.329
346.687
347.038
347.362
347.636
347.835
347.94
347.94
347.835
347.636
347.362
347.038
346.687
346.329
345.98
345.661
345.41
339.38
339.592
339.868
340.169
340.479
340.783
341.063
341.299
341.471
341.562
341.562
341.471
341.299
341.063
340.783
340.479
340.169
339.868
339.592
339.38
333.34
333.516
333.748
334.002
334.265
334.521
334.758
334.957
335.102
335.179
335.179
335.102
334.957
334.758
334.521
334.265
334.002
333.748
333.516
333.34
327.292
327.434
327.623
327.831
328.045
328.255
328.448
328.611
328.73
328.792
328.792
328.73
328.611
328.448
328.255
328.045
327.831
327.623
327.434
327.292
321.238
321.347
321.494
321.656
321.822
321.985
322.135
322.262
322.354
322.402
322.402
322.354
322.262
322.135
321.985
321.822
321.656
321.494
321.347
321.238
315.181
315.258
315.362
315.478
315.597
315.713
315.82
315.91
315.976
316.011
316.011
315.976
315.91
315.82
315.713
315.597
315.478
315.362
315.258
315.181
309.12
309.166
309.229
309.298
309.369
309.439
309.503
309.558
309.597
309.618
309.618
309.597
309.558
309.503
309.439
309.369
309.298
309.229
309.166
309.12
303.057
303.073
303.094
303.117
303.141
303.164
303.186
303.204
303.217
303.224
303.224
303.217
303.204
303.186
303.164
303.141
303.117
303.094
303.073
303.057
345.789
346.036
346.35
346.692
347.043
347.386
347.703
347.97
348.164
348.266
348.266
348.164
347.97
347.703
347.386
347.043
346.692
346.35
346.036
345.789
339.708
339.917
340.188
340.483
340.787
341.085
341.359
341.589
341.757
341.845
341.845
341.757
341.589
341.359
341.085
340.787
340.483
340.188
339.917
339.708
333.617
333.79
334.019
334.269
334.526
334.777
335.008
335.203
335.344
335.419
335.419
335.344
335.203
335.008
334.777
334.526
334.269
334.019
333.79
333.617
327.519
327.658
327.845
328.049
328.259
328.464
328.653
328.812
328.927
328.988
328.988
328.927
328.812
328.653
328.464
328.259
328.049
327.845
327.658
327.519
321.415
321.522
321.666
321.825
321.988
322.148
322.295
322.418
322.508
322.555
322.555
322.508
322.418
322.295
322.148
321.988
321.825
321.666
321.522
321.415
315.307
315.383
315.485
315.599
315.715
315.829
315.934
316.022
316.086
316.12
316.12
316.086
316.022
315.934
315.829
315.715
315.599
315.485
315.383
315.307
309.196
309.241
309.303
309.371
309.441
309.509
309.572
309.625
309.663
309.683
309.683
309.663
309.625
309.572
309.509
309.441
309.371
309.303
309.241
309.196
303.083
303.098
303.118
303.141
303.165
303.188
303.209
303.226
303.239
303.246
303.246
303.239
303.226
303.209
303.188
303.165
303.141
303.118
303.098
303.083
346.358
346.599
346.905
347.238
347.578
347.911
348.217
348.474
348.661
348.759
348.759
348.661
348.474
348.217
347.911
347.578
347.238
346.905
346.599
346.358
340.201
340.405
340.669
340.957
341.252
341.539
341.804
342.026
342.188
342.273
342.273
342.188
342.026
341.804
341.539
341.252
340.957
340.669
340.405
340.201
334.034
334.203
334.426
334.669
334.918
335.162
335.385
335.573
335.709
335.781
335.781
335.709
335.573
335.385
335.162
334.918
334.669
334.426
334.203
334.034
327.86
327.996
328.178
328.376
328.58
328.779
328.962
329.115
329.226
329.285
329.285
329.226
329.115
328.962
328.779
328.58
328.376
328.178
327.996
327.86
321.68
321.785
321.926
322.08
322.238
322.393
322.535
322.654
322.74
322.786
322.786
322.74
322.654
322.535
322.393
322.238
322.08
321.926
321.785
321.68
315.496
315.57
315.671
315.781
315.894
316.004
316.106
316.191
316.252
316.285
316.285
316.252
316.191
316.106
316.004
315.894
315.781
315.671
315.57
315.496
309.309
309.354
309.414
309.48
309.548
309.614
309.675
309.726
309.763
309.782
309.782
309.763
309.726
309.675
309.614
309.548
309.48
309.414
309.354
309.309
303.121
303.136
303.156
303.178
303.201
303.223
303.243
303.26
303.273
303.279
303.279
303.273
303.26
303.243
303.223
303.201
303.178
303.156
303.136
303.121
347.118
347.351
347.647
347.968
348.296
348.615
348.907
349.152
349.33
349.423
349.423
349.33
349.152
348.907
348.615
348.296
347.968
347.647
347.351
347.118
340.859
341.057
341.312
341.59
341.873
342.149
342.402
342.614
342.767
342.848
342.848
342.767
342.614
342.402
342.149
341.873
341.59
341.312
341.057
340.859
334.591
334.755
334.97
335.205
335.444
335.678
335.891
336.07
336.2
336.268
336.268
336.2
336.07
335.891
335.678
335.444
335.205
334.97
334.755
334.591
328.316
328.448
328.623
328.815
329.011
329.201
329.376
329.522
329.628
329.684
329.684
329.628
329.522
329.376
329.201
329.011
328.815
328.623
328.448
328.316
322.035
322.136
322.272
322.421
322.573
322.722
322.857
322.971
323.053
323.096
323.096
323.053
322.971
322.857
322.722
322.573
322.421
322.272
322.136
322.035
315.749
315.821
315.918
316.024
316.133
316.239
316.336
316.417
316.476
316.507
316.507
316.476
316.417
316.336
316.239
316.133
316.024
315.918
315.821
315.749
309.461
309.504
309.562
309.626
309.692
309.755
309.813
309.862
309.897
309.916
309.916
309.897
309.862
309.813
309.755
309.692
309.626
309.562
309.504
309.461
303.172
303.186
303.206
303.227
303.249
303.27
303.29
303.306
303.318
303.324
303.324
303.318
303.306
303.29
303.27
303.249
303.227
303.206
303.186
303.172
348.069
348.294
348.578
348.885
349.197
349.5
349.776
350.008
350.175
350.263
350.263
350.175
350.008
349.776
349.5
349.197
348.885
348.578
348.294
348.069
341.683
341.874
342.119
342.384
342.654
342.917
343.156
343.356
343.5
343.576
343.576
343.5
343.356
343.156
342.917
342.654
342.384
342.119
341.874
341.683
335.288
335.446
335.653
335.877
336.106
336.327
336.529
336.698
336.82
336.884
336.884
336.82
336.698
336.529
336.327
336.106
335.877
335.653
335.446
335.288
328.886
329.013
329.182
329.365
329.552
329.733
329.898
330.036
330.136
330.188
330.188
330.136
330.036
329.898
329.733
329.552
329.365
329.182
329.013
328.886
322.478
322.576
322.706
322.849
322.994
323.135
323.263
323.371
323.448
323.489
323.489
323.448
323.371
323.263
323.135
322.994
322.849
322.706
322.576
322.478
316.066
316.135
316.229
316.33
316.434
316.535
316.626
316.703
316.758
316.787
316.787
316.758
316.703
316.626
316.535
316.434
316.33
316.229
316.135
316.066
309.652
309.693
309.749
309.81
309.872
309.933
309.988
310.034
310.067
310.084
310.084
310.067
310.034
309.988
309.933
309.872
309.81
309.749
309.693
309.652
303.236
303.249
303.268
303.289
303.309
303.33
303.348
303.363
303.375
303.38
303.38
303.375
303.363
303.348
303.33
303.309
303.289
303.268
303.249
303.236
349.214
349.428
349.699
349.99
350.285
350.57
350.83
351.046
351.202
351.283
351.283
351.202
351.046
350.83
350.57
350.285
349.99
349.699
349.428
349.214
342.675
342.857
343.09
343.342
343.598
343.844
344.069
344.256
344.39
344.461
344.461
344.39
344.256
344.069
343.844
343.598
343.342
343.09
342.857
342.675
336.127
336.278
336.475
336.688
336.904
337.112
337.302
337.46
337.574
337.633
337.633
337.574
337.46
337.302
337.112
336.904
336.688
336.475
336.278
336.127
329.572
329.693
329.854
330.028
330.205
330.375
330.53
330.659
330.752
330.801
330.801
330.752
330.659
330.53
330.375
330.205
330.028
329.854
329.693
329.572
323.012
323.105
323.23
323.365
323.502
323.635
323.755
323.855
323.928
323.966
323.966
323.928
323.855
323.755
323.635
323.502
323.365
323.23
323.105
323.012
316.448
316.514
316.602
316.699
316.797
316.892
316.978
317.049
317.101
317.128
317.128
317.101
317.049
316.978
316.892
316.797
316.699
316.602
316.514
316.448
309.881
309.92
309.973
310.031
310.09
310.147
310.199
310.242
310.273
310.289
310.289
310.273
310.242
310.199
310.147
310.09
310.031
309.973
309.92
309.881
303.312
303.325
303.343
303.363
303.382
303.402
303.419
303.433
303.444
303.449
303.449
303.444
303.433
303.419
303.402
303.382
303.363
303.343
303.325
303.312
350.552
350.756
351.013
351.287
351.563
351.83
352.071
352.271
352.415
352.49
352.49
352.415
352.271
352.071
351.83
351.563
351.287
351.013
350.756
350.552
343.834
344.007
344.228
344.466
344.705
344.936
345.145
345.318
345.442
345.507
345.507
345.442
345.318
345.145
344.936
344.705
344.466
344.228
344.007
343.834
337.108
337.251
337.438
337.638
337.841
338.036
338.212
338.358
338.464
338.519
338.519
338.464
338.358
338.212
338.036
337.841
337.638
337.438
337.251
337.108
330.374
330.49
330.642
330.806
330.972
331.131
331.275
331.395
331.481
331.526
331.526
331.481
331.395
331.275
331.131
330.972
330.806
330.642
330.49
330.374
323.636
323.724
323.842
323.97
324.099
324.223
324.335
324.428
324.494
324.529
324.529
324.494
324.428
324.335
324.223
324.099
323.97
323.842
323.724
323.636
316.893
316.956
317.04
317.131
317.223
317.312
317.392
317.458
317.506
317.531
317.531
317.506
317.458
317.392
317.312
317.223
317.131
317.04
316.956
316.893
310.148
310.186
310.236
310.291
310.346
310.399
310.448
310.487
310.516
310.531
310.531
310.516
310.487
310.448
310.399
310.346
310.291
310.236
310.186
310.148
303.402
303.415
303.431
303.45
303.468
303.486
303.502
303.516
303.525
303.53
303.53
303.525
303.516
303.502
303.486
303.468
303.45
303.431
303.415
303.402
352.085
352.278
352.52
352.776
353.034
353.281
353.503
353.687
353.819
353.888
353.888
353.819
353.687
353.503
353.281
353.034
352.776
352.52
352.278
352.085
345.163
345.326
345.534
345.757
345.98
346.194
346.386
346.546
346.66
346.719
346.719
346.66
346.546
346.386
346.194
345.98
345.757
345.534
345.326
345.163
338.232
338.367
338.542
338.73
338.919
339.1
339.263
339.398
339.494
339.544
339.544
339.494
339.398
339.263
339.1
338.919
338.73
338.542
338.367
338.232
331.294
331.403
331.546
331.699
331.854
332.002
332.135
332.245
332.324
332.365
332.365
332.324
332.245
332.135
332.002
331.854
331.699
331.546
331.403
331.294
324.351
324.435
324.545
324.665
324.785
324.9
325.004
325.089
325.15
325.182
325.182
325.15
325.089
325.004
324.9
324.785
324.665
324.545
324.435
324.351
317.404
317.464
317.543
317.628
317.714
317.796
317.87
317.931
317.975
317.998
317.998
317.975
317.931
317.87
317.796
317.714
317.628
317.543
317.464
317.404
310.455
310.491
310.538
310.589
310.641
310.69
310.735
310.771
310.798
310.811
310.811
310.798
310.771
310.735
310.69
310.641
310.589
310.538
310.491
310.455
303.505
303.517
303.533
303.55
303.567
303.584
303.598
303.611
303.62
303.624
303.624
303.62
303.611
303.598
303.584
303.567
303.55
303.533
303.517
303.505
353.815
353.996
354.222
354.461
354.7
354.927
355.131
355.299
355.419
355.482
355.482
355.419
355.299
355.131
354.927
354.7
354.461
354.222
353.996
353.815
346.662
346.815
347.01
347.217
347.423
347.62
347.797
347.943
348.047
348.101
348.101
348.047
347.943
347.797
347.62
347.423
347.217
347.01
346.815
346.662
339.499
339.627
339.791
339.966
340.141
340.307
340.457
340.58
340.668
340.713
340.713
340.668
340.58
340.457
340.307
340.141
339.966
339.791
339.627
339.499
332.331
332.433
332.567
332.71
332.853
332.99
333.112
333.212
333.284
333.322
333.322
333.284
333.212
333.112
332.99
332.853
332.71
332.567
332.433
332.331
325.157
325.236
325.34
325.451
325.562
325.668
325.764
325.842
325.898
325.927
325.927
325.898
325.842
325.764
325.668
325.562
325.451
325.34
325.236
325.157
317.981
318.036
318.11
318.19
318.269
318.345
318.413
318.469
318.509
318.529
318.529
318.509
318.469
318.413
318.345
318.269
318.19
318.11
318.036
317.981
310.801
310.835
310.879
310.927
310.975
311.02
311.061
311.094
311.118
311.131
311.131
311.118
311.094
311.061
311.02
310.975
310.927
310.879
310.835
310.801
303.621
303.632
303.647
303.663
303.679
303.694
303.708
303.719
303.727
303.731
303.731
303.727
303.719
303.708
303.694
303.679
303.663
303.647
303.632
303.621
355.742
355.912
356.122
356.343
356.563
356.772
356.958
357.11
357.219
357.276
357.276
357.219
357.11
356.958
356.772
356.563
356.343
356.122
355.912
355.742
348.331
348.474
348.656
348.848
349.038
349.219
349.38
349.512
349.606
349.655
349.655
349.606
349.512
349.38
349.219
349.038
348.848
348.656
348.474
348.331
340.912
341.031
341.184
341.346
341.507
341.66
341.796
341.908
341.987
342.029
342.029
341.987
341.908
341.796
341.66
341.507
341.346
341.184
341.031
340.912
333.486
333.582
333.707
333.839
333.971
334.096
334.208
334.299
334.364
334.398
334.398
334.364
334.299
334.208
334.096
333.971
333.839
333.707
333.582
333.486
326.056
326.13
326.226
326.329
326.432
326.529
326.616
326.687
326.738
326.764
326.764
326.738
326.687
326.616
326.529
326.432
326.329
326.226
326.13
326.056
318.623
318.675
318.744
318.817
318.891
318.96
319.022
319.073
319.109
319.128
319.128
319.109
319.073
319.022
318.96
318.891
318.817
318.744
318.675
318.623
311.187
311.218
311.259
311.304
311.348
311.389
311.427
311.457
311.479
311.49
311.49
311.479
311.457
311.427
311.389
311.348
311.304
311.259
311.218
311.187
303.75
303.761
303.774
303.789
303.804
303.818
303.83
303.841
303.848
303.852
303.852
303.848
303.841
303.83
303.818
303.804
303.789
303.774
303.761
303.75
357.867
358.025
358.22
358.424
358.626
358.816
358.985
359.123
359.221
359.272
359.272
359.221
359.123
358.985
358.816
358.626
358.424
358.22
358.025
357.867
350.172
350.306
350.474
350.651
350.826
350.99
351.137
351.256
351.341
351.385
351.385
351.341
351.256
351.137
350.99
350.826
350.651
350.474
350.306
350.172
342.469
342.58
342.722
342.871
343.019
343.159
343.282
343.383
343.455
343.493
343.493
343.455
343.383
343.282
343.159
343.019
342.871
342.722
342.58
342.469
334.76
334.849
334.965
335.087
335.208
335.322
335.424
335.506
335.565
335.596
335.596
335.565
335.506
335.424
335.322
335.208
335.087
334.965
334.849
334.76
327.047
327.115
327.205
327.3
327.394
327.483
327.562
327.626
327.672
327.696
327.696
327.672
327.626
327.562
327.483
327.394
327.3
327.205
327.115
327.047
319.331
319.379
319.443
319.511
319.578
319.642
319.698
319.744
319.776
319.793
319.793
319.776
319.744
319.698
319.642
319.578
319.511
319.443
319.379
319.331
311.612
311.641
311.679
311.72
311.761
311.799
311.833
311.86
311.88
311.89
311.89
311.88
311.86
311.833
311.799
311.761
311.72
311.679
311.641
311.612
303.893
303.902
303.915
303.929
303.942
303.955
303.967
303.976
303.982
303.986
303.986
303.982
303.976
303.967
303.955
303.942
303.929
303.915
303.902
303.893
360.191
360.337
360.517
360.705
360.889
361.062
361.214
361.339
361.427
361.472
361.472
361.427
361.339
361.214
361.062
360.889
360.705
360.517
360.337
360.191
352.185
352.309
352.464
352.627
352.786
352.936
353.069
353.176
353.252
353.292
353.292
353.252
353.176
353.069
352.936
352.786
352.627
352.464
352.309
352.185
344.172
344.275
344.406
344.543
344.678
344.805
344.917
345.008
345.072
345.106
345.106
345.072
345.008
344.917
344.805
344.678
344.543
344.406
344.275
344.172
336.153
336.236
336.343
336.455
336.565
336.669
336.761
336.835
336.888
336.915
336.915
336.888
336.835
336.761
336.669
336.565
336.455
336.343
336.236
336.153
328.13
328.194
328.277
328.364
328.45
328.531
328.602
328.66
328.701
328.722
328.722
328.701
328.66
328.602
328.531
328.45
328.364
328.277
328.194
328.13
320.105
320.15
320.209
320.271
320.332
320.39
320.441
320.483
320.512
320.527
320.527
320.512
320.483
320.441
320.39
320.332
320.271
320.209
320.15
320.105
312.077
312.104
312.139
312.177
312.214
312.248
312.279
312.304
312.321
312.331
312.331
312.321
312.304
312.279
312.248
312.214
312.177
312.139
312.104
312.077
304.049
304.057
304.069
304.082
304.094
304.106
304.116
304.124
304.13
304.133
304.133
304.13
304.124
304.116
304.106
304.094
304.082
304.069
304.057
304.049
362.712
362.847
363.013
363.184
363.352
363.509
363.646
363.758
363.836
363.877
363.877
363.836
363.758
363.646
363.509
363.352
363.184
363.013
362.847
362.712
354.369
354.483
354.626
354.775
354.92
355.056
355.175
355.272
355.34
355.376
355.376
355.34
355.272
355.175
355.056
354.92
354.775
354.626
354.483
354.369
346.019
346.114
346.234
346.36
346.483
346.598
346.699
346.781
346.838
346.868
346.868
346.838
346.781
346.699
346.598
346.483
346.36
346.234
346.114
346.019
337.664
337.74
337.838
337.941
338.042
338.136
338.219
338.286
338.333
338.357
338.357
338.333
338.286
338.219
338.136
338.042
337.941
337.838
337.74
337.664
329.305
329.364
329.44
329.52
329.598
329.671
329.736
329.788
329.825
329.844
329.844
329.825
329.788
329.736
329.671
329.598
329.52
329.44
329.364
329.305
320.944
320.985
321.04
321.097
321.153
321.205
321.251
321.288
321.315
321.328
321.328
321.315
321.288
321.251
321.205
321.153
321.097
321.04
320.985
320.944
312.581
312.606
312.638
312.673
312.706
312.738
312.765
312.788
312.804
312.812
312.812
312.804
312.788
312.765
312.738
312.706
312.673
312.638
312.606
312.581
304.217
304.226
304.237
304.248
304.259
304.27
304.279
304.287
304.292
304.295
304.295
304.292
304.287
304.279
304.27
304.259
304.248
304.237
304.226
304.217
365.425
365.55
365.702
365.859
366.011
366.153
366.276
366.376
366.447
366.483
366.483
366.447
366.376
366.276
366.153
366.011
365.859
365.702
365.55
365.425
356.718
356.824
356.955
357.091
357.223
357.346
357.453
357.54
357.601
357.632
357.632
357.601
357.54
357.453
357.346
357.223
357.091
356.955
356.824
356.718
348.006
348.093
348.204
348.319
348.431
348.534
348.625
348.699
348.75
348.777
348.777
348.75
348.699
348.625
348.534
348.431
348.319
348.204
348.093
348.006
339.288
339.359
339.449
339.543
339.635
339.72
339.794
339.854
339.896
339.918
339.918
339.896
339.854
339.794
339.72
339.635
339.543
339.449
339.359
339.288
330.568
330.622
330.692
330.765
330.837
330.903
330.961
331.007
331.04
331.057
331.057
331.04
331.007
330.961
330.903
330.837
330.765
330.692
330.622
330.568
321.846
321.884
321.934
321.987
322.038
322.085
322.126
322.16
322.183
322.195
322.195
322.183
322.16
322.126
322.085
322.038
321.987
321.934
321.884
321.846
313.123
313.146
313.176
313.207
313.238
313.266
313.291
313.311
313.325
313.332
313.332
313.325
313.311
313.291
313.266
313.238
313.207
313.176
313.146
313.123
304.399
304.407
304.417
304.427
304.437
304.447
304.455
304.462
304.467
304.469
304.469
304.467
304.462
304.455
304.447
304.437
304.427
304.417
304.407
304.399
368.319
368.434
368.574
368.717
368.855
368.982
369.094
369.183
369.246
369.278
369.278
369.246
369.183
369.094
368.982
368.855
368.717
368.574
368.434
368.319
359.223
359.32
359.44
359.564
359.684
359.795
359.891
359.969
360.023
360.051
360.051
360.023
359.969
359.891
359.795
359.684
359.564
359.44
359.32
359.223
350.122
350.202
350.304
350.409
350.51
350.604
350.685
350.751
350.797
350.821
350.821
350.797
350.751
350.685
350.604
350.51
350.409
350.304
350.202
350.122
341.018
341.083
341.165
341.251
341.334
341.411
341.478
341.532
341.569
341.589
341.589
341.569
341.532
341.478
341.411
341.334
341.251
341.165
341.083
341.018
331.912
331.962
332.026
332.093
332.158
332.217
332.269
332.311
332.341
332.356
332.356
332.341
332.311
332.269
332.217
332.158
332.093
332.026
331.962
331.912
322.806
322.841
322.887
322.934
322.981
323.023
323.061
323.09
323.111
323.122
323.122
323.111
323.09
323.061
323.023
322.981
322.934
322.887
322.841
322.806
313.699
313.72
313.748
313.776
313.804
313.83
313.852
313.87
313.882
313.889
313.889
313.882
313.87
313.852
313.83
313.804
313.776
313.748
313.72
313.699
304.592
304.599
304.608
304.618
304.627
304.636
304.643
304.649
304.654
304.656
304.656
304.654
304.649
304.643
304.636
304.627
304.618
304.608
304.599
304.592
371.364
371.469
371.597
371.727
371.852
371.967
372.067
372.147
372.203
372.232
372.232
372.203
372.147
372.067
371.967
371.852
371.727
371.597
371.469
371.364
361.852
361.942
362.052
362.165
362.273
362.373
362.46
362.529
362.578
362.603
362.603
362.578
362.529
362.46
362.373
362.273
362.165
362.052
361.942
361.852
352.34
352.414
352.507
352.602
352.694
352.779
352.852
352.911
352.952
352.973
352.973
352.952
352.911
352.852
352.779
352.694
352.602
352.507
352.414
352.34
342.828
342.888
342.963
343.041
343.117
343.186
343.246
343.294
343.328
343.345
343.345
343.328
343.294
343.246
343.186
343.117
343.041
342.963
342.888
342.828
333.317
333.363
333.422
333.483
333.541
333.595
333.642
333.679
333.706
333.719
333.719
333.706
333.679
333.642
333.595
333.541
333.483
333.422
333.363
333.317
323.808
323.841
323.882
323.926
323.968
324.006
324.04
324.067
324.085
324.095
324.095
324.085
324.067
324.04
324.006
323.968
323.926
323.882
323.841
323.808
314.3
314.32
314.345
314.371
314.396
314.419
314.439
314.455
314.467
314.473
314.473
314.467
314.455
314.439
314.419
314.396
314.371
314.345
314.32
314.3
304.794
304.8
304.808
304.817
304.826
304.833
304.84
304.846
304.849
304.851
304.851
304.849
304.846
304.84
304.833
304.826
304.817
304.808
304.8
304.794
374.479
374.576
374.693
374.812
374.925
375.03
375.12
375.191
375.241
375.267
375.267
375.241
375.191
375.12
375.03
374.925
374.812
374.693
374.576
374.479
364.531
364.613
364.714
364.817
364.916
365.006
365.084
365.147
365.19
365.212
365.212
365.19
365.147
365.084
365.006
364.916
364.817
364.714
364.613
364.531
354.59
354.658
354.744
354.831
354.914
354.991
355.057
355.11
355.147
355.166
355.166
355.147
355.11
355.057
354.991
354.914
354.831
354.744
354.658
354.59
344.658
344.713
344.782
344.854
344.922
344.985
345.039
345.082
345.113
345.128
345.128
345.113
345.082
345.039
344.985
344.922
344.854
344.782
344.713
344.658
334.734
334.776
334.83
334.885
334.939
334.987
335.03
335.063
335.087
335.099
335.099
335.087
335.063
335.03
334.987
334.939
334.885
334.83
334.776
334.734
324.816
324.846
324.884
324.924
324.962
324.997
325.027
325.052
325.068
325.077
325.077
325.068
325.052
325.027
324.997
324.962
324.924
324.884
324.846
324.816
314.904
314.922
314.945
314.969
314.992
315.013
315.031
315.046
315.056
315.061
315.061
315.056
315.046
315.031
315.013
314.992
314.969
314.945
314.922
314.904
304.996
305.002
305.009
305.017
305.025
305.032
305.038
305.043
305.046
305.048
305.048
305.046
305.043
305.038
305.032
305.025
305.017
305.009
305.002
304.996
377.466
377.556
377.664
377.773
377.877
377.972
378.054
378.119
378.164
378.187
378.187
378.164
378.119
378.054
377.972
377.877
377.773
377.664
377.556
377.466
367.068
367.144
367.238
367.332
367.423
367.505
367.576
367.633
367.672
367.692
367.692
367.672
367.633
367.576
367.505
367.423
367.332
367.238
367.144
367.068
356.699
356.762
356.841
356.921
356.998
357.068
357.128
357.176
357.21
357.227
357.227
357.21
357.176
357.128
357.068
356.998
356.921
356.841
356.762
356.699
346.357
346.408
346.472
346.538
346.601
346.658
346.708
346.747
346.775
346.789
346.789
346.775
346.747
346.708
346.658
346.601
346.538
346.472
346.408
346.357
336.039
336.078
336.128
336.179
336.228
336.273
336.311
336.342
336.364
336.374
336.374
336.364
336.342
336.311
336.273
336.228
336.179
336.128
336.078
336.039
325.74
325.768
325.803
325.84
325.875
325.907
325.935
325.957
325.972
325.98
325.98
325.972
325.957
325.935
325.907
325.875
325.84
325.803
325.768
325.74
315.456
315.472
315.493
315.516
315.537
315.556
315.572
315.586
315.595
315.6
315.6
315.595
315.586
315.572
315.556
315.537
315.516
315.493
315.472
315.456
305.18
305.185
305.193
305.2
305.207
305.214
305.219
305.223
305.227
305.228
305.228
305.227
305.223
305.219
305.214
305.207
305.2
305.193
305.185
305.18
379.802
379.887
379.988
380.09
380.188
380.276
380.352
380.413
380.454
380.476
380.476
380.454
380.413
380.352
380.276
380.188
380.09
379.988
379.887
379.802
368.978
369.049
369.137
369.226
369.311
369.388
369.455
369.507
369.544
369.563
369.563
369.544
369.507
369.455
369.388
369.311
369.226
369.137
369.049
368.978
358.237
358.297
358.371
358.447
358.52
358.585
358.642
358.686
358.718
358.734
358.734
358.718
358.686
358.642
358.585
358.52
358.447
358.371
358.297
358.237
347.566
347.615
347.675
347.738
347.797
347.851
347.897
347.934
347.96
347.973
347.973
347.96
347.934
347.897
347.851
347.797
347.738
347.675
347.615
347.566
336.95
336.988
337.035
337.083
337.13
337.172
337.208
337.237
337.257
337.267
337.267
337.257
337.237
337.208
337.172
337.13
337.083
337.035
336.988
336.95
326.376
326.403
326.437
326.471
326.504
326.535
326.561
326.581
326.595
326.603
326.603
326.595
326.581
326.561
326.535
326.504
326.471
326.437
326.403
326.376
315.832
315.848
315.868
315.889
315.909
315.927
315.943
315.955
315.964
315.968
315.968
315.964
315.955
315.943
315.927
315.909
315.889
315.868
315.848
315.832
305.305
305.31
305.317
305.324
305.331
305.337
305.342
305.346
305.349
305.351
305.351
305.349
305.346
305.342
305.337
305.331
305.324
305.317
305.31
305.305
)
;

boundaryField
{
    hotSide
    {
        type            fixedGradient;
        gradient        nonuniform List<scalar> 
400
(
479.433
481.46
485.518
491.61
499.746
509.933
522.183
536.508
552.92
571.43
592.051
614.794
639.668
666.684
695.848
727.168
760.649
796.296
834.113
874.103
482.757
484.758
488.763
494.781
502.82
512.893
525.014
539.199
555.463
573.821
594.288
616.879
641.604
668.475
697.501
728.69
762.048
797.581
835.291
875.181
486.353
488.323
492.267
498.195
506.12
516.059
528.029
542.051
558.145
576.329
596.622
619.041
643.6
670.311
699.186
730.233
763.459
798.868
836.464
876.251
490.164
492.097
495.969
501.794
509.587
519.372
531.17
545.008
560.91
578.9
599.001
621.232
645.61
672.15
700.864
731.761
764.847
800.128
837.607
877.287
494.081
495.973
499.766
505.474
513.121
522.734
534.343
547.98
563.674
581.456
601.351
623.384
647.573
673.936
702.483
733.227
766.172
801.325
838.688
878.262
497.943
499.791
503.497
509.082
516.574
526.007
537.417
550.844
566.324
583.893
603.58
625.413
649.413
675.599
703.984
734.578
767.388
802.417
839.669
879.143
501.527
503.331
506.952
512.414
519.752
529.007
540.224
553.447
568.72
586.084
605.574
627.219
651.043
677.065
705.3
735.758
768.444
803.362
840.514
879.9
504.569
506.334
509.877
515.229
522.43
531.527
542.571
555.615
570.708
587.894
607.213
628.696
652.37
678.254
706.363
736.706
769.29
804.117
841.187
880.5
506.796
508.529
512.014
517.282
524.378
533.355
544.269
557.178
572.136
589.19
608.382
629.747
653.311
679.094
707.111
737.372
769.882
804.643
841.655
880.916
507.975
509.692
513.145
518.367
525.406
534.318
545.162
557.999
572.884
589.867
608.992
630.294
653.799
679.529
707.498
737.716
770.187
804.914
841.896
881.13
507.975
509.692
513.145
518.367
525.406
534.318
545.162
557.999
572.884
589.867
608.992
630.294
653.799
679.529
707.498
737.716
770.187
804.914
841.896
881.13
506.796
508.529
512.014
517.282
524.378
533.355
544.269
557.178
572.136
589.19
608.382
629.747
653.311
679.094
707.111
737.372
769.882
804.643
841.655
880.916
504.569
506.334
509.877
515.229
522.43
531.527
542.571
555.615
570.708
587.894
607.213
628.696
652.37
678.254
706.363
736.706
769.29
804.117
841.187
880.5
501.527
503.331
506.952
512.414
519.752
529.007
540.224
553.447
568.72
586.084
605.574
627.219
651.043
677.065
705.3
735.758
768.444
803.362
840.514
879.9
497.943
499.791
503.497
509.082
516.574
526.007
537.417
550.844
566.324
583.893
603.58
625.413
649.413
675.599
703.984
734.578
767.388
802.417
839.669
879.143
494.081
495.973
499.766
505.474
513.121
522.734
534.343
547.98
563.674
581.456
601.351
623.384
647.573
673.936
702.483
733.227
766.172
801.325
838.688
878.262
490.164
492.097
495.969
501.794
509.587
519.372
531.17
545.008
560.91
578.9
599.001
621.232
645.61
672.15
700.864
731.761
764.847
800.128
837.607
877.287
486.353
488.323
492.267
498.195
506.12
516.059
528.029
542.051
558.145
576.329
596.622
619.041
643.6
670.311
699.186
730.233
763.459
798.868
836.464
876.251
482.757
484.758
488.763
494.781
502.82
512.893
525.014
539.199
555.463
573.821
594.288
616.879
641.604
668.475
697.501
728.69
762.048
797.581
835.291
875.181
479.433
481.46
485.518
491.61
499.746
509.933
522.183
536.508
552.92
571.43
592.051
614.794
639.668
666.684
695.848
727.168
760.649
796.296
834.113
874.103
)
;
    }
    coldSide
    {
        type            mixed;
        refValue        uniform 300;
        refGradient     uniform 0;
        valueFraction   uniform 0.991591;
        source          uniform 0;
        value           nonuniform List<scalar> 
400
(
300.026
300.026
300.026
300.026
300.027
300.027
300.028
300.029
300.029
300.03
300.032
300.033
300.034
300.035
300.037
300.039
300.04
300.042
300.044
300.045
300.026
300.026
300.026
300.026
300.027
300.027
300.028
300.029
300.03
300.031
300.032
300.033
300.034
300.036
300.037