/*--------------------------------*- C++ -*----------------------------------*\
| =========                 |                                                 |
| \\      /  F ield         | OpenFOAM: The Open Source CFD Toolbox           |
|  \\    /   O peration     | Version:  2212                                  |
|   \\  /    A nd           | Website:  www.openfoam.com                      |
|    \\/     M anipulation  |                                                 |
\*---------------------------------------------------------------------------*/
FoamFile
{
    version     2.0;
    format      ascii;
    arch        "LSB;label=32;scalar=64";
    class       volScalarField;
    location    "0";
    object      T;
}
// * * * * * * * * * * * * * * * * * * * * * * * * * * * * * * * * * * * * * //

dimensions      [0 0 0 1 0 0 0];

internalField   nonuniform List<scalar> 
3200
(
321.334
321.42
321.756
321.536
321.666
321.94
321.95
321.846
321.845
321.962
321.48
321.205
321.556
321.219
321.019
320.838
320.682
320.407
320.295
319.989
318.754
318.864
319.166
318.97
319.066
319.337
319.323
319.244
319.239
319.341
318.897
318.661
318.99
318.684
318.533
318.381
318.2
317.936
317.896
317.564
316.065
316.157
316.421
316.308
316.349
316.585
316.511
316.512
316.484
316.604
316.205
316.052
316.268
315.992
315.919
315.828
315.607
315.39
315.375
315.027
313.276
313.364
313.569
313.566
313.53
313.715
313.626
313.672
313.657
313.806
313.45
313.265
313.47
313.224
313.162
313.151
312.906
312.723
312.728
312.432
310.44
310.464
310.646
310.675
310.65
310.724
310.705
310.741
310.701
310.867
310.569
310.378
310.592
310.364
310.29
310.383
310.167
309.932
309.946
309.795
307.498
307.524
307.674
307.721
307.653
307.714
307.691
307.735
307.709
307.801
307.588
307.442
307.609
307.473
307.407
307.502
307.352
307.139
307.184
307.085
304.519
304.569
304.649
304.645
304.595
304.686
304.63
304.688
304.631
304.697
304.573
304.487
304.542
304.55
304.486
304.515
304.462
304.324
304.377
304.295
301.527
301.54
301.573
301.569
301.553
301.555
301.566
301.573
301.544
301.588
301.538
301.494
301.524
301.55
301.5
301.524
301.512
301.45
301.467
301.45
321.941
322.076
322.381
322.601
322.574
322.54
322.675
322.795
322.804
322.804
322.544
322.217
322.366
322.111
322.081
321.821
321.564
321.143
321
320.943
319.257
319.357
319.667
319.854
319.862
319.791
319.961
320.032
320.074
320.098
319.796
319.501
319.631
319.429
319.402
319.138
318.927
318.576
318.438
318.407
316.436
316.559
316.85
316.991
317.005
316.936
317.069
317.165
317.189
317.243
317.017
316.73
316.786
316.633
316.659
316.338
316.198
315.888
315.853
315.791
313.501
313.653
313.952
314.038
314.08
313.974
314.056
314.151
314.206
314.296
314.062
313.835
313.867
313.758
313.784
313.466
313.386
313.147
313.132
313.039
310.565
310.66
310.971
311.009
311.041
310.978
311.022
311.076
311.138
311.276
311.024
310.875
310.843
310.806
310.799
310.545
310.538
310.339
310.307
310.195
307.586
307.643
307.932
307.87
307.924
307.889
307.937
307.948
308.016
308.138
307.921
307.823
307.77
307.794
307.739
307.532
307.6
307.441
307.467
307.317
304.58
304.613
304.797
304.726
304.775
304.758
304.756
304.831
304.886
304.932
304.802
304.723
304.709
304.726
304.677
304.501
304.583
304.454
304.523
304.458
301.525
301.538
301.609
301.601
301.595
301.61
301.59
301.611
301.658
301.653
301.631
301.604
301.592
301.585
301.556
301.483
301.548
301.491
301.534
301.525
322.949
323.349
323.396
323.611
323.706
323.697
323.968
323.989
323.839
323.974
323.911
323.684
323.587
323.532
323.256
323.037
322.809
322.291
321.954
321.933
320.101
320.477
320.5
320.721
320.823
320.795
321.057
321.058
320.91
321.018
320.975
320.766
320.709
320.668
320.395
320.188
320.047
319.55
319.224
319.268
317.113
317.489
317.564
317.73
317.811
317.814
317.999
318.01
317.895
317.997
317.882
317.765
317.677
317.728
317.397
317.236
317.13
316.725
316.45
316.533
314.083
314.405
314.498
314.626
314.689
314.701
314.78
314.897
314.823
314.904
314.731
314.674
314.534
314.659
314.341
314.229
314.115
313.848
313.628
313.689
310.991
311.279
311.369
311.465
311.493
311.503
311.527
311.706
311.646
311.729
311.548
311.508
311.371
311.532
311.22
311.136
311.028
310.884
310.786
310.744
307.896
308.093
308.176
308.255
308.249
308.279
308.254
308.45
308.404
308.448
308.311
308.25
308.173
308.295
308.061
307.973
307.922
307.854
307.812
307.726
304.806
304.875
304.945
304.987
304.944
305.014
304.989
305.142
305.08
305.121
305.011
304.961
304.921
304.984
304.86
304.812
304.778
304.779
304.736
304.648
301.615
301.619
301.66
301.673
301.65
301.704
301.675
301.742
301.718
301.742
301.685
301.672
301.646
301.656
301.631
301.625
301.604
301.61
301.589
301.583
324.314
324.615
324.519
324.966
325.089
325.121
325.4
325.082
325.259
325.131
325.069
324.87
324.879
324.845
324.552
324.264
323.885
323.741
323.241
323.182
321.327
321.545
321.429
321.882
321.979
321.984
322.275
322.044
322.189
322.034
321.932
321.819
321.8
321.766
321.501
321.298
320.935
320.817
320.401
320.315
318.208
318.39
318.342
318.664
318.755
318.774
319.062
318.86
318.982
318.842
318.71
318.66
318.661
318.612
318.384
318.197
317.858
317.819
317.464
317.365
315.009
315.126
315.184
315.396
315.492
315.533
315.791
315.596
315.697
315.547
315.441
315.417
315.424
315.379
315.182
315.019
314.728
314.729
314.423
314.386
311.719
311.814
311.893
312.062
312.164
312.186
312.382
312.213
312.299
312.187
312.066
312.126
312.102
312.089
311.891
311.726
311.575
311.556
311.265
311.301
308.381
308.502
308.564
308.651
308.702
308.773
308.87
308.773
308.812
308.762
308.644
308.732
308.694
308.701
308.527
308.383
308.35
308.322
308.094
308.132
305.057
305.148
305.188
305.2
305.233
305.329
305.311
305.292
305.296
305.274
305.22
305.28
305.236
305.24
305.143
305.009
305.088
305.027
304.9
304.891
301.701
301.732
301.758
301.743
301.74
301.79
301.774
301.769
301.78
301.77
301.783
301.782
301.771
301.765
301.729
301.678
301.714
301.683
301.659
301.652
325.616
325.792
326.09
326.317
326.538
326.392
326.529
326.576
326.704
326.411
326.521
326.416
326.362
326.174
325.925
325.434
325.323
325.018
324.552
324.439
322.454
322.639
322.832
323.085
323.257
323.175
323.246
323.286
323.388
323.126
323.242
323.118
323.122
322.962
322.688
322.264
322.142
321.891
321.503
321.426
319.177
319.333
319.49
319.71
319.865
319.805
319.887
319.887
319.981
319.744
319.851
319.747
319.783
319.655
319.392
319.052
318.936
318.667
318.378
318.31
315.817
315.958
316.021
316.263
316.406
316.358
316.445
316.445
316.509
316.279
316.353
316.294
316.327
316.246
315.98
315.737
315.664
315.409
315.179
315.137
312.401
312.527
312.541
312.738
312.84
312.823
312.867
312.903
312.982
312.742
312.806
312.764
312.777
312.707
312.488
312.327
312.289
312.05
311.896
311.894
308.906
308.979
308.966
309.173
309.24
309.221
309.263
309.28
309.307
309.14
309.177
309.162
309.147
309.136
308.973
308.845
308.84
308.621
308.526
308.556
305.37
305.399
305.391
305.555
305.565
305.612
305.584
305.598
305.607
305.498
305.573
305.54
305.501
305.481
305.422
305.309
305.361
305.191
305.12
305.157
301.813
301.824
301.816
301.869
301.864
301.898
301.855
301.892
301.877
301.856
301.894
301.888
301.823
301.843
301.817
301.782
301.822
301.747
301.7
301.743
326.734
326.989
327.218
327.415
327.826
327.709
327.864
327.839
327.921
328.052
327.874
327.631
327.71
327.457
327.324
326.901
326.557
326.414
326.011
325.749
323.392
323.658
323.821
324.064
324.378
324.305
324.432
324.37
324.451
324.521
324.447
324.199
324.27
324.031
323.949
323.555
323.252
323.101
322.799
322.563
319.988
320.202
320.339
320.597
320.802
320.803
320.885
320.818
320.866
320.955
320.865
320.671
320.741
320.548
320.442
320.112
319.818
319.717
319.51
319.271
316.486
316.616
316.764
317.003
317.153
317.179
317.241
317.174
317.199
317.287
317.208
317.002
317.138
316.931
316.859
316.577
316.3
316.267
316.158
315.921
312.903
312.968
313.084
313.302
313.44
313.528
313.529
313.455
313.472
313.544
313.458
313.295
313.427
313.245
313.194
312.971
312.772
312.744
312.682
312.487
309.279
309.301
309.349
309.552
309.627
309.763
309.758
309.711
309.674
309.727
309.632
309.559
309.612
309.522
309.491
309.28
309.198
309.193
309.147
308.982
305.59
305.573
305.576
305.76
305.816
305.92
305.86
305.86
305.833
305.853
305.813
305.765
305.776
305.739
305.723
305.589
305.562
305.539
305.546
305.422
301.868
301.872
301.863
301.92
301.942
302.005
301.968
301.97
301.948
301.952
301.97
301.915
301.941
301.927
301.911
301.882
301.866
301.85
301.874
301.828
328.004
328.151
328.302
328.734
329.156
329.011
329.383
329.393
329.302
329.455
329.342
329.262
329.168
328.979
328.652
328.182
327.981
327.533
327.152
326.887
324.57
324.604
324.75
325.163
325.538
325.42
325.755
325.769
325.629
325.8
325.696
325.632
325.573
325.396
325.116
324.659
324.468
324.105
323.74
323.568
320.996
320.994
321.133
321.515
321.807
321.702
321.961
322.033
321.873
322.039
321.933
321.905
321.864
321.691
321.487
321.076
320.852
320.574
320.297
320.13
317.325
317.27
317.452
317.727
317.966
317.911
318.13
318.177
318.06
318.165
318.053
318.063
318.038
317.907
317.744
317.403
317.191
316.983
316.705
316.644
313.539
313.484
313.655
313.843
314.067
314.02
314.193
314.232
314.186
314.23
314.125
314.165
314.145
314.018
313.899
313.631
313.472
313.31
313.062
313.096
309.75
309.616
309.789
309.916
310.142
310.041
310.186
310.241
310.154
310.217
310.13
310.21
310.185
310.037
309.989
309.773
309.694
309.54
309.358
309.441
305.873
305.77
305.857
305.94
306.118
306.07
306.169
306.154
306.089
306.172
306.094
306.165
306.155
306.018
306.023
305.89
305.857
305.741
305.625
305.664
301.96
301.934
301.933
301.986
302.071
302.055
302.068
302.057
302.05
302.064
302.047
302.079
302.066
302.004
302.006
301.995
301.975
301.939
301.88
301.86
329.124
329.472
329.504
329.936
330.312
330.547
330.694
330.826
330.798
330.848
330.946
330.777
330.739
330.363
330.19
329.921
329.292
328.884
328.545
328.054
325.498
325.804
325.793
326.163
326.542
326.77
326.848
326.997
326.908
326.981
327.047
326.934
326.879
326.57
326.421
326.171
325.632
325.249
324.976
324.548
321.771
322.044
322.018
322.349
322.698
322.89
322.901
323.046
322.93
323.052
323.06
323.021
323.011
322.672
322.522
322.314
321.893
321.55
321.324
320.959
317.959
318.175
318.129
318.493
318.716
318.919
318.864
318.984
318.882
318.989
318.988
318.999
319
318.719
318.559
318.392
318.066
317.739
317.608
317.285
314.089
314.218
314.201
314.512
314.671
314.845
314.779
314.855
314.809
314.867
314.871
314.87
314.903
314.689
314.502
314.374
314.175
313.863
313.779
313.531
310.126
310.204
310.235
310.443
310.566
310.697
310.603
310.672
310.686
310.677
310.675
310.654
310.73
310.559
310.401
310.292
310.194
309.925
309.924
309.716
306.099
306.175
306.187
306.296
306.365
306.473
306.366
306.454
306.419
306.432
306.446
306.422
306.467
306.351
306.272
306.196
306.141
305.968
305.987
305.858
302.044
302.07
302.084
302.095
302.144
302.19
302.13
302.167
302.149
302.161
302.158
302.146
302.16
302.124
302.105
302.079
302.083
301.993
302.023
301.98
329.951
330.517
330.859
331.195
331.453
331.958
331.855
332.21
332.221
332.224
332.375
332.028
331.938
331.563
331.091
331.039
330.65
330.309
329.682
329.19
326.213
326.658
327.012
327.265
327.475
327.957
327.931
328.178
328.183
328.188
328.324
328.044
328.009
327.594
327.162
327.157
326.8
326.463
325.964
325.565
322.377
322.754
323.061
323.245
323.408
323.865
323.866
324.075
324.011
324.019
324.144
323.942
323.941
323.503
323.169
323.179
322.834
322.54
322.165
321.819
318.449
318.758
318.982
319.176
319.276
319.69
319.667
319.882
319.769
319.787
319.871
319.728
319.73
319.341
319.091
319.127
318.832
318.578
318.282
318.008
314.404
314.65
314.824
314.985
315.048
315.452
315.373
315.568
315.459
315.438
315.557
315.389
315.426
315.105
314.909
314.994
314.758
314.536
314.314
314.091
310.344
310.493
310.625
310.759
310.806
311.149
311.048
311.172
311.09
311.037
311.196
311.027
311.077
310.82
310.73
310.774
310.6
310.439
310.271
310.129
306.211
306.294
306.392
306.472
306.531
306.729
306.675
306.758
306.642
306.636
306.739
306.639
306.695
306.498
306.494
306.475
306.4
306.311
306.177
306.111
302.1
302.089
302.146
302.161
302.207
302.256
302.235
302.28
302.226
302.224
302.251
302.237
302.252
302.174
302.194
302.162
302.174
302.117
302.078
302.032
331.094
331.568
332.239
332.352
332.707
333.105
333.177
333.537
333.728
333.442
333.495
333.406
333.141
332.804
332.621
332.321
331.994
331.533
330.708
330.314
327.172
327.606
328.27
328.328
328.576
328.963
329.055
329.353
329.512
329.255
329.276
329.212
328.984
328.667
328.539
328.257
327.961
327.564
326.873
326.494
323.194
323.554
324.158
324.14
324.335
324.713
324.843
325.025
325.182
324.967
324.927
324.931
324.74
324.409
324.335
324.151
323.86
323.481
322.94
322.569
319.144
319.386
319.901
319.884
320.013
320.379
320.476
320.613
320.769
320.582
320.509
320.514
320.393
320.098
320.034
319.914
319.634
319.313
318.882
318.579
315.014
315.143
315.544
315.507
315.69
315.945
315.988
316.132
316.284
316.086
316.055
316.003
315.934
315.695
315.649
315.603
315.343
315.07
314.792
314.563
310.823
310.822
311.155
311.09
311.298
311.449
311.428
311.56
311.665
311.553
311.475
311.475
311.452
311.246
311.209
311.205
311.029
310.748
310.629
310.444
306.55
306.479
306.714
306.644
306.802
306.895
306.866
306.952
307.024
306.942
306.856
306.919
306.918
306.752
306.749
306.751
306.684
306.475
306.436
306.308
302.19
302.196
302.277
302.221
302.291
302.324
302.306
302.335
302.357
302.338
302.292
302.345
302.321
302.265
302.262
302.278
302.253
302.177
302.164
302.107
332.182
332.811
333.26
333.581
333.919
334.136
334.521
334.763
334.827
334.717
334.895
334.743
334.385
334.205
333.759
333.511
333.198
332.555
331.801
331.403
328.121
328.7
329.091
329.405
329.612
329.888
330.162
330.42
330.452
330.336
330.549
330.406
330.037
329.928
329.517
329.317
329.009
328.449
327.767
327.452
324.017
324.475
324.834
325.109
325.241
325.525
325.719
325.975
325.985
325.882
326.082
325.929
325.615
325.54
325.154
325.005
324.732
324.265
323.676
323.424
319.756
320.166
320.489
320.683
320.804
321.018
321.173
321.371
321.387
321.364
321.46
321.368
321.122
321.013
320.721
320.617
320.375
319.998
319.485
319.27
315.427
315.763
316.039
316.142
316.278
316.428
316.531
316.686
316.737
316.734
316.761
316.712
316.548
316.357
316.2
316.108
315.939
315.668
315.254
315.096
311.037
311.268
311.516
311.58
311.682
311.723
311.843
311.975
312.002
312.033
312.028
311.946
311.911
311.695
311.63
311.533
311.437
311.263
310.907
310.853
306.623
306.766
306.913
306.959
307.059
307.065
307.137
307.219
307.214
307.266
307.242
307.189
307.199
306.997
307.042
306.894
306.893
306.816
306.583
306.526
302.236
302.246
302.329
302.353
302.366
302.375
302.41
302.426
302.397
302.449
302.423
302.41
302.422
302.35
302.373
302.302
302.308
302.27
302.197
302.199
333.127
334.024
334.358
334.692
335.086
335.095
335.504
336.07
336.004
335.972
336.139
335.87
335.85
335.478
335.156
334.611
334.236
333.802
332.986
332.61
328.96
329.745
330.036
330.351
330.667
330.696
331.009
331.547
331.484
331.483
331.6
331.33
331.348
331.004
330.698
330.264
329.933
329.563
328.847
328.531
324.708
325.343
325.633
325.862
326.159
326.225
326.436
326.897
326.859
326.854
327.035
326.722
326.737
326.419
326.14
325.779
325.519
325.2
324.567
324.338
320.362
320.864
321.1
321.269
321.534
321.607
321.77
322.135
322.133
322.141
322.287
321.983
321.997
321.74
321.511
321.251
321.009
320.735
320.218
320.132
315.93
316.293
316.51
316.59
316.812
316.882
317.014
317.265
317.337
317.311
317.42
317.207
317.219
316.991
316.813
316.628
316.414
316.204
315.856
315.721
311.452
311.685
311.875
311.872
312.071
312.102
312.205
312.367
312.495
312.433
312.524
312.347
312.391
312.169
312.088
311.955
311.769
311.642
311.364
311.274
306.908
307.06
307.122
307.141
307.281
307.307
307.385
307.473
307.553
307.518
307.547
307.422
307.526
307.336
307.308
307.2
307.102
307.04
306.83
306.765
302.338
302.393
302.375
302.383
302.441
302.435
302.463
302.519
302.53
302.525
302.538
302.493
302.523
302.471
302.472
302.401
302.398
302.385
302.279
302.266
333.935
334.938
335.431
335.853
336.073
336.635
336.746
337.123
337.2
337.242
337.054
337.042
336.973
336.618
336.258
335.773
335.144
334.998
334.196
333.484
329.655
330.538
330.975
331.306
331.496
331.996
332.09
332.401
332.525
332.527
332.375
332.383
332.296
332.033
331.697
331.314
330.716
330.627
329.896
329.263
325.258
326.03
326.399
326.656
326.823
327.268
327.312
327.613
327.714
327.683
327.575
327.651
327.557
327.32
327.022
326.731
326.225
326.123
325.481
325.006
320.82
321.449
321.732
321.925
322.106
322.482
322.451
322.704
322.817
322.78
322.725
322.801
322.729
322.476
322.263
322.062
321.629
321.482
321.014
320.643
316.294
316.773
317.011
317.135
317.246
317.55
317.553
317.73
317.814
317.846
317.779
317.866
317.776
317.583
317.404
317.256
316.967
316.801
316.451
316.21
311.759
312.037
312.183
312.244
312.371
312.553
312.581
312.692
312.779
312.801
312.788
312.836
312.759
312.625
312.464
312.358
312.225
312.037
311.841
311.655
307.091
307.21
307.343
307.355
307.437
307.528
307.572
307.652
307.7
307.718
307.711
307.719
307.682
307.608
307.505
307.44
307.399
307.232
307.132
307.026
302.391
302.419
302.459
302.466
302.497
302.521
302.528
302.569
302.577
302.586
302.588
302.599
302.589
302.556
302.505
302.494
302.502
302.456
302.392
302.368
334.855
335.736
336.222
336.774
337.223
337.582
337.859
338.068
338.207
338.249
338.048
338.051
337.964
337.577
337.108
337.008
336.253
335.843
335.164
334.633
330.459
331.276
331.666
332.179
332.516
332.82
333.087
333.291
333.377
333.438
333.252
333.265
333.194
332.886
332.409
332.308
331.684
331.349
330.742
330.222
325.957
326.673
327.005
327.433
327.742
328.003
328.212
328.354
328.482
328.53
328.339
328.386
328.264
328.112
327.649
327.51
327.03
326.736
326.243
325.774
321.414
321.95
322.235
322.613
322.875
323.059
323.233
323.377
323.503
323.481
323.334
323.387
323.263
323.195
322.803
322.69
322.276
321.97
321.59
321.248
316.781
317.147
317.378
317.719
317.876
318.045
318.204
318.28
318.424
318.338
318.264
318.288
318.211
318.158
317.83
317.79
317.428
317.178
316.908
316.645
312.018
312.316
312.456
312.727
312.809
312.965
313.081
313.078
313.221
313.18
313.122
313.079
313.075
313.02
312.8
312.814
312.491
312.311
312.151
311.943
307.234
307.434
307.512
307.675
307.721
307.817
307.898
307.871
307.945
307.958
307.885
307.872
307.881
307.88
307.729
307.736
307.489
307.42
307.313
307.233
302.436
302.505
302.504
302.582
302.595
302.614
302.674
302.662
302.65
302.673
302.639
302.646
302.66
302.638
302.585
302.606
302.49
302.493
302.456
302.421
336.025
336.627
337.128
337.702
338.067
338.553
338.868
339.015
339.218
339.216
339.151
339.198
339.124
338.804
338.36
337.783
337.035
336.741
336.169
335.747
331.478
332.037
332.405
332.95
333.263
333.664
333.997
334.058
334.278
334.266
334.217
334.235
334.166
333.927
333.515
332.997
332.278
332.094
331.553
331.225
326.805
327.35
327.62
328.117
328.396
328.626
328.995
329.032
329.23
329.183
329.155
329.187
329.105
328.948
328.571
328.103
327.447
327.35
326.84
326.603
322.144
322.557
322.735
323.196
323.398
323.536
323.868
323.888
324.088
324.033
323.981
324.036
323.947
323.855
323.483
323.127
322.555
322.499
322.1
321.901
317.353
317.66
317.779
318.173
318.301
318.379
318.676
318.661
318.876
318.82
318.735
318.813
318.704
318.681
318.346
318.076
317.621
317.556
317.245
317.111
312.495
312.642
312.77
313.032
313.166
313.2
313.396
313.39
313.565
313.468
313.384
313.493
313.423
313.398
313.155
312.965
312.634
312.558
312.36
312.283
307.523
307.628
307.697
307.845
307.939
307.973
308.061
308.073
308.152
308.092
308.054
308.121
308.072
308.093
307.917
307.787
307.611
307.56
307.432
307.388
302.517
302.563
302.582
302.618
302.681
302.67
302.723
302.712
302.723
302.716
302.691
302.707
302.705
302.715
302.646
302.615
302.582
302.538
302.476
302.468
336.628
337.343
337.951
338.746
339.032
339.488
339.855
340.095
340.19
340.268
340.167
340.426
339.959
339.582
339.021
338.78
338.09
337.789
337.165
336.448
332.005
332.682
333.176
333.835
334.109
334.489
334.847
335.061
335.153
335.182
335.097
335.294
334.894
334.601
334.041
333.822
333.211
332.993
332.469
331.852
327.318
327.93
328.284
328.817
329.09
329.362
329.694
329.866
329.977
330.019
329.964
330.036
329.728
329.499
328.969
328.853
328.236
328.115
327.703
327.114
322.518
323.032
323.279
323.731
323.984
324.177
324.428
324.561
324.701
324.714
324.676
324.698
324.448
324.3
323.877
323.776
323.237
323.19
322.812
322.305
317.626
318.03
318.204
318.59
318.776
318.925
319.11
319.178
319.288
319.32
319.25
319.294
319.127
318.999
318.688
318.596
318.175
318.14
317.805
317.419
312.682
312.917
313.088
313.353
313.47
313.527
313.676
313.752
313.844
313.847
313.8
313.832
313.714
313.611
313.389
313.33
313.031
313.034
312.763
312.452
307.629
307.785
307.909
308.056
308.116
308.122
308.239
308.299
308.356
308.358
308.287
308.324
308.279
308.189
308.053
308.01
307.851
307.838
307.702
307.458
302.552
302.615
302.666
302.707
302.721
302.732
302.756
302.793
302.806
302.799
302.792
302.79
302.78
302.747
302.674
302.68
302.633
302.623
302.571
302.497
337.404
337.992
338.602
339.366
340.04
340.416
340.704
341.104
341.215
341.214
341.227
341.094
340.73
340.449
340.066
339.793
338.985
338.627
337.848
337.119
332.676
333.205
333.737
334.384
334.962
335.274
335.519
335.857
336.008
335.998
336.028
335.914
335.578
335.306
334.962
334.739
334.025
333.677
333.023
332.42
327.807
328.281
328.772
329.3
329.75
330.001
330.247
330.523
330.715
330.653
330.761
330.595
330.322
330.085
329.734
329.579
328.99
328.655
328.109
327.628
322.885
323.313
323.678
324.143
324.467
324.668
324.935
325.083
325.337
325.262
325.334
325.205
324.996
324.776
324.445
324.347
323.894
323.587
323.137
322.731
317.895
318.229
318.533
318.886
319.148
319.269
319.506
319.612
319.827
319.787
319.802
319.691
319.544
319.39
319.105
319.049
318.728
318.45
318.05
317.757
312.858
313.079
313.323
313.557
313.782
313.794
313.992
314.091
314.227
314.22
314.208
314.157
313.975
313.951
313.66
313.643
313.467
313.25
312.959
312.729
307.712
307.913
308.029
308.193
308.329
308.296
308.378
308.483
308.567
308.558
308.556
308.543
308.421
308.402
308.222
308.211
308.139
307.985
307.802
307.654
302.588
302.663
302.684
302.738
302.794
302.779
302.802
302.85
302.878
302.852
302.876
302.877
302.84
302.785
302.759
302.783
302.738
302.668
302.627
302.564
338.119
338.772
339.342
340.001
340.537
340.935
341.409
341.812
341.869
341.852
341.997
341.889
341.543
341.337
340.902
340.645
340.04
339.212
338.592
337.838
333.306
333.871
334.38
334.923
335.419
335.686
336.186
336.53
336.588
336.599
336.665
336.601
336.257
336.1
335.671
335.521
334.925
334.195
333.668
333.058
328.388
328.838
329.293
329.719
330.149
330.377
330.851
331.098
331.214
331.184
331.256
331.205
330.881
330.761
330.347
330.219
329.729
329.09
328.649
328.184
323.35
323.713
324.077
324.485
324.807
325.008
325.395
325.575
325.702
325.648
325.724
325.723
325.408
325.306
324.995
324.849
324.47
323.941
323.552
323.225
318.242
318.522
318.822
319.169
319.35
319.548
319.84
320.003
320.08
320.057
320.102
320.159
319.828
319.795
319.556
319.388
319.119
318.719
318.402
318.163
313.093
313.241
313.506
313.754
313.856
314.02
314.233
314.366
314.409
314.422
314.418
314.49
314.214
314.24
314.021
313.885
313.7
313.449
313.202
313.024
307.889
307.927
308.125
308.297
308.318
308.442
308.582
308.652
308.669
308.691
308.683
308.766
308.573
308.567
308.449
308.35
308.235
308.119
307.928
307.858
302.644
302.637
302.741
302.804
302.795
302.828
302.904
302.911
302.896
302.909
302.909
302.948
302.867
302.886
302.839
302.782
302.769
302.743
302.673
302.647
338.627
339.291
340.069
340.726
341.237
341.449
341.914
342.182
342.368
342.536
342.427
342.513
342.056
341.997
341.447
341.204
340.416
340.044
339.146
338.47
333.77
334.326
334.972
335.595
336.002
336.177
336.56
336.843
336.97
337.132
337.039
337.116
336.671
336.641
336.164
335.939
335.265
334.97
334.159
333.573
328.812
329.263
329.751
330.321
330.668
330.784
331.123
331.393
331.451
331.589
331.547
331.601
331.258
331.231
330.783
330.607
330.045
329.778
329.123
328.566
323.765
324.111
324.483
324.955
325.246
325.308
325.597
325.822
325.853
325.989
325.951
326.034
325.68
325.694
325.317
325.191
324.723
324.502
323.975
323.491
318.636
318.864
319.139
319.478
319.721
319.746
320.022
320.193
320.192
320.342
320.253
320.345
320.094
320.105
319.787
319.677
319.26
319.152
318.779
318.351
313.395
313.54
313.733
313.956
314.15
314.126
314.365
314.496
314.459
314.586
314.513
314.581
314.425
314.398
314.194
314.159
313.832
313.785
313.486
313.183
308.067
308.149
308.28
308.393
308.496
308.511
308.687
308.717
308.68
308.784
308.735
308.769
308.668
308.632
308.544
308.559
308.357
308.311
308.109
307.948
302.703
302.717
302.807
302.833
302.852
302.87
302.918
302.942
302.912
302.949
302.922
302.939
302.884
302.888
302.872
302.859
302.815
302.787
302.729
302.667
339.094
339.441
340.326
341.042
341.59
341.762
342.249
342.616
342.635
342.885
342.829
342.771
342.495
342.387
341.838
341.534
340.888
340.354
339.499
338.764
334.136
334.451
335.196
335.851
336.297
336.458
336.805
337.22
337.209
337.422
337.343
337.328
337.095
336.975
336.446
336.228
335.681
335.208
334.454
333.739
329.067
329.33
329.937
330.52
330.937
331.073
331.339
331.714
331.628
331.845
331.82
331.782
331.615
331.537
331.014
330.827
330.371
329.911
329.299
328.665
323.912
324.129
324.564
325.077
325.469
325.623
325.791
326.143
326.038
326.173
326.201
326.1
326.042
325.982
325.514
325.354
324.988
324.573
324.073
323.48
318.695
318.833
319.153
319.56
319.9
320.083
320.145
320.456
320.355
320.424
320.473
320.375
320.367
320.32
319.936
319.845
319.516
319.221
318.806
318.306
313.406
313.492
313.694
314.02
314.288
314.419
314.473
314.702
314.599
314.608
314.709
314.588
314.596
314.575
314.313
314.251
313.981
313.818
313.463
313.175
308.043
308.108
308.269
308.457
308.622
308.681
308.702
308.851
308.813
308.773
308.877
308.776
308.776
308.77
308.612
308.605
308.399
308.358
308.135
307.946
302.678
302.716
302.774
302.847
302.88
302.913
302.92
302.964
302.97
302.942
302.971
302.934
302.954
302.929
302.866
302.886
302.827
302.818
302.732
302.682
)
;

boundaryField
{
    hotSide
    {
        type            fixedGradient;
        gradient        nonuniform List<scalar> 
400
(
192.462
205.006
217.617
230.242
242.823
255.301
267.618
279.712
291.525
302.997
314.068
324.681
334.782
344.316
353.234
361.489
369.038
375.841
381.865
387.078
194.294
207.2
220.183
233.188
246.156
259.026
271.738
284.229
296.437
308.302
319.761
330.755
341.228
351.124
360.391
368.981
376.848
383.952
390.256
395.729
195.675
208.912
222.236
235.59
248.914
262.146
275.222
288.08
300.654
312.883
324.702
336.052
346.872
357.105
366.699
375.602
383.768
391.155
397.725
403.445
196.646
210.181
223.814
237.484
251.13
264.69
278.098
291.289
304.198
316.759
328.908
340.582
351.721
362.265
372.16
381.352
389.795
397.444
404.261
410.211
197.251
211.051
224.956
238.907
252.841
266.693
280.397
293.886
307.094
319.953
332.399
344.365
355.791
366.616
376.782
386.237
394.932
402.82
409.862
416.023
197.536
211.564
225.706
239.901
254.084
268.19
282.152
295.902
309.372
322.493
335.198
347.422
359.101
370.173
380.58
390.268
399.185
407.286
414.529
420.879
197.546
211.765
226.105
240.504
254.898
269.219
283.399
297.37
311.061
324.405
337.332
349.775
361.67
372.954
383.568
393.455
402.565
410.85
418.267
424.781
197.32
211.692
226.191
240.755
255.318
269.812
284.169
298.319
312.191
325.716
338.824
351.446
363.519
374.977
385.761
395.814
405.083
413.52
421.083
427.734
196.896
211.381
225.999
240.686
255.376
270.001
284.491
298.777
312.787
326.45
339.696
352.457
364.665
376.258
387.174
397.355
406.749
415.306
422.984
429.743
196.301
210.859
225.554
240.322
255.096
269.808
284.388
298.765
312.868
326.625
339.966
352.822
365.125
376.811
387.819
398.091
407.572
416.215
423.975
430.813
195.556
210.148
224.878
239.684
254.498
269.253
283.877
298.3
312.45
326.256
339.647
352.553
364.908
376.645
387.704
398.027
407.559
416.251
424.059
430.945
194.675
209.258
223.982
238.782
253.592
268.344
282.967
297.39
311.542
325.35
338.745
351.657
364.019
375.765
386.834
397.167
406.712
415.417
423.24
430.14
193.661
208.194
222.868
237.619
252.38
267.083
281.659
296.036
310.143
323.909
337.262
350.135
362.459
374.171
385.207
395.512
405.029
413.711
421.514
428.397
192.507
206.949
221.531
236.189
250.857
265.467
279.949
294.234
308.25
321.926
335.193
347.981
360.224
371.858
382.82
393.055
402.508
411.131
418.879
425.714
191.2
205.51
219.957
234.479
249.009
263.48
277.824
291.971
305.85
319.392
332.526
345.186
357.304
368.817
379.666
389.791
399.142
407.669
415.329
422.084
189.718
203.856
218.127
232.469
246.818
261.106
275.267
289.231
302.929
316.291
329.249
341.736
353.688
365.04
375.733
385.712
394.923
403.32
410.86
417.505
188.033
201.959
216.013
230.134
244.259
258.322
272.256
285.993
299.466
312.606
325.345
337.618
349.361
360.512
371.012
380.806
389.844
398.078
405.466
411.973
186.116
199.79
213.587
227.446
241.306
255.101
268.767
282.236
295.441
308.317
320.796
332.815
344.311
355.222
365.493
375.069
383.899
391.939
399.147
405.488
183.93
197.316
210.818
224.376
237.931
251.418
264.775
277.935
290.834
303.406
315.587
327.314
338.525
349.162
359.169
368.493
377.086
384.902
391.903
398.054
181.443
194.504
207.674
220.894
234.106
247.248
260.258
273.072
285.627
297.859
309.705
321.104
331.997
342.327
352.038
361.08
369.407
376.974
383.744
389.683
)
;
    }
    coldSide
    {
        type            mixed;
        refValue        uniform 300;
        refGradient     uniform 0;
        valueFraction   uniform 0.991591;
        source          uniform 0;
        value           nonuniform List<scalar> 
400
(
300.013
300.013
300.014
300.014
300.015
300.016
300.016
300.017
300.018
300.018
300.019
300.02
300.02
300.02
300.021
300.021
300.022
300.022
300.023
300.023
300.013
300.013
300.014
300.015
300.015
300.016
300.016
300.017
300.018
300.018
300.019
300.02
300.02
300.021
300.022
300.022
300.022
300.022