/*--------------------------------*- C++ -*----------------------------------*\
| =========                 |                                                 |
| \\      /  F ield         | OpenFOAM: The Open Source CFD Toolbox           |
|  \\    /   O peration     | Version:  2212                                  |
|   \\  /    A nd           | Website:  www.openfoam.com                      |
|    \\/     M anipulation  |                                                 |
\*---------------------------------------------------------------------------*/
FoamFile
{
    version     2.0;
    format      ascii;
    arch        "LSB;label=32;scalar=64";
    class       volScalarField;
    location    "./ITHACAoutput/true/11.5";
    object      trueState;
}
// * * * * * * * * * * * * * * * * * * * * * * * * * * * * * * * * * * * * * //

dimensions      [0 0 0 1 0 0 0];

internalField   nonuniform List<scalar> 
3200
(
321.897
322.293
322.799
323.35
323.918
324.475
324.99
325.424
325.74
325.907
325.907
325.74
325.424
324.99
324.475
323.918
323.35
322.799
322.293
321.897
319.069
319.404
319.841
320.318
320.809
321.291
321.735
322.111
322.384
322.528
322.528
322.384
322.111
321.735
321.291
320.809
320.318
319.841
319.404
319.069
316.203
316.481
316.848
317.251
317.666
318.074
318.449
318.766
318.996
319.118
319.118
318.996
318.766
318.449
318.074
317.666
317.251
316.848
316.481
316.203
313.304
313.528
313.827
314.156
314.496
314.828
315.135
315.394
315.582
315.681
315.681
315.582
315.394
315.135
314.828
314.496
314.156
313.827
313.528
313.304
310.378
310.55
310.782
311.038
311.302
311.56
311.799
311.999
312.145
312.222
312.222
312.145
311.999
311.799
311.56
311.302
311.038
310.782
310.55
310.378
307.431
307.553
307.719
307.901
308.09
308.274
308.444
308.588
308.692
308.747
308.747
308.692
308.588
308.444
308.274
308.09
307.901
307.719
307.553
307.431
304.47
304.542
304.642
304.751
304.865
304.975
305.077
305.163
305.226
305.259
305.259
305.226
305.163
305.077
304.975
304.865
304.751
304.642
304.542
304.47
301.499
301.524
301.557
301.594
301.632
301.669
301.703
301.732
301.753
301.764
301.764
301.753
301.732
301.703
301.669
301.632
301.594
301.557
301.524
301.499
321.96
322.353
322.854
323.4
323.962
324.513
325.022
325.451
325.763
325.928
325.928
325.763
325.451
325.022
324.513
323.962
323.4
322.854
322.353
321.96
319.124
319.456
319.889
320.361
320.848
321.324
321.764
322.134
322.404
322.546
322.546
322.404
322.134
321.764
321.324
320.848
320.361
319.889
319.456
319.124
316.249
316.525
316.889
317.289
317.7
318.102
318.473
318.786
319.014
319.134
319.134
319.014
318.786
318.473
318.102
317.7
317.289
316.889
316.525
316.249
313.342
313.564
313.861
314.187
314.523
314.852
315.155
315.411
315.596
315.694
315.694
315.596
315.411
315.155
314.852
314.523
314.187
313.861
313.564
313.342
310.408
310.578
310.809
311.062
311.323
311.579
311.814
312.013
312.157
312.233
312.233
312.157
312.013
311.814
311.579
311.323
311.062
310.809
310.578
310.408
307.453
307.573
307.738
307.919
308.105
308.288
308.456
308.597
308.7
308.754
308.754
308.7
308.597
308.456
308.288
308.105
307.919
307.738
307.573
307.453
304.483
304.555
304.653
304.762
304.874
304.983
305.084
305.169
305.231
305.264
305.264
305.231
305.169
305.084
304.983
304.874
304.762
304.653
304.555
304.483
301.504
301.528
301.561
301.597
301.635
301.671
301.705
301.734
301.754
301.765
301.765
301.754
301.734
301.705
301.671
301.635
301.597
301.561
301.528
301.504
322.086
322.473
322.966
323.502
324.052
324.591
325.088
325.506
325.81
325.971
325.971
325.81
325.506
325.088
324.591
324.052
323.502
322.966
322.473
322.086
319.234
319.561
319.986
320.45
320.926
321.393
321.822
322.183
322.446
322.585
322.585
322.446
322.183
321.822
321.393
320.926
320.45
319.986
319.561
319.234
316.342
316.614
316.972
317.364
317.767
318.161
318.523
318.828
319.05
319.167
319.167
319.05
318.828
318.523
318.161
317.767
317.364
316.972
316.614
316.342
313.418
313.637
313.929
314.249
314.578
314.9
315.197
315.446
315.627
315.722
315.722
315.627
315.446
315.197
314.9
314.578
314.249
313.929
313.637
313.418
310.467
310.635
310.862
311.11
311.366
311.617
311.847
312.04
312.181
312.255
312.255
312.181
312.04
311.847
311.617
311.366
311.11
310.862
310.635
310.467
307.495
307.614
307.776
307.953
308.136
308.315
308.479
308.617
308.717
308.77
308.77
308.717
308.617
308.479
308.315
308.136
307.953
307.776
307.614
307.495
304.508
304.579
304.676
304.783
304.892
305
305.098
305.181
305.241
305.273
305.273
305.241
305.181
305.098
305
304.892
304.783
304.676
304.579
304.508
301.512
301.536
301.568
301.604
301.641
301.677
301.71
301.738
301.758
301.768
301.768
301.758
301.738
301.71
301.677
301.641
301.604
301.568
301.536
301.512
322.276
322.654
323.134
323.656
324.19
324.712
325.191
325.595
325.888
326.042
326.042
325.888
325.595
325.191
324.712
324.19
323.656
323.134
322.654
322.276
319.399
319.719
320.133
320.584
321.047
321.498
321.913
322.262
322.515
322.648
322.648
322.515
322.262
321.913
321.498
321.047
320.584
320.133
319.719
319.399
316.483
316.748
317.097
317.478
317.869
318.251
318.601
318.895
319.109
319.221
319.221
319.109
318.895
318.601
318.251
317.869
317.478
317.097
316.748
316.483
313.534
313.747
314.032
314.343
314.663
314.975
315.261
315.501
315.676
315.767
315.767
315.676
315.501
315.261
314.975
314.663
314.343
314.032
313.747
313.534
310.557
310.721
310.942
311.184
311.433
311.675
311.897
312.084
312.219
312.291
312.291
312.219
312.084
311.897
311.675
311.433
311.184
310.942
310.721
310.557
307.56
307.676
307.833
308.006
308.183
308.357
308.515
308.649
308.745
308.796
308.796
308.745
308.649
308.515
308.357
308.183
308.006
307.833
307.676
307.56
304.547
304.616
304.711
304.814
304.921
305.025
305.12
305.2
305.258
305.289
305.289
305.258
305.2
305.12
305.025
304.921
304.814
304.711
304.616
304.547
301.525
301.548
301.58
301.615
301.65
301.685
301.717
301.744
301.763
301.774
301.774
301.763
301.744
301.717
301.685
301.65
301.615
301.58
301.548
301.525
322.531
322.898
323.362
323.865
324.378
324.879
325.337
325.721
326
326.147
326.147
326
325.721
325.337
324.879
324.378
323.865
323.362
322.898
322.531
319.621
319.931
320.332
320.767
321.212
321.644
322.041
322.373
322.614
322.741
322.741
322.614
322.373
322.041
321.644
321.212
320.767
320.332
319.931
319.621
316.672
316.929
317.266
317.634
318.01
318.376
318.711
318.991
319.194
319.301
319.301
319.194
318.991
318.711
318.376
318.01
317.634
317.266
316.929
316.672
313.689
313.896
314.171
314.471
314.779
315.078
315.351
315.581
315.746
315.834
315.834
315.746
315.581
315.351
315.078
314.779
314.471
314.171
313.896
313.689
310.678
310.837
311.051
311.284
311.523
311.755
311.968
312.146
312.275
312.343
312.343
312.275
312.146
311.968
311.755
311.523
311.284
311.051
310.837
310.678
307.646
307.759
307.911
308.078
308.248
308.414
308.566
308.693
308.785
308.834
308.834
308.785
308.693
308.566
308.414
308.248
308.078
307.911
307.759
307.646
304.599
304.666
304.758
304.858
304.96
305.06
305.151
305.227
305.282
305.311
305.311
305.282
305.227
305.151
305.06
304.96
304.858
304.758
304.666
304.599
301.543
301.565
301.596
301.629
301.664
301.697
301.728
301.753
301.772
301.781
301.781
301.772
301.753
301.728
301.697
301.664
301.629
301.596
301.565
301.543
322.853
323.206
323.652
324.132
324.622
325.097
325.53
325.893
326.155
326.293
326.293
326.155
325.893
325.53
325.097
324.622
324.132
323.652
323.206
322.853
319.901
320.2
320.584
321
321.424
321.835
322.21
322.524
322.751
322.87
322.87
322.751
322.524
322.21
321.835
321.424
321
320.584
320.2
319.901
316.91
317.157
317.481
317.833
318.191
318.539
318.856
319.12
319.312
319.412
319.412
319.312
319.12
318.856
318.539
318.191
317.833
317.481
317.157
316.91
313.884
314.083
314.347
314.635
314.928
315.212
315.471
315.687
315.844
315.926
315.926
315.844
315.687
315.471
315.212
314.928
314.635
314.347
314.083
313.884
310.831
310.984
311.188
311.412
311.64
311.86
312.062
312.23
312.351
312.415
312.415
312.351
312.23
312.062
311.86
311.64
311.412
311.188
310.984
310.831
307.755
307.864
308.01
308.169
308.332
308.49
308.634
308.754
308.84
308.886
308.886
308.84
308.754
308.634
308.49
308.332
308.169
308.01
307.864
307.755
304.665
304.729
304.817
304.913
305.01
305.105
305.191
305.264
305.316
305.343
305.343
305.316
305.264
305.191
305.105
305.01
304.913
304.817
304.729
304.665
301.565
301.586
301.616
301.648
301.681
301.712
301.741
301.765
301.783
301.792
301.792
301.783
301.765
301.741
301.712
301.681
301.648
301.616
301.586
301.565
323.243
323.58
324.005
324.461
324.924
325.371
325.778
326.117
326.361
326.489
326.489
326.361
326.117
325.778
325.371
324.924
324.461
324.005
323.58
323.243
320.241
320.526
320.893
321.288
321.688
322.075
322.427
322.72
322.932
323.042
323.042
322.932
322.72
322.427
322.075
321.688
321.288
320.893
320.526
320.241
317.198
317.435
317.744
318.077
318.416
318.743
319.041
319.288
319.467
319.56
319.56
319.467
319.288
319.041
318.743
318.416
318.077
317.744
317.435
317.198
314.121
314.311
314.563
314.836
315.113
315.38
315.624
315.826
315.972
316.048
316.048
315.972
315.826
315.624
315.38
315.113
314.836
314.563
314.311
314.121
311.015
311.162
311.357
311.569
311.784
311.992
312.181
312.338
312.452
312.511
312.511
312.452
312.338
312.181
311.992
311.784
311.569
311.357
311.162
311.015
307.888
307.991
308.13
308.282
308.436
308.584
308.719
308.832
308.912
308.955
308.955
308.912
308.832
308.719
308.584
308.436
308.282
308.13
307.991
307.888
304.744
304.806
304.89
304.981
305.073
305.162
305.243
305.311
305.359
305.385
305.385
305.359
305.311
305.243
305.162
305.073
304.981
304.89
304.806
304.744
301.591
301.612
301.64
301.671
301.701
301.731
301.759
301.781
301.797
301.806
301.806
301.797
301.781
301.759
301.731
301.701
301.671
301.64
301.612
301.591
323.704
324.024
324.426
324.856
325.29
325.707
326.085
326.399
326.625
326.743
326.743
326.625
326.399
326.085
325.707
325.29
324.856
324.426
324.024
323.704
320.642
320.913
321.26
321.632
322.008
322.369
322.696
322.968
323.163
323.266
323.266
323.163
322.968
322.696
322.369
322.008
321.632
321.26
320.913
320.642
317.539
317.763
318.056
318.37
318.688
318.994
319.27
319.5
319.665
319.751
319.751
319.665
319.5
319.27
318.994
318.688
318.37
318.056
317.763
317.539
314.4
314.581
314.82
315.077
315.337
315.587
315.813
316
316.135
316.206
316.206
316.135
316
315.813
315.587
315.337
315.077
314.82
314.581
314.4
311.233
311.372
311.557
311.757
311.959
312.154
312.329
312.475
312.58
312.635
312.635
312.58
312.475
312.329
312.154
311.959
311.757
311.557
311.372
311.233
308.044
308.142
308.274
308.417
308.561
308.7
308.826
308.93
309.004
309.044
309.044
309.004
308.93
308.826
308.7
308.561
308.417
308.274
308.142
308.044
304.838
304.897
304.976
305.062
305.148
305.232
305.307
305.37
305.415
305.438
305.438
305.415
305.37
305.307
305.232
305.148
305.062
304.976
304.897
304.838
301.623
301.643
301.669
301.698
301.727
301.755
301.78
301.801
301.816
301.824
301.824
301.816
301.801
301.78
301.755
301.727
301.698
301.669
301.643
301.623
324.236
324.538
324.917
325.319
325.724
326.111
326.46
326.748
326.955
327.063
327.063
326.955
326.748
326.46
326.111
325.724
325.319
324.917
324.538
324.236
321.105
321.361
321.688
322.036
322.386
322.722
323.024
323.273
323.452
323.546
323.546
323.452
323.273
323.024
322.722
322.386
322.036
321.688
321.361
321.105
317.932
318.145
318.42
318.714
319.011
319.294
319.549
319.761
319.912
319.991
319.991
319.912
319.761
319.549
319.294
319.011
318.714
318.42
318.145
317.932
314.724
314.894
315.119
315.36
315.602
315.834
316.043
316.215
316.339
316.404
316.404
316.339
316.215
316.043
315.834
315.602
315.36
315.119
314.894
314.724
311.485
311.617
311.791
311.978
312.166
312.347
312.509
312.643
312.739
312.79
312.79
312.739
312.643
312.509
312.347
312.166
311.978
311.791
311.617
311.485
308.224
308.317
308.441
308.575
308.71
308.838
308.954
309.05
309.119
309.155
309.155
309.119
309.05
308.954
308.838
308.71
308.575
308.441
308.317
308.224
304.947
305.002
305.077
305.157
305.238
305.315
305.385
305.442
305.484
305.505
305.505
305.484
305.442
305.385
305.315
305.238
305.157
305.077
305.002
304.947
301.659
301.678
301.703
301.73
301.757
301.783
301.806
301.825
301.839
301.846
301.846
301.839
301.825
301.806
301.783
301.757
301.73
301.703
301.678
301.659
324.842
325.126
325.48
325.855
326.229
326.586
326.906
327.17
327.358
327.456
327.456
327.358
327.17
326.906
326.586
326.229
325.855
325.48
325.126
324.842
321.633
321.873
322.179
322.503
322.828
323.137
323.414
323.642
323.805
323.89
323.89
323.805
323.642
323.414
323.137
322.828
322.503
322.179
321.873
321.633
318.381
318.58
318.837
319.112
319.386
319.648
319.882
320.075
320.213
320.284
320.284
320.213
320.075
319.882
319.648
319.386
319.112
318.837
318.58
318.381
315.092
315.252
315.462
315.686
315.911
316.125
316.316
316.474
316.587
316.645
316.645
316.587
316.474
316.316
316.125
315.911
315.686
315.462
315.252
315.092
311.772
311.896
312.059
312.233
312.408
312.574
312.723
312.845
312.933
312.979
312.979
312.933
312.845
312.723
312.574
312.408
312.233
312.059
311.896
311.772
308.43
308.517
308.633
308.758
308.882
309.001
309.108
309.195
309.258
309.291
309.291
309.258
309.195
309.108
309.001
308.882
308.758
308.633
308.517
308.43
305.07
305.122
305.192
305.267
305.342
305.413
305.477
305.53
305.567
305.587
305.587
305.567
305.53
305.477
305.413
305.342
305.267
305.192
305.122
305.07
301.701
301.718
301.742
301.767
301.792
301.816
301.837
301.855
301.867
301.874
301.874
301.867
301.855
301.837
301.816
301.792
301.767
301.742
301.718
301.701
325.524
325.789
326.119
326.466
326.811
327.138
327.43
327.669
327.84
327.928
327.928
327.84
327.669
327.43
327.138
326.811
326.466
326.119
325.789
325.524
322.226
322.451
322.736
323.036
323.335
323.618
323.871
324.078
324.226
324.303
324.303
324.226
324.078
323.871
323.618
323.335
323.036
322.736
322.451
322.226
318.885
319.071
319.311
319.565
319.818
320.058
320.271
320.447
320.571
320.636
320.636
320.571
320.447
320.271
320.058
319.818
319.565
319.311
319.071
318.885
315.505
315.656
315.851
316.059
316.266
316.462
316.637
316.78
316.882
316.935
316.935
316.882
316.78
316.637
316.462
316.266
316.059
315.851
315.656
315.505
312.095
312.211
312.362
312.524
312.685
312.837
312.973
313.085
313.164
313.205
313.205
313.164
313.085
312.973
312.837
312.685
312.524
312.362
312.211
312.095
308.661
308.743
308.851
308.966
309.081
309.19
309.287
309.367
309.424
309.453
309.453
309.424
309.367
309.287
309.19
309.081
308.966
308.851
308.743
308.661
305.209
305.258
305.323
305.392
305.461
305.527
305.585
305.633
305.667
305.685
305.685
305.667
305.633
305.585
305.527
305.461
305.392
305.323
305.258
305.209
301.747
301.764
301.785
301.809
301.832
301.854
301.873
301.889
301.901
301.907
301.907
301.901
301.889
301.873
301.854
301.832
301.809
301.785
301.764
301.747
326.283
326.53
326.836
327.156
327.472
327.77
328.035
328.251
328.405
328.485
328.485
328.405
328.251
328.035
327.77
327.472
327.156
326.836
326.53
326.283
322.887
323.096
323.36
323.637
323.911
324.17
324.399
324.587
324.72
324.789
324.789
324.72
324.587
324.399
324.17
323.911
323.637
323.36
323.096
322.887
319.446
319.62
319.842
320.076
320.308
320.527
320.721
320.88
320.992
321.051
321.051
320.992
320.88
320.721
320.527
320.308
320.076
319.842
319.62
319.446
315.966
316.106
316.287
316.479
316.669
316.848
317.006
317.136
317.228
317.276
317.276
317.228
317.136
317.006
316.848
316.669
316.479
316.287
316.106
315.966
312.455
312.562
312.702
312.852
312.999
313.138
313.262
313.363
313.434
313.472
313.472
313.434
313.363
313.262
313.138
312.999
312.852
312.702
312.562
312.455
308.918
308.994
309.094
309.201
309.306
309.406
309.494
309.566
309.617
309.644
309.644
309.617
309.566
309.494
309.406
309.306
309.201
309.094
308.994
308.918
305.364
305.409
305.47
305.534
305.597
305.657
305.71
305.753
305.784
305.8
305.8
305.784
305.753
305.71
305.657
305.597
305.534
305.47
305.409
305.364
301.799
301.814
301.835
301.856
301.877
301.897
301.915
301.93
301.94
301.945
301.945
301.94
301.93
301.915
301.897
301.877
301.856
301.835
301.814
301.799
327.12
327.349
327.632
327.926
328.215
328.485
328.725
328.92
329.058
329.129
329.129
329.058
328.92
328.725
328.485
328.215
327.926
327.632
327.349
327.12
323.616
323.81
324.054
324.308
324.559
324.794
325.001
325.17
325.289
325.351
325.351
325.289
325.17
325.001
324.794
324.559
324.308
324.054
323.81
323.616
320.065
320.226
320.431
320.647
320.859
321.057
321.233
321.376
321.477
321.529
321.529
321.477
321.376
321.233
321.057
320.859
320.647
320.431
320.226
320.065
316.474
316.604
316.771
316.947
317.121
317.284
317.427
317.544
317.627
317.67
317.67
317.627
317.544
317.427
317.284
317.121
316.947
316.771
316.604
316.474
312.851
312.951
313.08
313.217
313.352
313.479
313.591
313.682
313.746
313.779
313.779
313.746
313.682
313.591
313.479
313.352
313.217
313.08
312.951
312.851
309.202
309.272
309.365
309.463
309.559
309.65
309.73
309.795
309.841
309.864
309.864
309.841
309.795
309.73
309.65
309.559
309.463
309.365
309.272
309.202
305.535
305.577
305.632
305.691
305.749
305.803
305.851
305.89
305.918
305.932
305.932
305.918
305.89
305.851
305.803
305.749
305.691
305.632
305.577
305.535
301.857
301.871
301.889
301.909
301.928
301.947
301.963
301.976
301.985
301.99
301.99
301.985
301.976
301.963
301.947
301.928
301.909
301.889
301.871
301.857
328.036
328.248
328.508
328.777
329.04
329.286
329.502
329.677
329.8
329.864
329.864
329.8
329.677
329.502
329.286
329.04
328.777
328.508
328.248
328.036
324.413
324.593
324.817
325.05
325.278
325.491
325.678
325.83
325.937
325.992
325.992
325.937
325.83
325.678
325.491
325.278
325.05
324.817
324.593
324.413
320.742
320.891
321.08
321.277
321.47
321.65
321.809
321.937
322.028
322.075
322.075
322.028
321.937
321.809
321.65
321.47
321.277
321.08
320.891
320.742
317.03
317.15
317.304
317.465
317.623
317.771
317.901
318.006
318.08
318.118
318.118
318.08
318.006
317.901
317.771
317.623
317.465
317.304
317.15
317.03
313.285
313.376
313.496
313.621
313.744
313.859
313.96
314.042
314.099
314.129
314.129
314.099
314.042
313.96
313.859
313.744
313.621
313.496
313.376
313.285
309.512
309.578
309.663
309.752
309.84
309.922
309.994
310.053
310.094
310.115
310.115
310.094
310.053
309.994
309.922
309.84
309.752
309.663
309.578
309.512
305.722
305.76
305.811
305.865
305.918
305.967
306.011
306.046
306.07
306.083
306.083
306.07
306.046
306.011
305.967
305.918
305.865
305.811
305.76
305.722
301.919
301.932
301.949
301.967
301.985
302.002
302.016
302.028
302.036
302.04
302.04
302.036
302.028
302.016
302.002
301.985
301.967
301.949
301.932
301.919
329.03
329.226
329.464
329.71
329.949
330.171
330.365
330.522
330.632
330.689
330.689
330.632
330.522
330.365
330.171
329.949
329.71
329.464
329.226
329.03
325.278
325.444
325.649
325.862
326.07
326.262
326.43
326.566
326.662
326.711
326.711
326.662
326.566
326.43
326.262
326.07
325.862
325.649
325.444
325.278
321.477
321.614
321.787
321.967
322.143
322.306
322.448
322.563
322.644
322.686
322.686
322.644
322.563
322.448
322.306
322.143
321.967
321.787
321.614
321.477
317.633
317.743
317.885
318.032
318.176
318.309
318.426
318.52
318.586
318.62
318.62
318.586
318.52
318.426
318.309
318.176
318.032
317.885
317.743
317.633
313.754
313.839
313.949
314.063
314.175
314.279
314.37
314.443
314.494
314.521
314.521
314.494
314.443
314.37
314.279
314.175
314.063
313.949
313.839
313.754
309.849
309.909
309.987
310.069
310.149
310.223
310.288
310.34
310.377
310.396
310.396
310.377
310.34
310.288
310.223
310.149
310.069
309.987
309.909
309.849
305.924
305.96
306.006
306.056
306.104
306.148
306.187
306.219
306.241
306.252
306.252
306.241
306.219
306.187
306.148
306.104
306.056
306.006
305.96
305.924
301.987
301.999
302.015
302.031
302.047
302.062
302.075
302.086
302.093
302.097
302.097
302.093
302.086
302.075
302.062
302.047
302.031
302.015
301.999
301.987
330.098
330.278
330.496
330.72
330.937
331.137
331.312
331.452
331.55
331.601
331.601
331.55
331.452
331.312
331.137
330.937
330.72
330.496
330.278
330.098
326.206
326.359
326.547
326.741
326.929
327.103
327.254
327.376
327.461
327.505
327.505
327.461
327.376
327.254
327.103
326.929
326.741
326.547
326.359
326.206
322.264
322.39
322.549
322.714
322.873
323.02
323.148
323.251
323.323
323.36
323.36
323.323
323.251
323.148
323.02
322.873
322.714
322.549
322.39
322.264
318.278
318.38
318.51
318.644
318.774
318.895
319
319.084
319.143
319.174
319.174
319.143
319.084
319
318.895
318.774
318.644
318.51
318.38
318.278
314.257
314.335
314.436
314.541
314.642
314.736
314.817
314.883
314.929
314.953
314.953
314.929
314.883
314.817
314.736
314.642
314.541
314.436
314.335
314.257
310.209
310.264
310.336
310.41
310.483
310.55
310.608
310.655
310.688
310.705
310.705
310.688
310.655
310.608
310.55
310.483
310.41
310.336
310.264
310.209
306.14
306.173
306.216
306.261
306.304
306.345
306.38
306.408
306.428
306.438
306.438
306.428
306.408
306.38
306.345
306.304
306.261
306.216
306.173
306.14
302.06
302.071
302.085
302.1
302.115
302.128
302.14
302.149
302.156
302.159
302.159
302.156
302.149
302.14
302.128
302.115
302.1
302.085
302.071
302.06
331.227
331.392
331.592
331.796
331.993
332.174
332.33
332.456
332.544
332.589
332.589
332.544
332.456
332.33
332.174
331.993
331.796
331.592
331.392
331.227
327.186
327.326
327.499
327.676
327.846
328.003
328.139
328.248
328.324
328.363
328.363
328.324
328.248
328.139
328.003
327.846
327.676
327.499
327.326
327.186
323.094
323.21
323.355
323.505
323.649
323.782
323.897
323.989
324.054
324.087
324.087
324.054
323.989
323.897
323.782
323.649
323.505
323.355
323.21
323.094
318.958
319.051
319.17
319.292
319.411
319.519
319.614
319.689
319.742
319.769
319.769
319.742
319.689
319.614
319.519
319.411
319.292
319.17
319.051
318.958
314.786
314.858
314.95
315.045
315.137
315.222
315.295
315.354
315.395
315.416
315.416
315.395
315.354
315.295
315.222
315.137
315.045
314.95
314.858
314.786
310.587
310.637
310.703
310.771
310.837
310.897
310.95
310.992
311.021
311.036
311.036
311.021
310.992
310.95
310.897
310.837
310.771
310.703
310.637
310.587
306.367
306.397
306.437
306.478
306.517
306.554
306.585
306.61
306.628
306.637
306.637
306.628
306.61
306.585
306.554
306.517
306.478
306.437
306.397
306.367
302.136
302.146
302.159
302.173
302.186
302.198
302.209
302.217
302.223
302.226
302.226
302.223
302.217
302.209
302.198
302.186
302.173
302.159
302.146
302.136
332.386
332.539
332.722
332.908
333.087
333.25
333.391
333.504
333.582
333.623
333.623
333.582
333.504
333.391
333.25
333.087
332.908
332.722
332.539
332.386
328.187
328.316
328.474
328.636
328.791
328.933
329.055
329.153
329.221
329.256
329.256
329.221
329.153
329.055
328.933
328.791
328.636
328.474
328.316
328.187
323.938
324.045
324.179
324.315
324.447
324.567
324.67
324.753
324.811
324.841
324.841
324.811
324.753
324.67
324.567
324.447
324.315
324.179
324.045
323.938
319.647
319.733
319.842
319.954
320.061
320.159
320.245
320.312
320.36
320.384
320.384
320.36
320.312
320.245
320.159
320.061
319.954
319.842
319.733
319.647
315.321
315.387
315.471
315.558
315.642
315.719
315.785
315.838
315.875
315.894
315.894
315.875
315.838
315.785
315.719
315.642
315.558
315.471
315.387
315.321
310.968
311.015
311.075
311.137
311.197
311.252
311.299
311.337
311.363
311.377
311.377
311.363
311.337
311.299
311.252
311.197
311.137
311.075
311.015
310.968
306.596
306.624
306.66
306.697
306.733
306.766
306.795
306.817
306.833
306.841
306.841
306.833
306.817
306.795
306.766
306.733
306.697
306.66
306.624
306.596
302.212
302.222
302.234
302.246
302.258
302.269
302.279
302.287
302.292
302.295
302.295
302.292
302.287
302.279
302.269
302.258
302.246
302.234
302.222
302.212
333.499
333.64
333.809
333.98
334.144
334.292
334.42
334.522
334.593
334.63
334.63
334.593
334.522
334.42
334.292
334.144
333.98
333.809
333.64
333.499
329.137
329.256
329.402
329.551
329.693
329.822
329.933
330.022
330.084
330.115
330.115
330.084
330.022
329.933
329.822
329.693
329.551
329.402
329.256
329.137
324.73
324.829
324.953
325.078
325.199
325.309
325.403
325.478
325.531
325.558
325.558
325.531
325.478
325.403
325.309
325.199
325.078
324.953
324.829
324.73
320.287
320.367
320.467
320.571
320.669
320.759
320.837
320.898
320.941
320.963
320.963
320.941
320.898
320.837
320.759
320.669
320.571
320.467
320.367
320.287
315.814
315.875
315.953
316.034
316.111
316.181
316.241
316.289
316.323
316.34
316.34
316.323
316.289
316.241
316.181
316.111
316.034
315.953
315.875
315.814
311.317
311.361
311.417
311.474
311.529
311.579
311.623
311.657
311.681
311.693
311.693
311.681
311.657
311.623
311.579
311.529
311.474
311.417
311.361
311.317
306.805
306.831
306.864
306.899
306.932
306.962
306.988
307.009
307.023
307.03
307.03
307.023
307.009
306.988
306.962
306.932
306.899
306.864
306.831
306.805
302.282
302.291
302.302
302.314
302.325
302.335
302.344
302.35
302.355
302.358
302.358
302.355
302.35
302.344
302.335
302.325
302.314
302.302
302.291
302.282
334.368
334.5
334.659
334.819
334.972
335.111
335.23
335.325
335.391
335.424
335.424
335.391
335.325
335.23
335.111
334.972
334.819
334.659
334.5
334.368
329.849
329.962
330.1
330.239
330.373
330.494
330.598
330.68
330.738
330.767
330.767
330.738
330.68
330.598
330.494
330.373
330.239
330.1
329.962
329.849
325.306
325.4
325.517
325.635
325.749
325.852
325.94
326.01
326.059
326.084
326.084
326.059
326.01
325.94
325.852
325.749
325.635
325.517
325.4
325.306
320.741
320.817
320.912
321.01
321.103
321.188
321.26
321.318
321.358
321.379
321.379
321.358
321.318
321.26
321.188
321.103
321.01
320.912
320.817
320.741
316.157
316.215
316.29
316.366
316.438
316.504
316.561
316.606
316.638
316.654
316.654
316.638
316.606
316.561
316.504
316.438
316.366
316.29
316.215
316.157
311.558
311.599
311.652
311.706
311.758
311.806
311.846
311.879
311.901
311.913
311.913
311.901
311.879
311.846
311.806
311.758
311.706
311.652
311.599
311.558
306.947
306.972
307.004
307.036
307.068
307.096
307.121
307.14
307.154
307.16
307.16
307.154
307.14
307.121
307.096
307.068
307.036
307.004
306.972
306.947
302.33
302.338
302.348
302.359
302.37
302.379
302.388
302.394
302.399
302.401
302.401
302.399
302.394
302.388
302.379
302.37
302.359
302.348
302.338
302.33
)
;

boundaryField
{
    hotSide
    {
        type            fixedGradient;
        gradient        nonuniform List<scalar> 
400
(
222.733
223.374
224.66
226.6
229.205
232.49
236.471
241.168
246.598
252.782
259.737
267.482
276.031
285.399
295.599
306.641
318.534
331.286
344.903
359.388
227.945
228.545
229.75
231.572
234.026
237.131
240.91
245.387
250.586
256.531
263.246
270.751
279.066
288.208
298.192
309.029
320.729
333.3
346.749
361.078
233.586
234.137
235.246
236.927
239.202
242.096
245.639
249.86
254.792
260.464
266.906
274.142
282.196
291.088
300.835
311.449
322.941
335.319
348.589
362.756
239.562
240.056
241.052
242.571
244.64
247.292
250.565
254.497
259.129
264.497
270.636
277.578
285.349
293.972
303.466
313.844
325.118
337.295
350.382
364.381
245.707
246.135
247.006
248.343
250.182
252.566
255.542
259.158
263.464
268.505
274.323
280.954
288.428
296.772
306.005
316.143
327.196
339.173
352.076
365.909
251.763
252.122
252.858
254.002
255.597
257.698
260.362
263.65
267.62
272.327
277.818
284.135
291.314
299.382
308.359
318.263
329.103
340.886
353.616
367.292
257.384
257.674
258.276
259.227
260.582
262.404
264.764
267.732
271.378
275.764
280.945
286.967
293.869
301.68
310.423
320.112
330.759
342.368
354.941
368.478
262.155
262.383
262.864
263.642
264.781
266.355
268.445
271.133
274.495
278.602
283.515
289.285
295.951
303.545
312.09
321.6
332.086
343.551
355.996
369.419
265.646
265.827
266.215
266.861
267.836
269.222
271.109
273.585
276.735
280.635
285.349
290.932
297.426
304.862
313.263
322.645
333.015
344.377
356.731
370.073
267.496
267.651
267.988
268.563
269.449
270.733
272.509
274.872
277.908
281.697
286.306
291.79
298.192
305.545
313.87
323.184
333.493
344.802
357.108
370.408
267.496
267.651
267.988
268.563
269.449
270.733
272.509
274.872
277.908
281.697
286.306
291.79
298.192
305.545
313.87
323.184
333.493
344.802
357.108
370.408
265.646
265.827
266.215
266.861
267.836
269.222
271.109
273.585
276.735
280.635
285.349
290.932
297.426
304.862
313.263
322.645
333.015
344.377
356.731
370.073
262.155
262.383
262.864
263.642
264.781
266.355
268.445
271.133
274.495
278.602
283.515
289.285
295.951
303.545
312.09
321.6
332.086
343.551
355.996
369.419
257.384
257.674
258.276
259.227
260.582
262.404
264.764
267.732
271.378
275.764
280.945
286.967
293.869
301.68
310.423
320.112
330.759
342.368
354.941
368.478
251.763
252.122
252.858
254.002
255.597
257.698
260.362
263.65
267.62
272.327
277.818
284.135
291.314
299.382
308.359
318.263
329.103
340.886
353.616
367.292
245.707
246.135
247.006
248.343
250.182
252.566
255.542
259.158
263.464
268.505
274.323
280.954
288.428
296.772
306.005
316.143
327.196
339.173
352.076
365.909
239.562
240.056
241.052
242.571
244.64
247.292
250.565
254.497
259.129
264.497
270.636
277.578
285.349
293.972
303.466
313.844
325.118
337.295
350.382
364.381
233.586
234.137
235.246
236.927
239.202
242.096
245.639
249.86
254.792
260.464
266.906
274.142
282.196
291.088
300.835
311.449
322.941
335.319
348.589
362.756
227.945
228.545
229.75
231.572
234.026
237.131
240.91
245.387
250.586
256.531
263.246
270.751
279.066
288.208
298.192
309.029
320.729
333.3
346.749
361.078
222.733
223.374
224.66
226.6
229.205
232.49
236.471
241.168
246.598
252.782
259.737
267.482
276.031
285.399
295.599
306.641
318.534
331.286
344.903
359.388
)
;
    }
    coldSide
    {
        type            mixed;
        refValue        uniform 300;
        refGradient     uniform 0;
        valueFraction   uniform 0.991591;
        source          uniform 0;
        value           nonuniform List<scalar> 
400
(
300.013
300.013
300.013
300.013
300.013
300.013
300.013
300.014
300.014
300.014
300.015
300.015
300.016
300.016
300.017
300.017
300.018
300.019
300.019
300.02
300.013
300.013
300.013
300.013
300.013
300.013
300.014
300.014
300.014
300.014
300.015
300.015
300.016
300.016
300.017
300.017
300.018
300.019
300.019
300.02