/*--------------------------------*- C++ -*----------------------------------*\
| =========                 |                                                 |
| \\      /  F ield         | OpenFOAM: The Open Source CFD Toolbox           |
|  \\    /   O peration     | Version:  2212                                  |
|   \\  /    A nd           | Website:  www.openfoam.com                      |
|    \\/     M anipulation  |                                                 |
\*---------------------------------------------------------------------------*/
FoamFile
{
    version     2.0;
    format      ascii;
    arch        "LSB;label=32;scalar=64";
    class       volScalarField;
    location    "0";
    object      Ttrue;
}
// * * * * * * * * * * * * * * * * * * * * * * * * * * * * * * * * * * * * * //

dimensions      [0 0 0 1 0 0 0];

internalField   nonuniform List<scalar> 
3200
(
318.904
319.259
319.712
320.206
320.715
321.214
321.675
322.064
322.347
322.497
322.497
322.347
322.064
321.675
321.214
320.715
320.206
319.712
319.259
318.904
316.395
316.695
317.086
317.513
317.953
318.385
318.783
319.12
319.364
319.493
319.493
319.364
319.12
318.783
318.385
317.953
317.513
317.086
316.695
316.395
313.881
314.131
314.46
314.821
315.193
315.558
315.894
316.178
316.384
316.493
316.493
316.384
316.178
315.894
315.558
315.193
314.821
314.46
314.131
313.881
311.365
311.565
311.834
312.129
312.433
312.731
313.005
313.237
313.406
313.495
313.495
313.406
313.237
313.005
312.731
312.433
312.129
311.834
311.565
311.365
308.845
308.999
309.207
309.436
309.673
309.904
310.118
310.298
310.428
310.497
310.497
310.428
310.298
310.118
309.904
309.673
309.436
309.207
308.999
308.845
306.323
306.432
306.58
306.744
306.912
307.078
307.23
307.359
307.452
307.501
307.501
307.452
307.359
307.23
307.078
306.912
306.744
306.58
306.432
306.323
303.799
303.864
303.953
304.051
304.152
304.252
304.343
304.42
304.476
304.506
304.506
304.476
304.42
304.343
304.252
304.152
304.051
303.953
303.864
303.799
301.273
301.295
301.325
301.358
301.392
301.425
301.456
301.482
301.5
301.51
301.51
301.5
301.482
301.456
301.425
301.392
301.358
301.325
301.295
301.273
318.957
319.309
319.758
320.248
320.751
321.245
321.7
322.084
322.364
322.512
322.512
322.364
322.084
321.7
321.245
320.751
320.248
319.758
319.309
318.957
316.44
316.738
317.126
317.549
317.985
318.412
318.806
319.137
319.379
319.507
319.507
319.379
319.137
318.806
318.412
317.985
317.549
317.126
316.738
316.44
313.92
314.167
314.494
314.851
315.219
315.58
315.913
316.193
316.397
316.504
316.504
316.397
316.193
315.913
315.58
315.219
314.851
314.494
314.167
313.92
311.396
311.595
311.861
312.154
312.454
312.749
313.021
313.25
313.416
313.504
313.504
313.416
313.25
313.021
312.749
312.454
312.154
311.861
311.595
311.396
308.869
309.022
309.229
309.456
309.69
309.919
310.13
310.307
310.436
310.505
310.505
310.436
310.307
310.13
309.919
309.69
309.456
309.229
309.022
308.869
306.34
306.448
306.595
306.758
306.925
307.088
307.239
307.366
307.458
307.506
307.506
307.458
307.366
307.239
307.088
306.925
306.758
306.595
306.448
306.34
303.809
303.874
303.962
304.059
304.16
304.258
304.348
304.424
304.48
304.509
304.509
304.48
304.424
304.348
304.258
304.16
304.059
303.962
303.874
303.809
301.277
301.299
301.328
301.361
301.394
301.427
301.458
301.483
301.502
301.511
301.511
301.502
301.483
301.458
301.427
301.394
301.361
301.328
301.299
301.277
319.063
319.41
319.851
320.331
320.825
321.308
321.753
322.127
322.4
322.544
322.544
322.4
322.127
321.753
321.308
320.825
320.331
319.851
319.41
319.063
316.532
316.826
317.206
317.622
318.049
318.467
318.851
319.175
319.41
319.535
319.535
319.41
319.175
318.851
318.467
318.049
317.622
317.206
316.826
316.532
313.998
314.241
314.562
314.913
315.274
315.627
315.951
316.225
316.423
316.528
316.528
316.423
316.225
315.951
315.627
315.274
314.913
314.562
314.241
313.998
311.459
311.655
311.917
312.204
312.499
312.787
313.053
313.276
313.438
313.524
313.524
313.438
313.276
313.053
312.787
312.499
312.204
311.917
311.655
311.459
308.919
309.069
309.272
309.495
309.724
309.948
310.154
310.328
310.454
310.52
310.52
310.454
310.328
310.154
309.948
309.724
309.495
309.272
309.069
308.919
306.375
306.482
306.626
306.785
306.949
307.109
307.257
307.38
307.47
307.517
307.517
307.47
307.38
307.257
307.109
306.949
306.785
306.626
306.482
306.375
303.83
303.894
303.98
304.076
304.174
304.27
304.359
304.433
304.487
304.515
304.515
304.487
304.433
304.359
304.27
304.174
304.076
303.98
303.894
303.83
301.284
301.305
301.334
301.366
301.399
301.432
301.461
301.486
301.504
301.514
301.514
301.504
301.486
301.461
301.432
301.399
301.366
301.334
301.305
301.284
319.223
319.562
319.992
320.459
320.938
321.406
321.835
322.196
322.459
322.597
322.597
322.459
322.196
321.835
321.406
320.938
320.459
319.992
319.562
319.223
316.671
316.957
317.328
317.732
318.147
318.551
318.923
319.235
319.462
319.581
319.581
319.462
319.235
318.923
318.551
318.147
317.732
317.328
316.957
316.671
314.114
314.352
314.665
315.006
315.356
315.698
316.012
316.276
316.467
316.568
316.568
316.467
316.276
316.012
315.698
315.356
315.006
314.665
314.352
314.114
311.555
311.746
312.001
312.28
312.567
312.846
313.102
313.318
313.474
313.556
313.556
313.474
313.318
313.102
312.846
312.567
312.28
312.001
311.746
311.555
308.993
309.14
309.337
309.554
309.777
309.994
310.193
310.36
310.482
310.546
310.546
310.482
310.36
310.193
309.994
309.777
309.554
309.337
309.14
308.993
306.428
306.532
306.673
306.828
306.987
307.142
307.284
307.404
307.49
307.536
307.536
307.49
307.404
307.284
307.142
306.987
306.828
306.673
306.532
306.428
303.862
303.924
304.009
304.102
304.197
304.29
304.375
304.447
304.499
304.526
304.526
304.499
304.447
304.375
304.29
304.197
304.102
304.009
303.924
303.862
301.295
301.315
301.344
301.375
301.407
301.438
301.467
301.491
301.508
301.517
301.517
301.508
301.491
301.467
301.438
301.407
301.375
301.344
301.315
301.295
319.439
319.767
320.183
320.633
321.093
321.541
321.952
322.296
322.546
322.677
322.677
322.546
322.296
321.952
321.541
321.093
320.633
320.183
319.767
319.439
316.857
317.134
317.493
317.883
318.281
318.669
319.024
319.322
319.538
319.651
319.651
319.538
319.322
319.024
318.669
318.281
317.883
317.493
317.134
316.857
314.271
314.502
314.804
315.134
315.47
315.798
316.098
316.35
316.532
316.627
316.627
316.532
316.35
316.098
315.798
315.47
315.134
314.804
314.502
314.271
311.683
311.869
312.115
312.384
312.66
312.928
313.173
313.378
313.527
313.605
313.605
313.527
313.378
313.173
312.928
312.66
312.384
312.115
311.869
311.683
309.092
309.235
309.426
309.635
309.849
310.058
310.248
310.408
310.523
310.584
310.584
310.523
310.408
310.248
310.058
309.849
309.635
309.426
309.235
309.092
306.499
306.6
306.737
306.886
307.039
307.187
307.324
307.437
307.52
307.563
307.563
307.52
307.437
307.324
307.187
307.039
306.886
306.737
306.6
306.499
303.905
303.965
304.047
304.136
304.228
304.317
304.399
304.467
304.517
304.543
304.543
304.517
304.467
304.399
304.317
304.228
304.136
304.047
303.965
303.905
301.309
301.329
301.357
301.387
301.417
301.447
301.475
301.498
301.514
301.523
301.523
301.514
301.498
301.475
301.447
301.417
301.387
301.357
301.329
301.309
319.71
320.026
320.425
320.856
321.294
321.72
322.108
322.433
322.668
322.792
322.792
322.668
322.433
322.108
321.72
321.294
320.856
320.425
320.026
319.71
317.091
317.359
317.703
318.076
318.456
318.824
319.16
319.441
319.644
319.751
319.751
319.644
319.441
319.16
318.824
318.456
318.076
317.703
317.359
317.091
314.47
314.691
314.982
315.297
315.618
315.929
316.213
316.45
316.622
316.712
316.712
316.622
316.45
316.213
315.929
315.618
315.297
314.982
314.691
314.47
311.845
312.024
312.26
312.518
312.78
313.035
313.267
313.461
313.601
313.674
313.674
313.601
313.461
313.267
313.035
312.78
312.518
312.26
312.024
311.845
309.218
309.355
309.539
309.739
309.943
310.141
310.321
310.472
310.581
310.638
310.638
310.581
310.472
310.321
310.141
309.943
309.739
309.539
309.355
309.218
306.589
306.686
306.817
306.96
307.106
307.247
307.376
307.483
307.561
307.602
307.602
307.561
307.483
307.376
307.247
307.106
306.96
306.817
306.686
306.589
303.959
304.016
304.095
304.181
304.268
304.353
304.43
304.495
304.542
304.566
304.566
304.542
304.495
304.43
304.353
304.268
304.181
304.095
304.016
303.959
301.327
301.346
301.373
301.401
301.431
301.459
301.485
301.507
301.522
301.531
301.531
301.522
301.507
301.485
301.459
301.431
301.401
301.373
301.346
301.327
320.039
320.341
320.722
321.13
321.545
321.945
322.31
322.613
322.832
322.947
322.947
322.832
322.613
322.31
321.945
321.545
321.13
320.722
320.341
320.039
317.376
317.631
317.96
318.314
318.673
319.019
319.334
319.597
319.786
319.886
319.886
319.786
319.597
319.334
319.019
318.673
318.314
317.96
317.631
317.376
314.71
314.922
315.199
315.498
315.801
316.094
316.361
316.583
316.742
316.826
316.826
316.742
316.583
316.361
316.094
315.801
315.498
315.199
314.922
314.71
312.042
312.212
312.438
312.682
312.93
313.17
313.388
313.569
313.7
313.768
313.768
313.7
313.569
313.388
313.17
312.93
312.682
312.438
312.212
312.042
309.371
309.502
309.677
309.867
310.06
310.246
310.415
310.556
310.658
310.711
310.711
310.658
310.556
310.415
310.246
310.06
309.867
309.677
309.502
309.371
306.698
306.791
306.916
307.051
307.189
307.322
307.443
307.544
307.616
307.654
307.654
307.616
307.544
307.443
307.322
307.189
307.051
306.916
306.791
306.698
304.024
304.079
304.154
304.236
304.318
304.398
304.471
304.531
304.575
304.598
304.598
304.575
304.531
304.471
304.398
304.318
304.236
304.154
304.079
304.024
301.349
301.367
301.393
301.42
301.448
301.474
301.499
301.519
301.534
301.541
301.541
301.534
301.519
301.499
301.474
301.448
301.42
301.393
301.367
301.349
320.428
320.715
321.075
321.46
321.849
322.223
322.562
322.843
323.045
323.151
323.151
323.045
322.843
322.562
322.223
321.849
321.46
321.075
320.715
320.428
317.712
317.955
318.266
318.599
318.936
319.26
319.553
319.796
319.971
320.063
320.063
319.971
319.796
319.553
319.26
318.936
318.599
318.266
317.955
317.712
314.994
315.195
315.457
315.739
316.024
316.298
316.546
316.751
316.899
316.976
316.976
316.899
316.751
316.546
316.298
316.024
315.739
315.457
315.195
314.994
312.274
312.436
312.649
312.88
313.113
313.336
313.539
313.707
313.828
313.891
313.891
313.828
313.707
313.539
313.336
313.113
312.88
312.649
312.436
312.274
309.551
309.676
309.841
310.02
310.201
310.376
310.533
310.664
310.758
310.807
310.807
310.758
310.664
310.533
310.376
310.201
310.02
309.841
309.676
309.551
306.827
306.915
307.033
307.161
307.29
307.415
307.527
307.62
307.687
307.723
307.723
307.687
307.62
307.527
307.415
307.29
307.161
307.033
306.915
306.827
304.101
304.154
304.225
304.302
304.379
304.454
304.521
304.577
304.618
304.639
304.639
304.618
304.577
304.521
304.454
304.379
304.302
304.225
304.154
304.101
301.375
301.392
301.416
301.442
301.468
301.493
301.516
301.534
301.548
301.555
301.555
301.548
301.534
301.516
301.493
301.468
301.442
301.416
301.392
301.375
320.878
321.149
321.487
321.848
322.21
322.557
322.87
323.128
323.314
323.41
323.41
323.314
323.128
322.87
322.557
322.21
321.848
321.487
321.149
320.878
318.101
318.33
318.623
318.935
319.249
319.549
319.82
320.044
320.204
320.288
320.288
320.204
320.044
319.82
319.549
319.249
318.935
318.623
318.33
318.101
315.323
315.513
315.759
316.023
316.289
316.543
316.771
316.961
317.096
317.167
317.167
317.096
316.961
316.771
316.543
316.289
316.023
315.759
315.513
315.323
312.542
312.695
312.896
313.112
313.329
313.537
313.724
313.879
313.989
314.047
314.047
313.989
313.879
313.724
313.537
313.329
313.112
312.896
312.695
312.542
309.76
309.877
310.033
310.201
310.37
310.531
310.677
310.797
310.883
310.928
310.928
310.883
310.797
310.677
310.531
310.37
310.201
310.033
309.877
309.76
306.976
307.059
307.17
307.29
307.411
307.526
307.63
307.716
307.777
307.809
307.809
307.777
307.716
307.63
307.526
307.411
307.29
307.17
307.059
306.976
304.191
304.24
304.307
304.379
304.451
304.521
304.583
304.635
304.672
304.691
304.691
304.672
304.635
304.583
304.521
304.451
304.379
304.307
304.24
304.191
301.405
301.421
301.444
301.468
301.492
301.515
301.536
301.554
301.566
301.572
301.572
301.566
301.554
301.536
301.515
301.492
301.468
301.444
301.421
301.405
321.39
321.645
321.962
322.298
322.633
322.953
323.239
323.475
323.644
323.732
323.732
323.644
323.475
323.239
322.953
322.633
322.298
321.962
321.645
321.39
318.544
318.76
319.033
319.324
319.615
319.892
320.14
320.344
320.49
320.567
320.567
320.49
320.344
320.14
319.892
319.615
319.324
319.033
318.76
318.544
315.697
315.876
316.106
316.352
316.598
316.832
317.042
317.215
317.338
317.403
317.403
317.338
317.215
317.042
316.832
316.598
316.352
316.106
315.876
315.697
312.848
312.992
313.18
313.381
313.582
313.774
313.945
314.087
314.188
314.24
314.24
314.188
314.087
313.945
313.774
313.582
313.381
313.18
312.992
312.848
309.998
310.108
310.254
310.41
310.567
310.716
310.849
310.959
311.037
311.078
311.078
311.037
310.959
310.849
310.716
310.567
310.41
310.254
310.108
309.998
307.146
307.224
307.328
307.439
307.551
307.658
307.753
307.832
307.888
307.917
307.917
307.888
307.832
307.753
307.658
307.551
307.439
307.328
307.224
307.146
304.293
304.339
304.402
304.469
304.536
304.6
304.657
304.704
304.738
304.755
304.755
304.738
304.704
304.657
304.6
304.536
304.469
304.402
304.339
304.293
301.439
301.455
301.476
301.498
301.52
301.542
301.561
301.577
301.588
301.594
301.594
301.588
301.577
301.561
301.542
301.52
301.498
301.476
301.455
301.439
321.967
322.205
322.5
322.811
323.12
323.413
323.675
323.889
324.042
324.121
324.121
324.042
323.889
323.675
323.413
323.12
322.811
322.5
322.205
321.967
319.043
319.245
319.5
319.769
320.037
320.29
320.517
320.703
320.835
320.904
320.904
320.835
320.703
320.517
320.29
320.037
319.769
319.5
319.245
319.043
316.119
316.286
316.5
316.728
316.955
317.169
317.361
317.518
317.63
317.688
317.688
317.63
317.518
317.361
317.169
316.955
316.728
316.5
316.286
316.119
313.193
313.327
313.502
313.688
313.874
314.049
314.206
314.335
314.426
314.474
314.474
314.426
314.335
314.206
314.049
313.874
313.688
313.502
313.327
313.193
310.265
310.369
310.504
310.649
310.793
310.93
311.052
311.152
311.223
311.26
311.26
311.223
311.152
311.052
310.93
310.793
310.649
310.504
310.369
310.265
307.337
307.41
307.507
307.61
307.713
307.811
307.898
307.969
308.02
308.047
308.047
308.02
307.969
307.898
307.811
307.713
307.61
307.507
307.41
307.337
304.408
304.451
304.509
304.571
304.633
304.692
304.744
304.787
304.817
304.833
304.833
304.817
304.787
304.744
304.692
304.633
304.571
304.509
304.451
304.408
301.478
301.492
301.512
301.532
301.553
301.573
301.59
301.605
301.615
301.62
301.62
301.615
301.605
301.59
301.573
301.553
301.532
301.512
301.492
301.478
322.61
322.831
323.105
323.392
323.675
323.942
324.18
324.374
324.511
324.583
324.583
324.511
324.374
324.18
323.942
323.675
323.392
323.105
322.831
322.61
319.599
319.787
320.023
320.272
320.517
320.749
320.954
321.122
321.241
321.303
321.303
321.241
321.122
320.954
320.749
320.517
320.272
320.023
319.787
319.599
316.588
316.744
316.943
317.153
317.361
317.557
317.731
317.873
317.974
318.026
318.026
317.974
317.873
317.731
317.557
317.361
317.153
316.943
316.744
316.588
313.577
313.702
313.864
314.036
314.206
314.366
314.509
314.625
314.707
314.75
314.75
314.707
314.625
314.509
314.366
314.206
314.036
313.864
313.702
313.577
310.564
310.66
310.786
310.919
311.052
311.176
311.287
311.377
311.442
311.475
311.475
311.442
311.377
311.287
311.176
311.052
310.919
310.786
310.66
310.564
307.55
307.618
307.708
307.803
307.898
307.987
308.066
308.13
308.176
308.2
308.2
308.176
308.13
308.066
307.987
307.898
307.803
307.708
307.618
307.55
304.535
304.576
304.63
304.687
304.744
304.797
304.845
304.884
304.911
304.926
304.926
304.911
304.884
304.845
304.797
304.744
304.687
304.63
304.576
304.535
301.52
301.534
301.552
301.571
301.59
301.608
301.624
301.637
301.646
301.651
301.651
301.646
301.637
301.624
301.608
301.59
301.571
301.552
301.534
301.52
323.319
323.525
323.778
324.041
324.3
324.543
324.757
324.932
325.056
325.12
325.12
325.056
324.932
324.757
324.543
324.3
324.041
323.778
323.525
323.319
320.213
320.387
320.605
320.834
321.058
321.268
321.454
321.606
321.713
321.768
321.768
321.713
321.606
321.454
321.268
321.058
320.834
320.605
320.387
320.213
317.107
317.251
317.435
317.628
317.818
317.996
318.154
318.282
318.372
318.419
318.419
318.372
318.282
318.154
317.996
317.818
317.628
317.435
317.251
317.107
314.001
314.117
314.267
314.424
314.58
314.725
314.854
314.959
315.033
315.071
315.071
315.033
314.959
314.854
314.725
314.58
314.424
314.267
314.117
314.001
310.893
310.982
311.099
311.221
311.342
311.456
311.556
311.637
311.695
311.725
311.725
311.695
311.637
311.556
311.456
311.342
311.221
311.099
310.982
310.893
307.785
307.848
307.931
308.019
308.105
308.186
308.258
308.316
308.357
308.379
308.379
308.357
308.316
308.258
308.186
308.105
308.019
307.931
307.848
307.785
304.677
304.714
304.764
304.817
304.869
304.917
304.96
304.995
305.02
305.033
305.033
305.02
304.995
304.96
304.917
304.869
304.817
304.764
304.714
304.677
301.568
301.58
301.597
301.615
301.632
301.648
301.663
301.674
301.683
301.687
301.687
301.683
301.674
301.663
301.648
301.632
301.615
301.597
301.58
301.568
324.097
324.287
324.519
324.761
324.996
325.216
325.41
325.566
325.677
325.734
325.734
325.677
325.566
325.41
325.216
324.996
324.761
324.519
324.287
324.097
320.886
321.047
321.247
321.456
321.661
321.851
322.019
322.155
322.251
322.3
322.3
322.251
322.155
322.019
321.851
321.661
321.456
321.247
321.047
320.886
317.675
317.809
317.978
318.154
318.327
318.489
318.631
318.746
318.827
318.869
318.869
318.827
318.746
318.631
318.489
318.327
318.154
317.978
317.809
317.675
314.465
314.572
314.71
314.855
314.996
315.128
315.244
315.338
315.405
315.439
315.439
315.405
315.338
315.244
315.128
314.996
314.855
314.71
314.572
314.465
311.254
311.336
311.443
311.556
311.666
311.769
311.859
311.932
311.984
312.011
312.011
311.984
311.932
311.859
311.769
311.666
311.556
311.443
311.336
311.254
308.043
308.101
308.177
308.258
308.336
308.41
308.475
308.527
308.564
308.583
308.583
308.564
308.527
308.475
308.41
308.336
308.258
308.177
308.101
308.043
304.831
304.866
304.912
304.96
305.007
305.052
305.09
305.122
305.144
305.155
305.155
305.144
305.122
305.09
305.052
305.007
304.96
304.912
304.866
304.831
301.62
301.631
301.647
301.663
301.679
301.693
301.706
301.717
301.724
301.728
301.728
301.724
301.717
301.706
301.693
301.679
301.663
301.647
301.631
301.62
324.941
325.116
325.33
325.55
325.764
325.963
326.137
326.277
326.376
326.427
326.427
326.376
326.277
326.137
325.963
325.764
325.55
325.33
325.116
324.941
321.616
321.764
321.948
322.139
322.325
322.497
322.648
322.77
322.855
322.9
322.9
322.855
322.77
322.648
322.497
322.325
322.139
321.948
321.764
321.616
318.292
318.415
318.57
318.732
318.889
319.035
319.162
319.265
319.338
319.375
319.375
319.338
319.265
319.162
319.035
318.889
318.732
318.57
318.415
318.292
314.968
315.067
315.194
315.326
315.455
315.574
315.679
315.763
315.822
315.853
315.853
315.822
315.763
315.679
315.574
315.455
315.326
315.194
315.067
314.968
311.645
311.721
311.82
311.922
312.022
312.115
312.197
312.262
312.308
312.332
312.332
312.308
312.262
312.197
312.115
312.022
311.922
311.82
311.721
311.645
308.322
308.376
308.446
308.519
308.591
308.657
308.716
308.763
308.795
308.813
308.813
308.795
308.763
308.716
308.657
308.591
308.519
308.446
308.376
308.322
304.999
305.031
305.073
305.117
305.16
305.2
305.235
305.263
305.283
305.293
305.293
305.283
305.263
305.235
305.2
305.16
305.117
305.073
305.031
304.999
301.676
301.686
301.701
301.715
301.73
301.743
301.755
301.764
301.771
301.774
301.774
301.771
301.764
301.755
301.743
301.73
301.715
301.701
301.686
301.676
325.849
326.01
326.206
326.407
326.601
326.78
326.936
327.062
327.15
327.196
327.196
327.15
327.062
326.936
326.78
326.601
326.407
326.206
326.01
325.849
322.4
322.537
322.706
322.88
323.048
323.204
323.339
323.448
323.525
323.564
323.564
323.525
323.448
323.339
323.204
323.048
322.88
322.706
322.537
322.4
318.954
319.067
319.21
319.357
319.499
319.631
319.746
319.838
319.903
319.936
319.936
319.903
319.838
319.746
319.631
319.499
319.357
319.21
319.067
318.954
315.509
315.6
315.716
315.837
315.954
316.061
316.155
316.231
316.284
316.311
316.311
316.284
316.231
316.155
316.061
315.954
315.837
315.716
315.6
315.509
312.065
312.135
312.225
312.319
312.41
312.494
312.567
312.626
312.667
312.688
312.688
312.667
312.626
312.567
312.494
312.41
312.319
312.225
312.135
312.065
308.622
308.671
308.736
308.803
308.868
308.928
308.98
309.022
309.051
309.066
309.066
309.051
309.022
308.98
308.928
308.868
308.803
308.736
308.671
308.622
305.179
305.208
305.247
305.287
305.326
305.362
305.394
305.419
305.437
305.446
305.446
305.437
305.419
305.394
305.362
305.326
305.287
305.247
305.208
305.179
301.736
301.746
301.759
301.772
301.785
301.797
301.808
301.816
301.822
301.825
301.825
301.822
301.816
301.808
301.797
301.785
301.772
301.759
301.746
301.736
326.811
326.959
327.138
327.321
327.497
327.659
327.8
327.912
327.991
328.031
328.031
327.991
327.912
327.8
327.659
327.497
327.321
327.138
326.959
326.811
323.23
323.356
323.51
323.669
323.822
323.962
324.084
324.181
324.25
324.285
324.285
324.25
324.181
324.084
323.962
323.822
323.669
323.51
323.356
323.23
319.653
319.757
319.888
320.022
320.151
320.27
320.373
320.456
320.514
320.543
320.543
320.514
320.456
320.373
320.27
320.151
320.022
319.888
319.757
319.653
316.079
316.163
316.27
316.379
316.485
316.582
316.667
316.735
316.782
316.806
316.806
316.782
316.735
316.667
316.582
316.485
316.379
316.27
316.163
316.079
312.508
312.572
312.654
312.74
312.822
312.898
312.964
313.016
313.053
313.072
313.072
313.053
313.016
312.964
312.898
312.822
312.74
312.654
312.572
312.508
308.937
308.983
309.042
309.103
309.162
309.216
309.263
309.3
309.327
309.34
309.34
309.327
309.3
309.263
309.216
309.162
309.103
309.042
308.983
308.937
305.368
305.395
305.431
305.467
305.503
305.535
305.563
305.586
305.602
305.61
305.61
305.602
305.586
305.563
305.535
305.503
305.467
305.431
305.395
305.368
301.799
301.808
301.82
301.833
301.844
301.855
301.865
301.872
301.878
301.88
301.88
301.878
301.872
301.865
301.855
301.844
301.833
301.82
301.808
301.799
327.802
327.939
328.103
328.27
328.43
328.576
328.702
328.803
328.874
328.91
328.91
328.874
328.803
328.702
328.576
328.43
328.27
328.103
327.939
327.802
324.081
324.197
324.339
324.484
324.622
324.749
324.859
324.947
325.008
325.039
325.039
325.008
324.947
324.859
324.749
324.622
324.484
324.339
324.197
324.081
320.368
320.464
320.583
320.706
320.823
320.931
321.024
321.098
321.15
321.176
321.176
321.15
321.098
321.024
320.931
320.823
320.706
320.583
320.464
320.368
316.66
316.737
316.834
316.935
317.031
317.119
317.195
317.256
317.299
317.32
317.32
317.299
317.256
317.195
317.119
317.031
316.935
316.834
316.737
316.66
312.957
313.016
313.091
313.169
313.244
313.313
313.372
313.42
313.453
313.47
313.47
313.453
313.42
313.372
313.313
313.244
313.169
313.091
313.016
312.957
309.257
309.299
309.353
309.408
309.462
309.511
309.554
309.587
309.611
309.623
309.623
309.611
309.587
309.554
309.511
309.462
309.408
309.353
309.299
309.257
305.559
305.584
305.617
305.65
305.682
305.712
305.737
305.758
305.772
305.779
305.779
305.772
305.758
305.737
305.712
305.682
305.65
305.617
305.584
305.559
301.863
301.872
301.883
301.894
301.905
301.915
301.923
301.93
301.935
301.937
301.937
301.935
301.93
301.923
301.915
301.905
301.894
301.883
301.872
301.863
328.759
328.886
329.037
329.19
329.337
329.47
329.585
329.676
329.739
329.772
329.772
329.739
329.676
329.585
329.47
329.337
329.19
329.037
328.886
328.759
324.893
325
325.131
325.264
325.391
325.507
325.607
325.686
325.742
325.77
325.77
325.742
325.686
325.607
325.507
325.391
325.264
325.131
325
324.893
321.041
321.13
321.241
321.353
321.461
321.56
321.644
321.712
321.759
321.783
321.783
321.759
321.712
321.644
321.56
321.461
321.353
321.241
321.13
321.041
317.202
317.274
317.364
317.456
317.545
317.625
317.695
317.75
317.789
317.808
317.808
317.789
317.75
317.695
317.625
317.545
317.456
317.364
317.274
317.202
313.373
313.428
313.498
313.57
313.639
313.701
313.756
313.799
313.829
313.844
313.844
313.829
313.799
313.756
313.701
313.639
313.57
313.498
313.428
313.373
309.551
309.59
309.64
309.691
309.741
309.786
309.825
309.855
309.877
309.888
309.888
309.877
309.855
309.825
309.786
309.741
309.691
309.64
309.59
309.551
305.735
305.758
305.788
305.819
305.849
305.876
305.899
305.918
305.931
305.937
305.937
305.931
305.918
305.899
305.876
305.849
305.819
305.788
305.758
305.735
301.922
301.93
301.94
301.95
301.96
301.969
301.977
301.983
301.988
301.99
301.99
301.988
301.983
301.977
301.969
301.96
301.95
301.94
301.93
301.922
329.512
329.631
329.773
329.917
330.054
330.178
330.285
330.37
330.429
330.459
330.459
330.429
330.37
330.285
330.178
330.054
329.917
329.773
329.631
329.512
325.507
325.608
325.732
325.857
325.976
326.085
326.178
326.252
326.303
326.33
326.33
326.303
326.252
326.178
326.085
325.976
325.857
325.732
325.608
325.507
321.536
321.619
321.724
321.83
321.932
322.024
322.103
322.166
322.21
322.233
322.233
322.21
322.166
322.103
322.024
321.932
321.83
321.724
321.619
321.536
317.59
317.658
317.743
317.831
317.914
317.99
318.055
318.107
318.143
318.161
318.161
318.143
318.107
318.055
317.99
317.914
317.831
317.743
317.658
317.59
313.665
313.717
313.783
313.852
313.917
313.976
314.027
314.067
314.095
314.11
314.11
314.095
314.067
314.027
313.976
313.917
313.852
313.783
313.717
313.665
309.755
309.792
309.839
309.888
309.935
309.977
310.014
310.042
310.063
310.073
310.073
310.063
310.042
310.014
309.977
309.935
309.888
309.839
309.792
309.755
305.855
305.877
305.906
305.935
305.963
305.989
306.011
306.028
306.04
306.047
306.047
306.04
306.028
306.011
305.989
305.963
305.935
305.906
305.877
305.855
301.962
301.969
301.979
301.989
301.998
302.007
302.014
302.02
302.024
302.026
302.026
302.024
302.02
302.014
302.007
301.998
301.989
301.979
301.969
301.962
)
;

boundaryField
{
    hotSide
    {
        type            fixedGradient;
        gradient        nonuniform List<scalar> 
400
(
200.445
201.024
202.185
203.936
206.287
209.251
212.844
217.082
221.982
227.561
233.836
240.822
248.533
256.982
266.181
276.139
286.863
298.361
310.638
323.698
205.115
205.656
206.745
208.39
210.606
213.409
216.821
220.862
225.555
230.92
236.979
243.751
251.252
259.499
268.504
278.278
288.829
300.166
312.292
325.212
210.168
210.666
211.668
213.187
215.243
217.857
221.057
224.87
229.323
234.444
240.258
246.789
254.056
262.079
270.872
280.446
290.811
301.974
313.941
326.715
215.522
215.968
216.869
218.243
220.114
222.512
225.47
229.023
233.208
238.056
243.6
249.867
256.881
264.663
273.228
282.591
292.761
303.745
315.547
328.171
221.026
221.414
222.203
223.414
225.079
227.236
229.928
233.199
237.091
241.647
246.902
252.891
259.639
267.171
275.504
284.651
294.623
305.426
317.065
329.54
226.451
226.778
227.445
228.483
229.93
231.834
234.247
237.223
240.815
245.07
250.033
255.741
262.224
269.509
277.612
286.55
296.331
306.961
318.444
330.779
231.487
231.751
232.299
233.164
234.395
236.05
238.19
240.88
244.181
248.15
252.835
258.278
264.513
271.568
279.461
288.207
297.815
308.289
319.631
331.842
235.761
235.97
236.409
237.119
238.157
239.589
241.488
243.926
246.973
250.692
255.137
260.354
266.378
273.238
280.954
289.54
299.003
309.349
320.576
332.685
238.888
239.055
239.411
240.003
240.894
242.157
243.874
246.123
248.98
252.513
256.78
261.83
267.7
274.418
282.006
290.476
299.836
310.089
321.234
333.27
240.546
240.689
241
241.528
242.339
243.511
245.129
247.276
250.031
253.465
257.637
262.598
268.386
275.029
282.549
290.958
300.264
310.469
321.572
333.57
240.546
240.689
241
241.528
242.339
243.511
245.129
247.276
250.031
253.465
257.637
262.598
268.386
275.029
282.549
290.958
300.264
310.469
321.572
333.57
238.888
239.055
239.411
240.003
240.894
242.157
243.874
246.123
248.98
252.513
256.78
261.83
267.7
274.418
282.006
290.476
299.836
310.089
321.234
333.27
235.761
235.97
236.409
237.119
238.157
239.589
241.488
243.926
246.973
250.692
255.137
260.354
266.378
273.238
280.954
289.54
299.003
309.349
320.576
332.685
231.487
231.751
232.299
233.164
234.395
236.05
238.19
240.88
244.181
248.15
252.835
258.278
264.513
271.568
279.461
288.207
297.815
308.289
319.631
331.842
226.451
226.778
227.445
228.483
229.93
231.834
234.247
237.223
240.815
245.07
250.033
255.741
262.224
269.509
277.612
286.55
296.331
306.961
318.444
330.779
221.026
221.414
222.203
223.414
225.079
227.236
229.928
233.199
237.091
241.647
246.902
252.891
259.639
267.171
275.504
284.651
294.623
305.426
317.065
329.54
215.522
215.968
216.869
218.243
220.114
222.512
225.47
229.023
233.208
238.056
243.6
249.867
256.881
264.663
273.228
282.591
292.761
303.745
315.547
328.171
210.168
210.666
211.668
213.187
215.243
217.857
221.057
224.87
229.323
234.444
240.258
246.789
254.056
262.079
270.872
280.446
290.811
301.974
313.941
326.715
205.115
205.656
206.745
208.39
210.606
213.409
216.821
220.862
225.555
230.92
236.979
243.751
251.252
259.499
268.504
278.278
288.829
300.166
312.292
325.212
200.445
201.024
202.185
203.936
206.287
209.251
212.844
217.082
221.982
227.561
233.836
240.822
248.533
256.982
266.181
276.139
286.863
298.361
310.638
323.698
)
;
    }
    coldSide
    {
        type            mixed;
        refValue        uniform 300;
        refGradient     uniform 0;
        valueFraction   uniform 0.991591;
        source          uniform 0;
        value           nonuniform List<scalar> 
400
(
300.011
300.011
300.011
300.011
300.011
300.011
300.011
300.012
300.012
300.012
300.012
300.013
300.013
300.014
300.014
300.015
300.015
300.016
300.016
300.016
300.011
300.011
300.011
300.011
300.011
300.011
300.011
300.012
300.012
300.012
300.013
300.013
300.013
300.014
300.014
300.015
300.015
300.016
300.016
300.017
300.011
300.011
300.011
300.011
300.011