/*--------------------------------*- C++ -*----------------------------------*\
| =========                 |                                                 |
| \\      /  F ield         | OpenFOAM: The Open Source CFD Toolbox           |
|  \\    /   O peration     | Version:  2212                                  |
|   \\  /    A nd           | Website:  www.openfoam.com                      |
|    \\/     M anipulation  |                                                 |
\*---------------------------------------------------------------------------*/
FoamFile
{
    version     2.0;
    format      ascii;
    arch        "LSB;label=32;scalar=64";
    class       volScalarField;
    location    "./ITHACAoutput/true/14.6";
    object      error;
}
// * * * * * * * * * * * * * * * * * * * * * * * * * * * * * * * * * * * * * //

dimensions      [0 0 0 1 0 0 0];

internalField   nonuniform List<scalar> 
3200
(
-2.85099
-0.44009
-0.0497079
1.01273
3.0784
2.22432
0.472533
2.82287
1.52776
1.479
2.96526
3.54735
2.5288
2.13829
2.66034
0.518243
3.66868
3.11945
0.480527
-2.28475
-3.03411
0.558152
2.15717
-0.169392
1.34652
3.68779
2.20042
0.515672
1.93172
0.946697
1.98072
0.700295
2.4241
1.8294
2.63747
0.367375
0.48966
0.0524193
0.323566
-1.69655
-1.66615
-0.923302
-1.33075
3.32403
-0.341827
3.18726
1.78812
0.61259
0.12468
0.719834
1.6284
0.86201
1.85172
0.840859
-0.462753
0.924441
-0.111539
1.82592
0.644023
-1.05413
-0.886948
-1.40898
-0.94995
1.00984
0.711808
1.49915
1.243
1.27354
0.399126
0.497184
1.09929
1.29404
0.862579
1.39592
0.595546
3.25714
0.842176
-0.689664
-1.59947
-1.30884
-0.487724
-0.792056
0.0708938
-1.71453
-0.97198
0.136246
0.0190073
0.381115
2.21893
0.806603
0.945894
1.0443
-0.12195
1.95737
-0.613384
1.55647
0.659459
-0.203427
0.445653
-2.08336
-0.524348
0.944494
1.54221
0.0735452
0.904386
0.936464
1.02271
-0.0837738
0.276245
0.0397438
1.72887
-1.31164
0.852174
-0.0777422
1.80988
0.362671
-0.807871
0.939932
-0.426415
-0.832122
-1.54663
1.23157
-0.872285
0.931097
2.45092
-1.36731
1.90729
1.28705
0.512696
0.652838
-1.34731
0.438951
2.11728
-1.86475
0.418861
1.29233
1.13936
0.920579
-0.131206
0.107479
-1.67517
-0.145925
-0.887591
1.02645
-0.11829
-0.0460946
1.55254
-0.749447
1.63817
1.45445
0.856925
1.12286
-0.862404
0.162308
-0.44625
0.154102
1.75658
-1.94804
-0.219638
-1.0068
-0.618837
-1.64087
0.392675
2.79518
1.9014
2.17532
1.91108
1.52049
2.56543
3.12411
0.822451
-0.00429635
1.68318
2.53372
2.1089
2.38299
3.57333
0.764043
0.206879
-2.32186
-2.0618
0.0472316
-0.424085
-0.0855247
2.09064
0.479964
2.32666
-0.1273
1.7077
0.362617
-0.0786567
2.36506
-0.143718
1.54851
-0.236696
1.30481
0.0912814
-0.835869
-0.404734
-1.26946
0.195038
1.0844
-0.267064
1.67241
1.50647
0.0559416
1.7777
2.10607
-0.101712
0.777366
1.38259
3.17594
2.02247
1.01225
1.03877
1.81424
1.54963
0.50464
0.636708
-1.59393
-2.43963
-0.667862
1.43688
-2.26853
1.78385
2.15414
0.154712
1.95737
1.45468
0.953213
-1.04897
-0.150886
-0.269393
2.52651
0.254129
-0.854357
1.68672
-0.663954
0.611165
-0.812632
-1.1054
0.465601
0.981614
1.78013
-0.838975
0.233831
0.414277
-0.746395
-0.16209
-0.82519
2.72344
-1.93543
0.84471
1.28568
1.45981
0.185254
2.44286
-0.270109
-1.26488
0.91634
-0.945699
-1.607
-0.827027
0.928621
1.21439
0.00466663
0.68346
-0.350339
2.15034
1.56619
0.115639
0.0345095
0.688836
-0.316637
0.950257
1.86635
1.39629
0.987862
-0.840143
-2.33925
-1.72764
-2.18787
0.717089
1.10943
0.75211
1.24758
2.26395
0.42962
1.41103
0.741615
-0.207161
-0.38457
0.304077
-0.269159
1.92782
0.969601
0.603912
-0.101965
1.36475
-1.28352
-1.94806
-0.861573
0.63523
-1.5526
0.675192
-0.38879
1.67891
0.0288189
-1.66163
-0.732177
0.750243
0.241008
-1.95436
0.107279
-0.173912
0.0908695
0.945589
0.107176
-0.578469
-1.16057
-1.08164
-0.950349
1.03881
2.03874
2.72749
1.63124
1.28656
2.39395
2.0391
1.71035
-0.0743054
0.690937
1.02274
0.779992
3.86943
1.95818
-0.0719151
1.03335
-0.48116
-1.47252
-1.77321
-0.362677
-1.51441
0.133737
2.98118
2.08785
2.46415
2.3958
0.987913
2.26585
1.33074
0.223468
2.01865
2.60536
0.482769
0.301691
1.68024
-1.05642
-0.79074
-3.14546
-3.93916
-0.798211
-0.531092
2.7374
1.77303
2.69017
2.14701
0.407122
0.477398
1.5975
2.06621
0.690571
-0.312049
1.67171
-0.362688
1.4566
2.23468
1.05804
-0.73794
-2.05595
-3.86916
-0.597401
-0.0650733
1.50003
0.749691
1.1563
1.57762
-1.32567
2.39198
0.209463
1.21977
0.988227
1.85608
1.11931
0.988903
1.84805
1.02184
0.971429
-0.331306
-1.69008
0.879503
0.389256
-0.196153
-0.31878
1.5445
1.18705
2.17035
0.995849
1.29944
1.12227
-0.0480626
0.416571
0.604218
2.41421
1.30745
1.67609
1.82728
0.149545
0.511889
-1.1242
0.885199
-0.194256
0.654239
-0.0997111
0.422166
-1.61124
0.526816
-0.507674
0.498478
0.305666
0.360503
-0.694849
2.65151
1.4018
2.71046
0.578424
0.251334
1.63069
-0.91775
-1.12833
-1.91842
-0.0128106
0.542102
0.553843
2.65341
0.734558
-0.471925
0.590011
1.15699
-1.37622
0.44823
0.685795
-0.398802
2.16438
2.22907
-0.301737
0.244893
0.0874043
-0.475338
-0.226373
-0.877081
1.13566
0.434967
-0.302834
-0.605034
-1.41596
-0.762412
1.05115
0.598483
-2.21768
0.94562
-1.01419
0.885608
1.21924
-0.766476
-0.258388
0.244495
1.44332
0.345558
-0.273905
-3.20122
-2.38984
0.0360862
-1.07079
1.19363
2.50609
2.09865
1.23213
1.76994
0.288124
1.67778
1.79928
1.25021
2.00125
1.54123
0.645564
1.04456
0.33281
-1.06315
-2.32936
-3.02904
-0.272098
-3.21838
-0.547776
0.341235
0.174625
-0.512843
-0.472928
-0.384671
0.144166
0.0468652
0.357785
0.343799
2.15513
0.257684
1.08618
0.0067385
1.35253
-0.468416
-0.348642
-2.30433
-1.8111
1.98117
-1.3364
-0.291351
1.86569
0.927071
-2.12389
-0.136274
0.805407
0.938102
0.0843224
1.45051
3.00026
1.25599
0.764895
3.29195
1.09765
-0.409437
-1.34882
-2.95517
-1.83574
-0.494996
1.23885
1.70015
0.477452
1.44364
0.989717
2.34796
1.92362
-0.19894
-0.147198
1.75743
1.82969
1.0889
1.21778
-0.165513
0.594674
-1.23771
0.0828876
-1.95202
-0.582022
0.40788
0.708511
1.59863
0.838433
0.53661
0.0223555
0.708343
0.582616
0.829028
-0.242877
1.511
2.03164
-1.02271
0.375771
0.286356
0.80968
1.36402
0.255395
-1.36706
-0.589314
-1.02014
1.97846
0.910712
-0.794662
0.486795
1.04663
-0.676325
1.87396
0.366035
-0.077267
-0.377748
-0.945869
-0.119931
-0.0739117
1.81355
-1.92649
-1.89735
-0.933527
0.636846
-0.207623
1.20293
0.570201
1.52189
0.922416
0.35751
0.988674
0.486433
-0.0972373
-0.209334
-0.400233
-0.0464306
-0.00201044
-0.747528
-2.292
1.61946
-1.11473
-0.935613
0.0569287
-0.256924
-0.94601
-0.49031
0.309553
0.809452
0.0507864
-1.47775
-0.318056
0.479554
0.849773
0.691742
-0.472699
-2.47164
1.27624
-0.811964
0.298473
-1.36353
-2.3347
-0.474846
0.0121051
-3.02504
-0.561366
-0.970356
-1.86885
0.322708
2.97135
0.23269
0.717949
-1.4449
-0.403226
1.18424
1.48773
-1.33655
1.13342
1.61631
-0.123693
1.03163
0.778414
-1.42885
-3.53178
-2.93823
-0.988422
-0.147273
0.473252
0.88737
-0.0201128
1.39941
1.35381
1.24166
-0.079445
-0.0540852
1.84856
-0.94278
-1.57849
2.29049
0.901829
-0.0299538
0.241362
-1.34674
-3.41608
-2.91685
-1.31892
-0.423439
1.65693
1.08456
-0.791568
0.796229
0.478043
2.06901
1.23963
0.990498
1.05321
-0.114913
1.22337
-0.0653086
1.25757
-0.392312
1.25625
-1.58626
-1.58951
-1.47016
-0.772733
-0.153002
1.06445
2.15313
0.908943
0.48855
0.529268
-0.102038
-0.770706
2.04113
-0.765838
0.987125
-0.386679
0.345006
0.225625
-1.09155
-0.509171
-1.11763
-3.46945
-1.16443
-2.76853
1.71829
1.20185
1.69025
1.1478
0.869395
2.06779
1.98025
-0.612581
-0.22539
1.57059
1.37321
0.481834
-0.0644056
0.541867
0.942375
-0.319577
-1.032
-1.65527
-1.02221
-0.0615949
-1.42321
-0.955852
-0.573958
0.093538
0.244982
1.75077
-0.634029
-0.408338
-0.0190148
1.18404
-2.05214
0.787996
0.413923
1.80116
2.25594
0.767548
0.860265
-1.65109
-3.14754
-1.95092
-0.871996
0.756358
0.916379
0.145651
0.131678
2.58209
0.722368
-0.311201
-0.657633
0.318742
-0.909123
0.275334
-0.515873
0.367966
0.46463
0.963311
0.0329075
-0.0252353
0.249267
-0.329497
0.846964
0.983361
-0.142398
0.12129
-0.0170403
-0.165017
0.848456
1.68229
-1.54672
1.2495
0.254057
-0.365457
0.952942
1.52177
0.89126
-0.769813
-0.312147
0.429209
-2.15575
-3.41807
-1.36705
0.0924847
-1.10229
1.61366
-1.63479
-0.663396
0.594514
0.968325
-0.947747
0.420784
-1.3657
-1.18662
0.894032
-0.392333
0.284341
-0.757535
-2.05359
-4.71023
-2.5554
-0.0995896
1.81521
0.0124219
-1.07338
0.369297
-0.852734
0.0343651
-2.34776
0.177751
0.575034
-0.175792
0.307949
-0.477095
-0.536413
0.348295
-0.0585014
-2.06348
0.265302
-1.29223
-4.29136
-1.12572
-1.6382
0.784824
-0.175635
-0.449901
-0.407214
-1.46981
-0.309266
-0.0549209
-0.0695078
0.195461
0.84906
2.9045
0.609099
3.51803
1.40689
0.653253
-1.77485
-1.70218
-1.75616
-1.32788
-0.857883
0.960784
-1.14623
0.0960977
-1.25533
0.0225778
1.52726
-0.377546
-0.73413
-0.736102
0.0253475
0.00824967
0.869933
-1.65651
1.11833
0.931241
-0.673011
-1.09874
-1.01762
-0.213029
-1.5466
1.7849
-0.430529
1.31914
-1.96847
-0.491915
0.700007
-0.70071
-0.0424162
1.88119
0.212522
-0.31174
1.55802
0.67817
0.287622
-0.000350941
-0.864297
-1.00981
-0.0324159
-2.16085
-0.258237
-0.258273
-0.10505
1.58581
1.45819
1.40797
1.69783
-0.060853
-0.127021
0.568141
1.23996
0.767107
1.07148
-0.418516
-0.992824
-0.512988
-1.47703
-1.43236
-2.32347
-0.541419
0.138429
-0.368318
0.262513
-0.134296
-0.233236
0.168925
-0.192847
-0.817525
1.08328
0.68905
-0.16012
-0.116335
-0.0103338
2.59872
1.05668
0.472743
0.0301028
-0.528368
-0.22789
-1.52364
-1.05426
-0.578909
0.684636
0.308665
-0.833433
0.376182
0.83556
0.252349
0.504871
-0.487043
-0.194755
-0.178123
1.37596
-0.768114
0.34314
-2.34047
-0.845391
0.514859
-2.99139
-3.13752
-0.39551
-1.08069
0.224507
1.50695
0.183847
-0.13207
-0.993286
0.983187
-1.1271
-1.38232
-1.26711
-1.20683
-0.820051
0.599551
0.619242
-0.876937
-2.92386
-1.8841
-1.76396
-3.37059
-1.08437
-0.199226
-0.926199
0.586462
-0.777375
-0.256923
-0.487768
-0.648393
-0.939209
-0.845194
-1.21542
0.553689
-0.475953
0.222068
0.00433661
-0.756898
-1.89516
-2.89719
-4.04131
-0.890814
-0.185905
-1.66444
0.211319
-0.365438
-1.35587
0.410771
-1.63326
0.321983
0.690929
-0.720926
0.316721
0.361334
-1.56515
0.0386073
-1.02897
-0.520394
-2.73534
-2.67364
-2.11929
-2.43068
-0.835691
-1.1874
1.86553
-1.26138
1.11013
-1.27725
1.6028
0.882334
0.436664
-0.799427
2.38141
-1.40303
1.36586
0.758704
0.929326
0.884219
0.769953
-2.18289
-1.99858
-2.20781
-2.15044
-0.901745
1.22612
0.300094
0.912272
-0.782892
0.088426
-1.91266
1.17242
-2.39955
1.13166
0.35072
-0.219016
-1.44023
-0.119083
-0.830534
-0.989087
-1.05404
-0.723014
-1.38963
-0.776449
-0.567206
0.360476
0.966985
-0.726523
0.111963
0.237213
-0.282491
-0.548511
-0.0947377
-0.711698
0.899885
-0.709709
-0.677555
0.506481
0.159088
-1.28995
-2.21723
-2.04304
-2.1269
-0.84076
-0.841936
0.0548825
0.405904
1.62293
1.37341
-0.512283
-0.107124
0.261828
-1.35113
0.633708
2.36219
0.00276185
-0.830768
0.512556
-0.305004
-0.511087
-1.62834
-0.811765
-0.789137
-0.596637
-1.59906
-0.555604
0.225933
-0.221345
2.21912
1.35718
1.23051
0.294355
0.626352
0.567885
-0.440206
2.07258
-1.25743
-1.05136
-0.719641
-0.801225
-0.645369
-1.29482
-3.0743
-0.662787
-1.07561
-0.258127
-0.55219
-0.04417
-1.25577
-0.818702
-1.05687
-1.74236
-1.19941
-2.07675
-1.15008
0.690549
0.647684
0.568135
-1.77271
-2.13763
-3.80472
-6.73048
0.0890117
-2.37325
-0.264044
0.352415
0.0152787
1.3442
-0.377928
-2.28508
0.14136
-0.327242
-0.272049
-0.240682
-0.803106
-0.223659
-0.504881
0.0120498
-0.928293
-0.00870849
-5.2263
-3.85803
-2.09772
-2.92365
-1.14576
1.08691
-1.4789
0.00185138
-0.278636
-1.06519
0.0324508
0.103208
0.030734
-1.4802
-0.91885
1.59175
1.1593
0.620713
-1.02064
-1.53639
-2.05914
-3.08959
-1.90086
0.203459
-0.798514
-1.10816
0.845804
-1.94215
0.772879
0.366161
-1.39753
-0.942593
0.998887
-0.521631
-0.336692
0.467958
-0.10975
-0.568051
0.260475
-2.10039
-2.98872
-1.66618
-1.56873
0.252442
0.395023
0.832944
1.51344
-0.783624
0.166536
1.28609
-0.791174
-0.108982
-1.22053
-1.67012
-2.43363
-1.48413
0.268568
0.0527006
1.47579
0.151889
-1.32592
0.0739023
-2.45231
-1.23298
-0.213358
-0.00565349
-0.848814
-0.695347
-0.402897
-1.07846
-0.556063
0.886311
0.986501
-0.945058
2.15682
-1.14486
0.214446
-2.52627
-0.858413
-1.35423
-2.74303
-2.4202
-0.348093
-0.550467
0.191707
0.284262
-1.20896
-1.27806
-0.855284
-0.987431
-1.39358
0.208097
0.094376
1.02034
0.179228
-0.925305
0.453099
1.51253
-1.14321
0.439721
-0.97928
0.115702
0.507546
0.514032
-0.549939
-0.490457
-1.79503
-0.0165935
0.112044
0.867964
-0.625055
-0.296294
0.00490071
-0.405092
-0.289193
-1.79411
0.144346
-2.99661
-1.54887
0.0644168
-0.39353
-4.44978
-5.64025
-1.3622
-2.51531
-0.37684
-0.677479
-1.06097
-0.343536
-0.523558
-1.93884
-2.15132
-0.881334
-2.22861
-1.22215
-1.66617
0.303846
-0.638348
-1.50326
-2.05162
-3.9473
-3.87051
-3.99987
-1.71552
-0.871487
-2.50006
-2.48305
0.398169
-0.661987
-0.17499
-1.62282
-0.593187
-1.75365
-0.0322957
-1.36974
0.286628
0.112751
0.944056
-1.63991
-2.72173
-3.25873
-4.54013
-1.58171
-2.45748
-1.96556
0.609198
-1.30229
-1.50858
-1.11784
-1.81955
0.413207
-1.00575
-2.23442
-0.887907
-1.36956
-1.19485
0.158673
-1.25443
-1.07151
-2.7506
-4.58932
-2.17938
-2.88942
-0.445939
-2.19396
-0.0156907
-1.34649
-0.0119186
-1.90163
-0.688725
-1.91296
-1.04017
-0.367062
-2.25523
1.80163
-1.14081
-0.492552
1.483
-2.07273
-1.28197
-2.98635
-3.07822
-0.620699
-1.33377
0.06202
0.673234
0.444838
-0.328762
-1.38266
-0.205523
0.131805
0.0226616
0.0365616
-0.90341
0.0911443
-1.26929
0.260614
1.2606
0.0503553
-1.13731
-2.61438
-2.03433
-0.969608
0.308965
0.44612
0.249331
-0.411156
1.09734
-1.59252
-0.592011
1.73151
0.346394
-0.292164
0.953603
0.355855
-0.672898
0.7691
-0.201448
-0.074529
0.483597
-1.73248
-1.69512
-0.652941
-1.83514
0.2817
-0.179705
-1.58144
-0.444188
0.301703
-0.46642
1.28965
-0.212382
-1.18904
-1.90792
0.594867
0.57979
-0.446475
-0.898748
-1.74499
-0.141693
-0.626015
-0.901941
-0.528939
-0.871371
-0.350868
-1.24566
-1.50383
0.766312
0.179228
0.685746
0.902385
0.414545
1.69975
-0.257488
-0.386518
0.835847
-0.855052
0.839455
-0.646387
0.485326
-0.457501
-4.71909
-5.77078
-2.15069
-3.33199
-0.205388
0.874092
-1.07821
-2.23436
-2.95304
-2.61461
-0.983829
-2.7083
-1.53196
-0.850405
-0.116401
-1.21987
-1.53754
-2.64056
-2.38529
-3.81839
-2.7475
-0.553923
0.173283
-0.061329
-0.253102
0.197956
-0.307617
-0.567507
-3.08682
0.282637
-0.22697
-0.292805
-0.512563
-0.246103
-0.0585534
-0.581108
0.0764583
-1.18778
-0.203689
-4.21475
-3.12852
-3.63184
-1.32856
-0.505307
-0.838347
0.327087
0.816794
-0.108629
1.68009
-1.91026
-2.88928
-1.30931
-2.0084
0.988947
-1.40898
-0.0390365
0.627693
-0.504008
-1.61339
-2.47516
-2.16895
-1.0696
-1.41189
-0.677096
-0.919344
-1.55821
-0.615714
0.620283
-0.303222
-0.149478
-0.13567
-0.0975967
0.526596
-0.541898
-0.33693
-0.661043
0.0483471
0.479568
-0.658805
-1.79149
-2.2779
-0.897126
-2.94325
-2.12692
1.21207
-0.448158
1.26791
0.2867
0.648264
-0.733935
0.507026
-0.765342
-0.53785
-2.25394
0.0167961
-1.04828
-0.350328
-0.912988
-0.0545798
-2.81834
-0.88309
-1.6945
0.538438
0.663322
-0.555882
1.44283
-0.488125
-2.08752
-0.739873
-0.374281
-1.28208
-0.0149017
-0.451368
0.719017
-1.38834
-1.74934
-0.676661
1.24277
-1.34934
1.04455
-1.88669
0.100417
0.386446
-1.63813
1.11588
0.378114
1.01184
-0.608147
-0.355367
1.76476
1.26347
-0.673894
-1.06452
0.261182
0.914121
-0.875264
-0.107763
-0.0750109
-1.35359
-0.511851
-0.605256
-0.39928
0.583211
0.653287
-0.196241
-0.985211
-0.507123
-2.09235
-0.454982
-0.67668
-0.307115
1.00669
-0.25924
-0.645132
-0.731601
-0.129666
-1.7293
-0.751799
-0.530484
-0.497606
-4.64835
-5.08095
-2.40591
-2.05993
-2.53345
-0.419507
-2.28423
-1.77263
-0.303506
0.822228
-2.56268
-0.477633
-1.6241
-1.20033
-1.35276
1.13863
-1.41066
-2.74092
-5.5952
-5.11057
-3.25029
-0.834773
-3.10308
0.0764522
-1.3812
-0.470394
0.722772
0.0115362
-1.89584
-0.441048
-0.114764
-2.05234
0.464391
-0.773653
0.302398
-0.179987
0.053965
-1.3324
-0.208358
-2.54606
-3.98989
-2.16173
-0.897848
-0.190808
0.971952
0.417088
0.378292
-0.617699
-0.36132
-3.55656
-2.3407
-2.23287
-2.11881
-1.55398
-0.605611
-0.802938
-0.151915
-3.84487
-1.05398
-1.84327
-1.85044
-2.01509
-3.99775
-0.94437
-2.07196
-0.743567
0.898084
0.338545
0.177153
-0.740409
-0.883589
1.07257
0.116475
1.48841
-1.101
-0.96481
-0.230669
-2.072
-2.57512
-1.62125
-1.40988
-2.78148
-0.684714
0.113646
-0.344689
-0.884679
0.273337
1.23538
-0.671192
0.0544093
0.633601
-0.193264
-0.761472
-2.09023
-0.781109
-1.15203
-0.790554
-0.553714
-3.1949
-1.98906
-1.08777
-0.790944
0.020356
-2.25733
-0.237043
0.238992
-2.27032
-1.10501
0.233034
-0.756362
-0.358349
-0.351908
-0.78535
-0.892358
0.494657
0.810966
-1.1414
-1.04622
-0.376911
-2.85106
-1.74306
-0.54352
-0.0468503
0.640175
2.32764
0.288358
-0.057252
-0.266376
-0.143081
-0.174154
-1.35476
-1.00311
0.288307
-0.305633
1.88437
-0.25368
0.219201
-0.848021
-0.695112
1.38143
-0.0510273
-0.645431
-0.309446
-0.181213
-0.995603
0.70162
1.22821
0.653779
-1.79439
0.567888
0.146388
0.112467
-0.673323
-0.77661
1.08682
0.167678
-0.167407
-0.435916
-0.131954
0.135012
-4.87849
-3.72805
-3.64274
-0.954137
-0.426281
-2.05108
-0.834661
-0.0606525
-0.426799
-1.82471
0.397043
-2.38745
-3.55648
-1.10477
-1.25653
-0.317699
-1.7011
-1.27163
-2.24529
-4.61116
-3.91954
-4.57399
-2.17416
-2.2253
2.38026
-1.02993
-0.0210247
-1.37182
-1.77782
-1.49686
0.158578
-3.47387
-3.56971
0.275378
-1.3407
-2.58513
-0.0115313
-1.61471
-3.07978
-3.5491
-1.71396
-2.37341
-0.861538
-1.29421
0.506052
-0.485422
-0.0121928
-0.0576246
1.20653
-0.791571
1.60158
-1.15345
-2.10852
-1.70672
-0.0282255
-0.391442
-0.469028
-1.78668
-1.58708
-2.88652
-3.74631
-0.291232
1.00872
-0.225553
-1.5276
0.575744
-1.38508
-0.491198
0.737092
-1.67342
-1.21486
-2.80497
-1.03123
-0.0104903
-0.329642
-0.320422
-0.0914245
-1.54345
-0.827989
-0.321623
-2.34534
-0.845527
-1.53065
-0.809178
0.720928
-0.545243
-0.964486
0.828339
-1.73709
1.4834
-0.484945
1.10226
0.906523
-0.0900233
-0.867766
-0.808344
-0.341195
0.330378
-1.63604
-0.325801
-1.37467
0.253975
-1.11789
-0.47
-0.0192152
-0.7463
-1.25514
-0.644821
-1.90833
1.44349
-0.693114
1.89501
-1.17396
-0.499846
-0.998544
0.631656
-0.282961
-1.87473
-0.0822195
0.0241013
-1.19642
-1.02646
-0.904959
-0.318925
0.250289
-0.534668
0.938824
-0.384007
0.00617308
0.0284457
0.712409
-0.46748
-0.304411
1.21261
-0.0689362
-2.40208
0.166822
-0.585925
-1.21922
-0.34626
0.679884
1.91016
-0.341594
-0.540448
-1.31686
0.58144
-0.169858
0.497632
-1.75381
-0.561975
1.84651
-0.121028
-0.616309
-1.06865
-0.580877
0.351657
0.125492
-0.809209
-0.97837
2.30519
-5.21744
-4.17585
-2.05398
-1.15333
1.70194
0.629087
0.471474
-0.561247
-1.30448
-2.05346
-0.698287
-1.86809
-0.0453174
0.366034
1.03948
-1.35641
-0.832497
-2.9445
-2.32818
-3.50246
-3.88891
-0.532897
-2.22565
0.000242616
-0.261192
-0.347972
-0.22972
-0.411618
-0.13242
-0.0151374
-0.160445
-1.77928
-0.195393
-0.267317
0.536074
-0.3478
-0.266576
-0.774612
-0.815412
-3.21504
-3.06275
-3.28756
-1.39913
-1.09796
0.738493
0.395482
-0.355036
-0.863281
0.446388
-1.57025
-1.05967
-0.0450009
-2.20121
-0.976875
-0.656707
-0.88933
-0.112482
-2.33317
-1.44373
-3.30641
-1.32242
-2.61441
-1.35558
-1.87719
0.215217
-0.649102
0.00873917
-0.199587
-1.97818
-0.128364
0.384161
-0.491051
-1.62793
-1.57073
0.809622
-0.646385
-0.795016
-2.27581
-0.183403
-2.63704
-1.64323
-1.49522
-1.87053
0.382699
0.688108
0.298598
-1.16963
1.74439
-1.91932
-0.591633
0.618245
-1.42818
0.786707
1.70702
0.262009
-1.2454
-1.39573
-0.154898
-0.242962
-3.27874
-2.28719
1.08023
-0.335324
0.10497
1.30724
-0.236988
-0.176403
-0.262055
1.70095
0.445847
0.15356
-3.52296
-0.944192
0.308334
0.268032
-0.761233
-1.32884
-1.69715
0.0798548
-1.00022
-0.329076
-1.30341
0.0708838
-1.17761
0.979265
-0.646136
1.3582
0.325461
0.507818
0.0695934
-1.36899
1.32083
-0.798828
-0.915172
-1.05461
-1.4355
-0.210717
-0.704622
0.132982
-2.94027
-1.29425
-0.544303
1.12134
0.175594
-0.263014
1.50487
1.60599
0.000465969
-0.142107
1.00291
0.585745
-1.27311
1.48279
-1.24198
-0.340041
-1.69417
-0.186335
0.117029
-0.0282998
-0.235133
-3.27259
-1.9808
-1.12928
-1.63688
0.481566
-0.555703
0.384483
-0.510601
-0.921634
0.11939
-2.84164
-0.911442
0.644844
-1.01797
-1.13337
-1.57415
-2.51476
-2.93318
-2.22573
-2.34417
-2.13093
-3.52972
-2.22279
-0.617479
0.992288
0.324458
-0.541151
-0.176176
-2.44901
0.44548
-0.603335
0.723252
-0.830802
0.450775
1.14925
-0.989055
-0.381686
-2.18414
-0.571275
-2.25125
-1.59247
-2.92636
-0.802823
-1.9856
1.10554
-0.904682
-0.350669
-1.09374
0.189622
1.57649
-1.41433
-1.16714
-0.247481
0.275381
-0.845755
-2.63249
-0.197763
-0.890549
-2.10105
-0.317915
-3.32591
-1.70843
0.571194
-1.7872
1.02915
0.490548
-1.27838
0.250783
-0.529892
-0.206738
-1.10319
0.134621
-0.420842
-0.0889152
-0.759582
-1.76481
-1.74238
0.0442515
-1.73732
-1.92664
-1.31702
-3.72426
0.627579
-0.0117299
0.486142
-0.844344
0.918137
-1.46299
1.29112
-1.13609
0.960539
0.527618
-0.677075
1.42942
0.57632
0.253352
-0.9656
0.194656
0.991821
0.474042
-0.150823
-1.0901
-1.21571
-1.02365
0.275933
-1.22125
1.97706
0.0714905
0.17985
-0.0190318
0.35847
-0.648899
0.527178
0.295943
0.853701
-0.971993
-0.735591
1.32427
0.102537
-0.830426
-0.822808
-1.06952
0.674754
-0.632274
-0.778561
0.351086
1.64619
-0.259793
-1.74629
-0.00587152
-1.43231
1.29771
-0.5141
0.322884
0.480583
1.17018
0.207126
-2.32435
-0.647138
-2.25668
0.805946
-0.349606
-0.262539
-1.67378
-0.566571
-1.11674
-1.66743
-0.222343
1.47916
-0.054177
0.262341
1.24896
0.631109
1.85554
0.444439
0.71185
0.329244
-0.624134
-0.483748
0.397745
-4.60268
-2.76531
-2.071
-1.79015
0.0315801
-0.885431
-0.483369
-0.869341
0.310791
-1.0233
0.287334
-0.479413
-1.49276
-1.09883
0.119319
-0.0284991
0.220862
0.596791
-0.906979
-3.57607
-3.45943
-0.254315
-2.11725
-0.541943
-1.7875
0.364696
-0.460792
-0.0364841
0.750973
0.313981
-0.195083
0.295312
-0.49089
-1.23239
-0.166682
0.514516
-0.252012
-1.01514
-0.159964
-2.65714
-3.6689
-3.10364
1.40483
0.437516
-0.624755
1.33978
0.556664
0.604959
0.312079
-0.316701
0.495863
-1.17747
0.61506
-0.111618
-0.220202
-1.54173
-1.04312
-3.19336
-0.4425
-2.07134
-1.94526
0.194
-0.657334
-1.15199
-2.2697
0.387593
-0.283464
0.579357
0.204683
-0.886582
-0.140755
-0.11412
0.217156
-0.373445
-1.11045
1.51434
-1.75614
-0.387988
-1.40349
1.21446
-0.645299
-0.931426
-1.61432
-1.06677
0.996393
0.760069
0.320352
4.07473
1.24052
-0.412871
1.58394
0.233093
-0.0914335
-0.771716
-0.965769
1.0632
0.311709
-0.0585353
-1.04341
-1.9843
-0.904216
-2.14248
-1.52681
-0.333542
-1.12613
-0.610267
1.12191
-0.122881
-2.17158
1.44111
0.746612
2.80188
1.02302
1.33074
0.918255
-0.16029
0.515954
-1.58134
-0.309813
-2.59137
-0.279599
0.243088
-0.801225
-1.80842
1.06333
-0.130741
-0.759979
2.50255
0.326228
1.19265
0.194337
-0.196809
-0.388794
0.49097
0.67508
-0.896709
-0.880306
-0.351683
0.792615
-0.0364619
-0.196865
-0.20226
-0.385849
0.560945
1.44352
-0.981065
-0.529208
0.106634
0.506914
-0.24958
0.713925
0.0931098
-0.91996
-0.676026
-0.955296
-1.27916
-0.659029
0.999294
0.245626
1.02779
-3.06138
-3.54651
-0.785032
0.239291
0.621574
1.36397
1.07164
2.98636
1.89308
0.408239
0.892066
1.49616
0.790614
1.34932
1.75603
-1.79123
0.302821
-0.813447
-0.102425
-1.8238
-3.35254
-0.74511
-0.716094
0.00496433
1.86654
2.4571
1.11198
2.75349
1.23891
-0.475399
1.81076
-0.767726
1.26694
0.303124
1.01054
-0.64748
0.495108
0.947276
-1.27948
-1.24346
-2.52543
-2.39895
0.669327
-1.64213
1.00875
1.53199
0.402136
2.75186
2.58516
1.4658
1.67675
-0.555559
1.1806
1.74614
1.64348
1.25301
0.143808
0.309798
-2.21924
-0.962977
-1.89068
-0.305641
0.117915
-0.907105
1.53411
0.932699
-0.0233011
1.59564
-0.157692
-0.200657
1.17957
-0.164505
1.22547
0.0554674
0.143341
-0.143536
-0.108794
-2.2181
-1.39639
-0.475602
-0.866623
-0.277381
-0.540075
-0.585929
0.291353
3.06504
0.409023
-0.0161609
-0.124844
0.450559
-0.479972
-0.489455
1.46679
1.08416
1.68561
-0.715105
1.05615
-0.991453
-0.333278
0.649367
0.267253
0.566941
-1.53743
0.596943
-1.41791
-0.310299
-0.102095
-0.223765
-0.0572075
-0.298915
0.355845
1.63844
0.110244
-0.613885
1.52728
0.480508
0.0247723
-0.496139
-0.844452
-0.720329
-2.01674
-1.20167
0.356116
-1.1704
1.32221
1.06592
-0.667812
-0.584658
0.727576
-0.177721
-0.690955
-1.06222
0.461183
-1.1065
0.457966
1.90998
0.722325
0.106921
1.73525
-1.55725
1.4119
-0.432966
0.711312
1.65205
-1.61154
-0.20697
-0.314196
-0.860494
-0.16833
0.781088
1.44727
0.0757049
0.391184
1.18264
0.257166
0.118671
-2.02871
-0.824548
-2.14982
0.577303
-1.20693
-1.91273
-1.08538
0.920854
2.30098
0.618544
1.08821
2.23046
1.31669
1.64665
1.36322
2.39958
2.66938
1.29985
2.01822
2.38234
-0.257338
-0.547324
-0.414076
-2.9885
-1.5566
0.175214
-1.53056
0.0632307
0.743392
0.0248409
0.958609
0.24798
2.24039
0.151288
0.0622159
2.83602
0.0737755
2.40371
0.011017
0.194034
-0.0477348
0.513794
-0.162329
-0.145786
-0.691361
-2.45351
-0.474076
2.18511
0.719297
2.33914
1.20612
1.05588
0.97146
-0.508341
2.10194
1.2856
2.03539
2.97393
-0.360011
0.354497
-0.682599
0.635878
-1.02968
-0.21697
-1.98261
0.530894
-0.664654
1.31757
-0.0336882
0.989008
0.709087
1.01615
1.85552
-1.44834
1.42368
0.196827
0.282432
0.420301
1.02942
0.983763
1.04717
-0.970157
-0.635761
-0.170619
-0.746393
-0.0248202
-0.922948
1.35746
0.304704
1.14001
2.57263
1.86619
1.66968
0.526622
-0.0733504
-0.568596
0.0849888
-0.0202222
2.46934
0.989513
1.08835
0.967134
1.40484
-0.593309
-2.39955
-0.500021
0.747274
0.155047
1.70075
0.615405
0.80541
-0.60877
1.03946
1.35444
1.10783
2.19858
1.62432
1.85508
-0.366324
0.42285
0.598368
0.430271
-0.0247537
-1.65395
-0.573372
-1.91664
0.381549
0.805316
-0.356759
0.0757586
2.52234
-0.0628488
-0.345086
-0.428174
2.53433
1.02425
0.273024
0.360055
-0.614599
-0.264278
0.711525
0.367113
0.237397
1.32414
0.880254
-0.14326
-0.672194
-1.14892
0.342519
-1.34698
-0.00864348
-0.0452799
-0.127985
-0.166808
0.321782
-0.842537
0.0539657
1.05745
-0.348102
1.76786
0.0222749
-2.17557
-0.283928
-0.236945
-1.96323
-0.325747
-1.06893
1.32077
3.12898
1.62596
1.83515
2.41075
2.31809
3.49582
2.16632
0.732519
3.32464
2.85167
3.88502
-0.110804
1.26065
1.70583
0.0646675
-1.1348
-2.09399
-1.98063
0.876136
-0.769774
0.612732
1.79161
3.63494
2.52662
1.91758
2.77307
2.49349
1.18992
3.09283
2.31435
3.07891
0.808364
0.775063
-1.27946
0.25921
0.554018
-0.462975
-0.691158
1.4119
0.5776
2.54284
2.67605
0.641791
0.873941
1.93589
1.52478
2.98168
2.30123
0.737778
1.09276
1.46906
1.27322
2.28984
1.17468
1.10298
-1.03886
-1.59898
0.451048
1.31007
-0.564527
0.868864
0.737784
2.59413
3.05194
2.01137
2.76049
1.92074
1.43613
2.61469
0.825224
1.70402
1.08429
2.26301
0.640827
-0.879468
-0.219344
-1.91886
0.402072
-0.445545
0.263652
0.416872
0.260415
0.376686
2.61049
1.30997
0.212999
2.87025
1.56795
-0.401551
0.205412
1.03795
0.454968
1.00886
0.469497
-0.386447
-0.844036
0.144726
-0.0967081
-0.302328
0.395633
-0.651257
0.880488
1.58881
0.0186081
2.03283
1.03029
0.308581
-0.37056
1.52977
1.23645
0.988783
0.241489
-0.318695
0.0361525
-0.652417
-1.90266
-1.71554
0.0764573
-0.948808
1.18499
1.06013
-1.37486
1.09753
-0.0192947
-0.632049
2.41421
1.00479
0.273496
0.421117
1.09958
0.187493
-0.718517
-0.36634
0.357538
-0.918173
-0.888562
-0.924013
-1.44293
1.40632
0.222515
0.027531
0.348892
1.27591
0.032728
1.71211
0.632663
-0.46546
1.9839
0.784979
0.653582
1.49026
-1.09448
0.00966712
-1.28863
-0.0399997
-0.835311
-2.10462
0.750287
0.36499
3.75911
2.03397
1.2254
3.60626
3.26217
3.50242
4.42221
5.24591
3.47322
3.29517
4.65287
3.03112
3.48429
3.16782
1.73925
1.91135
0.337927
-1.44109
0.346202
1.49455
0.70246
0.517013
-0.0473421
2.93847
0.378775
4.74575
-0.137289
0.172852
2.54131
0.201344
3.03739
-0.30981
2.51059
0.164741
1.3352
-0.072784
1.08277
-0.427453
-0.410505
0.938355
0.28312
1.3559
3.06612
3.68256
3.94256
1.34358
4.13689
3.08071
1.64315
1.63114
1.77414
2.46104
1.81329
3.35584
0.352192
-1.92064
-0.344177
0.11246
-0.79865
0.767234
2.81799
2.01132
0.225975
2.27288
2.01517
2.89466
2.10772
1.10359
2.10636
1.98316
4.01379
3.30328
2.04418
1.26356
0.632242
0.813562
-1.42988
0.209647
1.67509
1.52346
0.309089
0.860745
1.48917
1.98725
1.30992
0.228236
2.31094
3.2531
0.631571
5.01107
1.37445
2.55144
1.86252
2.00965
0.236649
1.4278
0.100758
0.344578
-0.356949
-0.174123
0.532522
1.66321
-0.104911
0.471529
2.12372
0.29192
1.76115
0.784691
3.06061
2.06243
1.27562
0.867762
-0.554425
0.00177639
0.590279
0.156734
-1.04753
0.0355677
0.742187
0.890357
1.63414
-1.22484
1.49884
1.25434
0.246011
1.76706
1.47207
0.873136
3.46262
0.820192
0.708957
1.54408
2.20828
0.938139
-1.13782
1.76513
-1.2003
0.101231
1.29436
1.31876
0.807152
0.588361
0.815147
0.258989
0.0831812
0.411966
0.958636
0.229352
0.419657
-1.00124
1.163
-0.981218
1.05204
-0.368978
0.171597
0.218053
0.321963
-1.29304
1.80519
0.500313
4.77765
4.21444
4.07889
2.54125
4.68735
5.43867
4.66036
3.64934
5.74393
2.86998
3.85142
3.77314
3.07425
3.49809
0.869255
2.38943
0.636036
-0.11838
-0.468829
-0.439991
2.35832
4.15739
1.03752
3.4655
2.6196
4.39648
2.45341
4.15756
3.79762
3.46294
4.14479
2.96462
0.671538
4.12072
2.5422
1.58078
0.6143
-0.467206
1.781
1.96845
1.82549
2.70349
1.06378
2.08742
1.671
4.10884
2.29903
2.55042
4.04943
2.4456
3.37534
1.70451
2.72255
2.47779
1.66846
-0.647081
0.0505004
-1.01659
-0.40081
-0.372183
0.58882
1.68379
1.75056
3.53727
3.50887
4.29589
1.34107
2.65314
2.84979
3.82861
2.17352
2.50497
2.01107
3.22841
0.241374
-0.105506
0.182872
-2.46888
0.881338
-0.248434
2.25822
1.20294
0.725827
1.80392
0.719413
2.41227
2.83543
2.15718
0.245951
2.44155
0.55434
4.05706
1.79658
0.687935
0.39839
0.432698
0.987633
0.944789
0.331413
1.17535
1.46269
1.38054
2.37002
1.55221
0.13714
0.780739
0.861649
1.32225
2.82697
-0.160391
1.05506
0.951436
0.139481
0.555505
0.536703
0.994952
1.26391
0.939287
1.41323
2.16048
1.40292
0.3974
2.99991
1.07966
1.88818
0.99263
0.191214
0.840747
1.03649
-0.290479
2.1294
2.29746
0.561151
-0.227184
-0.167697
0.515989
-0.987928
0.889196
-0.039768
0.965315
0.0876107
0.691048
-0.170534
0.97366
0.661315
-0.49843
0.463229
-1.49711
0.673438
0.764245
0.247218
-0.907756
-1.4566
0.60194
-0.171969
1.12257
0.255468
)
;

boundaryField
{
    hotSide
    {
        type            calculated;
        value           nonuniform List<scalar> 
400
(
-2.37867
-0.145063
-0.604962
-2.72016
-2.53811
-1.66143
-2.48812