/*--------------------------------*- C++ -*----------------------------------*\
| =========                 |                                                 |
| \\      /  F ield         | OpenFOAM: The Open Source CFD Toolbox           |
|  \\    /   O peration     | Version:  2212                                  |
|   \\  /    A nd           | Website:  www.openfoam.com                      |
|    \\/     M anipulation  |                                                 |
\*---------------------------------------------------------------------------*/
FoamFile
{
    version     2.0;
    format      ascii;
    arch        "LSB;label=32;scalar=64";
    class       volScalarField;
    location    "0";
    object      relativeErrorField;
}
// * * * * * * * * * * * * * * * * * * * * * * * * * * * * * * * * * * * * * //

dimensions      [0 0 0 1 0 0 0];

internalField   nonuniform List<scalar> 
3200
(
0.00848313
0.00130835
0.000147615
0.00300384
0.00911956
0.00658144
0.0013966
0.00833528
0.00450802
0.0043626
0.0087466
0.0104673
0.00746696
0.00631983
0.00787155
0.00153526
0.0108816
0.00926369
0.00142857
0.00679827
0.00916189
0.00168416
0.00650276
0.000510091
0.00405039
0.0110813
0.00660545
0.00154672
0.00579059
0.00283694
0.00593558
0.00209923
0.00727092
0.00549167
0.0079252
0.00110508
0.00147452
0.000158017
0.000976327
0.00512297
0.00510623
0.00282786
0.00407241
0.0101631
0.00104415
0.00972702
0.0054525
0.00186664
0.000379719
0.0021917
0.00495805
0.0026253
0.00564243
0.00256402
0.00141225
0.00282382
0.000341028
0.00558774
0.00197249
0.00323059
0.00275905
0.0043807
0.0029515
0.00313522
0.00220823
0.00464727
0.00385054
0.00394282
0.00123515
0.00153826
0.00340114
0.00400457
0.00267051
0.00432426
0.00184616
0.0101046
0.00261469
0.00214279
0.00497298
0.00407142
0.00154017
0.00250021
0.000223664
0.00540598
0.00306282
0.000429071
5.98255e-05
0.00119901
0.00697853
0.0025363
0.0029743
0.0032843
0.000383661
0.00616083
0.00193169
0.00490461
0.0020793
0.000641795
0.00140675
0.00657895
0.00168117
0.00302737
0.00494131
0.000235541
0.00289517
0.00299655
0.00327123
0.000267867
0.000883079
0.000127034
0.005526
0.00419296
0.00272483
0.000248665
0.00579136
0.001161
0.00258734
0.00301158
0.00136678
0.00266796
0.00503562
0.00400912
0.00283887
0.00302948
0.00797235
0.00444641
0.00620089
0.00418354
0.00166626
0.00212155
0.0043784
0.00142659
0.00688217
0.00606258
0.00136211
0.00420368
0.00370712
0.00299604
0.000427114
0.000349938
0.00553972
0.000482542
0.00293483
0.00339367
0.000391054
0.000152371
0.00513166
0.002477
0.00541405
0.00480674
0.002832
0.003711
0.00285034
0.000536481
0.00147513
0.000509446
0.00580764
0.00644121
0.000726294
0.00332947
0.00184057
0.00487616
0.00116564
0.00828751
0.00563065
0.00643407
0.00564631
0.00448814
0.00756744
0.00921213
0.00242518
1.26733e-05
0.00496836
0.0074859
0.00623764
0.00705677
0.0105947
0.00226803
0.000614782
0.00690578
0.00622358
0.000142465
0.00127795
0.000257453
0.00628664
0.00144176
0.00698228
0.000381714
0.00511757
0.00108634
0.000235642
0.00708752
0.000430942
0.00464705
0.000711009
0.00392362
0.000274782
0.00251882
0.0012208
0.00383189
0.000597541
0.00332024
0.000817031
0.00511184
0.0046004
0.000170679
0.00541928
0.00641583
0.000309693
0.00236629
0.00420857
0.00967009
0.00616115
0.00308583
0.00316929
0.00554026
0.00473654
0.00154385
0.00194948
0.00488335
0.00758705
0.00207594
0.00446329
0.00704136
0.00553272
0.00667618
0.000479158
0.00605866
0.0045008
0.00294858
0.0032448
0.000466841
0.000833853
0.00782483
0.000787606
0.00264983
0.00523545
0.0020624
0.00189971
0.00252722
0.00348997
0.00146942
0.00309629
0.00561173
0.00264322
0.000736257
0.00130371
0.0023478
0.000509689
0.00259433
0.00856229
0.0060859
0.00265706
0.00404598
0.00459646
0.00058365
0.00770095
0.000852
0.00399191
0.00289308
0.00303165
0.00515016
0.00264945
0.00297364
0.00388703
1.49306e-05
0.00218583
0.00112008
0.00687324
0.00500546
0.000369575
0.000110304
0.00220229
0.00101266
0.0030403
0.00597386
0.00447122
0.00316469
0.00269251
0.00749899
0.00562446
0.00712154
0.00233358
0.00360942
0.00244626
0.00405672
0.00735985
0.00139636
0.0045855
0.00240988
0.00067317
0.00124976
0.000988323
0.000875005
0.00626864
0.00315366
0.00196477
0.000331819
0.00444227
0.00417858
0.00644196
0.00284894
0.00210033
0.00513307
0.00223206
0.00128515
0.0055492
9.52471e-05
0.00549144
0.00241968
0.00247938
0.000796496
0.00645919
0.000354584
0.00057487
0.000300398
0.00312622
0.000354369
0.0019128
0.00383785
0.00321436
0.00282181
0.00308117
0.00603997
0.00807078
0.0048213
0.00379848
0.00706156
0.00601087
0.00504003
0.000218962
0.00203675
0.00301684
0.00230287
0.0114365
0.00579435
0.000213055
0.00306496
0.00142868
0.00437594
0.00534852
0.00109315
0.00456032
0.000402309
0.00895857
0.00626764
0.00739027
0.00717958
0.00295881
0.00678417
0.00398436
0.000669288
0.00604936
0.0078138
0.00144925
0.000906594
0.0050545
0.00318118
0.00238338
0.00948763
0.0120608
0.00244246
0.00162379
0.00836216
0.00541132
0.00820321
0.00654162
0.0012396
0.00145286
0.00486036
0.0062864
0.0021016
0.00095012
0.00509347
0.00110596
0.00444558
0.00682644
0.00323492
0.00225804
0.00629486
0.0120265
0.00185597
0.000202031
0.0046537
0.00232411
0.00358203
0.00488388
0.00410161
0.00739773
0.000647669
0.00377159
0.00305631
0.0057427
0.00346508
0.00306345
0.00572913
0.00317017
0.00301597
0.00102928
0.00525326
0.00277564
0.00122798
0.00061848
0.00100455
0.00486418
0.00373628
0.00682764
0.00313141
0.00408472
0.00352721
0.000151057
0.00130947
0.00189994
0.00759479
0.00411526
0.00527859
0.00575817
0.000471523
0.00161485
0.00354787
0.00283686
0.000622371
0.00209531
0.000319207
0.00135091
0.00515373
0.00168443
0.0016227
0.00159293
0.000976662
0.00115188
0.00222045
0.00847516
0.0044821
0.0086697
0.00185093
0.000804601
0.00522256
0.00294036
0.00361602
0.00624441
4.16911e-05
0.00176382
0.00180157
0.00862887
0.00238817
0.00153394
0.0019174
0.00375938
0.00447139
0.00145632
0.00222834
0.00129601
0.00703508
0.00724707
0.000981245
0.0007966
0.000284385
0.00154695
0.000736839
0.00290021
0.00375502
0.00143809
0.00100115
0.00200002
0.00468023
0.00251983
0.0034739
0.0019778
0.00732854
0.0031249
0.00335158
0.00292681
0.00402968
0.00253347
0.000854136
0.000808283
0.00477192
0.00114258
0.000905712
0.00950114
0.00708717
0.000106904
0.00316856
0.00352798
0.0073988
0.00618947
0.0036307
0.00521216
0.000848191
0.00493913
0.00529857
0.00368397
0.0059022
0.00455021
0.00190807
0.00309094
0.00098593
0.00315281
0.0069135
0.00912637
0.00081924
0.00968114
0.00164612
0.00102439
0.000523707
0.00153663
0.00141595
0.00115107
0.000431269
0.000140196
0.00107062
0.00102934
0.00645744
0.000772805
0.00326074
2.02498e-05
0.00406852
0.00141032
0.00105044
0.00704868
0.00553665
0.00605182
0.00407877
0.000888444
0.00568438
0.00282239
0.00646176
0.000414405
0.0024486
0.00285202
0.000256422
0.00441304
0.00913405
0.00382676
0.00233247
0.0100472
0.00335296
0.00125168
0.00412588
0.00917832
0.00569877
0.00153564
0.00384062
0.00526686
0.00147804
0.00446616
0.0030602
0.00725702
0.00594424
0.000614751
0.000454954
0.00543395
0.00566049
0.00337088
0.00377254
0.000513113
0.00184488
0.00384227
0.000257436
0.00615661
0.00183498
0.0012853
0.00223138
0.00503182
0.00263757
0.00168722
7.02604e-05
0.00222553
0.00183022
0.00260429
0.000763093
0.00474888
0.00638791
0.00321728
0.00118277
0.000901849
0.00255144
0.00430045
0.000805507
0.00437917
0.00188726
0.00326576
0.00633104
0.00291305
0.00254081
0.00155588
0.00334415
0.00216048
0.00598555
0.00116914
0.000246825
0.00120697
0.00302315
0.000383461
0.000236418
0.00580333
0.00616722
0.00607621
0.00299041
0.00207236
0.000675513
0.00391291
0.0018543
0.00494796
0.00299821
0.00116178
0.00321222
0.00158022
0.00031586
0.000679989
0.00130019
0.000150854
6.5332e-06
0.00242975
0.00745171
0.00526651
0.003626
0.00304407
0.000185252
0.000849483
0.00312767
0.00162092
0.00102327
0.00267552
0.000167853
0.00488368
0.00105105
0.00158466
0.00280796
0.00228577
0.00156201
0.00816779
0.00421774
0.0026836
0.000986557
0.00450734
0.00771832
0.00156992
4.00238e-05
0.0089631
0.00166199
0.00286995
0.00552133
0.00095235
0.00875934
0.000685275
0.00211261
0.00424916
0.00118543
0.0034815
0.00437511
0.00393288
0.00333795
0.00476477
0.000365035
0.00304786
0.00230226
0.00423026
0.0104646
0.00883968
0.00297164
0.000442379
0.00142019
0.00266032
6.02407e-05
0.00418776
0.00404835
0.00371103
0.000237377
0.000161603
0.00552491
0.00281923
0.00472368
0.00686032
0.00270367
8.9889e-05
0.000725002
0.00404892
0.0102773
0.00891105
0.00402699
0.00129189
0.00505108
0.00330344
0.00240906
0.00242143
0.00145288
0.00628531
0.00376491
0.00300826
0.0031995
0.000349245
0.00372043
0.00019876
0.00383041
0.00119594
0.00383277
0.00484327
0.00485598
0.00456133
0.00239636
0.000474184
0.00329668
0.00666379
0.0028112
0.00151007
0.00163507
0.000315107
0.00237958
0.00630206
0.00236502
0.00304953
0.00119519
0.00106704
0.000698293
0.00338064
0.00157803
0.00346592
0.0107643
0.00366957
0.00872146
0.00541031
0.00378217
0.00531622
0.00360817
0.00273164
0.00649434
0.00621756
0.00192307
0.000707567
0.00493131
0.00431285
0.00151393
0.000202462
0.0017043
0.00296562
0.00100624
0.003251
0.00521638
0.00327252
0.00019714
0.00455346
0.003057
0.00183489
0.000298916
0.000782601
0.00559122
0.00202438
0.00130363
6.07052e-05
0.00378052
0.00655365
0.00251728
0.00132276
0.00575815
0.00721493
0.00245572
0.00275335
0.00528584
0.0102387
0.00634515
0.00283545
0.00245884
0.00297833
0.000473269
0.000427773
0.00838673
0.00234597
0.00101059
0.00213559
0.00103515
0.00295287
0.000894457
0.00167624
0.00119593
0.00151047
0.00313238
0.000107028
8.20882e-05
0.000824065
0.00108924
0.00279966
0.00325025
0.000470621
0.00040083
5.6309e-05
0.000545262
0.00280339
0.00555836
0.00511041
0.00412849
0.000839473
0.00120764
0.0031492
0.0050294
0.00294584
0.00254463
0.00103188
0.00141894
0.00637394
0.0100985
0.00403498
0.000272694
0.00324669
0.00474803
0.0048057
0.00194863
0.00174531
0.00284185
0.00278146
0.00123529
0.00401154
0.00348824
0.0026306
0.00115558
0.000838389
0.00223594
0.00606723
0.0139268
0.00767371
0.000298865
0.00544279
3.72121e-05
0.00321251
0.00110427
0.00254776
0.000102604
0.0070062
0.000530307
0.00171558
0.000524599
0.000919442
0.00142544
0.00160399
0.00104241
0.000175252
0.00618719
0.000796162
0.00388049
0.0130894
0.00343176
0.00499044
0.00238893
0.000534188
0.0013673
0.0012367
0.00446114
0.000938276
0.000166586
0.000210831
0.000593005
0.00257705
0.00882086
0.00185112
0.0107
0.00428242
0.00199
0.00541063
0.00519197
0.00544153
0.00411262
0.00265539
0.00297196
0.00354324
0.000296867
0.00387571
6.96727e-05
0.00471129
0.00116444
0.00226422
0.00227073
7.82197e-05
2.54701e-05
0.00268742
0.00512063
0.00345931
0.00288246
0.00208441
0.00340451
0.00320357
0.000670403
0.00486485
0.00561155
0.00135283
0.00414295
0.0061794
0.00154362
0.00219599
0.00219788
0.000133045
0.00590146
0.000666892
0.000978612
0.0048932
0.00213098
0.000904257
1.10389e-06
0.00271995
0.003179
0.0001037
0.00691086
0.000825617
0.000825421
0.000335604
0.00506434
0.00465523
0.00449363
0.00541762
0.000194156
0.000405269
0.00181289
0.00395741
0.00244896
0.0034218
0.00133704
0.003173
0.00164009
0.00472387
0.00458218
0.00755462
0.00176011
0.000449928
0.00119685
0.000852837
0.000436196
0.000757396
0.000548464
0.000626056
0.00265383
0.0035165
0.00223692
0.000519874
0.000377779
3.35642e-05
0.00844258
0.00343369
0.00153653
9.7862e-05
0.00171795
0.000753276
0.00503603
0.00348435
0.00191316
0.00226239
0.00101991
0.00275368
0.00124284
0.00276043
0.000833663
0.0016679
0.00160904
0.000643438
0.000588522
0.00454653
0.00253824
0.001134
0.00773533
0.00279424
0.00170183
0.00882223
0.00924648
0.00116453
0.00317882
0.00065972
0.00442396
0.000539246
0.000387096
0.00290979
0.00287941
0.00330087
0.00404945
0.00371389
0.00353978
0.00240742
0.0017618
0.00182148
0.00258202
0.00861679
0.0055566
0.0052853
0.0100929
0.00324441
0.000595565
0.00276634
0.00175014
0.00231809
0.000765638
0.00145289
0.00193087
0.00279691
0.00251754
0.00362199
0.00165107
0.00142036
0.000663264
1.29638e-05
0.00226463
0.00567486
0.00868078
0.0123033
0.00271055
0.000565278
0.00505727
0.000641591
0.00110871
0.00411088
0.00124474
0.00494722
0.000975097
0.00209242
0.00218372
0.000959743
0.00109553
0.00474853
0.000117217
0.00312646
0.00158236
0.00832303
0.00813959
0.00655639
0.00751645
0.00258275
0.00366745
0.00575835
0.00389118
0.00342268
0.00393614
0.00493777
0.00271776
0.00134501
0.00246282
0.00733888
0.00432576
0.00421348
0.0023419
0.00287036
0.00273273
0.00238095
0.00675314
0.00628396
0.00693948
0.00675613
0.00283166
0.00384834
0.000941439
0.00286068
0.00245409
0.000277112
0.00599312
0.00367365
0.0075198
0.00354737
0.00109978
0.000687086
0.00452036
0.000373943
0.00260932
0.00310885
0.00331412
0.00231086
0.0044404
0.00248024
0.0018112
0.00115066
0.00308559
0.00231756
0.000357061
0.000756355
0.000900632
0.00174876
0.000302071
0.00226968
0.00287058
0.00226464
0.00216279
0.0016173
0.00050818
0.00412187
0.00708662
0.00663915
0.00691062
0.00273122
0.00273445
0.000178209
0.00131773
0.00526767
0.00445706
0.0016623
0.000347583
0.000849551
0.00438425
0.00205654
0.00766715
8.96607e-06
0.00269759
0.00166468
0.000990811
0.0016606
0.00529152
0.00268273
0.00260782
0.00197155
0.00528357
0.00183568
0.000746416
0.000731208
0.00733042
0.00448299
0.00406451
0.000972284
0.00206894
0.00187589
0.00145421
0.00684717
0.00415446
0.00347389
0.00237801
0.00264777
0.00213282
0.0038074
0.00903369
0.00194588
0.00315496
0.000756429
0.00161672
0.000129217
0.00367121
0.00239231
0.00308747
0.00509
0.00350475
0.00607134
0.00336451
0.00202181
0.00189801
0.00166645
0.00520453
0.00628132
0.0111877
0.020114
0.000265853
0.00708286
0.000787384
0.00105005
4.54882e-05
0.00399912
0.0011237
0.00679141
0.000420039
0.00097237
0.000808549
0.000715629
0.00238932
0.000665884
0.00150433
3.59327e-05
0.00277045
2.60099e-05
0.0156188
0.0117192
0.00636892
0.00887073
0.00347393
0.00329319
0.00447781
5.60218e-06
0.00084271
0.00322041
9.80896e-05
0.000311969
9.29184e-05
0.00447673
0.00278039
0.00481951
0.00351252
0.001882
0.00309676
0.00466466
0.00625489
0.00954054
0.0058674
0.000627678
0.00246201
0.00341473
0.00260481
0.00597817
0.00237801
0.00112627
0.00429794
0.00289884
0.00307246
0.00160496
0.00103638
0.00144117
0.000338186
0.00175144
0.000803577
0.00648327
0.00922905
0.00523122
0.00492369
0.000791987
0.00123874
0.00261078
0.00474163
0.00245411
0.000521372
0.00402538
0.00247602
0.000341065
0.00382018
0.00522862
0.00762152
0.0046498
0.000841799
0.000165262
0.00463
0.000476726
0.00416293
0.000235955
0.00782792
0.00393454
0.000680613
1.80286e-05
0.00270593
0.00221604
0.00128371
0.00343557
0.00177125
0.00282319
0.00314262
0.00301113
0.00687368
0.00364968
0.000683852
0.00805881
0.00273926
0.00432278
0.00875795
0.00785973
0.00113029
0.00178709
0.000622248
0.000922472
0.00392247
0.00414594
0.00277407
0.00320234
0.00451925
0.000674844
0.000306071
0.00330942
0.000581405
0.00300216
0.00147038
0.0049094
0.00371143
0.00142782
0.00318026
0.000382291
0.0016769
0.00169822
0.00181672
0.00162011
0.00592903
5.48055e-05
0.000370046
0.0028665
0.00206424
0.000978508
1.61849e-05
0.00133789
0.000955157
0.005926
0.000476812
0.00989926
0.00511702
0.000212829
0.00130026
0.0130402
0.0165181
0.00398614
0.00735405
0.00110082
0.0019774
0.00309441
0.00100133
0.00152538
0.00564749
0.0062664
0.00256776
0.00649592
0.00356451
0.00486315
0.00088759
0.00186635
0.0043989
0.0060084
0.0115677
0.0115327
0.0119115
0.00510512
0.00259144
0.00742845
0.00737251
0.00118144
0.00196317
0.000518743
0.00480972
0.0017581
0.00519856
9.57753e-05
0.00406428
0.000851038
0.000335017
0.00280723
0.0048801
0.0081052
0.00970982
0.0137561
0.00479018
0.00743787
0.00594514
0.00184139
0.0039339
0.00455447
0.00337323
0.0054889
0.00124627
0.00303345
0.00674042
0.00267938
0.00413476
0.00360935
0.000479615
0.00379421
0.00324305
0.00833014
0.0139052
0.00671565
0.00890021
0.00137292
0.00675088
4.82545e-05
0.00413875
3.66174e-05
0.0058401
0.00211455
0.0058724
0.00319311
0.00112697
0.00692605
0.00553515
0.00350657
0.00151477
0.00456324
0.00638134
0.00394881
0.00920232
0.00964843
0.00194495
0.00417765
0.000194177
0.0021069
0.00139156
0.00102806
0.00432233
0.000642344
0.000411897
7.08187e-05
0.00011427
0.00282415
0.000285014
0.00397063
0.000815597
0.00394679
0.000157724
0.00356374
0.00819457
0.00648736
0.00309135
0.000984771
0.00142148
0.000794198
0.00130927
0.00349338
0.00506868
0.00188394
0.00550969
0.00110223
0.000929747
0.00303513
0.00113287
0.00214276
0.00244983
0.00064188
0.000237548
0.00154183
0.00552477
0.00550093
0.00211862
0.00595348
0.000913704
0.00058277
0.00512754
0.00143996
0.000977923
0.00151168
0.00417957
0.000688301
0.00385369
0.00618424
0.00192843
0.00187987
0.00144788
0.00291512
0.00566102
0.000459757
0.00203152
0.00297935
0.00174715
0.00287806
0.00115881
0.00411376
0.00496606
0.00253043
0.000591799
0.00226421
0.00297947
0.00136873
0.00561228
0.000850208
0.00127632
0.0027602
0.0028238
0.00277247
0.00213496
0.00160309
0.00151124
0.0137767
0.0168367
0.00627007
0.00970621
0.000597825
0.0025423
0.00313384
0.00649054
0.00857476
0.00759047
0.00285616
0.00786413
0.00445016
0.00247171
0.000338552
0.00355067
0.00447893
0.00769824
0.00695928
0.0111473
0.00815915
0.00164411
0.000513984
0.000181782
0.000749679
0.000585945
0.000909991
0.00167797
0.00912368
0.000835233
0.000670729
0.00086544
0.00151551
0.00072802
0.000173316
0.00172122
0.000226626
0.00352313
0.000604572
0.0125164
0.00945196
0.0109678
0.0040098
0.00152418
0.0025272
0.000985438
0.00245953
0.000326964
0.00505538
0.00574709
0.00869249
0.00393973
0.00604514
0.00297792
0.00424492
0.000117676
0.00189333
0.00152118
0.00487225
0.00747802
0.00666767
0.00328691
0.00433671
0.0020787
0.00282098
0.00477903
0.00188757
0.00190091
0.000929015
0.000457912
0.000415613
0.000299018
0.0016138
0.00166128
0.00103336
0.00202839
0.000148427
0.00147303
0.00202453
0.00550729
0.00712651
0.0028059
0.00920206
0.00664714
0.00378649
0.00139951
0.0039581
0.000894752
0.00202273
0.00228981
0.00158188
0.00238805
0.00167856
0.0070362
5.24508e-05
0.00327483
0.00109486
0.00285445
0.000170707
0.0088173
0.00281229
0.00539522
0.0017139
0.0021108
0.00176839
0.0045887
0.00155203
0.00663604
0.00235166
0.00118955
0.00407473
4.73644e-05
0.00143486
0.00228616
0.00441542
0.00556507
0.00215324
0.00395585
0.00429625
0.00332649
0.00611753
0.000325558
0.00125268
0.00530911
0.00361586
0.00122502
0.00327768
0.00196975
0.0011509
0.00571515
0.00409173
0.0021825
0.0034479
0.000846056
0.00296159
0.00283619
0.000349256
0.00024315
0.00438845
0.00165966
0.00199875
0.0013185
0.00192576
0.00215702
0.00064791
0.00325259
0.00167413
0.00690705
0.00150189
0.00223368
0.00101377
0.00332308
0.000855775
0.00212973
0.00241532
0.000428106
0.0057098
0.00248244
0.00175176
0.00164326
0.0135128
0.014762
0.00698512
0.00597619
0.00734456
0.00121532
0.00661337
0.00512957
0.000877956
0.00237802
0.00741172
0.00138166
0.00469975
0.00347522
0.00391898
0.00330093
0.00409255
0.00795774
0.016256
0.0148564
0.00961644
0.00246859
0.00917075
0.000225798
0.00407665
0.00138754
0.00213081
3.39946e-05
0.00558487
0.00129905
0.000338024
0.0060459
0.00136846
0.00228082
0.000891994
0.000531237
0.000159383
0.00393772
0.000616156
0.00753289
0.012016
0.00650758
0.00270142
0.000573774
0.00292111
0.00125285
0.00113578
0.00185386
0.00108411
0.0106696
0.00702207
0.00669955
0.00635906
0.00466566
0.00181914
0.00241315
0.000456822
0.0115683
0.00317285
0.00555119
0.00567346
0.0061762
0.0122476
0.00289185
0.00634181
0.00227489
0.00274654
0.00103501
0.000541475
0.00226282
0.00270041
0.00327835
0.000356091
0.00455189
0.00336842
0.00295307
0.000706353
0.00634783
0.00789268
0.00497076
0.00440167
0.00868153
0.00213638
0.000354458
0.00107467
0.0027573
0.000851649
0.00384814
0.00209035
0.000169436
0.0019731
0.000601899
0.00237195
0.00651263
0.0024345
0.00359181
0.0024657
0.00172765
0.00997187
0.00620988
0.00345885
0.00251454
6.46988e-05
0.00717268
0.000753007
0.000759003
0.00720857
0.00350791
0.000739682
0.00240062
0.00113737
0.001117
0.00249313
0.00283336
0.00157096
0.00257616
0.00362682
0.00332528
0.00119826
0.00906571
0.00564657
0.00176051
0.000151729
0.00207292
0.0075358
0.000933421
0.0001853
0.000862047
0.000463001
0.000563529
0.00438374
0.00324602
0.000933019
0.000989201
0.00609974
0.000821296
0.000709786
0.00274639
0.00225153
0.00447508
0.000168456
0.00213067
0.00102148
0.000598146
0.0032861
0.00231565
0.00405344
0.00215757
0.00592159
0.00187404
0.000483084
0.000371147
0.00222206
0.00256303
0.00358699
0.000553441
0.000552576
0.00143895
0.000435602
0.000445715
0.0141158
0.0107813
0.0105278
0.00275566
0.00123033
0.00591607
0.00240612
0.000174766
0.00122939
0.00525517
0.00114349
0.00687704
0.0102477
0.00318478
0.0036243
0.000916938
0.00491297
0.00367512
0.00649327
0.0133423
0.0115491
0.0134714
0.00639973
0.00654635
0.00699807
0.00302635
6.17484e-05
0.00402735
0.00521776
0.00439251
0.000465345
0.0101956
0.0104798
0.000808773
0.0039395
0.0076004
3.39224e-05
0.00475295
0.00907062
0.0104576
0.00514367
0.00711999
0.00258326
0.0038786
0.00151581
0.00145331
3.64887e-05
0.00017239
0.00360855
0.00236717
0.0047895
0.00344982
0.00630786
0.00510759
8.45048e-05
0.00117251
0.00140562
0.00535723
0.00476106
0.00866256
0.0114528
0.000890042
0.00308153
0.000688743
0.00466265
0.00175662
0.00422446
0.00149771
0.00224699
0.00510081
0.00370305
0.00855081
0.0031443
3.19951e-05
0.00100575
0.000978017
0.000279171
0.00471506
0.00253043
0.00098323
0.00730533
0.00263303
0.004765
0.00251817
0.00224278
0.00169569
0.00299868
0.00257479
0.00539866
0.00460983
0.00150702
0.0034257
0.00281782
0.000279891
0.00269873
0.00251473
0.0010618
0.00102849
0.00509475
0.00101481
0.00436382
0.000806092
0.00354725
0.00149101
6.09429e-05
0.00236641
0.00397904
0.00204387
0.00604807
0.00457457
0.00219655
0.00600586
0.00372108
0.00158461
0.00316624
0.00200335
0.000897657
0.00594881
0.000260956
7.65085e-05
0.00387178
0.00332141
0.00292785
0.00103168
0.000809526
0.00172906
0.00303568
0.00124156
1.99571e-05
9.19594e-05
0.00230308
0.00151133
0.000984213
0.00392096
0.000222933
0.00776919
0.000539644
0.00189567
0.00394515
0.00112055
0.00224371
0.00630357
0.00112721
0.0017833
0.00434498
0.00191838
0.000560395
0.00164173
0.00578585
0.00185394
0.00609158
0.000399273
0.00203326
0.00352568
0.00191652
0.0011603
0.000414083
0.00267027
0.00322863
0.00760742
0.01502
0.0120156
0.00590662
0.00331456
0.00488825
0.00180581
0.0013527
0.0016096
0.00374004
0.00588651
0.00200173
0.00535595
0.000129966
0.00105018
0.00298387
0.00389583
0.00239252
0.00846748
0.00669913
0.0100829
0.0114078
0.00156256
0.00652264
7.10637e-07
0.000764636
0.00101817
0.000671866
0.00120343
0.000387049
4.42392e-05
0.000468903
0.00520067
0.000571261
0.000781826
0.00156856
0.00101818
0.00078082
0.00227013
0.00239095
0.00943109
0.0091563
0.0098249
0.00417943
0.00327825
0.00220394
0.00117975
0.00105869
0.00257344
0.00133039
0.00467935
0.00315782
0.000134118
0.0065618
0.00291297
0.001959
0.00265409
0.000335845
0.00696956
0.0043146
0.00988474
0.00402991
0.00796476
0.00412821
0.00571444
0.000654901
0.00197448
2.65749e-05
0.000606762
0.00601275
0.00039013
0.00116756
0.00149257
0.00494907
0.00477641
0.00246276
0.00196693
0.00242015
0.00693064
0.000558736
0.00803603
0.00510553
0.0046446
0.00580871
0.00118806
0.00213552
0.000926421
0.00362794
0.00540957
0.00595119
0.00183433
0.00191684
0.00442832
0.00243968
0.0052948
0.0008129
0.00386504
0.00433294
0.000481018
0.000754711
0.010187
0.00724732
0.0034223
0.00106212
0.000332413
0.00413876
0.000750153
0.000558278
0.000829221
0.00538174
0.00141056
0.000485829
0.0111465
0.0029877
0.00097581
0.000848416
0.00241009
0.00420809
0.00537566
0.000252991
0.00316934
0.00106375
0.0042129
0.000229081
0.00380524
0.0031639
0.00208733
0.00438712
0.00105118
0.00164005
0.000224751
0.00442114
0.00426576
0.00258006
0.00295611
0.00340689
0.00463795
0.000680897
0.00227718
0.000429826
0.00950452
0.00426958
0.00179553
0.00369887
0.000579188
0.000867496
0.00496328
0.00529658
1.53673e-06
0.000468649
0.00330742
0.00193167
0.00419851
0.0048901
0.00409608
0.00112151
0.00558786
0.000614618
0.000386033
9.33544e-05
0.000775672
0.00936952
0.00566856
0.00322996
0.00467915
0.00137584
0.00158683
0.00109741
0.00145685
0.00262893
0.000340509
0.00810459
0.00259986
0.00183987
0.00290555
0.00323639
0.00449734
0.00718863
0.00838947
0.00636949
0.00671145
0.00622083
0.0103003
0.0064834
0.00180015
0.00289143
0.00094501
0.00157551
0.000512755
0.00712614
0.00129611
0.00175538
0.00210453
0.00241803
0.00131239
0.0033473
0.00288201
0.00111274
0.00637066
0.00166708
0.00657208
0.00474109
0.0087095
0.0023884
0.00590463
0.00328618
0.00268808
0.00104158
0.0032478
0.000562962
0.00467991
0.00419851
0.00346507
0.000734881
0.000817957
0.00251299
0.007825
0.000588093
0.00264939
0.0062532
0.000946496
0.0101004
0.00518692
0.00173359
0.00542227
0.00312128
0.00148729
0.00387479
0.000759948
0.00160547
0.000626321
0.00334215
0.000407877
0.00127528
0.000269503
0.00230296
0.00535244
0.00528628
0.000134305
0.00527464
0.00585097
0.00408085
0.0115374
0.00194365
3.63177e-05
0.00150476
0.00261282
0.00284052
0.00452537
0.00399319
0.00351347
0.00297057
0.00163182
0.00209435
0.00442234
0.00178342
0.000784204
0.00298967
0.000602862
0.00307256
0.00146884
0.000476959
0.00344678
0.00384318
0.00323537
0.000871942
0.00385839
0.00624524
0.000225797
0.00056799
6.01016e-05
0.00113203
0.0020493
0.00166505
0.00093484
0.00269716
0.00307147
0.00232492
0.00418638
0.000324214
0.00262612
0.00265653
0.00345275
0.00217805
0.00204067
0.0025125
0.00113286
0.00531127
0.00083813
0.00563344
1.89406e-05
0.00462042
0.00418634
0.00165856
0.00104175
0.00155071
0.0037763
0.000668503
0.0075028
0.00208917
0.00728594
0.00265761
0.00115279
0.000865659
0.00551865
0.00186797
0.00368173
0.00549705
0.000732982
0.00487614
0.000178596
0.000864816
0.00411727
0.00208053
0.00611721
0.00146525
0.00234695
0.00108556
0.00205793
0.00159511
0.00131157
0.0131003
0.00786746
0.00588919
0.00508795
8.97117e-05
0.00251414
0.00137195
0.00246666
0.000881632
0.00290248
0.000814994
0.00135997
0.00423553
0.00311882
0.000338801
8.09594e-05
0.000627731
0.00169706
0.00258041
0.0101783
0.010047
0.000738327
0.00614411
0.00157197
0.00518256
0.00105694
0.00133497
0.000105668
0.00217458
0.000909096
0.000564841
0.000855133
0.00142175
0.00357037
0.000483069
0.00149175
0.000730988
0.00294585
0.000464406
0.00771694
0.0108745
0.00919638
0.00416108
0.00129541
0.00184908
0.00396394
0.00164646
0.00178886
0.000922655
0.000936235
0.00146588
0.00348117
0.00181873
0.000330136
0.000651501
0.00456304
0.00308848
0.00945867
0.00131117
0.00613941
0.00588572
0.000586836
0.00198776
0.00348247
0.00685911
0.00117097
0.000856162
0.0017495
0.000617998
0.00267664
0.000424947
0.00034456
0.00065575
0.00112794
0.00335481
0.00457639
0.00530878
0.00117327
0.00424545
0.00367456
0.00199364
0.00287707
0.00498523
0.00329347
0.00307541
0.00234544
0.000988344
0.0125692
0.00382617
0.00127335
0.00488506
0.000718933
0.000282042
0.00238088
0.00298019
0.0032816
0.000962348
0.000180764
0.00322297
0.00613047
0.00285339
0.00675997
0.00481654
0.001052
0.0035512
0.00192412
0.00353677
0.000387329
0.00684437
0.00454186
0.00235306
0.00883092
0.00322461
0.00419509
0.00289518
0.000505468
0.00162734
0.00498855
0.000977526
0.00817745
0.00090154
0.000783747
0.00258296
0.00582926
0.00342716
0.000421338
0.00244895
0.0080636
0.0010511
0.00384259
0.000626135
0.000634114
0.00125275
0.0015821
0.00217557
0.00289012
0.00283757
0.00113374
0.0025555
0.000117568
0.000648871
0.000666636
0.00127168
0.00184869
0.00475719
0.00323302
0.00174391
0.000351383
0.00167038
0.000822405
0.00235249
0.000306814
0.00303149
0.00222773
0.00314811
0.00421552
0.00217194
0.00329348
0.000809566
0.0033876
0.00865904
0.0100275
0.00221861
0.000675952
0.00175504
0.00384965
0.0030235
0.00842316
0.00533845
0.0011511
0.00251533
0.00421913
0.00222997
0.00380692
0.0049562
0.00505762
0.000855413
0.00229891
0.000289598
0.00515856
0.00968312
0.0021514
0.0020668
1.43222e-05
0.00538287
0.00708336
0.00320461
0.00793322
0.00356884
0.00136932
0.00521566
0.00221154
0.00365024
0.00087357
0.00291321
0.00186726
0.0014284
0.00273404
0.00369431
0.00359149
0.00745003
0.00707497
0.0019733
0.0048396
0.0029719
0.00451201
0.00118404
0.0081007
0.00760879
0.0043139
0.00493474
0.00163516
0.00347536
0.00514131
0.00484038
0.00369153
0.000423823
0.000913345
0.00654497
0.00284079
0.00569812
0.000920932
0.00035519
0.00273163
0.00461842
0.00280714
7.0113e-05
0.00480038
0.000474346
0.000603546
0.00354798
0.000494838
0.00368674
0.000166902
0.000431414
0.000432114
0.00032762
0.00668149
0.00420749
0.00143337
0.00266909
0.00085415
0.00166269
0.00180344
0.000896553
0.00942979
0.00125815
4.97034e-05
0.000383922
0.0013855
0.00147594
0.00150518
0.00451118
0.00333488
0.0051859
0.00220053
0.00325074
0.00305232
0.00102628
0.00199997
0.000841447
0.00178479
0.00483917
0.0018786
0.00446148
0.000976208
0.00032115
0.000703797
0.000179919
0.000940058
0.0011191
0.00515292
0.000346746
0.00193104
0.00480484
0.00151193
7.79593e-05
0.00156163
0.00265842
0.00226796
0.00649375
0.00386898
0.00114646
0.00376753
0.00425576
0.00343052
0.00214909
0.00188136
0.00234115
0.000571845
0.00222326
0.00341795
0.00148403
0.00356083
0.0014739
0.00614761
0.00232517
0.000344217
0.00558695
0.00501423
0.00465145
0.00142635
0.00234324
0.00544208
0.00530845
0.000681742
0.0010349
0.00283425
0.000554425
0.00257264
0.00476681
0.000249348
0.00128846
0.00389539
0.000847085
0.000390904
0.00668285
0.00271627
0.0070823
0.0019019
0.00339147
0.00537295
0.00304762
0.00258456
0.00645555
0.00173473
0.00305093
0.00625175
0.00368988
0.00461412
0.00381993
0.00672458
0.00748203
0.00364429
0.00566017
0.00668382
0.000722273
0.00153682
0.00116316
0.00839768
0.00447011
0.000503016
0.00439245
0.000181394
0.00213185
7.12137e-05
0.00274734
0.00071054
0.00641838
0.000433383
0.000178225
0.00812479
0.00021139
0.00688895
3.15836e-05
0.000556436
0.00013694
0.0014745
0.000466025
0.000418657
0.00202947
0.00720038
0.00139085
0.00640864
0.00210895
0.00685631
0.00353441
0.00309352
0.0028458
0.00148903
0.00615702
0.00376605
0.00596332
0.0087148
0.00105524
0.00103937
0.00200198
0.00186555
0.00302183
0.000636908
0.00595068
0.00159312
0.00199399
0.0039517
0.000101012
0.00296479
0.00212522