/*--------------------------------*- C++ -*----------------------------------*\
| =========                 |                                                 |
| \\      /  F ield         | OpenFOAM: The Open Source CFD Toolbox           |
|  \\    /   O peration     | Version:  2212                                  |
|   \\  /    A nd           | Website:  www.openfoam.com                      |
|    \\/     M anipulation  |                                                 |
\*---------------------------------------------------------------------------*/
FoamFile
{
    version     2.0;
    format      ascii;
    arch        "LSB;label=32;scalar=64";
    class       volScalarField;
    location    "0";
    object      stateMean;
}
// * * * * * * * * * * * * * * * * * * * * * * * * * * * * * * * * * * * * * //

dimensions      [0 0 0 1 0 0 0];

internalField   nonuniform List<scalar> 
3200
(
338.929
336.809
336.79
336.131
334.482
335.745
337.873
335.842
337.369
337.54
336.054
335.35
336.136
336.208
335.309
337.042
333.475
333.621
335.888
338.363
334.2
330.854
329.575
332.251
331.095
329.107
330.922
332.881
331.665
332.756
331.722
332.897
330.973
331.293
330.158
332.075
331.592
331.68
331.088
332.863
327.964
327.425
328.103
323.743
327.714
324.484
326.158
327.565
328.222
327.716
326.808
327.485
326.326
327.105
328.134
326.448
327.179
324.946
325.858
327.352
322.356
323.042
322.803
321.084
321.631
321.088
321.569
321.728
322.741
322.715
322.113
321.846
322.139
321.416
321.991
319.086
321.252
322.543
323.232
322.778
317.158
317.588
316.895
318.869
318.32
317.401
317.693
317.478
315.747
317.216
317.077
316.922
317.981
315.755
318.15
315.792
316.495
317.169
316.35
318.753
312.419
311.041
310.564
312.166
311.474
311.578
311.616
312.828
312.544
312.82
311.131
314.132
311.892
312.717
310.704
312.015
313.048
311.166
312.411
312.727
308.685
305.96
308.137
306.414
304.977
308.876
305.677
306.36
307.18
307.064
309.064
307.254
305.53
309.449
307.09
306.136
306.206
306.344
307.323
307.031
304.067
302.555
303.322
301.435
302.607
302.562
300.988
303.311
300.939
301.132
301.729
301.454
303.424
302.379
302.962
302.335
300.704
304.382
302.629
303.399
336.839
338.149
336.483
334.481
335.787
335.918
336.554
337.26
336.444
336.006
338.308
339.013
337.097
335.931
335.984
335.305
333.703
336.112
336.301
338.542
333.35
331.485
332.273
332.282
330.461
332.422
330.897
333.623
331.986
333.435
333.877
331.329
333.64
331.675
333.139
331.247
332.105
332.685
331.937
332.557
326.206
325.52
327.138
325.492
325.959
327.704
326.255
326.156
328.531
327.74
327.134
325.253
326.24
327.021
326.721
325.651
325.614
326.366
325.967
327.995
323.992
322.383
320.496
324.441
320.635
320.506
322.728
321.113
321.751
322.325
324.327
323.357
323.339
320.356
322.406
323.273
320.485
322.597
321.104
322.365
317.84
316.394
316.047
315.435
318.245
317.36
317.353
318.658
318.18
318.899
315.351
319.953
317.067
316.481
316.134
317.221
314.772
317.299
318.125
315.819
312.888
313.637
312.978
311.355
311.206
312.549
311.995
313.131
310.707
311.331
312.781
312.822
312.092
312.995
311.604
310.554
310.888
311.163
312.87
314.281
308.894
309.407
306.574
306.262
306.701
306.286
305.344
307.24
306.304
306.997
307.946
308.1
307.366
307.877
305.606
306.483
306.767
307.393
305.854
308.45
304.349
303.281
301.808
304.023
301.822
302.913
300.87
302.541
304.247
303.325
301.843
302.344
304.524
302.442
302.698
302.406
301.524
302.336
302.997
303.562
337.585
337.737
336.11
335.503
335.219
336.71
337.418
336.618
337.196
337.643
339.427
338.544
337.989
337.925
334.472
335.988
337.614
336.116
337.268
337.976
333.306
332.136
333.598
332.291
329.793
331.028
330.967
331.3
332.901
331.725
332.66
333.666
331.677
330.826
332.633
332.472
330.745
333.14
332.564
334.678
330.546
327.604
327.6
324.619
325.879
325.251
326.06
328.024
328.116
327.082
326.613
327.902
328.743
326.535
328.304
326.195
325.121
326.011
327.544
328.663
325.589
322.478
322.16
320.83
321.821
321.651
321.447
324.533
320.948
323.201
322.19
322.352
321.351
321.906
321.818
320.723
321.308
321.124
322.212
323.41
315.985
316.599
317.35
317.656
315.98
316.521
315.707
317.023
316.823
317.054
318.224
317.705
317.415
315.463
316.401
315.849
315.51
317.004
316.476
317.989
311.15
312.316
311.586
312.471
312.083
314.247
312.229
313.365
312.433
312.664
312.609
313.626
310.205
311.354
309.926
311.927
312.12
310.609
313.04
313.163
309.14
307.287
306.803
306.869
304.851
306.847
308.127
307.125
306.603
309.159
307.335
307.074
308.114
305.491
305.353
307.806
307.178
307.258
307.749
307.448
303.297
301.301
302.026
302.79
303.119
303.956
303.327
301.534
302.002
304.826
301.662
303.614
301.699
301.346
303.306
302.772
302.243
301.018
302.091
302.694
340.131
339.597
337.523
339.013
337.139
336.21
336.969
338.132
337.809
339.404
338.014
337.78
338.114
337.067
337.175
337.687
336.897
337.226
338.27
339.259
334.929
332.406
335.656
333.317
332.768
333.265
334.257
334.473
334.57
334.139
334.236
333.827
333.656
331.589
333.182
332.023
332.762
331.085
332.602
332.249
329.221
328.922
325.386
328.983
328.225
326.347
327.543
330.81
328.979
328.12
327.987
328.759
327.235
325.47
326.957
327.169
324.355
326.269
327.52
328.266
324.928
323.965
322.833
321.327
321.101
322.553
321.795
322.426
321.196
321.687
323.81
323.691
321.659
321.409
321.941
321.583
322.732
321.743
323.367
321.89
319.013
317.763
316.935
316.812
316.104
317.043
317.507
318.159
317.572
317.749
317.503
318.523
316.67
316.012
318.904
317.327
317.235
316.533
315.817
316.806
313.541
312.848
313.395
310.523
311.721
313.554
312.388
311.926
313.72
311.207
312.715
313.121
313.351
313.821
312.879
312.706
310.687
314.301
314.156
313.108
306.668
307.564
306.223
306.932
306.058
306.734
307.368
306.796
307.341
307.946
308.058
308.227
307.831
307.728
308.404
309.872
305.883
308.541
308.292
307.248
302.705
303.411
302.978
302.203
301.731
302.514
304.067
302.926
302.142
301.78
301.938
303.095
305.08
301.313
303.377
302.242
303.877
304.823
302.94
302.436
340.524
338.329
339.079
340.347
338.531
336.25
339.324
339.121
341.489
340.554
338.967
338.556
341.176
338.424
337.605
338.978
337.446
337.331
339.197
341.031
335.329
333.606
333.059
332.758
332.671
333.895
332.767
333.056
333.344
334.758
334.733
332.737
335.353
335.744
331.585
332.656
333.261
332.671
333.965
335.807
330.247
328.838
328.19
326.379
327.227
329.372
328.03
328.554
327.112
328.019
328.269
328.128
329.147
327.603
328.645
327.054
328.428
326.511
329.105
328.92
323.78
323.234
322.816
321.82
320.956
322.42
323.04
323.168
323.921
324.654
321.842
324.585
322.71
323.916
322.984
322.883
323.976
323.172
323.579
325.779
318.486
320.208
315.877
316.565
316.252
316.964
317.399
316.331
316.514
319.156
318.768
316.923
317.026
317.786
318.176
317.4
316.825
317.915
318.471
318.977
313.383
312.505
313.978
313.633
313.376
312.83
312.79
311.378
313.83
313.64
313.251
312.012
315.181
312.247
312.51
311.001
310.421
311.787
311.583
314.012
310.565
309.418
308.405
306.851
306.766
307.609
307.69
305.296
307.197
308.251
308.598
307.6
308.787
307.547
308.271
307.314
307.142
306.57
307.434
307.442
302.236
302.831
301.677
301.566
302.716
302.477
302.638
302.804
301.805
300.978
304.207
301.404
302.385
302.986
301.645
301.052
301.658
303.294
302.814
302.056
340.37
341.89
340.166
339.06
340.613
338.245
341.812
341.106
340.041
339.769
341.685
340.215
341.809
341.364
338.965
339.903
338.868
339.557
340.526
342.924
335.562
333.326
331.693
333.801
335.197
334.056
335.553
334.896
337.445
335.006
334.609
335.273
334.622
335.177
334.961
333.776
333.872
335.571
332.961
334.299
332.14
329.156
329.906
327.741
328.965
329.494
329.683
330.94
329.92
329.74
329.755
329.416
328.621
326.372
328.435
325.271
327.119
327.615
329.805
329.551
324.488
324.207
323.93
322.322
324.644
323.61
325.151
324.032
322.643
324.608
324.964
324.906
324.03
323.888
322.836
325.155
322.165
322.141
323.552
323.831
318.668
317.975
319.46
316.291
318.675
317.086
320.521
319.168
318.066
319.513
318.854
316.885
318.463
318.865
316.847
317.566
317.788
317.913
318.626
318.66
312.626
314.835
313.039
313.156
313.122
311.547
311.78
311.918
311.692
313.484
313.55
312.822
312.086
312.471
312.062
313.436
313.891
313.294
314.151
314.026
309.88
308.146
307.531
308.107
307.548
308.015
308.177
307.828
308.228
308.873
306.972
307.346
308.157
308.06
307.891
305.212
306.682
307.196
307.575
308.085
302.76
304.072
303.623
303.172
301.932
302.331
303.494
302.303
301.856
302.447
302.194
303.179
302.874
302.839
301.264
303.385
302.25
304.909
303.393
302.017
342.065
342.459
340.028
341.048
340.081
339.127
340.749
341.313
342.353
340.471
342.581
342.742
342.448
342.14
341.454
339.706
339.348
340.509
342.245
340.958
335.512
337.328
335.31
334.715
335.736
334.508
336.129
335.824
336.21
336.451
336.742
336.567
336.782
334.798
335.57
334.588
334.512
334.983
335.852
336.645
332.514
329.538
329.059
330.782
329.156
329.972
331.181
329.595
331.77
329.884
329.515
330.858
329.689
329.464
331.172
329.328
330.147
329.393
331.382
331.147
325.36
325.812
324.402
324.953
322.103
325.426
323.234
325.769
322.996
323.773
324.218
325.398
322.111
325.747
322.799
323.21
322.837
322.682
322.611
325.424
320.044
320.36
320.445
319.353
317.383
318.461
317.988
319.798
319.01
321.055
317.97
321.498
317.883
318.549
318.98
320.049
318.57
319.126
319.141
319.099
313.599
314.342
313.83
313.732
312.918
312.42
314.213
313.456
313.39
313.94
314.207
313.722
314.28
312.586
314.097
313.956
312.659
312.895
314.242
315.093
309.769
309.899
308.674
308.742
307.912
307.627
306.469
306.769
308.689
308.303
307.934
309.528
307.508
305.73
308.03
308.798
307.387
308.138
308.283
309.354
303.401
303.393
303.221
304.246
303.225
302.465
302.932
300.509
301.383
301.515
302.452
302.114
302.16
303.151
300.618
303.926
303.698
303.344
303.405
303.234
341.376
343.389
341.273
342.002
341.502
342.102
341.872
343.314
343.042
343.367
344.052
343.422
344.135
342.978
340.859
340.596
340.358
342.383
342.453
343.886
341.346
334.726
337.442
335.607
335.266
335.868
334.779
336.701
338.751
336.4
336.868
336.738
336.564
336.926
336.107
336.123
335.331
335.997
334.824
339.842
333.063
331.467
332.508
330.961
328.961
331.751
330.473
330.922
331.829
330.796
330.725
330.733
332.123
331.394
328.68
328.889
329.194
330.605
330.905
331.264
326.928
325.871
323.942
325.133
325.632
323.862
326.816
324.238
324.744
326.56
326.105
324.111
325.533
325.211
324.24
324.634
324.902
323.885
326.07
326.827
320.173
320.178
318.493
318.496
318.207
317.669
320.095
319.251
318.209
320.326
319.644
320.716
321.088
321.745
320.666
318.771
318.838
317.269
318.457
319.833
313.131
315.729
314.607
313.692
313.591
314.536
314.474
314.258
314.988
314.495
313.053
312.923
314.8
311.622
314.832
313.371
316.005
314.232
314.631
315.948
310.344
308.315
308.575
307.896
307.868
309.422
309.546
309.169
309.334
309.758
308.156
308.253
307.294
308.089
309.138
307.699
306.575
309.168
307.527
308.903
302.539
302.161
302.175
303.26
303.221
304.547
302.787
302.673
301.928
303.427
303.098
302.791
303.19
303.059
304.546
302.587
305.707
304.238
302.605
303.049
345.686
347.098
343.097
344.546
342.704
343.288
343.928
343.423
343.754
345.249
345.461
344.111
345.308
344.089
344.277
342.023
342.669
343.238
343.51
345.183
339.483
339.8
337.756
337.166
339.052
339.281
336.622
337.865
337.509
339.026
337.996
339.088
337.235
338.39
336.511
336.439
335.351
337.68
338.522
338.871
334.584
331.781
332.858
332.583
330.226
332.345
332.739
332.503
333.316
331.141
332.56
333.73
332.273
332.6
332.238
330.676
331.871
331.473
332.95
334.633
326.701
327.536
325.257
327.182
325.182
326.682
325.501
327.518
326.396
327.667
326.794
326.074
327.871
323.687
326.477
325.659
323.505
326.884
325.929
327.508
322.116
319.755
320.596
319.337
318.864
319.224
320.118
321.27
320.164
319.862
319.971
319.921
320.79
319.698
320.938
319.276
318.138
319.212
320.271
321.652
315.618
314.622
313.434
313.395
313.691
314.445
313.022
315.782
314.832
312.534
313.92
314.532
313.235
313.763
314.707
313.171
314.042
313.818
313.168
315.316
309.846
308.844
310.081
308.023
308.544
310.002
308.916
308.212
309.011
307.27
308.772
309.734
310.422
307.877
307.841
308.81
309.204
309.991
308.333
308.777
303.633
303.273
303.634
303.133
304.048
304.325
302.072
302.674
302.177
301.966
302.453
301.163
303.11
303.225
301.985
303.657
301.943
303.409
302.259
303.189
347.26
348.521
345.16
346.616
343.764
342.946
345.133
346.482
347.34
347.074
345.443
347.095
345.78
344.905
343.936
344.779
344.822
345.65
345.135
346.359
339.485
337.468
336.965
337.437
337.867
337.643
338.352
338.779
341.418
338.11
338.62
338.624
338.724
338.29
337.9
338.195
337.3
338.326
337.118
340.953
334.121
334.77
332.656
332.033
332.567
331.594
331.276
332.343
330.656
334.298
335.277
333.645
334.242
331.104
333.33
331.768
330.9
331.831
332.751
333.467
327.463
326.482
326.978
326.408
326.814
327.61
326.809
325.688
326.694
326.583
326.57
326.489
325.781
326.735
326.389
326.556
325.683
325.086
326.071
327.085
321.915
320.625
322.79
322.102
318.891
320.673
319.066
320.137
319.841
321.256
320.015
321.254
320.962
322.588
320.208
321.151
320.325
320.76
319.783
322.455
314.894
315.77
313.622
313.589
314.899
312.987
314.996
316.661
315.358
315.016
315.924
314.633
315.024
313.789
315.818
316.092
314.929
312.917
315.424
312.966
310.294
308.345
308.11
310.189
307.49
308.281
307.693
309.352
309.127
307.021
307.523
309.446
309.809
308.444
307.745
309.481
308.659
308.571
309.799
308.919
303.422
303.228
302.264
302.212
303.079
303.886
303.424
305.022
303.394
303.621
303.251
301.932
303.189
303.562
303.633
303.013
304.594
303.599
303.359
303.315
348.645
349.273
346.84
346.749
347.475
345.601
347.68
347.344
346
344.939
348.324
346.174
347.195
346.596
346.534
343.803
346.1
347.175
349.787
349.108
341.243
338.993
341.47
338.511
340.188
339.484
338.477
339.34
341.356
339.957
339.631
341.512
338.888
339.974
338.712
338.987
338.533
339.699
338.366
340.539
336.039
334.348
333.26
332.739
331.762
332.493
332.689
333.813
333.648
336.891
335.675
335.52
335.314
334.621
333.516
333.537
332.7
336.207
333.24
333.892
328.007
328.282
330.408
327.507
328.786
327.602
326.089
326.753
326.99
327.946
328.09
326.094
326.976
325.499
327.959
327.679
326.794
328.482
328.842
327.778
321.716
323.172
321.187
320.506
321.083
321.735
320.677
319.797
321.761
321.066
320.486
321.283
321.793
323.04
321.631
321.89
321.411
321.056
323.586
322.295
315.576
315.339
314.607
316.969
315.033
314.637
317.217
316.111
314.814
315.825
315.427
315.399
315.791
315.839
314.381
313.985
315.853
315.673
314.925
317.339
310.436
309.273
308.823
308.187
306.55
308.638
309.026
309.27
309.172
309.216
310.397
310.032
308.716
309.275
307.042
309.132
308.608
309.624
309.424
307.312
302.963
303.569
303.249
303.138
303.97
302.288
301.777
302.363
304.819
302.461
302.883
302.913
303.69
303.782
301.903
302.806
303.124
303.376
303.056
302.777
350.484
349.515
349.654
347.2
346.904
348.748
347.726
347.111
347.589
349.046
346.824
349.549
350.606
347.996
347.954
346.796
347.947
347.283
348.032
350.217
343.3
344.108
341.901
342.155
337.751
341.351
340.51
341.999
342.502
342.272
340.616
344.198
344.197
340.214
341.662
342.716
339.942
341.342
342.614
342.929
334.932
335.718
334.37
334.974
333.344
334.496
334.165
334.327
333.145
335.187
332.793
335.505
336.378
335.86
334.039
334.241
334.149
335.295
334.932
336.105
330.855
327.503
326.336
327.711
329.152
327.18
329.257
328.458
327.298
329.743
329.285
330.84
328.998
327.882
328.086
327.944
327.576
328.888
328.04
327.431
323.39
321.969
322.758
322.145
320.723
322.091
322.601
320.883
323.5
320.308
322.276
320.661
320.804
321.727
322.414
322.252
321.677
320.897
322.759
321.371
316.39
314.816
316.262
315.692
315.318
316.118
316.692
316.135
317.435
314.104
316.24
313.632
316.664
315.937
316.371
314.667
315.505
317.019
315.152
314.991
310.205
310.068
309.991
309.452
308.93
309.759
308.324
309.678
309.311
309.301
308.617
309.784
309.598
308.05
309.293
311.582
308.966
309.672
310.261
309.355
302.338
301.119
303.386
303.6
304.392
302.509
303.273
302.616
304.875
303.687
301.278
303.242
303.73
304.172
303.671
302.723
302.935
303.853
304.007
300.713
352.584
351.711
349.796
349.111
346.468
347.739
348.073
349.248
350.092
350.894
349.539
350.656
348.732
348.178
347.329
349.526
348.79
350.686
349.863
350.869
344.787
341.574
343.445
341.406
341.851
342.11
342.144
342.45
342.258
342.186
342.331
343.905
342.233
342.181
341.226
341.938
341.673
341.994
341.856
344.113
337.56
337.903
336.164
336.021
334.341
334.83
335.709
336.321
335.086
337.141
336.631
335.577
337.659
336.331
335.882
335.968
335.035
337.098
336.059
337.803
329.474
330.861
329.726
330.376
328.411
329.395
328.842
329.137
330.975
329.157
328.645
329.488
330.565
330.422
327.936
329.272
329.294
330.646
328.43
330.789
323.497
323.422
323.893
321.739
321.533
322.015
323.566
320.719
324.429
323.126
321.916
323.938
321.676
320.689
322.052
323.466
323.518
322.177
322.17
325.133
317.878
314.563
316.046
315.678
314.546
316.157
316.154
316.288
314.359
315.631
315.923
319.583
316.97
315.67
315.652
316.614
317.112
317.408
315.563
316.591
309.684
310.689
309.356
310.648
308.533
310.198
308.229
309.291
309.128
309.577
311.016
308.315
310.415
310.502
310.607
310.948
309.681
310.132
309.253
312.295
304.428
303.688
302.037
302.997
303.45
301.695
301.606
303.222
303.37
302.229
302.646
304.501
301.739
304.454
303.54
304.881
303.359
303.041
303.172
303.369
352.553
351.417
350.755
351.461
349.535
350.753
349.971
350.994
351.496
350.502
353.463
351.485
349.838
351.373
351.33
351.591
352.339
352.559
351.662
351.624
344.679
346.21
345.067
343.632
342.19
343.014
344.017
343.763
346.114
343.261
344.309
342.942
344.418
343.025
342.189
344.171
343.397
345.028
343.251
344.799
337.478
338.922
336.937
338.265
335.315
337.458
337.02
337.857
336.639
335.288
338.278
337.996
337.01
336.394
337.399
339.053
336.477
337.025
338.097
336.204
332.611
331.081
328.915
331.391
328.691
329.337
331.201
329.749
330.584
330.29
331.186
329.919
330.421
330.012
330.588
331.485
331.346
329.442
331.11
331.212
324.049
326.524
322.259
322.991
322.583
323.998
322.31
324.75
322.039
324.488
322.391
322.802
323.964
321.799
322.578
322.816
323.945
322.692
321.808
322.258
316.369
317.355
317.544
317.418
316.182
317.739
314.594
316.543
316.464
316.679
316.302
317.293
316.087
316.275
315.664
317.43
317.13
315.004
316.162
317.048
310.554
310.829
309.122
310.468
310.654
309.56
308.297
310.228
311.733
310.002
311.428
308.689
310.482
309.62
309.43
308.705
309.629
312.121
310.406
311.988
302.454
303.62
303.545
304.969
303.875
304.437
304.998
303.562
301.867
303.403
303.087
302.097
302.709
301.475
302.876
302.596
302.966
303.906
303.754
302.862
355.946
354.252
353.733
353.632
351.985
353.065
352.805
353.306
352.207
353.583
352.273
352.997
353.93
353.421
352.061
352.045
351.621
351.065
352.394
354.919
347.785
344.702
346.716
345.297
346.695
344.683
345.632
345.307
344.59
345.063
345.572
345.046
345.762
346.403
345.215
344.392
345.007
345.614
344.608
346.983
341.053
340.589
336.207
337.306
338.498
336.652
337.54
337.576
337.928
338.588
337.775
339.417
337.566
338.209
338.212
339.415
338.787
340.805
337.927
339.455
332.45
330.392
331.347
331.95
333.173
330.613
331.37
330.577
330.999
332.117
331.371
331.318
330.939
331.46
332.111
329.389
332.554
331.078
331.989
329.291
324.324
324.672
325.435
324.972
322.991
323.303
323.81
320.109
322.98
324.654
322.657
323.988
324.275
324.902
325.029
322.924
323.593
323.88
324.784
325.663
317.796
319.078
318.521
317.388
318.238
317.777
316.092
317.376
319.452
315.853
316.547
314.478
316.23
315.883
316.249
317.272
316.538
318.575
317.246
319.483
310.415
309.918
310.997
312.04
309.204
310.431
311.088
307.849
310.042
309.183
310.182
310.565
310.741
309.837
309.625
311.164
311.112
310.548
309.368
310.171
303.593
303.606
303.802
302.867
301.996
304.432
303.989
303.361
302.966
303.726
302.762
303.38
304.388
304.136
304.406
304.719
304.087
302.417
303.158
302.368
356.609
357.227
354.625
353.766
353.542
352.946
353.366
351.555
352.72
354.243
353.759
353.117
353.75
353.089
352.554
355.955
353.702
354.653
353.782
355.372
349.578
347.082
347.191
346.613
344.888
344.426
345.882
344.33
345.907
347.653
345.367
347.914
345.816
346.691
345.872
347.402
346.123
345.528
347.616
347.468
341.507
341.474
338.522
340.954
338.42
338.004
339.228
336.954
337.174
338.32
338.109
340.315
338.525
337.884
337.893
338.176
339.168
338.881
341.294
339.945
333.698
332.188
331.859
332.982
330.637
331.326
332.359
330.802
332.599
332.665
331.284
332.606
331.173
332.281
332.116
332.315
332.184
334.195
333.278
332.283
325.555
325.022
325.359
325.481
324.679
321.973
324.689
325.162
325.305
324.746
325.677
325.669
323.679
324.014
323.352
325.685
323.839
325.81
325.078
324.039
317.344
317.085
319.242
317.162
319.23
318.172
318.006
318.163
318.02
318.274
317.619
316.325
317.829
318.518
316.335
317.331
317.734
318.201
318.496
318.331
312.583
311.792
310.266
311.825
309.365
309.65
311.41
311.348
310.049
310.963
311.476
311.839
310.302
311.848
310.258
308.777
309.933
310.515
308.855
312.123
302.128
303.981
302.848
301.918
305.192
303.797
303.913
304.466
303.779
302.832
302.166
303.535
303.215
302.416
303.333
303.461
305.599
304.384
305.698
302.963
357.079
357.906
357.225
355.369
354.133
355.947
355.593
354.543
355.521
355.224
355.508
354.438
354.104
355.381
354.548
354.052
356.547
356.687
356.407
358.86
349.78
348.151
349.984
348.52
347.965
348.797
347.963
348.754
346.818
348.936
349.025
346.222
348.928
346.518
348.811
348.514
348.631
347.939
348.488
348.369
341.352
343.201
341.327
338.778
340.35
338.827
340.045
340.262
340.395
341.898
339.288
340.08
339.283
338.277
341.526
340.715
341.646
340.217
341.777
340.878
335.156
332.71
333.994
332.1
333.539
332.596
332.945
332.693
331.892
335.216
332.344
333.551
333.427
333.234
332.556
332.521
332.371
334.299
333.877
333.344
326.491
325.823
326.788
324.578
325.698
324.925
323.545
324.296
324.522
325.68
326.28
326.761
326.077
326.138
323.596
325.013
324.847
324.898
324.393
326.338
320.764
318.902
317.703
318.345
316.847
317.977
317.826
319.271
317.644
317.34
317.586
316.484
317.038
316.776
318.958
318.125
317.902
318.02
318.427
320.018
311.59
312.957
310.687
310.294
311.485
311.078
308.655
311.259
311.554
311.643
308.681
310.185
310.923
310.817
311.769
311.392
310.387
310.702
310.803
309.693
302.811
303.841
304.38
304.867
303.385
305.084
303.753
303.796
303.883
303.924
303.435
304.598
303.697
302.687
304.085
301.96
303.696
305.884
303.982
303.928
360.221
358.696
359.573
357.32
355.643
357.265
357.16
356.667
356.817
355.669
356.999
358.402
355.753
356.143
355.006
358.883
357.38
356.798
358.305
359.393
352.36
352.341
349.6
351.365
350.096
349.02
347.267
348.447
349.106
348.277
348.557
349.834
347.881
348.588
347.733
349.901
349.82
351.755
350.101
349.712
342.834
343.14
341.135
342.069
340.201
340.156
342.266
342.095
341.075
341.508
340.051
340.71
342.231
341.815
341.363
341.471
340.357
341.372
341.346
343.41
336.157
334.171
333.391
335.349
333.993
334.197
332.403
331.995
333.07
332.339
333.178
333.645
332.432
334.172
333.231
333.778
332.521
334.06
335.501
334.777
328.733
326.461
327.371
326.725
326.633
326.846
326.778
324.584
325.911
327.022
324.365
325.653
327.596
326.95
326.068
326.595
325.98
326.456
327.249
327.658
318.979
319.255
319.505
318.852
319.943
318.452
317.778
319.376
317.381
318.394
319.115
319.785
317.865
318.131
318.343
319.051
319.567
319.167
319.81
321.027
313.188
311.416
312.468
310.361
310.513
312.972
310.52
311.653
312.278
309.238
310.647
311.373
311.213
310.518
311.41
312.292
311.912
311.161
312.41
312.361
304.767
305.293
302.453
303.645
303.849
303.536
302.616
303.864
302.189
303.27
304.368
301.917
303.112
303.238
302.395
304.971
303.858
305.148
303.89
304.678
362.662
359.911
360.419
357.151
358.996
359.914
357.627
358.046
357.858
356.964
356.14
357.887
358.013
356.58
358.108
357.546
357.742
359.045
358.75
360.219
353.651
351.952
350.91
351.812
352.101
352.76
349.856
352.48
348.159
353.065
352.755
350.364
352.658
349.757
353.023
350.107
352.349
351.07
352.371
351.127
344.407
344.464
343.205
343.953
342.968
341.339
340.791
340.586
343.224
340.45
341.506
342.925
342.898
342.7
341.944
342.511
340.88
343.791
345.974
344.324
335.739
336.709
335.217
333.241
334.121
335.972
333.982
334.285
333.436
334.239
335.243
334.225
334.317
332.241
332.895
334.088
334.795
335.352
335.096
337.281
327.595
326.175
326.384
327.657
327.162
326.585
326.131
326.844
327.95
325.88
324.938
327.546
323.143
326.744
325.523
326.16
325.956
327.67
326.422
327.704
319.479
320.212
320.07
319.406
318.316
320.121
319.575
317.949
319.798
318.338
319.314
317.029
318.011
318.771
319.148
320.533
319.937
319.306
319.698
320.872
311.853
311.166
311.042
310.324
313.207
310.505
310.769
311.792
310.282
310.582
311.181
308.586
311.218
311.314
310.46
309.774
311.02
313.07
310.143
313.089
303.881
302.694
302.678
303.198
303.425
303.206
303.768
303.949
303.624
303.079
303.809
303.616
305.033
302.864
305.002
302.961
304.374
303.825
303.77
303.66
363.661
360.66
362.082
357.922
358.598
358.835
360.46
358.383
357.68
358.483
359.494
357.375
360.2
359.15
359.141
359.738
359.202
361.713
360.076
361.732
353.801
354.235
354.307
351.612
349.91
353.118
350.767
351.673
349.939
351.904
350.199
350.537
350.83
350.087
351.191
353.395
349.849
351.325
352.185
353.069
345.629
343.45
343.348
343.579
342.784
344.498
343.54
344.008
341.606
343.434
343.183
341.666
343.233
342.252
343.857
342.764
342.926
343.648
345.878
345.111
337.794
337.233
337.274
336.385
335.358
335.353
333.62
333.691
332.933
335.903
334.591
334.379
333.371
334.983
334.599
335.031
333.746
336.661
336.938
336.594
330.97
327.662
328.846
326.395
327.504
328.029
326.993
328.111
326.441
326.03
326.708
328.607
326.388
328.243
324.698
326.91
327.965
328.2
328.11
327.513
319.363
320.007
319.202
318.954
319.074
318.12
318.968
320.407
319.779
319.707
319.247
317.733
320.704
319.465
319.539
320.316
319.861
319.84
319.343
319.044
311.236
310.78
310.056
310.837
311.866
309.284
311.222
310.429
311.333
312.141
311.491
311.29
312.607
310.173
309.987
311.702
312.467
312.384
311.677
313.163
303.188
304.123
303.126
304.011
303.416
304.285
303.146
303.464
304.626
303.667
305.627
303.455
303.361
303.873
305.022
305.564
303.497
304.263
302.96
303.822
)
;

boundaryField
{
    hotSide
    {
        type            fixedGradient;
        gradient        nonuniform List<scalar> 
400
(
321.511
322.87
325.591
329.677
335.133
341.965
350.181
359.788
370.794
383.208
397.037
412.289
428.971
447.088
466.647
487.651
510.105
534.011
559.372
586.191
323.738
325.08
327.767
331.802
337.194
343.949
352.078
361.591
372.498
384.81
398.537
413.687
430.268
448.289
467.755
488.672
511.043
534.872
560.161
586.913
326.149
327.47
330.116
334.091
339.406
346.071
354.099
363.503
374.296
386.491
400.101
415.136
431.606
449.52
468.885
489.706
511.988
535.735
560.948
587.63
328.704
330
332.597
336.503
341.73
348.292
356.205
365.485
376.15
388.215
401.695
416.604
432.954
450.753
470.009
490.73
512.919
536.579
561.714
588.325
331.33
332.599
335.142
338.97
344.099
350.546
358.332
367.477
378.003
389.928
403.271
418.047
434.27
451.949
471.095
491.712
513.807
537.382
562.439
588.978
333.918
335.158
337.643
341.389
346.414
352.74
360.392
369.397
379.779
391.562
404.765
419.407
435.503
453.065
472.101
492.618
514.622
538.114
563.096
589.569
336.321
337.531
339.959
343.622
348.544
354.751
362.274
371.142
381.385
393.031
406.101
420.618
436.595
454.047
472.983
493.409
515.33
538.747
563.663
590.076
338.36
339.543
341.92
345.509
350.339
356.44
363.847
372.595
382.718
394.244
407.2
421.608
437.485
454.844
473.695
494.045
515.897
539.253
564.114
590.478
339.852
341.015
343.352
346.885
351.645
357.665
364.985
373.643
383.675
395.113
407.984
422.312
438.116
455.407
474.197
494.491
516.294
539.606
564.428
590.758
340.643
341.795
344.11
347.613
352.334
358.311
365.584
374.193
384.176
395.567
408.393
422.679
438.443
455.699
474.456
494.722
516.498
539.788
564.589
590.901
340.643
341.795
344.11
347.613
352.334
358.311
365.584
374.193
384.176
395.567
408.393
422.679
438.443
455.699
474.456
494.722
516.498
539.788
564.589
590.901
339.852
341.015
343.352
346.885
351.645
357.665
364.985
373.643
383.675
395.113
407.984
422.312
438.116
455.407
474.197
494.491
516.294
539.606
564.428
590.758
338.36
339.543
341.92
345.509
350.339
356.44
363.847
372.595
382.718
394.244
407.2
421.608
437.485
454.844
473.695
494.045
515.897
539.253
564.114
590.478
336.321
337.531
339.959
343.622
348.544
354.751
362.274
371.142
381.385
393.031
406.101
420.618
436.595
454.047
472.983
493.409
515.33
538.747
563.663
590.076
333.918
335.158
337.643
341.389
346.414
352.74
360.392
369.397
379.779
391.562
404.765
419.407
435.503
453.065
472.101
492.618
514.622
538.114
563.096
589.569
331.33
332.599
335.142
338.97
344.099
350.546
358.332
367.477
378.003
389.928
403.271
418.047
434.27
451.949
471.095
491.712
513.807
537.382
562.439
588.978
328.704
330
332.597
336.503
341.73
348.292
356.205
365.485
376.15
388.215
401.695
416.604
432.954
450.753
470.009
490.73
512.919
536.579
561.714
588.325
326.149
327.47
330.116
334.091
339.406
346.071
354.099
363.503
374.296
386.491
400.101
415.136
431.606
449.52
468.885
489.706
511.988
535.735
560.948
587.63
323.738
325.08
327.767
331.802
337.194
343.949
352.078
361.591
372.498
384.81
398.537
413.687
430.268
448.289
467.755
488.672
511.043
534.872
560.161
586.913
321.511
322.87
325.591
329.677
335.133
341.965
350.181
359.788
370.794
383.208
397.037
412.289
428.971
447.088
466.647
487.651
510.105
534.011
559.372
586.191
)
;
    }
    coldSide
    {
        type            mixed;
        refValue        uniform 300;
        refGradient     uniform 0;
        valueFraction   uniform 0.991591;
        source          uniform 0;
        value           nonuniform List<scalar> 
400
(
300.034
300.037
300.028
300.023
300.019
300.023
300.029
300.021
300.031
300.029
300.025
300.02
300.037
300.021
300.03
300.018
300.024
300.04
300.033
300.027
300.021
300.028
300.011
300.029
300.024
300.034
300.029
300.018
300.028
300.027
300.03
300.009
300.031
300.03
300.03
300.033
300.032