/*--------------------------------*- C++ -*----------------------------------*\
| =========                 |                                                 |
| \\      /  F ield         | OpenFOAM: The Open Source CFD Toolbox           |
|  \\    /   O peration     | Version:  2212                                  |
|   \\  /    A nd           | Website:  www.openfoam.com                      |
|    \\/     M anipulation  |                                                 |
\*---------------------------------------------------------------------------*/
FoamFile
{
    version     2.0;
    format      ascii;
    arch        "LSB;label=32;scalar=64";
    class       volScalarField;
    location    "0";
    object      stateMean;
}
// * * * * * * * * * * * * * * * * * * * * * * * * * * * * * * * * * * * * * //

dimensions      [0 0 0 1 0 0 0];

internalField   nonuniform List<scalar> 
3200
(
338.624
339.374
340.258
340.98
341.703
342.272
342.795
343.157
343.503
343.62
343.738
343.644
343.449
343.179
342.736
342.33
341.676
340.987
340.243
339.534
333.617
334.269
335.019
335.611
336.266
336.804
337.227
337.617
337.826
337.923
338.053
337.971
337.816
337.523
337.228
336.866
336.284
335.612
334.99
334.38
328.501
329.065
329.759
330.333
330.795
331.218
331.608
331.902
332.128
332.22
332.263
332.207
332.17
331.912
331.624
331.195
330.85
330.271
329.729
329.177
323.454
323.866
324.286
324.852
325.329
325.635
325.952
326.165
326.324
326.414
326.491
326.462
326.36
326.208
325.975
325.568
325.195
324.81
324.324
323.997
318.291
318.577
318.976
319.313
319.726
319.995
320.224
320.378
320.574
320.642
320.633
320.679
320.553
320.382
320.222
319.968
319.736
319.36
319.04
318.655
313.116
313.259
313.522
313.865
314.07
314.315
314.465
314.603
314.725
314.729
314.814
314.781
314.623
314.586
314.515
314.367
314.028
313.815
313.554
313.419
307.841
308
308.194
308.319
308.422
308.651
308.702
308.772
308.849
308.901
308.94
308.919
308.864
308.787
308.701
308.517
308.43
308.354
308.161
308.017
302.59
302.707
302.685
302.83
302.873
302.851
302.863
302.966
302.963
302.92
302.953
302.97
302.94
302.903
302.941
302.906
302.881
302.785
302.729
302.769
339.474
340.36
341.215
342.084
342.746
343.448
343.879
344.355
344.575
344.69
344.857
344.766
344.597
344.389
343.971
343.474
342.818
342.013
341.248
340.505
334.412
335.09
335.795
336.467
337.158
337.699
338.132
338.521
338.723
338.922
338.914
338.89
338.746
338.49
338.189
337.828
337.225
336.54
335.772
335.221
329.208
329.755
330.332
330.912
331.492
331.964
332.32
332.679
332.87
333.032
333.095
332.969
332.883
332.675
332.375
331.997
331.503
330.95
330.373
329.868
323.978
324.381
324.86
325.345
325.757
326.226
326.52
326.702
326.977
326.999
327.038
327.033
326.956
326.745
326.558
326.285
325.853
325.41
324.977
324.564
318.691
318.986
319.392
319.842
320.11
320.444
320.688
320.967
320.993
321.096
321.111
321.065
321.052
320.838
320.677
320.442
320.187
319.827
319.389
319.088
313.329
313.649
313.825
314.242
314.442
314.563
314.709
314.922
315.033
315.114
315.121
315.073
315.025
314.95
314.791
314.625
314.453
314.111
313.85
313.62
308.025
308.162
308.349
308.501
308.635
308.762
308.929
308.938
309.007
309.073
309.084
309.054
309.034
309.012
308.902
308.778
308.676
308.526
308.399
308.147
302.738
302.742
302.81
302.928
302.892
302.95
302.913
302.937
303.011
303.027
303.046
302.986
302.996
302.996
302.937
302.933
302.976
302.869
302.776
302.8
340.854
341.687
342.63
343.458
344.21
344.852
345.451
345.787
346.116
346.278
346.401
346.302
346.098
345.86
345.391
344.885
344.208
343.467
342.626
341.884
335.52
336.148
337.01
337.8
338.39
338.947
339.329
339.725
340.037
340.155
340.344
340.223
340.025
339.844
339.366
338.948
338.463
337.71
337.033
336.392
330.138
330.677
331.325
332.009
332.502
333
333.441
333.703
333.98
334.06
334.122
334.068
333.913
333.717
333.406
333.024
332.559
331.991
331.444
330.85
324.683
325.196
325.692
326.162
326.605
327.066
327.371
327.582
327.741
327.894
328.008
327.91
327.834
327.562
327.418
327.108
326.659
326.222
325.668
325.222
319.221
319.532
320.022
320.417
320.755
321.021
321.359
321.572
321.661
321.756
321.79
321.714
321.599
321.522
321.367
321.058
320.809
320.381
320.052
319.725
313.741
314.014
314.327
314.591
314.85
315.105
315.253
315.387
315.507
315.526
315.568
315.58
315.441
315.372
315.259
315.026
314.871
314.588
314.376
314.04
308.324
308.418
308.593
308.702
308.913
309.034
309.102
309.254
309.312
309.346
309.352
309.348
309.277
309.23
309.191
309.159
308.948
308.805
308.609
308.452
302.764
302.83
302.888
303.002
302.944
303.053
303.083
303.15
303.085
303.073
303.105
303.137
303.123
303.065
303.126
303.015
302.949
302.919
302.891
302.806
342.3
343.083
344.101
344.997
345.732
346.47
347.027
347.422
347.718
347.952
348.072
347.98
347.737
347.473
346.964
346.413
345.819
345.043
344.179
343.414
336.645
337.42
338.34
339.014
339.761
340.376
340.794
341.154
341.483
341.572
341.606
341.637
341.505
341.13
340.79
340.339
339.731
339.095
338.25
337.594
331.219
331.758
332.443
333.129
333.631
334.169
334.587
334.895
335.15
335.277
335.243
335.26
335.143
334.872
334.579
334.184
333.652
333.047
332.464
331.889
325.536
325.974
326.556
327.158
327.565
328.051
328.367
328.593
328.813
328.821
328.962
328.875
328.75
328.586
328.248
327.992
327.609
327.124
326.627
326.118
319.835
320.224
320.718
321.113
321.433
321.777
322.13
322.193
322.28
322.53
322.563
322.496
322.418
322.245
322.078
321.817
321.488
321.109
320.744
320.416
314.244
314.494
314.824
314.979
315.362
315.586
315.773
315.933
316.064
316.113
316.119
316.084
316.04
315.896
315.793
315.551
315.402
315.139
314.775
314.556
308.572
308.69
308.961
309.038
309.152
309.399
309.509
309.584
309.676
309.675
309.642
309.707
309.643
309.551
309.516
309.312
309.165
309.076
308.95
308.749
302.882
302.952
302.882
303.068
303.071
303.184
303.174
303.235
303.259
303.255
303.239
303.227
303.235
303.278
303.174
303.156
303.04
303.015
302.981
302.965
343.64
344.528
345.57
346.525
347.275
348.059
348.651
349.071
349.454
349.597
349.638
349.672
349.442
349.065
348.647
348.139
347.446
346.59
345.684
344.875
337.917
338.713
339.539
340.374
341.065
341.632
342.138
342.618
342.791
343.026
343.144
343.095
342.895
342.628
342.242
341.68
341.201
340.377
339.671
338.857
332.198
332.792
333.449
334.178
334.761
335.367
335.813
336.091
336.374
336.483
336.497
336.483
336.348
336.084
335.734
335.366
334.812
334.244
333.544
333.033
326.359
326.834
327.439
328.012
328.529
328.9
329.263
329.585
329.784
329.904
329.899
329.834
329.668
329.653
329.302
328.983
328.549
328.031
327.514
327.053
320.534
320.971
321.436
321.843
322.221
322.522
322.822
323.004
323.181
323.256
323.327
323.271
323.258
323.008
322.79
322.474
322.24
321.899
321.374
321.056
314.668
314.933
315.264
315.661
315.872
316.023
316.334
316.43
316.543
316.625
316.644
316.649
316.601
316.517
316.229
316.103
315.844
315.581
315.314
315.027
308.819
308.972
309.204
309.401
309.543
309.693
309.759
309.874
309.954
309.971
310.025
309.971
309.951
309.959
309.786
309.684
309.476
309.452
309.233
309.005
302.867
303.033
303.03
303.128
303.214
303.224
303.304
303.347
303.386
303.396
303.377
303.316
303.253
303.328
303.288
303.237
303.209
303.129
303.086
303.136
345.074
346.085
347.072
348.087
348.861
349.654
350.191
350.714
351.07
351.277
351.32
351.295
351.091
350.757
350.264
349.716
348.901
348.095
347.146
346.365
339.163
339.991
340.901
341.652
342.463
343.036
343.509
344.021
344.296
344.506
344.548
344.496
344.352
344.079
343.642
343.066
342.506
341.772
340.947
340.208
333.255
333.819
334.634
335.26
335.836
336.412
336.893
337.246
337.504
337.72
337.715
337.673
337.531
337.286
336.97
336.493
336.029
335.381
334.688
334.072
327.248
327.728
328.368
328.936
329.441
329.79
330.244
330.541
330.725
330.823
330.918
330.907
330.766
330.509
330.232
329.902
329.471
328.952
328.382
327.89
321.224
321.582
322.082
322.513
322.89
323.288
323.523
323.789
323.922
324.055
324.029
324.022
323.943
323.78
323.545
323.192
322.946
322.498
322.058
321.725
315.079
315.429
315.802
316.067
316.352
316.678
316.898
316.937
317.078
317.167
317.175
317.196
317.075
317.003
316.843
316.592
316.39
316.177
315.87
315.59
309.114
309.274
309.424
309.687
309.871
309.99
310.067
310.199
310.247
310.284
310.307
310.365
310.232
310.141
310.078
310.045
309.853
309.74
309.459
309.265
303.052
303.032
303.199
303.325
303.336
303.305
303.379
303.397
303.448
303.454
303.473
303.493
303.477
303.402
303.344
303.347
303.264
303.281
303.151
303.112
346.426
347.443
348.452
349.491
350.345
351.115
351.791
352.225
352.679
352.847
352.931
352.897
352.697
352.331
351.771
351.255
350.481
349.58
348.614
347.797
340.325
341.147
342.102
342.97
343.729
344.354
344.958
345.311
345.687
345.838
345.941
345.896
345.641
345.38
344.928
344.463
343.806
343.052
342.168
341.427
334.189
334.87
335.684
336.39
337.052
337.61
338.093
338.373
338.675
338.832
338.899
338.883
338.733
338.44
338.052
337.667
337.058
336.445
335.727
335.147
327.951
328.551
329.217
329.784
330.297
330.743
331.172
331.493
331.722
331.81
331.903
331.823
331.673
331.432
331.187
330.865
330.385
329.835
329.262
328.769
321.82
322.221
322.722
323.2
323.601
323.973
324.263
324.458
324.733
324.831
324.788
324.753
324.646
324.519
324.233
324.023
323.627
323.27
322.801
322.351
315.591
315.933
316.272
316.629
316.814
317.186
317.397
317.508
317.682
317.709
317.73
317.643
317.634
317.587
317.33
317.148
316.917
316.629
316.328
316.024
309.436
309.535
309.787
309.991
310.191
310.294
310.453
310.55
310.64
310.587
310.639
310.6
310.622
310.51
310.484
310.254
310.162
310.015
309.829
309.551
303.162
303.187
303.287
303.311
303.435
303.455
303.469
303.599
303.588
303.626
303.531
303.525
303.567
303.552
303.543
303.473
303.37
303.397
303.33
303.297
347.799
348.781
349.911
350.888
351.788
352.654
353.35
353.828
354.171
354.469
354.539
354.375
354.283
353.932
353.366
352.704
351.954
351.051
350.023
349.195
341.503
342.378
343.344
344.182
344.975
345.693
346.252
346.7
346.952
347.159
347.28
347.239
347.027
346.784
346.314
345.719
345.041
344.27
343.432
342.602
335.153
335.859
336.652
337.42
338.145
338.643
339.152
339.587
339.769
339.975
340.026
339.976
339.87
339.559
339.144
338.786
338.178
337.503
336.747
336.142
328.838
329.362
330.014
330.671
331.165
331.687
332.053
332.348
332.591
332.706
332.844
332.738
332.632
332.417
332.116
331.73
331.286
330.738
330.072
329.534
322.42
322.856
323.357
323.832
324.289
324.624
324.95
325.209
325.334
325.447
325.482
325.447
325.347
325.143
325.035
324.693
324.313
323.897
323.454
323.045
316.07
316.387
316.685
317.033
317.325
317.629
317.84
318
318.098
318.168
318.274
318.206
318.099
318.067
317.862
317.749
317.441
317.062
316.757
316.504
309.652
309.805
310.115
310.265
310.446
310.601
310.719
310.777
310.972
310.98
310.938
310.922
310.938
310.835
310.713
310.611
310.481
310.227
310.049
309.982
303.227
303.352
303.367
303.431
303.434
303.537
303.613
303.583
303.648
303.704
303.649
303.694
303.644
303.635
303.638
303.573
303.532
303.462
303.372
303.459
349.033
350.104
351.154
352.27
353.146
353.986
354.755
355.312
355.629
355.874
355.982
355.829
355.659
355.352
354.829
354.222
353.345
352.379
351.424
350.451
342.61
343.516
344.439
345.429
346.165
346.901
347.493
347.949
348.222
348.481
348.56
348.51
348.356
348.002
347.484
347.016
346.344
345.448
344.583
343.868
336.106
336.958
337.666
338.363
339.063
339.64
340.226
340.523
340.839
341.1
341.093
341.061
340.943
340.678
340.277
339.76
339.177
338.519
337.793
337.093
329.596
330.129
330.824
331.521
331.985
332.548
332.905
333.254
333.536
333.577
333.691
333.588
333.489
333.312
332.93
332.528
332.055
331.541
330.981
330.374
323.071
323.557
324.066
324.464
324.91
325.298
325.646
325.868
326.047
326.149
326.215
326.129
326.008
325.925
325.625
325.401
324.968
324.519
324.078
323.706
316.405
316.812
317.18
317.462
317.782
318.055
318.293
318.483
318.567
318.759
318.729
318.708
318.663
318.455
318.315
318.143
317.904
317.52
317.181
316.894
309.882
310.086
310.305
310.475
310.735
310.941
311.011
311.111
311.134
311.242
311.255
311.234
311.197
311.107
310.99
310.879
310.753
310.597
310.271
310.185
303.34
303.344
303.466
303.501
303.613
303.681
303.774
303.643
303.783
303.806
303.799
303.75
303.743
303.73
303.724
303.658
303.599
303.473
303.536
303.337
350.247
351.246
352.537
353.668
354.563
355.353
356.036
356.636
357.018
357.28
357.35
357.306
357.1
356.78
356.194
355.548
354.696
353.758
352.702
351.725
343.583
344.469
345.418
346.458
347.31
347.987
348.67
349.137
349.438
349.722
349.805
349.692
349.521
349.216
348.748
348.186
347.496
346.563
345.659
344.923
336.936
337.732
338.531
339.375
340.1
340.675
341.202
341.677
341.92
342.054
342.206
342.048
341.986
341.694
341.297
340.793
340.261
339.444
338.739
338.097
330.282
330.88
331.572
332.339
332.858
333.381
333.695
334.071
334.322
334.478
334.551
334.37
334.271
334.113
333.772
333.367
332.816
332.227
331.735
331.189
323.645
324.078
324.564
325.049
325.574
325.956
326.26
326.548
326.712
326.82
326.866
326.81
326.786
326.628
326.354
325.972
325.602
325.184
324.685
324.165
316.841
317.174
317.593
317.941
318.279
318.515
318.808
318.977
319.118
319.182
319.198
319.159
319.161
319.017
318.777
318.63
318.256
317.928
317.585
317.343
310.068
310.356
310.55
310.789
310.975
311.182
311.31
311.4
311.528
311.579
311.488
311.543
311.484
311.428
311.316
311.187
310.981
310.748
310.616
310.431
303.372
303.398
303.519
303.627
303.673
303.775
303.789
303.823
303.876
303.904
303.904
303.874
303.817
303.76
303.812
303.66
303.675
303.615
303.545
303.472
351.302
352.498
353.667
354.771
355.703
356.668
357.374
357.957
358.329
358.609
358.674
358.575
358.452
358.027
357.517
356.855
356.015
354.916
353.842
352.886
344.588
345.516
346.555
347.509
348.404
349.16
349.754
350.215
350.67
350.87
350.907
350.885
350.696
350.299
349.896
349.287
348.515
347.669
346.721
345.855
337.788
338.583
339.413
340.278
340.975
341.648
342.134
342.53
342.803
343.026
343.161
343.072
342.949
342.609
342.235
341.684
341.037
340.376
339.547
338.939
331.012
331.592
332.274
332.97
333.506
334.087
334.521
334.851
335.032
335.294
335.316
335.299
335.146
334.931
334.511
334.151
333.668
332.963
332.422
331.777
324.118
324.642
325.188
325.66
326.116
326.544
326.838
327.177
327.309
327.45
327.503
327.462
327.351
327.152
326.874
326.552
326.182
325.711
325.189
324.796
317.216
317.564
317.877
318.314
318.623
319.035
319.157
319.334
319.542
319.66
319.703
319.661
319.591
319.394
319.223
318.98
318.693
318.384
318.072
317.724
310.428
310.517
310.835
310.996
311.292
311.351
311.567
311.663
311.745
311.746
311.835
311.754
311.724
311.722
311.529
311.34
311.24
311.025
310.828
310.682
303.388
303.491
303.644
303.654
303.756
303.837
303.906
303.872
303.977
303.942
303.944
303.998
303.879
303.886
303.858
303.864
303.704
303.671
303.616
303.543
352.435
353.543
354.705
355.893
356.911
357.877
358.558
359.181
359.616
359.749
359.966
359.899
359.699
359.278
358.721
358.029
357.101
356.078
355.034
353.908
345.554
346.465
347.471
348.533
349.376
350.176
350.816
351.319
351.664
351.91
352.037
351.905
351.749
351.389
350.922
350.407
349.523
348.714
347.645
346.79
338.597
339.377
340.169
341.072
341.785
342.507
343.03
343.514
343.779
343.946
344.057
343.988
343.785
343.515
343.064
342.552
341.952
341.206
340.436
339.675
331.602
332.242
332.949
333.622
334.311
334.785
335.235
335.541
335.78
335.898
336.033
336.015
335.91
335.604
335.288
334.93
334.309
333.723
333.098
332.473
324.496
325.042
325.656
326.228
326.709
326.998
327.477
327.718
327.867
328.012
328.035
328.062
327.929
327.731
327.487
327.134
326.624
326.298
325.699
325.265
317.67
317.928
318.215
318.736
319.039
319.343
319.574
319.825
319.93
320.017
320.021
319.997
319.932
319.844
319.686
319.438
319.114
318.8
318.348
318.066
310.509
310.782
311.016
311.275
311.449
311.655
311.796
311.914
311.991
311.971
311.986
312.091
311.966
311.892
311.795
311.648
311.397
311.25
311.102
310.821
303.515
303.616
303.702
303.799
303.871
303.854
303.918
303.987
304.016
304.005
303.993
304.051
303.98
304.04
303.973
303.905
303.864
303.805
303.766
303.702
353.323
354.455
355.776
356.972
357.973
358.894
359.635
360.234
360.667
360.962
361.129
361.014
360.72
360.35
359.787
359.048
358.211
357.13
356.121
354.974
346.313
347.265
348.371
349.378
350.367
351.145
351.743
352.262
352.654
352.882
352.954
352.938
352.686
352.302
351.884
351.233
350.404
349.593
348.547
347.647
339.282
340.079
340.96
341.793
342.641
343.301
343.817
344.232
344.568
344.826
344.855
344.751
344.679
344.307
343.877
343.428
342.746
341.953
341.142
340.408
332.129
332.763
333.562
334.312
334.871
335.395
335.934
336.287
336.546
336.67
336.717
336.648
336.523
336.321
336.003
335.516
334.929
334.346
333.674
333.059
325.031
325.5
326.15
326.63
327.131
327.595
327.891
328.181
328.423
328.533
328.635
328.56
328.47
328.267
327.953
327.588
327.2
326.735
326.24
325.776
317.953
318.212
318.682
319.049
319.418
319.683
319.955
320.199
320.35
320.377
320.469
320.441
320.308
320.224
319.972
319.723
319.435
319.136
318.801
318.413
310.738
310.941
311.256
311.498
311.645
311.813
312.035
312.128
312.177
312.279
312.25
312.241
312.259
312.19
312.016
311.833
311.626
311.5
311.275
311.088
303.673
303.708
303.799
303.886
303.924
303.999
304.017
304.032
304.116
304.03
304.04
304.193
304.112
304.117
304.027
303.941
303.903
303.84
303.829
303.654
354.247
355.412
356.749
357.897
358.973
359.917
360.669
361.303
361.653
362.049
362.128
362.027
361.771
361.417
360.803
360.045
359.218
358.08
356.907
355.869
347.068
348.09
349.223
350.264
351.182
351.919
352.639
353.158
353.583
353.724
353.833
353.888
353.654
353.262
352.777
352.165
351.251
350.423
349.431
348.563
339.826
340.708
341.646
342.472
343.352
344.016
344.63
345
345.331
345.553
345.557
345.582
345.459
345.123
344.588
344.16
343.445
342.647
341.855
341.159
332.639
333.292
334.138
334.806
335.486
336.08
336.532
336.91
337.11
337.292
337.376
337.263
337.168
336.888
336.548
336.096
335.605
334.992
334.216
333.591
325.434
325.958
326.468
327.044
327.613
328.066
328.345
328.628
328.862
329.072
329.061
329.075
328.88
328.743
328.454
328.143
327.659
327.261
326.7
326.178
318.223
318.501
319.005
319.389
319.756
319.996
320.233
320.533
320.684
320.749
320.824
320.783
320.662
320.586
320.321
320.079
319.821
319.423
319.109
318.672
310.888
311.181
311.371
311.635
311.872
312.044
312.175
312.336
312.354
312.431
312.47
312.487
312.459
312.353
312.205
312.065
311.838
311.643
311.456
311.266
303.657
303.73
303.809
303.904
303.991
304.062
304.074
304.216
304.163
304.211
304.195
304.123
304.17
304.181
304.15
304.11
303.947
303.937
303.888
303.798
355.023
356.168
357.469
358.758
359.903
360.783
361.578
362.151
362.709
362.94
363.04
363.01
362.76
362.271
361.725
360.988
360.067
359.013
357.765
356.654
347.756
348.762
349.924
350.904
351.944
352.762
353.398
353.927
354.372
354.597
354.594
354.64
354.389
354.105
353.532
352.872
352.079
351.084
350.135
349.227
340.394
341.295
342.23
343.124
343.943
344.688
345.25
345.671
346.004
346.138
346.308
346.248
345.996
345.815
345.287
344.673
344.075
343.274
342.415
341.663
333.143
333.784
334.565
335.364
335.967
336.537
337.023
337.38
337.647
337.818
337.966
337.859
337.709
337.454
337.136
336.625
336.11
335.446
334.71
334.147
325.792
326.339
326.985
327.45
327.928
328.494
328.807
329.11
329.357
329.371
329.467
329.425
329.376
329.194
328.855
328.539
328.047
327.594
327.008
326.555
318.438
318.774
319.243
319.64
320.035
320.342
320.604
320.77
320.965
321.081
321.117
321.047
320.949
320.912
320.601
320.339
320.055
319.712
319.352
318.956
311.047
311.283
311.537
311.804
312.039
312.237
312.396
312.524
312.591
312.644
312.661
312.641
312.676
312.522
312.445
312.201
312.029
311.802
311.606
311.356
303.673
303.784
303.901
303.987
304.043
304.114
304.156
304.262
304.225
304.253
304.319
304.207
304.238
304.212
304.119
304.01
304.112
303.973
303.902
303.834
355.648
356.852
358.222
359.415
360.599
361.554
362.382
362.968
363.573
363.716
363.868
363.789
363.604
363.161
362.556
361.795
360.782
359.652
358.533
357.459
348.313
349.319
350.521
351.574
352.558
353.389
354.14
354.625
355.091
355.284
355.343
355.359
355.147
354.776
354.252
353.54
352.755
351.711
350.774
349.788
340.924
341.761
342.762
343.648
344.463
345.23
345.781
346.275
346.575
346.814
346.932
346.885
346.623
346.309
345.939
345.259
344.632
343.849
342.986
342.159
333.611
334.259
335.018
335.735
336.456
337.059
337.527
337.916
338.166
338.269
338.4
338.324
338.163
337.961
337.555
337.103
336.489
335.877
335.233
334.532
326.104
326.613
327.276
327.789
328.337
328.784
329.211
329.462
329.686
329.864
329.886
329.841
329.772
329.488
329.272
328.838
328.473
327.902
327.369
326.949
318.633
319.115
319.453
319.886
320.308
320.61
320.861
321.055
321.229
321.335
321.43
321.361
321.281
321.14
320.879
320.646
320.312
319.964
319.598
319.283
311.261
311.416
311.684
311.944
312.122
312.351
312.474
312.73
312.762
312.823
312.846
312.759
312.746
312.677
312.523
312.377
312.23
311.988
311.705
311.542
303.814
303.901
303.901
303.942
304.09
304.151
304.239
304.265
304.229
304.291
304.342
304.265
304.287
304.215
304.272
304.17
304.138
303.998
303.954
303.892
356.154
357.487
358.808
360.053
361.225
362.251
363.127
363.63
364.073
364.426
364.561
364.522
364.205
363.828
363.248
362.443
361.449
360.417
359.176
358.111
348.823
349.837
351.055
352.15
353.16
353.866
354.696
355.225
355.656
355.963
356.014
355.92
355.707
355.315
354.82
354.135
353.308
352.282
351.199
350.307
341.386
342.244
343.174
344.175
344.939
345.64
346.262
346.739
347.105
347.385
347.444
347.278
347.195
346.864
346.429
345.816
345.096
344.314
343.406
342.646
333.895
334.534
335.447
336.214
336.785
337.381
337.917
338.299
338.589
338.737
338.878
338.695
338.633
338.369
338.012
337.538
336.944
336.268
335.514
334.938
326.347
326.873
327.548
328.103
328.69
329.101
329.547
329.828
329.97
330.157
330.19
330.175
330.113
329.844
329.562
329.185
328.763
328.231
327.692
327.2
318.804
319.248
319.746
320.164
320.455
320.826
321.062
321.289
321.455
321.548
321.576
321.618
321.456
321.38
321.135
320.821
320.504
320.158
319.753
319.433
311.343
311.56
311.837
312.082
312.223
312.443
312.658
312.81
312.91
312.941
313.011
312.971
312.953
312.788
312.66
312.553
312.242
312.096
311.9
311.663
303.713
303.827
304.011
304.019
304.084
304.161
304.273
304.321
304.275
304.341
304.367
304.294
304.354
304.283
304.184
304.173
304.148
304.008
304.043
303.914
356.687
357.914
359.367
360.591
361.771
362.757
363.52
364.226
364.751
365.045
365.139
365.093
364.865
364.37
363.775
362.95
362.007
360.874
359.636
358.518
349.236
350.291
351.436
352.561
353.52
354.424
355.119
355.708
356.016
356.47
356.519
356.446
356.196
355.756
355.306
354.564
353.742
352.814
351.704
350.756
341.731
342.565
343.521
344.516
345.372
346.076
346.705
347.134
347.52
347.77
347.793
347.799
347.563
347.27
346.778
346.259
345.466
344.663
343.807
343.053
334.243
334.789
335.654
336.418
337.113
337.682
338.188
338.595
338.895
339.063
339.135
339.113
338.961
338.707
338.327
337.91
337.288
336.558
335.806
335.2
326.582
327.083
327.795
328.369
328.876
329.394
329.73
330.021
330.282
330.381
330.493
330.435
330.25
330.073
329.805
329.415
328.995
328.511
327.872
327.395
319.016
319.47
319.89
320.241
320.674
320.96
321.318
321.454
321.568
321.696
321.823
321.721
321.682
321.558
321.31
321.058
320.744
320.388
320.042
319.593
311.461
311.625
311.928
312.224
312.404
312.579
312.818
312.893
312.977
313.057
313.082
313.059
312.992
312.906
312.781
312.598
312.482
312.228
311.96
311.764
303.841
303.948
303.944
304.065
304.181
304.142
304.265
304.279
304.341
304.414
304.394
304.381
304.422
304.326
304.221
304.26
304.205
304.031
304.055
303.951
357.016
358.231
359.675
360.924
362.122
363.086
363.976
364.636
365.098
365.483
365.538
365.529
365.248
364.839
364.128
363.315
362.42
361.298
360.1
358.889
349.449
350.55
351.758
352.911
353.957
354.771
355.526
356.115
356.414
356.699
356.863
356.822
356.622
356.165
355.587
354.991
354.136
353.073
352.064
351.137
341.924
342.803
343.864
344.743
345.653
346.39
346.995
347.451
347.809
348.006
348.127
348.032
347.901
347.61
347.151
346.469
345.808
344.935
344.039
343.236
334.38
335.058
335.887
336.596
337.32
338.029
338.451
338.873
339.148
339.355
339.391
339.284
339.184
338.988
338.553
338.078
337.461
336.838
336.084
335.382
326.715
327.331
327.943
328.473
329.097
329.545
329.925
330.198
330.482
330.667
330.622
330.598
330.538
330.246
330.025
329.669
329.141
328.639
328.149
327.618
319.095
319.493
319.969
320.377
320.83
321.11
321.418
321.591
321.804
321.856
321.917
321.894
321.791
321.615
321.397
321.184
320.843
320.501
320.063
319.758
311.463
311.692
311.954
312.283
312.475
312.679
312.879
312.958
313.086
313.132
313.153
313.17
313.016
312.978
312.894
312.694
312.554
312.294
312.052
311.834
303.901
303.918
304.029
304.071
304.156
304.247
304.313
304.341
304.435
304.397
304.395
304.394
304.452
304.309
304.309
304.275
304.185
304.088
304.069
303.965
357.227
358.462
359.925
361.217
362.434
363.339
364.305
364.919
365.413
365.691
365.798
365.706
365.453
365.083
364.403
363.646
362.695
361.54
360.338
359.145
349.67
350.656
351.865
353.051
354.144
354.953
355.675
356.303
356.726
357
357.041
357.034
356.72
356.421
355.863
355.227
354.314
353.353
352.315
351.324
342.077
342.985
343.984
344.879
345.722
346.59
347.163
347.674
348.063
348.214
348.27
348.266
348.025
347.809
347.25
346.62
345.942
345.193
344.196
343.467
334.444
335.173
335.987
336.831
337.458
338.031
338.575
338.988
339.271
339.467
339.531
339.465
339.364
339.033
338.655
338.236
337.64
336.906
336.171
335.558
326.863
327.303
327.966
328.572
329.225
329.62
330.077
330.334
330.6
330.674
330.762
330.761
330.61
330.372
330.109
329.752
329.247
328.756
328.083
327.678
319.163
319.57
319.945
320.463
320.823
321.215
321.472
321.67
321.803
321.933
321.988
321.968
321.906
321.629
321.48
321.174
320.941
320.552
320.123
319.816
311.526
311.786
311.974
312.27
312.475
312.73
312.918
313.03
313.106
313.178
313.204
313.213
313.144
313.084
312.945
312.701
312.498
312.316
312.091
311.928
303.832
303.941
304.057
304.072
304.201
304.246
304.378
304.384
304.46
304.441
304.428
304.395
304.347
304.419
304.344
304.301
304.225
304.186
304.12
303.968
)
;

boundaryField
{
    hotSide
    {
        type            fixedGradient;
        gradient        nonuniform List<scalar> 
400
(
321.511
322.87
325.591
329.677
335.133
341.965
350.181
359.788
370.794
383.208
397.037
412.289
428.971
447.088
466.647
487.651
510.105
534.011
559.372
586.191
323.738
325.08
327.767
331.802
337.194
343.949
352.078
361.591
372.498
384.81
398.537
413.687
430.268
448.289
467.755
488.672
511.043
534.872
560.161
586.913
326.149
327.47
330.116
334.091
339.406
346.071
354.099
363.503
374.296
386.491
400.101
415.136
431.606
449.52
468.885
489.706
511.988
535.735
560.948
587.63
328.704
330
332.597
336.503
341.73
348.292
356.205
365.485
376.15
388.215
401.695
416.604
432.954
450.753
470.009
490.73
512.919
536.579
561.714
588.325
331.33
332.599
335.142
338.97
344.099
350.546
358.332
367.477
378.003
389.928
403.271
418.047
434.27
451.949
471.095
491.712
513.807
537.382
562.439
588.978
333.918
335.158
337.643
341.389
346.414
352.74
360.392
369.397
379.779
391.562
404.765
419.407
435.503
453.065
472.101
492.618
514.622
538.114
563.096
589.569
336.321
337.531
339.959
343.622
348.544
354.751
362.274
371.142
381.385
393.031
406.101
420.618
436.595
454.047
472.983
493.409
515.33
538.747
563.663
590.076
338.36
339.543
341.92
345.509
350.339
356.44
363.847
372.595
382.718
394.244
407.2
421.608
437.485
454.844
473.695
494.045
515.897
539.253
564.114
590.478
339.852
341.015
343.352
346.885
351.645
357.665
364.985
373.643
383.675
395.113
407.984
422.312
438.116
455.407
474.197
494.491
516.294
539.606
564.428
590.758
340.643
341.795
344.11
347.613
352.334
358.311
365.584
374.193
384.176
395.567
408.393
422.679
438.443
455.699
474.456
494.722
516.498
539.788
564.589
590.901
340.643
341.795
344.11
347.613
352.334
358.311
365.584
374.193
384.176
395.567
408.393
422.679
438.443
455.699
474.456
494.722
516.498
539.788
564.589
590.901
339.852
341.015
343.352
346.885
351.645
357.665
364.985
373.643
383.675
395.113
407.984
422.312
438.116
455.407
474.197
494.491
516.294
539.606
564.428
590.758
338.36
339.543
341.92
345.509
350.339
356.44
363.847
372.595
382.718
394.244
407.2
421.608
437.485
454.844
473.695
494.045
515.897
539.253
564.114
590.478
336.321
337.531
339.959
343.622
348.544
354.751
362.274
371.142
381.385
393.031
406.101
420.618
436.595
454.047
472.983
493.409
515.33
538.747
563.663
590.076
333.918
335.158
337.643
341.389
346.414
352.74
360.392
369.397
379.779
391.562
404.765
419.407
435.503
453.065
472.101
492.618
514.622
538.114
563.096
589.569
331.33
332.599
335.142
338.97
344.099
350.546
358.332
367.477
378.003
389.928
403.271
418.047
434.27
451.949
471.095
491.712
513.807
537.382
562.439
588.978
328.704
330
332.597
336.503
341.73
348.292
356.205
365.485
376.15
388.215
401.695
416.604
432.954
450.753
470.009
490.73
512.919
536.579
561.714
588.325
326.149
327.47
330.116
334.091
339.406
346.071
354.099
363.503
374.296
386.491
400.101
415.136
431.606
449.52
468.885
489.706
511.988
535.735
560.948
587.63
323.738
325.08
327.767
331.802
337.194
343.949
352.078
361.591
372.498
384.81
398.537
413.687
430.268
448.289
467.755
488.672
511.043
534.872
560.161
586.913
321.511
322.87
325.591
329.677
335.133
341.965
350.181
359.788
370.794
383.208
397.037
412.289
428.971
447.088
466.647
487.651
510.105
534.011
559.372
586.191
)
;
    }
    coldSide
    {
        type            mixed;
        refValue        uniform 300;
        refGradient     uniform 0;
        valueFraction   uniform 0.991591;
        source          uniform 0;
        value           nonuniform List<scalar> 
400
(
300.022
300.023
300.023
300.024
300.024
300.026
300.027
300.027
300.028
300.028
300.028
300.03
300.031
300.031
300.031
300.032
300.031
300.032
300.033
300.032
300.023
300.023
300.024
300.025
300.026
300.025
300.027
300.028
300.028
300.029
300.029
300.03
300.031
300.031
300.032
300.033
300.032