/*--------------------------------*- C++ -*----------------------------------*\
| =========                 |                                                 |
| \\      /  F ield         | OpenFOAM: The Open Source CFD Toolbox           |
|  \\    /   O peration     | Version:  2212                                  |
|   \\  /    A nd           | Website:  www.openfoam.com                      |
|    \\/     M anipulation  |                                                 |
\*---------------------------------------------------------------------------*/
FoamFile
{
    version     2.0;
    format      ascii;
    arch        "LSB;label=32;scalar=64";
    class       volScalarField;
    location    "./ITHACAoutput/true/15.5";
    object      trueState;
}
// * * * * * * * * * * * * * * * * * * * * * * * * * * * * * * * * * * * * * //

dimensions      [0 0 0 1 0 0 0];

internalField   nonuniform List<scalar> 
3200
(
344.296
344.562
344.901
345.27
345.651
346.024
346.369
346.66
346.872
346.984
346.984
346.872
346.66
346.369
346.024
345.651
345.27
344.901
344.562
344.296
338.355
338.58
338.872
339.192
339.521
339.844
340.142
340.393
340.577
340.673
340.673
340.577
340.393
340.142
339.844
339.521
339.192
338.872
338.58
338.355
332.429
332.616
332.862
333.132
333.41
333.683
333.935
334.147
334.302
334.383
334.383
334.302
334.147
333.935
333.683
333.41
333.132
332.862
332.616
332.429
326.517
326.668
326.868
327.089
327.317
327.54
327.745
327.918
328.045
328.111
328.111
328.045
327.918
327.745
327.54
327.317
327.089
326.868
326.668
326.517
320.618
320.733
320.889
321.06
321.237
321.41
321.57
321.705
321.802
321.854
321.854
321.802
321.705
321.57
321.41
321.237
321.06
320.889
320.733
320.618
314.727
314.809
314.92
315.042
315.168
315.292
315.406
315.502
315.572
315.609
315.609
315.572
315.502
315.406
315.292
315.168
315.042
314.92
314.809
314.727
308.844
308.892
308.959
309.032
309.108
309.182
309.251
309.308
309.35
309.372
309.372
309.35
309.308
309.251
309.182
309.108
309.032
308.959
308.892
308.844
302.964
302.98
303.003
303.027
303.053
303.077
303.1
303.12
303.134
303.141
303.141
303.134
303.12
303.1
303.077
303.053
303.027
303.003
302.98
302.964
344.48
344.743
345.079
345.445
345.822
346.191
346.532
346.82
347.029
347.139
347.139
347.029
346.82
346.532
346.191
345.822
345.445
345.079
344.743
344.48
338.513
338.736
339.026
339.343
339.669
339.989
340.283
340.531
340.712
340.808
340.808
340.712
340.531
340.283
339.989
339.669
339.343
339.026
338.736
338.513
332.563
332.748
332.992
333.26
333.535
333.805
334.054
334.264
334.416
334.497
334.497
334.416
334.264
334.054
333.805
333.535
333.26
332.992
332.748
332.563
326.627
326.776
326.975
327.194
327.419
327.639
327.843
328.014
328.138
328.204
328.204
328.138
328.014
327.843
327.639
327.419
327.194
326.975
326.776
326.627
320.703
320.817
320.971
321.141
321.316
321.488
321.646
321.779
321.875
321.926
321.926
321.875
321.779
321.646
321.488
321.316
321.141
320.971
320.817
320.703
314.788
314.869
314.979
315.1
315.225
315.348
315.46
315.555
315.624
315.661
315.661
315.624
315.555
315.46
315.348
315.225
315.1
314.979
314.869
314.788
308.88
308.928
308.994
309.067
309.142
309.216
309.283
309.34
309.382
309.403
309.403
309.382
309.34
309.283
309.216
309.142
309.067
308.994
308.928
308.88
302.976
302.992
303.014
303.039
303.064
303.089
303.111
303.13
303.144
303.152
303.152
303.144
303.13
303.111
303.089
303.064
303.039
303.014
302.992
302.976
344.847
345.107
345.437
345.796
346.165
346.527
346.859
347.14
347.344
347.451
347.451
347.344
347.14
346.859
346.527
346.165
345.796
345.437
345.107
344.847
338.831
339.051
339.336
339.646
339.966
340.278
340.566
340.809
340.985
341.078
341.078
340.985
340.809
340.566
340.278
339.966
339.646
339.336
339.051
338.831
332.831
333.014
333.254
333.516
333.786
334.05
334.293
334.498
334.647
334.725
334.725
334.647
334.498
334.293
334.05
333.786
333.516
333.254
333.014
332.831
326.846
326.993
327.188
327.403
327.624
327.84
328.038
328.205
328.327
328.391
328.391
328.327
328.205
328.038
327.84
327.624
327.403
327.188
326.993
326.846
320.873
320.986
321.137
321.304
321.476
321.643
321.798
321.927
322.022
322.071
322.071
322.022
321.927
321.798
321.643
321.476
321.304
321.137
320.986
320.873
314.909
314.989
315.097
315.216
315.339
315.459
315.569
315.661
315.729
315.764
315.764
315.729
315.661
315.569
315.459
315.339
315.216
315.097
314.989
314.909
308.953
309
309.065
309.137
309.21
309.282
309.348
309.404
309.444
309.466
309.466
309.444
309.404
309.348
309.282
309.21
309.137
309.065
309
308.953
303.001
303.017
303.038
303.062
303.087
303.111
303.133
303.152
303.165
303.172
303.172
303.165
303.152
303.133
303.111
303.087
303.062
303.038
303.017
303.001
345.399
345.652
345.974
346.324
346.682
347.032
347.353
347.624
347.82
347.923
347.923
347.82
347.624
347.353
347.032
346.682
346.324
345.974
345.652
345.399
339.308
339.523
339.8
340.103
340.413
340.715
340.994
341.227
341.397
341.486
341.486
341.397
341.227
340.994
340.715
340.413
340.103
339.8
339.523
339.308
333.234
333.412
333.646
333.902
334.164
334.42
334.654
334.852
334.995
335.07
335.07
334.995
334.852
334.654
334.42
334.164
333.902
333.646
333.412
333.234
327.175
327.318
327.509
327.718
327.932
328.141
328.333
328.494
328.611
328.673
328.673
328.611
328.494
328.333
328.141
327.932
327.718
327.509
327.318
327.175
321.129
321.239
321.387
321.549
321.715
321.878
322.027
322.152
322.243
322.291
322.291
322.243
322.152
322.027
321.878
321.715
321.549
321.387
321.239
321.129
315.092
315.17
315.275
315.391
315.51
315.626
315.733
315.822
315.887
315.921
315.921
315.887
315.822
315.733
315.626
315.51
315.391
315.275
315.17
315.092
309.063
309.109
309.172
309.242
309.313
309.383
309.447
309.5
309.539
309.56
309.56
309.539
309.5
309.447
309.383
309.313
309.242
309.172
309.109
309.063
303.037
303.053
303.074
303.097
303.121
303.145
303.166
303.184
303.197
303.204
303.204
303.197
303.184
303.166
303.145
303.121
303.097
303.074
303.053
303.037
346.136
346.381
346.693
347.03
347.374
347.709
348.017
348.274
348.461
348.559
348.559
348.461
348.274
348.017
347.709
347.374
347.03
346.693
346.381
346.136
339.946
340.153
340.422
340.714
341.012
341.302
341.568
341.79
341.952
342.037
342.037
341.952
341.79
341.568
341.302
341.012
340.714
340.422
340.153
339.946
333.773
333.945
334.171
334.418
334.67
334.915
335.139
335.328
335.464
335.535
335.535
335.464
335.328
335.139
334.915
334.67
334.418
334.171
333.945
333.773
327.615
327.754
327.938
328.14
328.346
328.546
328.73
328.883
328.994
329.053
329.053
328.994
328.883
328.73
328.546
328.346
328.14
327.938
327.754
327.615
321.47
321.577
321.72
321.877
322.037
322.193
322.335
322.454
322.541
322.586
322.586
322.541
322.454
322.335
322.193
322.037
321.877
321.72
321.577
321.47
315.336
315.411
315.513
315.625
315.74
315.851
315.953
316.038
316.099
316.132
316.132
316.099
316.038
315.953
315.851
315.74
315.625
315.513
315.411
315.336
309.209
309.254
309.315
309.382
309.451
309.518
309.579
309.63
309.667
309.686
309.686
309.667
309.63
309.579
309.518
309.451
309.382
309.315
309.254
309.209
303.086
303.101
303.122
303.144
303.167
303.19
303.21
303.227
303.24
303.246
303.246
303.24
303.227
303.21
303.19
303.167
303.144
303.122
303.101
303.086
347.059
347.295
347.594
347.916
348.244
348.563
348.854
349.097
349.272
349.365
349.365
349.272
349.097
348.854
348.563
348.244
347.916
347.594
347.295
347.059
340.744
340.944
341.202
341.48
341.764
342.04
342.292
342.502
342.654
342.734
342.734
342.654
342.502
342.292
342.04
341.764
341.48
341.202
340.944
340.744
334.447
334.613
334.83
335.066
335.306
335.539
335.751
335.929
336.057
336.124
336.124
336.057
335.929
335.751
335.539
335.306
335.066
334.83
334.613
334.447
328.166
328.299
328.476
328.669
328.865
329.056
329.23
329.375
329.479
329.534
329.534
329.479
329.375
329.23
329.056
328.865
328.669
328.476
328.299
328.166
321.898
322.001
322.138
322.288
322.441
322.589
322.724
322.836
322.918
322.96
322.96
322.918
322.836
322.724
322.589
322.441
322.288
322.138
322.001
321.898
315.641
315.714
315.812
315.919
316.028
316.134
316.23
316.31
316.369
316.399
316.399
316.369
316.31
316.23
316.134
316.028
315.919
315.812
315.714
315.641
309.392
309.436
309.494
309.559
309.624
309.688
309.745
309.794
309.829
309.847
309.847
309.829
309.794
309.745
309.688
309.624
309.559
309.494
309.436
309.392
303.148
303.162
303.182
303.204
303.225
303.247
303.266
303.282
303.294
303.3
303.3
303.294
303.282
303.266
303.247
303.225
303.204
303.182
303.162
303.148
348.169
348.395
348.68
348.986
349.296
349.595
349.868
350.095
350.259
350.345
350.345
350.259
350.095
349.868
349.595
349.296
348.986
348.68
348.395
348.169
341.704
341.895
342.141
342.405
342.674
342.933
343.169
343.366
343.507
343.582
343.582
343.507
343.366
343.169
342.933
342.674
342.405
342.141
341.895
341.704
335.258
335.416
335.623
335.847
336.074
336.293
336.493
336.659
336.778
336.841
336.841
336.778
336.659
336.493
336.293
336.074
335.847
335.623
335.416
335.258
328.828
328.956
329.125
329.308
329.493
329.673
329.836
329.971
330.069
330.12
330.12
330.069
329.971
329.836
329.673
329.493
329.308
329.125
328.956
328.828
322.413
322.511
322.642
322.784
322.929
323.068
323.195
323.3
323.376
323.416
323.416
323.376
323.3
323.195
323.068
322.929
322.784
322.642
322.511
322.413
316.009
316.078
316.172
316.273
316.376
316.476
316.566
316.642
316.696
316.724
316.724
316.696
316.642
316.566
316.476
316.376
316.273
316.172
316.078
316.009
309.613
309.654
309.71
309.771
309.833
309.893
309.947
309.992
310.025
310.042
310.042
310.025
309.992
309.947
309.893
309.833
309.771
309.71
309.654
309.613
303.222
303.236
303.254
303.275
303.296
303.316
303.334
303.349
303.36
303.366
303.366
303.36
303.349
303.334
303.316
303.296
303.275
303.254
303.236
303.222
349.468
349.682
349.952
350.24
350.531
350.811
351.064
351.275
351.426
351.505
351.505
351.426
351.275
351.064
350.811
350.531
350.24
349.952
349.682
349.468
342.827
343.009
343.241
343.491
343.743
343.985
344.204
344.386
344.517
344.586
344.586
344.517
344.386
344.204
343.985
343.743
343.491
343.241
343.009
342.827
336.206
336.357
336.553
336.764
336.977
337.182
337.367
337.521
337.632
337.689
337.689
337.632
337.521
337.367
337.182
336.977
336.764
336.553
336.357
336.206
329.603
329.725
329.884
330.057
330.231
330.399
330.55
330.676
330.766
330.814
330.814
330.766
330.676
330.55
330.399
330.231
330.057
329.884
329.725
329.603
323.015
323.108
323.232
323.366
323.502
323.632
323.75
323.848
323.918
323.955
323.955
323.918
323.848
323.75
323.632
323.502
323.366
323.232
323.108
323.015
316.439
316.505
316.593
316.689
316.786
316.879
316.963
317.033
317.083
317.109
317.109
317.083
317.033
316.963
316.879
316.786
316.689
316.593
316.505
316.439
309.871
309.91
309.963
310.021
310.079
310.135
310.185
310.227
310.257
310.273
310.273
310.257
310.227
310.185
310.135
310.079
310.021
309.963
309.91
309.871
303.308
303.321
303.339
303.358
303.378
303.397
303.414
303.428
303.438
303.443
303.443
303.438
303.428
303.414
303.397
303.378
303.358
303.339
303.321
303.308
350.956
351.159
351.413
351.682
351.954
352.213
352.447
352.64
352.779
352.851
352.851
352.779
352.64
352.447
352.213
351.954
351.682
351.413
351.159
350.956
344.114
344.286
344.505
344.738
344.973
345.198
345.4
345.568
345.688
345.75
345.75
345.688
345.568
345.4
345.198
344.973
344.738
344.505
344.286
344.114
337.293
337.436
337.62
337.818
338.016
338.206
338.378
338.519
338.62
338.673
338.673
338.62
338.519
338.378
338.206
338.016
337.818
337.62
337.436
337.293
330.492
330.606
330.756
330.918
331.08
331.236
331.376
331.491
331.574
331.618
331.618
331.574
331.491
331.376
331.236
331.08
330.918
330.756
330.606
330.492
323.705
323.793
323.91
324.035
324.162
324.283
324.391
324.481
324.546
324.579
324.579
324.546
324.481
324.391
324.283
324.162
324.035
323.91
323.793
323.705
316.931
316.994
317.077
317.167
317.257
317.343
317.421
317.485
317.531
317.555
317.555
317.531
317.485
317.421
317.343
317.257
317.167
317.077
316.994
316.931
310.167
310.204
310.254
310.308
310.362
310.414
310.46
310.499
310.526
310.541
310.541
310.526
310.499
310.46
310.414
310.362
310.308
310.254
310.204
310.167
303.407
303.42
303.437
303.455
303.473
303.49
303.506
303.519
303.528
303.533
303.533
303.528
303.519
303.506
303.49
303.473
303.455
303.437
303.42
303.407
352.636
352.826
353.063
353.315
353.566
353.805
354.019
354.196
354.322
354.388
354.388
354.322
354.196
354.019
353.805
353.566
353.315
353.063
352.826
352.636
345.566
345.728
345.932
346.15
346.367
346.574
346.76
346.913
347.022
347.079
347.079
347.022
346.913
346.76
346.574
346.367
346.15
345.932
345.728
345.566
338.52
338.654
338.826
339.01
339.194
339.369
339.527
339.656
339.748
339.796
339.796
339.748
339.656
339.527
339.369
339.194
339.01
338.826
338.654
338.52
331.494
331.601
331.742
331.892
332.043
332.186
332.315
332.42
332.496
332.535
332.535
332.496
332.42
332.315
332.186
332.043
331.892
331.742
331.601
331.494
324.484
324.567
324.676
324.793
324.91
325.021
325.121
325.203
325.262
325.293
325.293
325.262
325.203
325.121
325.021
324.91
324.793
324.676
324.567
324.484
317.487
317.546
317.624
317.707
317.791
317.87
317.942
318.001
318.042
318.064
318.064
318.042
318.001
317.942
317.87
317.791
317.707
317.624
317.546
317.487
310.5
310.535
310.582
310.632
310.682
310.73
310.773
310.808
310.833
310.847
310.847
310.833
310.808
310.773
310.73
310.682
310.632
310.582
310.535
310.5
303.519
303.531
303.547
303.563
303.58
303.596
303.611
303.622
303.631
303.635
303.635
303.631
303.622
303.611
303.596
303.58
303.563
303.547
303.531
303.519
354.507
354.685
354.906
355.139
355.37
355.589
355.785
355.945
356.059
356.119
356.119
356.059
355.945
355.785
355.589
355.37
355.139
354.906
354.685
354.507
347.185
347.336
347.526
347.728
347.928
348.118
348.287
348.426
348.525
348.577
348.577
348.525
348.426
348.287
348.118
347.928
347.728
347.526
347.336
347.185
339.887
340.012
340.173
340.343
340.513
340.673
340.817
340.934
341.018
341.061
341.061
341.018
340.934
340.817
340.673
340.513
340.343
340.173
340.012
339.887
332.611
332.711
332.842
332.981
333.12
333.252
333.369
333.465
333.533
333.569
333.569
333.533
333.465
333.369
333.252
333.12
332.981
332.842
332.711
332.611
325.352
325.429
325.531
325.639
325.747
325.849
325.94
326.015
326.068
326.096
326.096
326.068
326.015
325.94
325.849
325.747
325.639
325.531
325.429
325.352
318.107
318.162
318.234
318.311
318.389
318.462
318.527
318.58
318.618
318.638
318.638
318.618
318.58
318.527
318.462
318.389
318.311
318.234
318.162
318.107
310.872
310.905
310.948
310.995
311.041
311.085
311.124
311.156
311.179
311.191
311.191
311.179
311.156
311.124
311.085
311.041
310.995
310.948
310.905
310.872
303.644
303.655
303.669
303.685
303.7
303.715
303.728
303.739
303.747
303.751
303.751
303.747
303.739
303.728
303.715
303.7
303.685
303.669
303.655
303.644
356.571
356.737
356.942
357.156
357.368
357.568
357.746
357.891
357.994
358.047
358.047
357.994
357.891
357.746
357.568
357.368
357.156
356.942
356.737
356.571
348.97
349.11
349.287
349.473
349.657
349.83
349.984
350.109
350.199
350.245
350.245
350.199
350.109
349.984
349.83
349.657
349.473
349.287
349.11
348.97
341.395
341.511
341.66
341.817
341.973
342.119
342.25
342.356
342.431
342.471
342.471
342.431
342.356
342.25
342.119
341.973
341.817
341.66
341.511
341.395
333.842
333.936
334.058
334.186
334.313
334.433
334.54
334.627
334.688
334.72
334.72
334.688
334.627
334.54
334.433
334.313
334.186
334.058
333.936
333.842
326.309
326.381
326.475
326.575
326.674
326.767
326.85
326.918
326.966
326.991
326.991
326.966
326.918
326.85
326.767
326.674
326.575
326.475
326.381
326.309
318.79
318.841
318.908
318.98
319.05
319.117
319.176
319.225
319.259
319.277
319.277
319.259
319.225
319.176
319.117
319.05
318.98
318.908
318.841
318.79
311.283
311.313
311.353
311.396
311.439
311.479
311.514
311.543
311.564
311.574
311.574
311.564
311.543
311.514
311.479
311.439
311.396
311.353
311.313
311.283
303.781
303.791
303.805
303.819
303.834
303.847
303.859
303.869
303.876
303.879
303.879
303.876
303.869
303.859
303.847
303.834
303.819
303.805
303.791
303.781
358.828
358.982
359.171
359.368
359.562
359.744
359.904
360.035
360.127
360.175
360.175
360.127
360.035
359.904
359.744
359.562
359.368
359.171
358.982
358.828
350.922
351.052
351.216
351.386
351.554
351.712
351.851
351.964
352.044
352.086
352.086
352.044
351.964
351.851
351.712
351.554
351.386
351.216
351.052
350.922
343.044
343.152
343.289
343.434
343.576
343.709
343.827
343.922
343.99
344.025
344.025
343.99
343.922
343.827
343.709
343.576
343.434
343.289
343.152
343.044
335.19
335.276
335.389
335.507
335.623
335.732
335.828
335.907
335.962
335.991
335.991
335.962
335.907
335.828
335.732
335.623
335.507
335.389
335.276
335.19
327.356
327.422
327.509
327.601
327.692
327.776
327.851
327.912
327.955
327.978
327.978
327.955
327.912
327.851
327.776
327.692
327.601
327.509
327.422
327.356
319.538
319.585
319.647
319.712
319.777
319.838
319.891
319.935
319.966
319.981
319.981
319.966
319.935
319.891
319.838
319.777
319.712
319.647
319.585
319.538
311.731
311.759
311.796
311.836
311.875
311.911
311.943
311.969
311.988
311.997
311.997
311.988
311.969
311.943
311.911
311.875
311.836
311.796
311.759
311.731
303.932
303.941
303.953
303.967
303.98
303.992
304.003
304.011
304.018
304.021
304.021
304.018
304.011
304.003
303.992
303.98
303.967
303.953
303.941
303.932
361.278
361.42
361.594
361.775
361.951
362.116
362.26
362.378
362.46
362.503
362.503
362.46
362.378
362.26
362.116
361.951
361.775
361.594
361.42
361.278
353.04
353.161
353.311
353.467
353.62
353.763
353.888
353.99
354.062
354.099
354.099
354.062
353.99
353.888
353.763
353.62
353.467
353.311
353.161
353.04
344.833
344.932
345.059
345.191
345.321
345.441
345.548
345.634
345.694
345.726
345.726
345.694
345.634
345.548
345.441
345.321
345.191
345.059
344.932
344.833
336.651
336.731
336.834
336.943
337.049
337.147
337.234
337.305
337.354
337.38
337.38
337.354
337.305
337.234
337.147
337.049
336.943
336.834
336.731
336.651
328.491
328.552
328.633
328.717
328.799
328.876
328.944
328.998
329.037
329.057
329.057
329.037
328.998
328.944
328.876
328.799
328.717
328.633
328.552
328.491
320.348
320.392
320.449
320.509
320.568
320.623
320.671
320.71
320.738
320.752
320.752
320.738
320.71
320.671
320.623
320.568
320.509
320.449
320.392
320.348
312.218
312.244
312.278
312.314
312.349
312.382
312.411
312.435
312.451
312.46
312.46
312.451
312.435
312.411
312.382
312.349
312.314
312.278
312.244
312.218
304.095
304.103
304.115
304.127
304.139
304.15
304.16
304.167
304.173
304.176
304.176
304.173
304.167
304.16
304.15
304.139
304.127
304.115
304.103
304.095
363.916
364.047
364.207
364.372
364.532
364.681
364.811
364.916
364.99
365.028
365.028
364.99
364.916
364.811
364.681
364.532
364.372
364.207
364.047
363.916
355.321
355.432
355.57
355.712
355.851
355.98
356.093
356.184
356.248
356.281
356.281
356.248
356.184
356.093
355.98
355.851
355.712
355.57
355.432
355.321
346.758
346.85
346.966
347.087
347.205
347.314
347.409
347.486
347.541
347.569
347.569
347.541
347.486
347.409
347.314
347.205
347.087
346.966
346.85
346.758
338.223
338.297
338.392
338.491
338.587
338.677
338.755
338.818
338.862
338.885
338.885
338.862
338.818
338.755
338.677
338.587
338.491
338.392
338.297
338.223
329.712
329.769
329.843
329.919
329.994
330.064
330.125
330.174
330.208
330.226
330.226
330.208
330.174
330.125
330.064
329.994
329.919
329.843
329.769
329.712
321.22
321.26
321.312
321.367
321.421
321.471
321.514
321.549
321.574
321.587
321.587
321.574
321.549
321.514
321.471
321.421
321.367
321.312
321.26
321.22
312.741
312.765
312.796
312.829
312.861
312.891
312.917
312.938
312.953
312.961
312.961
312.953
312.938
312.917
312.891
312.861
312.829
312.796
312.765
312.741
304.27
304.278
304.288
304.3
304.31
304.32
304.329
304.336
304.341
304.344
304.344
304.341
304.336
304.329
304.32
304.31
304.3
304.288
304.278
304.27
366.731
366.852
366.998
367.148
367.294
367.428
367.545
367.639
367.705
367.739
367.739
367.705
367.639
367.545
367.428
367.294
367.148
366.998
366.852
366.731
357.752
357.855
357.981
358.111
358.237
358.353
358.455
358.536
358.594
358.623
358.623
358.594
358.536
358.455
358.353
358.237
358.111
357.981
357.855
357.752
348.81
348.894
349.001
349.111
349.218
349.316
349.402
349.471
349.519
349.544
349.544
349.519
349.471
349.402
349.316
349.218
349.111
349.001
348.894
348.81
339.898
339.966
340.053
340.143
340.23
340.311
340.381
340.438
340.478
340.498
340.498
340.478
340.438
340.381
340.311
340.23
340.143
340.053
339.966
339.898
331.012
331.065
331.132
331.202
331.27
331.333
331.388
331.432
331.462
331.478
331.478
331.462
331.432
331.388
331.333
331.27
331.202
331.132
331.065
331.012
322.147
322.184
322.232
322.283
322.331
322.376
322.415
322.447
322.469
322.48
322.48
322.469
322.447
322.415
322.376
322.331
322.283
322.232
322.184
322.147
313.297
313.319
313.348
313.378
313.408
313.435
313.458
313.477
313.49
313.497
313.497
313.49
313.477
313.458
313.435
313.408
313.378
313.348
313.319
313.297
304.456
304.464
304.473
304.484
304.493
304.502
304.51
304.517
304.521
304.523
304.523
304.521
304.517
304.51
304.502
304.493
304.484
304.473
304.464
304.456
369.693
369.804
369.938
370.075
370.207
370.328
370.433
370.517
370.576
370.606
370.606
370.576
370.517
370.433
370.328
370.207
370.075
369.938
369.804
369.693
360.307
360.401
360.516
360.635
360.749
360.854
360.945
361.018
361.07
361.096
361.096
361.07
361.018
360.945
360.854
360.749
360.635
360.516
360.401
360.307
350.961
351.039
351.137
351.237
351.334
351.423
351.5
351.562
351.605
351.627
351.627
351.605
351.562
351.5
351.423
351.334
351.237
351.137
351.039
350.961
341.652
341.715
341.794
341.876
341.955
342.028
342.091
342.142
342.177
342.196
342.196
342.177
342.142
342.091
342.028
341.955
341.876
341.794
341.715
341.652
332.372
332.421
332.482
332.546
332.608
332.665
332.714
332.753
332.781
332.795
332.795
332.781
332.753
332.714
332.665
332.608
332.546
332.482
332.421
332.372
323.117
323.151
323.195
323.241
323.285
323.325
323.36
323.389
323.408
323.418
323.418
323.408
323.389
323.36
323.325
323.285
323.241
323.195
323.151
323.117
313.879
313.899
313.925
313.953
313.979
314.004
314.025
314.042
314.054
314.06
314.06
314.054
314.042
314.025
314.004
313.979
313.953
313.925
313.899
313.879
304.651
304.658
304.667
304.676
304.685
304.693
304.7
304.706
304.71
304.712
304.712
304.71
304.706
304.7
304.693
304.685
304.676
304.667
304.658
304.651
372.728
372.83
372.953
373.078
373.198
373.307
373.402
373.477
373.53
373.557
373.557
373.53
373.477
373.402
373.307
373.198
373.078
372.953
372.83
372.728
362.912
362.998
363.104
363.213
363.317
363.412
363.494
363.559
363.605
363.628
363.628
363.605
363.559
363.494
363.412
363.317
363.213
363.104
362.998
362.912
353.147
353.219
353.308
353.4
353.488
353.568
353.638
353.693
353.732
353.752
353.752
353.732
353.693
353.638
353.568
353.488
353.4
353.308
353.219
353.147
343.427
343.485
343.558
343.633
343.705
343.771
343.828
343.873
343.905
343.921
343.921
343.905
343.873
343.828
343.771
343.705
343.633
343.558
343.485
343.427
333.745
333.789
333.846
333.904
333.96
334.012
334.056
334.091
334.116
334.129
334.129
334.116
334.091
334.056
334.012
333.96
333.904
333.846
333.789
333.745
324.093
324.124
324.165
324.207
324.247
324.283
324.315
324.34
324.358
324.367
324.367
324.358
324.34
324.315
324.283
324.247
324.207
324.165
324.124
324.093
314.463
314.482
314.506
314.531
314.555
314.577
314.597
314.612
314.622
314.628
314.628
314.622
314.612
314.597
314.577
314.555
314.531
314.506
314.482
314.463
304.847
304.853
304.861
304.87
304.878
304.885
304.891
304.897
304.9
304.902
304.902
304.9
304.897
304.891
304.885
304.878
304.87
304.861
304.853
304.847
375.643
375.738
375.851
375.966
376.075
376.175
376.261
376.329
376.377
376.401
376.401
376.377
376.329
376.261
376.175
376.075
375.966
375.851
375.738
375.643
365.384
365.464
365.562
365.661
365.757
365.843
365.918
365.977
366.019
366.04
366.04
366.019
365.977
365.918
365.843
365.757
365.661
365.562
365.464
365.384
355.199
355.265
355.348
355.432
355.513
355.586
355.65
355.7
355.735
355.753
355.753
355.735
355.7
355.65
355.586
355.513
355.432
355.348
355.265
355.199
345.078
345.131
345.199
345.268
345.334
345.395
345.447
345.488
345.517
345.532
345.532
345.517
345.488
345.447
345.395
345.334
345.268
345.199
345.131
345.078
335.012
335.053
335.105
335.159
335.211
335.258
335.298
335.331
335.353
335.365
335.365
335.353
335.331
335.298
335.258
335.211
335.159
335.105
335.053
335.012
324.989
325.018
325.056
325.094
325.131
325.165
325.194
325.217
325.233
325.241
325.241
325.233
325.217
325.194
325.165
325.131
325.094
325.056
325.018
324.989
314.998
315.015
315.038
315.061
315.083
315.103
315.121
315.134
315.144
315.149
315.149
315.144
315.134
315.121
315.103
315.083
315.061
315.038
315.015
314.998
305.025
305.031
305.039
305.046
305.054
305.061
305.066
305.071
305.074
305.076
305.076
305.074
305.071
305.066
305.061
305.054
305.046
305.039
305.031
305.025
377.929
378.017
378.124
378.232
378.334
378.427
378.507
378.57
378.614
378.637
378.637
378.614
378.57
378.507
378.427
378.334
378.232
378.124
378.017
377.929
367.249
367.324
367.416
367.51
367.599
367.681
367.75
367.806
367.844
367.864
367.864
367.844
367.806
367.75
367.681
367.599
367.51
367.416
367.324
367.249
356.698
356.761
356.839
356.919
356.995
357.064
357.123
357.17
357.203
357.22
357.22
357.203
357.17
357.123
357.064
356.995
356.919
356.839
356.761
356.698
346.255
346.306
346.37
346.435
346.498
346.555
346.603
346.642
346.669
346.683
346.683
346.669
346.642
346.603
346.555
346.498
346.435
346.37
346.306
346.255
335.899
335.937
335.987
336.038
336.087
336.131
336.169
336.2
336.221
336.231
336.231
336.221
336.2
336.169
336.131
336.087
336.038
335.987
335.937
335.899
325.608
325.635
325.671
325.707
325.742
325.774
325.801
325.823
325.838
325.846
325.846
325.838
325.823
325.801
325.774
325.742
325.707
325.671
325.635
325.608
315.363
315.38
315.401
315.423
315.444
315.463
315.48
315.493
315.502
315.506
315.506
315.502
315.493
315.48
315.463
315.444
315.423
315.401
315.38
315.363
305.147
305.152
305.16
305.167
305.174
305.18
305.186
305.19
305.193
305.195
305.195
305.193
305.19
305.186
305.18
305.174
305.167
305.16
305.152
305.147
)
;

boundaryField
{
    hotSide
    {
        type            fixedGradient;
        gradient        nonuniform List<scalar> 
400
(
476.737
478.737
482.741
488.753
496.782
506.838
518.931
533.075
549.281
567.563
587.932
610.402
634.981
661.681
690.508
721.471
754.575
789.826
827.227
866.78
480.231
482.204
486.153
492.086
500.014
509.949
521.907
535.903
551.954
570.076
590.284
612.593
637.016
663.564
692.246
723.072
756.047
791.176
828.464
867.914
484.012
485.952
489.837
495.676
503.484
513.278
525.077
538.902
554.773
572.712
592.738
614.866
639.114
665.495
694.018
724.694
757.529
792.529
829.698
869.038
488.018
489.919
493.729
499.459
507.129
516.76
528.379
542.01
557.68
575.415
595.238
617.17
641.228
667.428
695.782
726.299
758.988
793.854
830.9
870.127
492.136
493.995
497.72
503.328
510.844
520.296
531.715
545.134
560.586
578.102
597.709
619.432
643.292
669.304
697.484
727.841
760.382
795.112
832.035
871.152
496.196
498.008
501.642
507.121
514.474
523.736
534.946
548.145
563.373
580.664
600.052
621.565
645.226
671.054
699.062
729.262
761.66
796.261
833.067
872.079
499.964
501.73
505.274
510.624
517.815
526.89
537.897
550.882
565.892
582.968
602.148
623.463
646.939
672.595
700.445
730.501
762.77
797.254
833.956
872.874
503.162
504.886
508.349
513.583
520.63
529.539
540.364
553.161
567.981
584.871
603.871
625.017
648.334
673.844
701.563
731.499
763.659
798.047
834.663
873.505
505.502
507.194
510.596
515.741
522.678
531.461
542.15
554.805
569.482
586.233
605.101
626.121
649.323
674.727
702.349
732.199
764.282
798.601
835.155
873.943
506.743
508.417
511.785
516.882
523.759
532.473
543.089
555.667
570.269
586.945
605.742
626.696
649.836
675.185
702.756
732.56
764.603
798.886
835.408
874.167
506.743
508.417
511.785
516.882
523.759
532.473
543.089
555.667
570.269
586.945
605.742
626.696
649.836
675.185
702.756
732.56
764.603
798.886
835.408
874.167
505.502
507.194
510.596
515.741
522.678
531.461
542.15
554.805
569.482
586.233
605.101
626.121
649.323
674.727
702.349
732.199
764.282
798.601
835.155
873.943
503.162
504.886
508.349
513.583
520.63
529.539
540.364
553.161
567.981
584.871
603.871
625.017
648.334
673.844
701.563
731.499
763.659
798.047
834.663
873.505
499.964
501.73
505.274
510.624
517.815
526.89
537.897
550.882
565.892
582.968
602.148
623.463
646.939
672.595
700.445
730.501
762.77
797.254
833.956
872.874
496.196
498.008
501.642
507.121
514.474
523.736
534.946
548.145
563.373
580.664
600.052
621.565
645.226
671.054
699.062
729.262
761.66
796.261
833.067
872.079
492.136
493.995
497.72
503.328
510.844
520.296
531.715
545.134
560.586
578.102
597.709
619.432
643.292
669.304
697.484
727.841
760.382
795.112
832.035
871.152
488.018
489.919
493.729
499.459
507.129
516.76
528.379
542.01
557.68
575.415
595.238
617.17
641.228
667.428
695.782
726.299
758.988
793.854
830.9
870.127
484.012
485.952
489.837
495.676
503.484
513.278
525.077
538.902
554.773
572.712
592.738
614.866
639.114
665.495
694.018
724.694
757.529
792.529
829.698
869.038
480.231
482.204
486.153
492.086
500.014
509.949
521.907
535.903
551.954
570.076
590.284
612.593
637.016
663.564
692.246
723.072
756.047
791.176
828.464
867.914
476.737
478.737
482.741
488.753
496.782
506.838
518.931
533.075
549.281
567.563
587.932
610.402
634.981
661.681
690.508
721.471
754.575
789.826
827.227
866.78
)
;
    }
    coldSide
    {
        type            mixed;
        refValue        uniform 300;
        refGradient     uniform 0;
        valueFraction   uniform 0.991591;
        source          uniform 0;
        value           nonuniform List<scalar> 
400
(
300.025
300.025
300.025
300.026
300.026
300.026
300.027
300.028
300.029
300.03
300.031
300.032
300.033
300.034
300.036
300.037
300.039
300.041
300.042
300.043
300.025
300.025
300.025
300.026
300.026
300.027
300.027
300.028
300.029
300.03
300.031
300.032