/*--------------------------------*- C++ -*----------------------------------*\
| =========                 |                                                 |
| \\      /  F ield         | OpenFOAM: The Open Source CFD Toolbox           |
|  \\    /   O peration     | Version:  2212                                  |
|   \\  /    A nd           | Website:  www.openfoam.com                      |
|    \\/     M anipulation  |                                                 |
\*---------------------------------------------------------------------------*/
FoamFile
{
    version     2.0;
    format      ascii;
    arch        "LSB;label=32;scalar=64";
    class       volScalarField;
    location    "0";
    object      T;
}
// * * * * * * * * * * * * * * * * * * * * * * * * * * * * * * * * * * * * * //

dimensions      [0 0 0 1 0 0 0];

internalField   nonuniform List<scalar> 
3200
(
333.979
332.924
331.85
331.516
331.537
331.912
332.08
332.364
332.83
332.822
333.023
332.8
332.332
331.937
331.405
330.863
330.717
330.989
331.736
332.314
329.504
328.643
327.711
327.458
327.456
327.816
327.956
328.222
328.644
328.648
328.845
328.677
328.247
327.916
327.487
327.004
326.885
327.141
327.799
328.258
325.018
324.325
323.529
323.327
323.312
323.619
323.782
324.025
324.35
324.38
324.567
324.417
324.072
323.788
323.451
323.023
322.926
323.17
323.727
324.082
320.501
319.968
319.294
319.139
319.147
319.384
319.544
319.761
319.991
320.026
320.216
320.063
319.815
319.578
319.31
318.972
318.875
319.1
319.557
319.838
315.968
315.594
315.028
314.936
314.954
315.117
315.256
315.432
315.606
315.612
315.785
315.664
315.473
315.295
315.071
314.844
314.766
314.944
315.287
315.529
311.442
311.164
310.754
310.691
310.718
310.836
310.933
311.065
311.198
311.169
311.308
311.208
311.074
310.964
310.798
310.658
310.561
310.722
310.93
311.144
306.887
306.725
306.477
306.429
306.451
306.512
306.587
306.671
306.732
306.729
306.815
306.733
306.649
306.592
306.488
306.407
306.341
306.457
306.575
306.715
302.302
302.256
302.179
302.167
302.164
302.19
302.207
302.247
302.257
302.256
302.287
302.255
302.228
302.209
302.168
302.154
302.128
302.161
302.209
302.257
334.271
333.157
332.103
331.738
331.812
332.219
332.478
332.903
333.201
333.283
333.401
333.184
332.759
332.299
331.806
331.241
330.92
331.103
331.773
332.627
329.768
328.847
327.945
327.632
327.718
328.077
328.326
328.688
328.955
329.043
329.162
328.981
328.612
328.225
327.835
327.337
327.071
327.254
327.824
328.534
325.221
324.481
323.745
323.46
323.547
323.877
324.088
324.4
324.628
324.726
324.828
324.68
324.367
324.049
323.734
323.275
323.084
323.275
323.759
324.329
320.678
320.082
319.488
319.252
319.362
319.607
319.794
320.06
320.226
320.364
320.418
320.291
320.046
319.777
319.546
319.145
319.013
319.177
319.582
320.051
316.096
315.652
315.172
315.02
315.107
315.299
315.45
315.667
315.783
315.906
315.936
315.845
315.664
315.433
315.264
314.967
314.87
314.989
315.31
315.692
311.509
311.179
310.858
310.751
310.823
310.95
311.063
311.229
311.301
311.409
311.418
311.354
311.214
311.05
310.945
310.746
310.672
310.752
310.984
311.266
306.915
306.718
306.53
306.457
306.497
306.582
306.654
306.751
306.811
306.877
306.868
306.835
306.764
306.648
306.598
306.472
306.424
306.491
306.617
306.794
302.318
302.256
302.193
302.166
302.185
302.21
302.23
302.261
302.277
302.305
302.304
302.3
302.268
302.237
302.214
302.18
302.152
302.183
302.23
302.277
334.688
333.611
332.601
332.237
332.287
332.733
333.088
333.508
333.776
334.059
334.063
333.858
333.462
332.878
332.473
331.807
331.464
331.615
332.355
333.083
330.145
329.225
328.39
328.07
328.104
328.511
328.846
329.239
329.448
329.711
329.716
329.589
329.235
328.747
328.41
327.864
327.534
327.698
328.338
328.935
325.559
324.804
324.091
323.86
323.871
324.243
324.541
324.884
325.047
325.285
325.266
325.219
324.899
324.481
324.23
323.771
323.487
323.639
324.18
324.669
320.947
320.339
319.761
319.58
319.573
319.922
320.16
320.444
320.585
320.781
320.754
320.745
320.475
320.125
319.96
319.573
319.353
319.462
319.927
320.319
316.304
315.831
315.401
315.245
315.253
315.541
315.739
315.957
316.052
316.229
316.192
316.203
316.008
315.707
315.594
315.31
315.151
315.219
315.607
315.9
311.649
311.317
311.009
310.902
310.932
311.127
311.269
311.432
311.476
311.624
311.596
311.61
311.472
311.249
311.196
310.987
310.873
310.914
311.197
311.413
306.999
306.803
306.624
306.553
306.572
306.697
306.791
306.872
306.889
307.009
306.979
307.005
306.896
306.772
306.75
306.622
306.562
306.571
306.751
306.889
302.339
302.281
302.225
302.202
302.206
302.249
302.277
302.301
302.317
302.346
302.343
302.352
302.313
302.268
302.273
302.226
302.197
302.208
302.266
302.306
335.374
334.35
333.443
332.964
333.084
333.532
333.957
334.485
334.734
334.89
334.932
334.746
334.296
333.766
333.121
332.644
332.381
332.412
332.975
333.759
330.755
329.891
329.11
328.694
328.812
329.242
329.601
330.074
330.297
330.429
330.49
330.355
329.97
329.525
328.992
328.603
328.37
328.388
328.889
329.549
326.098
325.377
324.717
324.37
324.487
324.878
325.153
325.57
325.786
325.865
325.939
325.87
325.532
325.158
324.765
324.413
324.237
324.251
324.659
325.202
321.412
320.832
320.287
319.985
320.093
320.441
320.654
321.022
321.194
321.228
321.325
321.291
321.002
320.7
320.406
320.108
319.98
319.992
320.331
320.752
316.683
316.243
315.822
315.588
315.664
315.956
316.125
316.405
316.557
316.558
316.641
316.636
316.4
316.151
315.984
315.705
315.637
315.656
315.896
316.218
311.933
311.606
311.298
311.175
311.2
311.442
311.555
311.763
311.859
311.853
311.902
311.937
311.765
311.576
311.489
311.253
311.231
311.246
311.389
311.642
307.165
306.968
306.789
306.733
306.721
306.884
306.963
307.084
307.126
307.132
307.169
307.191
307.088
306.97
306.934
306.773
306.776
306.773
306.853
307.015
302.404
302.337
302.268
302.26
302.259
302.306
302.348
302.376
302.38
302.389
302.411
302.408
302.373
302.346
302.342
302.27
302.281
302.263
302.303
302.359
336.345
335.291
334.428
333.979
334.009
334.382
334.819
335.412
335.797
335.847
335.962
335.876
335.365
334.724
334.115
333.551
333.273
333.273
333.864
334.533
331.583
330.713
329.979
329.584
329.615
329.956
330.372
330.89
331.248
331.261
331.383
331.329
330.887
330.382
329.85
329.386
329.156
329.133
329.669
330.239
326.803
326.08
325.479
325.129
325.181
325.465
325.849
326.282
326.589
326.613
326.726
326.677
326.309
325.911
325.461
325.066
324.895
324.857
325.352
325.777
321.967
321.426
320.919
320.637
320.672
320.924
321.23
321.598
321.843
321.9
321.988
321.931
321.633
321.318
320.969
320.644
320.495
320.474
320.899
321.211
317.124
316.716
316.296
316.124
316.129
316.339
316.571
316.85
317.058
317.102
317.16
317.121
316.903
316.661
316.406
316.174
316.029
316.001
316.34
316.59
312.274
311.972
311.662
311.571
311.548
311.725
311.865
312.085
312.222
312.241
312.287
312.274
312.121
311.963
311.788
311.606
311.486
311.472
311.706
311.914
307.377
307.207
307.018
306.96
306.954
307.066
307.135
307.265
307.369
307.347
307.388
307.396
307.282
307.213
307.101
307.001
306.905
306.92
307.051
307.169
302.473
302.418
302.358
302.335
302.324
302.378
302.397
302.439
302.477
302.459
302.48
302.487
302.446
302.427
302.38
302.352
302.311
302.323
302.37
302.415
337.474
336.411
335.585
335.15
335.057
335.424
335.911
336.378
336.864
336.953
337.128
336.948
336.567
335.952
335.23
334.675
334.259
334.312
334.824
335.416
332.598
331.684
330.988
330.64
330.55
330.874
331.305
331.739
332.146
332.238
332.405
332.281
331.936
331.463
330.816
330.39
330.015
330.067
330.527
331.006
327.671
326.879
326.322
326.069
325.972
326.28
326.642
327
327.369
327.454
327.583
327.495
327.228
326.833
326.302
325.951
325.624
325.671
326.071
326.471
322.723
322.051
321.611
321.434
321.341
321.608
321.916
322.19
322.502
322.586
322.678
322.592
322.443
322.097
321.686
321.402
321.101
321.16
321.495
321.804
317.706
317.202
316.855
316.714
316.661
316.875
317.105
317.349
317.587
317.613
317.702
317.648
317.563
317.295
316.948
316.725
316.482
316.553
316.817
317.031
312.678
312.327
312.062
311.966
311.914
312.077
312.272
312.456
312.609
312.608
312.687
312.64
312.595
312.4
312.154
311.974
311.826
311.884
312.067
312.194
307.597
307.396
307.252
307.2
307.138
307.26
307.405
307.495
307.589
307.591
307.629
307.605
307.566
307.458
307.309
307.182
307.103
307.145
307.276
307.341
302.54
302.487
302.429
302.411
302.393
302.441
302.488
302.519
302.545
302.55
302.548
302.548
302.552
302.5
302.446
302.398
302.375
302.406
302.446
302.465
338.613
337.577
336.783
336.375
336.364
336.658
337.155
337.67
338.077
338.304
338.323
338.189
337.715
337.139
336.392
335.929
335.469
335.455
336.016
336.607
333.572
332.696
332.039
331.715
331.691
331.956
332.404
332.851
333.224
333.407
333.455
333.344
332.982
332.47
331.853
331.461
331.062
331.067
331.569
332.056
328.478
327.777
327.222
326.965
326.947
327.188
327.586
327.948
328.276
328.406
328.499
328.401
328.126
327.684
327.144
326.848
326.514
326.519
326.957
327.347
323.365
322.797
322.335
322.151
322.138
322.336
322.674
322.975
323.265
323.34
323.418
323.368
323.154
322.801
322.338
322.113
321.862
321.852
322.218
322.529
318.209
317.774
317.427
317.289
317.277
317.418
317.695
317.968
318.174
318.206
318.278
318.248
318.099
317.847
317.45
317.254
317.092
317.088
317.389
317.623
313.049
312.719
312.484
312.379
312.386
312.478
312.686
312.886
313.014
313.045
313.096
313.081
312.982
312.801
312.507
312.369
312.252
312.275
312.487
312.645
307.856
307.64
307.512
307.449
307.453
307.506
307.638
307.771
307.832
307.83
307.864
307.88
307.807
307.714
307.524
307.441
307.366
307.401
307.52
307.63
302.638
302.562
302.525
302.506
302.502
302.516
302.577
302.608
302.626
302.64
302.633
302.648
302.627
302.586
302.52
302.503
302.465
302.492
302.537
302.557
339.836
338.868
338.106
337.612
337.733
337.863
338.335
338.837
339.341
339.567
339.639
339.408
339.02
338.221
337.611
337.053
336.838
336.831
337.258
337.925
334.627
333.841
333.214
332.766
332.878
333.01
333.441
333.883
334.343
334.564
334.617
334.442
334.083
333.408
332.917
332.447
332.251
332.261
332.651
333.209
329.39
328.743
328.223
327.857
327.952
328.097
328.461
328.846
329.252
329.435
329.47
329.344
329.041
328.491
328.067
327.68
327.514
327.557
327.881
328.338
324.121
323.594
323.18
322.88
322.949
323.101
323.414
323.75
324.066
324.198
324.243
324.163
323.919
323.5
323.107
322.781
322.628
322.724
322.988
323.366
318.833
318.411
318.098
317.852
317.915
318.038
318.297
318.586
318.81
318.899
318.958
318.879
318.705
318.397
318.056
317.803
317.668
317.76
317.991
318.286
313.5
313.199
312.965
312.813
312.843
312.914
313.116
313.342
313.487
313.536
313.597
313.519
313.435
313.215
312.964
312.769
312.672
312.733
312.901
313.103
308.125
307.953
307.783
307.707
307.739
307.765
307.896
308.049
308.102
308.143
308.179
308.127
308.101
307.961
307.817
307.677
307.626
307.67
307.765
307.88
302.724
302.669
302.613
302.59
302.592
302.607
302.65
302.71
302.724
302.725
302.737
302.716
302.719
302.683
302.618
302.576
302.566
302.572
302.608
302.648
341.433
340.4
339.631
339.192
339.132
339.199
339.61
340.192
340.683
340.92
340.943
340.739
340.236
339.589
338.937
338.255
338.075
338.039
338.562
339.096
336.049
335.192
334.542
334.131
334.115
334.184
334.545
335.067
335.543
335.722
335.749
335.585
335.146
334.627
334.07
333.494
333.347
333.319
333.788
334.228
330.617
329.921
329.364
328.998
329.006
329.066
329.381
329.851
330.293
330.426
330.44
330.291
329.914
329.518
329.045
328.567
328.48
328.427
328.852
329.22
325.126
324.57
324.133
323.803
323.828
323.886
324.145
324.556
324.913
325.026
325.036
324.91
324.625
324.307
323.903
323.533
323.477
323.433
323.791
324.089
319.605
319.166
318.833
318.576
318.601
318.646
318.848
319.19
319.45
319.577
319.562
319.468
319.252
318.983
318.66
318.398
318.358
318.356
318.621
318.864
314.036
313.719
313.49
313.307
313.316
313.349
313.495
313.743
313.933
314.056
314.01
313.948
313.792
313.608
313.369
313.213
313.158
313.182
313.359
313.532
308.44
308.251
308.11
308.008
308.002
308.031
308.129
308.268
308.399
308.471
308.43
308.391
308.305
308.189
308.053
307.973
307.917
307.96
308.03
308.151
302.825
302.767
302.712
302.69
302.679
302.697
302.729
302.765
302.81
302.841
302.828
302.822
302.779
302.748
302.698
302.682
302.646
302.678
302.692
302.742
342.831
341.937
341.282
340.779
340.583
340.71
340.978
341.442
341.864
342.136
342.17
341.937
341.461
340.869
340.347
339.742
339.402
339.511
339.941
340.536
337.276
336.505
335.959
335.544
335.378
335.479
335.725
336.166
336.541
336.788
336.826
336.654
336.223
335.745
335.319
334.771
334.505
334.599
334.999
335.503
331.654
331.015
330.583
330.224
330.091
330.156
330.394
330.791
331.116
331.295
331.351
331.249
330.875
330.48
330.126
329.682
329.451
329.534
329.881
330.308
325.991
325.47
325.102
324.83
324.737
324.755
324.99
325.319
325.585
325.713
325.781
325.704
325.431
325.08
324.796
324.453
324.259
324.342
324.647
324.972
320.263
319.882
319.555
319.368
319.321
319.298
319.505
319.782
319.981
320.07
320.149
320.083
319.874
319.579
319.366
319.126
318.942
319.054
319.281
319.529
314.521
314.247
313.998
313.866
313.834
313.818
313.962
314.183
314.317
314.379
314.457
314.416
314.244
314.026
313.887
313.702
313.576
313.672
313.84
314.007
308.761
308.564
308.424
308.353
308.336
308.332
308.393
308.545
308.601
308.64
308.705
308.686
308.571
308.439
308.374
308.25
308.16
308.23
308.321
308.416
302.941
302.865
302.835
302.797
302.808
302.798
302.82
302.873
302.882
302.901
302.923
302.924
302.866
302.83
302.813
302.772
302.734
302.759
302.782
302.816
344.423
343.448
342.776
342.325
342.149
342.177
342.472
342.766
343.019
343.303
343.359
343.338
342.81
342.228
341.611
341.067
340.809
340.875
341.408
341.967
338.663
337.846
337.276
336.885
336.763
336.781
337.052
337.338
337.548
337.802
337.878
337.879
337.433
336.929
336.426
335.964
335.752
335.827
336.288
336.754
332.848
332.165
331.68
331.379
331.283
331.29
331.516
331.77
331.944
332.17
332.247
332.293
331.905
331.491
331.086
330.715
330.497
330.59
331.002
331.369
326.981
326.399
326.017
325.804
325.717
325.712
325.889
326.111
326.242
326.454
326.518
326.596
326.261
325.942
325.61
325.309
325.108
325.225
325.568
325.858
321.052
320.591
320.311
320.15
320.075
320.066
320.2
320.388
320.47
320.65
320.715
320.777
320.535
320.299
320.031
319.787
319.607
319.754
319.994
320.223
315.091
314.744
314.556
314.456
314.385
314.364
314.455
314.613
314.645
314.796
314.859
314.896
314.73
314.553
314.375
314.185
314.053
314.199
314.335
314.53
309.092
308.861
308.765
308.708
308.663
308.629
308.695
308.787
308.797
308.905
308.929
308.963
308.869
308.764
308.646
308.545
308.453
308.562
308.621
308.746
303.045
302.964
302.942
302.921
302.914
302.895
302.906
302.95
302.951
302.99
302.997
303.004
302.966
302.947
302.894
302.867
302.838
302.875
302.885
302.933
345.928
345.151
344.443
343.991
343.736
343.643
343.829
344.077
344.206
344.56
344.621
344.407
343.972
343.411
342.92
342.384
342.186
342.345
342.838
343.399
339.972
339.321
338.735
338.365
338.155
338.077
338.238
338.489
338.594
338.898
338.994
338.817
338.464
337.966
337.564
337.098
336.956
337.101
337.57
338.034
333.991
333.392
332.931
332.63
332.454
332.385
332.54
332.776
332.858
333.083
333.203
333.086
332.801
332.377
332.038
331.671
331.562
331.677
332.103
332.471
327.909
327.407
327.042
326.809
326.664
326.6
326.732
326.953
327.027
327.208
327.311
327.236
327.004
326.653
326.396
326.09
326.021
326.126
326.476
326.757
321.775
321.363
321.087
320.923
320.828
320.762
320.887
321.033
321.102
321.262
321.334
321.288
321.098
320.847
320.636
320.415
320.331
320.454
320.708
320.935
315.596
315.289
315.098
315.01
314.943
314.873
314.964
315.043
315.137
315.241
315.295
315.26
315.123
314.958
314.801
314.658
314.575
314.681
314.841
315.03
309.403
309.186
309.068
309.038
308.996
308.961
309.013
309.051
309.115
309.184
309.203
309.191
309.097
309.011
308.91
308.835
308.76
308.855
308.908
309.072
303.154
303.073
303.033
303.029
303.019
303.012
303.029
303.037
303.066
303.084
303.084
303.091
303.06
303.023
303.001
302.967
302.938
302.965
302.985
303.047
347.504
346.813
346.008
345.523
345.203
345.18
345.128
345.364
345.556
345.734
345.863
345.517
345.169
344.762
344.235
343.812
343.679
343.852
344.202
344.824
341.361
340.825
340.093
339.672
339.422
339.406
339.386
339.595
339.767
339.947
340.083
339.805
339.504
339.152
338.731
338.359
338.275
338.414
338.739
339.294
335.158
334.73
334.094
333.719
333.53
333.519
333.52
333.7
333.861
334.011
334.148
333.931
333.677
333.381
333.06
332.752
332.693
332.82
333.085
333.55
328.878
328.513
328.008
327.685
327.537
327.541
327.573
327.698
327.839
327.981
328.075
327.927
327.75
327.489
327.218
327.004
326.933
327.063
327.268
327.661
322.525
322.242
321.853
321.602
321.493
321.505
321.542
321.605
321.724
321.849
321.926
321.843
321.717
321.477
321.28
321.149
321.04
321.175
321.319
321.664
316.122
315.911
315.65
315.494
315.394
315.408
315.45
315.485
315.572
315.659
315.721
315.683
315.57
315.391
315.254
315.187
315.09
315.203
315.297
315.548
309.7
309.566
309.404
309.323
309.249
309.274
309.298
309.294
309.385
309.425
309.484
309.445
309.369
309.258
309.207
309.135
309.078
309.168
309.226
309.357
303.261
303.205
303.155
303.133
303.11
303.114
303.124
303.103
303.156
303.157
303.184
303.159
303.138
303.106
303.095
303.059
303.046
303.089
303.099
303.133
349.032
348.338
347.541
347.039
346.734
346.671
346.608
346.647
346.85
346.98
346.987
346.78
346.511
346.056
345.638
345.304
345.161
345.376
345.55
346.215
342.705
342.119
341.452
341.017
340.762
340.727
340.68
340.719
340.91
341.049
341.048
340.909
340.693
340.3
339.969
339.684
339.57
339.783
339.929
340.513
336.29
335.811
335.23
334.876
334.683
334.653
334.616
334.652
334.837
334.971
334.971
334.89
334.705
334.382
334.102
333.875
333.755
333.983
334.125
334.595
329.805
329.426
328.931
328.649
328.517
328.491
328.45
328.49
328.666
328.792
328.783
328.717
328.574
328.319
328.1
327.913
327.791
328.008
328.125
328.525
323.242
322.968
322.57
322.335
322.257
322.237
322.209
322.247
322.413
322.511
322.488
322.454
322.357
322.157
321.988
321.824
321.71
321.922
322.028
322.321
316.638
316.457
316.165
315.988
315.954
315.943
315.905
315.952
316.08
316.13
316.112
316.097
316.034
315.889
315.774
315.67
315.575
315.749
315.83
316.054
309.998
309.915
309.731
309.639
309.599
309.579
309.57
309.597
309.682
309.71
309.691
309.69
309.637
309.572
309.501
309.427
309.39
309.502
309.542
309.682
303.36
303.324
303.265
303.236
303.212
303.201
303.217
303.223
303.243
303.255
303.245
303.259
303.235
303.211
303.194
303.162
303.137
303.209
303.204
303.25
350.54
349.891
349.184
348.715
348.29
348.088
348.131
348.15
348.057
348.177
348.139
348.087
347.741
347.288
346.86
346.742
346.459
346.673
347.184
347.753
344.003
343.493
342.882
342.489
342.151
341.961
342.009
342.02
341.975
342.106
342.085
342.054
341.761
341.378
341.048
340.963
340.727
340.926
341.354
341.839
337.394
336.972
336.457
336.16
335.881
335.707
335.753
335.749
335.757
335.888
335.871
335.862
335.607
335.299
335.041
334.98
334.773
334.977
335.326
335.746
330.697
330.357
329.948
329.741
329.481
329.362
329.379
329.383
329.413
329.537
329.524
329.543
329.314
329.088
328.885
328.826
328.646
328.851
329.115
329.487
323.969
323.689
323.338
323.244
323.009
322.928
322.906
322.93
322.969
323.085
323.087
323.088
322.926
322.747
322.612
322.551
322.395
322.579
322.805
323.094
317.152
316.957
316.696
316.672
316.486
316.415
316.402
316.428
316.459
316.55
316.528
316.56
316.432
316.339
316.259
316.181
316.066
316.204
316.372
316.592
310.325
310.193
310.022
310.028
309.933
309.877
309.866
309.882
309.9
309.946
309.937
309.953
309.891
309.858
309.803
309.745
309.664
309.793
309.876
310.01
303.458
303.417
303.355
303.363
303.331
303.307
303.315
303.307
303.319
303.337
303.328
303.348
303.333
303.313
303.287
303.25
303.24
303.294
303.319
303.359
352.314
351.514
350.821
350.289
349.804
349.453
349.391
349.399
349.306
349.409
349.327
349.306
348.93
348.433
348.252
348.067
347.953
348.181
348.544
349.17
345.581
344.91
344.299
343.886
343.442
343.173
343.103
343.123
343.069
343.174
343.154
343.14
342.806
342.401
342.262
342.112
342.015
342.247
342.573
343.1
338.746
338.209
337.662
337.332
336.954
336.744
336.681
336.716
336.687
336.795
336.801
336.796
336.505
336.178
336.069
335.941
335.883
336.104
336.359
336.814
331.814
331.401
330.928
330.673
330.36
330.2
330.142
330.199
330.2
330.282
330.305
330.289
330.062
329.815
329.704
329.614
329.57
329.775
329.967
330.36
324.818
324.507
324.126
323.914
323.683
323.574
323.534
323.579
323.588
323.66
323.708
323.702
323.498
323.317
323.242
323.166
323.141
323.303
323.432
323.759
317.764
317.554
317.276
317.104
316.971
316.906
316.87
316.908
316.913
316.966
317.015
316.993
316.851
316.729
316.696
316.626
316.636
316.719
316.8
317.058
310.688
310.561
310.383
310.283
310.206
310.171
310.155
310.185
310.181
310.221
310.253
310.227
310.15
310.063
310.072
310.023
310.029
310.061
310.107
310.279
303.58
303.543
303.485
303.447
303.423
303.409
303.409
303.425
303.422
303.421
303.432
303.433
303.404
303.372
303.382
303.367
303.368
303.378
303.38
303.453
353.964
353.194
352.373
351.789
351.446
350.971
350.85
350.776
350.615
350.563
350.477
350.337
350.113
349.78
349.453
349.362
349.359
349.576
350.008
350.643
347
346.377
345.655
345.16
344.885
344.491
344.385
344.35
344.198
344.198
344.12
344.037
343.848
343.559
343.302
343.254
343.244
343.453
343.832
344.4
339.951
339.45
338.829
338.424
338.204
337.863
337.799
337.771
337.631
337.661
337.607
337.563
337.409
337.141
336.963
336.928
336.91
337.121
337.452
337.94
332.81
332.411
331.877
331.58
331.414
331.113
331.083
331.046
330.964
330.971
330.949
330.929
330.809
330.59
330.451
330.429
330.421
330.594
330.89
331.277
325.591
325.291
324.887
324.663
324.535
324.274
324.278
324.238
324.195
324.18
324.163
324.186
324.065
323.907
323.824
323.79
323.794
323.934
324.172
324.488
318.329
318.113
317.828
317.651
317.592
317.376
317.403
317.379
317.343
317.324
317.328
317.348
317.269
317.157
317.089
317.068
317.071
317.169
317.329
317.594
311.024
310.893
310.734
310.609
310.586
310.446
310.458
310.473
310.434
310.422
310.44
310.456
310.408
310.32
310.298
310.295
310.298
310.331
310.444
310.617
303.705
303.649
303.608
303.568
303.553
303.491
303.505
303.515
303.5
303.496
303.499
303.504
303.495
303.463
303.467
303.459
303.449
303.467
303.507
303.556
355.443
354.75
353.918
353.241
352.798
352.521
352.232
352.016
351.822
351.693
351.638
351.419
351.341
351.008
350.816
350.73
350.704
351.009
351.523
351.983
348.299
347.711
347.025
346.446
346.05
345.83
345.585
345.428
345.259
345.163
345.144
344.964
344.898
344.656
344.507
344.427
344.41
344.679
345.162
345.576
341.049
340.558
339.993
339.52
339.192
338.994
338.784
338.665
338.54
338.464
338.47
338.329
338.296
338.091
337.988
337.879
337.91
338.162
338.588
338.933
333.72
333.298
332.843
332.471
332.219
332.039
331.88
331.779
331.693
331.639
331.661
331.562
331.541
331.365
331.293
331.204
331.251
331.459
331.799
332.1
326.303
325.981
325.612
325.335
325.164
324.997
324.873
324.816
324.749
324.719
324.738
324.683
324.66
324.517
324.475
324.406
324.453
324.615
324.884
325.143
318.823
318.603
318.326
318.134
318.019
317.885
317.807
317.786
317.734
317.71
317.728
317.695
317.682
317.583
317.546
317.509
317.555
317.669
317.856
318.043
311.299
311.182
311
310.913
310.843
310.749
310.718
310.698
310.662
310.651
310.662
310.664
310.645
310.585
310.557
310.551
310.578
310.635
310.739
310.869
303.79
303.749
303.695
303.653
303.64
303.604
303.59
303.581
303.581
303.568
303.562
303.571
303.576
303.545
303.543
303.536
303.546
303.578
303.608
303.659
356.741
356.077
355.274
354.598
354.069
353.692
353.384
353.137
352.892
352.891
352.679
352.602
352.273
352.24
352.062
351.959
352.119
352.264
352.745
353.268
349.412
348.86
348.167
347.599
347.159
346.867
346.591
346.382
346.184
346.196
346.034
345.979
345.731
345.731
345.557
345.507
345.637
345.803
346.226
346.664
341.996
341.535
340.935
340.486
340.095
339.891
339.649
339.471
339.315
339.335
339.221
339.179
338.993
339.025
338.862
338.828
338.941
339.103
339.496
339.826
334.49
334.102
333.616
333.275
332.939
332.81
332.594
332.443
332.336
332.375
332.268
332.243
332.094
332.121
332.012
331.968
332.056
332.229
332.553
332.794
326.905
326.61
326.222
325.976
325.71
325.627
325.428
325.324
325.26
325.297
325.194
325.207
325.07
325.08
325.051
324.987
325.039
325.221
325.454
325.646
319.273
319.054
318.799
318.613
318.416
318.39
318.203
318.153
318.076
318.135
318.046
318.086
317.973
317.968
317.971
317.914
317.962
318.108
318.248
318.409
311.607
311.437
311.319
311.2
311.077
311.076
310.949
310.927
310.87
310.92
310.874
310.894
310.825
310.812
310.812
310.787
310.81
310.911
310.967
311.086
303.892
303.835
303.792
303.756
303.724
303.718
303.675
303.668
303.647
303.668
303.646
303.669
303.634
303.626
303.627
303.622
303.627
303.667
303.692
303.72
357.717
356.987
356.285
355.494
355.101
354.697
354.376
353.986
353.763
353.799
353.589
353.297
353.225
353.138
352.773
352.888
353.049
353.27
353.633
354.097
350.243
349.625
349.016
348.343
348.031
347.689
347.396
347.108
346.9
346.945
346.791
346.567
346.512
346.446
346.132
346.252
346.424
346.645
346.962
347.345
342.671
342.164
341.631
341.095
340.815
340.553
340.303
340.09
339.926
339.962
339.84
339.668
339.638
339.594
339.322
339.423
339.588
339.812
340.096
340.389
335.014
334.597
334.145
333.746
333.495
333.314
333.106
332.965
332.842
332.871
332.766
332.637
332.584
332.586
332.334
332.445
332.587
332.788
333.059
333.271
327.285
327.005
326.602
326.322
326.133
326
325.844
325.726
325.648
325.678
325.592
325.482
325.43
325.464
325.262
325.366
325.47
325.633
325.87
326.017
319.526
319.352
319.026
318.825
318.733
318.671
318.498
318.442
318.38
318.424
318.354
318.278
318.186
318.25
318.102
318.197
318.265
318.383
318.547
318.66
311.731
311.642
311.442
311.326
311.274
311.24
311.115
311.099
311.058
311.099
311.062
311.016
310.933
310.977
310.874
310.961
311.003
311.072
311.153
311.239
303.93
303.906
303.834
303.794
303.782
303.776
303.732
303.727
303.711
303.726
303.712
303.701
303.673
303.687
303.64
303.679
303.69
303.713
303.747
303.769
)
;

boundaryField
{
    hotSide
    {
        type            fixedGradient;
        gradient        nonuniform List<scalar> 
400
(
354.869
356.811
361.088
367.645
376.263
386.623
398.381
411.221
424.877
439.138
453.836
468.842
484.056
499.395
514.79
530.181
545.516
560.751
575.856
590.823
337.911
339.975
344.536
351.529
360.69
371.642
383.992
397.394
411.562
426.278
441.373
456.722
472.227
487.811
503.411
518.971
534.439
549.775
564.949
579.957
326.836
329.204
334.044
341.284
350.662
361.807
374.329
387.88
402.172
416.983
432.143
447.526
463.035
478.597
494.151
509.649
525.044
540.302
555.399
570.335
321.289
324.128
329.25
336.581
345.9
356.89
369.208
382.533
396.59
411.159
426.067
441.185
456.418
471.692
486.955
502.161
517.279
532.281
547.156
561.908
319.791
323.186
328.615
336.005
345.175
355.872
367.808
380.703
394.304
408.4
422.823
437.444
452.172
466.939
481.701
496.425
511.091
525.688
540.212
554.672
320.671
324.639
330.42
337.931
347.019
357.469
369.04
381.483
394.567
408.095
421.908
435.889
449.955
464.056
478.163
492.262
506.347
520.421
534.49
548.568
322.588
327.115
333.289
341.018
350.155
360.505
371.842
383.933
396.559
409.532
422.705
435.979
449.296
462.632
475.984
489.361
502.78
516.256
529.805
543.442
324.558
329.602
336.19
344.221
353.544
363.959
375.238
387.139
399.433
411.93
424.496
437.057
449.592
462.118
474.669
487.286
500.007
512.862
525.873
539.056
325.842
331.32
338.298
346.666
356.265
366.882
378.265
390.141
402.252
414.389
426.423
438.314
450.092
461.828
473.604
485.494
497.557
509.834
522.353
535.126
325.882
331.651
338.918
347.571
357.443
368.306
379.879
391.845
403.9
415.8
427.419
438.753
449.89
460.961
472.093
483.392
494.932
506.76
518.904
531.374
324.302
330.153
337.522
346.3
356.314
367.327
379.033
391.087
403.14
414.923
426.304
437.307
448.062
458.741
469.501
480.464
491.715
503.305
515.26
527.589
320.967
326.644
333.872
342.539
352.47
363.421
375.084
387.107
399.14
410.912
422.289
433.29
444.044
454.721
465.479
476.444
487.704
499.314
511.304
523.684
316.032
321.288
328.138
336.472
346.11
356.809
368.268
380.159
392.161
404.026
415.617
426.926
438.034
449.074
460.177
471.46
483.009
494.884
507.121
519.737
309.97
314.606
320.916
328.789
338.044
348.437
359.676
371.457
383.492
395.554
407.503
419.293
430.954
442.565
454.223
466.024
478.048
490.358
502.997
515.988
303.564
307.455
313.152
320.554
329.468
339.638
350.77
362.561
374.74
387.087
399.455
411.769
424.019
436.243
448.506
460.882
473.446
486.261
499.374
512.815
297.931
301.019
306.11
313.106
321.795
331.886
343.054
354.982
367.391
380.06
392.835
405.624
418.394
431.156
443.954
456.85
469.913
483.209
496.791
510.688
294.575
296.874
301.406
308.075
316.635
326.738
338.011
350.107
362.737
375.676
388.766
401.91
415.064
428.224
441.422
454.715
468.17
481.858
495.836
510.136
295.334
296.948
300.978
307.332
315.725
325.761
337.027
349.156
361.851
374.891
388.119
401.437
414.795
428.182
441.623
455.167
468.883
482.842
497.106
511.706
301.842
302.976
306.55
312.482
320.488
330.173
341.125
352.983
365.457
378.332
391.454
404.723
418.086
431.524
445.053
458.712
472.563
486.671
501.092
515.851
314.576
315.456
318.614
323.984
331.332
340.323
350.601
361.84
373.773
386.194
398.953
411.949
425.119
438.437
451.905
465.55
479.415
493.55
507.993
522.762
)
;
    }
    coldSide
    {
        type            mixed;
        refValue        uniform 300;
        refGradient     uniform 0;
        valueFraction   uniform 0.991591;
        source          uniform 0;
        value           nonuniform List<scalar> 
400
(
300.019
300.019
300.02
300.02
300.021
300.021
300.022
300.023
300.024
300.025
300.026
300.027
300.027
300.028
300.029
300.03
300.031
300.032
300.033
300.033
300.019
300.019
300.019
300.02
300.02
300.021
300.022
300.022
300.023
300.024
300.025
300.026
300.027
300.028
300.029
300.03
300.031
300.032
300.032
300.033