/*--------------------------------*- C++ -*----------------------------------*\
| =========                 |                                                 |
| \\      /  F ield         | OpenFOAM: The Open Source CFD Toolbox           |
|  \\    /   O peration     | Version:  2212                                  |
|   \\  /    A nd           | Website:  www.openfoam.com                      |
|    \\/     M anipulation  |                                                 |
\*---------------------------------------------------------------------------*/
FoamFile
{
    version     2.0;
    format      ascii;
    arch        "LSB;label=32;scalar=64";
    class       volScalarField;
    location    "0";
    object      Ttrue;
}
// * * * * * * * * * * * * * * * * * * * * * * * * * * * * * * * * * * * * * //

dimensions      [0 0 0 1 0 0 0];

internalField   nonuniform List<scalar> 
3200
(
342.363
343.418
344.766
346.234
347.747
349.231
350.602
351.758
352.601
353.046
353.046
352.601
351.758
350.602
349.231
347.747
346.234
344.766
343.418
342.363
336.758
337.651
338.813
340.084
341.393
342.677
343.862
344.861
345.589
345.973
345.973
345.589
344.861
343.862
342.677
341.393
340.084
338.813
337.651
336.758
331.135
331.877
332.856
333.929
335.035
336.12
337.12
337.964
338.578
338.902
338.902
338.578
337.964
337.12
336.12
335.035
333.929
332.856
331.877
331.135
325.498
326.095
326.893
327.77
328.675
329.561
330.378
331.067
331.568
331.832
331.832
331.568
331.067
330.378
329.561
328.675
327.77
326.893
326.095
325.498
319.85
320.308
320.927
321.608
322.311
323
323.635
324.17
324.559
324.764
324.764
324.559
324.17
323.635
323
322.311
321.608
320.927
320.308
319.85
314.192
314.516
314.957
315.444
315.946
316.438
316.891
317.272
317.55
317.697
317.697
317.55
317.272
316.891
316.438
315.946
315.444
314.957
314.516
314.192
308.527
308.721
308.985
309.278
309.579
309.874
310.146
310.375
310.542
310.63
310.63
310.542
310.375
310.146
309.874
309.579
309.278
308.985
308.721
308.527
302.859
302.924
303.012
303.11
303.211
303.31
303.401
303.478
303.534
303.563
303.563
303.534
303.478
303.401
303.31
303.211
303.11
303.012
302.924
302.859
342.454
343.501
344.837
346.291
347.789
349.257
350.611
351.753
352.585
353.024
353.024
352.585
351.753
350.611
349.257
347.789
346.291
344.837
343.501
342.454
336.836
337.723
338.875
340.134
341.429
342.699
343.87
344.857
345.576
345.955
345.955
345.576
344.857
343.87
342.699
341.429
340.134
338.875
337.723
336.836
331.202
331.937
332.908
333.971
335.066
336.139
337.128
337.961
338.567
338.887
338.887
338.567
337.961
337.128
336.139
335.066
333.971
332.908
331.937
331.202
325.553
326.144
326.936
327.805
328.7
329.577
330.384
331.065
331.559
331.82
331.82
331.559
331.065
330.384
329.577
328.7
327.805
326.936
326.144
325.553
319.892
320.346
320.96
321.635
322.331
323.012
323.64
324.168
324.552
324.755
324.755
324.552
324.168
323.64
323.012
322.331
321.635
320.96
320.346
319.892
314.222
314.543
314.981
315.463
315.96
316.446
316.894
317.271
317.545
317.69
317.69
317.545
317.271
316.894
316.446
315.96
315.463
314.981
314.543
314.222
308.545
308.737
309
309.289
309.587
309.879
310.148
310.375
310.539
310.626
310.626
310.539
310.375
310.148
309.879
309.587
309.289
309
308.737
308.545
302.865
302.929
303.017
303.114
303.214
303.312
303.402
303.478
303.533
303.562
303.562
303.533
303.478
303.402
303.312
303.214
303.114
303.017
302.929
302.865
342.637
343.667
344.981
346.408
347.875
349.312
350.635
351.749
352.56
352.987
352.987
352.56
351.749
350.635
349.312
347.875
346.408
344.981
343.667
342.637
336.995
337.867
339
340.235
341.505
342.747
343.891
344.854
345.554
345.924
345.924
345.554
344.854
343.891
342.747
341.505
340.235
339
337.867
336.995
331.335
332.059
333.013
334.057
335.13
336.18
337.146
337.959
338.55
338.861
338.861
338.55
337.959
337.146
336.18
335.13
334.057
333.013
332.059
331.335
325.662
326.244
327.022
327.875
328.752
329.61
330.399
331.063
331.545
331.8
331.8
331.545
331.063
330.399
329.61
328.752
327.875
327.022
326.244
325.662
319.976
320.424
321.027
321.69
322.372
323.039
323.652
324.167
324.542
324.739
324.739
324.542
324.167
323.652
323.039
322.372
321.69
321.027
320.424
319.976
314.282
314.599
315.029
315.502
315.989
316.465
316.903
317.271
317.538
317.679
317.679
317.538
317.271
316.903
316.465
315.989
315.502
315.029
314.599
314.282
308.581
308.77
309.028
309.313
309.605
309.891
310.153
310.374
310.535
310.619
310.619
310.535
310.374
310.153
309.891
309.605
309.313
309.028
308.77
308.581
302.877
302.94
303.027
303.122
303.22
303.316
303.404
303.478
303.531
303.56
303.56
303.531
303.478
303.404
303.316
303.22
303.122
303.027
302.94
302.877
342.915
343.921
345.201
346.59
348.013
349.404
350.682
351.756
352.536
352.948
352.948
352.536
351.756
350.682
349.404
348.013
346.59
345.201
343.921
342.915
337.234
338.086
339.19
340.392
341.624
342.828
343.933
344.861
345.535
345.89
345.89
345.535
344.861
343.933
342.828
341.624
340.392
339.19
338.086
337.234
331.538
332.244
333.175
334.19
335.231
336.248
337.181
337.965
338.534
338.834
338.834
338.534
337.965
337.181
336.248
335.231
334.19
333.175
332.244
331.538
325.827
326.396
327.154
327.984
328.835
329.666
330.429
331.069
331.533
331.778
331.778
331.533
331.069
330.429
329.666
328.835
327.984
327.154
326.396
325.827
320.105
320.541
321.13
321.775
322.436
323.082
323.675
324.172
324.533
324.723
324.723
324.533
324.172
323.675
323.082
322.436
321.775
321.13
320.541
320.105
314.374
314.683
315.102
315.563
316.035
316.496
316.919
317.274
317.532
317.667
317.667
317.532
317.274
316.919
316.496
316.035
315.563
315.102
314.683
314.374
308.636
308.821
309.072
309.349
309.633
309.91
310.163
310.377
310.531
310.612
310.612
310.531
310.377
310.163
309.91
309.633
309.349
309.072
308.821
308.636
302.895
302.957
303.041
303.134
303.229
303.322
303.407
303.478
303.53
303.557
303.557
303.53
303.478
303.407
303.322
303.229
303.134
303.041
302.957
302.895
343.289
344.265
345.503
346.842
348.211
349.544
350.765
351.789
352.531
352.922
352.922
352.531
351.789
350.765
349.544
348.211
346.842
345.503
344.265
343.289
337.558
338.384
339.452
340.611
341.796
342.949
344.005
344.891
345.532
345.87
345.87
345.532
344.891
344.005
342.949
341.796
340.611
339.452
338.384
337.558
331.811
332.496
333.396
334.375
335.376
336.351
337.243
337.991
338.532
338.817
338.817
338.532
337.991
337.243
336.351
335.376
334.375
333.396
332.496
331.811
326.05
326.601
327.335
328.135
328.954
329.751
330.48
331.09
331.533
331.765
331.765
331.533
331.09
330.48
329.751
328.954
328.135
327.335
326.601
326.05
320.278
320.701
321.27
321.892
322.529
323.148
323.715
324.189
324.532
324.713
324.713
324.532
324.189
323.715
323.148
322.529
321.892
321.27
320.701
320.278
314.497
314.797
315.203
315.647
316.101
316.544
316.948
317.287
317.532
317.661
317.661
317.532
317.287
316.948
316.544
316.101
315.647
315.203
314.797
314.497
308.711
308.889
309.133
309.399
309.672
309.938
310.181
310.384
310.531
310.608
310.608
310.531
310.384
310.181
309.938
309.672
309.399
309.133
308.889
308.711
302.92
302.98
303.062
303.151
303.242
303.331
303.413
303.481
303.53
303.556
303.556
303.53
303.481
303.413
303.331
303.242
303.151
303.062
302.98
302.92
343.766
344.705
345.893
347.173
348.478
349.743
350.898
351.865
352.563
352.93
352.93
352.563
351.865
350.898
349.743
348.478
347.173
345.893
344.705
343.766
337.97
338.765
339.789
340.898
342.027
343.122
344.122
344.957
345.561
345.879
345.879
345.561
344.957
344.122
343.122
342.027
340.898
339.789
338.765
337.97
332.158
332.817
333.681
334.618
335.572
336.498
337.343
338.048
338.558
338.826
338.826
338.558
338.048
337.343
336.498
335.572
334.618
333.681
332.817
332.158
326.333
326.864
327.568
328.334
329.114
329.871
330.561
331.138
331.554
331.773
331.773
331.554
331.138
330.561
329.871
329.114
328.334
327.568
326.864
326.333
320.498
320.906
321.452
322.047
322.654
323.242
323.778
324.226
324.55
324.72
324.72
324.55
324.226
323.778
323.242
322.654
322.047
321.452
320.906
320.498
314.654
314.943
315.332
315.757
316.191
316.611
316.994
317.314
317.544
317.666
317.666
317.544
317.314
316.994
316.611
316.191
315.757
315.332
314.943
314.654
308.805
308.977
309.211
309.466
309.726
309.978
310.208
310.4
310.539
310.612
310.612
310.539
310.4
310.208
309.978
309.726
309.466
309.211
308.977
308.805
302.952
303.009
303.088
303.173
303.26
303.345
303.422
303.486
303.533
303.557
303.557
303.533
303.486
303.422
303.345
303.26
303.173
303.088
303.009
302.952
344.348
345.245
346.377
347.593
348.825
350.017
351.1
352.002
352.653
352.995
352.995
352.653
352.002
351.1
350.017
348.825
347.593
346.377
345.245
344.348
338.473
339.232
340.209
341.261
342.329
343.36
344.297
345.078
345.641
345.936
345.936
345.641
345.078
344.297
343.36
342.329
341.261
340.209
339.232
338.473
332.583
333.213
334.036
334.925
335.828
336.699
337.491
338.151
338.627
338.876
338.876
338.627
338.151
337.491
336.699
335.828
334.925
334.036
333.213
332.583
326.68
327.187
327.858
328.585
329.323
330.036
330.683
331.223
331.611
331.815
331.815
331.611
331.223
330.683
330.036
329.323
328.585
327.858
327.187
326.68
320.767
321.157
321.677
322.242
322.816
323.37
323.873
324.292
324.594
324.752
324.752
324.594
324.292
323.873
323.37
322.816
322.242
321.677
321.157
320.767
314.847
315.122
315.493
315.897
316.307
316.702
317.062
317.361
317.576
317.689
317.689
317.576
317.361
317.062
316.702
316.307
315.897
315.493
315.122
314.847
308.92
309.085
309.307
309.55
309.796
310.033
310.249
310.429
310.558
310.626
310.626
310.558
310.429
310.249
310.033
309.796
309.55
309.307
309.085
308.92
302.991
303.046
303.12
303.201
303.284
303.363
303.436
303.496
303.539
303.562
303.562
303.539
303.496
303.436
303.363
303.284
303.201
303.12
303.046
302.991
345.04
345.893
346.964
348.11
349.266
350.378
351.386
352.222
352.823
353.138
353.138
352.823
352.222
351.386
350.378
349.266
348.11
346.964
345.893
345.04
339.071
339.793
340.717
341.709
342.71
343.673
344.545
345.269
345.789
346.061
346.061
345.789
345.269
344.545
343.673
342.71
341.709
340.717
339.793
339.071
333.088
333.687
334.466
335.304
336.151
336.965
337.702
338.313
338.753
338.983
338.983
338.753
338.313
337.702
336.965
336.151
335.304
334.466
333.687
333.088
327.093
327.575
328.21
328.895
329.588
330.253
330.856
331.356
331.715
331.903
331.903
331.715
331.356
330.856
330.253
329.588
328.895
328.21
327.575
327.093
321.088
321.458
321.95
322.483
323.022
323.539
324.008
324.396
324.675
324.821
324.821
324.675
324.396
324.008
323.539
323.022
322.483
321.95
321.458
321.088
315.075
315.337
315.688
316.069
316.454
316.823
317.158
317.435
317.635
317.739
317.739
317.635
317.435
317.158
316.823
316.454
316.069
315.688
315.337
315.075
309.058
309.214
309.424
309.653
309.884
310.106
310.307
310.473
310.593
310.656
310.656
310.593
310.473
310.307
310.106
309.884
309.653
309.424
309.214
309.058
303.037
303.089
303.159
303.236
303.313
303.388
303.455
303.511
303.551
303.572
303.572
303.551
303.511
303.455
303.388
303.313
303.236
303.159
303.089
303.037
345.848
346.654
347.662
348.734
349.812
350.843
351.772
352.541
353.092
353.381
353.381
353.092
352.541
351.772
350.843
349.812
348.734
347.662
346.654
345.848
339.77
340.451
341.321
342.25
343.183
344.076
344.881
345.546
346.023
346.273
346.273
346.023
345.546
344.881
344.076
343.183
342.25
341.321
340.451
339.77
333.678
334.243
334.976
335.761
336.55
337.306
337.986
338.549
338.952
339.162
339.162
338.952
338.549
337.986
337.306
336.55
335.761
334.976
334.243
333.678
327.574
328.03
328.627
329.269
329.915
330.532
331.089
331.549
331.878
332.05
332.05
331.878
331.549
331.089
330.532
329.915
329.269
328.627
328.03
327.574
321.462
321.811
322.275
322.774
323.276
323.756
324.189
324.547
324.803
324.936
324.936
324.803
324.547
324.189
323.756
323.276
322.774
322.275
321.811
321.462
315.342
315.59
315.92
316.277
316.635
316.979
317.288
317.543
317.726
317.821
317.821
317.726
317.543
317.288
316.979
316.635
316.277
315.92
315.59
315.342
309.218
309.365
309.564
309.778
309.993
310.199
310.385
310.538
310.648
310.705
310.705
310.648
310.538
310.385
310.199
309.993
309.778
309.564
309.365
309.218
303.09
303.14
303.206
303.278
303.35
303.419
303.481
303.533
303.569
303.589
303.589
303.569
303.533
303.481
303.419
303.35
303.278
303.206
303.14
303.09
346.776
347.533
348.477
349.475
350.473
351.423
352.276
352.978
353.479
353.741
353.741
353.479
352.978
352.276
351.423
350.473
349.475
348.477
347.533
346.776
340.572
341.213
342.027
342.891
343.756
344.579
345.317
345.925
346.359
346.586
346.586
346.359
345.925
345.317
344.579
343.756
342.891
342.027
341.213
340.572
334.356
334.887
335.573
336.304
337.035
337.731
338.355
338.869
339.237
339.428
339.428
339.237
338.869
338.355
337.731
337.035
336.304
335.573
334.887
334.356
328.128
328.556
329.115
329.713
330.311
330.88
331.391
331.811
332.111
332.268
332.268
332.111
331.811
331.391
330.88
330.311
329.713
329.115
328.556
328.128
321.892
322.22
322.654
323.119
323.584
324.027
324.424
324.751
324.984
325.106
325.106
324.984
324.751
324.424
324.027
323.584
323.119
322.654
322.22
321.892
315.65
315.882
316.191
316.523
316.856
317.172
317.456
317.689
317.856
317.943
317.943
317.856
317.689
317.456
317.172
316.856
316.523
316.191
315.882
315.65
309.402
309.541
309.726
309.926
310.125
310.315
310.486
310.626
310.726
310.778
310.778
310.726
310.626
310.486
310.315
310.125
309.926
309.726
309.541
309.402
303.152
303.198
303.261
303.327
303.394
303.458
303.515
303.562
303.596
303.613
303.613
303.596
303.562
303.515
303.458
303.394
303.327
303.261
303.198
303.152
347.83
348.538
349.416
350.341
351.26
352.131
352.909
353.546
354
354.237
354.237
354
353.546
352.909
352.131
351.26
350.341
349.416
348.538
347.83
341.484
342.083
342.84
343.641
344.438
345.192
345.866
346.418
346.811
347.016
347.016
346.811
346.418
345.866
345.192
344.438
343.641
342.84
342.083
341.484
335.125
335.622
336.26
336.938
337.612
338.25
338.819
339.286
339.619
339.792
339.792
339.619
339.286
338.819
338.25
337.612
336.938
336.26
335.622
335.125
328.757
329.157
329.677
330.231
330.782
331.305
331.771
332.153
332.425
332.566
332.566
332.425
332.153
331.771
331.305
330.782
330.231
329.677
329.157
328.757
322.381
322.688
323.092
323.522
323.951
324.357
324.72
325.017
325.228
325.338
325.338
325.228
325.017
324.72
324.357
323.951
323.522
323.092
322.688
322.381
315.998
316.216
316.504
316.811
317.117
317.408
317.667
317.879
318.03
318.109
318.109
318.03
317.879
317.667
317.408
317.117
316.811
316.504
316.216
315.998
309.612
309.741
309.914
310.099
310.283
310.457
310.612
310.74
310.831
310.878
310.878
310.831
310.74
310.612
310.457
310.283
310.099
309.914
309.741
309.612
303.222
303.266
303.323
303.385
303.447
303.505
303.558
303.6
303.631
303.646
303.646
303.631
303.6
303.558
303.505
303.447
303.385
303.323
303.266
303.222
349.014
349.673
350.487
351.34
352.183
352.977
353.683
354.259
354.668
354.881
354.881
354.668
354.259
353.683
352.977
352.183
351.34
350.487
349.673
349.014
342.507
343.065
343.767
344.506
345.236
345.925
346.536
347.035
347.39
347.574
347.574
347.39
347.035
346.536
345.925
345.236
344.506
343.767
343.065
342.507
335.99
336.452
337.044
337.669
338.287
338.869
339.387
339.809
340.109
340.265
340.265
340.109
339.809
339.387
338.869
338.287
337.669
337.044
336.452
335.99
329.463
329.835
330.318
330.829
331.335
331.811
332.235
332.58
332.825
332.953
332.953
332.825
332.58
332.235
331.811
331.335
330.829
330.318
329.835
329.463
322.929
323.215
323.59
323.987
324.38
324.751
325.08
325.349
325.54
325.639
325.639
325.54
325.349
325.08
324.751
324.38
323.987
323.59
323.215
322.929
316.39
316.592
316.859
317.143
317.424
317.689
317.924
318.116
318.253
318.323
318.323
318.253
318.116
317.924
317.689
317.424
317.143
316.859
316.592
316.39
309.847
309.967
310.128
310.298
310.467
310.626
310.767
310.883
310.964
311.007
311.007
310.964
310.883
310.767
310.626
310.467
310.298
310.128
309.967
309.847
303.301
303.341
303.395
303.452
303.509
303.562
303.609
303.648
303.675
303.69
303.69
303.675
303.648
303.609
303.562
303.509
303.452
303.395
303.341
303.301
350.331
350.942
351.694
352.477
353.247
353.969
354.607
355.126
355.494
355.684
355.684
355.494
355.126
354.607
353.969
353.247
352.477
351.694
350.942
350.331
343.646
344.164
344.812
345.491
346.158
346.784
347.337
347.787
348.105
348.27
348.27
348.105
347.787
347.337
346.784
346.158
345.491
344.812
344.164
343.646
336.952
337.381
337.927
338.501
339.066
339.596
340.064
340.444
340.713
340.853
340.853
340.713
340.444
340.064
339.596
339.066
338.501
337.927
337.381
336.952
330.249
330.595
331.04
331.51
331.972
332.405
332.788
333.099
333.32
333.434
333.434
333.32
333.099
332.788
332.405
331.972
331.51
331.04
330.595
330.249
323.54
323.805
324.151
324.516
324.876
325.213
325.511
325.753
325.924
326.013
326.013
325.924
325.753
325.511
325.213
324.876
324.516
324.151
323.805
323.54
316.826
317.014
317.26
317.521
317.778
318.019
318.232
318.405
318.527
318.591
318.591
318.527
318.405
318.232
318.019
317.778
317.521
317.26
317.014
316.826
310.109
310.221
310.368
310.525
310.679
310.824
310.952
311.056
311.129
311.168
311.168
311.129
311.056
310.952
310.824
310.679
310.525
310.368
310.221
310.109
303.389
303.426
303.476
303.528
303.58
303.628
303.671
303.706
303.731
303.744
303.744
303.731
303.706
303.671
303.628
303.58
303.528
303.476
303.426
303.389
351.783
352.349
353.041
353.758
354.459
355.113
355.689
356.155
356.483
356.654
356.654
356.483
356.155
355.689
355.113
354.459
353.758
353.041
352.349
351.783
344.902
345.381
345.978
346.599
347.207
347.774
348.273
348.677
348.962
349.109
349.109
348.962
348.677
348.273
347.774
347.207
346.599
345.978
345.381
344.902
338.013
338.41
338.913
339.439
339.953
340.433
340.855
341.197
341.438
341.563
341.563
341.438
341.197
340.855
340.433
339.953
339.439
338.913
338.41
338.013
331.116
331.436
331.846
332.276
332.697
333.09
333.435
333.715
333.912
334.014
334.014
333.912
333.715
333.435
333.09
332.697
332.276
331.846
331.436
331.116
324.214
324.459
324.778
325.112
325.439
325.745
326.014
326.231
326.385
326.464
326.464
326.385
326.231
326.014
325.745
325.439
325.112
324.778
324.459
324.214
317.307
317.481
317.708
317.947
318.181
318.399
318.591
318.747
318.856
318.913
318.913
318.856
318.747
318.591
318.399
318.181
317.947
317.708
317.481
317.307
310.397
310.501
310.637
310.78
310.921
311.052
311.168
311.261
311.327
311.361
311.361
311.327
311.261
311.168
311.052
310.921
310.78
310.637
310.501
310.397
303.486
303.52
303.566
303.614
303.661
303.705
303.744
303.775
303.797
303.808
303.808
303.797
303.775
303.744
303.705
303.661
303.614
303.566
303.52
303.486
353.372
353.894
354.529
355.184
355.821
356.412
356.929
357.347
357.641
357.793
357.793
357.641
357.347
356.929
356.412
355.821
355.184
354.529
353.894
353.372
346.276
346.718
347.266
347.833
348.386
348.898
349.347
349.709
349.963
350.095
350.095
349.963
349.709
349.347
348.898
348.386
347.833
347.266
346.718
346.276
339.173
339.539
340.001
340.481
340.949
341.382
341.762
342.069
342.284
342.395
342.395
342.284
342.069
341.762
341.382
340.949
340.481
340.001
339.539
339.173
332.064
332.359
332.735
333.128
333.511
333.866
334.177
334.427
334.604
334.695
334.695
334.604
334.427
334.177
333.866
333.511
333.128
332.735
332.359
332.064
324.95
325.176
325.469
325.774
326.072
326.348
326.59
326.785
326.922
326.993
326.993
326.922
326.785
326.59
326.348
326.072
325.774
325.469
325.176
324.95
317.833
317.993
318.201
318.419
318.632
318.83
319.003
319.142
319.24
319.291
319.291
319.24
319.142
319.003
318.83
318.632
318.419
318.201
317.993
317.833
310.713
310.808
310.933
311.064
311.192
311.311
311.415
311.498
311.557
311.588
311.588
311.557
311.498
311.415
311.311
311.192
311.064
310.933
310.808
310.713
303.591
303.623
303.665
303.709
303.752
303.792
303.826
303.854
303.874
303.884
303.884
303.874
303.854
303.826
303.792
303.752
303.709
303.665
303.623
303.591
355.092
355.572
356.154
356.751
357.329
357.862
358.327
358.701
358.963
359.098
359.098
358.963
358.701
358.327
357.862
357.329
356.751
356.154
355.572
355.092
347.762
348.168
348.671
349.188
349.689
350.151
350.555
350.879
351.106
351.223
351.223
351.106
350.879
350.555
350.151
349.689
349.188
348.671
348.168
347.762
340.427
340.764
341.187
341.625
342.049
342.441
342.782
343.056
343.249
343.348
343.348
343.249
343.056
342.782
342.441
342.049
341.625
341.187
340.764
340.427
333.088
333.359
333.704
334.062
334.41
334.73
335.01
335.234
335.392
335.473
335.473
335.392
335.234
335.01
334.73
334.41
334.062
333.704
333.359
333.088
325.746
325.953
326.221
326.5
326.77
327.02
327.237
327.412
327.534
327.598
327.598
327.534
327.412
327.237
327.02
326.77
326.5
326.221
325.953
325.746
318.4
318.547
318.739
318.938
319.131
319.309
319.464
319.589
319.677
319.722
319.722
319.677
319.589
319.464
319.309
319.131
318.938
318.739
318.547
318.4
311.053
311.141
311.256
311.375
311.491
311.598
311.692
311.767
311.82
311.847
311.847
311.82
311.767
311.692
311.598
311.491
311.375
311.256
311.141
311.053
303.705
303.735
303.773
303.813
303.852
303.888
303.919
303.944
303.962
303.971
303.971
303.962
303.944
303.919
303.888
303.852
303.813
303.773
303.735
303.705
356.925
357.366
357.899
358.443
358.967
359.448
359.865
360.2
360.434
360.554
360.554
360.434
360.2
359.865
359.448
358.967
358.443
357.899
357.366
356.925
349.343
349.717
350.176
350.648
351.102
351.519
351.882
352.172
352.375
352.479
352.479
352.375
352.172
351.882
351.519
351.102
350.648
350.176
349.717
349.343
341.76
342.069
342.457
342.856
343.24
343.594
343.9
344.146
344.318
344.407
344.407
344.318
344.146
343.9
343.594
343.24
342.856
342.457
342.069
341.76
334.174
334.423
334.74
335.066
335.381
335.67
335.921
336.123
336.263
336.336
336.336
336.263
336.123
335.921
335.67
335.381
335.066
334.74
334.423
334.174
326.588
326.779
327.024
327.278
327.524
327.749
327.944
328.101
328.21
328.267
328.267
328.21
328.101
327.944
327.749
327.524
327.278
327.024
326.779
326.588
319.001
319.136
319.311
319.493
319.668
319.829
319.969
320.081
320.159
320.199
320.199
320.159
320.081
319.969
319.829
319.668
319.493
319.311
319.136
319.001
311.414
311.494
311.599
311.708
311.814
311.91
311.994
312.062
312.109
312.133
312.133
312.109
312.062
311.994
311.91
311.814
311.708
311.599
311.494
311.414
303.826
303.853
303.888
303.925
303.96
303.992
304.021
304.043
304.059
304.067
304.067
304.059
304.043
304.021
303.992
303.96
303.925
303.888
303.853
303.826
358.824
359.23
359.718
360.214
360.69
361.125
361.501
361.801
362.01
362.118
362.118
362.01
361.801
361.501
361.125
360.69
360.214
359.718
359.23
358.824
350.974
351.317
351.739
352.169
352.582
352.959
353.286
353.546
353.728
353.821
353.821
353.728
353.546
353.286
352.959
352.582
352.169
351.739
351.317
350.974
343.128
343.412
343.768
344.132
344.482
344.802
345.078
345.299
345.453
345.532
345.532
345.453
345.299
345.078
344.802
344.482
344.132
343.768
343.412
343.128
335.286
335.515
335.805
336.103
336.39
336.652
336.878
337.059
337.185
337.25
337.25
337.185
337.059
336.878
336.652
336.39
336.103
335.805
335.515
335.286
327.447
327.623
327.849
328.081
328.304
328.508
328.684
328.825
328.923
328.974
328.974
328.923
328.825
328.684
328.508
328.304
328.081
327.849
327.623
327.447
319.612
319.737
319.897
320.063
320.223
320.369
320.495
320.596
320.666
320.702
320.702
320.666
320.596
320.495
320.369
320.223
320.063
319.897
319.737
319.612
311.78
311.854
311.95
312.05
312.146
312.234
312.309
312.37
312.412
312.434
312.434
312.412
312.37
312.309
312.234
312.146
312.05
311.95
311.854
311.78
303.949
303.973
304.006
304.039
304.071
304.101
304.126
304.146
304.16
304.168
304.168
304.16
304.146
304.126
304.101
304.071
304.039
304.006
303.973
303.949
360.665
361.04
361.49
361.946
362.381
362.777
363.119
363.39
363.579
363.677
363.677
363.579
363.39
363.119
362.777
362.381
361.946
361.49
361.04
360.665
352.535
352.853
353.242
353.638
354.016
354.36
354.657
354.893
355.058
355.142
355.142
355.058
354.893
354.657
354.36
354.016
353.638
353.242
352.853
352.535
344.423
344.687
345.016
345.351
345.672
345.964
346.216
346.417
346.556
346.628
346.628
346.556
346.417
346.216
345.964
345.672
345.351
345.016
344.687
344.423
336.328
336.541
336.809
337.084
337.347
337.587
337.794
337.958
338.072
338.131
338.131
338.072
337.958
337.794
337.587
337.347
337.084
336.809
336.541
336.328
328.248
328.411
328.619
328.834
329.038
329.225
329.386
329.514
329.604
329.649
329.649
329.604
329.514
329.386
329.225
329.038
328.834
328.619
328.411
328.248
320.178
320.294
320.443
320.596
320.743
320.876
320.991
321.083
321.147
321.18
321.18
321.147
321.083
320.991
320.876
320.743
320.596
320.443
320.294
320.178
312.117
312.186
312.276
312.368
312.456
312.536
312.605
312.661
312.699
312.719
312.719
312.699
312.661
312.605
312.536
312.456
312.368
312.276
312.186
312.117
304.061
304.084
304.114
304.145
304.175
304.202
304.225
304.243
304.256
304.263
304.263
304.256
304.243
304.225
304.202
304.175
304.145
304.114
304.084
304.061
362.119
362.472
362.895
363.323
363.73
364.099
364.417
364.669
364.844
364.934
364.934
364.844
364.669
364.417
364.099
363.73
363.323
362.895
362.472
362.119
353.721
354.02
354.388
354.76
355.115
355.437
355.714
355.935
356.087
356.166
356.166
356.087
355.935
355.714
355.437
355.115
354.76
354.388
354.02
353.721
345.377
345.626
345.937
346.254
346.555
346.83
347.065
347.253
347.383
347.45
347.45
347.383
347.253
347.065
346.83
346.555
346.254
345.937
345.626
345.377
337.077
337.278
337.532
337.792
338.04
338.266
338.459
338.613
338.72
338.775
338.775
338.72
338.613
338.459
338.266
338.04
337.792
337.532
337.278
337.077
328.811
328.966
329.164
329.366
329.56
329.736
329.887
330.007
330.091
330.134
330.134
330.091
330.007
329.887
329.736
329.56
329.366
329.164
328.966
328.811
320.571
320.681
320.822
320.967
321.106
321.232
321.341
321.427
321.487
321.517
321.517
321.487
321.427
321.341
321.232
321.106
320.967
320.822
320.681
320.571
312.35
312.415
312.5
312.587
312.671
312.747
312.812
312.864
312.9
312.918
312.918
312.9
312.864
312.812
312.747
312.671
312.587
312.5
312.415
312.35
304.139
304.16
304.189
304.218
304.246
304.272
304.293
304.311
304.323
304.329
304.329
304.323
304.311
304.293
304.272
304.246
304.218
304.189
304.16
304.139
)
;

boundaryField
{
    hotSide
    {
        type            fixedGradient;
        gradient        nonuniform List<scalar> 
400
(
446.761
447.765
449.784
452.841
456.967
462.2
468.586
476.173
485.013
495.156
506.651
519.544
533.877
549.69
567.014
585.879
606.309
628.322
651.935
677.159
460.649
461.543
463.347
466.089
469.812
474.567
480.414
487.416
495.639
505.146
515.999
528.255
541.966
557.176
573.924
592.242
612.157
633.689
656.854
681.664
475.679
476.442
477.988
480.357
483.604
487.797
493.013
499.335
506.846
515.625
525.751
537.29
550.306
564.849
580.966
598.69
618.05
639.068
661.759
686.132
491.602
492.212
493.459
495.396
498.093
501.641
506.138
511.69
518.4
526.369
535.69
546.445
558.706
572.533
587.975
605.071
623.85
644.334
666.535
690.463
507.972
508.411
509.323
510.774
512.86
515.693
519.398
524.109
529.952
537.05
545.513
555.439
566.91
579.993
594.742
611.198
629.388
649.335
671.049
694.536
524.109
524.363
524.916
525.852
527.288
529.367
532.244
536.078
541.026
547.232
554.825
563.917
574.599
586.946
601.015
616.846
634.469
653.901
675.151
698.22
539.086
539.156
539.352
539.775
540.569
541.905
543.971
546.955
551.039
556.391
563.157
571.462
581.408
593.071
606.513
621.774
638.881
657.849
678.683
701.381
551.798
551.703
551.575
551.538
551.758
552.433
553.78
556.015
559.343
563.953
570.006
577.637
586.954
598.039
610.954
625.738
642.417
661.001
681.493
703.888
561.101
560.878
560.505
560.116
559.898
560.072
560.876
562.548
565.311
569.369
574.893
582.027
590.884
601.549
614.081
628.521
644.892
663.202
683.45
705.629
566.03
565.738
565.23
564.65
564.195
564.098
564.609
565.977
568.437
572.199
577.442
584.312
592.925
603.367
615.698
629.958
646.167
664.333
684.455
706.522
566.03
565.738
565.23
564.65
564.195
564.098
564.609
565.977
568.437
572.199
577.442
584.312
592.925
603.367
615.698
629.958
646.167
664.333
684.455
706.522
561.101
560.878
560.505
560.116
559.898
560.072
560.876
562.548
565.311
569.369
574.893
582.027
590.884
601.549
614.081
628.521
644.892
663.202
683.45
705.629
551.798
551.703
551.575
551.538
551.758
552.433
553.78
556.015
559.343
563.953
570.006
577.637
586.954
598.039
610.954
625.738
642.417
661.001
681.493
703.888
539.086
539.156
539.352
539.775
540.569
541.905
543.971
546.955
551.039
556.391
563.157
571.462
581.408
593.071
606.513
621.774
638.881
657.849
678.683
701.381
524.109
524.363
524.916
525.852
527.288
529.367
532.244
536.078
541.026
547.232
554.825
563.917
574.599
586.946
601.015
616.846
634.469
653.901
675.151
698.22
507.972
508.411
509.323
510.774
512.86
515.693
519.398
524.109
529.952
537.05
545.513
555.439
566.91
579.993
594.742
611.198
629.388
649.335
671.049
694.536
491.602
492.212
493.459
495.396
498.093
501.641
506.138
511.69
518.4
526.369
535.69
546.445
558.706
572.533
587.975
605.071
623.85
644.334
666.535
690.463
475.679
476.442
477.988
480.357
483.604
487.797
493.013
499.335
506.846
515.625
525.751
537.29
550.306
564.849
580.966
598.69
618.05
639.068
661.759
686.132
460.649
461.543
463.347
466.089
469.812
474.567
480.414
487.416
495.639
505.146
515.999
528.255
541.966
557.176
573.924
592.242
612.157
633.689
656.854
681.664
446.761
447.765
449.784
452.841
456.967
462.2
468.586
476.173
485.013
495.156
506.651
519.544
533.877
549.69
567.014
585.879
606.309
628.322
651.935
677.159
)
;
    }
    coldSide
    {
        type            mixed;
        refValue        uniform 300;
        refGradient     uniform 0;
        valueFraction   uniform 0.991591;
        source          uniform 0;
        value           nonuniform List<scalar> 
400
(
300.024
300.024
300.024
300.024
300.025
300.025
300.025
300.026
300.026
300.027
300.027
300.028
300.028
300.029
300.03
300.031
300.032
300.033
300.034
300.035
300.025
300.025
300.025
300.025
300.025
300.025
300.026
300.026
300.026
300.027
300.027
300.028
300.029
300.03
300.03
300.031
300.032
300.033