/*--------------------------------*- C++ -*----------------------------------*\
| =========                 |                                                 |
| \\      /  F ield         | OpenFOAM: The Open Source CFD Toolbox           |
|  \\    /   O peration     | Version:  2212                                  |
|   \\  /    A nd           | Website:  www.openfoam.com                      |
|    \\/     M anipulation  |                                                 |
\*---------------------------------------------------------------------------*/
FoamFile
{
    version     2.0;
    format      ascii;
    arch        "LSB;label=32;scalar=64";
    class       volScalarField;
    location    "./ITHACAoutput/true/7.8";
    object      error;
}
// * * * * * * * * * * * * * * * * * * * * * * * * * * * * * * * * * * * * * //

dimensions      [0 0 0 1 0 0 0];

internalField   nonuniform List<scalar> 
3200
(
0.794429
0.528552
0.241416
0.212196
0.296679
0.576138
0.832161
1.34854
1.62347
1.91839
2.17884
2.31665
2.34818
2.35872
2.41853
2.49065
2.78767
3.09429
3.5816
4.09117
0.68945
0.355866
0.177054
0.0927105
0.243228
0.384244
0.68478
0.965559
1.26718
1.56839
1.74038
1.85955
1.90473
1.84371
1.97299
2.10373
2.30544
2.55222
2.95684
3.45831
0.534337
0.267135
0.0508568
0.0498015
0.14173
0.324196
0.545917
0.782569
1.03543
1.27199
1.35573
1.41504
1.52255
1.52033
1.61584
1.69537
1.87417
2.1129
2.41618
2.80745
0.355806
0.174549
0.0407838
0.0672669
0.100303
0.13797
0.374523
0.563456
0.763949
0.978826
1.09286
1.18517
1.20091
1.17659
1.27117
1.31624
1.46781
1.73854
1.91832
2.25351
0.279482
0.184111
-0.0456454
0.0271341
0.0391014
0.133759
0.179611
0.526243
0.564445
0.738364
0.79646
0.892262
0.897462
0.894771
0.94441
1.00105
1.10708
1.26458
1.46446
1.6805
0.13923
0.0348457
-0.0179574
-0.00623262
-0.0402874
0.118468
0.202443
0.355518
0.426533
0.525531
0.553811
0.618616
0.650041
0.648455
0.618505
0.662134
0.831836
0.878975
1.05305
1.24086
0.146847
0.0352258
0.0204362
-0.018805
0.0394797
0.0258137
0.129218
0.190531
0.276608
0.328115
0.334192
0.328674
0.37931
0.426754
0.403166
0.406601
0.485049
0.489363
0.619793
0.761137
0.0330119
0.019819
-0.0165772
0.0049439
0.0101553
0.0141908
0.0868734
0.062941
0.0793457
0.0777792
0.0724714
0.148128
0.105438
0.116105
0.110724
0.126183
0.169427
0.140494
0.158421
0.258247
-0.104012
-0.513137
-0.69873
-0.753507
-0.742453
-0.536115
-0.173471
0.219171
0.530872
0.802506
0.953676
1.12792
1.29224
1.29972
1.40844
1.58308
1.78226
2.24322
2.64187
3.26717
-0.0847922
-0.466344
-0.636948
-0.669547
-0.669118
-0.504868
-0.238763
0.154651
0.418056
0.695618
0.858451
0.980848
1.00873
1.03619
1.13122
1.27357
1.54122
1.82691
2.24403
2.76895
-0.139885
-0.306286
-0.588241
-0.594506
-0.640592
-0.442659
-0.177682
0.00722564
0.296772
0.589958
0.630663
0.766268
0.902349
0.831188
0.925335
1.0026
1.21621
1.49104
1.89807
2.28889
-0.079615
-0.248086
-0.499672
-0.476489
-0.510677
-0.3443
-0.195077
-0.0277941
0.238456
0.484516
0.558327
0.685484
0.616562
0.611312
0.764466
0.828368
1.02418
1.22958
1.49828
1.74955
-0.0980275
-0.319757
-0.306127
-0.409665
-0.393752
-0.221562
-0.160099
0.0232725
0.198347
0.303616
0.404505
0.43502
0.553295
0.500977
0.60611
0.616572
0.743481
0.915894
1.11971
1.41251
-0.0770184
-0.137101
-0.208986
-0.315657
-0.284794
-0.14688
-0.120234
0.0265215
0.13837
0.258612
0.307823
0.351273
0.329513
0.370566
0.456742
0.391768
0.513694
0.64552
0.7768
0.947488
0.00984492
-0.0824418
-0.100329
-0.170592
-0.22354
-0.0478611
-0.0233958
0.0418228
0.10991
0.0818311
0.17487
0.177012
0.198334
0.1357
0.223859
0.257178
0.320771
0.427389
0.461454
0.618518
-0.00598232
-0.0522193
-0.0627727
-0.0856496
-0.0612291
-0.0332108
0.0158987
-0.0494266
-0.0231354
0.0250965
0.0548906
0.0950692
0.00202283
0.135231
0.0808317
0.0819723
0.0299833
0.0747357
0.167056
0.146956
-1.23719
-1.65292
-1.92373
-2.02129
-2.002
-1.83441
-1.56266
-1.23155
-0.8136
-0.590037
-0.345503
-0.150198
-0.0574958
0.0171103
0.17318
0.357499
0.608085
1.11047
1.67264
2.3065
-1.14123
-1.38453
-1.65873
-1.78853
-1.74484
-1.53817
-1.37678
-0.986023
-0.750576
-0.48345
-0.286315
-0.155114
-0.0713278
-0.0279953
0.141565
0.25391
0.52183
0.893097
1.4312
1.87004
-0.846875
-1.20963
-1.36597
-1.44345
-1.40975
-1.31389
-1.04999
-0.854146
-0.633332
-0.462193
-0.19527
-0.113981
-0.0808634
-0.0507015
0.048527
0.202816
0.398883
0.688988
1.11731
1.46162
-0.7038
-0.885707
-1.05942
-1.16273
-1.21277
-1.08875
-0.897937
-0.740032
-0.499019
-0.310861
-0.261748
-0.22921
-0.0472305
-0.0481919
0.0891833
0.210184
0.347282
0.574878
0.929017
1.20732
-0.589501
-0.728879
-0.8083
-0.973869
-0.904128
-0.847528
-0.701324
-0.547344
-0.415313
-0.320775
-0.15528
-0.109268
-0.0383823
-0.0060816
-0.0650161
0.106778
0.215294
0.392864
0.766694
0.971956
-0.396516
-0.408288
-0.63106
-0.61269
-0.669121
-0.567708
-0.473567
-0.341023
-0.323352
-0.221877
-0.127155
-0.149497
0.0297513
-0.0309616
-0.0721315
-0.0531947
0.125885
0.311785
0.425854
0.69631
-0.28863
-0.266351
-0.308611
-0.341345
-0.399038
-0.450857
-0.270958
-0.244012
-0.135079
-0.137329
-0.0759523
-0.0711181
-0.0724928
0.0127932
-0.0498057
0.0406542
0.0694389
0.165262
0.265956
0.427564
-0.0569198
-0.0506553
-0.125048
-0.153363
-0.089971
-0.103852
-0.0671729
-0.0654295
-0.0437916
-0.0396279
-0.0764547
-0.0596573
-0.0551799
-0.0259094
0.0567822
0.0167799
0.008306
0.00953107
0.12814
0.193043
-2.21664
-2.7167
-2.97132
-3.22883
-3.18806
-3.08738
-2.77475
-2.44557
-2.17977
-1.95699
-1.71876
-1.50654
-1.354
-1.13269
-1.05087
-0.876688
-0.465299
0.161032
0.713871
1.35292
-1.84371
-2.26125
-2.62266
-2.70644
-2.79245
-2.66963
-2.4354
-2.20345
-1.83986
-1.70118
-1.44537
-1.33794
-1.23523
-1.12853
-0.909923
-0.779024
-0.426609
0.0639973
0.54164
1.09128
-1.65685
-1.84802
-2.18678
-2.35934
-2.34871
-2.2274
-2.02304
-1.86314
-1.62688
-1.40158
-1.21179
-1.09811
-0.994244
-0.912122
-0.808692
-0.588944
-0.404281
-0.00972769
0.424265
0.925555
-1.28658
-1.51435
-1.67858
-1.88988
-1.91544
-1.84122
-1.67153
-1.47588
-1.32379
-1.17628
-1.05856
-0.921896
-0.833668
-0.768592
-0.681772
-0.595631
-0.344649
0.0665268
0.390547
0.739327
-1.00037
-1.15927
-1.35663
-1.43157
-1.45097
-1.33302
-1.26848
-1.13589
-1.00975
-0.940226
-0.821597
-0.748683
-0.668846
-0.57748
-0.479031
-0.487538
-0.212936
-0.0932049
0.279666
0.557932
-0.690979
-0.911939
-0.924084
-1.04901
-1.0735
-0.983165
-0.912912
-0.793648
-0.688435
-0.667934
-0.583996
-0.476344
-0.464559
-0.448807
-0.382002
-0.33225
-0.211233
0.0408296
0.213895
0.403935
-0.447303
-0.460327
-0.57601
-0.567617
-0.690091
-0.598643
-0.558046
-0.49908
-0.394088
-0.481257
-0.3209
-0.343988
-0.271744
-0.295216
-0.229229
-0.180524
-0.0838024
-0.00595065
0.0803915
0.25749
-0.134365
-0.165823
-0.260607
-0.240649
-0.220917
-0.264119
-0.135571
-0.130145
-0.0629617
-0.14015
-0.0664504
-0.112324
-0.0391579
-0.0548928
-0.0672491
-0.0837019
-0.0123783
0.0442627
0.00118558
0.0618955
-3.11878
-3.56159
-3.93282
-4.26806
-4.29965
-4.19823
-3.96459
-3.7574
-3.49229
-3.1258
-2.90921
-2.71404
-2.56396
-2.31419
-2.15565
-1.83732
-1.39536
-0.81616
-0.207159
0.590408
-2.71193
-3.03431
-3.39912
-3.655
-3.66729
-3.59253
-3.4068
-3.24928
-2.99709
-2.76688
-2.52825
-2.35466
-2.16145
-2.05717
-1.85382
-1.66146
-1.21619
-0.731767
-0.196178
0.434688
-2.27625
-2.53853
-2.88114
-3.02365
-3.06361
-3.06012
-2.90603
-2.70692
-2.57422
-2.31437
-2.17394
-2.05887
-1.83911
-1.7213
-1.59022
-1.33317
-1.04833
-0.64416
-0.193703
0.282168
-1.81856
-2.07559
-2.29403
-2.43475
-2.52083
-2.41906
-2.3261
-2.20257
-2.1482
-1.91253
-1.79904
-1.59024
-1.5595
-1.47181
-1.27519
-1.18223
-0.880809
-0.513681
-0.15417
0.253461
-1.39726
-1.57821
-1.74966
-1.95439
-1.90908
-1.87053
-1.82797
-1.75803
-1.61126
-1.44421
-1.37605
-1.23798
-1.28302
-1.16169
-1.05173
-0.920973
-0.726781
-0.435681
-0.192541
0.124859
-1.03272
-1.10409
-1.30505
-1.34016
-1.45494
-1.3622
-1.2343
-1.23503
-1.17316
-1.03802
-1.01848
-0.945467
-0.823705
-0.804587
-0.754739
-0.620876
-0.474175
-0.300225
-0.0441221
0.099065
-0.558666
-0.663292
-0.697604
-0.876196
-0.832871
-0.798534
-0.749207
-0.721677
-0.620809
-0.646475
-0.573723
-0.567027
-0.535528
-0.485798
-0.494167
-0.406534
-0.315063
-0.273821
-0.0323033
0.0888806
-0.181697
-0.15868
-0.197782
-0.305785
-0.260236
-0.214745
-0.246439
-0.289739
-0.228139
-0.26088
-0.207386
-0.19007
-0.216375
-0.154334
-0.157504
-0.136793
-0.0857852
-0.0640494
-0.00339793
0.0725028
-3.76439
-4.26694
-4.83304
-5.07178
-5.20121
-5.11552
-4.97135
-4.74739
-4.57025
-4.22207
-3.92667
-3.74537
-3.5261
-3.39274
-3.0149
-2.65359
-2.10478
-1.52346
-0.700926
0.0739873
-3.2314
-3.67349
-4.14025
-4.30182
-4.46254
-4.37997
-4.28803
-4.12253
-3.8595
-3.64766
-3.44331
-3.32006
-3.0516
-2.90667
-2.58083
-2.29831
-1.89709
-1.2387
-0.636973
-0.0131104
-2.73779
-3.06082
-3.44733
-3.61487
-3.75958
-3.71669
-3.59137
-3.51161
-3.25255
-3.05834
-2.90169
-2.7705
-2.64747
-2.44279
-2.28821
-2.00582
-1.54775
-1.16244
-0.544838
-0.0508382
-2.24922
-2.52014
-2.79504
-2.91354
-3.02998
-2.9117
-2.92654
-2.83824
-2.69171
-2.59949
-2.42586
-2.3013
-2.10299
-2.02046
-1.86451
-1.60585
-1.41178
-0.904706
-0.51494
-0.121127
-1.7027
-1.94362
-2.14802
-2.30798
-2.34342
-2.32122
-2.26191
-2.24434
-2.06635
-1.96299
-1.86883
-1.7736
-1.69172
-1.59199
-1.3785
-1.2688
-1.01085
-0.770355
-0.457693
-0.0610214
-1.19755
-1.36312
-1.54961
-1.61972
-1.61591
-1.69001
-1.67158
-1.49198
-1.43706
-1.46211
-1.32336
-1.25886
-1.19589
-1.10275
-1.05295
-0.882529
-0.801348
-0.577528
-0.300562
-0.0825902
-0.73588
-0.765416
-0.920523
-0.980765
-1.03009
-1.01366
-0.955251
-0.945776
-0.83304
-0.844951
-0.799433
-0.798938
-0.76775
-0.65206
-0.640147
-0.50863
-0.447418
-0.262254
-0.276548
0.014657
-0.275429
-0.271311
-0.273648
-0.275093
-0.346851
-0.376742
-0.320612
-0.320602
-0.306078
-0.244164
-0.243518
-0.20592
-0.255754
-0.260361
-0.137564
-0.119297
-0.199775
-0.0616468
-0.0839064
-0.0116202
-4.16539
-4.75934
-5.29565
-5.65815
-5.80853
-5.85925
-5.84655
-5.5582
-5.36234
-5.17606
-4.81477
-4.61134
-4.32258
-4.07299
-3.74949
-3.23502
-2.66593
-1.95704
-1.1388
-0.280923
-3.61283
-4.06664
-4.48219
-4.86325
-5.06693
-5.03418
-5.02608
-4.815
-4.60333
-4.4373
-4.21357
-3.94177
-3.76507
-3.55895
-3.24251
-2.85106
-2.29821
-1.70194
-0.968367
-0.312931
-3.06544
-3.37655
-3.81652
-4.07269
-4.2719
-4.27683
-4.18578
-4.07353
-3.91619
-3.69463
-3.59043
-3.37981
-3.25991
-2.96794
-2.64452
-2.42847
-1.9707
-1.4675
-0.815182
-0.293236
-2.43624
-2.68329
-3.06267
-3.26284
-3.44856
-3.3968
-3.40892
-3.29929
-3.20924
-3.04029
-2.83984
-2.78168
-2.66542
-2.45217
-2.23948
-1.96029
-1.63169
-1.28929
-0.716364
-0.281048
-1.92788
-2.1588
-2.31073
-2.52246
-2.6416
-2.67456
-2.67364
-2.54365
-2.48603
-2.32691
-2.3008
-2.09248
-2.04309
-1.91683
-1.71412
-1.50466
-1.32517
-0.958783
-0.574921
-0.189292
-1.34006
-1.52374
-1.70035
-1.76694
-1.86616
-1.87253
-1.95811
-1.83583
-1.81516
-1.64204
-1.56103
-1.53531
-1.45331
-1.29466
-1.20359
-1.17856
-0.934205
-0.69005
-0.340649
-0.11631
-0.80298
-0.843558
-1.04288
-1.11192
-1.05965
-1.15177
-1.14119
-1.08782
-1.05035
-0.976426
-0.923114
-0.88673
-0.989552
-0.823029
-0.751712
-0.660758
-0.529369
-0.365878
-0.276887
-0.108702
-0.26737
-0.316052
-0.358693
-0.366703
-0.347831
-0.41525
-0.402347
-0.332928
-0.402299
-0.316235
-0.294262
-0.271151
-0.256912
-0.300682
-0.231365
-0.194584
-0.207122
-0.122299
-0.0985773
-0.0289013
-4.36085
-4.98013
-5.58692
-5.98524
-6.29797
-6.36286
-6.2774
-6.22004
-5.90601
-5.65632
-5.40725
-5.16932
-4.93463
-4.5316
-4.07833
-3.62748
-2.99409
-2.13525
-1.19888
-0.323183
-3.75309
-4.20773
-4.75579
-5.13392
-5.41612
-5.45205
-5.44842
-5.32736
-5.15786
-4.94005
-4.68883
-4.47996
-4.25107
-3.96154
-3.62353
-3.18093
-2.58132
-1.87204
-1.12779
-0.37698
-3.14841
-3.62947
-4.05884
-4.36868
-4.47992
-4.60238
-4.54268
-4.46239
-4.41758
-4.1931
-3.97727
-3.82964
-3.60774
-3.34996
-2.99203
-2.6931
-2.20219
-1.60853
-0.967993
-0.347786
-2.47414
-2.86898
-3.319
-3.53816
-3.69161
-3.74091
-3.75679
-3.62377
-3.53975
-3.39849
-3.27294
-3.1681
-2.94669
-2.78369
-2.51364
-2.22579
-1.74214
-1.34669
-0.874528
-0.352113
-1.90985
-2.26734
-2.5042
-2.69659
-2.85366
-2.89189
-2.84691
-2.82889
-2.69733
-2.63647
-2.54456
-2.39709
-2.29255
-2.15861
-1.97921
-1.71309
-1.40922
-1.05666
-0.646024
-0.298614
-1.36215
-1.60921
-1.8012
-1.91257
-1.96089
-2.08342
-2.08674
-1.98733
-1.97984
-1.88683
-1.84919
-1.72377
-1.57419
-1.5556
-1.37203
-1.22662
-0.993921
-0.719387
-0.410895
-0.196432
-0.832728
-0.859581
-1.09966
-1.12098
-1.17171
-1.27013
-1.17664
-1.21759
-1.17225
-1.07293
-1.14665
-1.07569
-0.97599
-0.942501
-0.886644
-0.716144
-0.592553
-0.368613
-0.212801
-0.0870404
-0.30355
-0.333748
-0.325399
-0.412983
-0.366174
-0.380655
-0.444329
-0.365064
-0.421355
-0.387305
-0.282283
-0.357793
-0.301522
-0.264445
-0.302042
-0.306237
-0.304992
-0.0743676
-0.0824861
-0.0561252
-4.27772
-4.97933
-5.64381
-6.07834
-6.45166
-6.5439
-6.66645
-6.47088
-6.37739
-6.10569
-5.76235
-5.52765
-5.11229
-4.81227
-4.32705
-3.75417
-2.95224
-2.11685
-1.13586
-0.216306
-3.69218
-4.23936
-4.77423
-5.19529
-5.48732
-5.72331
-5.61747
-5.5914
-5.43394
-5.35351
-5.03298
-4.83255
-4.50404
-4.16424
-3.77916
-3.24605
-2.58647
-1.83061
-1.04844
-0.197269
-3.02667
-3.50884
-3.96031
-4.3914
-4.59053
-4.81643
-4.73284
-4.67816
-4.59231
-4.52599
-4.34416
-4.1416
-3.80955
-3.50176
-3.13783
-2.72615
-2.21716
-1.55048
-0.82746
-0.275049
-2.53145
-2.87462
-3.2549
-3.50839
-3.75928
-3.81762
-3.9168
-3.85906
-3.75585
-3.69862
-3.47931
-3.2425
-3.10013
-2.88417
-2.57677
-2.22617
-1.78255
-1.28348
-0.743918
-0.2446
-2.01015
-2.21945
-2.45556
-2.76694
-2.96392
-2.96213
-3.01896
-2.98497
-2.89036
-2.79604
-2.77536
-2.50203
-2.41666
-2.21898
-1.97777
-1.72793
-1.42869
-0.991267
-0.601499
-0.159141
-1.37766
-1.56264
-1.78464
-1.95363
-2.04833
-2.14071
-2.16198
-2.1051
-2.04793
-2.01729
-1.90517
-1.84591
-1.64666
-1.65426
-1.43207
-1.23691
-0.948938
-0.744742
-0.447683
-0.121308
-0.854593
-0.903748
-1.08276
-1.2135
-1.15837
-1.29821
-1.31188
-1.23324
-1.23399
-1.18179
-1.15477
-1.12337
-1.07082
-0.950618
-0.878145
-0.768263
-0.537283
-0.372039
-0.278061
-0.0361639
-0.253296
-0.256459
-0.390573
-0.407448
-0.458183
-0.408229
-0.405117
-0.446425
-0.391254
-0.434322
-0.384528
-0.400248
-0.406071
-0.377145
-0.354378
-0.263274
-0.20303
-0.0922699
-0.0326207
-0.0475249
-3.91176
-4.62019
-5.38186
-5.93391
-6.30362
-6.56946
-6.54799
-6.52371
-6.41533
-6.2288
-5.93956
-5.54515
-5.20345
-4.76425
-4.1442
-3.51562
-2.73309
-1.80366
-0.755378
0.232392
-3.38665
-3.95024
-4.53284
-5.06005
-5.4381
-5.60732
-5.6516
-5.68544
-5.52252
-5.37573
-5.12531
-4.87354
-4.57121
-4.09497
-3.6545
-3.06306
-2.39549
-1.51158
-0.663399
0.206197
-2.81211
-3.24649
-3.84994
-4.2096
-4.52355
-4.67885
-4.71882
-4.75559
-4.61516
-4.48254
-4.25803
-4.08449
-3.79051
-3.44301
-3.05192
-2.60273
-1.97803
-1.26903
-0.630369
0.0580398
-2.28712
-2.65346
-3.02979
-3.43989
-3.69058
-3.83574
-3.86779
-3.82249
-3.80537
-3.67463
-3.5163
-3.37203
-3.09245
-2.84479
-2.57205
-2.16092
-1.68902
-1.10587
-0.508352
0.070707
-1.79819
-1.99771
-2.44022
-2.68989
-2.90905
-2.96007
-2.94588
-3.06961
-2.9258
-2.80147
-2.69117
-2.61069
-2.43298
-2.12474
-1.92887
-1.64432
-1.30045
-0.839471
-0.361848
-0.0321084
-1.1552
-1.4607
-1.68896
-1.91211
-1.96497
-2.0867
-2.13741
-2.11348
-2.0944
-2.02798
-1.97337
-1.89886
-1.72637
-1.62818
-1.46895
-1.1527
-0.915401
-0.617041
-0.323064
0.0221886
-0.688534
-0.831784
-1.07239
-1.04297
-1.17898
-1.27294
-1.31385
-1.23333
-1.28954
-1.25829
-1.21586
-1.10999
-1.00372
-0.933479
-0.843453
-0.727674
-0.573754
-0.275058
-0.170177
-0.0484118
-0.327901
-0.315299
-0.294353
-0.381492
-0.417104
-0.387039
-0.411265
-0.423927
-0.368355
-0.350711
-0.369246
-0.423974
-0.358673
-0.319476
-0.216437
-0.160162
-0.146064
-0.107291
-0.0745308
-0.0210761
-3.22516
-4.03626
-4.7768
-5.40266
-5.8497
-6.1385
-6.29947
-6.26615
-6.17432
-5.95605
-5.68733
-5.37272
-4.895
-4.36656
-3.75589
-3.03706
-2.19025
-1.18842
-0.10741
0.962402
-2.76725
-3.39725
-4.06746
-4.65079
-5.00992
-5.26532
-5.36983
-5.41863
-5.32199
-5.1017
-4.9715
-4.62935
-4.28911
-3.82097
-3.32425
-2.69355
-1.94117
-1.03135
-0.047952
0.799845
-2.35915
-2.8942
-3.46279
-3.84967
-4.24705
-4.37907
-4.59675
-4.5891
-4.43442
-4.35662
-4.12215
-3.92378
-3.53068
-3.18308
-2.78591
-2.30715
-1.60659
-0.900751
-0.11288
0.654409
-1.90577
-2.35334
-2.78705
-3.12396
-3.37
-3.58837
-3.70776
-3.7396
-3.68755
-3.58338
-3.40427
-3.25799
-3.01523
-2.6109
-2.23163
-1.86591
-1.28297
-0.760547
-0.0642995
0.509843
-1.41564
-1.79468
-2.05124
-2.47346
-2.60355
-2.73393
-2.88492
-2.86433
-2.80287
-2.77679
-2.57909
-2.37032
-2.32119
-2.05675
-1.74954
-1.43261
-1.05748
-0.591187
-0.0546677
0.375797
-1.01607
-1.27952
-1.48703
-1.74112
-1.90656
-2.00537
-2.03533
-2.03975
-1.98008
-2.02893
-1.83243
-1.75191
-1.61336
-1.41456
-1.27427
-0.924256
-0.757015
-0.4599
-0.0699274
0.211045
-0.544104
-0.723609
-0.881653
-1.02878
-1.14323
-1.1501
-1.20042
-1.17764
-1.20298
-1.12345
-1.1423
-1.06167
-0.938654
-0.825955
-0.793248
-0.545534
-0.431896
-0.278984
-0.036907
0.164659
-0.218369
-0.217172
-0.297386
-0.343226
-0.364067
-0.358279
-0.420591
-0.393004
-0.365075
-0.41961
-0.366295
-0.334889
-0.331554
-0.327431
-0.280437
-0.23852
-0.147858
-0.109442
-0.0892541
0.019343
-2.2371
-3.14194
-3.91574
-4.73536
-5.08099
-5.56088
-5.69859
-5.6923
-5.66772
-5.42351
-5.15878
-4.80657
-4.3255
-3.8252
-3.0752
-2.28229
-1.39925
-0.271115
0.897132
1.88293
-1.92116
-2.67788
-3.34028
-3.96234
-4.45142
-4.71826
-4.85445
-4.93054
-4.86295
-4.67196
-4.5347
-4.22425
-3.78766
-3.24937
-2.6902
-2.03014
-1.1755
-0.253236
0.699526
1.67872
-1.57838
-2.18998
-2.77302
-3.33941
-3.65889
-3.94607
-4.07768
-4.09733
-4.0536
-3.94784
-3.80777
-3.51461
-3.21351
-2.71804
-2.32759
-1.70574
-0.999262
-0.235777
0.591501
1.35722
-1.28864
-1.68478
-2.18692
-2.69072
-3.02357
-3.19344
-3.32436
-3.33373
-3.32693
-3.23554
-3.08632
-2.94331
-2.582
-2.28911
-1.89408
-1.36543
-0.866218
-0.185961
0.457621
1.15446
-0.963435
-1.35645
-1.71864
-2.10752
-2.27513
-2.43341
-2.61009
-2.59325
-2.5119
-2.44453
-2.36197
-2.28825
-1.97283
-1.77412
-1.39847
-1.12762
-0.620262
-0.160801
0.492317
0.866684
-0.67206
-0.889723
-1.23704
-1.50481
-1.67399
-1.70248
-1.80843
-1.82055
-1.91574
-1.74752
-1.72463
-1.56271
-1.43439
-1.27797
-1.04691
-0.830287
-0.50493
-0.118502
0.242847
0.590275
-0.451089
-0.574818
-0.738778
-0.876078
-1.03818
-1.05298
-1.03664
-1.13095
-1.13031
-1.06881
-0.978815
-0.872408
-0.865447
-0.732506
-0.618192
-0.448738
-0.164496
-0.0786644
0.193827
0.359218
-0.146447
-0.213198
-0.302656
-0.249964
-0.375953
-0.350289
-0.3884
-0.406339
-0.403388
-0.413193
-0.362266
-0.345983
-0.314855
-0.242462
-0.238014
-0.179774
-0.0520657
-0.0357573
0.067129
0.170064
-1.04081
-1.94243
-2.84892
-3.61539
-4.13829
-4.60622
-4.78107
-4.82518
-4.75119
-4.64582
-4.33778
-3.894
-3.40139
-2.7915
-2.12334
-1.25047
-0.240996
0.820329
2.16855
3.2252
-0.856107
-1.63072
-2.36837
-3.11119
-3.52807
-3.89587
-4.06433
-4.11576
-4.12366
-3.93571
-3.78127
-3.34089
-3.0088
-2.50547
-1.8496
-1.0805
-0.266726
0.763542
1.80858
2.66784
-0.654246
-1.29583
-1.97227
-2.52451
-2.93731
-3.22894
-3.45708
-3.50571
-3.49285
-3.37322
-3.17237
-2.8802
-2.4437
-2.06593
-1.56547
-0.885299
-0.200425
0.587651
1.43843
2.27737
-0.535447
-0.972409
-1.5447
-1.9708
-2.37732
-2.62649
-2.77247
-2.78312
-2.83313
-2.72201
-2.5268
-2.35538
-2.03795
-1.62691
-1.18427
-0.766201
-0.1753
0.498402
1.2077
1.78712
-0.39141
-0.820729
-1.21265
-1.53325
-1.85839
-1.94418
-2.11637
-2.17832
-2.16043
-2.09934
-1.99784
-1.77636
-1.63838
-1.34006
-1.01213
-0.56165
-0.150444
0.418805
0.995841
1.39761
-0.27174
-0.549502
-0.740845
-1.07537
-1.25605
-1.48237
-1.46519
-1.56521
-1.54893
-1.51651
-1.35463
-1.27087
-1.07521
-0.871918
-0.618391
-0.42221
-0.0520473
0.283426
0.681909
1.03304
-0.187728
-0.267085
-0.530266
-0.626823
-0.758409
-0.851505
-0.935811
-0.956927
-0.918026
-0.911352
-0.795841
-0.7986
-0.711761
-0.577453
-0.442271
-0.229246
-0.0620924
0.203775
0.378388
0.523597
-0.0792258
-0.160644
-0.155531
-0.222407
-0.219542
-0.281641
-0.283399
-0.308329
-0.25903
-0.340476
-0.227093
-0.246327
-0.217876
-0.184416
-0.229449
-0.0871758
-0.00383946
0.112002
0.184503
0.197804
0.456589
-0.390313
-1.40322
-2.14421
-2.8419
-3.23672
-3.52019
-3.6816
-3.55028
-3.42329
-3.10361
-2.81901
-2.27197
-1.55484
-0.84115
0.0725712
1.16562
2.42888
3.65309
4.82723
0.468084
-0.307009
-1.15281
-1.8191
-2.38504
-2.81115
-2.90445
-3.13116
-3.07798
-2.96961
-2.72913
-2.34202
-1.91114
-1.35688
-0.702415
0.105555
0.950934
1.98841
3.15306
4.13671
0.413462
-0.223799
-0.946664
-1.48302
-1.98234
-2.31681
-2.49974
-2.6197
-2.59223
-2.47145
-2.22064
-1.85793
-1.59833
-1.14081
-0.561135
0.141185
0.848085
1.73912
2.68861
3.47069
0.398721
-0.0671255
-0.711535
-1.16195
-1.62317
-1.85303
-2.02142
-2.16333
-2.04545
-2.00792
-1.76419
-1.6339
-1.27175
-0.910273
-0.415924
0.0551937
0.657297
1.41817
2.20939
2.8514
0.306209
-0.0987823
-0.466894
-0.859212
-1.25471
-1.51917
-1.51106
-1.58516
-1.64136
-1.59833
-1.43296
-1.23319
-0.992674
-0.717019
-0.395337
0.087644
0.58978
1.06294
1.65974
2.15248
0.252478
-0.00354344
-0.362079
-0.675274
-0.867564
-1.02072
-1.0683
-1.16661
-1.13046
-1.11009
-0.999272
-0.829176
-0.700826
-0.556469
-0.283846
0.0315821
0.404769
0.82407
1.22188
1.54497
0.180325
-0.0886098
-0.279702
-0.305163
-0.495561
-0.545345
-0.639583
-0.710959
-0.605617
-0.639422
-0.580348
-0.511502
-0.418377
-0.308101
-0.136431
0.00370587
0.273523
0.498379
0.756173
0.963267
0.0228323
-0.0222313
-0.0928449
-0.133663
-0.146035
-0.231601
-0.235253
-0.19426
-0.231761
-0.268917
-0.239316
-0.190071
-0.0888194
-0.0820027
-0.100009
-0.0401013
0.0496655
0.218834
0.201946
0.258405
2.31812
1.39307
0.350616
-0.443377
-1.15728
-1.63097
-1.97504
-2.11092
-2.06771
-1.96115
-1.74468
-1.29648
-0.642352
-0.0231588
0.791247
1.77904
2.87377
4.13255
5.51777
6.6985
2.16601
1.32991
0.397155
-0.333053
-0.985706
-1.36756
-1.6474
-1.80009
-1.77744
-1.66569
-1.34829
-1.01024
-0.544117
-0.0117142
0.687898
1.50961
2.5007
3.61479
4.72699
5.7702
1.82526
1.13984
0.455991
-0.163965
-0.709772
-1.10605
-1.3623
-1.45202
-1.52945
-1.35358
-1.17085
-0.863763
-0.488722
0.0129022
0.647704
1.32558
2.12498
3.03605
4.01024
4.84213
1.52721
0.992318
0.429548
-0.167386
-0.620225
-0.886206
-1.12462
-1.12634
-1.20614
-1.09967
-0.872956
-0.680566
-0.32028
0.097508
0.431751
1.07467
1.78033
2.48418
3.32123
3.9661
1.18891
0.741755
0.219788
-0.12108
-0.455667
-0.679832
-0.801252
-0.973149
-0.899079
-0.844531
-0.744192
-0.575136
-0.250524
0.0550617
0.462142
0.782878
1.37722
1.8998
2.5383
3.02242
0.869521
0.551832
0.199374
-0.0294062
-0.287272
-0.459242
-0.572935
-0.587963
-0.61197
-0.577067
-0.562914
-0.3697
-0.217297
-0.029311
0.283491
0.615708
0.973872
1.36806
1.85671
2.1483
0.502518
0.337578
0.236364
-0.0150674
-0.184627
-0.302764
-0.313546
-0.39614
-0.393434
-0.310491
-0.282193
-0.212087
-0.102581
0.00768566
0.164655
0.350954
0.629575
0.851895
1.0828
1.25396
0.148789
0.12532
0.0664533
0.0417187
-0.0264015
-0.118388
-0.0996785
-0.0901282
-0.113336
-0.115167
-0.115281
-0.122821
-0.0876725
-0.0263286
0.088316
0.143885
0.156458
0.29206
0.370827
0.455451
4.42668
3.53832
2.46053
1.57934
0.866224
0.295922
-0.0306276
-0.207125
-0.246965
-0.0585869
0.124224
0.59067
1.18394
1.9427
2.72028
3.78192
4.94332
6.2445
7.62846
8.90905
3.94709
3.1045
2.24893
1.38949
0.778187
0.306591
0.012523
-0.143883
-0.158495
-0.0910989
0.1619
0.521861
1.06022
1.72546
2.36948
3.28248
4.36015
5.38657
6.57587
7.75393
3.35285
2.67799
1.92789
1.19873
0.727779
0.26845
0.0398402
-0.111139
-0.0824528
0.0423218
0.208061
0.540767
0.936321
1.48561
2.04047
2.7371
3.66376
4.54538
5.54949
6.38784
2.84328
2.24876
1.6276
0.998773
0.619857
0.259903
0.0764896
-0.0137628
-0.0974864
-0.0900471
0.176955
0.37277
0.66689
1.10613
1.6931
2.26114
2.89444
3.72934
4.58417
5.27477
2.19781
1.77193
1.29731
0.814538
0.463976
0.228451
0.0372995
-0.00330391
-0.0405196
-0.0483741
0.176296
0.283653
0.523432
0.918421
1.36671
1.82621
2.3171
2.87618
3.58239
4.05783
1.59285
1.30157
0.956971
0.63698
0.354448
0.139847
0.085676
-0.0542149
0.0346374
0.00684388
0.120331
0.222576
0.397965
0.636011
1.01159
1.22506
1.65888
2.19773
2.52017
2.90898
0.902079
0.755397
0.583398
0.305488
0.197875
0.101519
0.0438864
0.029216
0.0305266
-0.0178672
0.0570783
0.111359
0.230014
0.344984
0.650945
0.764333
0.987359
1.26508
1.52877
1.66236
0.298776
0.238473
0.197488
0.0855167
0.0916507
0.0438308
0.05806
0.0387937
0.00462287
-0.0239101
0.0132903
0.0418547
0.0432358
0.188688
0.14707
0.231087
0.371605
0.422224
0.518336
0.588675
6.92545
5.8162
4.76648
3.8609
3.10927
2.46479
2.03047
1.87216
1.86716
1.98838
2.31399
2.69486
3.38166
4.09915
5.01497
6.05689
7.27809
8.623
10.0036
11.2819
5.99715
5.15178
4.16643
3.43749
2.70915
2.20214
1.84279
1.70561
1.66714
1.80573
2.01265
2.41479
2.87245
3.57049
4.3617
5.29814
6.27456
7.45362
8.69166
9.83122
5.13751
4.39654
3.63339
2.97813
2.32246
1.91827
1.65503
1.44038
1.46429
1.60327
1.74023
2.10579
2.47585
2.99722
3.67643
4.48407
5.30129
6.40142
7.32236
8.23938
4.25913
3.66943
3.01823
2.3711
1.98883
1.62925
1.40914
1.2654
1.24364
1.27478
1.46141
1.70332
2.08046
2.47552
2.99977
3.58664
4.35955
5.15164
6.0496
6.72219
3.23966
2.88015
2.33701
1.91331
1.55944
1.27416
1.05327
0.990202
0.967299
1.00887
1.17125
1.36517
1.6045
1.97506
2.35433
2.7945
3.38786
3.97534
4.54479
5.20452
2.36218
2.14232
1.6846
1.34774
1.11827
0.92496
0.775671
0.719603
0.722868
0.714763
0.858798
0.994281
1.12114
1.37337
1.66148
2.03694
2.43066
2.86443
3.26383
3.72943
1.3946
1.21481
1.08773
0.792749
0.620147
0.587741
0.428163
0.507708
0.415176
0.400147
0.486678
0.557134
0.659053
0.842591
1.00713
1.18796
1.48072
1.76703
1.98434
2.25426
0.452099
0.459159
0.375399
0.284363
0.203318
0.223905
0.18812
0.127263
0.118946
0.224182
0.139006
0.168816
0.194302
0.278769
0.291497
0.339794
0.508855
0.622846
0.686389
0.746726
9.49398
8.46678
7.32531
6.36024
5.54075
4.91462
4.53398
4.32999
4.2371
4.3551
4.75173
5.12254
5.74713
6.51775
7.43945
8.5725
9.82156
11.1768
12.5762
13.9205
8.29993
7.35098
6.46274
5.59114
4.87832
4.27424
3.9342
3.77214
3.81635
3.75791
4.06785
4.43871
5.03495
5.66668
6.44177
7.41121
8.44467
9.64023
10.9079
12.069
6.99377
6.23157
5.37927
4.72731
4.13849
3.71683
3.38436
3.17561
3.15425
3.21834
3.46709
3.77639
4.21419
4.7526
5.44785
6.2956
7.11614
8.12347
9.21282
10.113
5.74131
5.14709
4.47528
3.92965
3.3834
2.96226
2.83071
2.61525
2.58148
2.63556
2.84077
3.14599
3.45258
3.87547
4.42229
5.06515
5.77998
6.62817
7.53727
8.24529
4.50003
4.00747
3.49846
3.02424
2.68338
2.38576
2.14143
2.06109
2.05017
2.05557
2.16249
2.41914
2.65726
3.04864
3.45412
3.9723
4.58839
5.18721
5.86616
6.37265
3.20795
2.81867
2.47237
2.17428
1.93462
1.69826
1.59642
1.48993
1.46619
1.50139
1.64997
1.71744
1.9324
2.2384
2.5025
2.84204
3.22274
3.68392
4.16574
4.53161
1.97035
1.72277
1.53099
1.24945
1.17239
1.00243
0.949579
0.897457
0.910955
0.894335
0.845245
0.966892
1.15326
1.26123
1.4169
1.76069
1.95063
2.21435
2.4646
2.75046
0.650812
0.648927
0.526053
0.466879
0.300369
0.302126
0.32223
0.308203
0.253132
0.276923
0.275278
0.273294
0.340497
0.419821
0.458187
0.612464
0.685684
0.754803
0.828096
0.884939
12.1359
11.0521
9.90715
8.85034
8.09563
7.44689
7.00404
6.7455
6.64176
6.7462
7.04445
7.50998
8.17775
8.91906
9.90146
11.0537
12.2785
13.7292
15.2041
16.5741
10.454
9.55794
8.60384
7.71727
6.97307
6.44277
6.02651
5.84439
5.70207
5.85729
6.15369
6.51429
7.03542
7.70053
8.57455
9.47876
10.6499
11.8925
13.093
14.2508
8.78837
8.0366
7.21879
6.51467
5.89241
5.4299
5.17884
4.91314
4.84787
4.87685
5.14745
5.49942
5.9057
6.47482
7.14225
8.06072
8.95323
9.97163
11.1172
11.9972
7.28121
6.59632
5.96756
5.32551
4.82571
4.41986
4.21023
4.02915
3.98848
3.9917
4.16723
4.435
4.83489
5.2641
5.87644
6.57565
7.31899
8.16023
8.93616
9.63944
5.58749
5.18299
4.63154
4.13651
3.68693
3.47598
3.16532
3.1585
3.11386
3.12081
3.29973
3.45255
3.72983
4.08984
4.58662
5.0553
5.60824
6.26436
6.90098
7.5415
3.99629
3.65754
3.34663
2.91433
2.68103
2.49088
2.30174
2.21352
2.22047
2.21551
2.3127
2.4649
2.65025
2.94031
3.16394
3.63826
4.08217
4.46895
4.95215
5.36647
2.35196
2.17558
1.94167
1.73204
1.61351
1.47582
1.36809
1.39148
1.349
1.37543
1.40194
1.52446
1.59275
1.76416
1.93941
2.15531
2.4826
2.70179
3.00584
3.21746
0.784582
0.710757
0.627585
0.561336
0.580352
0.538797
0.452685
0.476067
0.4997
0.468684
0.44239
0.498741
0.466168
0.576014
0.66411
0.666036
0.823379
0.919148
0.906591
1.06324
14.24
13.1418
11.9818
10.906
10.0722
9.39649
8.91698
8.78234
8.72089
8.69932
9.11964
9.53983
10.1336
10.9657
11.9887
13.0345
14.3659
15.7736
17.3396
18.7773
12.221
11.3273
10.3677
9.39607
8.60025
8.07143
7.66527
7.42723
7.40212
7.48918
7.71874
8.17555
8.64219
9.32692
10.1865
11.2509
12.2046
13.5198
14.7594
15.9752
10.1814
9.4768
8.61009
7.95659
7.18867
6.71212
6.41436
6.22829
6.18818
6.18859
6.41944
6.75875
7.20738
7.85885
8.55157
9.36176
10.2983
11.3561
12.363
13.3308
8.34482
7.68142
7.05938
6.36453
5.90953
5.5327
5.19473
5.04477
4.95313
5.0488
5.26465
5.44157
5.81383
6.25052
6.88705
7.57995
8.35228
9.16314
10.0782
10.8066
6.46143
5.94844
5.44331
5.00112
4.58636
4.23524
4.05265
3.90569
3.84033
3.86669
4.06965
4.24697
4.50202
4.92812
5.27168
5.84586
6.39008
7.10671
7.71124
8.36184
4.55781
4.22205
3.84832
3.44389
3.31207
3.04309
2.81665
2.86721
2.77266
2.83746
2.82474
2.95203
3.20168
3.52943
3.71373
4.07591
4.57869
5.08356
5.50069
5.93988
2.77053
2.51356
2.33037
2.16121
1.95399
1.83126
1.6822
1.65385
1.64304
1.66824
1.66436
1.79571
1.92232
2.06756
2.24736
2.46669
2.67326
3.09867
3.33145
3.54851
0.882428
0.826154
0.768564
0.643142
0.649816
0.55292
0.618034
0.560542
0.532951
0.571628
0.596641
0.684881
0.618617
0.695142
0.790985
0.818165
0.933128
1.01031
1.1118
1.19141
)
;

boundaryField
{
    hotSide
    {
        type            calculated;
        value           nonuniform List<scalar> 
400
(
1.99687
1.10147
-0.0255987
-0.995805
-1.88552
-2.51541
-2.89729
-3.07013
-2.96072
-2.56474
-1.84424
-0.818295
0.419963
1.96352
3.87546
6.03875
8.59664
11.2287
13.9386
16.1152
1.76423
0.725323
-0.40886
-1.46417
-2.29759
-2.98837