/*--------------------------------*- C++ -*----------------------------------*\
| =========                 |                                                 |
| \\      /  F ield         | OpenFOAM: The Open Source CFD Toolbox           |
|  \\    /   O peration     | Version:  2212                                  |
|   \\  /    A nd           | Website:  www.openfoam.com                      |
|    \\/     M anipulation  |                                                 |
\*---------------------------------------------------------------------------*/
FoamFile
{
    version     2.0;
    format      ascii;
    arch        "LSB;label=32;scalar=64";
    class       volScalarField;
    location    "0";
    object      stateMean;
}
// * * * * * * * * * * * * * * * * * * * * * * * * * * * * * * * * * * * * * //

dimensions      [0 0 0 1 0 0 0];

internalField   nonuniform List<scalar> 
3200
(
348.064
348.902
349.922
350.749
351.486
352.014
352.502
352.614
352.798
352.745
352.484
352.104
351.615
350.975
350.171
349.292
348.173
347.069
345.849
344.767
341.716
342.534
343.344
344.119
344.68
345.237
345.58
345.842
345.936
345.844
345.672
345.343
344.903
344.421
343.648
342.819
341.907
340.969
339.933
338.947
335.392
336.062
336.81
337.395
337.904
338.311
338.633
338.854
338.936
338.875
338.791
338.556
338.114
337.659
337.019
336.351
335.571
334.748
333.913
333.119
329.072
329.577
330.144
330.595
331.053
331.497
331.704
331.89
331.962
331.89
331.776
331.541
331.252
330.902
330.364
329.837
329.194
328.446
327.834
327.174
322.633
322.977
323.543
323.84
324.21
324.49
324.789
324.733
324.907
324.844
324.786
324.579
324.362
324.074
323.68
323.248
322.76
322.232
321.697
321.231
316.244
316.524
316.817
317.069
317.376
317.485
317.647
317.701
317.781
317.761
317.733
317.589
317.407
317.201
316.984
316.674
316.231
315.92
315.506
315.142
309.697
309.915
310.073
310.271
310.377
310.55
310.595
310.658
310.662
310.659
310.653
310.61
310.47
310.297
310.173
310.009
309.767
309.604
309.33
309.083
303.268
303.316
303.401
303.432
303.482
303.532
303.508
303.574
303.588
303.605
303.611
303.519
303.532
303.479
303.435
303.366
303.268
303.244
303.178
303.043
349.134
350.112
351.024
351.87
352.671
353.263
353.636
353.865
354.005
353.971
353.82
353.408
352.792
352.163
351.319
350.346
349.334
348.082
346.957
345.763
342.639
343.502
344.299
345.016
345.719
346.245
346.615
346.758
346.885
346.813
346.651
346.322
345.904
345.34
344.609
343.776
342.805
341.835
340.792
339.785
336.193
336.759
337.568
338.153
338.794
339.179
339.451
339.719
339.758
339.639
339.598
339.289
338.824
338.442
337.811
337.15
336.342
335.489
334.555
333.764
329.611
330.101
330.783
331.231
331.752
332.062
332.352
332.554
332.557
332.452
332.379
332.11
331.909
331.546
330.954
330.413
329.731
329.053
328.355
327.781
323.09
323.559
323.879
324.35
324.712
324.91
325.189
325.293
325.327
325.331
325.23
325.09
324.763
324.528
324.082
323.701
323.197
322.657
322.119
321.579
316.517
316.752
317.062
317.431
317.67
317.796
318.013
318.07
318.108
318.066
318.017
317.895
317.767
317.522
317.192
316.993
316.601
316.207
315.838
315.493
309.869
310.065
310.226
310.454
310.669
310.652
310.773
310.831
310.852
310.928
310.835
310.785
310.675
310.614
310.38
310.188
309.962
309.699
309.522
309.26
303.318
303.399
303.458
303.534
303.563
303.588
303.588
303.694
303.698
303.666
303.636
303.58
303.643
303.469
303.474
303.42
303.418
303.32
303.18
303.165
350.614
351.59
352.574
353.447
354.225
354.838
355.286
355.56
355.583
355.591
355.347
354.919
354.385
353.706
352.831
351.866
350.818
349.54
348.264
347.071
343.995
344.713
345.603
346.404
347.05
347.518
347.979
348.111
348.257
348.189
347.992
347.661
347.196
346.63
345.838
345.051
344.093
343.051
341.897
340.984
337.154
337.91
338.585
339.229
339.779
340.254
340.515
340.76
340.86
340.859
340.592
340.341
339.987
339.516
338.891
338.166
337.387
336.53
335.583
334.845
330.443
330.942
331.537
332.105
332.631
332.974
333.211
333.414
333.435
333.385
333.336
333.165
332.721
332.361
331.796
331.208
330.595
329.903
329.127
328.532
323.744
324.126
324.533
325.059
325.36
325.666
325.852
325.978
326.05
326.063
325.897
325.744
325.469
325.157
324.883
324.349
323.87
323.332
322.63
322.182
316.953
317.136
317.593
317.832
318.152
318.31
318.454
318.521
318.648
318.624
318.529
318.474
318.15
318.011
317.814
317.536
317.093
316.65
316.302
315.86
310.237
310.317
310.5
310.687
310.904
311.111
311.074
311.167
311.145
311.193
311.132
311.081
310.995
310.79
310.71
310.464
310.277
310.026
309.785
309.52
303.392
303.421
303.542
303.621
303.612
303.678
303.689
303.727
303.735
303.746
303.782
303.751
303.717
303.648
303.517
303.505
303.46
303.407
303.242
303.142
352.115
353.161
354.111
355.124
355.856
356.511
356.893
357.148
357.306
357.306
357.068
356.633
356.056
355.251
354.475
353.545
352.36
350.979
349.73
348.545
345.15
346.03
346.992
347.728
348.483
349.015
349.381
349.653
349.656
349.71
349.454
349.154
348.685
348.075
347.255
346.47
345.449
344.305
343.227
342.215
338.346
338.921
339.766
340.489
341.045
341.476
341.779
342.045
342.118
342.056
341.866
341.589
341.176
340.668
340.058
339.285
338.534
337.589
336.649
335.763
331.339
331.875
332.452
333.114
333.601
333.979
334.224
334.376
334.477
334.462
334.345
334.075
333.734
333.321
332.82
332.282
331.569
330.706
329.97
329.313
324.397
324.793
325.311
325.737
326.115
326.348
326.605
326.743
326.813
326.847
326.729
326.552
326.276
325.914
325.494
325.152
324.518
324.047
323.354
322.839
317.421
317.81
318.049
318.425
318.706
318.866
319.026
319.1
319.134
319.187
319.103
318.922
318.771
318.562
318.265
317.965
317.587
317.084
316.684
316.326
310.5
310.613
310.866
311.008
311.284
311.344
311.441
311.497
311.476
311.608
311.448
311.426
311.27
311.178
310.974
310.775
310.524
310.296
310.073
309.796
303.504
303.57
303.711
303.741
303.773
303.866
303.784
303.817
303.778
303.87
303.796
303.827
303.726
303.703
303.669
303.636
303.512
303.406
303.403
303.308
353.714
354.687
355.731
356.793
357.569
358.191
358.622
358.97
359.109
358.955
358.738
358.331
357.777
356.971
356.149
355.106
353.92
352.614
351.332
350.005
346.622
347.393
348.338
349.224
349.88
350.432
350.82
351.143
351.24
351.193
350.954
350.598
350.055
349.47
348.693
347.874
346.785
345.671
344.555
343.475
339.476
340.112
340.943
341.618
342.202
342.728
343.058
343.266
343.427
343.322
343.182
342.912
342.398
341.873
341.258
340.471
339.642
338.706
337.767
336.918
332.289
332.846
333.462
334.038
334.569
334.9
335.203
335.412
335.597
335.489
335.375
335.039
334.769
334.349
333.756
333.23
332.484
331.682
330.924
330.217
325.12
325.531
326.012
326.554
326.855
327.153
327.418
327.606
327.645
327.577
327.509
327.272
327.131
326.752
326.334
325.867
325.327
324.698
324.146
323.598
317.995
318.229
318.65
318.927
319.289
319.436
319.528
319.713
319.784
319.719
319.699
319.556
319.302
319.099
318.829
318.455
318.061
317.645
317.169
316.863
310.751
310.953
311.12
311.443
311.548
311.658
311.74
311.824
311.803
311.87
311.798
311.749
311.638
311.477
311.353
311.122
310.882
310.696
310.322
310.103
303.599
303.609
303.692
303.849
303.852
303.856
303.931
304.012
303.977
304.024
303.97
303.939
303.938
303.839
303.799
303.729
303.629
303.558
303.453
303.344
355.235
356.248
357.459
358.394
359.232
359.835
360.317
360.618
360.821
360.673
360.378
359.996
359.397
358.739
357.734
356.685
355.427
354.149
352.682
351.397
347.9
348.774
349.798
350.562
351.337
351.849
352.3
352.589
352.653
352.615
352.41
352.114
351.518
350.919
350.05
349.172
348.157
346.897
345.738
344.682
340.581
341.262
342.117
342.794
343.458
343.918
344.251
344.555
344.573
344.524
344.368
344.09
343.69
343.103
342.489
341.704
340.727
339.832
338.746
337.894
333.244
333.804
334.461
334.996
335.536
335.83
336.22
336.444
336.524
336.55
336.377
336.133
335.709
335.313
334.783
334.112
333.494
332.571
331.799
331.116
325.834
326.297
326.797
327.281
327.646
327.943
328.176
328.401
328.399
328.388
328.294
328.107
327.849
327.506
327
326.572
325.984
325.419
324.811
324.192
318.452
318.774
319.172
319.473
319.705
320.007
320.197
320.191
320.262
320.353
320.214
320.084
319.895
319.628
319.37
318.972
318.654
318.2
317.712
317.337
311.104
311.226
311.509
311.708
311.898
312.019
312.085
312.181
312.143
312.195
312.149
312.109
312.003
311.782
311.645
311.377
311.174
310.85
310.738
310.353
303.751
303.778
303.824
303.871
303.991
304.067
304.053
304.087
304.098
304.049
304.049
303.998
304.022
303.992
303.828
303.763
303.796
303.612
303.591
303.488
356.692
357.774
358.926
359.949
360.769
361.467
362.043
362.245
362.402
362.402
362.041
361.651
361.01
360.269
359.357
358.195
356.957
355.587
354.154
352.808
349.198
350.065
351.01
351.963
352.747
353.274
353.776
353.989
354.083
354.077
353.854
353.422
352.939
352.309
351.483
350.531
349.398
348.23
346.966
345.898
341.682
342.337
343.224
343.963
344.653
345.131
345.471
345.717
345.818
345.732
345.627
345.282
344.903
344.253
343.499
342.809
341.861
340.875
339.775
338.91
334.065
334.588
335.333
335.928
336.515
336.85
337.214
337.397
337.518
337.459
337.259
337.091
336.763
336.257
335.692
335.026
334.297
333.559
332.621
331.91
326.553
326.995
327.43
327.948
328.38
328.714
328.986
329.084
329.19
329.117
329.091
328.796
328.583
328.229
327.753
327.243
326.751
326.078
325.411
324.814
318.947
319.28
319.658
319.944
320.266
320.488
320.768
320.809
320.905
320.793
320.712
320.625
320.426
320.105
319.819
319.579
319.111
318.648
318.097
317.723
311.383
311.513
311.833
312.034
312.115
312.336
312.443
312.487
312.52
312.482
312.429
312.357
312.389
312.125
311.936
311.716
311.451
311.156
310.946
310.689
303.814
303.893
303.976
304.029
304.054
304.165
304.191
304.155
304.247
304.174
304.152
304.116
304.079
304.09
303.981
303.901
303.869
303.739
303.676
303.576
358.128
359.21
360.4
361.42
362.362
363.031
363.492
363.89
363.902
363.823
363.574
363.165
362.605
361.747
360.746
359.691
358.429
356.948
355.429
354.09
350.412
351.26
352.31
353.227
354.053
354.612
355.082
355.354
355.468
355.398
355.147
354.79
354.278
353.596
352.784
351.818
350.674
349.426
348.18
347.036
342.675
343.481
344.334
345.1
345.671
346.236
346.577
346.828
347.023
346.923
346.707
346.435
345.974
345.384
344.626
343.884
342.933
341.884
340.82
339.875
334.847
335.504
336.299
336.891
337.421
337.832
338.175
338.314
338.425
338.385
338.26
338.053
337.637
337.202
336.605
335.955
335.095
334.327
333.51
332.725
327.113
327.671
328.176
328.659
329.108
329.428
329.637
329.83
329.85
329.868
329.777
329.55
329.294
328.949
328.515
327.967
327.371
326.729
326.05
325.502
319.382
319.772
320.155
320.473
320.73
321.053
321.239
321.29
321.391
321.355
321.317
321.135
320.877
320.708
320.342
319.996
319.554
319.073
318.574
318.216
311.661
311.773
312.127
312.273
312.449
312.668
312.684
312.815
312.834
312.77
312.844
312.738
312.573
312.45
312.285
311.993
311.745
311.396
311.126
310.915
303.934
303.993
304.022
304.152
304.147
304.202
304.302
304.253
304.331
304.308
304.203
304.268
304.19
304.122
304.123
304.087
304.044
303.771
303.741
303.686
359.471
360.61
361.823
362.84
363.799
364.451
365.078
365.301
365.507
365.392
365.048
364.658
363.942
363.224
362.234
361.101
359.714
358.296
356.767
355.409
351.587
352.505
353.512
354.438
355.237
355.958
356.29
356.625
356.727
356.783
356.462
356.126
355.538
354.837
354.014
352.996
351.829
350.569
349.314
348.092
343.6
344.389
345.238
346.096
346.725
347.36
347.647
347.898
348.031
348.079
347.897
347.581
347.03
346.416
345.682
344.86
343.922
342.828
341.707
340.848
335.76
336.352
337.056
337.658
338.26
338.655
339.056
339.248
339.324
339.36
339.14
338.811
338.489
338.023
337.414
336.727
335.933
335.084
334.221
333.474
327.879
328.278
328.767
329.349
329.819
330.078
330.37
330.53
330.575
330.553
330.532
330.187
329.962
329.57
329.094
328.583
328.011
327.302
326.66
326.028
319.874
320.194
320.595
320.958
321.247
321.526
321.715
321.797
321.839
321.86
321.748
321.637
321.339
321.207
320.817
320.436
319.953
319.555
319.079
318.617
311.969
312.098
312.385
312.631
312.693
312.945
313.06
313.064
313.125
313.104
313.077
313.014
312.902
312.699
312.525
312.303
311.955
311.674
311.472
311.15
303.979
304.009
304.18
304.235
304.325
304.313
304.344
304.412
304.377
304.431
304.382
304.386
304.372
304.316
304.259
304.13
304.031
303.881
303.786
303.774
360.72
361.839
363.114
364.209
365.121
365.902
366.344
366.702
366.865
366.822
366.533
365.995
365.381
364.56
363.477
362.333
361.008
359.536
357.974
356.576
352.682
353.593
354.618
355.615
356.463
357.079
357.525
357.889
357.963
357.939
357.688
357.314
356.775
355.968
355.126
354.088
352.95
351.597
350.306
349.089
344.569
345.292
346.269
347.026
347.737
348.27
348.65
348.966
349.024
348.997
348.772
348.493
348.001
347.374
346.643
345.816
344.794
343.688
342.676
341.699
336.486
337.084
337.765
338.5
339.076
339.53
339.84
340.022
340.168
340.123
339.964
339.735
339.292
338.817
338.266
337.546
336.749
335.841
334.939
334.128
328.421
328.8
329.477
329.98
330.452
330.743
330.945
331.247
331.23
331.171
331.061
330.915
330.61
330.124
329.712
329.187
328.59
327.876
327.164
326.655
320.19
320.622
321.018
321.422
321.655
321.949
322.153
322.256
322.328
322.309
322.254
322.133
321.869
321.644
321.331
320.843
320.425
319.946
319.484
319.013
312.127
312.345
312.686
312.765
313.01
313.207
313.34
313.336
313.447
313.443
313.401
313.267
313.107
312.959
312.777
312.559
312.296
311.889
311.683
311.486
304.163
304.175
304.188
304.311
304.383
304.388
304.443
304.481
304.444
304.436
304.454
304.5
304.416
304.351
304.217
304.126
304.076
304.001
303.935
303.856
361.839
363.035
364.253
365.382
366.328
367.089
367.673
367.986
368.141
368.052
367.783
367.34
366.615
365.741
364.707
363.515
362.169
360.664
359.106
357.652
353.628
354.583
355.665
356.684
357.476
358.141
358.612
358.961
359.077
358.969
358.839
358.384
357.831
357.063
356.2
355.16
353.974
352.629
351.234
350.061
345.441
346.246
347.162
347.917
348.68
349.159
349.686
349.932
349.958
349.975
349.74
349.448
348.874
348.272
347.566
346.74
345.674
344.6
343.465
342.428
337.189
337.853
338.57
339.208
339.753
340.255
340.628
340.868
340.964
340.936
340.757
340.534
340.143
339.531
338.899
338.249
337.367
336.544
335.564
334.773
328.883
329.429
329.904
330.56
330.924
331.275
331.623
331.763
331.817
331.851
331.653
331.384
331.22
330.795
330.291
329.753
329.144
328.444
327.689
327.091
320.654
321.036
321.399
321.821
322.153
322.409
322.579
322.7
322.722
322.814
322.617
322.494
322.273
321.959
321.678
321.17
320.837
320.372
319.826
319.427
312.344
312.594
312.846
313.093
313.307
313.409
313.544
313.591
313.665
313.611
313.63
313.524
313.352
313.17
313.052
312.71
312.496
312.243
311.907
311.635
304.174
304.197
304.308
304.388
304.442
304.468
304.559
304.554
304.543
304.607
304.553
304.513
304.493
304.465
304.39
304.317
304.193
304.12
304.069
303.937
362.851
364.114
365.331
366.613
367.417
368.329
368.85
369.156
369.355
369.226
368.961
368.494
367.79
366.976
365.843
364.618
363.277
361.686
360.075
358.731
354.515
355.575
356.619
357.642
358.528
359.169
359.637
359.986
360.11
360.019
359.882
359.471
358.843
358.032
357.141
356.107
354.855
353.532
352.197
350.915
346.127
346.99
347.895
348.8
349.456
350.06
350.473
350.721
350.841
350.82
350.68
350.302
349.838
349.113
348.442
347.503
346.46
345.358
344.208
343.192
337.772
338.37
339.135
339.916
340.524
340.952
341.313
341.511
341.637
341.615
341.465
341.253
340.759
340.278
339.653
338.865
338.091
337.134
336.227
335.329
329.364
329.912
330.478
331.083
331.464
331.823
332.179
332.308
332.331
332.318
332.235
332.107
331.688
331.343
330.788
330.317
329.595
328.92
328.064
327.534
320.977
321.305
321.797
322.219
322.541
322.713
322.947
323.064
323.233
323.104
323.081
322.88
322.677
322.417
322.058
321.697
321.219
320.679
320.172
319.715
312.652
312.841
313.092
313.322
313.575
313.677
313.738
313.894
313.938
313.9
313.81
313.68
313.628
313.434
313.242
312.986
312.61
312.432
312.072
311.842
304.236
304.325
304.444
304.422
304.579
304.582
304.646
304.685
304.697
304.715
304.664
304.64
304.594
304.5
304.47
304.383
304.224
304.177
304.045
303.92
363.85
365.083
366.398
367.59
368.532
369.392
369.914
370.24
370.365
370.364
370.056
369.508
368.816
367.925
366.909
365.644
364.216
362.729
360.972
359.584
355.352
356.408
357.498
358.609
359.389
360.097
360.566
360.862
361.043
360.945
360.79
360.26
359.755
359.007
358.051
356.942
355.765
354.366
352.968
351.828
346.813
347.688
348.661
349.526
350.245
350.824
351.307
351.562
351.696
351.652
351.451
351.083
350.5
349.916
349.16
348.193
347.201
346.101
344.954
343.882
338.335
338.96
339.775
340.456
341.113
341.598
341.952
342.132
342.302
342.253
342.058
341.824
341.387
340.807
340.156
339.502
338.66
337.732
336.78
336.013
329.816
330.39
330.97
331.489
332.009
332.278
332.612
332.806
332.881
332.868
332.767
332.497
332.266
331.836
331.346
330.713
330.106
329.338
328.573
328.027
321.31
321.689
322.014
322.49
322.811
323.168
323.266
323.46
323.511
323.513
323.351
323.233
322.97
322.673
322.304
321.977
321.467
320.99
320.457
320.005
312.828
312.968
313.312
313.494
313.709
313.881
314.035
314.112
314.113
314.127
314.012
313.994
313.867
313.676
313.471
313.18
312.929
312.578
312.323
312.116
304.317
304.419
304.441
304.536
304.562
304.65
304.674
304.718
304.683
304.771
304.658
304.67
304.628
304.575
304.597
304.429
304.318
304.173
304.073
304.04
364.741
365.896
367.285
368.415
369.494
370.245
370.84
371.256
371.302
371.268
370.949
370.571
369.846
368.875
367.849
366.579
365.105
363.453
361.853
360.371
356.099
357.134
358.304
359.308
360.204
360.938
361.302
361.749
361.851
361.823
361.582
361.115
360.529
359.755
358.829
357.713
356.538
355.163
353.674
352.43
347.498
348.35
349.347
350.169
350.947
351.543
351.955
352.261
352.364
352.311
352.061
351.63
351.239
350.596
349.787
348.824
347.838
346.661
345.437
344.44
338.835
339.475
340.343
341.026
341.716
342.159
342.515
342.809
342.798
342.817
342.573
342.387
341.918
341.404
340.722
340.038
339.207
338.213
337.199
336.383
330.235
330.773
331.314
331.888
332.462
332.892
333.03
333.222
333.361
333.362
333.197
332.953
332.63
332.236
331.768
331.119
330.439
329.784
329.014
328.389
321.583
321.933
322.414
322.857
323.177
323.449
323.6
323.784
323.806
323.817
323.706
323.505
323.318
323.088
322.712
322.277
321.777
321.228
320.707
320.29
312.939
313.264
313.529
313.632
313.9
314.02
314.178
314.299
314.23
314.282
314.223
314.136
314.006
313.846
313.611
313.4
313.053
312.751
312.419
312.156
304.375
304.439
304.535
304.602
304.64
304.75
304.774
304.75
304.8
304.843
304.813
304.758
304.645
304.621
304.618
304.534
304.418
304.223
304.215
304.14
365.462
366.67
368.057
369.207
370.267
371.062
371.688
372.051
372.167
372.143
371.927
371.395
370.582
369.736
368.64
367.331
365.89
364.275
362.545
361.082
356.637
357.713
358.944
359.982
360.936
361.596
362.119
362.468
362.584
362.544
362.226
361.817
361.212
360.484
359.54
358.44
357.148
355.726
354.316
353.033
347.978
348.862
349.797
350.677
351.477
352.109
352.572
352.828
353.022
352.908
352.725
352.357
351.865
351.197
350.355
349.441
348.388
347.217
345.992
344.961
339.255
339.95
340.716
341.527
342.188
342.647
343.055
343.192
343.368
343.311
343.084
342.843
342.386
341.832
341.329
340.493
339.58
338.662
337.621
336.816
330.555
331.125
331.806
332.313
332.81
333.184
333.436
333.714
333.715
333.7
333.599
333.391
332.992
332.58
332.042
331.571
330.815
330.126
329.329
328.722
321.825
322.229
322.696
323.042
323.416
323.695
323.903
323.994
324.071
324.064
324.05
323.829
323.623
323.359
322.953
322.513
322.039
321.527
320.924
320.547
313.133
313.349
313.519
313.842
314.081
314.264
314.331
314.459
314.488
314.421
314.393
314.307
314.166
314.009
313.796
313.545
313.197
312.903
312.604
312.382
304.422
304.464
304.546
304.593
304.685
304.798
304.799
304.804
304.838
304.846
304.846
304.848
304.802
304.725
304.592
304.515
304.479
304.32
304.218
304.116
366.115
367.265
368.658
369.865
370.891
371.751
372.331
372.71
372.892
372.778
372.595
372.054
371.319
370.357
369.327
367.975
366.501
364.874
363.175
361.633
357.248
358.311
359.439
360.58
361.464
362.186
362.699
363.032
363.17
363.166
362.913
362.49
361.828
360.987
360.124
358.96
357.609
356.301
354.839
353.441
348.471
349.329
350.309
351.276
351.977
352.65
353.064
353.364
353.439
353.369
353.203
352.816
352.317
351.618
350.878
349.968
348.811
347.692
346.458
345.436
339.591
340.333
341.141
341.965
342.532
343.067
343.402
343.615
343.783
343.82
343.553
343.313
342.934
342.372
341.634
340.891
340.07
339.04
337.998
337.159
330.831
331.37
331.991
332.624
333.122
333.493
333.803
333.938
334.042
334.084
333.86
333.717
333.412
332.922
332.354
331.76
331.122
330.412
329.56
328.971
322.019
322.39
322.839
323.267
323.655
323.966
324.104
324.312
324.271
324.323
324.21
324.083
323.86
323.554
323.094
322.784
322.245
321.598
321.172
320.703
313.285
313.479
313.713
314.056
314.226
314.381
314.489
314.545
314.572
314.636
314.561
314.492
314.344
314.188
313.832
313.66
313.374
313.031
312.705
312.525
304.457
304.534
304.596
304.729
304.744
304.811
304.814
304.847
304.891
304.924
304.887
304.854
304.843
304.683
304.708
304.605
304.443
304.371
304.254
304.167
366.53
367.879
369.218
370.419
371.456
372.361
373.023
373.363
373.495
373.439
373.113
372.667
371.853
370.954
369.811
368.508
367.002
365.361
363.691
362.173
357.715
358.763
359.999
360.984
361.959
362.693
363.248
363.543
363.692
363.61
363.403
362.944
362.377
361.521
360.533
359.37
358.146
356.711
355.223
353.881
348.811
349.72
350.694
351.566
352.431
353.027
353.457
353.806
353.875
353.784
353.647
353.233
352.77
352.115
351.269
350.269
349.243
347.926
346.795
345.71
339.91
340.635
341.458
342.282
342.835
343.353
343.709
343.962
344.06
344.068
343.882
343.601
343.147
342.642
341.982
341.237
340.293
339.324
338.254
337.447
331.136
331.6
332.276
332.838
333.325
333.733
334.06
334.208
334.29
334.279
334.117
333.892
333.594
333.138
332.653
332.09
331.363
330.638
329.935
329.171
322.211
322.504
323.056
323.492
323.817
324.098
324.323
324.44
324.479
324.509
324.365
324.208
324.039
323.726
323.362
322.898
322.409
321.877
321.382
320.844
313.368
313.592
313.776
314.13
314.36
314.445
314.651
314.607
314.726
314.754
314.667
314.584
314.456
314.236
314.026
313.792
313.442
313.097
312.823
312.509
304.497
304.505
304.608
304.719
304.819
304.816
304.867
304.94
304.957
304.856
304.941
304.907
304.873
304.776
304.749
304.682
304.494
304.36
304.278
304.202
366.949
368.197
369.604
370.839
371.916
372.779
373.364
373.731
373.938
373.878
373.481
373.052
372.314
371.38
370.255
368.885
367.377
365.752
364.088
362.523
357.982
359.118
360.235
361.341
362.278
363.087
363.605
363.908
363.963
364.072
363.762
363.34
362.645
361.872
360.919
359.745
358.487
357.058
355.561
354.213
349.115
350.032
351.078
351.928
352.707
353.302
353.785
354.113
354.219
354.198
353.949
353.597
353.075
352.416
351.571
350.549
349.539
348.334
347.051
345.996
340.185
340.903
341.733
342.44
343.143
343.706
343.96
344.275
344.377
344.358
344.153
343.812
343.437
342.916
342.246
341.461
340.59
339.58
338.513
337.681
331.236
331.825
332.456
333.056
333.518
333.926
334.267
334.424
334.488
334.509
334.403
334.119
333.828
333.359
332.858
332.229
331.492
330.767
329.966
329.363
322.333
322.79
323.224
323.612
323.938
324.254
324.425
324.586
324.648
324.632
324.483
324.397
324.144
323.783
323.449
323.031
322.563
322.012
321.443
321.009
313.373
313.661
313.905
314.241
314.37
314.588
314.681
314.767
314.776
314.805
314.854
314.72
314.511
314.37
314.173
313.781
313.539
313.222
312.919
312.593
304.492
304.508
304.648
304.726
304.91
304.924
304.918
304.943
305.006
304.986
304.988
304.986
304.911
304.82
304.768
304.598
304.507
304.419
304.329
304.258
367.178
368.466
369.856
371.16
372.151
373.015
373.644
374.05
374.256
374.205
373.907
373.388
372.617
371.729
370.561
369.193
367.732
366.034
364.314
362.74
358.268
359.336
360.502
361.604
362.554
363.271
363.848
364.159
364.391
364.282
363.985
363.579
362.968
362.174
361.139
360.048
358.671
357.214
355.801
354.471
349.349
350.243
351.24
352.126
352.923
353.544
353.932
354.307
354.448
354.458
354.188
353.797
353.314
352.636
351.832
350.754
349.688
348.487
347.163
346.14
340.279
341.08
341.854
342.645
343.288
343.824
344.147
344.417
344.52
344.548
344.373
344.073
343.611
343.093
342.368
341.538
340.652
339.662
338.74
337.921
331.405
331.898
332.562
333.173
333.735
334.047
334.446
334.522
334.615
334.633
334.454
334.276
333.95
333.521
332.936
332.367
331.702
330.93
330.18
329.451
322.434
322.835
323.227
323.743
324.056
324.319
324.57
324.708
324.737
324.758
324.661
324.492
324.272
323.932
323.646
323.099
322.575
322.105
321.541
321.064
313.522
313.735
314.018
314.278
314.444
314.626
314.771
314.778
314.841
314.826
314.799
314.666
314.576
314.375
314.163
313.903
313.527
313.258
312.905
312.657
304.536
304.622
304.722
304.805
304.802
304.858
304.957
304.944
304.927
304.961
304.988
304.928
304.954
304.834
304.733
304.716
304.543
304.431
304.426
304.258
367.321
368.611
370.001
371.31
372.365
373.242
373.893
374.165
374.322
374.392
373.971
373.503
372.813
371.844
370.649
369.402
367.85
366.209
364.413
362.784
358.338
359.395
360.553
361.728
362.717
363.421
363.977
364.335
364.443
364.399
364.169
363.669
363.12
362.315
361.305
360.066
358.919
357.401
355.963
354.584
349.436
350.276
351.312
352.137
353.069
353.695
354.121
354.409
354.52
354.555
354.325
353.949
353.43
352.676
351.855
350.896
349.796
348.566
347.39
346.286
340.38
341.153
341.913
342.748
343.338
343.838
344.281
344.515
344.665
344.598
344.382
344.176
343.746
343.225
342.484
341.668
340.761
339.809
338.756
337.918
331.409
332.006
332.618
333.17
333.691
334.137
334.401
334.614
334.725
334.721
334.518
334.318
334.018
333.526
333.1
332.431
331.781
330.954
330.243
329.508
322.485
322.881
323.332
323.814
324.022
324.359
324.644
324.641
324.767
324.72
324.732
324.588
324.306
323.932
323.688
323.258
322.679
322.096
321.602
321.103
313.465
313.758
313.988
314.205
314.457
314.621
314.806
314.862
314.892
314.877
314.881
314.739
314.594
314.42
314.205
313.944
313.693
313.219
312.941
312.687
304.559
304.627
304.7
304.842
304.85
304.961
304.908
304.974
305.009
304.973
304.948
304.857
304.916
304.831
304.723
304.682
304.552
304.459
304.341
304.25
)
;

boundaryField
{
    hotSide
    {
        type            fixedGradient;
        gradient        nonuniform List<scalar> 
400
(
321.511
322.87
325.591
329.677
335.133
341.965
350.181
359.788
370.794
383.208
397.037
412.289
428.971
447.088
466.647
487.651
510.105
534.011
559.372
586.191
323.738
325.08
327.767
331.802
337.194
343.949
352.078
361.591
372.498
384.81
398.537
413.687
430.268
448.289
467.755
488.672
511.043
534.872
560.161
586.913
326.149
327.47
330.116
334.091
339.406
346.071
354.099
363.503
374.296
386.491
400.101
415.136
431.606
449.52
468.885
489.706
511.988
535.735
560.948
587.63
328.704
330
332.597
336.503
341.73
348.292
356.205
365.485
376.15
388.215
401.695
416.604
432.954
450.753
470.009
490.73
512.919
536.579
561.714
588.325
331.33
332.599
335.142
338.97
344.099
350.546
358.332
367.477
378.003
389.928
403.271
418.047
434.27
451.949
471.095
491.712
513.807
537.382
562.439
588.978
333.918
335.158
337.643
341.389
346.414
352.74
360.392
369.397
379.779
391.562
404.765
419.407
435.503
453.065
472.101
492.618
514.622
538.114
563.096
589.569
336.321
337.531
339.959
343.622
348.544
354.751
362.274
371.142
381.385
393.031
406.101
420.618
436.595
454.047
472.983
493.409
515.33
538.747
563.663
590.076
338.36
339.543
341.92
345.509
350.339
356.44
363.847
372.595
382.718
394.244
407.2
421.608
437.485
454.844
473.695
494.045
515.897
539.253
564.114
590.478
339.852
341.015
343.352
346.885
351.645
357.665
364.985
373.643
383.675
395.113
407.984
422.312
438.116
455.407
474.197
494.491
516.294
539.606
564.428
590.758
340.643
341.795
344.11
347.613
352.334
358.311
365.584
374.193
384.176
395.567
408.393
422.679
438.443
455.699
474.456
494.722
516.498
539.788
564.589
590.901
340.643
341.795
344.11
347.613
352.334
358.311
365.584
374.193
384.176
395.567
408.393
422.679
438.443
455.699
474.456
494.722
516.498
539.788
564.589
590.901
339.852
341.015
343.352
346.885
351.645
357.665
364.985
373.643
383.675
395.113
407.984
422.312
438.116
455.407
474.197
494.491
516.294
539.606
564.428
590.758
338.36
339.543
341.92
345.509
350.339
356.44
363.847
372.595
382.718
394.244
407.2
421.608
437.485
454.844
473.695
494.045
515.897
539.253
564.114
590.478
336.321
337.531
339.959
343.622
348.544
354.751
362.274
371.142
381.385
393.031
406.101
420.618
436.595
454.047
472.983
493.409
515.33
538.747
563.663
590.076
333.918
335.158
337.643
341.389
346.414
352.74
360.392
369.397
379.779
391.562
404.765
419.407
435.503
453.065
472.101
492.618
514.622
538.114
563.096
589.569
331.33
332.599
335.142
338.97
344.099
350.546
358.332
367.477
378.003
389.928
403.271
418.047
434.27
451.949
471.095
491.712
513.807
537.382
562.439
588.978
328.704
330
332.597
336.503
341.73
348.292
356.205
365.485
376.15
388.215
401.695
416.604
432.954
450.753
470.009
490.73
512.919
536.579
561.714
588.325
326.149
327.47
330.116
334.091
339.406
346.071
354.099
363.503
374.296
386.491
400.101
415.136
431.606
449.52
468.885
489.706
511.988
535.735
560.948
587.63
323.738
325.08
327.767
331.802
337.194
343.949
352.078
361.591
372.498
384.81
398.537
413.687
430.268
448.289
467.755
488.672
511.043
534.872
560.161
586.913
321.511
322.87
325.591
329.677
335.133
341.965
350.181
359.788
370.794
383.208
397.037
412.289
428.971
447.088
466.647
487.651
510.105
534.011
559.372
586.191
)
;
    }
    coldSide
    {
        type            mixed;
        refValue        uniform 300;
        refGradient     uniform 0;
        valueFraction   uniform 0.991591;
        source          uniform 0;
        value           nonuniform List<scalar> 
400
(
300.027
300.028
300.029
300.029
300.03
300.032
300.032
300.033
300.033
300.035
300.035
300.036
300.036
300.037
300.037
300.037
300.038
300.038
300.038
300.038
300.028
300.029
300.029
300.03
300.03
300.032
300.033
300.034
300.034
300.035
300.035
300.036
300.037
300.037
300.038
300.038
300.038
300.038