/*--------------------------------*- C++ -*----------------------------------*\
| =========                 |                                                 |
| \\      /  F ield         | OpenFOAM: The Open Source CFD Toolbox           |
|  \\    /   O peration     | Version:  2212                                  |
|   \\  /    A nd           | Website:  www.openfoam.com                      |
|    \\/     M anipulation  |                                                 |
\*---------------------------------------------------------------------------*/
FoamFile
{
    version     2.0;
    format      ascii;
    arch        "LSB;label=32;scalar=64";
    class       volScalarField;
    location    "0";
    object      Ttrue;
}
// * * * * * * * * * * * * * * * * * * * * * * * * * * * * * * * * * * * * * //

dimensions      [0 0 0 1 0 0 0];

internalField   nonuniform List<scalar> 
3200
(
338.351
338.636
338.999
339.396
339.804
340.204
340.574
340.886
341.114
341.234
341.234
341.114
340.886
340.574
340.204
339.804
339.396
338.999
338.636
338.351
333.142
333.383
333.697
334.039
334.393
334.739
335.059
335.329
335.525
335.629
335.629
335.525
335.329
335.059
334.739
334.393
334.039
333.697
333.383
333.142
327.975
328.175
328.439
328.729
329.027
329.32
329.59
329.817
329.983
330.071
330.071
329.983
329.817
329.59
329.32
329.027
328.729
328.439
328.175
327.975
322.843
323.004
323.22
323.456
323.7
323.94
324.16
324.346
324.481
324.553
324.553
324.481
324.346
324.16
323.94
323.7
323.456
323.22
323.004
322.843
317.741
317.865
318.032
318.216
318.405
318.591
318.763
318.907
319.012
319.067
319.067
319.012
318.907
318.763
318.591
318.405
318.216
318.032
317.865
317.741
312.662
312.749
312.869
313
313.135
313.268
313.39
313.493
313.568
313.608
313.608
313.568
313.493
313.39
313.268
313.135
313
312.869
312.749
312.662
307.599
307.651
307.723
307.802
307.883
307.963
308.036
308.098
308.143
308.167
308.167
308.143
308.098
308.036
307.963
307.883
307.802
307.723
307.651
307.599
302.546
302.564
302.588
302.614
302.641
302.668
302.693
302.713
302.728
302.736
302.736
302.728
302.713
302.693
302.668
302.641
302.614
302.588
302.564
302.546
338.504
338.787
339.147
339.54
339.944
340.34
340.705
341.014
341.238
341.357
341.357
341.238
341.014
340.705
340.34
339.944
339.54
339.147
338.787
338.504
333.274
333.513
333.824
334.164
334.513
334.856
335.172
335.438
335.632
335.735
335.735
335.632
335.438
335.172
334.856
334.513
334.164
333.824
333.513
333.274
328.086
328.284
328.546
328.833
329.129
329.418
329.685
329.91
330.074
330.16
330.16
330.074
329.91
329.685
329.418
329.129
328.833
328.546
328.284
328.086
322.934
323.094
323.307
323.542
323.783
324.02
324.238
324.421
324.555
324.625
324.625
324.555
324.421
324.238
324.02
323.783
323.542
323.307
323.094
322.934
317.812
317.934
318.1
318.282
318.47
318.654
318.823
318.966
319.069
319.124
319.124
319.069
318.966
318.823
318.654
318.47
318.282
318.1
317.934
317.812
312.712
312.799
312.917
313.047
313.181
313.313
313.433
313.535
313.609
313.648
313.648
313.609
313.535
313.433
313.313
313.181
313.047
312.917
312.799
312.712
307.629
307.681
307.752
307.83
307.91
307.989
308.062
308.123
308.167
308.191
308.191
308.167
308.123
308.062
307.989
307.91
307.83
307.752
307.681
307.629
302.556
302.574
302.597
302.624
302.65
302.677
302.701
302.722
302.737
302.744
302.744
302.737
302.722
302.701
302.677
302.65
302.624
302.597
302.574
302.556
338.811
339.089
339.443
339.828
340.224
340.612
340.969
341.27
341.488
341.604
341.604
341.488
341.27
340.969
340.612
340.224
339.828
339.443
339.089
338.811
333.538
333.774
334.079
334.413
334.755
335.091
335.399
335.659
335.848
335.948
335.948
335.848
335.659
335.399
335.091
334.755
334.413
334.079
333.774
333.538
328.309
328.504
328.762
329.043
329.333
329.616
329.877
330.096
330.256
330.34
330.34
330.256
330.096
329.877
329.616
329.333
329.043
328.762
328.504
328.309
323.116
323.273
323.483
323.713
323.95
324.181
324.394
324.573
324.704
324.772
324.772
324.704
324.573
324.394
324.181
323.95
323.713
323.483
323.273
323.116
317.953
318.073
318.236
318.415
318.599
318.779
318.944
319.083
319.185
319.238
319.238
319.185
319.083
318.944
318.779
318.599
318.415
318.236
318.073
317.953
312.813
312.898
313.014
313.142
313.273
313.402
313.52
313.619
313.691
313.729
313.729
313.691
313.619
313.52
313.402
313.273
313.142
313.014
312.898
312.813
307.69
307.741
307.81
307.887
307.966
308.043
308.114
308.173
308.217
308.239
308.239
308.217
308.173
308.114
308.043
307.966
307.887
307.81
307.741
307.69
302.577
302.594
302.617
302.643
302.669
302.695
302.719
302.739
302.753
302.761
302.761
302.753
302.739
302.719
302.695
302.669
302.643
302.617
302.594
302.577
339.271
339.543
339.888
340.263
340.647
341.023
341.367
341.657
341.868
341.979
341.979
341.868
341.657
341.367
341.023
340.647
340.263
339.888
339.543
339.271
333.936
334.166
334.464
334.788
335.12
335.445
335.743
335.994
336.176
336.272
336.272
336.176
335.994
335.743
335.445
335.12
334.788
334.464
334.166
333.936
328.644
328.834
329.085
329.359
329.641
329.915
330.167
330.378
330.532
330.613
330.613
330.532
330.378
330.167
329.915
329.641
329.359
329.085
328.834
328.644
323.389
323.542
323.747
323.971
324.201
324.425
324.631
324.803
324.929
324.995
324.995
324.929
324.803
324.631
324.425
324.201
323.971
323.747
323.542
323.389
318.164
318.282
318.441
318.615
318.794
318.968
319.128
319.262
319.359
319.411
319.411
319.359
319.262
319.128
318.968
318.794
318.615
318.441
318.282
318.164
312.964
313.047
313.16
313.285
313.412
313.537
313.651
313.747
313.816
313.853
313.853
313.816
313.747
313.651
313.537
313.412
313.285
313.16
313.047
312.964
307.78
307.83
307.898
307.972
308.049
308.124
308.192
308.25
308.291
308.313
308.313
308.291
308.25
308.192
308.124
308.049
307.972
307.898
307.83
307.78
302.607
302.623
302.646
302.671
302.697
302.722
302.745
302.764
302.778
302.785
302.785
302.778
302.764
302.745
302.722
302.697
302.671
302.646
302.623
302.607
339.887
340.15
340.484
340.846
341.215
341.575
341.904
342.18
342.381
342.486
342.486
342.381
342.18
341.904
341.575
341.215
340.846
340.484
340.15
339.887
334.467
334.689
334.978
335.29
335.61
335.921
336.206
336.445
336.618
336.709
336.709
336.618
336.445
336.206
335.921
335.61
335.29
334.978
334.689
334.467
329.091
329.276
329.519
329.783
330.053
330.316
330.557
330.759
330.905
330.982
330.982
330.905
330.759
330.557
330.316
330.053
329.783
329.519
329.276
329.091
323.754
323.902
324.1
324.316
324.537
324.752
324.949
325.114
325.233
325.296
325.296
325.233
325.114
324.949
324.752
324.537
324.316
324.1
323.902
323.754
318.447
318.562
318.715
318.883
319.055
319.222
319.375
319.503
319.596
319.644
319.644
319.596
319.503
319.375
319.222
319.055
318.883
318.715
318.562
318.447
313.166
313.246
313.356
313.476
313.598
313.718
313.827
313.918
313.984
314.019
314.019
313.984
313.918
313.827
313.718
313.598
313.476
313.356
313.246
313.166
307.901
307.949
308.015
308.087
308.161
308.232
308.298
308.353
308.393
308.413
308.413
308.393
308.353
308.298
308.232
308.161
308.087
308.015
307.949
307.901
302.647
302.664
302.686
302.71
302.734
302.758
302.78
302.799
302.812
302.819
302.819
302.812
302.799
302.78
302.758
302.734
302.71
302.686
302.664
302.647
340.658
340.912
341.232
341.578
341.93
342.271
342.583
342.844
343.032
343.131
343.131
343.032
342.844
342.583
342.271
341.93
341.578
341.232
340.912
340.658
335.132
335.346
335.623
335.922
336.227
336.522
336.792
337.018
337.181
337.266
337.266
337.181
337.018
336.792
336.522
336.227
335.922
335.623
335.346
335.132
329.652
329.83
330.063
330.316
330.573
330.823
331.051
331.241
331.379
331.451
331.451
331.379
331.241
331.051
330.823
330.573
330.316
330.063
329.83
329.652
324.211
324.354
324.544
324.751
324.961
325.166
325.352
325.507
325.62
325.679
325.679
325.62
325.507
325.352
325.166
324.961
324.751
324.544
324.354
324.211
318.802
318.912
319.059
319.22
319.384
319.543
319.687
319.808
319.896
319.941
319.941
319.896
319.808
319.687
319.543
319.384
319.22
319.059
318.912
318.802
313.419
313.496
313.601
313.716
313.833
313.946
314.05
314.136
314.198
314.231
314.231
314.198
314.136
314.05
313.946
313.833
313.716
313.601
313.496
313.419
308.053
308.099
308.162
308.231
308.302
308.37
308.432
308.483
308.521
308.541
308.541
308.521
308.483
308.432
308.37
308.302
308.231
308.162
308.099
308.053
302.698
302.714
302.735
302.758
302.781
302.804
302.825
302.842
302.855
302.862
302.862
302.855
302.842
302.825
302.804
302.781
302.758
302.735
302.714
302.698
341.587
341.829
342.134
342.463
342.795
343.117
343.409
343.652
343.828
343.92
343.92
343.828
343.652
343.409
343.117
342.795
342.463
342.134
341.829
341.587
335.933
336.138
336.401
336.685
336.973
337.252
337.505
337.715
337.867
337.947
337.947
337.867
337.715
337.505
337.252
336.973
336.685
336.401
336.138
335.933
330.327
330.497
330.719
330.959
331.202
331.438
331.651
331.829
331.958
332.025
332.025
331.958
331.829
331.651
331.438
331.202
330.959
330.719
330.497
330.327
324.761
324.898
325.079
325.275
325.475
325.667
325.842
325.987
326.092
326.147
326.147
326.092
325.987
325.842
325.667
325.475
325.275
325.079
324.898
324.761
319.229
319.334
319.475
319.627
319.782
319.932
320.067
320.18
320.262
320.305
320.305
320.262
320.18
320.067
319.932
319.782
319.627
319.475
319.334
319.229
313.723
313.797
313.898
314.007
314.117
314.224
314.321
314.402
314.46
314.49
314.49
314.46
314.402
314.321
314.224
314.117
314.007
313.898
313.797
313.723
308.236
308.28
308.34
308.405
308.472
308.536
308.594
308.643
308.678
308.696
308.696
308.678
308.643
308.594
308.536
308.472
308.405
308.34
308.28
308.236
302.759
302.774
302.794
302.816
302.839
302.86
302.88
302.896
302.908
302.914
302.914
302.908
302.896
302.88
302.86
302.839
302.816
302.794
302.774
302.759
342.674
342.904
343.193
343.502
343.814
344.114
344.386
344.612
344.774
344.859
344.859
344.774
344.612
344.386
344.114
343.814
343.502
343.193
342.904
342.674
336.87
337.065
337.315
337.582
337.853
338.112
338.348
338.543
338.683
338.757
338.757
338.683
338.543
338.348
338.112
337.853
337.582
337.315
337.065
336.87
331.117
331.279
331.489
331.715
331.944
332.163
332.362
332.527
332.646
332.708
332.708
332.646
332.527
332.362
332.163
331.944
331.715
331.489
331.279
331.117
325.406
325.536
325.707
325.892
326.079
326.259
326.421
326.556
326.653
326.704
326.704
326.653
326.556
326.421
326.259
326.079
325.892
325.707
325.536
325.406
319.729
319.829
319.962
320.106
320.251
320.391
320.517
320.622
320.697
320.737
320.737
320.697
320.622
320.517
320.391
320.251
320.106
319.962
319.829
319.729
314.08
314.15
314.245
314.348
314.452
314.551
314.642
314.717
314.77
314.798
314.798
314.77
314.717
314.642
314.551
314.452
314.348
314.245
314.15
314.08
308.45
308.492
308.549
308.61
308.673
308.732
308.787
308.832
308.864
308.881
308.881
308.864
308.832
308.787
308.732
308.673
308.61
308.549
308.492
308.45
302.831
302.845
302.864
302.885
302.906
302.926
302.944
302.959
302.97
302.976
302.976
302.97
302.959
302.944
302.926
302.906
302.885
302.864
302.845
302.831
343.92
344.138
344.41
344.699
344.99
345.268
345.519
345.727
345.875
345.953
345.953
345.875
345.727
345.519
345.268
344.99
344.699
344.41
344.138
343.92
337.946
338.13
338.365
338.615
338.867
339.108
339.325
339.505
339.634
339.701
339.701
339.634
339.505
339.325
339.108
338.867
338.615
338.365
338.13
337.946
332.023
332.176
332.374
332.586
332.799
333.002
333.186
333.338
333.447
333.503
333.503
333.447
333.338
333.186
333.002
332.799
332.586
332.374
332.176
332.023
326.145
326.268
326.429
326.602
326.776
326.943
327.093
327.217
327.306
327.353
327.353
327.306
327.217
327.093
326.943
326.776
326.602
326.429
326.268
326.145
320.303
320.397
320.522
320.657
320.792
320.922
321.039
321.135
321.204
321.24
321.24
321.204
321.135
321.039
320.922
320.792
320.657
320.522
320.397
320.303
314.489
314.555
314.645
314.741
314.838
314.93
315.014
315.082
315.132
315.158
315.158
315.132
315.082
315.014
314.93
314.838
314.741
314.645
314.555
314.489
308.695
308.735
308.788
308.846
308.904
308.96
309.01
309.051
309.081
309.096
309.096
309.081
309.051
309.01
308.96
308.904
308.846
308.788
308.735
308.695
302.913
302.927
302.944
302.964
302.983
303.002
303.019
303.033
303.043
303.048
303.048
303.043
303.033
303.019
303.002
302.983
302.964
302.944
302.927
302.913
345.328
345.532
345.787
346.056
346.326
346.582
346.812
347.001
347.137
347.207
347.207
347.137
347.001
346.812
346.582
346.326
346.056
345.787
345.532
345.328
339.16
339.333
339.553
339.786
340.019
340.241
340.441
340.605
340.722
340.783
340.783
340.722
340.605
340.441
340.241
340.019
339.786
339.553
339.333
339.16
333.047
333.19
333.375
333.573
333.77
333.958
334.126
334.265
334.364
334.416
334.416
334.364
334.265
334.126
333.958
333.77
333.573
333.375
333.19
333.047
326.98
327.095
327.246
327.407
327.569
327.722
327.86
327.974
328.055
328.097
328.097
328.055
327.974
327.86
327.722
327.569
327.407
327.246
327.095
326.98
320.95
321.039
321.156
321.281
321.407
321.526
321.634
321.722
321.785
321.818
321.818
321.785
321.722
321.634
321.526
321.407
321.281
321.156
321.039
320.95
314.951
315.013
315.097
315.186
315.276
315.361
315.438
315.501
315.546
315.569
315.569
315.546
315.501
315.438
315.361
315.276
315.186
315.097
315.013
314.951
308.972
309.009
309.059
309.113
309.167
309.218
309.264
309.302
309.329
309.343
309.343
309.329
309.302
309.264
309.218
309.167
309.113
309.059
309.009
308.972
303.006
303.019
303.035
303.053
303.071
303.089
303.104
303.117
303.126
303.13
303.13
303.126
303.117
303.104
303.089
303.071
303.053
303.035
303.019
303.006
346.898
347.089
347.326
347.576
347.824
348.059
348.268
348.44
348.563
348.627
348.627
348.563
348.44
348.268
348.059
347.824
347.576
347.326
347.089
346.898
340.515
340.676
340.881
341.097
341.312
341.516
341.697
341.846
341.952
342.008
342.008
341.952
341.846
341.697
341.516
341.312
341.097
340.881
340.676
340.515
334.188
334.323
334.495
334.678
334.859
335.032
335.185
335.311
335.401
335.448
335.448
335.401
335.311
335.185
335.032
334.859
334.678
334.495
334.323
334.188
327.911
328.019
328.159
328.309
328.457
328.598
328.724
328.827
328.9
328.939
328.939
328.9
328.827
328.724
328.598
328.457
328.309
328.159
328.019
327.911
321.673
321.756
321.865
321.981
322.096
322.206
322.304
322.384
322.441
322.471
322.471
322.441
322.384
322.304
322.206
322.096
321.981
321.865
321.756
321.673
315.466
315.524
315.602
315.685
315.768
315.846
315.916
315.973
316.014
316.035
316.035
316.014
315.973
315.916
315.846
315.768
315.685
315.602
315.524
315.466
309.281
309.316
309.363
309.412
309.462
309.509
309.551
309.585
309.61
309.623
309.623
309.61
309.585
309.551
309.509
309.462
309.412
309.363
309.316
309.281
303.11
303.121
303.137
303.154
303.17
303.186
303.2
303.212
303.22
303.224
303.224
303.22
303.212
303.2
303.186
303.17
303.154
303.137
303.121
303.11
348.631
348.809
349.029
349.259
349.486
349.701
349.891
350.047
350.157
350.215
350.215
350.157
350.047
349.891
349.701
349.486
349.259
349.029
348.809
348.631
342.01
342.161
342.35
342.549
342.747
342.932
343.097
343.232
343.328
343.377
343.377
343.328
343.232
343.097
342.932
342.747
342.549
342.35
342.161
342.01
335.449
335.574
335.733
335.902
336.069
336.226
336.366
336.48
336.56
336.603
336.603
336.56
336.48
336.366
336.226
336.069
335.902
335.733
335.574
335.449
328.939
329.039
329.169
329.307
329.444
329.572
329.686
329.78
329.846
329.88
329.88
329.846
329.78
329.686
329.572
329.444
329.307
329.169
329.039
328.939
322.47
322.547
322.648
322.756
322.862
322.962
323.051
323.123
323.175
323.201
323.201
323.175
323.123
323.051
322.962
322.862
322.756
322.648
322.547
322.47
316.035
316.089
316.161
316.238
316.314
316.385
316.449
316.5
316.537
316.556
316.556
316.537
316.5
316.449
316.385
316.314
316.238
316.161
316.089
316.035
309.622
309.655
309.698
309.744
309.79
309.832
309.871
309.902
309.924
309.935
309.935
309.924
309.902
309.871
309.832
309.79
309.744
309.698
309.655
309.622
303.224
303.235
303.249
303.265
303.28
303.294
303.307
303.318
303.325
303.329
303.329
303.325
303.318
303.307
303.294
303.28
303.265
303.249
303.235
303.224
350.528
350.693
350.896
351.108
351.315
351.51
351.682
351.822
351.922
351.973
351.973
351.922
351.822
351.682
351.51
351.315
351.108
350.896
350.693
350.528
343.647
343.786
343.961
344.144
344.325
344.493
344.643
344.764
344.85
344.894
344.894
344.85
344.764
344.643
344.493
344.325
344.144
343.961
343.786
343.647
336.828
336.944
337.092
337.246
337.399
337.542
337.668
337.771
337.843
337.881
337.881
337.843
337.771
337.668
337.542
337.399
337.246
337.092
336.944
336.828
330.064
330.157
330.277
330.404
330.528
330.645
330.749
330.833
330.892
330.923
330.923
330.892
330.833
330.749
330.645
330.528
330.404
330.277
330.157
330.064
323.343
323.415
323.508
323.606
323.704
323.794
323.875
323.94
323.986
324.01
324.01
323.986
323.94
323.875
323.794
323.704
323.606
323.508
323.415
323.343
316.657
316.708
316.774
316.845
316.914
316.979
317.036
317.083
317.116
317.133
317.133
317.116
317.083
317.036
316.979
316.914
316.845
316.774
316.708
316.657
309.996
310.026
310.066
310.108
310.15
310.189
310.223
310.251
310.271
310.281
310.281
310.271
310.251
310.223
310.189
310.15
310.108
310.066
310.026
309.996
303.349
303.359
303.372
303.387
303.401
303.414
303.425
303.435
303.441
303.445
303.445
303.441
303.435
303.425
303.414
303.401
303.387
303.372
303.359
303.349
352.589
352.741
352.928
353.122
353.311
353.487
353.643
353.768
353.857
353.903
353.903
353.857
353.768
353.643
353.487
353.311
353.122
352.928
352.741
352.589
345.424
345.553
345.714
345.882
346.046
346.199
346.334
346.443
346.519
346.559
346.559
346.519
346.443
346.334
346.199
346.046
345.882
345.714
345.553
345.424
338.326
338.433
338.569
338.711
338.85
338.979
339.093
339.185
339.25
339.284
339.284
339.25
339.185
339.093
338.979
338.85
338.711
338.569
338.433
338.326
331.285
331.371
331.482
331.598
331.712
331.818
331.911
331.986
332.04
332.067
332.067
332.04
331.986
331.911
331.818
331.712
331.598
331.482
331.371
331.285
324.291
324.357
324.443
324.533
324.622
324.704
324.776
324.835
324.877
324.898
324.898
324.877
324.835
324.776
324.704
324.622
324.533
324.443
324.357
324.291
317.333
317.38
317.441
317.505
317.569
317.628
317.679
317.721
317.751
317.766
317.766
317.751
317.721
317.679
317.628
317.569
317.505
317.441
317.38
317.333
310.401
310.429
310.466
310.504
310.542
310.578
310.609
310.634
310.652
310.661
310.661
310.652
310.634
310.609
310.578
310.542
310.504
310.466
310.429
310.401
303.485
303.494
303.506
303.519
303.532
303.544
303.554
303.563
303.569
303.572
303.572
303.569
303.563
303.554
303.544
303.532
303.519
303.506
303.494
303.485
354.81
354.95
355.122
355.299
355.471
355.63
355.77
355.882
355.962
356.003
356.003
355.962
355.882
355.77
355.63
355.471
355.299
355.122
354.95
354.81
347.339
347.458
347.606
347.759
347.908
348.047
348.168
348.266
348.334
348.37
348.37
348.334
348.266
348.168
348.047
347.908
347.759
347.606
347.458
347.339
339.94
340.039
340.163
340.293
340.419
340.536
340.639
340.721
340.779
340.809
340.809
340.779
340.721
340.639
340.536
340.419
340.293
340.163
340.039
339.94
332.601
332.68
332.782
332.888
332.991
333.087
333.171
333.239
333.286
333.311
333.311
333.286
333.239
333.171
333.087
332.991
332.888
332.782
332.68
332.601
325.311
325.372
325.451
325.534
325.614
325.689
325.754
325.807
325.844
325.863
325.863
325.844
325.807
325.754
325.689
325.614
325.534
325.451
325.372
325.311
318.061
318.104
318.16
318.219
318.276
318.33
318.376
318.414
318.44
318.454
318.454
318.44
318.414
318.376
318.33
318.276
318.219
318.16
318.104
318.061
310.837
310.863
310.897
310.932
310.967
310.999
311.027
311.049
311.065
311.074
311.074
311.065
311.049
311.027
310.999
310.967
310.932
310.897
310.863
310.837
303.631
303.64
303.651
303.663
303.674
303.685
303.694
303.702
303.707
303.71
303.71
303.707
303.702
303.694
303.685
303.674
303.663
303.651
303.64
303.631
357.182
357.312
357.469
357.63
357.786
357.93
358.055
358.156
358.227
358.263
358.263
358.227
358.156
358.055
357.93
357.786
357.63
357.469
357.312
357.182
349.384
349.493
349.629
349.769
349.904
350.028
350.137
350.225
350.286
350.318
350.318
350.286
350.225
350.137
350.028
349.904
349.769
349.629
349.493
349.384
341.661
341.752
341.867
341.985
342.099
342.205
342.297
342.371
342.423
342.45
342.45
342.423
342.371
342.297
342.205
342.099
341.985
341.867
341.752
341.661
334.004
334.077
334.17
334.267
334.36
334.447
334.522
334.583
334.625
334.647
334.647
334.625
334.583
334.522
334.447
334.36
334.267
334.17
334.077
334.004
326.399
326.455
326.527
326.603
326.675
326.743
326.801
326.849
326.882
326.899
326.899
326.882
326.849
326.801
326.743
326.675
326.603
326.527
326.455
326.399
318.836
318.875
318.927
318.981
319.033
319.081
319.123
319.157
319.18
319.192
319.192
319.18
319.157
319.123
319.081
319.033
318.981
318.927
318.875
318.836
311.302
311.326
311.357
311.389
311.42
311.449
311.475
311.495
311.509
311.516
311.516
311.509
311.495
311.475
311.449
311.42
311.389
311.357
311.326
311.302
303.787
303.795
303.805
303.816
303.826
303.836
303.844
303.851
303.856
303.858
303.858
303.856
303.851
303.844
303.836
303.826
303.816
303.805
303.795
303.787
359.682
359.801
359.945
360.092
360.233
360.363
360.475
360.566
360.629
360.661
360.661
360.629
360.566
360.475
360.363
360.233
360.092
359.945
359.801
359.682
351.534
351.635
351.759
351.886
352.009
352.122
352.219
352.298
352.352
352.381
352.381
352.352
352.298
352.219
352.122
352.009
351.886
351.759
351.635
351.534
343.469
343.553
343.657
343.765
343.869
343.964
344.047
344.113
344.16
344.184
344.184
344.16
344.113
344.047
343.964
343.869
343.765
343.657
343.553
343.469
335.475
335.542
335.627
335.715
335.8
335.879
335.946
336.001
336.039
336.058
336.058
336.039
336.001
335.946
335.879
335.8
335.715
335.627
335.542
335.475
327.538
327.59
327.656
327.725
327.791
327.852
327.904
327.947
327.976
327.991
327.991
327.976
327.947
327.904
327.852
327.791
327.725
327.656
327.59
327.538
319.647
319.684
319.731
319.78
319.827
319.871
319.908
319.938
319.96
319.97
319.97
319.96
319.938
319.908
319.871
319.827
319.78
319.731
319.684
319.647
311.788
311.81
311.839
311.868
311.896
311.923
311.945
311.963
311.976
311.983
311.983
311.976
311.963
311.945
311.923
311.896
311.868
311.839
311.81
311.788
303.949
303.957
303.966
303.976
303.986
303.994
304.002
304.008
304.012
304.014
304.014
304.012
304.008
304.002
303.994
303.986
303.976
303.966
303.957
303.949
362.247
362.357
362.488
362.622
362.751
362.868
362.97
363.05
363.107
363.136
363.136
363.107
363.05
362.97
362.868
362.751
362.622
362.488
362.357
362.247
353.731
353.824
353.938
354.054
354.165
354.267
354.355
354.425
354.475
354.5
354.5
354.475
354.425
354.355
354.267
354.165
354.054
353.938
353.824
353.731
345.309
345.386
345.482
345.58
345.674
345.761
345.835
345.895
345.936
345.958
345.958
345.936
345.895
345.835
345.761
345.674
345.58
345.482
345.386
345.309
336.966
337.028
337.106
337.187
337.264
337.335
337.396
337.445
337.479
337.496
337.496
337.479
337.445
337.396
337.335
337.264
337.187
337.106
337.028
336.966
328.69
328.737
328.798
328.861
328.921
328.976
329.024
329.062
329.088
329.102
329.102
329.088
329.062
329.024
328.976
328.921
328.861
328.798
328.737
328.69
320.465
320.499
320.542
320.587
320.63
320.67
320.704
320.731
320.75
320.759
320.759
320.75
320.731
320.704
320.67
320.63
320.587
320.542
320.499
320.465
312.278
312.298
312.324
312.351
312.377
312.401
312.421
312.437
312.449
312.455
312.455
312.449
312.437
312.421
312.401
312.377
312.351
312.324
312.298
312.278
304.113
304.12
304.129
304.138
304.146
304.154
304.161
304.167
304.17
304.172
304.172
304.17
304.167
304.161
304.154
304.146
304.138
304.129
304.12
304.113
364.717
364.819
364.94
365.063
365.18
365.287
365.38
365.453
365.504
365.53
365.53
365.504
365.453
365.38
365.287
365.18
365.063
364.94
364.819
364.717
355.821
355.907
356.012
356.119
356.221
356.314
356.394
356.458
356.502
356.525
356.525
356.502
356.458
356.394
356.314
356.221
356.119
356.012
355.907
355.821
347.04
347.111
347.2
347.29
347.377
347.456
347.524
347.578
347.615
347.635
347.635
347.615
347.578
347.524
347.456
347.377
347.29
347.2
347.111
347.04
338.357
338.414
338.487
338.561
338.632
338.697
338.752
338.797
338.828
338.844
338.844
338.828
338.797
338.752
338.697
338.632
338.561
338.487
338.414
338.357
329.756
329.8
329.856
329.914
329.969
330.02
330.063
330.098
330.122
330.134
330.134
330.122
330.098
330.063
330.02
329.969
329.914
329.856
329.8
329.756
321.218
321.25
321.29
321.331
321.371
321.407
321.438
321.463
321.48
321.489
321.489
321.48
321.463
321.438
321.407
321.371
321.331
321.29
321.25
321.218
312.727
312.746
312.77
312.794
312.818
312.84
312.859
312.874
312.884
312.889
312.889
312.884
312.874
312.859
312.84
312.818
312.794
312.77
312.746
312.727
304.263
304.269
304.277
304.286
304.294
304.301
304.307
304.312
304.316
304.318
304.318
304.316
304.312
304.307
304.301
304.294
304.286
304.277
304.269
304.263
366.661
366.757
366.871
366.986
367.096
367.196
367.281
367.349
367.397
367.421
367.421
367.397
367.349
367.281
367.196
367.096
366.986
366.871
366.757
366.661
357.403
357.484
357.583
357.684
357.78
357.867
357.941
358.001
358.042
358.063
358.063
358.042
358.001
357.941
357.867
357.78
357.684
357.583
357.484
357.403
348.31
348.377
348.461
348.546
348.628
348.702
348.765
348.816
348.851
348.869
348.869
348.851
348.816
348.765
348.702
348.628
348.546
348.461
348.377
348.31
339.352
339.406
339.475
339.545
339.612
339.673
339.725
339.767
339.796
339.81
339.81
339.796
339.767
339.725
339.673
339.612
339.545
339.475
339.406
339.352
330.504
330.546
330.599
330.654
330.706
330.753
330.794
330.827
330.849
330.861
330.861
330.849
330.827
330.794
330.753
330.706
330.654
330.599
330.546
330.504
321.74
321.769
321.807
321.847
321.884
321.918
321.947
321.97
321.987
321.995
321.995
321.987
321.97
321.947
321.918
321.884
321.847
321.807
321.769
321.74
313.035
313.052
313.075
313.099
313.121
313.142
313.16
313.173
313.183
313.188
313.188
313.183
313.173
313.16
313.142
313.121
313.099
313.075
313.052
313.035
304.365
304.371
304.379
304.387
304.394
304.401
304.407
304.412
304.415
304.417
304.417
304.415
304.412
304.407
304.401
304.394
304.387
304.379
304.371
304.365
)
;

boundaryField
{
    hotSide
    {
        type            fixedGradient;
        gradient        nonuniform List<scalar> 
400
(
420.578
422.288
425.711
430.854
437.724
446.333
456.692
468.814
482.713
498.404
515.898
535.209
556.348
579.326
604.15
630.83
659.371
689.778
722.057
756.209
424.325
426.006
429.371
434.429
441.19
449.67
459.883
471.848
485.58
501.099
518.421
537.56
558.531
581.346
606.015
632.547
660.949
691.226
723.384
757.425
428.38
430.026
433.321
438.278
444.912
453.239
463.283
475.064
488.604
503.927
521.052
539.998
560.781
583.416
607.915
634.286
662.539
692.678
724.708
758.631
432.677
434.281
437.496
442.336
448.821
456.975
466.824
478.397
491.722
506.826
523.734
542.468
563.048
585.489
609.806
636.008
664.104
694.099
725.996
759.799
437.094
438.651
441.776
446.486
452.805
460.766
470.402
481.748
494.839
509.708
526.384
544.895
565.261
587.502
611.632
637.661
665.598
695.448
727.214
760.898
441.448
442.956
445.983
450.554
456.699
464.456
473.868
484.977
497.827
512.455
528.897
547.182
567.336
589.378
613.324
639.185
666.969
696.68
728.321
761.892
445.489
446.947
449.878
454.31
460.282
467.839
477.032
487.912
500.529
514.926
531.145
549.218
569.173
591.031
614.808
640.515
668.159
697.745
729.274
762.745
448.919
450.332
453.177
457.484
463.301
470.68
479.679
490.357
502.769
516.967
532.993
550.884
570.669
592.371
616.006
641.585
669.113
698.596
730.032
763.421
451.429
452.808
455.586
459.799
465.497
472.741
481.593
492.12
504.38
518.428
534.311
552.069
571.73
593.318
616.85
642.336
669.781
699.19
730.56
763.891
452.759
454.119
456.861
461.022
466.657
473.827
482.601
493.045
505.223
519.192
534.999
552.685
572.281
593.809
617.286
642.723
670.125
699.495
730.832
764.132
452.759
454.119
456.861
461.022
466.657
473.827
482.601
493.045
505.223
519.192
534.999
552.685
572.281
593.809
617.286
642.723
670.125
699.495
730.832
764.132
451.429
452.808
455.586
459.799
465.497
472.741
481.593
492.12
504.38
518.428
534.311
552.069
571.73
593.318
616.85
642.336
669.781
699.19
730.56
763.891
448.919
450.332
453.177
457.484
463.301
470.68
479.679
490.357
502.769
516.967
532.993
550.884
570.669
592.371
616.006
641.585
669.113
698.596
730.032
763.421
445.489
446.947
449.878
454.31
460.282
467.839
477.032
487.912
500.529
514.926
531.145
549.218
569.173
591.031
614.808
640.515
668.159
697.745
729.274
762.745
441.448
442.956
445.983
450.554
456.699
464.456
473.868
484.977
497.827
512.455
528.897
547.182
567.336
589.378
613.324
639.185
666.969
696.68
728.321
761.892
437.094
438.651
441.776
446.486
452.805
460.766
470.402
481.748
494.839
509.708
526.384
544.895
565.261
587.502
611.632
637.661
665.598
695.448
727.214
760.898
432.677
434.281
437.496
442.336
448.821
456.975
466.824
478.397
491.722
506.826
523.734
542.468
563.048
585.489
609.806
636.008
664.104
694.099
725.996
759.799
428.38
430.026
433.321
438.278
444.912
453.239
463.283
475.064
488.604
503.927
521.052
539.998
560.781
583.416
607.915
634.286
662.539
692.678
724.708
758.631
424.325
426.006
429.371
434.429
441.19
449.67
459.883
471.848
485.58
501.099
518.421
537.56
558.531
581.346
606.015
632.547
660.949
691.226
723.384
757.425
420.578
422.288
425.711
430.854
437.724
446.333
456.692
468.814
482.713
498.404
515.898
535.209
556.348
579.326
604.15
630.83
659.371
689.778
722.057
756.209
)
;
    }
    coldSide
    {
        type            mixed;
        refValue        uniform 300;
        refGradient     uniform 0;
        valueFraction   uniform 0.991591;
        source          uniform 0;
        value           nonuniform List<scalar> 
400
(
300.021
300.021
300.022
300.022
300.022
300.023
300.023
300.024
300.024
300.025
300.026
300.027
300.028
300.029
300.031
300.032
300.033
300.035
300.036
300.037
300.022
300.022
300.022
300.022
300.022
300.023
300.023
300.024
300.025
300.025
300.026
300.027
300.028