/*--------------------------------*- C++ -*----------------------------------*\
| =========                 |                                                 |
| \\      /  F ield         | OpenFOAM: The Open Source CFD Toolbox           |
|  \\    /   O peration     | Version:  2212                                  |
|   \\  /    A nd           | Website:  www.openfoam.com                      |
|    \\/     M anipulation  |                                                 |
\*---------------------------------------------------------------------------*/
FoamFile
{
    version     2.0;
    format      ascii;
    arch        "LSB;label=32;scalar=64";
    class       volScalarField;
    location    "0";
    object      Tdirect;
}
// * * * * * * * * * * * * * * * * * * * * * * * * * * * * * * * * * * * * * //

dimensions      [0 0 0 1 0 0 0];

internalField   nonuniform List<scalar> 
3200
(
323.293
323.697
324.213
324.776
325.355
325.923
326.448
326.891
327.214
327.384
327.384
327.214
326.891
326.448
325.923
325.355
324.776
324.213
323.697
323.293
320.289
320.631
321.076
321.563
322.064
322.556
323.01
323.392
323.671
323.818
323.818
323.671
323.392
323.01
322.556
322.064
321.563
321.076
320.631
320.289
317.243
317.526
317.901
318.312
318.736
319.151
319.534
319.857
320.092
320.217
320.217
320.092
319.857
319.534
319.151
318.736
318.312
317.901
317.526
317.243
314.16
314.388
314.694
315.03
315.376
315.715
316.028
316.292
316.484
316.585
316.585
316.484
316.292
316.028
315.715
315.376
315.03
314.694
314.388
314.16
311.047
311.222
311.459
311.72
311.99
312.253
312.496
312.701
312.85
312.929
312.929
312.85
312.701
312.496
312.253
311.99
311.72
311.459
311.222
311.047
307.911
308.035
308.204
308.391
308.583
308.771
308.945
309.091
309.197
309.253
309.253
309.197
309.091
308.945
308.771
308.583
308.391
308.204
308.035
307.911
304.759
304.833
304.934
305.046
305.161
305.274
305.379
305.466
305.53
305.564
305.564
305.53
305.466
305.379
305.274
305.161
305.046
304.934
304.833
304.759
301.596
301.621
301.655
301.692
301.731
301.769
301.804
301.833
301.855
301.866
301.866
301.855
301.833
301.804
301.769
301.731
301.692
301.655
301.621
301.596
323.362
323.763
324.274
324.831
325.405
325.967
326.485
326.923
327.241
327.41
327.41
327.241
326.923
326.485
325.967
325.405
324.831
324.274
323.763
323.362
320.349
320.688
321.13
321.612
322.108
322.594
323.042
323.42
323.695
323.841
323.841
323.695
323.42
323.042
322.594
322.108
321.612
321.13
320.688
320.349
317.293
317.575
317.947
318.354
318.773
319.184
319.563
319.882
320.114
320.236
320.236
320.114
319.882
319.563
319.184
318.773
318.354
317.947
317.575
317.293
314.201
314.428
314.731
315.064
315.406
315.742
316.051
316.312
316.501
316.601
316.601
316.501
316.312
316.051
315.742
315.406
315.064
314.731
314.428
314.201
311.079
311.254
311.489
311.747
312.014
312.274
312.515
312.717
312.864
312.942
312.942
312.864
312.717
312.515
312.274
312.014
311.747
311.489
311.254
311.079
307.934
308.058
308.225
308.41
308.6
308.786
308.958
309.102
309.207
309.262
309.262
309.207
309.102
308.958
308.786
308.6
308.41
308.225
308.058
307.934
304.773
304.846
304.947
305.058
305.172
305.284
305.387
305.473
305.536
305.569
305.569
305.536
305.473
305.387
305.284
305.172
305.058
304.947
304.846
304.773
301.601
301.626
301.659
301.696
301.735
301.772
301.807
301.836
301.857
301.868
301.868
301.857
301.836
301.807
301.772
301.735
301.696
301.659
301.626
301.601
323.5
323.894
324.397
324.944
325.505
326.056
326.562
326.989
327.299
327.463
327.463
327.299
326.989
326.562
326.056
325.505
324.944
324.397
323.894
323.5
320.469
320.803
321.237
321.71
322.196
322.672
323.11
323.479
323.747
323.888
323.888
323.747
323.479
323.11
322.672
322.196
321.71
321.237
320.803
320.469
317.395
317.672
318.038
318.437
318.848
319.25
319.62
319.932
320.158
320.277
320.277
320.158
319.932
319.62
319.25
318.848
318.437
318.038
317.672
317.395
314.285
314.508
314.806
315.133
315.468
315.797
316.099
316.353
316.538
316.635
316.635
316.538
316.353
316.099
315.797
315.468
315.133
314.806
314.508
314.285
311.145
311.316
311.547
311.801
312.062
312.317
312.552
312.75
312.893
312.969
312.969
312.893
312.75
312.552
312.317
312.062
311.801
311.547
311.316
311.145
307.981
308.102
308.267
308.448
308.635
308.817
308.985
309.126
309.228
309.282
309.282
309.228
309.126
308.985
308.817
308.635
308.448
308.267
308.102
307.981
304.801
304.873
304.972
305.081
305.193
305.302
305.403
305.487
305.549
305.581
305.581
305.549
305.487
305.403
305.302
305.193
305.081
304.972
304.873
304.801
301.61
301.635
301.668
301.704
301.742
301.778
301.812
301.84
301.861
301.872
301.872
301.861
301.84
301.812
301.778
301.742
301.704
301.668
301.635
301.61
323.707
324.092
324.583
325.114
325.66
326.192
326.681
327.093
327.391
327.549
327.549
327.391
327.093
326.681
326.192
325.66
325.114
324.583
324.092
323.707
320.65
320.976
321.399
321.859
322.331
322.791
323.215
323.57
323.828
323.964
323.964
323.828
323.57
323.215
322.791
322.331
321.859
321.399
320.976
320.65
317.549
317.819
318.176
318.565
318.963
319.353
319.71
320.01
320.228
320.343
320.343
320.228
320.01
319.71
319.353
318.963
318.565
318.176
317.819
317.549
314.411
314.629
314.919
315.237
315.563
315.881
316.173
316.418
316.596
316.69
316.69
316.596
316.418
316.173
315.881
315.563
315.237
314.919
314.629
314.411
311.243
311.41
311.636
311.883
312.136
312.383
312.61
312.801
312.939
313.011
313.011
312.939
312.801
312.61
312.383
312.136
311.883
311.636
311.41
311.243
308.052
308.17
308.331
308.507
308.688
308.864
309.026
309.162
309.261
309.313
309.313
309.261
309.162
309.026
308.864
308.688
308.507
308.331
308.17
308.052
304.843
304.914
305.01
305.116
305.225
305.331
305.428
305.51
305.569
305.6
305.6
305.569
305.51
305.428
305.331
305.225
305.116
305.01
304.914
304.843
301.625
301.648
301.68
301.716
301.752
301.788
301.821
301.848
301.868
301.878
301.878
301.868
301.848
301.821
301.788
301.752
301.716
301.68
301.648
301.625
323.986
324.359
324.833
325.346
325.87
326.381
326.848
327.24
327.524
327.674
327.674
327.524
327.24
326.848
326.381
325.87
325.346
324.833
324.359
323.986
320.892
321.209
321.617
322.061
322.515
322.957
323.361
323.7
323.946
324.075
324.075
323.946
323.7
323.361
322.957
322.515
322.061
321.617
321.209
320.892
317.755
318.017
318.362
318.737
319.12
319.494
319.835
320.122
320.329
320.438
320.438
320.329
320.122
319.835
319.494
319.12
318.737
318.362
318.017
317.755
314.58
314.792
315.072
315.379
315.692
315.998
316.277
316.511
316.68
316.769
316.769
316.68
316.511
316.277
315.998
315.692
315.379
315.072
314.792
314.58
311.375
311.537
311.755
311.993
312.237
312.474
312.691
312.873
313.004
313.074
313.074
313.004
312.873
312.691
312.474
312.237
311.993
311.755
311.537
311.375
308.146
308.261
308.416
308.586
308.76
308.93
309.085
309.214
309.308
309.358
309.358
309.308
309.214
309.085
308.93
308.76
308.586
308.416
308.261
308.146
304.9
304.969
305.062
305.164
305.268
305.37
305.463
305.541
305.597
305.627
305.627
305.597
305.541
305.463
305.37
305.268
305.164
305.062
304.969
304.9
301.644
301.667
301.698
301.732
301.767
301.801
301.832
301.858
301.877
301.887
301.887
301.877
301.858
301.832
301.801
301.767
301.732
301.698
301.667
301.644
324.337
324.696
325.151
325.642
326.141
326.626
327.068
327.438
327.706
327.846
327.846
327.706
327.438
327.068
326.626
326.141
325.642
325.151
324.696
324.337
321.198
321.502
321.895
322.319
322.752
323.171
323.554
323.874
324.105
324.227
324.227
324.105
323.874
323.554
323.171
322.752
322.319
321.895
321.502
321.198
318.015
318.267
318.598
318.957
319.322
319.677
320
320.27
320.466
320.568
320.568
320.466
320.27
320
319.677
319.322
318.957
318.598
318.267
318.015
314.794
314.997
315.267
315.56
315.859
316.148
316.413
316.634
316.793
316.877
316.877
316.793
316.634
316.413
316.148
315.859
315.56
315.267
314.997
314.794
311.542
311.698
311.907
312.135
312.367
312.592
312.798
312.969
313.093
313.158
313.158
313.093
312.969
312.798
312.592
312.367
312.135
311.907
311.698
311.542
308.265
308.376
308.525
308.688
308.854
309.014
309.161
309.284
309.372
309.418
309.418
309.372
309.284
309.161
309.014
308.854
308.688
308.525
308.376
308.265
304.972
305.038
305.127
305.225
305.324
305.421
305.509
305.583
305.636
305.664
305.664
305.636
305.583
305.509
305.421
305.324
305.225
305.127
305.038
304.972
301.668
301.69
301.72
301.752
301.786
301.818
301.848
301.872
301.89
301.9
301.9
301.89
301.872
301.848
301.818
301.786
301.752
301.72
301.69
301.668
324.762
325.106
325.539
326.005
326.477
326.933
327.348
327.693
327.943
328.074
328.074
327.943
327.693
327.348
326.933
326.477
326.005
325.539
325.106
324.762
321.569
321.86
322.233
322.636
323.045
323.44
323.799
324.098
324.313
324.427
324.427
324.313
324.098
323.799
323.44
323.045
322.636
322.233
321.86
321.569
318.33
318.571
318.886
319.227
319.572
319.906
320.209
320.462
320.644
320.739
320.739
320.644
320.462
320.209
319.906
319.572
319.227
318.886
318.571
318.33
315.052
315.247
315.503
315.782
316.064
316.337
316.585
316.792
316.94
317.018
317.018
316.94
316.792
316.585
316.337
316.064
315.782
315.503
315.247
315.052
311.743
311.892
312.092
312.308
312.528
312.74
312.933
313.093
313.209
313.269
313.269
313.209
313.093
312.933
312.74
312.528
312.308
312.092
311.892
311.743
308.41
308.515
308.657
308.812
308.969
309.12
309.258
309.373
309.455
309.498
309.498
309.455
309.373
309.258
309.12
308.969
308.812
308.657
308.515
308.41
305.059
305.122
305.207
305.3
305.394
305.485
305.567
305.636
305.686
305.712
305.712
305.686
305.636
305.567
305.485
305.394
305.3
305.207
305.122
305.059
301.697
301.718
301.746
301.778
301.809
301.84
301.867
301.89
301.907
301.916
301.916
301.907
301.89
301.867
301.84
301.809
301.778
301.746
301.718
301.697
325.264
325.59
326.001
326.439
326.882
327.308
327.693
328.014
328.244
328.365
328.365
328.244
328.014
327.693
327.308
326.882
326.439
326.001
325.59
325.264
322.005
322.282
322.636
323.015
323.399
323.768
324.101
324.379
324.578
324.682
324.682
324.578
324.379
324.101
323.768
323.399
323.015
322.636
322.282
322.005
318.701
318.93
319.228
319.549
319.874
320.185
320.468
320.702
320.87
320.958
320.958
320.87
320.702
320.468
320.185
319.874
319.549
319.228
318.93
318.701
315.357
315.541
315.785
316.047
316.312
316.567
316.798
316.989
317.127
317.199
317.199
317.127
316.989
316.798
316.567
316.312
316.047
315.785
315.541
315.357
311.981
312.123
312.311
312.515
312.722
312.92
313.099
313.248
313.355
313.411
313.411
313.355
313.248
313.099
312.92
312.722
312.515
312.311
312.123
311.981
308.58
308.68
308.815
308.96
309.108
309.249
309.377
309.484
309.56
309.6
309.6
309.56
309.484
309.377
309.249
309.108
308.96
308.815
308.68
308.58
305.161
305.221
305.302
305.389
305.477
305.563
305.639
305.703
305.749
305.773
305.773
305.749
305.703
305.639
305.563
305.477
305.389
305.302
305.221
305.161
301.731
301.751
301.778
301.808
301.837
301.866
301.892
301.913
301.928
301.936
301.936
301.928
301.913
301.892
301.866
301.837
301.808
301.778
301.751
301.731
325.843
326.152
326.538
326.948
327.361
327.756
328.112
328.406
328.617
328.727
328.727
328.617
328.406
328.112
327.756
327.361
326.948
326.538
326.152
325.843
322.51
322.771
323.104
323.46
323.817
324.159
324.467
324.722
324.905
325
325
324.905
324.722
324.467
324.159
323.817
323.46
323.104
322.771
322.51
319.13
319.346
319.627
319.927
320.23
320.519
320.779
320.995
321.149
321.23
321.23
321.149
320.995
320.779
320.519
320.23
319.927
319.627
319.346
319.13
315.709
315.883
316.112
316.358
316.605
316.842
317.055
317.231
317.357
317.423
317.423
317.357
317.231
317.055
316.842
316.605
316.358
316.112
315.883
315.709
312.256
312.39
312.567
312.758
312.95
313.134
313.3
313.437
313.535
313.586
313.586
313.535
313.437
313.3
313.134
312.95
312.758
312.567
312.39
312.256
308.777
308.871
308.998
309.134
309.272
309.403
309.522
309.619
309.689
309.726
309.726
309.689
309.619
309.522
309.403
309.272
309.134
308.998
308.871
308.777
305.279
305.336
305.412
305.494
305.576
305.655
305.726
305.785
305.827
305.849
305.849
305.827
305.785
305.726
305.655
305.576
305.494
305.412
305.336
305.279
301.771
301.79
301.815
301.843
301.87
301.897
301.921
301.94
301.954
301.962
301.962
301.954
301.94
301.921
301.897
301.87
301.843
301.815
301.79
301.771
326.502
326.792
327.153
327.536
327.918
328.282
328.608
328.877
329.069
329.169
329.169
329.069
328.877
328.608
328.282
327.918
327.536
327.153
326.792
326.502
323.084
323.329
323.641
323.972
324.303
324.618
324.901
325.134
325.3
325.387
325.387
325.3
325.134
324.901
324.618
324.303
323.972
323.641
323.329
323.084
319.617
319.821
320.083
320.363
320.643
320.91
321.149
321.346
321.486
321.56
321.56
321.486
321.346
321.149
320.91
320.643
320.363
320.083
319.821
319.617
316.11
316.273
316.488
316.716
316.945
317.164
317.359
317.52
317.635
317.695
317.695
317.635
317.52
317.359
317.164
316.945
316.716
316.488
316.273
316.11
312.568
312.694
312.86
313.038
313.216
313.386
313.538
313.663
313.752
313.799
313.799
313.752
313.663
313.538
313.386
313.216
313.038
312.86
312.694
312.568
309.001
309.089
309.208
309.335
309.462
309.583
309.692
309.781
309.845
309.879
309.879
309.845
309.781
309.692
309.583
309.462
309.335
309.208
309.089
309.001
305.414
305.467
305.538
305.614
305.691
305.764
305.829
305.883
305.921
305.941
305.941
305.921
305.883
305.829
305.764
305.691
305.614
305.538
305.467
305.414
301.816
301.834
301.858
301.883
301.909
301.933
301.955
301.973
301.986
301.993
301.993
301.986
301.973
301.955
301.933
301.909
301.883
301.858
301.834
301.816
327.243
327.514
327.851
328.205
328.557
328.89
329.188
329.432
329.606
329.697
329.697
329.606
329.432
329.188
328.89
328.557
328.205
327.851
327.514
327.243
323.729
323.959
324.249
324.556
324.861
325.149
325.407
325.619
325.769
325.848
325.848
325.769
325.619
325.407
325.149
324.861
324.556
324.249
323.959
323.729
320.166
320.356
320.6
320.86
321.118
321.362
321.58
321.759
321.887
321.953
321.953
321.887
321.759
321.58
321.362
321.118
320.86
320.6
320.356
320.166
316.56
316.713
316.912
317.124
317.336
317.536
317.714
317.86
317.964
318.019
318.019
317.964
317.86
317.714
317.536
317.336
317.124
316.912
316.713
316.56
312.919
313.037
313.192
313.357
313.521
313.676
313.815
313.929
314.01
314.052
314.052
314.01
313.929
313.815
313.676
313.521
313.357
313.192
313.037
312.919
309.252
309.335
309.445
309.563
309.681
309.792
309.891
309.972
310.03
310.06
310.06
310.03
309.972
309.891
309.792
309.681
309.563
309.445
309.335
309.252
305.565
305.615
305.681
305.752
305.822
305.889
305.949
305.997
306.032
306.05
306.05
306.032
305.997
305.949
305.889
305.822
305.752
305.681
305.615
305.565
301.867
301.883
301.906
301.929
301.953
301.975
301.995
302.012
302.023
302.029
302.029
302.023
302.012
301.995
301.975
301.953
301.929
301.906
301.883
301.867
328.068
328.32
328.632
328.958
329.281
329.585
329.855
330.076
330.233
330.314
330.314
330.233
330.076
329.855
329.585
329.281
328.958
328.632
328.32
328.068
324.447
324.661
324.93
325.213
325.492
325.756
325.99
326.181
326.317
326.388
326.388
326.317
326.181
325.99
325.756
325.492
325.213
324.93
324.661
324.447
320.776
320.953
321.179
321.419
321.655
321.878
322.076
322.238
322.353
322.413
322.413
322.353
322.238
322.076
321.878
321.655
321.419
321.179
320.953
320.776
317.061
317.203
317.388
317.584
317.777
317.96
318.122
318.254
318.348
318.397
318.397
318.348
318.254
318.122
317.96
317.777
317.584
317.388
317.203
317.061
313.31
313.42
313.563
313.715
313.866
314.008
314.134
314.237
314.31
314.348
314.348
314.31
314.237
314.134
314.008
313.866
313.715
313.563
313.42
313.31
309.532
309.609
309.711
309.82
309.928
310.029
310.119
310.193
310.245
310.272
310.272
310.245
310.193
310.119
310.029
309.928
309.82
309.711
309.609
309.532
305.734
305.78
305.841
305.906
305.971
306.032
306.086
306.13
306.161
306.178
306.178
306.161
306.13
306.086
306.032
305.971
305.906
305.841
305.78
305.734
301.923
301.939
301.959
301.981
302.003
302.023
302.041
302.056
302.067
302.072
302.072
302.067
302.056
302.041
302.023
302.003
301.981
301.959
301.939
301.923
328.976
329.21
329.498
329.798
330.093
330.369
330.614
330.813
330.953
331.026
331.026
330.953
330.813
330.614
330.369
330.093
329.798
329.498
329.21
328.976
325.238
325.437
325.685
325.945
326.2
326.44
326.652
326.824
326.946
327.009
327.009
326.946
326.824
326.652
326.44
326.2
325.945
325.685
325.437
325.238
321.448
321.612
321.822
322.041
322.258
322.46
322.64
322.785
322.888
322.942
322.942
322.888
322.785
322.64
322.46
322.258
322.041
321.822
321.612
321.448
317.613
317.745
317.916
318.095
318.272
318.438
318.585
318.704
318.789
318.832
318.832
318.789
318.704
318.585
318.438
318.272
318.095
317.916
317.745
317.613
313.741
313.842
313.975
314.114
314.252
314.381
314.495
314.588
314.654
314.688
314.688
314.654
314.588
314.495
314.381
314.252
314.114
313.975
313.842
313.741
309.84
309.912
310.006
310.106
310.205
310.297
310.378
310.445
310.492
310.516
310.516
310.492
310.445
310.378
310.297
310.205
310.106
310.006
309.912
309.84
305.919
305.962
306.018
306.078
306.138
306.193
306.242
306.282
306.31
306.324
306.324
306.31
306.282
306.242
306.193
306.138
306.078
306.018
305.962
305.919
301.986
302
302.019
302.039
302.059
302.077
302.094
302.107
302.116
302.121
302.121
302.116
302.107
302.094
302.077
302.059
302.039
302.019
302
301.986
329.97
330.186
330.451
330.726
330.995
331.245
331.465
331.644
331.77
331.835
331.835
331.77
331.644
331.465
331.245
330.995
330.726
330.451
330.186
329.97
326.104
326.287
326.515
326.753
326.986
327.203
327.394
327.549
327.658
327.714
327.714
327.658
327.549
327.394
327.203
326.986
326.753
326.515
326.287
326.104
322.183
322.335
322.528
322.729
322.926
323.109
323.271
323.402
323.494
323.542
323.542
323.494
323.402
323.271
323.109
322.926
322.729
322.528
322.335
322.183
318.216
318.338
318.495
318.66
318.821
318.972
319.104
319.211
319.287
319.326
319.326
319.287
319.211
319.104
318.972
318.821
318.66
318.495
318.338
318.216
314.211
314.305
314.427
314.555
314.681
314.798
314.9
314.984
315.043
315.073
315.073
315.043
314.984
314.9
314.798
314.681
314.555
314.427
314.305
314.211
310.177
310.243
310.33
310.422
310.512
310.595
310.669
310.728
310.77
310.792
310.792
310.77
310.728
310.669
310.595
310.512
310.422
310.33
310.243
310.177
306.122
306.161
306.213
306.268
306.322
306.372
306.417
306.452
306.478
306.491
306.491
306.478
306.452
306.417
306.372
306.322
306.268
306.213
306.161
306.122
302.053
302.067
302.084
302.103
302.121
302.137
302.152
302.164
302.173
302.177
302.177
302.173
302.164
302.152
302.137
302.121
302.103
302.084
302.067
302.053
331.047
331.247
331.49
331.741
331.985
332.211
332.409
332.569
332.682
332.74
332.74
332.682
332.569
332.409
332.211
331.985
331.741
331.49
331.247
331.047
327.041
327.21
327.42
327.637
327.849
328.045
328.217
328.356
328.453
328.503
328.503
328.453
328.356
328.217
328.045
327.849
327.637
327.42
327.21
327.041
322.979
323.119
323.296
323.48
323.659
323.825
323.971
324.088
324.171
324.213
324.213
324.171
324.088
323.971
323.825
323.659
323.48
323.296
323.119
322.979
318.87
318.982
319.127
319.277
319.424
319.56
319.679
319.775
319.842
319.877
319.877
319.842
319.775
319.679
319.56
319.424
319.277
319.127
318.982
318.87
314.721
314.808
314.919
315.036
315.15
315.256
315.349
315.424
315.476
315.503
315.503
315.476
315.424
315.349
315.256
315.15
315.036
314.919
314.808
314.721
310.542
310.603
310.683
310.767
310.848
310.924
310.99
311.043
311.081
311.1
311.1
311.081
311.043
310.99
310.924
310.848
310.767
310.683
310.603
310.542
306.341
306.378
306.425
306.476
306.525
306.57
306.61
306.642
306.664
306.676
306.676
306.664
306.642
306.61
306.57
306.525
306.476
306.425
306.378
306.341
302.127
302.139
302.155
302.172
302.189
302.204
302.217
302.228
302.235
302.239
302.239
302.235
302.228
302.217
302.204
302.189
302.172
302.155
302.139
302.127
332.204
332.388
332.61
332.839
333.06
333.264
333.442
333.586
333.686
333.738
333.738
333.686
333.586
333.442
333.264
333.06
332.839
332.61
332.388
332.204
328.047
328.202
328.395
328.593
328.785
328.962
329.116
329.24
329.327
329.372
329.372
329.327
329.24
329.116
328.962
328.785
328.593
328.395
328.202
328.047
323.833
323.962
324.124
324.291
324.454
324.604
324.734
324.839
324.913
324.951
324.951
324.913
324.839
324.734
324.604
324.454
324.291
324.124
323.962
323.833
319.57
319.673
319.806
319.943
320.076
320.198
320.305
320.391
320.452
320.483
320.483
320.452
320.391
320.305
320.198
320.076
319.943
319.806
319.673
319.57
315.267
315.346
315.449
315.555
315.659
315.754
315.838
315.905
315.952
315.976
315.976
315.952
315.905
315.838
315.754
315.659
315.555
315.449
315.346
315.267
310.932
310.989
311.062
311.138
311.212
311.28
311.34
311.388
311.421
311.438
311.438
311.421
311.388
311.34
311.28
311.212
311.138
311.062
310.989
310.932
306.576
306.609
306.653
306.699
306.743
306.784
306.82
306.849
306.869
306.88
306.88
306.869
306.849
306.82
306.784
306.743
306.699
306.653
306.609
306.576
302.206
302.217
302.232
302.247
302.262
302.276
302.288
302.297
302.304
302.308
302.308
302.304
302.297
302.288
302.276
302.262
302.247
302.232
302.217
302.206
333.426
333.595
333.799
334.007
334.208
334.392
334.552
334.68
334.77
334.816
334.816
334.77
334.68
334.552
334.392
334.208
334.007
333.799
333.595
333.426
329.108
329.251
329.427
329.607
329.781
329.941
330.08
330.191
330.269
330.309
330.309
330.269
330.191
330.08
329.941
329.781
329.607
329.427
329.251
329.108
324.731
324.85
324.998
325.151
325.298
325.434
325.551
325.645
325.711
325.745
325.745
325.711
325.645
325.551
325.434
325.298
325.151
324.998
324.85
324.731
320.306
320.401
320.522
320.647
320.768
320.878
320.975
321.052
321.106
321.133
321.133
321.106
321.052
320.975
320.878
320.768
320.647
320.522
320.401
320.306
315.839
315.913
316.007
316.104
316.198
316.284
316.359
316.419
316.461
316.482
316.482
316.461
316.419
316.359
316.284
316.198
316.104
316.007
315.913
315.839
311.342
311.394
311.461
311.53
311.597
311.659
311.712
311.755
311.785
311.801
311.801
311.785
311.755
311.712
311.659
311.597
311.53
311.461
311.394
311.342
306.822
306.853
306.893
306.935
306.975
307.012
307.044
307.07
307.088
307.097
307.097
307.088
307.07
307.044
307.012
306.975
306.935
306.893
306.853
306.822
302.288
302.299
302.312
302.326
302.34
302.352
302.363
302.371
302.377
302.381
302.381
302.377
302.371
302.363
302.352
302.34
302.326
302.312
302.299
302.288
334.681
334.836
335.023
335.213
335.395
335.562
335.706
335.821
335.901
335.942
335.942
335.901
335.821
335.706
335.562
335.395
335.213
335.023
334.836
334.681
330.192
330.323
330.485
330.649
330.807
330.952
331.077
331.177
331.246
331.282
331.282
331.246
331.177
331.077
330.952
330.807
330.649
330.485
330.323
330.192
325.646
325.755
325.891
326.03
326.164
326.287
326.393
326.477
326.536
326.566
326.566
326.536
326.477
326.393
326.287
326.164
326.03
325.891
325.755
325.646
321.052
321.139
321.25
321.365
321.474
321.575
321.661
321.731
321.779
321.804
321.804
321.779
321.731
321.661
321.575
321.474
321.365
321.25
321.139
321.052
316.418
316.486
316.572
316.661
316.746
316.824
316.892
316.946
316.983
317.003
317.003
316.983
316.946
316.892
316.824
316.746
316.661
316.572
316.486
316.418
311.755
311.802
311.864
311.927
311.989
312.044
312.093
312.131
312.158
312.172
312.172
312.158
312.131
312.093
312.044
311.989
311.927
311.864
311.802
311.755
307.069
307.098
307.135
307.173
307.21
307.243
307.272
307.296
307.312
307.32
307.32
307.312
307.296
307.272
307.243
307.21
307.173
307.135
307.098
307.069
302.371
302.381
302.393
302.406
302.418
302.429
302.439
302.447
302.452
302.455
302.455
302.452
302.447
302.439
302.429
302.418
302.406
302.393
302.381
302.371
335.884
336.028
336.2
336.375
336.541
336.693
336.824
336.928
337
337.038
337.038
337
336.928
336.824
336.693
336.541
336.375
336.2
336.028
335.884
331.219
331.34
331.489
331.641
331.786
331.918
332.031
332.122
332.185
332.217
332.217
332.185
332.122
332.031
331.918
331.786
331.641
331.489
331.34
331.219
326.502
326.603
326.729
326.858
326.981
327.093
327.189
327.266
327.319
327.347
327.347
327.319
327.266
327.189
327.093
326.981
326.858
326.729
326.603
326.502
321.744
321.826
321.928
322.034
322.134
322.226
322.305
322.368
322.412
322.435
322.435
322.412
322.368
322.305
322.226
322.134
322.034
321.928
321.826
321.744
316.952
317.014
317.094
317.176
317.255
317.326
317.388
317.437
317.471
317.489
317.489
317.471
317.437
317.388
317.326
317.255
317.176
317.094
317.014
316.952
312.133
312.177
312.234
312.293
312.349
312.4
312.445
312.48
312.504
312.517
312.517
312.504
312.48
312.445
312.4
312.349
312.293
312.234
312.177
312.133
307.296
307.322
307.356
307.391
307.425
307.456
307.483
307.504
307.518
307.526
307.526
307.518
307.504
307.483
307.456
307.425
307.391
307.356
307.322
307.296
302.447
302.456
302.467
302.479
302.49
302.501
302.509
302.517
302.522
302.524
302.524
302.522
302.517
302.509
302.501
302.49
302.479
302.467
302.456
302.447
336.822
336.957
337.119
337.283
337.439
337.581
337.702
337.799
337.866
337.9
337.9
337.866
337.799
337.702
337.581
337.439
337.283
337.119
336.957
336.822
331.989
332.103
332.244
332.387
332.523
332.646
332.752
332.836
332.895
332.925
332.925
332.895
332.836
332.752
332.646
332.523
332.387
332.244
332.103
331.989
327.125
327.221
327.34
327.461
327.577
327.682
327.772
327.844
327.894
327.919
327.919
327.894
327.844
327.772
327.682
327.577
327.461
327.34
327.221
327.125
322.236
322.313
322.41
322.51
322.605
322.691
322.765
322.824
322.865
322.886
322.886
322.865
322.824
322.765
322.691
322.605
322.51
322.41
322.313
322.236
317.323
317.383
317.458
317.536
317.61
317.678
317.736
317.782
317.814
317.83
317.83
317.814
317.782
317.736
317.678
317.61
317.536
317.458
317.383
317.323
312.393
312.435
312.489
312.545
312.598
312.646
312.688
312.721
312.744
312.755
312.755
312.744
312.721
312.688
312.646
312.598
312.545
312.489
312.435
312.393
307.45
307.475
307.507
307.541
307.573
307.602
307.627
307.646
307.66
307.667
307.667
307.66
307.646
307.627
307.602
307.573
307.541
307.507
307.475
307.45
302.498
302.507
302.517
302.529
302.539
302.549
302.557
302.564
302.569
302.571
302.571
302.569
302.564
302.557
302.549
302.539
302.529
302.517
302.507
302.498
)
;

boundaryField
{
    hotSide
    {
        type            fixedGradient;
        gradient        nonuniform List<scalar> 
400
(
236.385
237.083
238.483
240.593
243.427
246.997
251.322
256.421
262.313
269.017
276.552
284.935
294.184
304.312
315.333
327.256
340.093
353.849
368.53
384.142
241.703
242.359
243.676
245.666
248.345
251.733
255.851
260.726
266.381
272.842
280.131
288.271
297.281
307.178
317.978
329.693
342.332
355.903
370.414
385.867
247.458
248.063
249.282
251.129
253.626
256.798
260.676
265.29
270.672
276.854
283.865
291.73
300.474
310.117
320.674
332.161
344.588
357.963
372.292
387.578
253.554
254.101
255.206
256.887
259.174
262.099
265.701
270.02
275.096
280.968
287.671
295.236
303.691
313.059
323.358
334.605
346.809
359.979
374.121
389.236
259.823
260.304
261.28
262.776
264.828
267.479
270.778
274.775
279.519
285.058
291.432
298.679
306.832
315.915
325.95
336.951
348.93
361.894
375.849
390.796
266.001
266.412
267.25
268.549
270.352
272.715
275.697
279.358
283.76
288.956
294.997
301.925
309.776
318.577
328.351
339.113
350.875
363.642
377.419
392.207
271.736
272.076
272.778
273.88
275.437
277.516
280.187
283.523
287.594
292.463
298.188
304.815
312.383
320.923
330.456
341
352.564
365.154
378.772
393.417
276.603
276.88
277.458
278.384
279.721
281.547
283.943
286.992
290.773
295.359
300.81
307.179
314.506
322.825
332.157
342.518
353.918
366.361
379.848
394.377
280.165
280.393
280.877
281.668
282.838
284.472
286.66
289.493
293.058
297.432
302.681
308.86
316.011
324.169
333.354
343.584
354.866
367.204
380.597
395.043
282.052
282.254
282.686
283.404
284.483
286.013
288.089
290.806
294.255
298.516
303.657
309.735
316.793
324.865
333.973
344.134
355.354
367.637
380.982
395.385
282.052
282.254
282.686
283.404
284.483
286.013
288.089
290.806
294.255
298.516
303.657
309.735
316.793
324.865
333.973
344.134
355.354
367.637
380.982
395.385
280.165
280.393
280.877
281.668
282.838
284.472
286.66
289.493
293.058
297.432
302.681
308.86
316.011
324.169
333.354
343.584
354.866
367.204
380.597
395.043
276.603
276.88
277.458
278.384
279.721
281.547
283.943
286.992
290.773
295.359
300.81
307.179
314.506
322.825
332.157
342.518
353.918
366.361
379.848
394.377
271.736
272.076
272.778
273.88
275.437
277.516
280.187
283.523
287.594
292.463
298.188
304.815
312.383
320.923
330.456
341
352.564
365.154
378.772
393.417
266.001
266.412
267.25
268.549
270.352
272.715
275.697
279.358
283.76
288.956
294.997
301.925
309.776
318.577
328.351
339.113
350.875
363.642
377.419
392.207
259.823
260.304
261.28
262.776
264.828
267.479
270.778
274.775
279.519
285.058
291.432
298.679
306.832
315.915
325.95
336.951
348.93
361.894
375.849
390.796
253.554
254.101
255.206
256.887
259.174
262.099
265.701
270.02
275.096
280.968
287.671
295.236
303.691
313.059
323.358
334.605
346.809
359.979
374.121
389.236
247.458
248.063
249.282
251.129
253.626
256.798
260.676
265.29
270.672
276.854
283.865
291.73
300.474
310.117
320.674
332.161
344.588
357.963
372.292
387.578
241.703
242.359
243.676
245.666
248.345
251.733
255.851
260.726
266.381
272.842
280.131
288.271
297.281
307.178
317.978
329.693
342.332
355.903
370.414
385.867
236.385
237.083
238.483
240.593
243.427
246.997
251.322
256.421
262.313
269.017
276.552
284.935
294.184
304.312
315.333
327.256
340.093
353.849
368.53
384.142
)
;
    }
    coldSide
    {
        type            mixed;
        refValue        uniform 300;
        refGradient     uniform 0;
        valueFraction   uniform 0.991591;
        source          uniform 0;
        value           nonuniform List<scalar> 
400
(
300.013
300.013
300.014
300.014
300.014
300.014
300.014
300.015
300.015
300.015
300.016
300.016
300.017
300.017
300.018
300.019
300.019
300.02
300.021
300.021
300.014
300.014
300.014
300.014
300.014
300.014
300.014
300.015
300.015
300.015
300.016
300.016
300.017
300.017
300.018
300.019
300.019
300.02
300.021
300.021
300.014