/*--------------------------------*- C++ -*----------------------------------*\
| =========                 |                                                 |
| \\      /  F ield         | OpenFOAM: The Open Source CFD Toolbox           |
|  \\    /   O peration     | Version:  2212                                  |
|   \\  /    A nd           | Website:  www.openfoam.com                      |
|    \\/     M anipulation  |                                                 |
\*---------------------------------------------------------------------------*/
FoamFile
{
    version     2.0;
    format      ascii;
    arch        "LSB;label=32;scalar=64";
    class       volScalarField;
    location    "./ITHACAoutput/true/17.4";
    object      error;
}
// * * * * * * * * * * * * * * * * * * * * * * * * * * * * * * * * * * * * * //

dimensions      [0 0 0 1 0 0 0];

internalField   nonuniform List<scalar> 
3200
(
1.7893
3.57784
3.05278
2.32374
4.98256
3.34054
4.90291
2.33986
4.09363
1.41233
1.75122
2.552
2.30704
1.19964
2.42076
2.37361
2.02158
2.11454
1.31001
1.61928
1.4136
1.49589
2.26974
2.75427
5.06302
1.74345
3.36916
3.87765
-0.236676
1.41671
2.22595
1.471
2.37077
1.45149
4.24241
3.34834
1.93349
0.356117
2.26375
0.12496
-0.672899
1.46994
3.06933
2.79193
3.72123
2.51884
0.397388
1.43837
2.13888
1.62295
0.500514
1.6184
2.31231
2.35316
1.24017
1.39754
3.16554
0.438298
-0.310085
1.03125
0.756971
0.880855
2.47754
1.56976
1.93916
0.106239
0.632304
2.39145
-0.779458
1.1986
2.08651
4.15006
3.16481
0.961973
2.19009
2.33164
0.29411
-0.44019
0.912342
-1.23204
-1.62055
2.24366
0.359092
2.96744
0.327826
1.00464
1.60679
1.48367
1.72441
0.964547
2.04455
0.535524
0.405142
3.52978
1.7187
0.0237456
0.36059
1.20338
-0.890621
0.479504
0.0526554
2.35547
1.21319
1.95132
2.23716
0.837781
2.77869
0.772713
1.79175
-0.185544
-0.321078
1.0122
2.43464
-0.552196
0.37719
2.114
0.955676
0.827147
0.763362
-0.983408
-0.103967
0.526986
2.2655
1.29461
0.841197
0.99515
0.970354
1.27254
0.130465
0.200186
0.138352
2.14423
-0.38289
0.174266
0.273739
1.65397
0.593132
2.15183
1.22263
3.84168
0.84816
-0.0567561
0.04192
0.650775
1.31988
0.111853
-0.549044
0.545571
-0.156866
-0.546884
-1.23682
0.390849
0.737966
0.578357
-0.466249
1.73226
1.43216
0.70114
0.0439059
0.430067
0.191456
0.778905
0.864262
4.58161
2.26411
2.99136
4.06608
3.89215
2.34592
1.81795
1.53597
2.30871
2.5327
0.804455
3.15471
3.45696
3.86312
2.3688
4.1214
0.0670875
-0.16547
0.221153
3.86442
-0.749085
1.76865
-0.197715
3.98169
0.165391
5.86186
0.402686
-0.0433347
2.15782
0.163688
0.59714
0.319874
1.92262
0.5286
2.47163
0.0161275
-0.339312
0.844097
-0.886558
1.41626
2.15775
3.07438
1.66809
2.13987
1.47391
1.04187
1.00584
-0.432149
1.85186
0.770913
1.17122
0.474478
1.37364
0.952875
3.52129
1.61503
-1.7014
-0.520191
2.61957
0.921269
1.57737
1.0251
1.19959
1.77975
4.49286
0.905266
1.4208
0.906643
0.123201
1.71375
1.13276
1.17807
0.414115
1.70153
1.15731
0.0501648
-0.265704
-1.02303
1.69863
3.50865
1.56926
0.60953
1.57928
1.11312
1.5583
2.87805
1.39628
-0.0841786
3.22139
0.103134
2.25449
1.19964
1.42234
0.696188
0.43631
1.23472
0.208616
0.422757
1.63461
0.939868
0.305751
0.485722
0.268436
3.35625
1.84319
-0.42559
-1.39899
1.98476
-1.23082
0.90032
0.654768
-1.18413
0.526937
0.639274
1.59642
0.823235
-1.80963
1.50246
0.553956
0.0806203
-1.87429
0.586329
0.320648
2.88409
0.95922
0.225264
1.37039
0.369686
-0.961447
0.260419
2.04212
0.379872
0.49548
2.06647
1.25814
0.700184
-1.59628
1.11991
0.14626
-0.976013
-0.122594
0.0512817
-0.825725
2.0572
0.857738
0.171017
0.201523
0.755778
1.05042
-0.3409
0.620981
0.63886
-1.87918
0.91626
1.8858
-0.867388
-1.51809
0.831346
1.54494
1.76737
3.49025
4.30952
1.77496
3.60315
0.945162
2.29336
1.04176
1.25374
2.37847
1.19938
3.3553
0.845237
2.52993
2.95046
1.57298
2.67237
-0.172177
-0.921479
2.54659
3.38735
1.39659
5.03624
2.71656
2.78866
1.9494
0.818511
2.99824
2.07792
0.996309
2.78373
3.36394
0.353874
0.984852
1.20036
0.759942
-0.170035
0.645144
0.350282
0.728622
1.46265
2.83319
2.93974
-0.0693185
0.876749
1.37749
1.61044
0.785054
1.56489
-0.324492
-0.750611
0.0503388
1.01583
2.10992
0.325464
0.721213
1.2953
-0.992445
-2.7777
-0.606699
2.48186
0.297979
1.23972
0.847684
3.17774
0.889377
2.09767
0.651788
2.5939
0.772134
2.85317
1.06602
2.33211
2.20777
0.199805
-0.101238
1.42284
-1.29101
0.747454
1.32995
-0.926794
1.03785
2.63536
2.73686
0.663841
0.0791789
-0.470149
0.0765826
-0.960829
0.081884
1.90188
0.793171
1.04819
-0.94965
-1.98157
0.411153
-0.0300558
1.08783
-0.411009
-0.778731
-0.132089
0.660691
1.07672
1.34005
2.31556
2.48407
1.01814
2.956
-0.238084
-0.213948
1.00576
-1.30757
0.847117
0.51233
2.93888
0.499136
-1.10165
0.29712
1.04266
1.59759
0.905187
-0.939284
2.99688
0.037476
-0.513041
-0.639523
1.18871
0.404522
-1.2245
0.454463
-0.833521
2.60374
0.530496
1.63369
0.122296
0.883527
2.41249
-1.54359
-2.64845
0.720184
0.973533
-0.456337
-1.51981
0.887998
-0.208278
0.785639
-0.0983965
-0.512462
3.18189
1.27363
1.55447
-0.439967
0.930576
-0.280911
-0.823013
-0.912585
-0.282415
0.406138
0.628809
1.02208
1.67462
2.10494
5.02025
2.1753
2.18393
1.07616
0.34573
2.36671
1.63413
0.0778491
1.53243
1.10121
0.619391
1.30402
2.16061
1.27724
0.0499353
0.29407
0.706453
-0.766359
2.50553
0.419777
1.86914
0.337986
1.522
-0.0145309
1.52763
-0.111589
-0.101873
-0.0357659
0.540841
-0.464519
-0.0242487
2.83922
-0.119402
2.80853
-0.337013
-0.182574
1.71582
2.26588
0.784609
1.95533
0.879078
0.218064
1.33748
-0.642385
-0.794121
-0.732562
-0.454535
0.62285
-2.05734
-0.0295203
-0.691686
0.77924
0.995995
2.25687
0.724435
0.255925
-0.885192
0.0506804
1.1963
1.14132
1.33254
-0.301038
1.78879
0.685136
0.150218
-0.644793
-0.343186
1.00354
-0.559227
-0.74909
1.77599
-0.620896
-0.340145
-0.519911
0.8396
-0.598625
-2.36691
2.54742
-0.232813
0.15265
0.131893
-0.535533
1.86802
0.678151
1.82744
0.547568
0.40901
-1.01754
-0.105076
0.618601
-1.43638
0.0887381
-1.94461
-0.610259
0.364748
-0.453218
-1.34674
2.41851
1.49611
0.377171
1.79725
0.925344
0.592393
-0.472917
-0.0858852
-2.02968
-0.580369
-0.0565835
-1.09449
0.0600988
-0.570849
0.815142
0.911528
-0.0896079
-1.93571
-1.49455
1.68931
0.506027
-0.787057
0.380967
-0.192306
0.660786
-2.99906
2.91514
-0.0786791
0.177338
-0.707114
-1.18266
1.65937
1.56997
-0.56112
2.4081
0.172693
0.4603
1.34392
-0.875102
-1.82781
0.0805451
-1.27509
-0.435854
1.85769
1.24403
0.374635
0.441771
1.43389
0.220248
1.42062
0.105809
-1.30064
-1.06184
0.719075
0.219145
-0.75308
1.02302
2.48939
0.263433
-0.654094
0.39001
1.22083
-1.48592
1.85415
1.30617
2.32944
-2.27955
-0.238497
-0.877613
0.735301
-0.895876
1.54213
1.73656
1.78609
1.6253
0.489493
3.30695
0.79706
-1.18348
-1.21691
-0.0942611
1.92998
0.539613
3.27737
2.31291
1.05352
0.782781
1.72427
-2.15268
-0.0356726
-0.166236
-0.286018
-0.136726
2.9209
-0.45744
1.14084
1.04093
1.0914
-1.79972
-1.01357
-3.14988
0.784508
0.552488
0.0789983
3.17881
0.945129
0.612952
-0.331492
1.23672
0.208384
-0.268606
-0.833997
1.15868
1.47976
0.399828
-0.571806
1.05786
-2.52276
-1.77347
1.62437
2.03961
1.60719
1.36372
1.88202
1.35569
1.13272
-0.560122
-0.742197
2.22159
-2.00782
1.52997
0.848454
0.0256299
0.860074
3.26182
0.372091
0.768918
-1.65286
0.819575
-0.413373
0.329609
1.17725
1.89696
0.161042
1.22593
1.47705
-0.885447
0.483838
0.128047
1.31517
-0.778196
0.0936686
-1.26945
-0.362782
2.48648
0.0688562
0.733236
-0.96711
-0.840176
-0.641631
-0.980709
1.83561
0.395999
1.15089
0.990747
-0.507235
0.660992
0.626274
0.15921
2.57051
0.789309
0.172159
0.350446
2.27737
1.35212
0.331966
1.13966
-0.0886999
-1.48962
0.819103
-0.591471
0.233744
1.08934
0.701218
-0.389099
-0.164523
-0.532994
-0.527235
-0.478281
2.80013
-0.256019
-1.60416
-0.152851
2.54505
-0.985116
0.387114
-0.267165
0.30289
0.114347
0.899672
0.267323
0.393017
-0.539709
0.708199
-0.870371
-1.0012
-0.0455575
-0.0965056
-1.01967
-0.945626
-1.39792
-0.760048
0.493831
0.0760974
-0.783825
0.749328
2.58617
-0.353423
-0.166785
-0.940446
0.998945
-0.0497605
-1.17471
1.79007
2.22633
1.39237
-1.60831
-1.13983
-0.296661
-1.45455
0.161046
-1.03111
0.438018
-0.301351
1.02813
3.06211
0.409361
-1.70055
0.0212994
-2.15267
0.164054
0.970253
-0.480178
0.216072
-0.0119473
1.22585
-0.126767
1.81694
0.166643
0.278441
0.053516
0.120237
-0.198601
-0.383229
-0.18874
-0.0518017
0.115221
0.0142139
-3.07444
-0.726222
-0.805674
-1.36211
0.15466
-1.17291
-0.0310787
-0.0530162
-0.488339
-0.115883
-1.16095
0.84759
0.165837
-0.726982
-0.0795164
0.0118728
-0.483979
0.71638
1.30902
-0.275981
-2.86049
-2.85295
-0.154143
0.00757109
-0.403729
1.42847
-0.675421
-1.06559
-1.3221
-1.33733
-0.294341
-1.86829
-3.08672
-1.71072
-0.977322
0.0471199
0.469107
-0.228261
0.0725343
-0.00230125
1.35303
-0.704611
1.78069
-1.0894
2.3019
-0.209793
-0.158543
2.39417
-0.680247
-1.1948
-1.07824
-3.05373
-0.267128
-0.638667
0.109541
1.44342
-1.91334
0.443306
-1.82871
0.990826
-1.09435
-2.91075
-0.931212
-0.978848
0.339089
-1.70855
0.396164
0.0249128
2.00792
1.21881
-1.85843
0.756894
-1.36379
-2.76203
-0.418953
0.0168119
-0.0856349
1.82876
0.782248
0.982657
0.726852
-0.135448
-0.613201
2.19805
-0.0341827
1.43577
0.0850114
-1.67627
-1.01416
-0.499331
2.47181
0.141117
1.64955
-0.312932
-0.300383
-0.563896
1.58063
0.333019
1.52858
-1.2672
1.68659
1.0831
3.22045
0.945933
0.657732
-1.80801
-0.408203
-1.1287
-0.846881
-1.12139
-0.498458
0.221926
1.10784
-1.28362
-0.402918
0.247621
-1.66824
1.27247
-1.32696
-0.410003
-1.26528
-1.49838
-0.916122
0.808103
2.69823
0.330174
0.743316
1.95131
-0.287568
-1.24809
-0.825392
-1.14855
-0.459641
0.383257
0.237484
0.743807
-0.653497
1.25923
-1.70956
-1.25208
-2.16682
-3.08173
-1.41906
-1.15718
0.93679
0.144681
0.989532
1.64073
-0.121775
0.025348
-1.24358
-0.920836
-0.4682
-1.20538
-2.09226
-1.39816
-0.216961
0.70757
1.26845
0.198137
-0.885047
-1.63899
0.970149
0.369747
-0.22922
0.754279
0.62062
0.642969
-0.41849
-0.731395
-0.86392
0.0812143
0.581495
-1.83561
-0.50972
1.05339
0.882974
0.46095
1.11115
-0.440993
-0.110461
-4.18317
-2.0363
0.048299
-0.54277
2.02902
0.89684
2.08671
1.67206
0.0133365
-1.97463
0.436112
0.153235
-0.72286
-0.131987
-0.821413
0.292823
-0.212509
-1.1474
-1.55676
-2.25271
-2.25084
-0.102263
0.322261
-2.95007
1.97833
0.351968
1.00951
0.973697
-0.262313
0.260996
-1.82105
0.900743
1.32081
-1.82597
0.749954
0.989351
0.925611
0.601418
-0.780727
-0.306075
-2.27448
-0.127409
-2.70079
-1.78788
1.21951
-0.0370698
0.536657
0.912133
-0.399042
-1.55121
-1.20908
-0.397803
-0.379148
1.63445
-0.477677
0.00343331
-0.440665
-1.4254
0.953857
-0.306318
-0.534644
-0.506209
1.59961
-0.742057
1.30328
0.0530058
-1.14863
1.34766
-0.0863268
1.05043
-1.3935
-1.0794
-1.40369
-0.207369
-1.04593
-0.806757
0.319465
-1.08718
-1.58226
1.02318
-0.137577
-0.233538
-0.365931
0.27804
-0.0186905
-1.83882
1.45402
-0.018309
-0.904496
-0.258692
1.32221
1.52764
1.18179
1.33143
-0.649523
-1.15102
-0.457945
-1.50126
1.91832
0.89431
-2.67911
-0.841515
0.669226
1.49129
-1.3663
-0.558507
-1.54313
-0.424761
-1.02661
-1.1033
-2.10561
-1.81677
-2.82842
-0.0338888
0.0864144
1.33357
-2.35544
-0.0862278
-1.9612
-2.86983
-2.35227
-0.143788
0.279838
0.457089
-2.16323
0.252271
0.421905
-0.159091
0.139081
-0.198837
-0.362223
-1.6701
0.250124
0.404311
0.256206
2.47025
-0.337419
-1.64421
-0.00927072
-2.93297
-1.45778
-1.13987
1.67275
-0.225168
-0.276424
0.324383
1.11188
0.0484575
-1.83596
-0.899243
-1.19753
-2.70206
0.774236
0.911749
-1.33685
-0.48006
0.526019
-1.90339
-3.14614
-2.52723
0.0803915
-0.715579
0.732632
0.539828
0.778233
0.385311
0.999986
-2.62628
-0.480923
-2.39592
-0.261666
-0.637835
-3.16955
-2.71631
-0.335952
-1.27745
-0.188685
-0.980374
-1.24478
-1.07404
-1.32638
0.596025
-0.154937
0.855905
3.7241
-0.852389
-2.30657
-2.52668
-0.353996
-1.0574
-0.806609
-2.42842
0.456239
-0.65187
-0.302266
-0.769423
-0.591821
-1.28182
0.498443
-0.153796
-1.15242
0.282776
0.774165
-0.278256
0.235813
0.848613
-1.37261
-0.846322
1.43407
-1.14905
-1.01793
0.547731
1.35903
-2.52747
-0.852303
0.945457
-1.57291
-0.479959
-1.8698
-0.885807
-0.127904
-1.00197
0.622475
0.0660415
-1.63184
-1.1274
-1.91421
0.262565
-0.493932
-0.821388
-1.14303
-2.01466
0.247757
-1.21395
-0.523193
1.20776
-0.353132
1.22365
1.19958
-0.528507
0.321006
-0.318264
-1.50599
0.901604
-0.446933
-0.497664
-0.33425
0.499168
-1.37497
-1.72935
-1.29243
1.06521
-0.0452931
0.774154
1.00031
-0.851831
-0.900276
1.14773
-0.0674477
-0.450621
-2.95162
-0.527867
-1.02604
0.782229
-0.200778
0.8527
0.699062
-0.293853
-0.916889
-3.02305
-0.804839
-1.88301
-2.07939
-0.702101
-0.537705
-2.8213
0.743658
-2.18948
-1.40235
-3.9726
-1.86189
0.155562
-2.68276
0.682732
1.30392
-2.30602
-1.33999
-2.22208
-1.94207
-1.4516
-2.60711
-3.9195
-2.6685
-0.414828
-0.0637068
-0.483357
-0.339115
-0.725867
-2.53579
-0.751938
-3.52953
-0.406604
-1.66445
-1.54221
-1.03119
-0.130431
-1.19515
-1.43505
-0.720887
-3.12788
1.20714
-1.53675
-1.12367
-0.203738
-0.349143
-2.95523
-0.143063
-0.695038
-1.61436
-2.60549
-2.66981
-1.138
-2.30572
-0.120049
-0.00815628
0.641347
-2.34044
-1.19497
-2.32967
-2.63293
-0.0179825
-2.63543
-1.50169
-0.915375
-0.655113
-1.78495
-2.28685
-0.724113
-1.74716
-2.23779
-1.75116
-2.40661
-0.241817
1.25503
0.473876
1.70893
-1.52688
-1.47148
-1.51565
-2.56845
-1.31462
-2.84857
-3.07347
0.616694
-0.000572309
-2.07018
0.151503
-3.13501
-1.3112
-0.713195
-0.404346
-0.227137
-0.65637
1.4054
2.81352
-1.67681
-1.26528
-0.0158024
-0.350323
-1.09998
-1.16289
-2.95544
-1.93782
-1.25491
-0.781928
0.158501
1.71116
1.83178
0.0415304
-2.96137
0.977898
-1.31665
-1.67977
-1.61728
-0.734085
-1.1981
-0.981605
-1.02754
-1.18523
-0.893917
-1.00103
1.56415
-0.994985
1.22798
0.445089
-1.18052
-0.975446
1.03713
-0.0188062
-0.926574
-0.12593
0.492969
0.86758
0.545123
0.531294
0.401855
-1.92154
-0.0952563
-0.583192
-0.911748
-2.29006
0.419074
-1.5979
-1.64234
-1.07906
-0.592172
2.20409
1.52556
-0.576744
-2.21095
-3.03254
-3.13721
-0.0632154
-1.18946
0.898137
0.57958
-0.746812
-1.19134
-2.00612
-3.04853
-2.18699
-2.86938
-2.10683
-3.00967
-2.40936
-1.08402
0.763011
0.26418
-2.65368
-1.65152
-3.92312
-0.444331
-2.01292
0.0661913
0.60737
-0.414981
-2.22234
-0.114749
-2.90621
-0.212993
-0.267181
-3.50027
-0.173165
-1.42998
-0.232066
-1.44013
0.206979
-3.09086
0.321913
-1.73629
-1.87453
-1.40756
-2.22933
1.5152
0.217297
-1.95059
-1.75917
-1.1173
-1.95208
-1.52466
-2.12445
-1.00867
-2.81031
0.0744788
-0.781088
-0.0541781
-1.08821
-0.156296
0.0733114
-0.390346
-3.10371
-0.717307
-2.93766
-0.202861
-0.97437
-1.33221
0.658915
0.324712
-3.63032
-0.479402
-2.88164
-1.73463
-4.66203
-1.78185
-2.34103
0.0116668
-1.27319
-0.186945
-0.731068
-1.71721
-0.401866
-0.478341
-0.445403
0.146486
0.219411
1.15884
1.32722
-1.14745
-3.86694
-2.38713
-3.45806
-0.0489833
-2.10387
-0.954857
-0.612374
-0.847698
-0.420063
-0.706092
-0.892188
-0.648153
0.121154
1.62505
0.320912
0.128888
-0.54636
0.123985
-0.315446
-1.28462
-0.0872631
-1.84413
-2.00182
-1.82132
-1.38331
-0.241115
-1.14463
-0.87918
-1.22429
-0.457323
-0.938556
-1.30308
-3.47321
-0.873442
1.42841
-1.01289
0.34819
0.923547
-0.0688561
-1.54149
1.12641
0.0725602
0.168212
-0.719898
-0.732447
0.753346
1.63036
-0.939639
-0.950228
0.951024
1.28836
-0.312291
-0.450003
0.376361
-0.792668
0.472073
0.0869774
0.163961
-0.873145
-1.48614
-2.14089
-1.185
0.11959
-1.67938
0.331427
1.24039
0.836445
-0.385945
0.306676
-0.130026
2.25629
-0.457804
-3.27316
-3.53974
-2.39423
-2.38633
-2.48696
0.215104
-2.27522
-2.44604
-2.50622
-0.753663
-2.38956
-3.10264
-1.81171
1.34928
-3.29432
-2.14688
-1.6243
-1.4315
-1.60187
-4.89058
-1.61137
-0.37406
-3.01578
-0.172308
0.260329
0.568598
-1.15867
-0.292617
-2.59159
-0.227553
-0.0498034
-1.8293
0.0138312
-0.0210907
-0.723094
-1.73049
0.317407
-2.22343
0.279421
-2.24347
-1.7145
0.0356212
0.664679
-1.30526
0.236343
-0.878043
-2.08997
-0.905337
-2.323
-3.24016
-0.896472
-3.93655
-1.25582
-3.00327
-1.99166
-3.00314
-2.31424
0.185517
-1.35275
-1.98102
-2.98553
0.435609
-1.84141
-0.846046
-0.625417
-1.69244
0.420652
-0.293163
-1.40791
-1.28674
-2.92743
-3.54452
-3.36308
-1.05747
-1.25146
-0.7034
-1.72128
-0.710285
-2.15763
-3.96062
-1.03763
-0.295654
-1.43607
1.44951
0.222059
-1.88221
0.442724
-0.471358
0.170406
-1.34292
-3.39168
0.333671
-3.5425
-2.15845
0.504439
-2.08869
0.701982
-2.32343
-1.13143
-1.15022
-2.14736
-2.3598
-2.09408
0.496734
-0.206698
0.764934
1.10285
0.0251514
0.72336
-1.11642
-2.40542
-1.22565
-1.21695
-1.11325
-1.98941
-0.787492
-0.628476
-1.37975
-0.743884
-2.53718
-2.23692
1.04987
1.13778
0.846829
-1.49325
1.50969
-0.637602
-0.291711
-0.155348
0.421977
-0.0775211
-1.5133
-2.07971
0.483518
-1.12951
-0.198922
1.62838
0.305787
-0.678348
-1.0761
0.306893
-2.10971
-0.189176
1.23626
-0.394015
0.420205
0.0435167
0.945277
0.0742677
-1.32874
0.60272
1.38757
-0.710592
0.63917
-0.546486
1.46353
1.07631
1.08748
0.627144
-1.10199
-1.92024
-3.21436
-1.89657
-1.62375
-0.393121
-0.0546258
-3.4336
-2.67697
-2.19605
-2.35006
-3.28126
-3.1286
-2.64889
-1.19001
-0.634613
-1.65258
-0.709258
-1.9097
-0.44211
-3.48718
-1.92431
-2.10235
-2.45335
0.68281
-3.25195
0.36246
-1.66555
-1.15143
-2.36855
-1.56374
-2.96431
-4.26308
-3.56465
-2.02003
-3.53872
-1.53587
-2.44942
-1.46286
-1.63825
-3.41724
-3.73205
-1.53032
0.246312
-0.661267
-0.149838
-0.315949
-0.981081
-1.40984
-1.18139
-2.45629
-2.72914
-2.98886
-2.67483
0.234967
-1.89973
-2.21681
-0.136164
-2.3113
-2.27846
-1.83202
-3.11537
-0.57998
0.763322
0.706902
-2.36976
-2.53941
0.898227
-0.431976
0.127374
-2.21178
-1.04592
-1.7791
-1.12703
-2.05082
-1.52936
-0.941256
-0.843548
-2.66593
-1.99981
-1.11079
-1.87835
-2.75104
-1.06645
-3.29356
-0.166245
-0.340036
-0.167795
-1.6744
-2.69138
-0.567512
-0.12167
-2.70257
-0.16598
-2.19397
0.162525
2.49048
0.0625482
-1.3524
-2.02503
-2.55187
-0.42278
1.50103
0.00916718
-1.7776
1.65612
0.255626
-1.97951
0.35384
-1.25488
-2.70054
-0.221448
0.376506
-2.37159
-0.862614
-0.862214
-1.60687
0.105691
0.00913579
-1.24521
-1.13269
-0.933643
0.230988
-1.21978
-1.62065
-1.42519
-2.80951
3.02302
-1.54769
-1.97108
-1.68288
0.153041
-0.618691
-1.75702
-1.06154
-0.993638
-1.36874
-2.40879
0.380054
-2.51579
-1.31034
3.39038
1.66558
-0.982035
-0.596227
2.22586
0.767097
1.22752
-0.702731
-1.36525
-0.582848
1.22616
0.731707
0.344203
-1.95432
-1.09688
1.86548
-0.911786
1.60915
0.430857
-1.84859
-3.64872
-1.51951
-2.53556
0.489355
-0.71266
-1.563
-2.05908
-1.16242
-2.42004
-0.952479
-2.19027
-1.22812
-2.12826
-2.5925
0.000819005
-0.844848
-2.88026
-2.19086
-2.4572
-0.589348
-4.39857
0.0437853
-1.58142
-0.684843
-1.60135
0.00712431
-0.91655
0.483504
-3.9605
-0.514235
-0.259612
-3.02097
0.659958
-1.18491
-0.129074
-1.01919
-0.734188
-2.78067
-0.520103
-1.32403
-3.33427
-3.70779
-2.82817
-1.58666
1.15229
-1.33452
-2.0697
-1.4376
-0.241017
-1.88567
-1.86598
-3.67467
-1.28204
-0.257284
-1.88762
-2.44537
0.545586
-2.48297
-1.06972
-1.73437
-4.43331
-1.25585
-1.86165
-0.19625
-1.18218
-1.11079
-1.92619
-2.95866
-1.90413
-0.610594
0.019986
-1.78576
-2.32065
-1.68559
-1.99639
-0.131563
0.674262
-1.65258
-2.96068
-2.85923
-1.169
0.531116
-0.742175
0.354226
-0.577294
-0.499152
-1.55774
-2.14272
-0.835148
-1.29969
-3.32491
-2.82655
-2.33769
0.636605
-2.57298
0.042698
-1.64023
-0.785857
0.295144
-2.28904
0.719745
-0.425879
-1.51521
-0.33378
0.908602
-2.80159
-0.117149
-1.55143
-0.818365
-0.0764248
-2.14908
-2.26206
-1.11693
-1.4509
-2.78032
2.87412
-1.90234
1.21043
0.00817897
-2.16005
-0.902784
-0.693857
-0.00577405
-0.86416
0.00788339
-1.56308
-2.05622
1.50241
-1.30636
-0.973982
0.293466
-0.405326
-1.63107
-1.19841
-1.72117
-2.12124
-0.687148
-1.20813
-0.46007
-1.01437
-2.11631
0.153733
-0.766516
1.00029
-3.03851
0.496634
-1.75444
-0.372343
0.721883
-1.4482
-0.856632
2.44754
1.35841
0.461371
1.17471
1.32883
-0.781166
0.327716
0.224775
-0.0858137
-3.13024
-1.66804
-2.76011
-1.79233
-2.03009
-0.158179
-1.29198
-0.407966
-1.50094
-1.15626
-1.86566
-2.14259
-2.04411
-1.9734
-0.952121
-2.30653
-1.8416
-0.706826
-2.89767
-2.25865
-3.76007
-1.43826
-0.974223
0.879475
-2.2815
0.159038
-2.39721
-3.51844
-2.31788
-4.5847
0.154496
-0.924208
-2.03999
-1.66602
-2.16948
-0.71369
-1.75278
-0.440668
-3.22027
-2.457
-2.98152
-0.281479
0.597846
0.893658
-0.722374
-0.188724
-2.47119
-0.503086
-1.34469
-1.40286
-1.64573
0.0885617
-1.63403
-3.48523
-1.22098
1.27923
-0.847903
-0.34909
-2.8072
-2.80187
-1.33925
-2.12148
0.557449
-2.5529
-3.33314
0.124038
-0.751238
-2.60776
1.22209
-0.974744
-2.31362
-1.95833
-0.996647
0.604097
-1.42052
-2.67416
0.283414
-0.552318
-0.499081
-2.17714
-1.20938
-0.969967
0.476966
-0.0600581
-0.446498
-1.53086
-1.09414
-0.520999
-1.59031
-2.891
-0.59244
0.401509
-1.83808
-1.95448
-2.15198
-0.521856
-0.622185
-0.582316
-1.9071
-0.96703
-1.02734
1.39614
-2.17371
-2.61911
-2.87383
1.36786
-1.63418
-1.10715
-1.44904
0.399942
-0.91946
-2.60806
-3.9026
0.301083
1.16562
-1.05483
-1.93085
-1.00087
-2.59496
-1.40236
-2.18531
-1.58727
-1.0533
-3.04298
-0.719127
1.46784
1.6989
-1.12256
-1.08855
-0.844173
-0.819116
-1.37573
0.436129
0.381706
0.260455
-1.40213
0.426694
-0.962676
0.361836
-1.08626
-0.802629
-0.60929
-0.175765
0.291335
0.898184
-0.686605
0.517774
-2.33985
0.533761
-1.30967
1.01606
-1.74409
0.481643
-1.61319
0.864276
-0.0297517
0.761014
0.850514
-1.73138
-0.412767
-4.45805
-1.49104
-2.9587
-0.623715
-2.61104
1.95847
0.0435492
-0.378074
-0.899791
-1.09861
-1.05994
-1.34139
-1.85414
-2.19114
-1.45329
-1.58351
-1.53683
0.350534
-0.536307
-3.17346
-2.1999
0.210147
-0.274714
0.467004
-0.319507
0.0845508
1.17675
-0.337582
0.357622
-0.0401469
-0.303462
-2.58497
0.302856
-1.78794
0.223476
-1.09273
0.239559
-0.374142
-0.377146
-1.58341
-2.14982
-0.120275
-0.680887
0.572483
-2.18459
-1.98802
-0.190811
-2.03433
-2.48392
-0.0925591
-3.0484
-1.65634
-0.732723
-1.70906
0.614983
-0.899792
0.0183735
-2.63321
-1.15623
-3.58217
-2.91472
-2.12502
-1.17803
-2.63456
-0.0486517
-0.115859
-1.21933
-1.48228
-1.66836
-0.397776
0.246569
-0.017194
-1.51307
0.604328
-0.616213
0.668729
0.699059
-0.157332
0.364473
-1.98432
-3.61803
-0.910356
-1.41256
-0.272003
0.0197146
-0.582313
0.384687
0.245561
1.00253
-0.403541
-0.619322
-0.110597
-1.23682
-3.09839
0.222338
-1.50496
0.000906995
0.628517
-0.425071
-1.14223
0.428663
-2.09682
0.603805
-2.08071
-0.631776
-1.4331
-0.938517
-0.458032
0.16027
0.722333
2.45642
0.0427971
1.88652
0.529407
0.447464
-0.41377
1.46038
-2.17732
-0.454517
-3.45981
-1.37989
-0.482929
-0.457359
-0.150724
-0.57825
-0.597765
-1.30124
-1.79828
-0.572749
1.59248
0.0204176
1.59426
-0.622713
-2.18816
0.3214
-1.21346
-0.139137
-0.0616456
0.127773
-1.55435
0.433112
0.972333
-0.238565
-1.49989
0.811473
0.570331
-2.03337
-0.97951
-2.42717
0.0204016
0.152784
0.182176
-0.247869
0.270312
0.064414
0.554047
-1.64034
0.0400685
3.48902
-0.351363
-0.278644
-1.0786
-2.10646
0.096906
1.02726
-1.60354
1.42307
-0.326744
-1.9941
0.287591
0.850163
-1.86759
-1.20494
-1.13295
-0.267319
-0.932165
0.136206
-1.53056
-0.972633
-1.36264
-1.08593
-2.26675
-0.933597
-1.52443
-0.782747
-0.747482
-0.891973
-0.33511
0.714735
-1.19766
-0.0588394
-1.08528
-2.29504
0.398008
0.266914
0.93123
-2.10035
-2.94219
-2.38212
-0.055003
-3.28425
-1.57973
-1.47019
-1.96823
-0.49556
1.22595
-0.273827
-1.3499
-2.35241
-0.215068
0.229522
-1.46962
-1.16785
1.86333
0.698835
-0.19931
-0.183176
-1.5505
-0.890727
-0.878989
-1.6428
-2.98411
-2.33587
-0.253043
-2.21147
-3.28107
-0.521266
-1.80384
-1.45449
-1.98387
-3.82063
1.34119
-0.440468
0.0105334
-0.332997
-1.10127
-1.00195
-1.61828
-0.30063
-0.712265
-3.66833
-2.09898
-1.61673
-0.545727
-0.64256
0.0879199
0.737659
-1.42825
2.89999
-0.811424
-1.01798
-1.73191
-0.197594
0.908427
-0.714104
-0.990737
-0.60029
1.03809
-1.84821
-2.87403
-0.879933
-1.00171
0.839198
-1.12797
1.39223
-0.24575
-0.908331
-0.185168
-1.45713
0.208288
-0.727255
-1.69691
-0.905856
-1.52884
0.322355
-0.538523
-0.357337
-0.138028
-1.32284
0.231916
-0.464588
-2.29633
0.300113
-1.13032
-1.16408
0.322266
-0.759863
1.29762
-0.251441
0.875687
-2.15098
-1.34497
0.0517141
1.17165
-1.8236
-1.48137
-1.96171
-0.611298
1.43749
0.9376
-0.8131
2.44595
-0.500079
0.76982
-0.21411
-0.8319
-2.67302
-1.18016
-0.811011
0.506119
1.539
-1.80753
2.45314
0.407544
-2.13201
-1.15751
-0.488465
-0.58602
0.69787
-0.78232
-3.76369
-2.44357
-0.483143
0.744722
1.52797
1.26102
0.652551
-0.212162
0.0240881
0.420958
0.666448
0.923431
-0.308406
0.316696
1.14639
1.42696
-2.20575
1.69712
-0.465389
-0.900623
-1.84814
0.0353074
-0.660826
0.168816
-1.27681
0.0782724
-0.429253
0.0989854
-0.419616
-0.266002
-0.195268
-1.09678
-0.224224
-1.01416
0.0647851
0.310423
-0.495866
-1.00593
-0.112341
-1.20104
-2.41987
-1.40908
-1.30417
0.91965
-1.02845
-3.51365
-1.19559
-1.10522
-0.0449851
-0.21068
1.58223
-2.1055
0.0710536
-0.344826
0.388565
0.153496
-0.4327
-0.216692
-1.33401
-0.486591
-1.25396
-1.2879
0.403764
-0.377409
0.807793
-1.55553
-0.274745
-0.121692
-1.02347
0.67906
1.18544
-0.486585
0.453823
0.502306
2.12969
-0.651935
-0.455523
1.61225
-1.87042
1.06606
-1.42004
-1.03247
-2.12091
0.881766
-1.37945
0.519905
-0.999237
0.285914
0.918308
-0.562378
1.62716
-0.737009
0.701268
-0.107641
-0.151433
0.405988
-0.432772
-0.375476
0.0660996
-0.650201
-2.25256
-0.944682
0.678185
0.14206
1.25003
0.0557772
0.666771
0.567649
-0.0642269
-0.7532
-0.34757
-0.420978
-0.284896
-0.0505716
-0.0204765
-0.989059
-0.520056
-2.12099
0.296942
0.120283
-0.850999
0.724535
-2.9116
0.265612
-1.48576
0.553387
0.152848
-0.446881
0.674855
0.962247
-0.118457
0.0302852
0.27914
-0.312487
2.07454
0.480974
1.94645
1.09426
-2.92545
-1.74322
1.48922
-0.878646
-0.119005
1.20289
-0.250332
0.65044
-1.1462
2.13148
-0.852682
0.665549
1.17746
0.581322
0.612864
-0.881796
-0.0341821
-0.864183
0.12746
-0.500627
1.10857
-0.580902
-0.298743
-0.302759
0.446646
1.74441
0.743945
-0.0440911
0.367837
1.39962
0.777463
-0.653288
3.04875
-0.249697
1.20464
0.665662
0.899366
1.06809
1.21528
-1.13025
0.341222
0.0273593
-2.12456
-0.983611
0.621094
-0.407006
-1.36825
1.48174
1.08235
1.28068
-1.81827
0.00672456
0.550446
-1.29294
1.55131
1.48899
-0.442542
2.2111
0.459384
0.0351953
-2.1421
-0.467007
-0.150957
-0.854452
0.144446
-1.15149
0.852759
3.27461
0.936278
2.15127
1.31598
-1.13432
0.468225
0.82037
-0.411819
-0.979605
0.176283
1.13566
1.00174
-2.01982
-0.031845
-1.02078
-0.558721
-0.030197
0.0282982
1.10177
-1.08656
2.32101
-0.209569
0.257918
-0.0578136
1.90883
0.502916
0.49074
0.989427
0.825468
-0.54672
0.0741778
-0.499176
-0.970644
-1.41291
0.207737
-2.67999
0.434518
-1.94725
0.184972
1.27025
-1.15057
1.27669
-1.95381
-0.488899
-1.14297
0.439671
0.680562
0.289918
2.92133
0.625786
-0.960563
-2.2976
-2.17269
-0.328638
-1.94019
-1.4763
-0.036059
-1.79762
-0.198364
-0.212867
-1.193
0.737963
-1.05437
0.763202
-0.931259
0.605328
1.14555
-3.15832
0.789004
-0.0537592
0.151361
-1.26585
-0.349315
-0.143065
0.956689
-0.636679
-0.581716
0.209231
-1.01562
-0.383748
-1.66447
1.42514
1.79441
2.06405
0.465904
-0.25436
0.114366
0.266784
0.626326
-0.778474
0.490279
1.68906
0.394664
1.01521
-1.0611
1.17262
-3.08761
0.507941
-0.22034
1.42232
0.296417
0.549836
1.20876
-0.162106
-0.938311
0.771349
-0.149448
-0.423627
-0.156784
-1.43045
1.62371
0.613306
-0.845242
-0.214759
-1.3146
-1.45126
-1.10587
0.805744
0.763708
-0.223092
3.24414
1.49525
2.75279
1.02161
3.14713
1.11874
1.4954
2.59665
2.70655
-0.138139
3.00512
1.24494
0.438213
-1.85134
2.4606
-1.53663
0.260406
-1.94112
-0.0736327
1.54533
-0.00547354
1.98516
-0.184728
-0.69825
-0.307129
0.115962
2.26186
0.414093
2.74289
0.540443
1.50877
0.271153
0.928049
0.4124
-1.65201
-1.35626
-0.767094
-1.70162
-1.51317
1.21019
0.178779
2.04877
0.88608
1.17948
2.06944
1.03202
2.64397
2.38834
0.47171
-0.663669
1.33604
3.4958
0.205416
0.0604063
-0.409762
-1.35899
-0.734262
-1.56399
1.43155
-0.599913
0.647072
0.394321
2.41722
-1.5047
1.26693
3.08651
1.43299
-0.288347
1.24341
1.76134
2.24026
0.800986
-0.513656
-0.215435
0.790128
-1.44642
-3.06862
0.355912
0.766618
2.10254
0.291114
1.70598
0.44446
0.49612
0.890877
0.120091
0.0354338
-0.143741
-1.10865
0.512047
1.13612
0.311091
-0.294888
0.841548
-0.47636
-0.0882826
0.322431
1.52449
0.350626
0.307646
-0.865918
-0.747172
0.965943
0.505611
0.757064
0.497109
0.356946
-0.436391
0.991005
0.793887
0.0392453
-1.61121
-1.30284
-0.0812937
-0.23399
-2.46045
-1.3077
-0.312473
1.17961
-0.37109
3.047
0.633001
0.912107
-0.372728
0.371425
-0.993336
3.16244
-0.364731
-0.67161
-1.60302
-0.437088
-1.15877
-1.14458
2.06387
1.50966
0.535927
-0.326443
1.11111
-0.612739
1.41883
-0.473087
-0.272282
1.25677
-1.16439
-2.05659
0.0902424
-0.436364
0.87929
0.869449
0.358887
-1.30297
-1.92245
-1.51201
0.667966
-1.58063
-0.617625
-0.67754
-0.462745
1.139
2.83991
4.32648
3.36955
1.24663
1.02658
1.29248
2.39495
0.822565
1.49427
4.46818
1.62815
1.50743
2.1045
5.60519
3.25874
1.16774
-0.84234
0.637778
1.44749
-1.79277
-0.357117
1.59558
-0.0342299
3.34047
2.98434
2.9688
-0.403054
1.41835
2.77991
3.60846
1.89086
1.35856
2.80615
1.57461
1.041
1.09545
-1.17318
0.123079
0.868312
-1.5988
0.568034
1.30774
4.59779
2.47208
0.57557
2.28931
2.41013
1.5275
-0.451424
0.685608
2.40254
1.04001
0.694728
-0.0162923
0.128048
-0.685672
-0.194752
0.325716
-1.3759
1.26405
2.05207
0.475825
4.03844
1.16382
2.57734
1.88932
1.99571
2.42086
1.96178
0.451446
1.3796
0.662369
0.117398
1.46007
-0.082079
0.063422
-0.435781
0.46912
-1.44885
0.591999
0.850733
1.9155
1.25504
-0.0222494
2.25829
1.48905
2.42611
2.26827
-0.550349
2.52283
1.78629
0.782867
0.0495296
-1.75965
-1.42099
0.305026
0.510745
0.576172
-2.28884
0.352891
0.849701
-1.57969
-0.459838
1.5752
1.49177
2.36822
0.136655
1.50686
-1.08254
1.30329
1.89217
2.04728
0.107573
-1.56797
-0.798203
-1.12474
-3.51904
0.73528
-0.011151
-0.416248
-0.977776
2.47038
-0.007112
0.625534
-0.258482
0.13249
1.80685
0.872328
-0.939363
-1.24557
-0.152405
-1.20051
-1.90904
-0.147073
-0.513948
-1.11509
-0.0241532
-0.371044
0.933937
0.268619
0.527014
-0.57486
0.224245
-3.51671
-1.86596
1.44941
1.56418
1.07094
-0.399796
-0.261908
1.61475
0.706666
-0.129588
-0.634782
-1.10649
-0.126129
)
;

boundaryField
{
    hotSide
    {
        type            calculated;
        value           nonuniform List<scalar> 
400
(
1.74765
0.149267
0.788082
0.583939
-0.701082
-0.990067
-1.55112
-2.73546
-3.01205
-3.09748
-3.34306
-1.99552
-3.72979
-3.21749