/*--------------------------------*- C++ -*----------------------------------*\
| =========                 |                                                 |
| \\      /  F ield         | OpenFOAM: The Open Source CFD Toolbox           |
|  \\    /   O peration     | Version:  2212                                  |
|   \\  /    A nd           | Website:  www.openfoam.com                      |
|    \\/     M anipulation  |                                                 |
\*---------------------------------------------------------------------------*/
FoamFile
{
    version     2.0;
    format      ascii;
    arch        "LSB;label=32;scalar=64";
    class       volScalarField;
    location    "0";
    object      Tdirect;
}
// * * * * * * * * * * * * * * * * * * * * * * * * * * * * * * * * * * * * * //

dimensions      [0 0 0 1 0 0 0];

internalField   nonuniform List<scalar> 
3200
(
347.661
348.405
349.355
350.389
351.455
352.502
353.468
354.283
354.877
355.19
355.19
354.877
354.283
353.468
352.502
351.455
350.389
349.355
348.405
347.661
341.322
341.952
342.771
343.666
344.589
345.494
346.329
347.033
347.546
347.817
347.817
347.546
347.033
346.329
345.494
344.589
343.666
342.771
341.952
341.322
334.978
335.5
336.19
336.947
337.726
338.491
339.196
339.79
340.223
340.451
340.451
340.223
339.79
339.196
338.491
337.726
336.947
336.19
335.5
334.978
328.629
329.049
329.612
330.23
330.867
331.492
332.068
332.553
332.906
333.093
333.093
332.906
332.553
332.068
331.492
330.867
330.23
329.612
329.049
328.629
322.276
322.599
323.035
323.516
324.011
324.497
324.944
325.321
325.595
325.74
325.74
325.595
325.321
324.944
324.497
324.011
323.516
323.035
322.599
322.276
315.921
316.15
316.461
316.804
317.158
317.504
317.824
318.093
318.288
318.391
318.391
318.288
318.093
317.824
317.504
317.158
316.804
316.461
316.15
315.921
309.564
309.701
309.887
310.093
310.305
310.514
310.705
310.867
310.984
311.046
311.046
310.984
310.867
310.705
310.514
310.305
310.093
309.887
309.701
309.564
303.206
303.252
303.314
303.383
303.454
303.524
303.588
303.642
303.682
303.703
303.703
303.682
303.642
303.588
303.524
303.454
303.383
303.314
303.252
303.206
347.81
348.548
349.49
350.515
351.57
352.605
353.559
354.364
354.951
355.26
355.26
354.951
354.364
353.559
352.605
351.57
350.515
349.49
348.548
347.81
341.451
342.076
342.888
343.775
344.688
345.583
346.408
347.104
347.61
347.877
347.877
347.61
347.104
346.408
345.583
344.688
343.775
342.888
342.076
341.451
335.087
335.605
336.289
337.038
337.81
338.566
339.263
339.85
340.277
340.503
340.503
340.277
339.85
339.263
338.566
337.81
337.038
336.289
335.605
335.087
328.718
329.135
329.693
330.305
330.936
331.554
332.123
332.602
332.951
333.135
333.135
332.951
332.602
332.123
331.554
330.936
330.305
329.693
329.135
328.718
322.345
322.666
323.098
323.574
324.065
324.545
324.987
325.359
325.63
325.773
325.773
325.63
325.359
324.987
324.545
324.065
323.574
323.098
322.666
322.345
315.971
316.197
316.506
316.846
317.196
317.539
317.854
318.12
318.313
318.415
318.415
318.313
318.12
317.854
317.539
317.196
316.846
316.506
316.197
315.971
309.594
309.729
309.914
310.118
310.328
310.534
310.724
310.883
310.999
311.06
311.06
310.999
310.883
310.724
310.534
310.328
310.118
309.914
309.729
309.594
303.216
303.261
303.323
303.392
303.462
303.531
303.595
303.648
303.687
303.707
303.707
303.687
303.648
303.595
303.531
303.462
303.392
303.323
303.261
303.216
348.11
348.836
349.761
350.767
351.801
352.814
353.746
354.532
355.103
355.404
355.404
355.103
354.532
353.746
352.814
351.801
350.767
349.761
348.836
348.11
341.71
342.325
343.123
343.994
344.888
345.764
346.57
347.249
347.742
348.003
348.003
347.742
347.249
346.57
345.764
344.888
343.994
343.123
342.325
341.71
335.305
335.815
336.488
337.223
337.98
338.72
339.4
339.973
340.39
340.609
340.609
340.39
339.973
339.4
338.72
337.98
337.223
336.488
335.815
335.305
328.896
329.307
329.855
330.456
331.075
331.679
332.235
332.703
333.043
333.222
333.222
333.043
332.703
332.235
331.679
331.075
330.456
329.855
329.307
328.896
322.484
322.799
323.225
323.692
324.172
324.642
325.074
325.438
325.702
325.841
325.841
325.702
325.438
325.074
324.642
324.172
323.692
323.225
322.799
322.484
316.07
316.293
316.596
316.929
317.273
317.608
317.917
318.176
318.364
318.464
318.464
318.364
318.176
317.917
317.608
317.273
316.929
316.596
316.293
316.07
309.653
309.786
309.968
310.169
310.375
310.576
310.761
310.917
311.03
311.09
311.09
311.03
310.917
310.761
310.576
310.375
310.169
309.968
309.786
309.653
303.236
303.281
303.341
303.409
303.478
303.545
303.607
303.659
303.697
303.717
303.717
303.697
303.659
303.607
303.545
303.478
303.409
303.341
303.281
303.236
348.56
349.269
350.172
351.15
352.154
353.134
354.034
354.792
355.341
355.631
355.631
355.341
354.792
354.034
353.134
352.154
351.15
350.172
349.269
348.56
342.1
342.7
343.478
344.325
345.194
346.042
346.82
347.475
347.95
348.2
348.2
347.95
347.475
346.82
346.042
345.194
344.325
343.478
342.7
342.1
335.634
336.132
336.788
337.504
338.238
338.954
339.612
340.165
340.565
340.777
340.777
340.565
340.165
339.612
338.954
338.238
337.504
336.788
336.132
335.634
329.165
329.566
330.101
330.686
331.286
331.871
332.409
332.86
333.187
333.36
333.36
333.187
332.86
332.409
331.871
331.286
330.686
330.101
329.566
329.165
322.693
323.001
323.416
323.87
324.337
324.792
325.209
325.56
325.814
325.948
325.948
325.814
325.56
325.209
324.792
324.337
323.87
323.416
323.001
322.693
316.219
316.437
316.732
317.057
317.39
317.715
318.013
318.263
318.445
318.54
318.54
318.445
318.263
318.013
317.715
317.39
317.057
316.732
316.437
316.219
309.743
309.873
310.05
310.245
310.445
310.64
310.819
310.969
311.078
311.136
311.136
311.078
310.969
310.819
310.64
310.445
310.245
310.05
309.873
309.743
303.266
303.309
303.369
303.434
303.501
303.567
303.627
303.677
303.713
303.733
303.733
303.713
303.677
303.627
303.567
303.501
303.434
303.369
303.309
303.266
349.165
349.852
350.725
351.668
352.633
353.572
354.433
355.155
355.678
355.953
355.953
355.678
355.155
354.433
353.572
352.633
351.668
350.725
349.852
349.165
342.622
343.204
343.957
344.774
345.609
346.421
347.166
347.79
348.242
348.48
348.48
348.242
347.79
347.166
346.421
345.609
344.774
343.957
343.204
342.622
336.076
336.559
337.193
337.883
338.589
339.276
339.905
340.431
340.813
341.014
341.014
340.813
340.431
339.905
339.276
338.589
337.883
337.193
336.559
336.076
329.526
329.915
330.431
330.996
331.573
332.134
332.648
333.078
333.39
333.554
333.554
333.39
333.078
332.648
332.134
331.573
330.996
330.431
329.915
329.526
322.973
323.272
323.673
324.111
324.56
324.996
325.396
325.73
325.972
326.099
326.099
325.972
325.73
325.396
324.996
324.56
324.111
323.673
323.272
322.973
316.419
316.63
316.916
317.229
317.549
317.861
318.146
318.385
318.558
318.649
318.649
318.558
318.385
318.146
317.861
317.549
317.229
316.916
316.63
316.419
309.863
309.989
310.16
310.348
310.541
310.728
310.899
311.042
311.146
311.201
311.201
311.146
311.042
310.899
310.728
310.541
310.348
310.16
309.989
309.863
303.306
303.348
303.406
303.469
303.533
303.596
303.653
303.701
303.736
303.754
303.754
303.736
303.701
303.653
303.596
303.533
303.469
303.406
303.348
303.306
349.926
350.587
351.425
352.327
353.246
354.138
354.953
355.633
356.126
356.385
356.385
356.126
355.633
354.953
354.138
353.246
352.327
351.425
350.587
349.926
343.28
343.84
344.563
345.344
346.14
346.912
347.616
348.205
348.631
348.854
348.854
348.631
348.205
347.616
346.912
346.14
345.344
344.563
343.84
343.28
336.632
337.096
337.705
338.365
339.038
339.69
340.286
340.783
341.142
341.331
341.331
341.142
340.783
340.286
339.69
339.038
338.365
337.705
337.096
336.632
329.98
330.354
330.85
331.39
331.94
332.473
332.96
333.366
333.66
333.814
333.814
333.66
333.366
332.96
332.473
331.94
331.39
330.85
330.354
329.98
323.326
323.613
323.998
324.418
324.845
325.26
325.638
325.954
326.182
326.302
326.302
326.182
325.954
325.638
325.26
324.845
324.418
323.998
323.613
323.326
316.671
316.874
317.148
317.448
317.753
318.05
318.32
318.545
318.708
318.793
318.793
318.708
318.545
318.32
318.05
317.753
317.448
317.148
316.874
316.671
310.014
310.136
310.3
310.48
310.663
310.841
311.003
311.139
311.236
311.288
311.288
311.236
311.139
311.003
310.841
310.663
310.48
310.3
310.136
310.014
303.357
303.397
303.453
303.513
303.574
303.634
303.688
303.734
303.766
303.784
303.784
303.766
303.734
303.688
303.634
303.574
303.513
303.453
303.397
303.357
350.846
351.479
352.276
353.133
354.002
354.841
355.605
356.241
356.7
356.941
356.941
356.7
356.241
355.605
354.841
354.002
353.133
352.276
351.479
350.846
344.076
344.612
345.3
346.042
346.794
347.521
348.181
348.732
349.128
349.337
349.337
349.128
348.732
348.181
347.521
346.794
346.042
345.3
344.612
344.076
337.304
337.748
338.328
338.955
339.591
340.205
340.764
341.229
341.564
341.739
341.739
341.564
341.229
340.764
340.205
339.591
338.955
338.328
337.748
337.304
330.529
330.887
331.36
331.872
332.392
332.895
333.351
333.731
334.005
334.148
334.148
334.005
333.731
333.351
332.895
332.392
331.872
331.36
330.887
330.529
323.753
324.028
324.394
324.793
325.197
325.588
325.942
326.238
326.45
326.562
326.562
326.45
326.238
325.942
325.588
325.197
324.793
324.394
324.028
323.753
316.976
317.17
317.431
317.716
318.005
318.284
318.537
318.748
318.9
318.979
318.979
318.9
318.748
318.537
318.284
318.005
317.716
317.431
317.17
316.976
310.197
310.313
310.47
310.641
310.814
310.982
311.134
311.26
311.352
311.399
311.399
311.352
311.26
311.134
310.982
310.814
310.641
310.47
310.313
310.197
303.418
303.457
303.51
303.567
303.625
303.681
303.732
303.774
303.805
303.821
303.821
303.805
303.774
303.732
303.681
303.625
303.567
303.51
303.457
303.418
351.929
352.53
353.286
354.093
354.908
355.692
356.402
356.991
357.415
357.637
357.637
357.415
356.991
356.402
355.692
354.908
354.093
353.286
352.53
351.929
345.013
345.522
346.174
346.873
347.578
348.257
348.872
349.381
349.748
349.94
349.94
349.748
349.381
348.872
348.257
347.578
346.873
346.174
345.522
345.013
338.096
338.518
339.067
339.657
340.254
340.828
341.347
341.778
342.088
342.25
342.25
342.088
341.778
341.347
340.828
340.254
339.657
339.067
338.518
338.096
331.176
331.516
331.963
332.446
332.935
333.404
333.829
334.181
334.434
334.566
334.566
334.434
334.181
333.829
333.404
332.935
332.446
331.963
331.516
331.176
324.256
324.517
324.864
325.239
325.619
325.984
326.314
326.588
326.784
326.887
326.887
326.784
326.588
326.314
325.984
325.619
325.239
324.864
324.517
324.256
317.334
317.519
317.767
318.035
318.306
318.567
318.802
318.998
319.138
319.212
319.212
319.138
318.998
318.802
318.567
318.306
318.035
317.767
317.519
317.334
310.413
310.523
310.671
310.832
310.995
311.152
311.293
311.411
311.495
311.539
311.539
311.495
311.411
311.293
311.152
310.995
310.832
310.671
310.523
310.413
303.49
303.527
303.577
303.631
303.686
303.738
303.785
303.825
303.853
303.868
303.868
303.853
303.825
303.785
303.738
303.686
303.631
303.577
303.527
303.49
353.179
353.747
354.457
355.213
355.973
356.699
357.355
357.896
358.285
358.488
358.488
358.285
357.896
357.355
356.699
355.973
355.213
354.457
353.747
353.179
346.094
346.575
347.188
347.843
348.5
349.13
349.697
350.166
350.502
350.678
350.678
350.502
350.166
349.697
349.13
348.5
347.843
347.188
346.575
346.094
339.009
339.407
339.924
340.477
341.034
341.566
342.045
342.442
342.726
342.874
342.874
342.726
342.442
342.045
341.566
341.034
340.477
339.924
339.407
339.009
331.922
332.243
332.664
333.117
333.572
334.007
334.399
334.723
334.956
335.077
335.077
334.956
334.723
334.399
334.007
333.572
333.117
332.664
332.243
331.922
324.836
325.082
325.409
325.76
326.114
326.453
326.758
327.01
327.19
327.284
327.284
327.19
327.01
326.758
326.453
326.114
325.76
325.409
325.082
324.836
317.749
317.923
318.156
318.407
318.66
318.902
319.119
319.299
319.428
319.496
319.496
319.428
319.299
319.119
318.902
318.66
318.407
318.156
317.923
317.749
310.661
310.765
310.905
311.056
311.208
311.353
311.484
311.592
311.669
311.709
311.709
311.669
311.592
311.484
311.353
311.208
311.056
310.905
310.765
310.661
303.574
303.609
303.655
303.706
303.757
303.805
303.849
303.886
303.911
303.925
303.925
303.911
303.886
303.849
303.805
303.757
303.706
303.655
303.609
303.574
354.599
355.132
355.797
356.501
357.204
357.874
358.475
358.969
359.323
359.508
359.508
359.323
358.969
358.475
357.874
357.204
356.501
355.797
355.132
354.599
347.323
347.774
348.348
348.957
349.566
350.146
350.667
351.095
351.401
351.561
351.561
351.401
351.095
350.667
350.146
349.566
348.957
348.348
347.774
347.323
340.046
340.421
340.904
341.419
341.935
342.425
342.866
343.228
343.487
343.622
343.622
343.487
343.228
342.866
342.425
341.935
341.419
340.904
340.421
340.046
332.77
333.072
333.466
333.887
334.309
334.71
335.07
335.366
335.578
335.688
335.688
335.578
335.366
335.07
334.71
334.309
333.887
333.466
333.072
332.77
325.495
325.726
326.032
326.359
326.687
326.999
327.279
327.509
327.674
327.76
327.76
327.674
327.509
327.279
326.999
326.687
326.359
326.032
325.726
325.495
318.219
318.383
318.601
318.835
319.069
319.292
319.492
319.656
319.774
319.835
319.835
319.774
319.656
319.492
319.292
319.069
318.835
318.601
318.383
318.219
310.944
311.041
311.172
311.313
311.453
311.587
311.707
311.806
311.877
311.913
311.913
311.877
311.806
311.707
311.587
311.453
311.313
311.172
311.041
310.944
303.668
303.701
303.745
303.792
303.839
303.884
303.924
303.957
303.981
303.993
303.993
303.981
303.957
303.924
303.884
303.839
303.792
303.745
303.701
303.668
356.192
356.691
357.31
357.962
358.609
359.223
359.771
360.22
360.541
360.707
360.707
360.541
360.22
359.771
359.223
358.609
357.962
357.31
356.691
356.192
348.701
349.123
349.657
350.221
350.783
351.315
351.789
352.178
352.456
352.6
352.6
352.456
352.178
351.789
351.315
350.783
350.221
349.657
349.123
348.701
341.211
341.561
342.011
342.488
342.963
343.413
343.815
344.144
344.378
344.5
344.5
344.378
344.144
343.815
343.413
342.963
342.488
342.011
341.561
341.211
333.722
334.004
334.371
334.761
335.15
335.518
335.846
336.115
336.307
336.407
336.407
336.307
336.115
335.846
335.518
335.15
334.761
334.371
334.004
333.722
326.234
326.45
326.735
327.039
327.341
327.627
327.882
328.092
328.241
328.318
328.318
328.241
328.092
327.882
327.627
327.341
327.039
326.735
326.45
326.234
318.747
318.9
319.103
319.32
319.536
319.74
319.923
320.072
320.179
320.234
320.234
320.179
320.072
319.923
319.74
319.536
319.32
319.103
318.9
318.747
311.261
311.352
311.474
311.604
311.734
311.856
311.966
312.056
312.12
312.153
312.153
312.12
312.056
311.966
311.856
311.734
311.604
311.474
311.352
311.261
303.775
303.805
303.846
303.89
303.933
303.974
304.011
304.041
304.063
304.074
304.074
304.063
304.041
304.011
303.974
303.933
303.89
303.846
303.805
303.775
357.961
358.426
359
359.601
360.195
360.754
361.252
361.658
361.947
362.096
362.096
361.947
361.658
361.252
360.754
360.195
359.601
359
358.426
357.961
350.231
350.625
351.12
351.64
352.155
352.64
353.071
353.423
353.673
353.803
353.803
353.673
353.423
353.071
352.64
352.155
351.64
351.12
350.625
350.231
342.504
342.83
343.247
343.687
344.123
344.534
344.898
345.196
345.407
345.517
345.517
345.407
345.196
344.898
344.534
344.123
343.687
343.247
342.83
342.504
334.779
335.041
335.381
335.741
336.098
336.434
336.732
336.976
337.148
337.238
337.238
337.148
336.976
336.732
336.434
336.098
335.741
335.381
335.041
334.779
327.055
327.257
327.521
327.801
328.078
328.339
328.571
328.761
328.895
328.965
328.965
328.895
328.761
328.571
328.339
328.078
327.801
327.521
327.257
327.055
319.334
319.476
319.664
319.864
320.062
320.249
320.415
320.55
320.646
320.696
320.696
320.646
320.55
320.415
320.249
320.062
319.864
319.664
319.476
319.334
311.613
311.698
311.811
311.931
312.05
312.162
312.262
312.343
312.4
312.43
312.43
312.4
312.343
312.262
312.162
312.05
311.931
311.811
311.698
311.613
303.893
303.921
303.959
303.999
304.039
304.077
304.11
304.137
304.157
304.167
304.167
304.157
304.137
304.11
304.077
304.039
303.999
303.959
303.921
303.893
359.909
360.34
360.87
361.422
361.965
362.473
362.923
363.289
363.548
363.682
363.682
363.548
363.289
362.923
362.473
361.965
361.422
360.87
360.34
359.909
351.917
352.281
352.738
353.217
353.687
354.128
354.518
354.835
355.059
355.175
355.175
355.059
354.835
354.518
354.128
353.687
353.217
352.738
352.281
351.917
343.928
344.23
344.615
345.02
345.418
345.791
346.121
346.389
346.579
346.677
346.677
346.579
346.389
346.121
345.791
345.418
345.02
344.615
344.23
343.928
335.942
336.186
336.5
336.831
337.156
337.462
337.732
337.951
338.106
338.187
338.187
338.106
337.951
337.732
337.462
337.156
336.831
336.5
336.186
335.942
327.96
328.146
328.39
328.647
328.901
329.138
329.348
329.519
329.64
329.703
329.703
329.64
329.519
329.348
329.138
328.901
328.647
328.39
328.146
327.96
319.979
320.111
320.285
320.469
320.65
320.82
320.97
321.092
321.178
321.223
321.223
321.178
321.092
320.97
320.82
320.65
320.469
320.285
320.111
319.979
312
312.079
312.184
312.294
312.403
312.505
312.595
312.668
312.72
312.747
312.747
312.72
312.668
312.595
312.505
312.403
312.294
312.184
312.079
312
304.023
304.049
304.084
304.121
304.157
304.191
304.222
304.246
304.264
304.273
304.273
304.264
304.246
304.222
304.191
304.157
304.121
304.084
304.049
304.023
362.036
362.435
362.922
363.428
363.922
364.383
364.788
365.117
365.349
365.469
365.469
365.349
365.117
364.788
364.383
363.922
363.428
362.922
362.435
362.036
353.757
354.094
354.515
354.953
355.381
355.781
356.132
356.417
356.618
356.722
356.722
356.618
356.417
356.132
355.781
355.381
354.953
354.515
354.094
353.757
345.482
345.762
346.117
346.487
346.85
347.188
347.485
347.726
347.896
347.984
347.984
347.896
347.726
347.485
347.188
346.85
346.487
346.117
345.762
345.482
337.213
337.438
337.727
338.03
338.327
338.603
338.847
339.044
339.183
339.255
339.255
339.183
339.044
338.847
338.603
338.327
338.03
337.727
337.438
337.213
328.947
329.12
329.344
329.58
329.81
330.026
330.215
330.369
330.477
330.533
330.533
330.477
330.369
330.215
330.026
329.81
329.58
329.344
329.12
328.947
320.684
320.806
320.966
321.135
321.3
321.454
321.589
321.699
321.776
321.816
321.816
321.776
321.699
321.589
321.454
321.3
321.135
320.966
320.806
320.684
312.424
312.497
312.592
312.694
312.793
312.885
312.966
313.032
313.079
313.103
313.103
313.079
313.032
312.966
312.885
312.793
312.694
312.592
312.497
312.424
304.164
304.189
304.221
304.255
304.288
304.319
304.346
304.368
304.384
304.392
304.392
304.384
304.368
304.346
304.319
304.288
304.255
304.221
304.189
304.164
364.341
364.708
365.156
365.618
366.067
366.483
366.848
367.142
367.349
367.456
367.456
367.349
367.142
366.848
366.483
366.067
365.618
365.156
364.708
364.341
355.75
356.061
356.447
356.847
357.236
357.597
357.914
358.169
358.348
358.441
358.441
358.348
358.169
357.914
357.597
357.236
356.847
356.447
356.061
355.75
347.166
347.424
347.749
348.088
348.417
348.723
348.99
349.206
349.358
349.437
349.437
349.358
349.206
348.99
348.723
348.417
348.088
347.749
347.424
347.166
338.588
338.795
339.061
339.338
339.607
339.858
340.077
340.254
340.378
340.442
340.442
340.378
340.254
340.077
339.858
339.607
339.338
339.061
338.795
338.588
330.015
330.175
330.381
330.596
330.806
331
331.171
331.309
331.405
331.455
331.455
331.405
331.309
331.171
331
330.806
330.596
330.381
330.175
330.015
321.447
321.56
321.707
321.86
322.01
322.149
322.271
322.37
322.439
322.475
322.475
322.439
322.37
322.271
322.149
322.01
321.86
321.707
321.56
321.447
312.882
312.949
313.037
313.129
313.219
313.303
313.376
313.435
313.477
313.498
313.498
313.477
313.435
313.376
313.303
313.219
313.129
313.037
312.949
312.882
304.318
304.34
304.37
304.401
304.431
304.459
304.484
304.503
304.517
304.524
304.524
304.517
304.503
304.484
304.459
304.431
304.401
304.37
304.34
304.318
366.814
367.152
367.562
367.983
368.39
368.766
369.093
369.357
369.542
369.637
369.637
369.542
369.357
369.093
368.766
368.39
367.983
367.562
367.152
366.814
357.887
358.173
358.527
358.892
359.245
359.57
359.855
360.083
360.243
360.326
360.326
360.243
360.083
359.855
359.57
359.245
358.892
358.527
358.173
357.887
348.969
349.207
349.505
349.814
350.113
350.389
350.629
350.822
350.958
351.028
351.028
350.958
350.822
350.629
350.389
350.113
349.814
349.505
349.207
348.969
340.061
340.252
340.495
340.747
340.992
341.218
341.415
341.573
341.684
341.742
341.742
341.684
341.573
341.415
341.218
340.992
340.747
340.495
340.252
340.061
331.159
331.306
331.495
331.691
331.881
332.057
332.21
332.334
332.42
332.465
332.465
332.42
332.334
332.21
332.057
331.881
331.691
331.495
331.306
331.159
322.263
322.367
322.502
322.642
322.778
322.904
323.013
323.101
323.163
323.195
323.195
323.163
323.101
323.013
322.904
322.778
322.642
322.502
322.367
322.263
313.371
313.433
313.514
313.598
313.68
313.756
313.821
313.874
313.911
313.93
313.93
313.911
313.874
313.821
313.756
313.68
313.598
313.514
313.433
313.371
304.482
304.503
304.53
304.558
304.585
304.611
304.633
304.65
304.663
304.669
304.669
304.663
304.65
304.633
304.611
304.585
304.558
304.53
304.503
304.482
369.429
369.74
370.115
370.499
370.868
371.207
371.501
371.737
371.902
371.987
371.987
371.902
371.737
371.501
371.207
370.868
370.499
370.115
369.74
369.429
360.143
360.406
360.73
361.062
361.382
361.676
361.932
362.136
362.279
362.353
362.353
362.279
362.136
361.932
361.676
361.382
361.062
360.73
360.406
360.143
350.871
351.089
351.362
351.643
351.914
352.163
352.38
352.553
352.674
352.736
352.736
352.674
352.553
352.38
352.163
351.914
351.643
351.362
351.089
350.871
341.611
341.786
342.009
342.239
342.461
342.665
342.842
342.984
343.083
343.134
343.134
343.083
342.984
342.842
342.665
342.461
342.239
342.009
341.786
341.611
332.362
332.496
332.669
332.848
333.021
333.18
333.318
333.428
333.505
333.545
333.545
333.505
333.428
333.318
333.18
333.021
332.848
332.669
332.496
332.362
323.121
323.216
323.339
323.467
323.591
323.704
323.803
323.882
323.937
323.965
323.965
323.937
323.882
323.803
323.704
323.591
323.467
323.339
323.216
323.121
313.886
313.942
314.016
314.093
314.167
314.236
314.295
314.342
314.375
314.392
314.392
314.375
314.342
314.295
314.236
314.167
314.093
314.016
313.942
313.886
304.654
304.673
304.698
304.724
304.749
304.771
304.791
304.807
304.818
304.824
304.824
304.818
304.807
304.791
304.771
304.749
304.724
304.698
304.673
304.654
372.12
372.406
372.75
373.1
373.435
373.741
374.006
374.218
374.365
374.441
374.441
374.365
374.218
374.006
373.741
373.435
373.1
372.75
372.406
372.12
362.453
362.695
362.992
363.296
363.587
363.853
364.083
364.266
364.394
364.46
364.46
364.394
364.266
364.083
363.853
363.587
363.296
362.992
362.695
362.453
352.81
353.01
353.261
353.518
353.764
353.99
354.185
354.34
354.449
354.505
354.505
354.449
354.34
354.185
353.99
353.764
353.518
353.261
353.01
352.81
343.186
343.348
343.552
343.763
343.964
344.149
344.309
344.436
344.525
344.571
344.571
344.525
344.436
344.309
344.149
343.964
343.763
343.552
343.348
343.186
333.58
333.704
333.863
334.026
334.183
334.327
334.452
334.551
334.62
334.656
334.656
334.62
334.551
334.452
334.327
334.183
334.026
333.863
333.704
333.58
323.987
324.075
324.188
324.305
324.418
324.52
324.609
324.68
324.73
324.755
324.755
324.73
324.68
324.609
324.52
324.418
324.305
324.188
324.075
323.987
314.405
314.457
314.525
314.595
314.663
314.724
314.778
314.821
314.85
314.866
314.866
314.85
314.821
314.778
314.724
314.663
314.595
314.525
314.457
314.405
304.828
304.845
304.868
304.892
304.914
304.935
304.953
304.967
304.977
304.982
304.982
304.977
304.967
304.953
304.935
304.914
304.892
304.868
304.845
304.828
374.713
374.977
375.294
375.616
375.922
376.202
376.442
376.634
376.767
376.835
376.835
376.767
376.634
376.442
376.202
375.922
375.616
375.294
374.977
374.713
364.653
364.877
365.151
365.43
365.697
365.94
366.149
366.315
366.431
366.491
366.491
366.431
366.315
366.149
365.94
365.697
365.43
365.151
364.877
364.653
354.636
354.822
355.053
355.29
355.516
355.722
355.899
356.041
356.139
356.19
356.19
356.139
356.041
355.899
355.722
355.516
355.29
355.053
354.822
354.636
344.656
344.806
344.995
345.189
345.374
345.543
345.689
345.805
345.885
345.927
345.927
345.885
345.805
345.689
345.543
345.374
345.189
344.995
344.806
344.656
334.708
334.823
334.97
335.121
335.266
335.397
335.511
335.601
335.664
335.696
335.696
335.664
335.601
335.511
335.397
335.266
335.121
334.97
334.823
334.708
324.785
324.867
324.972
325.08
325.183
325.277
325.358
325.423
325.468
325.491
325.491
325.468
325.423
325.358
325.277
325.183
325.08
324.972
324.867
324.785
314.881
314.929
314.992
315.057
315.119
315.176
315.225
315.264
315.291
315.304
315.304
315.291
315.264
315.225
315.176
315.119
315.057
314.992
314.929
314.881
304.987
305.003
305.024
305.046
305.067
305.086
305.102
305.115
305.124
305.129
305.129
305.124
305.115
305.102
305.086
305.067
305.046
305.024
305.003
304.987
376.751
377
377.298
377.599
377.886
378.147
378.371
378.548
378.672
378.735
378.735
378.672
378.548
378.371
378.147
377.886
377.599
377.298
377
376.751
366.316
366.527
366.786
367.049
367.299
367.526
367.721
367.876
367.984
368.04
368.04
367.984
367.876
367.721
367.526
367.299
367.049
366.786
366.527
366.316
355.974
356.15
356.369
356.592
356.804
356.998
357.164
357.296
357.388
357.435
357.435
357.388
357.296
357.164
356.998
356.804
356.592
356.369
356.15
355.974
345.707
345.849
346.028
346.211
346.386
346.545
346.681
346.79
346.865
346.904
346.904
346.865
346.79
346.681
346.545
346.386
346.211
346.028
345.849
345.707
335.499
335.608
335.748
335.891
336.027
336.151
336.258
336.343
336.401
336.432
336.432
336.401
336.343
336.258
336.151
336.027
335.891
335.748
335.608
335.499
325.337
325.415
325.514
325.616
325.714
325.803
325.879
325.94
325.982
326.004
326.004
325.982
325.94
325.879
325.803
325.714
325.616
325.514
325.415
325.337
315.207
315.253
315.313
315.374
315.433
315.487
315.533
315.569
315.595
315.608
315.608
315.595
315.569
315.533
315.487
315.433
315.374
315.313
315.253
315.207
305.095
305.111
305.131
305.152
305.171
305.189
305.205
305.217
305.225
305.23
305.23
305.225
305.217
305.205
305.189
305.171
305.152
305.131
305.111
305.095
)
;

boundaryField
{
    hotSide
    {
        type            fixedGradient;
        gradient        nonuniform List<scalar> 
400
(
506.593
508.22
511.483
516.397
522.984
531.272
541.291
553.078
566.666
582.093
599.392
618.597
639.737
662.839
687.926
715.019
744.134
775.286
808.484
843.737
516.38
517.93
521.041
525.733
532.036
539.987
549.627
561
574.154
589.133
605.98
624.736
645.437
668.114
692.795
719.503
748.255
779.067
811.95
846.912
526.971
528.429
531.358
535.788
541.755
549.31
558.505
569.399
582.051
596.518
612.852
631.103
651.314
673.522
697.758
724.046
752.408
782.858
815.406
850.061
538.192
539.542
542.261
546.385
551.965
559.065
567.754
578.105
590.194
604.089
619.856
637.554
657.234
678.936
702.697
728.543
756.496
786.569
818.772
853.112
549.728
550.957
553.439
557.222
562.371
568.967
577.098
586.857
598.334
611.615
626.779
643.893
663.015
684.194
707.466
732.861
760.398
790.093
821.953
855.983
561.099
562.198
564.428
567.847
572.539
578.603
586.15
595.292
606.138
618.79
633.341
649.866
668.433
689.093
711.886
736.841
763.978
793.31
824.844
858.579
571.653
572.623
574.6
577.658
581.898
587.439
594.414
602.956
613.194
625.245
639.212
655.184
673.231
693.409
715.761
740.314
767.087
796.093
827.333
860.806
580.611
581.464
583.214
585.948
589.782
594.858
601.327
609.341
619.046
630.574
644.038
659.535
677.139
696.91
718.89
743.107
769.579
798.314
829.313
862.573
587.167
587.93
589.507
591.992
595.518
600.241
606.327
613.945
623.252
634.39
647.482
662.629
679.909
699.383
721.094
745.068
771.323
799.865
830.692
863.8
590.641
591.355
592.837
595.188
598.547
603.078
608.957
616.361
625.454
636.384
649.278
664.239
681.347
700.665
722.233
746.081
772.222
800.662
831.4
864.429
590.641
591.355
592.837
595.188
598.547
603.078
608.957
616.361
625.454
636.384
649.278
664.239
681.347
700.665
722.233
746.081
772.222
800.662
831.4
864.429
587.167
587.93
589.507
591.992
595.518
600.241
606.327
613.945
623.252
634.39
647.482
662.629
679.909
699.383
721.094
745.068
771.323
799.865
830.692
863.8
580.611
581.464
583.214
585.948
589.782
594.858
601.327
609.341
619.046
630.574
644.038
659.535
677.139
696.91
718.89
743.107
769.579
798.314
829.313
862.573
571.653
572.623
574.6
577.658
581.898
587.439
594.414
602.956
613.194
625.245
639.212
655.184
673.231
693.409
715.761
740.314
767.087
796.093
827.333
860.806
561.099
562.198
564.428
567.847
572.539
578.603
586.15
595.292
606.138
618.79
633.341
649.866
668.433
689.093
711.886
736.841
763.978
793.31
824.844
858.579
549.728
550.957
553.439
557.222
562.371
568.967
577.098
586.857
598.334
611.615
626.779
643.893
663.015
684.194
707.466
732.861
760.398
790.093
821.953
855.983
538.192
539.542
542.261
546.385
551.965
559.065
567.754
578.105
590.194
604.089
619.856
637.554
657.234
678.936
702.697
728.543
756.496
786.569
818.772
853.112
526.971
528.429
531.358
535.788
541.755
549.31
558.505
569.399
582.051
596.518
612.852
631.103
651.314
673.522
697.758
724.046
752.408
782.858
815.406
850.061
516.38
517.93
521.041
525.733
532.036
539.987
549.627
561
574.154
589.133
605.98
624.736
645.437
668.114
692.795
719.503
748.255
779.067
811.95
846.912
506.593
508.22
511.483
516.397
522.984
531.272
541.291
553.078
566.666
582.093
599.392
618.597
639.737
662.839
687.926
715.019
744.134
775.286
808.484
843.737
)
;
    }
    coldSide
    {
        type            mixed;
        refValue        uniform 300;
        refGradient     uniform 0;
        valueFraction   uniform 0.991591;
        source          uniform 0;
        value           nonuniform List<scalar> 
400
(
300.027
300.027
300.027
300.027
300.028
300.028
300.029
300.029
300.03
300.031
300.032
300.033
300.034
300.035
300.036
300.038
300.039
300.041
300.042
300.043
300.027
300.027
300.028
300.028
300.028
300.029
300.029
300.03
300.03
300.031
300.032
300.033
300.034
300.035
300.036
300.038
300.039
300.041
300.042
300.043
300.028
300.028
300.028
300.028