/*--------------------------------*- C++ -*----------------------------------*\
| =========                 |                                                 |
| \\      /  F ield         | OpenFOAM: The Open Source CFD Toolbox           |
|  \\    /   O peration     | Version:  2212                                  |
|   \\  /    A nd           | Website:  www.openfoam.com                      |
|    \\/     M anipulation  |                                                 |
\*---------------------------------------------------------------------------*/
FoamFile
{
    version     2.0;
    format      ascii;
    arch        "LSB;label=32;scalar=64";
    class       volScalarField;
    location    "0";
    object      T;
}
// * * * * * * * * * * * * * * * * * * * * * * * * * * * * * * * * * * * * * //

dimensions      [0 0 0 1 0 0 0];

internalField   nonuniform List<scalar> 
3200
(
316.692
316.218
315.984
315.955
316.362
316.927
317.149
317.724
318.196
318.421
318.703
318.762
318.571
318.362
318.062
317.789
317.705
317.726
318.116
318.645
314.494
314.122
313.934
313.904
314.24
314.738
314.913
315.432
315.828
316.005
316.264
316.31
316.137
315.949
315.689
315.446
315.37
315.373
315.722
316.167
312.306
312
311.859
311.815
312.08
312.53
312.652
313.135
313.441
313.587
313.785
313.822
313.688
313.539
313.312
313.089
313.011
313.022
313.317
313.696
310.103
309.851
309.723
309.704
309.904
310.262
310.376
310.804
311.016
311.151
311.299
311.332
311.243
311.11
310.925
310.723
310.645
310.665
310.931
311.197
307.896
307.709
307.576
307.574
307.707
308.006
308.087
308.442
308.579
308.694
308.829
308.847
308.745
308.661
308.518
308.341
308.271
308.29
308.539
308.704
305.654
305.547
305.431
305.428
305.512
305.75
305.82
306.048
306.139
306.239
306.324
306.352
306.246
306.204
306.1
305.972
305.887
305.924
306.124
306.208
303.406
303.35
303.263
303.268
303.325
303.47
303.5
303.63
303.685
303.775
303.802
303.826
303.746
303.734
303.677
303.607
303.512
303.56
303.683
303.727
301.132
301.121
301.091
301.089
301.112
301.161
301.182
301.215
301.234
301.268
301.274
301.282
301.252
301.267
301.239
301.213
301.175
301.2
301.23
301.252
317.097
316.571
316.124
316.128
316.564
317.104
317.519
318.057
318.616
318.739
318.989
319.017
318.911
318.664
318.401
318.136
317.879
317.899
318.215
318.803
314.879
314.42
314.049
314.018
314.409
314.897
315.227
315.717
316.2
316.288
316.502
316.528
316.429
316.207
315.963
315.766
315.513
315.523
315.798
316.291
312.641
312.234
311.962
311.895
312.254
312.642
312.926
313.338
313.758
313.832
313.998
314.013
313.924
313.754
313.522
313.378
313.154
313.134
313.384
313.78
310.378
310.051
309.816
309.761
310.056
310.373
310.623
310.943
311.284
311.352
311.467
311.49
311.4
311.283
311.102
310.964
310.783
310.746
310.976
311.263
308.102
307.831
307.652
307.626
307.85
308.079
308.3
308.507
308.798
308.851
308.917
308.954
308.896
308.793
308.642
308.541
308.395
308.362
308.56
308.746
305.797
305.608
305.45
305.461
305.606
305.765
305.96
306.063
306.309
306.352
306.38
306.417
306.375
306.272
306.192
306.114
306.011
305.977
306.121
306.243
303.478
303.364
303.258
303.298
303.36
303.445
303.591
303.645
303.794
303.822
303.85
303.851
303.845
303.766
303.726
303.707
303.611
303.602
303.683
303.74
301.168
301.131
301.09
301.101
301.127
301.159
301.208
301.22
301.263
301.276
301.289
301.291
301.299
301.262
301.252
301.261
301.213
301.216
301.239
301.245
317.466
317.001
316.461
316.566
317.07
317.573
317.958
318.549
319.102
319.193
319.53
319.558
319.33
319.082
318.824
318.482
318.154
318.073
318.484
318.978
315.209
314.802
314.32
314.397
314.86
315.289
315.613
316.145
316.62
316.684
316.952
316.975
316.769
316.565
316.333
316.016
315.769
315.667
316.055
316.447
312.919
312.607
312.164
312.222
312.643
312.964
313.278
313.691
314.123
314.164
314.365
314.407
314.197
314.043
313.833
313.589
313.35
313.272
313.594
313.921
310.611
310.371
310.025
310.025
310.397
310.619
310.917
311.225
311.614
311.615
311.746
311.824
311.599
311.523
311.339
311.147
310.925
310.877
311.134
311.4
308.28
308.103
307.84
307.818
308.119
308.266
308.536
308.746
309.065
309.062
309.138
309.19
309.007
308.992
308.84
308.692
308.498
308.465
308.687
308.889
305.936
305.815
305.622
305.612
305.824
305.923
306.114
306.268
306.494
306.493
306.529
306.569
306.413
306.418
306.354
306.238
306.069
306.044
306.209
306.364
303.564
303.512
303.402
303.376
303.509
303.558
303.688
303.78
303.887
303.91
303.928
303.946
303.843
303.848
303.822
303.752
303.647
303.628
303.735
303.821
301.205
301.179
301.15
301.143
301.175
301.196
301.228
301.275
301.299
301.313
301.317
301.321
301.296
301.294
301.276
301.253
301.212
301.21
301.255
301.283
317.86
317.51
317.045
317.143
317.628
317.928
318.593
319.112
319.612
319.984
320.203
320.262
319.987
319.719
319.198
319.021
318.71
318.547
318.919
319.172
315.542
315.243
314.816
314.932
315.356
315.606
316.171
316.602
317.045
317.363
317.565
317.618
317.356
317.144
316.67
316.511
316.244
316.112
316.398
316.61
313.204
312.965
312.585
312.69
313.035
313.251
313.725
314.075
314.462
314.706
314.892
314.93
314.698
314.532
314.107
313.98
313.758
313.664
313.882
314.07
310.824
310.647
310.331
310.433
310.694
310.855
311.242
311.538
311.866
312.052
312.224
312.221
312.03
311.912
311.545
311.426
311.273
311.219
311.386
311.531
308.444
308.312
308.047
308.147
308.335
308.455
308.742
309.003
309.265
309.377
309.5
309.496
309.371
309.284
309
308.888
308.78
308.765
308.86
308.979
306.031
305.968
305.759
305.855
305.981
306.056
306.239
306.443
306.64
306.681
306.785
306.791
306.712
306.642
306.449
306.352
306.277
306.306
306.349
306.419
303.625
303.593
303.466
303.528
303.611
303.639
303.76
303.868
303.995
304.011
304.075
304.096
304.04
303.987
303.891
303.826
303.776
303.799
303.817
303.855
301.217
301.211
301.159
301.184
301.218
301.217
301.268
301.302
301.337
301.347
301.37
301.375
301.348
301.33
301.31
301.279
301.255
301.272
301.284
301.279
318.561
318.115
317.817
317.826
318.35
318.664
319.193
319.765
320.23
320.727
320.99
320.839
320.701
320.433
319.939
319.555
319.352
319.258
319.317
319.682
316.145
315.782
315.491
315.527
315.977
316.248
316.67
317.176
317.578
318.019
318.237
318.093
317.971
317.738
317.293
316.947
316.808
316.719
316.758
317.051
313.696
313.421
313.139
313.222
313.575
313.789
314.121
314.56
314.918
315.29
315.457
315.344
315.235
315.038
314.623
314.343
314.245
314.173
314.185
314.453
311.216
311.022
310.79
310.867
311.122
311.32
311.573
311.935
312.236
312.528
312.689
312.571
312.491
312.312
311.965
311.741
311.677
311.604
311.626
311.839
308.74
308.604
308.412
308.476
308.667
308.823
309.023
309.312
309.56
309.764
309.895
309.8
309.715
309.584
309.297
309.131
309.105
309.045
309.066
309.223
306.253
306.175
306.026
306.059
306.203
306.307
306.455
306.66
306.842
306.997
307.092
307.016
306.937
306.86
306.633
306.527
306.52
306.471
306.496
306.591
303.77
303.705
303.638
303.638
303.741
303.796
303.884
304.002
304.122
304.202
304.272
304.198
304.163
304.14
303.998
303.911
303.914
303.88
303.921
303.961
301.27
301.249
301.223
301.212
301.261
301.278
301.308
301.353
301.385
301.41
301.441
301.413
301.394
301.392
301.344
301.312
301.315
301.299
301.319
301.331
319.296
318.917
318.648
318.609
319.164
319.449
319.905
320.492
321.056
321.441
321.708
321.636
321.409
320.99
320.489
320.179
319.877
319.915
320.076
320.316
316.767
316.458
316.237
316.195
316.696
316.915
317.29
317.794
318.306
318.631
318.854
318.79
318.615
318.221
317.776
317.498
317.249
317.296
317.42
317.625
314.218
314.006
313.807
313.752
314.196
314.344
314.668
315.078
315.522
315.828
315.994
315.946
315.77
315.449
315.05
314.832
314.633
314.65
314.753
314.919
311.659
311.506
311.326
311.289
311.652
311.764
312.023
312.314
312.721
313.003
313.141
313.097
312.902
312.67
312.333
312.197
311.989
311.996
312.086
312.202
309.099
308.99
308.815
308.785
309.084
309.141
309.371
309.566
309.891
310.133
310.233
310.215
310.031
309.866
309.594
309.527
309.359
309.345
309.401
309.479
306.529
306.439
306.286
306.295
306.518
306.533
306.706
306.833
307.063
307.261
307.328
307.304
307.144
307.057
306.864
306.838
306.696
306.684
306.708
306.77
303.941
303.879
303.774
303.798
303.938
303.913
304.036
304.09
304.256
304.369
304.398
304.392
304.284
304.257
304.14
304.142
304.027
304.028
304.02
304.064
301.326
301.302
301.267
301.275
301.325
301.31
301.348
301.371
301.431
301.46
301.476
301.47
301.43
301.43
301.388
301.385
301.349
301.359
301.348
301.358
320.05
319.655
319.568
319.507
319.82
320.151
320.648
321.351
321.858
322.273
322.457
322.536
322.212
321.717
321.295
320.853
320.635
320.505
320.743
320.948
317.429
317.117
317.038
316.986
317.269
317.526
317.954
318.552
318.994
319.35
319.52
319.567
319.278
318.837
318.464
318.109
317.909
317.803
318.021
318.155
314.787
314.56
314.486
314.443
314.673
314.876
315.246
315.734
316.136
316.412
316.565
316.594
316.342
315.958
315.644
315.338
315.179
315.081
315.267
315.35
312.122
311.971
311.903
311.869
312.043
312.21
312.519
312.893
313.27
313.449
313.601
313.606
313.398
313.062
312.81
312.562
312.437
312.351
312.52
312.563
309.441
309.342
309.298
309.271
309.403
309.51
309.774
310.043
310.342
310.479
310.598
310.623
310.449
310.156
309.986
309.778
309.668
309.609
309.757
309.781
306.752
306.704
306.648
306.647
306.736
306.818
306.987
307.182
307.416
307.503
307.578
307.616
307.482
307.253
307.139
307.02
306.914
306.874
306.952
307.011
304.047
304.042
303.987
304
304.04
304.098
304.212
304.323
304.475
304.509
304.558
304.584
304.498
304.35
304.297
304.233
304.163
304.134
304.173
304.206
301.356
301.354
301.331
301.336
301.347
301.379
301.434
301.45
301.509
301.513
301.529
301.535
301.511
301.457
301.437
301.421
301.399
301.383
301.393
301.401
320.978
320.559
320.326
320.452
320.667
321.107
321.622
322.157
322.698
323.056
323.352
323.295
322.941
322.543
322.12
321.533
321.293
321.267
321.43
321.618
318.239
317.868
317.688
317.82
317.947
318.33
318.803
319.248
319.732
320.029
320.278
320.219
319.933
319.583
319.215
318.697
318.469
318.459
318.598
318.741
315.47
315.193
315.031
315.148
315.217
315.524
315.961
316.308
316.747
316.978
317.2
317.142
316.909
316.611
316.309
315.838
315.647
315.648
315.743
315.883
312.678
312.499
312.346
312.465
312.464
312.712
313.076
313.372
313.745
313.923
314.101
314.044
313.873
313.616
313.385
312.98
312.803
312.798
312.915
313.016
309.868
309.748
309.637
309.763
309.702
309.884
310.161
310.408
310.71
310.849
310.996
310.95
310.8
310.618
310.435
310.104
309.943
309.971
310.061
310.127
307.078
306.979
306.909
307.032
306.946
307.042
307.26
307.458
307.649
307.768
307.869
307.836
307.714
307.6
307.468
307.241
307.088
307.154
307.189
307.228
304.256
304.203
304.164
304.249
304.17
304.225
304.351
304.491
304.597
304.674
304.749
304.699
304.633
304.563
304.482
304.362
304.246
304.3
304.331
304.358
301.435
301.417
301.405
301.434
301.384
301.422
301.461
301.51
301.544
301.578
301.6
301.583
301.554
301.525
301.51
301.464
301.424
301.449
301.45
301.469
321.822
321.511
321.195
321.309
321.578
321.992
322.492
322.995
323.498
323.86
324.14
324.018
323.72
323.335
322.866
322.245
321.949
321.996
322.12
322.275
318.957
318.69
318.454
318.554
318.763
319.094
319.543
319.963
320.408
320.709
320.96
320.837
320.6
320.246
319.845
319.332
319.03
319.098
319.215
319.321
316.088
315.843
315.7
315.785
315.929
316.193
316.57
316.907
317.332
317.554
317.756
317.673
317.453
317.174
316.808
316.38
316.112
316.167
316.293
316.35
313.227
312.997
312.901
312.983
313.071
313.252
313.584
313.869
314.22
314.393
314.546
314.486
314.3
314.09
313.773
313.433
313.198
313.258
313.354
313.388
310.32
310.11
310.078
310.153
310.174
310.322
310.563
310.805
311.084
311.216
311.337
311.269
311.136
310.984
310.729
310.466
310.281
310.35
310.386
310.426
307.398
307.24
307.231
307.286
307.284
307.39
307.557
307.73
307.932
308.036
308.097
308.042
307.965
307.849
307.669
307.486
307.36
307.415
307.431
307.448
304.456
304.342
304.36
304.379
304.365
304.465
304.538
304.656
304.78
304.824
304.856
304.832
304.776
304.725
304.606
304.49
304.419
304.467
304.47
304.472
301.493
301.452
301.474
301.463
301.455
301.509
301.524
301.571
301.598
301.608
301.632
301.618
301.593
301.576
301.549
301.505
301.478
301.5
301.505
301.493
322.809
322.448
322.262
322.308
322.418
322.962
323.432
323.764
324.232
324.659
324.812
324.881
324.51
324
323.553
323.013
322.784
322.756
322.858
323.031
319.84
319.518
319.37
319.395
319.485
319.953
320.371
320.632
321.083
321.388
321.53
321.631
321.275
320.82
320.463
319.952
319.767
319.752
319.844
319.954
316.842
316.574
316.442
316.462
316.522
316.919
317.275
317.505
317.879
318.122
318.246
318.346
318.035
317.635
317.342
316.899
316.728
316.743
316.822
316.896
313.804
313.602
313.494
313.513
313.542
313.854
314.176
314.371
314.676
314.859
314.958
315.041
314.803
314.46
314.219
313.833
313.708
313.729
313.779
313.821
310.747
310.618
310.511
310.536
310.556
310.786
311.043
311.202
311.456
311.584
311.668
311.718
311.56
311.285
311.08
310.783
310.666
310.712
310.73
310.742
307.68
307.602
307.534
307.53
307.568
307.711
307.938
308.013
308.223
308.261
308.362
308.381
308.27
308.083
307.933
307.716
307.628
307.678
307.671
307.682
304.614
304.576
304.524
304.515
304.554
304.644
304.779
304.813
304.966
304.955
305.028
305.029
304.977
304.867
304.759
304.635
304.588
304.625
304.605
304.614
301.547
301.538
301.523
301.526
301.528
301.559
301.606
301.613
301.67
301.657
301.69
301.685
301.677
301.631
301.592
301.556
301.54
301.559
301.542
301.546
323.807
323.497
323.261
323.346
323.461
323.783
324.17
324.585
325.009
325.311
325.507
325.544
325.188
324.745
324.36
323.83
323.624
323.442
323.636
323.738
320.698
320.418
320.205
320.317
320.399
320.674
320.986
321.373
321.709
321.975
322.131
322.181
321.866
321.477
321.142
320.682
320.537
320.349
320.509
320.584
317.557
317.33
317.161
317.257
317.333
317.522
317.776
318.165
318.385
318.622
318.742
318.802
318.547
318.195
317.901
317.53
317.42
317.239
317.354
317.444
314.391
314.2
314.088
314.158
314.248
314.364
314.567
314.895
315.054
315.248
315.347
315.416
315.212
314.909
314.664
314.346
314.29
314.137
314.206
314.275
311.196
311.083
310.996
311.032
311.11
311.211
311.338
311.589
311.722
311.87
311.955
311.991
311.837
311.605
311.428
311.146
311.121
311.012
311.057
311.089
308.028
307.94
307.889
307.907
307.966
308.053
308.115
308.29
308.358
308.496
308.545
308.575
308.472
308.29
308.188
307.968
307.954
307.87
307.92
307.905
304.829
304.78
304.734
304.772
304.815
304.858
304.867
304.992
305.011
305.115
305.138
305.156
305.09
304.961
304.922
304.788
304.768
304.724
304.773
304.744
301.619
301.612
301.587
301.601
301.616
301.638
301.628
301.666
301.676
301.719
301.723
301.729
301.702
301.662
301.647
301.609
301.592
301.583
301.612
301.579
324.866
324.554
324.401
324.282
324.427
324.694
324.994
325.441
325.819
325.868
326.181
326.165
325.914
325.435
325.08
324.614
324.439
324.362
324.429
324.544
321.603
321.357
321.21
321.114
321.23
321.459
321.719
322.103
322.416
322.457
322.735
322.728
322.508
322.094
321.792
321.365
321.214
321.14
321.217
321.309
318.302
318.115
317.982
317.933
318
318.231
318.437
318.747
319.007
319.037
319.263
319.268
319.067
318.717
318.461
318.104
318.002
317.915
318.002
318.044
315.005
314.871
314.749
314.696
314.745
314.947
315.115
315.377
315.584
315.598
315.77
315.789
315.608
315.338
315.105
314.817
314.75
314.658
314.752
314.785
311.702
311.6
311.493
311.443
311.475
311.654
311.77
311.992
312.139
312.146
312.263
312.304
312.17
311.949
311.761
311.522
311.489
311.397
311.481
311.506
308.389
308.3
308.22
308.168
308.2
308.345
308.447
308.61
308.69
308.684
308.774
308.812
308.713
308.56
308.412
308.249
308.213
308.144
308.221
308.213
305.052
304.989
304.944
304.896
304.942
305.027
305.087
305.168
305.221
305.221
305.264
305.31
305.254
305.145
305.056
304.967
304.94
304.89
304.952
304.93
301.694
301.678
301.659
301.645
301.66
301.689
301.71
301.732
301.748
301.747
301.769
301.785
301.763
301.727
301.695
301.665
301.663
301.639
301.664
301.646
325.946
325.69
325.346
325.327
325.433
325.522
325.788
326.243
326.522
326.65
326.927
326.831
326.601
326.132
325.737
325.308
325.172
325.081
325.162
325.348
322.536
322.326
322.043
322.018
322.114
322.19
322.397
322.791
323.044
323.141
323.388
323.293
323.113
322.711
322.339
321.983
321.86
321.779
321.862
321.993
319.105
318.962
318.718
318.692
318.756
318.816
318.982
319.304
319.547
319.613
319.843
319.747
319.59
319.248
318.943
318.639
318.532
318.471
318.52
318.602
315.682
315.571
315.351
315.337
315.364
315.425
315.562
315.814
316.05
316.066
316.288
316.202
316.04
315.777
315.517
315.3
315.171
315.152
315.158
315.21
312.229
312.14
311.964
311.942
311.976
312.013
312.122
312.319
312.522
312.527
312.712
312.631
312.484
312.298
312.101
311.923
311.81
311.819
311.808
311.851
308.752
308.691
308.563
308.542
308.559
308.605
308.694
308.811
308.96
308.954
309.107
309.06
308.924
308.829
308.672
308.542
308.45
308.465
308.448
308.484
305.283
305.218
305.15
305.135
305.151
305.167
305.232
305.285
305.391
305.372
305.463
305.454
305.367
305.308
305.218
305.144
305.073
305.108
305.09
305.107
301.774
301.742
301.725
301.727
301.728
301.741
301.752
301.763
301.81
301.794
301.834
301.832
301.805
301.77
301.739
301.732
301.699
301.72
301.715
301.705
326.979
326.762
326.554
326.263
326.451
326.54
326.607
327.014
327.163
327.433
327.56
327.447
327.106
326.788
326.535
325.974
325.962
325.909
325.908
326.143
323.456
323.251
323.075
322.825
323.003
323.048
323.1
323.497
323.607
323.822
323.953
323.851
323.562
323.267
323.045
322.557
322.539
322.512
322.502
322.672
319.931
319.713
319.546
319.376
319.544
319.546
319.581
319.94
320.032
320.209
320.33
320.245
319.97
319.721
319.539
319.12
319.104
319.091
319.071
319.19
316.36
316.189
316.006
315.902
316.044
316.027
316.066
316.339
316.451
316.562
316.671
316.607
316.372
316.155
316.024
315.656
315.647
315.664
315.62
315.72
312.75
312.621
312.475
312.397
312.502
312.499
312.538
312.714
312.821
312.881
312.986
312.953
312.764
312.581
312.477
312.184
312.17
312.201
312.157
312.271
309.119
309.036
308.936
308.872
308.947
308.927
308.991
309.087
309.168
309.212
309.298
309.273
309.14
308.986
308.936
308.721
308.715
308.713
308.687
308.788
305.491
305.428
305.381
305.343
305.374
305.341
305.407
305.449
305.508
305.531
305.605
305.598
305.505
305.394
305.381
305.235
305.231
305.241
305.223
305.281
301.844
301.822
301.806
301.786
301.804
301.79
301.814
301.825
301.838
301.848
301.88
301.884
301.857
301.797
301.806
301.751
301.753
301.755
301.743
301.778
327.999
327.717
327.419
327.332
327.379
327.414
327.41
327.815
327.777
328.065
328.17
328.073
327.731
327.405
327.2
326.67
326.638
326.612
326.605
326.842
324.351
324.115
323.841
323.776
323.78
323.849
323.78
324.19
324.109
324.377
324.478
324.417
324.058
323.814
323.644
323.155
323.127
323.126
323.099
323.301
320.661
320.463
320.236
320.179
320.185
320.254
320.152
320.519
320.435
320.664
320.761
320.738
320.418
320.181
320.057
319.626
319.601
319.614
319.573
319.742
316.948
316.792
316.611
316.549
316.573
316.616
316.515
316.827
316.765
316.929
317.014
317.015
316.762
316.542
316.433
316.064
316.058
316.099
316.038
316.206
313.25
313.091
312.931
312.891
312.928
312.954
312.858
313.118
313.046
313.188
313.246
313.269
313.061
312.889
312.802
312.491
312.525
312.54
312.458
312.623
309.504
309.375
309.251
309.202
309.252
309.266
309.188
309.402
309.335
309.423
309.476
309.51
309.324
309.227
309.155
308.927
308.976
308.961
308.904
309.035
305.737
305.636
305.552
305.526
305.571
305.58
305.53
305.65
305.601
305.667
305.701
305.722
305.606
305.559
305.507
305.366
305.41
305.378
305.357
305.421
301.928
301.894
301.86
301.85
301.867
301.88
301.85
301.9
301.879
301.9
301.923
301.915
301.877
301.861
301.853
301.799
301.811
301.809
301.801
301.814
328.85
328.685
328.526
328.32
328.331
328.213
328.207
328.413
328.551
328.728
328.783
328.704
328.284
328.164
327.769
327.488
327.323
327.305
327.331
327.743
325.074
324.942
324.806
324.591
324.622
324.506
324.49
324.69
324.793
324.943
324.986
324.937
324.587
324.468
324.123
323.871
323.736
323.724
323.718
324.094
321.283
321.167
321.044
320.835
320.895
320.797
320.763
320.933
321.024
321.135
321.167
321.149
320.88
320.74
320.471
320.267
320.138
320.143
320.099
320.399
317.461
317.37
317.254
317.075
317.144
317.042
317.014
317.168
317.26
317.336
317.349
317.322
317.127
317.006
316.788
316.632
316.517
316.532
316.469
316.703
313.611
313.526
313.427
313.3
313.347
313.284
313.256
313.392
313.447
313.512
313.527
313.495
313.34
313.245
313.057
312.985
312.858
312.898
312.831
313.021
309.743
309.674
309.578
309.524
309.556
309.505
309.483
309.611
309.636
309.679
309.693
309.648
309.518
309.484
309.342
309.298
309.191
309.228
309.191
309.3
305.861
305.816
305.756
305.738
305.746
305.706
305.718
305.786
305.797
305.807
305.833
305.794
305.718
305.702
305.63
305.586
305.526
305.557
305.525
305.588
301.973
301.961
301.935
301.928
301.924
301.912
301.927
301.949
301.945
301.946
301.95
301.941
301.911
301.917
301.894
301.873
301.862
301.861
301.853
301.878
329.812
329.452
329.376
329.291
329.223
329.024
328.98
329.105
329.344
329.405
329.348
329.172
328.943
328.658
328.453
328.155
328.069
328.106
328.177
328.414
325.9
325.572
325.536
325.455
325.378
325.224
325.18
325.3
325.495
325.537
325.508
325.348
325.143
324.886
324.703
324.457
324.404
324.431
324.48
324.677
321.95
321.652
321.669
321.597
321.538
321.4
321.341
321.456
321.631
321.642
321.628
321.514
321.325
321.082
320.939
320.754
320.731
320.736
320.75
320.93
317.975
317.75
317.773
317.711
317.68
317.568
317.48
317.604
317.741
317.745
317.704
317.645
317.491
317.281
317.161
317.024
317.009
317.011
317.003
317.177
313.995
313.821
313.843
313.81
313.784
313.714
313.622
313.719
313.82
313.814
313.791
313.748
313.647
313.463
313.342
313.269
313.263
313.266
313.274
313.389
309.995
309.885
309.896
309.897
309.849
309.827
309.748
309.836
309.883
309.891
309.872
309.813
309.778
309.635
309.556
309.496
309.486
309.492
309.504
309.577
305.983
305.938
305.946
305.95
305.925
305.915
305.878
305.937
305.932
305.941
305.952
305.884
305.888
305.805
305.761
305.719
305.706
305.692
305.724
305.757
302.01
302.004
301.998
301.992
301.981
301.984
301.965
301.998
301.998
301.986
301.996
301.976
301.973
301.954
301.94
301.918
301.912
301.92
301.918
301.931
330.737
330.456
330.309
330.132
329.92
329.769
329.737
329.824
329.958
330.007
329.952
329.646
329.45
329.257
329.138
328.966
328.729
328.714
328.781
329.018
326.673
326.462
326.321
326.183
325.988
325.849
325.826
325.893
326.012
326.071
326.036
325.742
325.553
325.407
325.289
325.172
324.96
324.933
324.987
325.186
322.596
322.437
322.308
322.224
322.039
321.935
321.905
321.942
322.056
322.126
322.064
321.821
321.638
321.519
321.416
321.336
321.179
321.156
321.17
321.349
318.523
318.395
318.3
318.234
318.085
318.011
317.946
317.976
318.104
318.147
318.08
317.877
317.724
317.612
317.531
317.49
317.371
317.357
317.378
317.486
314.433
314.338
314.272
314.225
314.128
314.048
313.969
313.999
314.125
314.15
314.101
313.91
313.815
313.711
313.645
313.628
313.538
313.521
313.561
313.616
310.32
310.273
310.236
310.185
310.13
310.062
309.989
310.014
310.095
310.129
310.119
309.944
309.899
309.8
309.745
309.733
309.702
309.661
309.738
309.742
306.202
306.197
306.167
306.126
306.101
306.048
306.014
306.016
306.071
306.085
306.105
305.968
305.956
305.886
305.85
305.848
305.823
305.79
305.88
305.852
302.075
302.08
302.069
302.059
302.053
302.032
302.018
302.023
302.035
302.051
302.05
302.007
301.992
301.968
301.963
301.966
301.949
301.938
301.977
301.972
331.572
331.298
331.183
330.945
330.663
330.558
330.492
330.382
330.511
330.497
330.457
330.173
329.991
329.763
329.638
329.507
329.402
329.382
329.512
329.599
327.401
327.162
327.057
326.883
326.637
326.526
326.438
326.364
326.49
326.468
326.44
326.181
326.006
325.845
325.716
325.598
325.54
325.511
325.63
325.679
323.216
323.021
322.943
322.808
322.571
322.473
322.403
322.306
322.452
322.447
322.411
322.181
322.009
321.905
321.757
321.677
321.643
321.635
321.725
321.747
319.017
318.85
318.788
318.722
318.488
318.416
318.318
318.264
318.41
318.425
318.376
318.17
318.037
317.958
317.795
317.765
317.749
317.76
317.812
317.795
314.802
314.668
314.639
314.586
314.391
314.349
314.248
314.214
314.323
314.376
314.305
314.135
314.049
313.984
313.841
313.852
313.832
313.844
313.891
313.838
310.577
310.477
310.46
310.447
310.295
310.275
310.195
310.159
310.251
310.292
310.213
310.104
310.053
309.977
309.895
309.938
309.909
309.913
309.947
309.888
306.36
306.279
306.272
306.28
306.184
306.177
306.12
306.11
306.152
306.177
306.135
306.061
306.049
305.988
305.942
305.975
305.946
305.963
305.995
305.94
302.144
302.105
302.099
302.112
302.08
302.072
302.056
302.054
302.061
302.073
302.061
302.032
302.032
301.996
301.984
302.005
301.98
302.004
302.016
302.002
332.171
331.876
331.664
331.458
331.224
331.065
330.958
330.925
330.941
330.807
330.86
330.699
330.337
330.323
330.066
329.923
329.839
329.917
330.1
330.141
327.897
327.638
327.498
327.307
327.103
326.944
326.83
326.814
326.829
326.735
326.762
326.637
326.294
326.308
326.072
325.956
325.877
325.946
326.095
326.122
323.612
323.399
323.305
323.168
322.989
322.847
322.723
322.709
322.697
322.698
322.652
322.556
322.251
322.3
322.067
321.989
321.926
321.982
322.127
322.096
319.308
319.155
319.107
318.984
318.838
318.72
318.609
318.594
318.572
318.626
318.536
318.466
318.206
318.272
318.07
318.006
317.943
318.012
318.152
318.074
315.022
314.912
314.883
314.815
314.684
314.584
314.485
314.474
314.454
314.534
314.424
314.394
314.174
314.241
314.055
314.031
313.976
314.03
314.159
314.08
310.731
310.654
310.657
310.609
310.503
310.428
310.363
310.343
310.339
310.422
310.325
310.278
310.125
310.184
310.04
310.037
309.989
310.051
310.124
310.064
306.444
306.406
306.422
306.408
306.327
306.261
306.236
306.224
306.193
306.277
306.194
306.18
306.095
306.125
306.008
306.018
305.996
306.053
306.087
306.056
302.15
302.149
302.163
302.162
302.12
302.093
302.087
302.088
302.061
302.106
302.076
302.079
302.044
302.057
302.005
302.019
302.013
302.033
302.036
302.039
)
;

boundaryField
{
    hotSide
    {
        type            fixedGradient;
        gradient        nonuniform List<scalar> 
400
(
174.138
176.21
179.92
185.227
191.965
199.894
208.758
218.32
228.379
238.777
249.389
260.117
270.884
281.626
292.288
302.818
313.173
323.312
333.213
342.869
166.237
168.419
172.357
177.999
185.145
193.515
202.813
212.778
223.2
233.912
244.79
255.739
266.684
277.565
288.333
298.938
309.337
319.492
329.377
338.992
162.64
165.07
169.229
175.061
182.37
190.876
200.287
210.341
220.824
231.571
242.453
253.376
264.267
275.07
285.738
296.227
306.498
316.521
326.274
335.761
163.077
165.878
170.259
176.164
183.424
191.801
201.038
210.893
221.16
231.676
242.312
252.971
263.582
274.09
284.453
294.637
304.612
314.357
323.862
333.135
166.435
169.67
174.292
180.242
187.384
195.524
204.447
213.943
223.821
233.924
244.126
254.335
264.48
274.514
284.403
294.124
303.661
313.006
322.159
331.133
171.455
175.138
180.032
186.074
193.144
201.081
209.698
218.811
228.246
237.856
247.522
257.16
266.712
276.142
285.432
294.574
303.568
312.419
321.138
329.738
177.123
181.243
186.442
192.647
199.743
207.58
215.987
224.788
233.818
242.935
252.034
261.043
269.925
278.668
287.276
295.762
304.143
312.439
320.667
328.846
182.688
187.215
192.733
199.162
206.384
214.244
222.568
231.173
239.885
248.563
257.11
265.477
273.657
281.671
289.555
297.349
305.09
312.808
320.529
328.273
187.58
192.45
198.266
204.942
212.352
220.333
228.691
237.217
245.717
254.033
262.076
269.824
277.312
284.605
291.779
298.903
306.03
313.203
320.449
327.788
191.357
196.46
202.493
209.37
216.958
225.082
233.527
242.052
250.424
258.463
266.081
273.287
280.164
286.827
293.389
299.943
306.558
313.282
320.144
327.16
193.713
198.886
204.988
211.931
219.584
227.762
236.236
244.739
253.011
260.851
268.17
275
281.46
287.699
293.856
300.038
306.323
312.762
319.383
326.203
194.521
199.565
205.541
212.358
219.884
227.934
236.277
244.647
252.785
260.493
267.681
274.384
280.719
286.835
292.875
298.948
305.135
311.492
318.049
324.825
193.868
198.593
204.253
210.76
217.98
225.732
233.796
241.932
249.907
257.546
264.763
271.571
278.053
284.33
290.523
296.735
303.047
309.516
316.18
323.059
192.068
196.323
201.537
207.624
214.45
221.84
229.591
237.487
245.33
252.968
260.315
267.356
274.137
280.738
287.25
293.762
300.35
307.071
313.969
321.069
189.642
193.335
198.045
203.69
210.138
217.213
224.717
232.451
240.235
247.93
255.448
262.756
269.867
276.828
283.705
290.571
297.493
304.532
311.731
319.121
187.306
190.401
194.61
199.857
206.002
212.858
220.217
227.879
235.67
243.454
251.142
258.687
266.085
273.362
280.565
287.756
294.997
302.349
309.858
317.556
185.996
188.507
192.251
197.161
203.078
209.788
217.065
224.696
232.507
240.363
248.174
255.889
263.493
271
278.448
285.889
293.387
301.002
308.786
316.767
186.819
188.817
192.146
196.743
202.433
208.979
216.134
223.68
231.442
239.289
247.131
254.918
262.628
270.269
277.87
285.479
293.156
300.966
308.959
317.165
190.758
192.372
195.329
199.574
204.935
211.177
218.06
225.37
232.939
240.641
248.39
256.131
263.842
271.522
279.194
286.898
294.689
302.625
310.752
319.095
198.123
199.497
202.122
205.954
210.852
216.618
223.044
229.941
237.153
244.562
252.083
259.663
267.271
274.903
282.571
290.305
298.147
306.14
314.321
322.707
)
;
    }
    coldSide
    {
        type            mixed;
        refValue        uniform 300;
        refGradient     uniform 0;
        valueFraction   uniform 0.991591;
        source          uniform 0;
        value           nonuniform List<scalar> 
400
(
300.01
300.01
300.01
300.01
300.011
300.011
300.011
300.012
300.013
300.013
300.014
300.014
300.015
300.016
300.016
300.017
300.017
300.017
300.018
300.018
300.009
300.01
300.01
300.01
300.011
300.011
300.011
300.012
300.012
300.013
300.014
300.014
300.015
300.015
300.016
300.016
300.017
300.017
300.018
300.018
300.009
300.009
300.01
300.01
300.01
300.011
300.011