/*--------------------------------*- C++ -*----------------------------------*\
| =========                 |                                                 |
| \\      /  F ield         | OpenFOAM: The Open Source CFD Toolbox           |
|  \\    /   O peration     | Version:  2212                                  |
|   \\  /    A nd           | Website:  www.openfoam.com                      |
|    \\/     M anipulation  |                                                 |
\*---------------------------------------------------------------------------*/
FoamFile
{
    version     2.0;
    format      ascii;
    arch        "LSB;label=32;scalar=64";
    class       volScalarField;
    location    "0";
    object      T;
}
// * * * * * * * * * * * * * * * * * * * * * * * * * * * * * * * * * * * * * //

dimensions      [0 0 0 1 0 0 0];

internalField   nonuniform List<scalar> 
3200
(
349.431
350.615
351.768
352.573
353.571
354.55
355.175
355.644
355.945
355.809
355.947
355.814
355.533
354.733
354.129
352.795
352.094
350.95
349.805
348.854
342.988
343.973
344.958
345.688
346.499
347.41
347.899
348.3
348.624
348.478
348.647
348.501
348.284
347.56
347.037
345.9
345.28
344.285
343.293
342.48
336.502
337.259
338.114
338.729
339.432
340.236
340.57
340.955
341.243
341.088
341.232
341.113
340.926
340.333
339.903
338.958
338.407
337.61
336.71
336.012
329.91
330.534
331.249
331.752
332.279
333.051
333.223
333.596
333.835
333.648
333.782
333.694
333.521
333.025
332.703
331.941
331.476
330.88
330.093
329.564
323.311
323.828
324.361
324.7
325.083
325.816
325.849
326.149
326.377
326.164
326.288
326.234
326.105
325.626
325.493
324.956
324.525
324.118
323.454
323.049
316.683
317.086
317.459
317.684
317.892
318.492
318.476
318.715
318.876
318.673
318.781
318.712
318.66
318.261
318.221
317.901
317.593
317.274
316.777
316.508
310.048
310.265
310.498
310.621
310.699
311.11
311.122
311.265
311.334
311.218
311.258
311.25
311.193
310.958
310.988
310.754
310.576
310.4
310.101
309.931
303.361
303.429
303.518
303.548
303.565
303.728
303.743
303.79
303.799
303.742
303.787
303.76
303.769
303.687
303.709
303.58
303.556
303.497
303.387
303.344
350.461
351.838
353.033
353.901
354.91
355.769
356.095
356.721
357.026
357.017
357.111
356.907
356.55
355.736
355.249
353.983
353.207
352.12
350.926
349.961
343.875
345.036
346.013
346.754
347.653
348.412
348.688
349.196
349.517
349.453
349.576
349.358
349.079
348.386
347.987
346.799
346.2
345.241
344.216
343.406
337.18
338.23
339.003
339.627
340.339
341.048
341.291
341.63
341.981
341.911
342.018
341.767
341.557
341.012
340.637
339.643
339.18
338.288
337.531
336.816
330.421
331.329
331.986
332.423
332.969
333.643
333.828
334.097
334.39
334.345
334.439
334.199
333.996
333.643
333.245
332.465
332.128
331.308
330.771
330.174
323.679
324.388
324.922
325.237
325.579
326.207
326.318
326.543
326.782
326.745
326.849
326.635
326.446
326.192
325.853
325.254
325.043
324.334
323.976
323.497
316.907
317.434
317.846
318.004
318.253
318.728
318.79
318.963
319.154
319.148
319.204
319.052
318.887
318.734
318.462
318.075
317.891
317.401
317.118
316.824
310.139
310.481
310.732
310.768
310.941
311.239
311.269
311.376
311.551
311.52
311.538
311.455
311.314
311.263
311.09
310.862
310.747
310.458
310.269
310.105
303.403
303.501
303.594
303.613
303.66
303.773
303.779
303.81
303.868
303.86
303.879
303.843
303.754
303.769
303.711
303.638
303.595
303.519
303.455
303.386
352.026
353.105
354.322
355.457
356.538
357.302
357.689
358.273
358.512
358.773
358.649
358.472
358.089
357.445
356.864
355.685
354.841
353.576
352.502
351.44
345.131
346.061
347.138
348.08
349.049
349.697
350.028
350.545
350.726
350.934
350.839
350.678
350.395
349.851
349.309
348.303
347.52
346.486
345.519
344.638
338.192
339.042
339.946
340.745
341.577
342.098
342.402
342.783
342.941
343.105
343.041
342.851
342.668
342.247
341.719
340.955
340.25
339.324
338.488
337.841
331.25
331.979
332.691
333.392
334.027
334.471
334.686
335.03
335.156
335.297
335.248
335.032
334.914
334.605
334.177
333.562
332.948
332.154
331.53
331.003
324.288
324.916
325.473
325.982
326.489
326.831
326.955
327.271
327.391
327.445
327.464
327.25
327.138
326.936
326.575
326.164
325.576
325.003
324.572
324.157
317.321
317.819
318.218
318.618
318.962
319.183
319.234
319.501
319.568
319.619
319.618
319.408
319.395
319.262
318.966
318.713
318.25
317.875
317.588
317.253
310.387
310.701
310.949
311.199
311.444
311.537
311.54
311.737
311.75
311.787
311.78
311.633
311.669
311.574
311.407
311.26
310.96
310.71
310.547
310.337
303.475
303.582
303.657
303.745
303.839
303.859
303.856
303.922
303.951
303.927
303.944
303.889
303.92
303.871
303.812
303.751
303.677
303.58
303.528
303.479
353.395
354.759
356.026
357
358.134
358.907
359.458
359.996
360.232
360.421
360.255
360.087
359.739
359.094
358.718
357.45
356.347
355.228
353.933
352.503
346.327
347.497
348.551
349.407
350.377
351.093
351.585
352.035
352.208
352.376
352.216
352.1
351.813
351.216
350.878
349.81
348.827
347.85
346.762
345.561
339.208
340.229
341.071
341.824
342.633
343.283
343.697
344.055
344.174
344.303
344.16
344.085
343.875
343.353
343.05
342.155
341.35
340.494
339.549
338.572
332.111
332.958
333.601
334.267
334.925
335.4
335.711
336.047
336.146
336.201
336.131
336.047
335.913
335.473
335.23
334.486
333.854
333.107
332.319
331.622
325.014
325.662
326.14
326.689
327.163
327.516
327.769
328.062
328.104
328.158
328.131
328.056
327.921
327.598
327.418
326.844
326.332
325.745
325.129
324.656
317.907
318.361
318.689
319.126
319.4
319.648
319.84
320.031
320.055
320.113
320.136
320.064
319.938
319.711
319.613
319.178
318.814
318.385
317.948
317.627
310.747
311.051
311.224
311.506
311.658
311.821
311.901
312.038
312.026
312.093
312.111
312.044
311.951
311.842
311.782
311.524
311.296
311.018
310.768
310.555
303.583
303.708
303.768
303.854
303.909
303.966
303.98
304.038
303.994
304.048
304.051
304.016
304
303.965
303.96
303.866
303.776
303.702
303.61
303.532
354.832
356.272
357.621
358.366
359.698
360.51
361.241
361.661
361.915
361.936
361.949
361.854
361.496
360.923
360.276
359.103
357.787
356.727
355.227
353.829
347.529
348.778
349.94
350.61
351.744
352.461
353.119
353.45
353.623
353.688
353.717
353.601
353.325
352.819
352.259
351.22
350.088
349.166
347.908
346.739
340.219
341.267
342.274
342.84
343.804
344.417
344.99
345.239
345.375
345.445
345.465
345.372
345.114
344.72
344.261
343.344
342.386
341.593
340.551
339.607
332.913
333.769
334.559
335.078
335.883
336.35
336.814
337.08
337.14
337.147
337.2
337.11
336.956
336.615
336.233
335.467
334.698
334.006
333.169
332.464
325.604
326.213
326.909
327.319
327.917
328.276
328.615
328.91
328.909
328.878
328.928
328.836
328.78
328.525
328.208
327.601
326.974
326.438
325.766
325.255
318.271
318.717
319.221
319.535
319.957
320.2
320.414
320.653
320.623
320.618
320.64
320.61
320.609
320.385
320.171
319.732
319.242
318.855
318.379
318.068
310.965
311.248
311.539
311.722
312.003
312.155
312.269
312.405
312.364
312.393
312.383
312.363
312.365
312.26
312.132
311.849
311.563
311.33
311.023
310.848
303.658
303.779
303.875
303.935
304.02
304.07
304.113
304.168
304.15
304.157
304.154
304.117
304.154
304.086
304.066
303.99
303.861
303.804
303.689
303.621
356.542
357.745
359.055
360.035
361.373
362.113
362.777
363.316
363.537
363.77
363.688
363.571
363.182
362.491
361.816
360.749
359.52
358.265
356.846
355.597
349.038
350.041
351.193
352.047
353.2
353.845
354.412
354.859
355.037
355.277
355.194
355.105
354.732
354.114
353.614
352.662
351.61
350.54
349.307
348.238
341.53
342.319
343.312
344.078
345.066
345.587
346.037
346.434
346.563
346.771
346.686
346.675
346.24
345.768
345.387
344.591
343.679
342.769
341.755
340.844
334.006
334.614
335.424
336.074
336.899
337.36
337.702
337.987
338.116
338.263
338.254
338.218
337.87
337.431
337.114
336.472
335.717
335.048
334.146
333.436
326.481
326.949
327.551
328.069
328.714
329.088
329.33
329.573
329.661
329.777
329.795
329.737
329.512
329.15
328.882
328.356
327.693
327.309
326.555
326.031
318.962
319.277
319.701
320.059
320.564
320.802
320.985
321.155
321.223
321.288
321.315
321.245
321.123
320.818
320.641
320.25
319.766
319.551
319.012
318.625
311.336
311.599
311.836
312.076
312.379
312.48
312.611
312.706
312.777
312.793
312.85
312.735
312.694
312.495
312.393
312.136
311.858
311.732
311.413
311.209
303.802
303.907
303.982
304.063
304.151
304.171
304.217
304.261
304.301
304.29
304.31
304.261
304.254
304.181
304.15
304.064
303.975
303.934
303.831
303.74
357.913
359.037
360.49
361.843
363.048
363.817
364.359
364.923
365.15
365.307
365.285
365.301
364.741
363.923
363.28
362.219
361.123
359.577
358.365
356.875
350.254
351.175
352.404
353.582
354.654
355.3
355.8
356.247
356.428
356.631
356.619
356.619
356.131
355.381
354.855
353.933
352.96
351.608
350.627
349.362
342.615
343.322
344.332
345.33
346.253
346.809
347.213
347.567
347.71
347.981
347.904
347.888
347.514
346.86
346.431
345.656
344.791
343.655
342.885
341.874
334.905
335.471
336.273
337.075
337.866
338.328
338.654
338.942
339.035
339.284
339.188
339.148
338.862
338.321
338.021
337.369
336.678
335.663
335.148
334.319
327.187
327.613
328.226
328.871
329.453
329.787
330.095
330.275
330.367
330.529
330.478
330.429
330.232
329.772
329.582
329.074
328.527
327.724
327.366
326.71
319.455
319.725
320.14
320.658
321.067
321.248
321.531
321.61
321.714
321.809
321.775
321.722
321.614
321.222
321.147
320.747
320.364
319.781
319.575
319.102
311.687
311.84
312.087
312.437
312.681
312.739
312.974
312.972
313.061
313.083
313.094
313.05
313
312.726
312.657
312.476
312.244
311.863
311.768
311.474
303.895
303.962
304.078
304.159
304.246
304.261
304.354
304.349
304.372
304.372
304.402
304.369
304.338
304.271
304.26
304.171
304.095
303.966
303.944
303.847
359.285
360.446
362.069
363.177
364.407
365.211
365.911
366.554
366.766
366.926
367.007
366.803
366.306
365.326
364.668
363.795
362.499
360.915
359.47
358.148
351.46
352.36
353.757
354.743
355.791
356.5
357.088
357.687
357.828
358.035
358.055
357.899
357.45
356.627
356.076
355.274
354.214
352.768
351.571
350.465
343.573
344.285
345.463
346.356
347.237
347.782
348.299
348.812
348.91
349.157
349.109
349.029
348.562
347.898
347.469
346.773
345.895
344.609
343.659
342.743
335.694
336.232
337.164
337.936
338.717
339.088
339.526
339.957
340.056
340.253
340.13
340.124
339.709
339.18
338.847
338.258
337.523
336.492
335.714
335.012
327.797
328.174
328.918
329.483
330.143
330.415
330.742
331.104
331.206
331.358
331.208
331.244
330.891
330.466
330.247
329.761
329.132
328.351
327.783
327.239
319.854
320.159
320.67
321.032
321.543
321.745
321.955
322.207
322.326
322.408
322.286
322.331
322.064
321.718
321.62
321.252
320.751
320.247
319.847
319.429
311.918
312.11
312.4
312.595
312.953
313.094
313.177
313.312
313.419
313.47
313.366
313.39
313.271
313.024
312.977
312.774
312.457
312.15
311.924
311.639
304.024
304.067
304.169
304.229
304.34
304.397
304.427
304.462
304.502
304.514
304.479
304.499
304.466
304.354
304.339
304.292
304.164
304.054
303.993
303.893
360.579
361.705
363.249
364.535
365.854
366.737
367.388
367.893
368.088
368.59
368.311
368.351
367.741
366.777
366.059
364.852
363.534
362.248
360.607
359.323
352.541
353.501
354.79
355.925
357.025
357.815
358.379
358.842
358.945
359.437
359.186
359.244
358.657
357.858
357.234
356.176
355.043
353.907
352.534
351.431
344.474
345.268
346.345
347.307
348.202
348.916
349.367
349.779
349.813
350.297
350.059
350.138
349.596
348.939
348.451
347.531
346.559
345.618
344.513
343.487
336.366
337.031
337.908
338.694
339.405
340.043
340.447
340.697
340.739
341.144
340.957
341.053
340.566
340.018
339.645
338.901
338.093
337.375
336.453
335.564
328.238
328.806
329.473
330.094
330.652
331.17
331.498
331.639
331.691
332.022
331.885
331.925
331.541
331.135
330.852
330.279
329.602
329.095
328.378
327.667
320.157
320.621
321.06
321.491
321.891
322.288
322.51
322.585
322.64
322.883
322.805
322.829
322.571
322.267
322.005
321.64
321.165
320.77
320.284
319.793
312.089
312.396
312.64
312.903
313.153
313.418
313.543
313.538
313.593
313.732
313.713
313.721
313.574
313.383
313.232
312.99
312.722
312.472
312.208
311.867
304.056
304.147
304.236
304.33
304.411
304.5
304.554
304.523
304.545
304.593
304.598
304.595
304.562
304.492
304.425
304.353
304.268
304.186
304.086
303.977
361.72
363.247
364.576
365.875
366.978
367.895
368.909
369.116
369.341
369.861
369.564
369.503
369.113
368.31
367.239
366.092
364.797
363.38
361.692
360.371
353.572
354.822
355.958
357.044
358.044
358.844
359.636
359.863
360.045
360.499
360.281
360.26
359.879
359.214
358.284
357.242
356.137
354.945
353.414
352.339
345.383
346.404
347.34
348.181
349.093
349.829
350.418
350.646
350.838
351.172
350.999
350.981
350.647
350.148
349.294
348.375
347.484
346.554
345.192
344.27
337.152
337.978
338.715
339.373
340.168
340.813
341.254
341.402
341.609
341.833
341.726
341.69
341.437
341.047
340.32
339.527
338.846
338.114
336.997
336.237
328.889
329.572
330.136
330.596
331.259
331.789
332.04
332.215
332.346
332.542
332.456
332.445
332.188
331.912
331.378
330.717
330.206
329.679
328.779
328.194
320.626
321.121
321.549
321.826
322.313
322.699
322.864
323.039
323.091
323.253
323.174
323.242
322.995
322.831
322.439
321.965
321.614
321.279
320.543
320.143
312.395
312.69
312.941
313.107
313.421
313.615
313.725
313.854
313.849
313.992
313.896
313.997
313.785
313.726
313.489
313.219
312.976
312.782
312.309
312.101
304.132
304.251
304.326
304.408
304.522
304.568
304.612
304.634
304.622
304.688
304.657
304.697
304.622
304.612
304.515
304.44
304.336
304.27
304.144
304.022
362.758
364.224
365.624
366.972
368.382
369.086
369.959
370.613
370.747
371.072
370.771
370.432
370.229
369.555
368.435
367.383
366.173
364.539
362.877
361.479
354.338
355.639
356.864
358.015
359.257
359.86
360.553
361.135
361.276
361.58
361.337
360.995
360.813
360.286
359.273
358.35
357.359
355.901
354.48
353.331
345.949
347.095
348.118
349.074
350.137
350.676
351.189
351.69
351.801
352.112
351.908
351.588
351.423
351.042
350.149
349.338
348.514
347.324
346.093
345.194
337.589
338.53
339.364
340.152
341.04
341.449
341.866
342.254
342.398
342.663
342.503
342.213
342.071
341.807
341.011
340.356
339.7
338.802
337.727
337.04
329.233
330.007
330.574
331.205
331.937
332.253
332.552
332.846
332.974
333.183
333.111
332.868
332.723
332.523
331.915
331.386
330.916
330.244
329.344
328.868
320.872
321.483
321.788
322.269
322.813
323.037
323.226
323.484
323.557
323.676
323.701
323.509
323.376
323.219
322.849
322.383
322.119
321.612
320.971
320.682
312.489
312.933
313.06
313.36
313.727
313.87
313.968
314.103
314.133
314.201
314.241
314.153
314.032
313.931
313.729
313.431
313.302
312.98
312.574
312.448
304.157
304.347
304.383
304.462
304.589
304.662
304.667
304.729
304.734
304.757
304.765
304.761
304.692
304.687
304.626
304.503
304.443
304.347
304.213
304.164
363.728
365.46
366.75
368.076
369.445
370.464
371.338
371.609
371.847
372.195
372.183
371.794
371.321
370.679
369.535
368.537
367.248
365.571
363.989
362.771
355.241
356.675
357.798
358.986
360.175
361.026
361.755
362.026
362.214
362.538
362.551
362.234
361.781
361.255
360.241
359.41
358.309
356.821
355.438
354.417
346.742
347.888
348.867
349.889
350.945
351.583
352.195
352.478
352.597
352.908
352.918
352.674
352.256
351.853
350.946
350.278
349.373
348.131
346.919
346.057
338.25
339.134
339.91
340.801
341.67
342.211
342.652
342.974
343.025
343.242
343.326
343.11
342.759
342.439
341.677
341.096
340.405
339.402
338.389
337.679
329.76
330.431
331.038
331.754
332.4
332.843
333.161
333.444
333.463
333.579
333.714
333.519
333.26
332.974
332.382
331.923
331.434
330.654
329.879
329.301
321.24
321.75
322.181
322.659
323.162
323.439
323.676
323.916
323.944
323.965
324.105
323.982
323.804
323.542
323.132
322.776
322.454
321.887
321.379
320.961
312.739
313.085
313.315
313.594
313.905
314.051
314.21
314.357
314.399
314.389
314.499
314.396
314.301
314.151
313.873
313.647
313.48
313.137
312.839
312.612
304.276
304.377
304.456
304.557
304.67
304.722
304.774
304.824
304.814
304.817
304.876
304.816
304.786
304.739
304.642
304.574
304.52
304.391
304.311
304.215
364.864
366.157
367.555
369.027
370.404
371.24
372.319
372.764
373.168
373.162
372.975
372.786
372.557
371.723
370.427
369.4
367.986
366.564
364.833
363.54
356.283
357.334
358.475
359.823
360.984
361.751
362.67
363.091
363.341
363.327
363.242
363.079
362.829
362.153
361.048
360.147
358.953
357.727
356.19
355.037
347.686
348.511
349.421
350.601
351.599
352.247
353
353.413
353.554
353.536
353.536
353.367
353.138
352.598
351.641
350.89
349.882
348.905
347.54
346.6
339.045
339.714
340.412
341.378
342.197
342.788
343.363
343.756
343.823
343.788
343.812
343.642
343.486
343.02
342.266
341.702
340.786
340.016
338.862
338.159
330.413
330.894
331.418
332.185
332.819
333.269
333.73
334.075
334.108
334.094
334.155
333.912
333.843
333.416
332.859
332.42
331.731
331.101
330.233
329.7
321.761
322.111
322.448
323.005
323.469
323.753
324.08
324.379
324.369
324.393
324.413
324.269
324.19
323.847
323.466
323.143
322.661
322.194
321.558
321.177
313.065
313.284
313.471
313.871
314.123
314.236
314.469
314.629
314.599
314.671
314.68
314.566
314.496
314.309
314.079
313.876
313.558
313.315
312.91
312.695
304.382
304.447
304.518
304.678
304.739
304.764
304.872
304.891
304.894
304.931
304.907
304.901
304.854
304.794
304.722
304.648
304.511
304.462
304.328
304.253
365.468
367.055
368.557
369.94
371.165
372.076
373.175
373.75
374.102
373.995
374.113
373.866
373.32
372.452
371.474
370.332
368.926
367.403
365.57
364.293
356.718
358.115
359.401
360.576
361.663
362.434
363.418
363.913
364.225
364.108
364.207
364.035
363.534
362.776
361.942
360.913
359.713
358.414
356.853
355.731
347.925
349.13
350.226
351.223
352.163
352.815
353.659
354.051
354.325
354.217
354.299
354.156
353.748
353.139
352.408
351.512
350.492
349.428
348.12
347.17
339.158
340.156
341.073
341.906
342.679
343.209
343.88
344.217
344.457
344.349
344.486
344.309
344.011
343.525
342.869
342.115
341.304
340.493
339.396
338.58
330.466
331.193
331.903
332.604
333.166
333.599
334.116
334.376
334.57
334.468
334.658
334.456
334.265
333.844
333.317
332.75
332.127
331.555
330.66
330.043
321.737
322.273
322.796
323.288
323.698
324
324.37
324.572
324.654
324.648
324.802
324.642
324.492
324.179
323.76
323.4
322.926
322.556
321.936
321.477
313.057
313.362
313.695
313.982
314.23
314.409
314.664
314.764
314.806
314.819
314.911
314.802
314.736
314.509
314.315
314.033
313.775
313.553
313.166
312.911
304.37
304.471
304.565
304.677
304.767
304.843
304.933
304.951
304.954
304.973
304.99
304.952
304.954
304.859
304.821
304.687
304.63
304.54
304.406
304.323
366.001
367.637
369.346
370.852
371.999
372.919
374.044
374.513
374.827
374.783
375.025
374.766
374.098
373.3
371.994
371.131
369.657
367.877
366.29
365.015
357.172
358.59
360.07
361.382
362.402
363.171
364.159
364.518
364.868
364.77
365.008
364.797
364.228
363.517
362.345
361.621
360.367
358.798
357.497
356.386
348.356
349.527
350.824
351.885
352.781
353.44
354.272
354.564
354.853
354.795
354.987
354.813
354.355
353.749
352.767
352.103
351.041
349.733
348.622
347.71
339.514
340.511
341.567
342.429
343.16
343.734
344.362
344.676
344.839
344.839
345.006
344.861
344.527
344.047
343.199
342.61
341.775
340.665
339.791
339.036
330.729
331.512
332.351
333
333.527
333.993
334.497
334.687
334.889
334.919
335.017
334.891
334.655
334.29
333.572
333.088
332.503
331.638
330.936
330.375
321.99
322.538
323.127
323.621
323.903
324.259
324.626
324.758
324.932
324.967
325.003
324.905
324.778
324.543
323.937
323.6
323.233
322.638
322.113
321.702
313.229
313.557
313.915
314.193
314.362
314.595
314.796
314.876
314.958
315.005
315.032
314.944
314.915
314.773
314.369
314.142
313.928
313.621
313.287
313.07
304.428
304.539
304.659
304.754
304.816
304.909
304.962
304.987
305.021
305.035
305.036
305.015
304.99
304.96
304.809
304.723
304.655
304.576
304.442
304.408
366.829
368.285
369.984
371.212
372.712
373.596
374.555
375.252
375.479
375.629
375.53
375.332
374.668
373.967
372.82
371.697
370.145
368.575
366.883
365.333
357.903
359.151
360.624
361.696
362.978
363.74
364.586
365.202
365.402
365.538
365.46
365.281
364.678
364.07
363.04
362.111
360.78
359.396
357.982
356.635
348.949
349.959
351.301
352.224
353.281
353.915
354.673
355.155
355.378
355.446
355.391
355.263
354.696
354.232
353.333
352.467
351.4
350.275
349.063
347.979
340.038
340.867
341.955
342.724
343.561
344.097
344.699
345.109
345.304
345.379
345.274
345.246
344.762
344.389
343.627
342.868
342.045
341.139
340.157
339.284
331.128
331.805
332.604
333.199
333.821
334.26
334.75
335.092
335.258
335.287
335.191
335.215
334.827
334.535
333.889
333.259
332.688
332.027
331.216
330.566
322.213
322.729
323.283
323.75
324.116
324.454
324.808
325.068
325.18
325.189
325.135
325.164
324.886
324.698
324.215
323.737
323.342
322.858
322.296
321.848
313.302
313.618
313.974
314.271
314.467
314.682
314.872
315.068
315.157
315.136
315.066
315.138
314.937
314.842
314.538
314.288
314.013
313.743
313.405
313.109
304.457
304.546
304.67
304.78
304.848
304.927
304.969
305.047
305.097
305.083
305.054
305.083
305.014
304.987
304.88
304.78
304.668
304.594
304.48
304.379
367.45
368.699
370.24
371.627
373.176
374.078
374.998
375.498
376.01
375.952
376.103
375.832
374.979
374.437
373.343
372.101
370.808
369.176
367.462
365.924
358.474
359.522
360.839
362.06
363.386
364.178
364.938
365.376
365.873
365.805
365.91
365.709
364.959
364.549
363.49
362.481
361.328
359.924
358.475
357.215
349.509
350.319
351.46
352.505
353.604
354.321
354.909
355.219
355.746
355.683
355.738
355.609
354.928
354.621
353.681
352.853
351.896
350.703
349.461
348.431
340.54
341.172
342.086
342.956
343.827
344.443
344.894
345.169
345.599
345.555
345.539
345.496
344.905
344.68
343.883
343.233
342.461
341.447
340.429
339.645
331.561
332.053
332.724
333.406
334.064
334.54
334.903
335.135
335.444
335.407
335.361
335.339
334.911
334.726
334.142
333.605
333.044
332.222
331.414
330.855
322.539
322.944
323.362
323.849
324.342
324.65
324.96
325.073
325.331
325.262
325.219
325.241
324.953
324.815
324.388
324.027
323.594
323.016
322.419
322.053
313.54
313.773
314.029
314.319
314.581
314.763
314.969
315.036
315.216
315.131
315.143
315.185
314.972
314.877
314.667
314.455
314.159
313.821
313.436
313.259
304.549
304.61
304.724
304.805
304.864
304.938
305
305.053
305.114
305.062
305.088
305.098
305.029
304.996
304.912
304.841
304.746
304.639
304.497
304.46
367.907
368.965
370.573
372.146
373.55
374.374
375.385
375.924
376.222
376.241
376.402
376.243
375.527
374.781
373.736
372.715
371.41
369.481
367.594
366.158
358.887
359.732
361.125
362.492
363.695
364.429
365.298
365.747
366.063
366.023
366.201
366.055
365.445
364.751
363.895
362.948
361.863
360.232
358.574
357.375
349.859
350.503
351.716
352.903
353.848
354.465
355.235
355.58
355.939
355.878
356.014
355.854
355.401
354.7
354.064
353.233
352.309
350.971
349.562
348.553
340.849
341.288
342.316
343.312
344.02
344.538
345.158
345.463
345.777
345.685
345.833
345.689
345.333
344.718
344.208
343.576
342.794
341.725
340.553
339.755
331.84
332.075
332.94
333.688
334.185
334.642
335.155
335.365
335.587
335.528
335.668
335.53
335.246
334.783
334.34
333.876
333.277
332.463
331.507
330.955
322.807
322.887
323.535
324.06
324.382
324.764
325.146
325.275
325.446
325.38
325.506
325.378
325.201
324.878
324.509
324.179
323.844
323.181
322.503
322.131
313.723
313.706
314.14
314.445
314.632
314.859
315.108
315.182
315.314
315.241
315.317
315.213
315.157
314.962
314.734
314.48
314.326
313.898
313.487
313.281
304.603
304.599
304.724
304.831
304.892
304.988
305.066
305.055
305.143
305.086
305.135
305.1
305.069
304.989
304.955
304.848
304.804
304.67
304.527
304.461
367.846
369.192
370.696
372.425
373.768
374.663
375.666
376.177
376.517
376.51
376.605
376.351
375.96
374.879
373.974
372.757
371.485
369.729
367.796
366.585
358.806
359.871
361.197
362.763
363.882
364.683
365.551
365.965
366.299
366.234
366.377
366.182
365.838
364.831
364.121
363.053
361.979
360.438
358.745
357.699
349.763
350.604
351.756
353.143
354.085
354.724
355.476
355.808
356.105
355.964
356.134
356.03
355.672
354.871
354.238
353.384
352.463
351.126
349.712
348.865
340.762
341.385
342.353
343.495
344.287
344.769
345.364
345.66
345.877
345.744
345.957
345.871
345.56
344.921
344.318
343.687
342.939
341.832
340.682
340.003
331.724
332.205
332.966
333.883
334.46
334.817
335.252
335.519
335.695
335.546
335.717
335.71
335.444
334.96
334.45
333.965
333.38
332.549
331.624
331.15
322.665
323.04
323.546
324.259
324.615
324.897
325.184
325.403
325.506
325.403
325.519
325.498
325.351
324.952
324.585
324.259
323.903
323.241
322.589
322.289
313.619
313.81
314.128
314.555
314.803
314.981
315.123
315.254
315.306
315.282
315.311
315.352
315.246
314.994
314.765
314.546
314.339
313.97
313.541
313.388
304.559
304.648
304.749
304.88
304.964
305.04
305.076
305.107
305.117
305.14
305.123
305.138
305.123
305.026
304.941
304.878
304.805
304.683
304.531
304.482
367.933
369.21
370.836
372.62
373.61
374.867
375.709
376.594
376.684
376.723
376.605
376.557
376.046
375.052
374.004
373.003
371.8
369.956
367.852
366.582
358.845
359.994
361.335
362.947
363.776
364.857
365.567
366.385
366.409
366.435
366.365
366.335
365.862
365.023
364.145
363.276
362.252
360.633
358.863
357.752
349.75
350.748
351.861
353.259
353.947
354.857
355.426
356.195
356.162
356.168
356.151
356.101
355.719
354.985
354.269
353.505
352.692
351.29
349.853
348.839
340.7
341.553
342.385
343.568
344.152
344.844
345.327
345.984
345.965
345.935
345.964
345.952
345.6
344.946
344.374
343.727
343.131
341.963
340.834
339.938
331.657
332.358
332.929
333.841
334.359
334.845
335.233
335.722
335.732
335.75
335.763
335.787
335.479
334.935
334.5
333.965
333.555
332.653
331.821
331.04
322.625
323.149
323.561
324.171
324.546
324.865
325.172
325.523
325.544
325.528
325.556
325.597
325.341
324.936
324.602
324.245
323.975
323.314
322.737
322.192
313.597
313.944
314.193
314.545
314.771
314.888
315.123
315.309
315.338
315.356
315.358
315.398
315.203
314.927
314.748
314.504
314.406
314.007
313.651
313.327
304.552
304.686
304.788
304.882
304.949
304.996
305.076
305.125
305.16
305.151
305.135
305.172
305.091
304.984
304.931
304.862
304.808
304.68
304.583
304.482
)
;

boundaryField
{
    hotSide
    {
        type            fixedGradient;
        gradient        nonuniform List<scalar> 
400
(
511.165
529.548
547.55
565.092
582.092
598.47
614.148
629.049
643.098
656.226
668.364
679.45
689.426
698.24
705.845
712.2
717.272
721.034
723.466
724.556
525.229
544.128
562.636
580.671
598.151
614.992
631.114
646.438
660.888
674.391
686.878
698.284
708.55
717.621
725.45
731.995
737.222
741.102
743.615
744.749
537.895
557.255
576.217
594.695
612.604
629.861
646.381
662.085
676.894
690.733
703.533
715.226
725.751
735.053
743.083
749.799
755.163
759.149
761.735
762.908
549.076
568.842
588.202
607.069
625.355
642.975
659.845
675.881
691.005
705.14
718.213
730.157
740.909
750.413
758.619
765.483
770.968
775.046
777.695
778.901
558.701
578.813
598.513
617.71
636.318
654.249
671.416
687.736
703.127
717.513
730.818
742.976
753.921
763.596
771.951
778.94
784.527
788.682
791.383
792.616
566.709
587.106
607.084
626.553
645.424
663.609
681.019
697.571
713.181
727.772
741.267
753.598
764.7
774.514
782.99
790.08
795.749
799.965
802.707
803.961
573.054
593.671
613.864
633.543
652.617
670.998
688.596
705.326
721.105
735.852
749.493
761.957
773.178
783.099
791.665
798.832
804.561
808.823
811.594
812.861
577.698
598.47
618.814
638.64
657.857
676.374
694.103
710.956
726.851
741.707
755.448
768.002
779.305
789.297
797.924
805.142
810.911
815.2
817.989
819.261
580.619
601.478
621.908
641.817
661.114
679.708
697.509
714.431
730.39
745.304
759.099
771.702
783.047
793.075
801.733
808.975
814.761
819.062
821.855
823.126
581.802
602.683
623.133
643.061
662.375
680.984
698.8
715.734
731.704
746.628
760.429
773.038
784.387
794.416
803.074
810.313
816.096
820.391
823.176
824.436
581.245
602.081
622.486
642.368
661.637
680.202
697.974
714.865
730.793
745.676
759.439
772.01
783.323
793.32
801.946
809.157
814.914
819.186
821.95
823.193
578.957
599.682
619.977
639.75
658.912
677.373
695.043
711.836
727.67
742.463
756.141
768.632
779.872
789.801
798.367
805.523
811.232
815.464
818.196
819.414
574.958
595.506
615.627
635.229
654.223
672.52
690.032
706.674
722.362
737.017
750.565
762.936
774.064
783.892
792.367
799.443
805.084
809.26
811.947
813.134
569.275
589.584
609.468
628.838
647.605
665.682
682.981
699.417
714.91
729.381
742.756
754.965
765.946
775.639
783.995
790.967
796.52
800.623
803.255
804.403
561.948
581.956
601.543
620.623
639.106
656.906
673.939
690.12
705.37
719.61
732.77
744.78
755.577
765.105
773.314
780.159
785.604
789.621
792.187
793.29
553.026
572.674
591.908
610.639
628.784
646.255
662.971
678.848
693.808
707.776
720.68
732.453
743.034
752.368
760.403
767.099
772.419
776.334
778.825
779.878
542.57
561.802
580.626
598.957
616.71
633.803
650.152
665.68
680.307
693.961
706.572
718.074
728.408
737.518
745.357
751.882
757.06
760.862
763.268
764.267
530.648
549.412
567.775
585.654
602.968
619.634
635.573
650.708
664.962
678.264
690.546
701.745
711.802
720.663
728.283
734.619
739.64
743.317
745.631
746.571
517.342
535.589
553.442
570.823
587.651
603.847
619.334
634.036
647.879
660.795
672.716
683.581
693.334
701.924
709.303
715.434
720.283
723.825
726.041
726.919
502.741
520.425
537.726
554.565
570.866
586.553
601.549
615.781
629.18
641.676
653.207
663.713
673.138
681.434
688.556
694.465
699.132
702.53
704.642
705.456
)
;
    }
    coldSide
    {
        type            mixed;
        refValue        uniform 300;
        refGradient     uniform 0;
        valueFraction   uniform 0.991591;
        source          uniform 0;
        value           nonuniform List<scalar> 
400
(
300.028
300.029
300.029
300.03
300.031
300.032
300.033
300.034
300.034
300.035
300.035
300.036
300.037
300.037
300.037
300.037
300.038
300.039
300.038
300.038
300.029
300.029
300.03
300.031
300.032
300.033
300.033
300.034
300.035
300.036
300.037
300.037
300.037
300.038
300.038
300.038
300.039
300.039
300.039
300.039
300.03
300.03