/*--------------------------------*- C++ -*----------------------------------*\
| =========                 |                                                 |
| \\      /  F ield         | OpenFOAM: The Open Source CFD Toolbox           |
|  \\    /   O peration     | Version:  2212                                  |
|   \\  /    A nd           | Website:  www.openfoam.com                      |
|    \\/     M anipulation  |                                                 |
\*---------------------------------------------------------------------------*/
FoamFile
{
    version     2.0;
    format      ascii;
    arch        "LSB;label=32;scalar=64";
    class       volScalarField;
    location    "./ITHACAoutput/true/9.4";
    object      error;
}
// * * * * * * * * * * * * * * * * * * * * * * * * * * * * * * * * * * * * * //

dimensions      [0 0 0 1 0 0 0];

internalField   nonuniform List<scalar> 
3200
(
-0.311248
1.9309
3.56368
3.86136
5.92208
2.13105
3.53088
3.26858
4.38748
1.82762
5.00766
3.89571
3.29301
2.86118
3.18051
2.85593
2.74706
1.60216
-3.82433
-1.81871
-1.37725
1.26408
0.742937
2.00532
3.5618
4.59366
4.19547
3.46583
3.68152
2.23876
1.54235
2.90751
1.69665
2.27027
2.47669
0.486545
3.84398
1.01246
-1.7906
-0.154775
-1.64064
1.05988
0.93955
1.75763
1.69056
2.99705
4.59635
0.706419
1.34791
0.635397
1.42419
2.10807
1.07129
1.61293
1.31716
1.06447
1.24553
-0.12104
-0.918832
-1.28438
1.91881
-0.0195814
1.12429
2.07565
3.16202
2.05196
2.12478
0.964552
1.31009
2.194
0.345325
-0.562392
2.39053
0.517982
1.29386
1.6205
0.990312
2.15808
0.0501576
0.359286
-0.374081
2.85005
1.61245
0.53725
3.63808
2.34466
1.31628
-0.370015
1.48097
2.56236
2.19675
0.614979
-2.33703
0.983299
2.27138
0.846242
-0.524281
-1.52589
0.112612
-1.36339
2.01877
0.402884
0.914817
1.04448
1.13839
0.0755251
2.07761
1.37237
1.21056
0.41285
0.669065
-0.0814243
-0.610066
0.294522
1.82569
0.0767979
0.666105
0.088612
-0.139295
-0.718252
-3.22639
0.862295
0.72838
1.98342
1.50611
0.679664
-0.31501
-0.547458
0.439817
1.23591
1.9292
-0.409795
2.5391
0.680773
-0.23253
1.0916
2.0364
1.19543
0.482342
0.35595
-0.0272995
0.0700318
0.504053
-0.696595
0.450091
-0.697052
0.446334
0.285415
1.63363
0.123524
0.363628
0.305948
-0.181937
-0.677517
0.195963
1.25894
1.30909
-0.465371
0.846007
-0.773299
1.22842
1.14802
1.0819
4.94689
2.6779
5.16078
5.03012
1.44527
3.37994
2.55014
1.59285
2.4857
3.52225
0.655773
0.784075
3.00218
1.47693
0.491522
-1.41581
-2.30006
1.0477
0.220914
1.03665
0.23362
3.05128
0.138062
4.65899
0.286777
4.63413
-0.138058
0.76627
2.16015
0.0449567
1.56796
-0.284472
2.01483
-0.188195
0.2439
0.146486
-2.69819
-0.533604
-1.57223
2.07624
2.98246
2.2956
1.83349
3.43794
2.20823
2.52467
2.32728
-0.469297
3.91544
2.65709
0.66432
-1.03774
2.21996
1.16793
-1.0576
-1.63331
-1.69127
0.138914
0.882968
1.72354
-0.215225
3.03475
-0.275813
0.759077
1.98105
0.123948
1.83206
4.13631
3.30684
-0.620642
-0.19079
1.2555
-1.08111
1.83819
1.2703
-0.154584
-2.48324
0.40108
-0.6066
0.464633
3.51776
1.327
2.0618
2.03267
0.909677
0.946249
-0.360146
1.77364
0.985204
2.55499
-1.22927
2.223
0.421492
-0.372235
-0.535779
0.610043
-0.273529
-1.2277
0.397686
1.35083
0.386505
1.6623
2.02692
1.74375
1.81866
0.866282
1.73044
0.683543
2.15243
-0.717293
2.52522
1.72728
0.173562
-1.20801
2.1269
-0.368276
-0.478534
-2.35375
-1.13924
0.283819
1.68272
-0.143804
1.3679
0.302376
-0.338566
-1.22935
2.33946
-0.133262
0.921123
0.960936
-0.555281
-2.49919
-0.256022
-0.689239
0.143472
2.68641
-1.6197
0.832189
-0.235281
0.142388
-1.63515
-0.583141
1.19555
-0.257233
1.1319
-0.825208
1.18475
0.0880137
0.284451
0.441566
0.030812
-1.27348
1.82688
-1.81724
-1.26346
-0.226722
-2.70256
-1.2364
-0.614888
1.19673
3.4778
3.27552
4.38405
2.61409
3.614
2.27589
2.35952
1.96783
2.41787
1.94633
1.18282
1.4448
4.676
2.39017
0.664968
-3.54478
-3.60933
-0.457694
2.05697
2.38101
1.02087
3.60868
2.8579
2.53553
0.238848
0.892904
1.77099
0.27685
1.6685
2.05266
1.74984
1.8358
2.71418
1.31389
-0.269946
-0.776474
-2.025
-3.12429
0.456672
0.526344
1.78566
3.67491
1.68491
2.28194
1.90077
1.98254
0.560905
1.62652
1.23797
2.84017
2.73343
-0.268548
-1.19761
-1.73866
1.721
-1.49745
-1.39185
-1.6149
0.843995
1.67198
1.28649
1.39172
4.17821
2.73182
0.469067
1.57471
0.41487
-0.432029
1.79008
0.449685
0.466046
1.9843
-0.550007
0.534418
0.772338
0.720782
-2.63001
0.764692
2.1216
0.161244
2.07122
1.0473
1.89405
1.31081
-0.319188
0.666591
0.240833
-0.352158
1.2283
1.56341
1.73438
-0.185768
0.669715
-0.599748
-0.887903
-1.25116
-0.297379
0.892021
-0.169246
-1.15925
-0.0315371
1.52924
0.906683
-0.49544
0.600666
-0.877709
-0.357083
0.700985
1.49207
-1.74008
0.861773
0.187062
1.25009
1.29194
-1.13647
0.996017
-1.54705
2.70106
-0.238909
-0.402572
0.42703
-0.658942
2.55646
0.566932
-0.0633005
-1.54992
0.283756
0.578872
1.79869
0.120523
-0.0206062
-1.4405
0.0368315
-0.225528
-0.125705
-0.892058
-1.0191
1.37677
-1.80291
1.76273
-0.408367
0.556973
1.33596
-0.272853
2.55434
0.412005
-0.922294
0.337229
1.37168
0.332728
-1.08241
1.45267
-0.213805
0.127201
0.596455
0.0639707
-1.38761
-3.36449
-0.346504
1.95902
1.25357
2.87803
3.1443
1.99001
1.77485
1.02496
2.86449
1.5703
1.21023
2.22065
1.00717
-0.0150606
3.12797
0.922652
1.80599
0.525014
-0.126372
-0.886605
0.897598
1.94469
0.580985
2.20082
0.0540587
2.7498
-0.383019
0.411611
-0.191859
0.648535
2.9316
0.30299
0.899005
0.341128
2.35662
-0.514052
-0.225389
-0.698247
-4.9753
-0.516643
0.171072
1.80786
3.3692
0.825545
1.96848
3.80828
0.664878
2.85747
0.258397
-1.38821
1.51472
-0.540701
-0.479747
0.887422
-0.126234
0.480098
0.932812
-0.839325
-1.00049
-0.826214
0.933852
0.0932433
1.83978
1.3296
1.87517
2.00386
2.15327
-0.213955
1.69986
1.01753
2.56101
1.48156
0.981164
0.117025
-0.376701
-0.402205
0.927807
-0.33381
-2.70126
-0.507172
-2.50378
0.509065
0.540165
0.38388
-0.459172
2.62264
1.06267
1.94598
1.12725
-1.00497
2.6459
1.00826
0.708882
0.688715
-0.830968
0.0931243
0.108623
-1.2712
-2.53266
-0.374061
-0.458351
-0.496212
1.42991
0.282945
1.21369
0.46824
0.272211
1.67596
-0.368317
-0.590581
-0.780727
0.248079
0.95035
-0.92804
2.01722
-1.215
-0.673533
-2.02361
-0.209223
-0.991577
-1.997
1.1254
1.07524
1.60603
1.47451
0.866122
1.47813
0.904539
-1.32947
-0.731921
-1.24427
0.065113
-0.256398
0.722618
1.31164
0.916593
-1.30096
1.73878
-2.96891
-0.443075
-1.0548
0.626027
-0.061188
-3.06318
-2.19837
0.486386
2.49085
0.598213
-0.398911
1.36322
0.875856
0.315556
1.10345
-0.13963
-1.92701
-0.767031
-0.074389
1.24984
0.454039
-1.99126
-1.26784
2.40477
1.78938
2.98078
2.31949
2.71584
1.40956
2.32279
0.545476
0.0998561
0.365792
0.420162
0.89328
2.56884
-0.255654
0.807309
-0.517458
-0.298166
-1.55887
-1.98632
1.22205
0.0765293
2.93403
3.78119
3.69371
3.06042
0.375817
-1.07281
1.72096
0.907818
-1.91252
1.52533
1.92267
0.58051
0.920519
1.33694
-2.41078
-1.91509
-2.82898
-3.13523
-0.157402
-0.664274
3.04599
0.517663
-0.40531
0.64065
-0.263548
0.174103
1.10305
-0.307802
-0.582386
1.36979
-1.19906
0.375116
1.62757
0.187753
0.164415
-2.20352
-2.44139
-1.24869
-0.161519
1.86144
1.58469
0.871434
2.18857
1.10208
0.0628914
1.40321
0.455735
-1.12591
-0.781094
-0.775821
1.95074
1.46762
0.56492
0.675094
2.48341
-0.787271
-1.70408
0.63969
0.748455
0.949552
0.0451479
3.45055
0.569483
2.44937
-0.24205
-0.250863
1.09106
1.19331
1.29503
1.10789
0.95102
-1.50612
0.551395
0.755361
0.237008
-1.33268
-1.79799
-0.017786
0.393575
1.20203
-0.347944
0.897639
0.455258
-1.95377
-1.75658
0.593259
-0.651801
0.782234
-0.143036
-0.912657
-0.931425
-1.11604
2.69644
0.793129
0.250782
-1.03918
-1.97064
-0.138443
0.22335
0.369742
0.542034
1.40714
0.272183
1.35348
-1.17551
-0.249297
-1.96918
-0.149919
1.45423
-0.374019
-0.364376
0.390955
-1.0489
-1.86736
1.16513
-1.5355
0.214408
0.272103
-0.137387
-2.74388
0.949735
-0.641739
-1.36154
-0.502961
0.474903
1.44828
1.66658
0.184908
-0.116264
1.87364
1.58705
-0.943464
0.65749
-1.09675
0.54881
1.3347
0.545657
-1.48581
-0.474301
3.3642
3.18277
3.10904
1.88258
3.14234
1.08848
1.35346
-0.672456
-2.02297
-0.677571
0.512619
1.71626
-0.485468
-1.04293
-1.93926
-0.0798326
-0.290446
-3.50562
-2.20574
-0.392433
-0.963546
-1.12021
-0.21504
0.51982
0.823683
0.0995147
0.670337
-0.196431
0.257055
-1.76212
0.403281
-0.0423851
-0.164491
-2.38997
-0.138648
0.24301
-1.00382
-1.78503
-2.01251
-0.98996
1.03314
-1.23702
-0.0777444
1.58738
1.84666
-0.159859
0.336063
-0.164873
-0.43539
-2.14598
-1.94723
0.545834
1.32644
-0.103289
0.76814
-1.47368
-1.19502
-2.92394
-3.40914
-0.870817
0.296633
0.543226
0.411413
2.43158
-0.347534
0.110306
-0.07333
-0.526275
-1.47025
-0.823652
-1.20509
-1.51329
0.838797
0.427695
-0.854609
-0.965409
-1.97907
-3.57525
-0.926956
-0.0273099
-0.724987
1.02474
-0.610762
1.01815
0.434484
0.959515
-2.53892
-0.992746
0.450035
-0.880492
-1.40075
-0.735812
0.227705
-0.614454
0.484771
-0.756995
0.73171
-1.40676
-0.589162
-1.56126
1.85334
2.08963
0.337394
0.896153
1.29056
0.718081
0.105052
-0.274156
-0.105142
-0.199156
-2.01093
-1.19241
-1.69586
0.0659449
1.76396
-1.46679
0.63351
-0.300811
0.115473
-0.813341
1.12014
0.705866
1.05949
1.56207
-1.0888
1.13896
-0.360593
-0.301575
0.0741431
1.82449
-2.37035
1.7805
0.620594
0.0297925
-0.344608
-1.28949
-0.104081
1.69297
0.513513
0.1989
2.03797
0.177064
-0.941796
1.80677
1.11316
-0.851358
-0.704121
-0.301712
-0.417753
-0.0776955
-0.357957
-1.15916
-0.594367
-1.19446
-1.58138
2.42222
1.81078
-2.72163
-3.07845
0.7532
0.479704
1.65175
2.13354
1.60773
0.331396
-0.151833
1.27071
2.83696
-2.55321
-0.929161
-0.0621935
-0.987041
-0.666205
-1.77546
0.325405
1.07941
-3.28594
-3.13434
-3.64709
0.336172
1.2584
1.32993
0.231705
0.340784
-1.58119
-0.0938577
0.0170603
-1.5345
-0.516272
-0.192956
-3.33181
-1.35265
-1.47666
-1.23337
-1.48426
-3.4226
-1.53013
-5.77122
-1.07777
-1.06182
1.65624
2.96882
-0.241162
0.367875
1.18381
1.4011
0.35401
-0.0773368
-0.427191
-1.44045
-0.681236
1.1591
-0.0591031
1.18227
-2.15304
-0.420529
-0.640035
-1.18058
-2.04679
-1.28545
0.930513
1.34143
0.956469
1.37968
0.566361
-0.268496
-1.29236
0.712863
0.933137
1.35359
-2.2841
-1.20888
-0.693876
-0.846297
-1.34765
-1.11304
-1.86761
-2.28714
-3.47656
-1.8355
1.93433
0.60291
-1.23325
0.742062
-1.14226
-0.313572
0.852463
-0.131869
-1.46137
-2.30228
-2.23219
-0.0820681
-2.11927
-1.37697
-0.496192
0.204024
-0.129654
-0.51751
-1.15035
-0.122683
-0.142728
2.40791
1.75451
1.67657
1.6315
0.122421
0.222754
-0.0450897
-2.17143
-1.95623
-0.791969
1.73557
0.223778
-0.00511777
0.13424
-0.734885
-0.421309
-1.82414
-1.02728
-0.563282
-0.897044
-0.337117
-0.690827
0.932366
1.05113
-1.19045
2.25585
-0.63048
1.26555
-0.107594
-2.49168
2.4526
-0.544556
-0.209175
0.0332954
0.43272
-1.53925
-0.787316
0.618246
-2.41858
0.189594
-0.663875
-0.796816
0.481209
2.42648
0.09716
-0.223193
-2.01154
1.01887
-1.146
-1.1215
0.522304
-0.999928
-0.741086
0.265573
1.07326
0.00202921
-0.117657
-1.20305
-0.259769
-0.917917
-0.954659
1.70266
0.137786
-0.00719315
-0.402305
1.6689
-0.691579
-1.55751
-1.63107
-0.615799
-2.89774
-0.0727558
-1.01376
-0.55848
0.569029
-2.26637
-4.14261
-3.0982
-0.203481
-0.962341
0.0269558
3.32863
0.0992962
0.521746
-0.250204
-2.63823
0.253243
0.086864
-2.05631
-0.216821
-1.29609
0.61741
0.529724
-0.376681
-1.93581
0.197656
-0.817858
-3.28823
-1.30074
0.346407
-0.934943
-0.0470336
0.885089
1.624
-0.580181
-0.65785
-2.53355
-0.581695
-2.68457
-1.2588
-0.185842
-2.52504
0.628599
0.543702
-0.720604
-2.37761
-0.0951306
-2.58292
-0.159425
-1.80845
-0.616974
0.861828
-1.83489
0.542108
0.555477
0.305625
1.16703
-1.35729
2.38486
-0.539968
-1.73354
-0.343355
-2.06166
-1.64791
-1.1439
-2.25858
-2.17784
-3.30751
-0.609811
-0.115911
-2.79543
0.150111
0.790661
0.112016
0.0857398
0.163851
-1.08335
0.715344
-0.984114
-1.68938
-0.786105
-0.995278
-1.01762
-1.0926
-0.605552
-1.73971
-1.23704
-2.10551
2.23684
-0.369105
0.536017
-1.17803
1.1057
1.53122
-0.423323
-0.924077
-0.814562
-1.44401
-1.25124
-1.00991
-1.62082
1.08578
-1.86443
-0.836595
-1.55943
-0.537867
-0.344591
0.286913
-0.8913
-0.511033
0.461868
0.00361927
1.54441
-0.900005
0.971684
-0.771258
-1.70073
-0.0285954
-0.330812
1.83153
2.06049
0.147842
-0.320314
-1.23256
0.0378296
-0.88344
-0.34777
-0.860143
1.12205
0.358405
-0.00508227
-0.479055
0.476652
-0.0995857
-0.420457
0.257232
0.0880519
0.480993
0.730716
-0.906009
-0.18997
0.352015
0.662125
1.16478
-0.656254
-0.227041
0.926726
-3.0952
-3.78185
-1.48777
1.06322
1.29354
1.34539
1.12197
0.249819
-2.30092
-2.55408
-1.69986
-3.67908
-1.5513
-0.467509
-0.504386
-3.3429
-0.589636
-0.597652
-1.29291
-3.31714
-2.26956
-0.414623
-1.22252
-0.426304
-2.08453
1.04987
-0.806311
-0.776728
-0.151865
-2.92515
-1.75332
-2.25569
-2.59209
-1.59174
-3.88865
-2.45206
-1.15243
-1.36083
-3.78069
-3.38398
-2.30351
-3.91776
-1.52295
0.0260621
-0.751231
-0.96904
-0.938887
-1.6625
-1.81473
0.910156
1.17835
-1.49447
0.513455
-1.63306
-0.516232
-0.425281
-1.88748
-2.04563
-2.23603
-2.74544
-1.67076
-3.22971
1.38174
-0.45161
0.799695
0.491314
-0.155819
0.955538
-0.514722
-1.59103
-0.916724
-1.53923
-0.641105
-0.782901
0.802874
-3.39964
-0.800534
-1.28248
-0.655665
-0.439168
-1.31852
-2.33619
-1.28542
-1.13564
0.472957
-1.57195
-1.14391
-2.43654
-1.05961
-0.767215
-1.87143
-1.40121
-0.961376
-2.51547
-1.36037
-2.06146
0.44521
-1.24158
0.0651049
-0.764502
-1.04833
-0.709038
-2.04259
-0.910271
0.124881
-0.641627
-1.18695
0.347018
0.416776
0.0218873
-2.50571
-0.163053
-0.506844
-3.1983
0.728965
1.57623
-0.147953
0.428242
-0.31381
-0.465623
-0.539137
1.11047
-2.39671
-1.12658
1.07498
-0.214831
1.46528
1.52611
-0.036983
0.20493
-0.648988
-0.480944
-0.86263
1.63477
-0.295791
0.588164
-0.713271
0.995994
0.0863118
0.412079
-0.484442
1.49212
3.06063
1.12059
-1.42789
-2.36295
0.625146
0.0934006
-0.865091
-1.34403
-1.84557
0.110064
-0.143407
-0.0209113
-0.292356
0.0941637
-1.35988
0.65186
-0.279663
0.789466
-3.61259
-1.83477
-0.324572
0.465974
3.09626
-0.505754
-0.288889
-0.230301
-2.01174
-1.1436
-3.31679
-2.20176
-0.69105
-2.60802
0.532776
-2.58815
-1.61704
-0.966863
-5.48713
-4.19152
-3.6475
0.219054
-2.71734
0.172531
-0.408007
0.178726
-0.382761
-0.0222951
-0.957492
0.485252
-0.139383
-2.64537
0.137236
-1.78428
-0.217039
-2.51224
0.332281
-0.929258
-0.192905
-3.68036
-1.96141
-3.56689
0.291019
-0.702833
0.640995
-0.429882
0.101768
-0.545888
-1.45497
0.076478
-1.81483
-2.3903
-3.09517
-1.4515
-0.411979
-1.2167
0.504774
-2.22826
-1.43065
-2.20451
-1.76011
-1.5872
-1.52114
-1.20533
-0.659592
-1.469
-0.957594
-0.416829
-1.51493
-2.12586
0.324698
-0.0749876
-2.36544
1.33695
-1.26691
-0.699195
0.405668
-1.78741
-2.00524
-3.44115
-2.84874
-0.816198
-2.17504
0.806857
0.58531
-1.31689
-0.633616
-1.62587
-0.853196
-0.615678
-1.38372
-1.73723
-1.03637
-2.68266
0.79521
-1.1357
1.09054
-2.95195
-0.0483038
-3.26338
-3.71463
-2.75906
-0.438906
0.498897
0.275161
-0.0322763
0.470097
0.38185
-2.38154
-0.805742
-1.22259
0.327534
-1.36494
-0.896961
-1.38554
-0.413665
0.777213
-1.26694
-2.69178
-1.1445
0.0827515
-0.0522728
-1.61755
0.0172234
-0.723464
-0.108583
0.746642
-0.517593
-1.26574
-1.2178
0.649295
-1.63406
-0.984025
-1.25795
-0.84717
-2.30516
-0.694707
-0.577105
0.305551
1.03322
-1.30717
-0.906619
-0.245042
-0.407347
0.0884241
0.332157
0.839691
0.793329
-0.0631909
1.0195
0.948092
-0.409488
1.47066
1.08161
0.644782
-0.0154159
-1.28535
0.995406
0.253216
-0.137008
-4.93427
-2.39359
-1.74457
0.560572
-0.0129022
-1.58754
-1.47505
0.416957
-2.73994
-0.8205
-3.35401
-2.39338
-0.844699
-2.77889
-1.84036
-1.86332
-1.49224
-2.55613
-2.32723
-3.98604
-4.23012
0.0614154
-1.20414
-0.195149
0.084631
-0.216342
-1.59815
0.0906051
-0.146963
-0.439648
-0.213214
-1.976
0.261957
-1.94876
-0.176682
-1.00468
-0.0645326
-1.17599
0.00441181
-1.03922
-5.44305
-2.2948
-2.11817
-0.991653
0.391279
-1.8466
-1.04371
-0.879422
-2.20523
-0.180067
-2.10334
-3.09924
-1.79928
-0.828841
-0.483281
-0.507825
-0.466714
-2.13586
-2.93995
-2.78421
-1.14737
-1.15393
0.414844
-0.727268
-0.987703
-0.72374
-0.398439
-1.22857
-0.719058
-1.49454
-3.66257
-2.12905
-2.24045
0.311317
-0.460291
1.62341
0.584208
-1.38143
-3.61346
-3.63769
-2.26195
-0.353058
0.220581
-2.20899
1.60987
-0.0182715
0.149457
0.174338
-2.25108
-1.3345
-1.73614
-4.88592
-0.954617
1.09539
-1.87476
-0.0922204
-0.622633
-1.91134
-2.3681
-2.93727
-1.2398
-0.592948
0.156999
-2.09448
0.580785
1.05139
1.07246
0.441137
-0.49426
-1.46903
-0.31486
-0.980983
-0.460657
-1.62713
-1.37045
-0.764405
-1.32514
0.184562
-1.79235
-4.34089
0.535854
-2.08378
-2.36834
0.049113
-1.4703
0.418881
-0.288916
-0.88533
-0.349606
-0.219983
-1.69403
1.23791
-1.82944
1.73062
0.996455
0.326262
0.608244
-2.14864
-0.851992
-0.828371
-0.643876
-0.376118
2.13913
0.50566
1.42496
-0.301058
-2.28113
0.835552
0.302068
-0.503558
0.98553
-1.34791
-2.21807
-0.284384
-1.20485
-0.665918
-1.75273
-2.01993
1.41014
0.705737
-4.71225
-3.66135
-2.24444
-0.00260045
1.78285
0.0301684
0.315819
-1.73038
-1.21299
-3.17032
-1.91026
-1.57397
-1.29304
-1.68705
-1.15516
-1.7207
0.0131421
-0.638702
-4.14156
-4.47473
-5.21148
-3.1882
-3.22983
0.622712
-2.34629
-1.32827
-0.0511322
-3.55668
-1.76697
-2.57985
-2.92291
-2.68635
-1.20449
-1.44334
0.690216
-2.49493
-1.58275
-0.95495
-3.05952
-4.55196
-1.91992
-2.01797
-1.91778
-0.455775
0.407383
-1.08117
-1.7899
-1.22275
-1.07359
-1.726
-1.79249
-2.23021
-3.65014
-0.0254436
-1.39269
-0.341447
-2.05534
-1.3688
-2.01463
-2.83496
-2.12594
-2.73756
-2.60619
0.0159521
-1.33417
-0.268347
0.205955
0.947242
-0.883387
-3.13469
-1.4296
-2.27791
-2.20368
-1.63447
-1.94417
-1.12005
0.235833
-1.31036
-1.96391
-5.94822
-2.54875
-1.92764
-2.37554
-1.76399
-0.233936
-2.69656
0.0467251
-0.751334
-0.470018
-1.02193
-1.78758
0.0233327
-3.72729
-0.968333
0.508598
-1.41419
-0.592736
-2.1794
-2.19033
-0.338948
-1.41158
-1.65935
0.559874
0.0564944
-1.91019
-0.777497
0.0630973
-0.938281
0.100795
-0.233336
-3.48195
-1.62034
-2.32386
-1.15777
-0.442882
0.209191
-0.338173
-0.2126
-2.61979
-0.675376
-2.33011
1.81243
-0.847188
-0.718538
-0.65671
-0.521969
-0.407701
-0.913044
-0.625898
0.982506
-2.36473
0.732809
-0.338447
0.32207
-1.42238
0.688804
-1.31526
0.0771879
-0.934855
-0.199141
-1.51897
0.609199
0.0936322
0.27159
-1.61995
-2.45657
0.0899126
0.528764
1.35603
-0.305942
-0.123643
-0.461431
-0.079534
-0.813071
2.31322
-0.819412
-0.549851
-0.182291
-1.26494
1.33212
-4.03713
-3.13611
-2.30035
-0.49561
-0.280632
-2.30847
-0.840013
-1.29893
-1.19512
0.536101
-2.35975
-3.96633
-0.917838
-2.56285
0.458697
-3.36098
-0.871744
-1.03303
-3.37188
-3.59195
-2.76828
-0.219177
-0.135362
0.207208
-0.405137
0.464819
0.0101227
-0.23872
-1.00955
-0.221456
-0.200132
-3.2992
-0.234527
-1.64806
-0.0938844
-0.964326
-0.789828
-2.81766
0.0615225
-2.50761
-2.82491
-1.9021
-0.0526179
-0.921323
-1.2774
-0.810426
-0.93137
0.305203
-1.95332
-1.18601
-3.04748
-0.918423
-1.93288
-0.512324
-3.37201
-0.843086
0.0881934
-2.64232
-1.35591
-2.11135
-2.26563
-2.6081
-2.48992
-1.1033
0.685423
-0.0107515
-1.93927
-0.870557
0.0647225
-2.36471
-1.74299
-3.08775
-2.08023
-3.21733
-0.624024
-1.08143
0.522673
-2.70903
-1.00398
-1.87233
-3.09058
-0.897436
0.041886
-1.19514
-1.30812
-0.00413013
-1.96912
-0.32509
-1.70908
-2.01006
-2.41468
-1.9016
-1.019
1.22236
-1.64658
-0.932818
-0.533414
-0.893146
1.28821
-2.38365
-0.907938
0.035905
-0.572024
-0.639647
-3.09028
-1.47026
0.460932
-0.904485
-1.21218
2.00352
-1.407
1.0862
0.415378
-0.590508
-0.967627
-1.2249
-1.75979
-1.51798
-0.561259
-1.01085
-0.994428
-0.565376
-0.529893
-0.26086
-1.19618
1.91287
-0.926214
0.0142194
-1.70801
-0.361403
-0.647911
-0.494588
0.307473
1.92953
-0.655561
-0.419735
-1.39943
-0.517724
-0.372867
-1.26528
-0.018431
0.546822
0.912332
1.99733
0.530773
-0.415133
-0.620658
-0.931267
-0.950357
-0.447424
-0.0282861
0.83465
-1.43236
-0.299001
-0.821211
0.781454
-1.12275
-0.43344
-2.19648
-1.78336
-1.96692
-2.82407
-1.8776
-2.17516
-0.132543
-0.388966
-1.07923
-2.19271
-2.795
0.0336923
-0.594509
-3.80701
-3.72885
-0.627483
-1.98407
0.554725
-2.09362
-2.52059
-2.01858
-4.69935
-4.17213
-3.08488
-3.37294
-0.871723
-0.323479
-1.99708
0.135646
-1.42756
-2.53188
-0.702978
-2.63444
-3.21332
-0.512294
-0.52887
-0.705033
-0.968665
-0.391187
-1.67761
-1.94602
-1.52702
-4.07407
-2.32137
-1.16318
-2.65071
-2.38238
-1.08782
-1.6019
-1.17159
0.610982
-0.0347016
-1.50088
-2.424
-2.77704
0.539577
0.342705
0.595677
-1.16167
-1.05202
-2.48102
-1.63809
-3.22123
-1.28439
-1.23562
-0.488286
-1.16765
0.831257
-0.527944
-0.746344
-1.96205
-1.5179
-1.57453
-1.0963
-1.36198
-2.02363
-0.894637
-1.72139
-0.65719
-0.29505
-1.62883
-0.976559
-1.13298
-3.44178
-1.40037
-0.1099
-0.6401
0.644964
-0.439689
0.457948
0.205127
-1.28889
-0.340249
-2.00241
-0.632202
-2.79725
-0.4616
-1.23057
1.82298
-0.0754662
-0.351074
-0.149701
-0.54599
0.00536873
-0.603772
-1.83852
0.0219302
-0.23588
0.593119
-0.331327
1.57174
-0.54819
-0.714105
-0.125113
-0.60247
0.396929
2.04498
-2.66573
0.739859
-1.41404
-0.441075
-1.34358
-2.57745
0.0636589
-0.809424
-0.242482
-0.127145
1.3663
0.80981
0.265373
-0.697256
-0.362998
-1.35116
-0.356074
-0.314367
1.5464
-0.547203
-1.74631
0.834947
0.0418076
-1.64613
-0.0134981
-0.72899
-1.31951
0.414047
0.918227
-1.35948
-0.0752285
-0.634729
0.304489
-1.05749
0.982643
0.0741627
-1.79003
-1.71613
-0.133709
-2.10216
-0.320421
-0.193163
2.23999
-0.878859
0.402251
-0.975492
-1.71603
-0.489111
-0.262326
2.83134
-0.228979
0.3271
1.97769
-1.06038
-2.16357
-2.3359
0.408297
1.00777
2.48705
-0.829318
1.57606
0.0549586
-2.2377
-1.66307
-2.53646
-4.21808
-0.207805
-1.316
0.0670554
2.18636
0.00283837
-0.708716
0.208641
2.34662
-0.308655
-0.835254
-3.74991
-0.429493
0.500797
0.159949
-3.69927
-0.394366
-1.85111
-0.166331
-1.85894
-2.88022
1.06138
-1.68661
1.79237
-0.304846
-0.575915
3.56542
-0.84945
0.78342
-1.78165
-3.65458
-0.879584
-0.798909
-0.794044
-1.25496
-1.71969
-0.554409
-1.88351
-0.351555
-1.78005
-1.97804
-3.97182
-1.51307
-1.44381
-0.504495
1.08893
-2.05698
-1.21014
-1.28922
-1.60814
2.03232
-1.28741
-0.843698
-1.57676
0.386853
-1.75924
-0.114121
-1.60385
-1.34217
-1.50942
-1.97082
-0.571357
1.14534
-2.17111
-0.648608
-1.86771
-0.0248456
0.440932
-1.53623
0.253171
-1.19931
-1.42307
-1.38778
-0.18802
-0.203799
-0.989799
-0.425604
-0.872679
-0.759068
-1.87351
-2.71489
-1.11389
-2.01076
-0.955185
-1.1726
0.92556
-0.628424
1.45212
-0.491183
-0.993078
-0.375815
1.11939
-0.162113
-0.571903
0.520515
-1.2716
0.141014
-1.01693
-1.9571
-0.713165
-0.679184
-0.186196
-0.180656
0.38253
-0.523616
-0.344752
0.289483
-1.3887
-1.07617
-1.13669
-1.24203
0.330634
0.839333
-0.570114
-0.864313
0.511819
1.20629
0.991427
0.374909
-1.03957
2.17427
-1.50472
-0.82263
-0.218954
1.87384
-0.817766
-0.783972
1.77537
-1.05639
1.53603
-0.259808
-1.76589
0.231969
-0.285247
-1.40181
-1.15593
-0.810418
-1.03389
0.507093
-0.517323
-1.67429
-2.91996
-1.33239
1.47128
-0.694627
-0.344677
0.801707
0.0498603
-0.382376
-1.76877
-0.645682
-0.0661786
0.728818
-0.845687
0.543628
1.23085
1.88952
0.00353241
-0.286537
-3.25546
-1.99926
-2.72877
-0.870769
-0.924317
0.500845
-1.89237
0.0902094
0.41748
1.78474
-0.915234
1.93569
-0.465754
0.498237
1.38968
-2.35374
-0.480177
-0.425284
-1.94128
-0.297528
-0.80006
-2.77478
-1.19093
-1.14865
-1.16231
0.497843
-0.688435
0.372817
1.49442
-0.309601
0.20476
-0.309632
0.69041
0.789974
1.61737
-1.16133
-1.245
-0.11627
1.70185
-2.61392
-0.321285
-1.97087
-1.07612
0.970812
-1.03047
-0.408505
0.729438
-1.30335
-0.145222
-1.19635
-0.540994
0.113563
0.487832
-0.777534
-1.78212
1.18944
0.765757
-0.498008
-1.61166
-0.98138
0.272278
-2.1522
-0.349921
-1.496
-1.84625
0.00942537
-0.376441
0.472263
0.154509
-0.927091
1.37222
0.938964
-0.0658996
-1.42567
-1.04058
1.45311
-1.50491
-1.0484
0.194039
-1.3371
-0.479082
-0.0606378
-0.238383
-1.13892
0.689215
-2.26704
0.560226
0.413896
-0.308953
0.358463
-0.639529
-0.363151
0.504819
1.00304
0.540701
0.590647
0.568522
-1.7493
0.598082
-0.349046
-1.07588
-1.65697
-0.0934002
2.42596
-0.00117278
-0.789859
-1.1941
0.0326773
0.0134464
0.364074
-1.8143
0.562929
-0.00643301
-0.437929
-0.0637229
-1.49973
-0.877482
-1.07572
-1.34299
-0.394205
-0.684024
-1.48741
0.314201
-0.262705
0.62456
-0.980559
-0.553227
0.113801
-0.166942
-0.717999
3.11088
0.683566
-2.11688
0.334912
-2.32047
-0.451795
1.63709
-1.89298
-1.10726
1.05015
-0.0286998
-2.52616
-1.60853
0.181507
-0.441205
1.93487
-0.507542
2.16795
1.55487
2.01303
0.0703255
2.25734
-1.09219
0.092027
-0.186013
2.25148
1.04012
0.866372
0.108405
0.257627
-1.23745
-1.62602
-0.0826157
1.50675
0.140069
1.53876
-0.140129
2.36659
0.194986
-0.702878
-0.160659
0.0552978
1.54148
0.107203
-0.0157907
0.0342016
1.25523
-0.0372964
0.875873
-0.108909
-1.00873
-2.60479
0.274297
0.47537
-0.848374
1.57529
2.13695
1.96739
1.70026
0.387845
-0.513254
1.5467
1.9699
1.63371
1.03114
0.900792
2.40197
1.34933
0.602184
-0.386392
-1.38629
-2.50311
-1.66471
-2.28526
-0.523495
0.661046
-0.139092
-0.975159
0.237287
0.241548
1.70526
-0.116175
0.710428
1.44884
-0.00393065
-0.109709
-0.172077
1.06981
1.0611
0.854207
-1.34201
-0.762004
-1.6479
0.0538469
1.00136
-0.923202
0.972739
-1.15739
0.215893
-1.46528
0.565102
-0.929271
0.526019
-1.698
-0.178122
0.668515
-0.0439121
0.161819
1.83126
0.293124
0.833143
-0.656319
-1.28169
-0.0898018
-0.122288
-0.110611
-0.369828
-0.689064
-0.758956
0.547061
1.10751
2.27939
-0.378515
-2.72473
-0.937683
0.0625916
0.59119
2.32467
-0.541638
0.345126
-0.458768
-3.01311
-2.33572
-0.299363
0.0432648
1.25416
1.22334
0.136994
-0.042174
1.61812
-2.19894
-1.71696
-0.844675
0.456933
1.66483
-0.286497
-0.369722
1.82845
1.2217
1.49822
0.730505
0.0228577
-0.196436
-0.271592
-0.93898
-0.110326
0.0717904
1.73224
-2.5905
0.0535097
-0.62714
1.00717
-0.531736
-1.10888
1.34704
1.63715
-0.936066
0.386197
-0.535432
-0.584536
0.153288
0.153306
-1.25802
-0.574335
1.48637
2.57805
3.06012
1.87655
1.97484
2.56238
3.08987
1.89557
2.89799
3.27772
3.34233
1.34494
0.585037
0.41198
2.69027
1.01045
-0.475245
-0.235902
-0.893126
0.773989
-0.896124
1.7884
1.62541
3.74428
0.795672
0.80839
1.99635
0.470825
1.60526
-0.200868
1.72385
2.49692
2.29105
1.9921
2.87202
0.867316
-1.99279
-2.20789
-0.0235913
-0.495239
-0.832976
1.19913
1.71675
2.00844
1.38669
2.69801
2.17315
-0.218381
1.97529
1.25443
0.832576
1.53834
2.57904
2.18226
2.52813
-1.37599
0.120846
-3.88655
0.56472
0.272444
0.662054
-0.368298
0.240377
1.30698
0.0314227
0.792729
2.12904
1.60562
2.38032
1.93945
2.01716
1.39803
2.56049
4.6557
0.735543
0.407134
-0.0412506
0.546259
-0.548946
-0.598875
0.233279
1.50176
3.11028
0.0314157
1.91355
2.15405
2.0209
2.77661
1.18724
-0.0463353
0.929629
2.61844
2.89476
-0.467636
0.114216
0.52397
0.53282
0.263696
-1.33973
-0.208362
-1.61969
1.64421
0.0801022
0.948155
-1.22247
0.756978
-0.388441
1.46012
0.0991895
1.25841
1.57456
1.1731
0.884032
2.55688
-0.347716
1.52776
0.13571
0.660973
-0.634296
-0.996353
0.901031
0.233168
1.76878
-0.670446
0.245514
1.72742
0.887988
-1.1208
0.919992
0.0219593
-1.19089
-0.755756
0.666675
-0.134316
1.193
0.337271
-0.304667
-0.363387
1.31839
-1.81863
-0.0565943
0.347728
-1.35849
-2.12649
0.362576
-0.44173
0.358573
0.0775603
-0.241313
1.09819
-0.857663
1.75451
-0.83881
1.14134
0.100582
-0.314561
0.33422
-1.27252
1.60481
1.85253
1.62394
2.35491
2.95219
3.86738
4.1581
3.40408
2.76874
3.68669
3.99825
0.921091
4.03778
0.878372
3.84039
2.33977
1.2293
1.84679
1.17199
-1.60862
-0.0572911
2.78226
0.388881
1.16819
-0.346028
2.84818
0.217406
1.26213
0.119441
-0.0575564
3.17688
0.519334
1.57288
-0.169122
3.87872
-0.0138877
2.247
0.0105152
2.21064
-2.48302
0.49964
0.679303
0.0429428
1.34319
1.00806
1.55997
1.91566
1.83541
3.64554
1.7686
4.08753
1.97426
3.6923
2.60569
3.16871
3.29497
2.32977
0.468121
1.21522
0.689081
0.103317
2.36567
0.656799
0.786487
1.62153
2.82844
2.85347
1.35243
2.62343
0.541854
3.50598
1.80465
1.59132
0.818224
1.10118
0.864893
-0.293258
1.64547
0.246284
-0.0983504
1.33071
2.50366
0.393841
1.66956
1.83078
1.67312
2.39191
1.28521
3.47378
1.38077
1.30492
1.48757
-0.238232
0.35002
1.24371
1.59925
-0.371116
1.70489
-2.17194
0.413322
-0.103554
-0.0968916
0.116282
-0.31453
0.82615
0.826364
0.506095
1.10533
2.18395
1.58142
1.65818
-0.110579
-0.310076
-0.579116
0.874553
-0.873769
0.600262
1.32829
1.01568
0.20151
-1.32724
0.0218371
0.394902
0.680053
1.44714
0.0574745
-0.0725076
1.33224
-3.26236
0.824427
2.30712
2.61325
0.949883
-2.27549
3.49032
-0.573547
0.085337
-0.626917
-0.70452
-1.05417
-0.805858
-1.20076
0.993696
1.08053
0.376807
1.02052
-0.565102
-0.852922
-0.85373
-0.183921
-1.57226
-1.33803
-0.326715
-2.06835
-0.618755
0.1086
-1.6675
-0.973627
-0.446258
0.280509
1.85166
2.11616
3.39035
3.61441
3.83148
3.44659
5.8635
4.17139
4.58342
4.47284
1.64245
4.38598
3.48059
3.68366
6.42553
3.43847
2.53338
2.41001
1.41403
0.697143
2.08731
0.788681
1.02338
0.588261
5.33795
3.18975
1.84456
2.51205
4.57869
4.93348
5.46664
3.85665
3.07335
4.04733
2.13027
3.74187
1.34609
2.22472
3.61973
-1.31126
1.15883
2.27198
2.00896
0.91492
3.92275
2.59143
1.44333
4.6606
3.26435
2.59805
4.13551
2.4444
2.59149
3.15592
1.59208
1.95945
2.64893
2.79779
2.00164
-1.96741
1.97347
-1.3692
0.257923
0.691865
2.35279
-0.586778
2.97632
2.25703
0.322048
2.2132
-0.236926
1.71928
2.16313
0.882295
2.99297
1.94542
2.07792
1.8288
-0.149201
-0.78194
-0.124816
2.31082
0.717618
1.19055
-1.11627
3.59845
2.61162
2.75612
2.37542
2.06548
-0.195
-0.534317
0.934064
1.24689
2.05141
1.60368
-0.0373318
-0.0993452
0.322974
-0.783586
0.348873
1.79895
1.47562
0.865133
0.478909
2.30337
0.601083
0.673819
0.18748
1.54711
1.40128
-0.670466
1.70158
1.57989
0.841804
2.30696
0.462687
0.151798
1.53819
-2.39389
-1.63556
0.696824
-0.594075
1.912
2.25211
1.08707
1.00393
0.787869
0.609608
0.136054
2.32275
0.406062
3.25913
0.581899
1.6179
1.19785
-1.44191
-0.675411
-0.933594
2.06489
1.58711
-0.786679
0.246376
-0.637424
0.0268813
-0.111941
0.216061
-0.406778
-0.241329
-1.16266
0.640146
-0.621494
0.058067
0.228392
-0.442992
1.10546
-0.576304
0.928706
-0.683766
)
;

boundaryField
{
    hotSide
    {
        type            calculated;
        value           nonuniform List<scalar> 
400
(
0.275674
1.816
-0.647481
-2.77349
-1.39741
-0.888253
-2.47624
-0.595158
-2.48049
-2.98983
-4.30215
-4.06937
-3.38199
-1.29797
-0.291104
-0.972795
-1.80582
0.894231
-0.509212
1.068
2.54408
1.76166
-0.000311974
0.269544
-0.649701
0.146642