/*--------------------------------*- C++ -*----------------------------------*\
| =========                 |                                                 |
| \\      /  F ield         | OpenFOAM: The Open Source CFD Toolbox           |
|  \\    /   O peration     | Version:  2212                                  |
|   \\  /    A nd           | Website:  www.openfoam.com                      |
|    \\/     M anipulation  |                                                 |
\*---------------------------------------------------------------------------*/
FoamFile
{
    version     2.0;
    format      ascii;
    arch        "LSB;label=32;scalar=64";
    class       volScalarField;
    location    "0";
    object      relativeErrorField;
}
// * * * * * * * * * * * * * * * * * * * * * * * * * * * * * * * * * * * * * //

dimensions      [0 0 0 1 0 0 0];

internalField   nonuniform List<scalar> 
3200
(
0.000914934
0.00566785
0.0104415
0.0112912
0.0172817
0.00620634
0.0102642
0.00948686
0.01272
0.00529542
0.0145094
0.0112943
0.00955777
0.00831736
0.00926272
0.00833414
0.00803282
0.0046943
0.0112258
0.00534623
0.00411193
0.0037694
0.00221184
0.00595969
0.0105664
0.0136036
0.0124042
0.010233
0.010859
0.00659997
0.00454694
0.008576
0.00500942
0.00671224
0.00733442
0.00144338
0.0114241
0.00301426
0.00533944
0.000462099
0.00497696
0.00321188
0.0028433
0.00531101
0.00510046
0.0090285
0.0138271
0.0021226
0.00404666
0.00190671
0.00427373
0.00632879
0.00321895
0.00485213
0.0039679
0.00321154
0.0037636
0.000366296
0.00278443
0.00389625
0.00591653
6.03268e-05
0.00345978
0.00637945
0.00970587
0.0062906
0.0065063
0.00295067
0.00400487
0.00670443
0.00105525
0.0017192
0.00731289
0.00158611
0.00396651
0.00497414
0.0030437
0.00664108
0.000154527
0.00110784
0.00117286
0.00892982
0.00504764
0.00168015
0.0113659
0.00731774
0.00410437
0.00115288
0.00461175
0.00797687
0.00683869
0.00191505
0.00728161
0.00306609
0.00708905
0.00264378
0.00163959
0.00477667
0.000352839
0.00427464
0.00643823
0.00128426
0.00291424
0.00332491
0.00362118
0.000240068
0.00659957
0.00435693
0.00384164
0.00130988
0.00212279
0.000258396
0.0019368
0.000935559
0.00580323
0.000244291
0.00212041
0.000282282
0.000444027
0.00229064
0.0104701
0.00279747
0.00236208
0.00642926
0.00487984
0.00220116
0.00101978
0.00177167
0.00142297
0.0039981
0.00624083
0.00132584
0.00821698
0.00220385
0.000753073
0.00353682
0.00660099
0.00387669
0.00156482
0.00115511
9.01764e-05
0.000231308
0.00166461
0.00230013
0.00148595
0.00230094
0.00147312
0.000941901
0.00539071
0.00040759
0.00119985
0.00100958
0.000600411
0.00223614
0.000646866
0.00415634
0.00432256
0.00153687
0.00279428
0.00255438
0.00360954
0.00336848
0.00316874
0.0144602
0.00781191
0.0150251
0.014618
0.00419366
0.00979642
0.00738696
0.00461399
0.00720454
0.0102203
0.00190574
0.00228276
0.00875791
0.0043172
0.0014396
0.00415424
0.00675839
0.00312689
0.000658518
0.00308523
0.000694084
0.0090492
0.000408739
0.013771
0.000846508
0.0136657
0.000406911
0.00225849
0.0063701
0.000132703
0.00463457
0.00084219
0.0059754
0.000559124
0.000725881
0.000436657
0.00805283
0.00161821
0.00476304
0.00628138
0.00900957
0.00692407
0.00552197
0.0103398
0.00663373
0.00757794
0.00698237
0.001408
0.0117524
0.00798215
0.00199799
0.00312538
0.00669593
0.00352815
0.00319962
0.00494807
0.00512897
0.000428222
0.00271957
0.00530257
0.000661333
0.0093132
0.000845376
0.00232393
0.00605917
0.000378839
0.0055975
0.0126377
0.0101071
0.00189828
0.000584107
0.00384814
0.00331775
0.00564832
0.00390815
0.000476125
0.00765491
0.00125725
0.00190023
0.00145421
0.0109991
0.00414501
0.00643389
0.00633726
0.00283393
0.00294623
0.00112102
0.00552078
0.00306752
0.0079596
0.00383249
0.00693689
0.00131657
0.00116388
0.00167688
0.00191101
0.000857421
0.00391478
0.00126751
0.00430258
0.0012302
0.00528704
0.00644211
0.00553847
0.00577321
0.00274884
0.00548978
0.00216852
0.00682996
0.00227699
0.00802055
0.00548976
0.000552022
0.00384494
0.00677449
0.00117377
0.00152591
0.00763758
0.0036956
0.000920324
0.00545411
0.000465893
0.00442977
0.000978812
0.00109559
0.00397717
0.00756756
0.000431069
0.00297999
0.00310955
0.00179748
0.00809327
0.000829455
0.00223399
0.000465229
0.0087145
0.00525571
0.00274883
0.000777088
0.000470217
0.00539903
0.00192516
0.00394636
0.000848975
0.0037353
0.00272298
0.00390922
0.000290411
0.000938619
0.00145718
0.000101692
0.00420359
0.00603121
0.00600028
0.00417241
0.000748819
0.00892692
0.00362999
0.00180274
0.00350235
0.0101585
0.00954868
0.0127555
0.00759221
0.0104806
0.0065929
0.00683125
0.00569723
0.00700419
0.00564434
0.00343532
0.00420367
0.0136313
0.00698158
0.0019461
0.0103926
0.0105967
0.001365
0.00612722
0.00708141
0.00303104
0.0106957
0.00845608
0.00749052
0.000704681
0.00263185
0.00521738
0.000815605
0.00491793
0.00605602
0.00516941
0.00543184
0.00804453
0.00390103
0.000802851
0.00231293
0.00603927
0.00946882
0.00138263
0.00159145
0.00539122
0.0110786
0.00507199
0.00685995
0.00570762
0.00594827
0.00168217
0.00487796
0.00371433
0.00852842
0.00821722
0.000808391
0.00361036
0.00524932
0.0052036
0.00453372
0.0042183
0.00497553
0.00259821
0.00514142
0.00395121
0.00426908
0.012801
0.00836026
0.00143415
0.00481134
0.00126713
0.00131954
0.00546936
0.00137489
0.00142626
0.00607941
0.00168714
0.00164137
0.00237498
0.0022189
0.00810311
0.00239605
0.00664342
0.000504468
0.00647379
0.0032702
0.00590849
0.00408543
0.000994085
0.00207492
0.000749438
0.00109586
0.00382337
0.00486912
0.0054056
0.000579501
0.00209119
0.00187456
0.00277788
0.0039178
0.000931794
0.00284354
0.000539263
0.00369135
0.000100352
0.0048626
0.00288099
0.00157326
0.00190636
0.00278454
0.00113261
0.00222342
0.00473359
0.00552256
0.00273654
0.000594391
0.00397495
0.00411098
0.00361879
0.00317357
0.0049316
0.00876293
0.000774864
0.00130517
0.00138388
0.0021345
0.00827755
0.00183494
0.000204812
0.00501363
0.000917769
0.00187228
0.00581835
0.000389957
6.66943e-05
0.00466418
0.000119307
0.000730868
0.000407547
0.00289325
0.00330623
0.00454736
0.00595428
0.00582083
0.0013483
0.00183867
0.00440961
0.000900487
0.00842904
0.00135946
0.00304309
0.00111268
0.00452601
0.00109797
0.00357225
0.00479485
0.00070581
0.000419976
0.00196959
0.000211269
0.00458318
0.00986563
0.00101466
0.00572662
0.00365757
0.00838118
0.00913946
0.00577437
0.00514262
0.0029667
0.0082866
0.00454268
0.00350296
0.00643434
0.00292248
4.37762e-05
0.00910904
0.00269204
0.00527928
0.00153739
0.000370559
0.00264128
0.00267088
0.0057778
0.0017233
0.00651698
0.000159813
0.0081169
0.00112917
0.00121234
0.000564818
0.00190924
0.00863463
0.000893236
0.00265369
0.00100847
0.00697832
0.00152476
0.000669647
0.00207769
0.0148219
0.00156431
0.000517467
0.00546138
0.0101636
0.00248674
0.00592115
0.0114403
0.00199516
0.00856791
0.000774461
0.00416071
0.00454178
0.00162253
0.00144119
0.00266935
0.000380246
0.00144828
0.00281794
0.00253883
0.00302934
0.00254358
0.00287263
0.000286516
0.00564658
0.00407584
0.00574147
0.00612887
0.00657986
0.000653366
0.00518915
0.00310622
0.0078207
0.00452729
0.00300092
0.000358311
0.00115476
0.00123443
0.00285095
0.00102683
0.00831609
0.00158816
0.00783537
0.00159172
0.00168739
0.00119803
0.00143167
0.00817025
0.00330813
0.00605478
0.00350638
0.00312602
0.00823253
0.00313875
0.00220836
0.00214737
0.00259333
0.000290905
0.000339637
0.00397811
0.00793077
0.00119187
0.00145978
0.00157939
0.00454816
0.000899347
0.00385511
0.00148637
0.000863653
0.00531536
0.0011679
0.00187267
0.0024761
0.000787087
0.00301677
0.00294779
0.00641176
0.00386459
0.00214378
0.0064449
0.00066665
0.00321604
0.00647519
0.00364769
0.00348366
0.00520116
0.00477322
0.00280272
0.00478161
0.00292542
0.0042992
0.00236686
0.00402417
0.000210635
0.000829688
0.00233924
0.00424777
0.00296967
0.00421674
0.00563792
0.00962924
0.0014633
0.00348328
0.00206706
0.000202007
0.0101113
0.00725564
0.00160509
0.00821897
0.00197375
0.00131612
0.00449763
0.0028898
0.00104123
0.00364143
0.000460844
0.00636093
0.00253228
0.000245623
0.00412736
0.00149951
0.00582925
0.0037066
0.00701871
0.00521315
0.00866817
0.00673305
0.00787066
0.00407938
0.00671566
0.00157626
0.000288553
0.00105758
0.00121598
0.00258878
0.00745685
0.000743447
0.002352
0.00151028
0.000871704
0.00456345
0.00590876
0.00363112
0.000227062
0.00869137
0.0111827
0.0109068
0.00902378
0.00110677
0.00315665
0.00506145
0.00266994
0.00562741
0.00449205
0.00566907
0.00171413
0.00272241
0.00396036
0.00715276
0.0056904
0.00841546
0.009481
0.000475531
0.00200433
0.00917818
0.00155765
0.00121792
0.00192271
0.000790139
0.000521582
0.00330324
0.000921756
0.00174473
0.00410674
0.00359861
0.00112719
0.00489737
0.000565739
0.000496094
0.00665713
0.00738281
0.00384017
0.000496341
0.00571413
0.00485906
0.00266894
0.00669535
0.00336804
0.000192035
0.00428194
0.00139023
0.00343462
0.00238354
0.00236893
0.00596162
0.00448981
0.00173018
0.00207001
0.00762345
0.00241925
0.00524065
0.00200146
0.00234033
0.00296669
0.000140929
0.010761
0.00177442
0.0076256
0.000753058
0.000780092
0.0033919
0.00370977
0.00402706
0.00344683
0.00296081
0.00469283
0.00171959
0.00235786
0.000740485
0.00416712
0.00562555
5.66374e-05
0.00125274
0.00382374
0.00110611
0.00285167
0.00144535
0.00619913
0.0055707
0.00188074
0.00206594
0.00247936
0.000453449
0.00289434
0.00295533
0.0035432
0.00856622
0.00252134
0.000797756
0.00330768
0.00627527
0.000448853
0.00072394
0.001198
0.00175554
0.00455561
0.000880836
0.00437851
0.00380162
0.000806057
0.00636624
0.000484678
0.00470198
0.00120959
0.00117876
0.00126521
0.00339578
0.006048
0.00377514
0.00497698
0.000695142
0.000898536
0.000453636
0.00905885
0.0031351
0.0021181
0.00449324
0.00165963
0.00156687
0.00477803
0.00549802
0.000610007
0.000383567
0.00618183
0.00523681
0.00311354
0.00217009
0.00362039
0.00181188
0.00440703
0.00180187
0.00434055
0.00138383
0.00979976
0.00925527
0.00902502
0.00545552
0.00909211
0.00314537
0.00390742
0.00194041
0.00583739
0.00195613
0.00148131
0.00496586
0.00140684
0.00302744
0.00563924
0.000232549
0.000847413
0.0102411
0.00654945
0.00116397
0.00285389
0.00331287
0.000634969
0.00153263
0.00242522
0.000292674
0.00196985
0.000576982
0.000755055
0.00517815
0.00118605
0.000124797
0.000484984
0.0070571
0.000410033
0.000719762
0.00297736
0.00530022
0.00607627
0.00298617
0.00311268
0.00372206
0.000233614
0.00476379
0.00553538
0.000478711
0.00100566
0.000493194
0.0013024
0.00642177
0.00583113
0.00163615
0.00398069
0.000310373
0.00231125
0.00443995
0.00360473
0.00882808
0.0104705
0.00267253
0.000909454
0.00166368
0.0012586
0.00743074
0.001061
0.000336484
0.000223559
0.00160394
0.00448092
0.00251104
0.00367609
0.00462
0.0025633
0.00130841
0.00261732
0.00295987
0.00607375
0.0109807
0.00289723
8.53074e-05
0.00226284
0.00319568
0.00190301
0.00316968
0.00135158
0.00298289
0.00788918
0.00308401
0.00139805
0.00273595
0.00435457
0.00228893
0.000708882
0.00191451
0.00151177
0.00236274
0.00228563
0.00439686
0.00187468
0.00496575
0.00589135
0.00663833
0.00107115
0.00284331
0.00409238
0.00227598
0.000332852
0.000868498
0.000333079
0.000631016
0.00637371
0.00378115
0.00538062
0.00020936
0.00560373
0.00466259
0.00201494
0.000957164
0.000374206
0.00263507
0.00362778
0.00228519
0.0034287
0.00505323
0.00352102
0.00368217
0.00116552
0.000974655
0.000239622
0.00589716
0.00766314
0.00575784
0.00200759
9.64138e-05
0.00111564
0.00417624
0.000337202
0.00548631
0.00169545
0.000656643
0.0067273
0.000584409
0.00310803
0.00596176
0.00367264
0.0028086
0.00232271
0.00099523
0.001378
0.000256296
0.00118089
0.0038244
0.00196122
0.00394185
0.0052194
0.00799572
0.00597805
0.0089859
0.00897068
0.00219219
0.00139405
0.00479227
0.00617985
0.00464941
0.000956975
0.000437922
0.00366185
0.00817163
0.0073543
0.00267759
0.00017938
0.00285029
0.0019266
0.00514266
0.000944104
0.00313685
0.00956373
0.00913354
0.0108053
0.000994942
0.00371942
0.00392516
0.00068286
0.00100292
0.00464748
0.000275575
5.00523e-05
0.0045002
0.00151406
0.000566104
0.00978251
0.00397574
0.00434578
0.00363487
0.00438066
0.0101161
0.0045286
0.0170984
0.00324785
0.00319697
0.00498096
0.00891734
0.000723463
0.00110225
0.00354313
0.00418963
0.00105788
0.000231024
0.00127613
0.00430449
0.00203707
0.00346917
0.000177089
0.0035467
0.00646704
0.00126469
0.00192704
0.00355766
0.00627633
0.00393889
0.00284858
0.00410229
0.00292197
0.0042106
0.00172688
0.000818047
0.00393538
0.00217012
0.00284069
0.00412182
0.00695915
0.00368598
0.00211763
0.0025854
0.00412131
0.00340737
0.00572277
0.00701332
0.0108524
0.00572644
0.00603024
0.00187803
0.00383834
0.00230773
0.00354971
0.000973877
0.0026464
0.000409283
0.00453567
0.00714723
0.00693262
0.000255037
0.0065907
0.00428564
0.00154561
0.000636041
0.000404498
0.00161545
0.003657
0.000389855
0.000453306
0.00764299
0.00556565
0.00531535
0.00516972
0.000387743
0.000705307
0.000142744
0.00687427
0.00619402
0.00250841
0.00549951
0.000709457
1.62346e-05
0.000426094
0.002334
0.00133881
0.00579899
0.00332719
0.00182392
0.00290369
0.00109083
0.00223453
0.00301473
0.00339765
0.00384696
0.00728839
0.0020368
0.00408842
0.000347625
0.00805188
0.00792773
0.00176078
0.000676591
0.000107736
0.00140069
0.00498412
0.00254998
0.00204085
0.00798314
0.000625733
0.00219077
0.00262913
0.00158758
0.00800443
0.00032048
0.00073615
0.00663436
0.0033604
0.0037798
0.00369924
0.00172297
0.00329892
0.00244525
0.000876385
0.00354215
6.69793e-06
0.000388389
0.00349544
0.000753891
0.00266011
0.00276234
0.00491909
0.00039748
2.07227e-05
0.0011577
0.00479872
0.00198772
0.00447656
0.00468993
0.00177207
0.00834811
0.000209884
0.00292883
0.00161598
0.00164904
0.00657736
0.0120363
0.00915531
0.000600702
0.00283737
7.93691e-05
0.0097875
0.000291588
0.00153032
0.000733146
0.00772507
0.000741254
0.000254254
0.00602113
0.000635326
0.00380152
0.00181305
0.0015576
0.00110911
0.00570756
0.000583506
0.0024168
0.00988693
0.00390775
0.00103957
0.0028025
0.000140818
0.00264696
0.00485181
0.00173186
0.00196252
0.00755576
0.00173478
0.0080087
0.00375756
0.000555215
0.00755142
0.00188202
0.00162975
0.00216253
0.00714295
0.000286035
0.00790558
0.000487621
0.0055264
0.00188357
0.00262851
0.00559103
0.00165043
0.00168995
0.000929341
0.00354776
0.00412613
0.00725187
0.00164276
0.00527773
0.00104622
0.00628791
0.00503092
0.00349561
0.00690815
0.00666574
0.0103094
0.00189975
0.000360843
0.00869579
0.000466588
0.00245578
0.000347685
0.000265979
0.000508089
0.00335867
0.00221776
0.00305166
0.00524071
0.00243999
0.00309132
0.00316305
0.00339875
0.00188514
0.00541974
0.00385581
0.00668627
0.00710059
0.00117108
0.00169969
0.00373338
0.00350227
0.00484771
0.00133966
0.0029235
0.00257663
0.00456771
0.00395855
0.00319599
0.00513137
0.00343918
0.0059087
0.00265282
0.00494768
0.00170739
0.00109428
0.000928647
0.00288419
0.00165314
0.00149359
1.16999e-05
0.0049909
0.00290758
0.00313837
0.00249059
0.00549159
9.23332e-05
0.00106828
0.00591553
0.00665669
0.000477768
0.00103547
0.00398583
0.000122375
0.00285875
0.00112562
0.00283872
0.0037028
0.00118262
1.67679e-05
0.00158035
0.00157224
0.000328451
0.00138662
0.000848274
0.000290359
0.00158612
0.00240968
0.00298792
0.000626555
0.00116113
0.00218428
0.00384293
0.00216542
0.000749242
0.00305846
0.00896286
0.0109394
0.00429773
0.00306692
0.00372594
0.00386997
0.00322331
0.000716974
0.00659875
0.00732196
0.00487312
0.0105511
0.0044522
0.00134311
0.00145085
0.00962896
0.00170085
0.00172644
0.00373987
0.00960554
0.00668674
0.00122045
0.00359426
0.00125177
0.00611313
0.00307512
0.00235916
0.00227056
0.00044365
0.00854247
0.00512033
0.00658964
0.00757728
0.00465722
0.0113901
0.00719093
0.00338393
0.00400091
0.0111286
0.00997011
0.00690836
0.0117404
0.0045592
7.79362e-05
0.00224403
0.00289164
0.00279903
0.00495242
0.0054029
0.00270897
0.00350721
0.00444939
0.00152953
0.00486851
0.00154045
0.00127037
0.00564434
0.00612392
0.0067007
0.00823375
0.00510278
0.00985772
0.00421379
0.001376
0.00243435
0.00149431
0.000473543
0.00290206
0.00156254
0.00482872
0.00278222
0.00467263
0.0019471
0.00237928
0.0024419
0.0103488
0.00243912
0.00391108
0.00200123
0.00134129
0.00410282
0.00726583
0.00399514
0.00352707
0.00146785
0.00487529
0.00354556
0.0075482
0.00328136
0.00237544
0.00579429
0.00433921
0.00297826
0.00779672
0.0042191
0.00639787
0.00138274
0.00385889
0.000202484
0.00237889
0.00332496
0.00224802
0.00647295
0.00288313
0.000395331
0.00203016
0.00375389
0.00109708
0.00131727
6.91675e-05
0.00791847
0.000515347
0.00160236
0.0101151
0.0023065
0.00498983
0.000468615
0.0013571
0.000994943
0.0014768
0.0017437
0.00359073
0.0077475
0.00364056
0.00347272
0.000693794
0.00473078
0.00492605
0.000119356
0.000661317
0.00209431
0.00155216
0.00278444
0.00527801
0.000955252
0.00190006
0.00230495
0.0032196
0.00027909
0.00133276
0.00159838
0.00492276
0.0100966
0.00369626
0.00470936
0.00779246
0.00206139
0.00030796
0.00285221
0.00443118
0.00608469
0.000362883
0.000472841
6.8954e-05
0.000964124
0.000310563
0.00448555
0.00215039
0.000922656
0.00260478
0.0104215
0.00528751
0.000934188
0.0013394
0.00888808
0.00144998
0.000827296
0.000658904
0.00575189
0.0032686
0.00947991
0.00629517
0.00197713
0.00746866
0.00152745
0.00742952
0.00464802
0.00278284
0.0158131
0.0120915
0.0107105
0.00064267
0.00796344
0.000505025
0.0011929
0.000521967
0.00111673
6.49942e-05
0.00278963
0.00141334
0.000405965
0.00770722
0.000400068
0.00520576
0.000633858
0.00734513
0.00097264
0.00272329
0.000565952
0.010807
0.00586535
0.0106585
0.000868795
0.00209608
0.00190973
0.00127953
0.000302648
0.00162227
0.00432171
0.000227103
0.00538918
0.00709991
0.00919824
0.00431661
0.00122624
0.00362493
0.0015054
0.00665214
0.00427505
0.00659231
0.00536268
0.00483295
0.00462816
0.00366419
0.00200347
0.00445842
0.00290422
0.00126342
0.00458988
0.00643942
0.000983541
0.000227194
0.00716974
0.00405473
0.00384507
0.00212376
0.00123323
0.0054383
0.00610587
0.0104845
0.00884738
0.00253368
0.00674765
0.00250145
0.00181339
0.00407736
0.00196069
0.00502882
0.00263805
0.00190332
0.00427767
0.00537145
0.00320549
0.00830133
0.00246213
0.00351858
0.00338095
0.00915788
0.000149947
0.0101351
0.0117651
0.00873562
0.00138902
0.0015781
0.000869962
0.000101999
0.00148497
0.0012058
0.00751859
0.00254342
0.00385926
0.00103403
0.0043102
0.00283338
0.00437854
0.00130786
0.00245847
0.00400952
0.00852261
0.00362489
0.000267408
0.000168882
0.0052245
5.56131e-05
0.00233531
0.000350404
0.00240883
0.00166952
0.00408209
0.00392718
0.00209386
0.00526997
0.00317402
0.00405843
0.00273386
0.00744098
0.00224316
0.00186399
0.000987169
0.00333882
0.00431166
0.00299024
0.000808127
0.00134326
0.000291555
0.0010951
0.00276815
0.00261512
0.000208292
0.00336041
0.00312505
0.00134976
0.00484788
0.00356568
0.0021258
5.08299e-05
0.00423856
0.00328276
0.000835163
0.000451914
0.0141741
0.00686932
0.00500086
0.00160493
3.68942e-05
0.00453439
0.00420876
0.0011887
0.00780664
0.00233703
0.00955325
0.00681922
0.00240816
0.00792903
0.00525649
0.00532821
0.0042723
0.00732722
0.00667886
0.0114502
0.0123749
0.000179521
0.00351617
0.000569229
0.000246595
0.000629729
0.00464768
0.000263299
0.000426848
0.00127659
0.000619101
0.00573922
0.000761247
0.00566731
0.000514286
0.00292741
0.000188235
0.00343397
1.2896e-05
0.00304017
0.0162243
0.00683548
0.00630382
0.00294847
0.00116231
0.00548057
0.00309523
0.00260634
0.00653265
0.000533294
0.00622936
0.00918103
0.00533253
0.00245802
0.00143434
0.00150851
0.00138768
0.00635645
0.00875717
0.008299
0.00348636
0.00350432
0.0012589
0.00220528
0.00299268
0.00219128
0.00120557
0.00371534
0.00217369
0.00451704
0.0110697
0.00643606
0.00677539
0.000941965
0.00139363
0.00491883
0.00177149
0.00419215
0.0109736
0.0110534
0.00700989
0.00109367
0.000682896
0.0068346
0.00497785
5.64642e-05
0.000461627
0.000538247
0.00694783
0.00411822
0.00535767
0.0150801
0.00294727
0.0033833
0.00579354
0.000285154
0.00192642
0.00591731
0.00733563
0.00910276
0.00392061
0.00187447
0.000496107
0.00661548
0.0018336
0.00331793
0.00338315
0.00139117
0.00155836
0.00463118
0.000992611
0.00309294
0.00145273
0.0051329
0.00432481
0.00241331
0.00418551
0.000583206
0.00566612
0.0137271
0.00172993
0.00672587
0.0076424
0.000158439
0.00474188
0.00135059
0.000931329
0.00285334
0.0011266
0.000708839
0.0054586
0.00398913
0.00589613
0.0055787
0.00321285
0.00105223
0.0019622
0.00693344
0.00275
0.00267428
0.0021231
0.00124012
0.00705244
0.00166694
0.00469701
0.000992271
0.0075179
0.00275354
0.000995409
0.00165934
0.00324756
0.00444178
0.00730958
0.000937241
0.00397113
0.00219503
0.00577797
0.00665943
0.00464946
0.00232708
0.0134733
0.0104595
0.00640484
7.4124e-06
0.00507624
8.58076e-05
0.000897445
0.00491338
0.00344241
0.00899472
0.00541974
0.00446685
0.00367158
0.00479399
0.0032856
0.00489928
3.74606e-05
0.00182263
0.0118313
0.0127942
0.015183
0.00928143
0.00939374
0.00180931
0.00681057
0.00385199
0.000148162
0.010299
0.00511416
0.00746504
0.00845771
0.00777511
0.00348783
0.00418225
0.00200163
0.00724199
0.00459874
0.00277741
0.00890683
0.0132616
0.00570238
0.00598978
0.00568777
0.00135058
0.00120616
0.00319854
0.0052915
0.00361274
0.00317071
0.00509645
0.00529278
0.00658667
0.0107847
7.52191e-05
0.00412014
0.00101094
0.00609054
0.00405959
0.00597987
0.00842015
0.00644061
0.00828919
0.00788609
4.82348e-05
0.00403131
0.000810295
0.000621529
0.0028572
0.00266368
0.00945036
0.00430991
0.00686861
0.00664704
0.0049325
0.00587058
0.00338434
0.000713097
0.00396502
0.00594662
0.0180203
0.00788005
0.00595731
0.00733757
0.00544552
0.000721768
0.00831534
0.000144018
0.0023149
0.00144775
0.00314733
0.00550535
7.18696e-05
0.011484
0.00298463
0.00156836
0.00436321
0.00182981
0.00673175
0.00676912
0.00104793
0.0044561
0.00523673
0.00176621
0.000178147
0.00602103
0.00244977
0.000198741
0.00295453
0.000317328
0.000734524
0.0109609
0.00510125
0.00731753
0.00364671
0.00139545
0.000659383
0.00106638
0.00067068
0.00826776
0.00213204
0.00751445
0.00584389
0.00273098
0.00231567
0.00211589
0.00168136
0.001313
0.00293996
0.00201511
0.00316303
0.00761288
0.00235932
0.00108978
0.00103723
0.00458174
0.00221929
0.00423875
0.000248822
0.0030143
0.000642217
0.0050068
0.00200791
0.000308584
0.000895
0.00533794
0.00809404
0.000296228
0.00174198
0.00446715
0.00100784
0.000407307
0.00152009
0.00026202
0.00267876
0.00762173
0.00270007
0.00181199
0.000600779
0.00416921
0.00439089
0.0114843
0.00891403
0.00653201
0.00140587
0.000795249
0.00653552
0.00237618
0.00367183
0.00337675
0.00151435
0.00666571
0.0112067
0.00259456
0.00724965
0.00129862
0.00952429
0.00247284
0.00293336
0.00958418
0.0102179
0.00802872
0.00063523
0.000391972
0.00059947
0.00117105
0.00134244
2.92137e-05
0.000688522
0.00291054
0.000638317
0.000576852
0.00951158
0.000676427
0.00475622
0.000271146
0.00278739
0.00228505
0.00815917
0.000178307
0.00727272
0.00835765
0.00562414
0.000155465
0.00272001
0.00376833
0.00238903
0.00274381
0.000898659
0.00574936
0.00349022
0.00896819
0.00270327
0.00569129
0.0015093
0.00994024
0.0024871
0.000260372
0.00780701
0.00400918
0.00624655
0.00684145
0.00787176
0.00751041
0.00332574
0.00206477
3.23684e-05
0.00583522
0.00261835
0.000194604
0.00710895
0.0052399
0.00928411
0.00625666
0.00968088
0.00187868
0.00325771
0.00157552
0.00817133
0.0030302
0.00565379
0.00953047
0.00276639
0.000129052
0.00368035
0.00402619
1.27058e-05
0.00605516
0.000999328
0.00525244
0.00617665
0.00742
0.00584409
0.00313242
0.00375884
0.00506549
0.00287107
0.00164261
0.00275181
0.00397096
0.0073505
0.00286077
0.0001131
0.00180122
0.00201339
0.00972348
0.00462452
0.00144935
0.00284334
0.00380995
0.00629654
0.00442185
0.00341398
0.00130578
0.00185679
0.00304354
0.00385412
0.00553922
0.0047799
0.00176796
0.00318502
0.00320322
0.00182087
0.00170622
0.000839756
0.00384982
0.00615513
0.00297975
4.57387e-05
0.00549344
0.00116231
0.00208374
0.00159073
0.000989029
0.00620754
0.00210942
0.00135089
0.00450502
0.00166703
0.00120087
0.00407569
6.07275e-05
0.0018016
0.00300561
0.00657955
0.00174832
0.00136731
0.0020441
0.00306691
0.00312966
0.0014734
9.31484e-05
0.00274862
0.00471714
0.000984742
0.00270478
0.00257403
0.00369852
0.00142793
0.0072367
0.00587592
0.00556444
0.00798342
0.00530304
0.00613768
0.000373658
0.00109561
0.00303763
0.00616789
0.00785869
9.47119e-05
0.00167121
0.0107042
0.0104889
0.00176613
0.00558858
0.00156384
0.00590759
0.00711906
0.00570636
0.0132945
0.0120412
0.00889762
0.00972071
0.0025102
0.000930731
0.00574176
0.000389734
0.00409943
0.00726784
0.00201753
0.00756079
0.00922396
0.00147112
0.00151953
0.00202702
0.00278709
0.00112645
0.00483481
0.00561285
0.00440715
0.0120025
0.00683519
0.0034226
0.00779402
0.0070001
0.00319425
0.00470107
0.00343665
0.00179162
0.00010174
0.00440039
0.00710805
0.00814595
0.00158349
0.00100631
0.00175027
0.00341573
0.00309553
0.00730529
0.00482592
0.00969265
0.00386301
0.0037142
0.00146688
0.00350572
0.00249439
0.00158346
0.00223764
0.00588088
0.00454899
0.0047187
0.00328595
0.0040834
0.00606947
0.00268457
0.00516826
0.00197429
0.000886902
0.00489895
0.00293846
0.00348397
0.0105799
0.00430274
0.000337517
0.00196491
0.00197898
0.00134861
0.00140418
0.000628831
0.00395074
0.00104294
0.00613854
0.00193848
0.00857968
0.00141635
0.00377746
0.0055986
0.000231876
0.00107919
0.000460337
0.00171679
1.6877e-05
0.00189737
0.00577559
6.8869e-05
0.000740516
0.0018615
0.00103963
0.00493101
0.00171969
0.00224017
0.000392516
0.00189042
0.00124576
0.00641994
0.00837137
0.00232422
0.00444366
0.00138655
0.0042247
0.0082919
0.000204765
0.00260307
0.000779644
0.000408721
0.00439126
0.00260226
0.000852636
0.00224004
0.00116613
0.00434057
0.00114394
0.00101005
0.00496923
0.00175869
0.00561369
0.00268458
0.000134451
0.00529495
4.34247e-05
0.00240088
0.00434548
0.00136347
0.00302353
0.00447617
0.000247677
0.00208961
0.00100237
0.00348112
0.00323468
0.00024413
0.00589255
0.00564945
0.00044019
0.00692101
0.001055
0.000636045
0.00737635
0.00289431
0.00132479
0.00274336
0.0048227
0.00137345
0.000735999
0.00793721
0.000641416
0.000915658
0.0055332
0.00296561
0.00604974
0.00653161
0.0011419
0.00281956
0.00696203
0.00232308
0.00441822
0.000154195
0.0062836
0.00467386
0.00713324
0.01211
0.000596256
0.00377326
0.000192118
0.00625946
8.12064e-06
0.00202644
0.000596283
0.00670426
0.000881668
0.00238589
0.0107134
0.00122747
0.00143194
0.000457617
0.0105909
0.00112988
0.00530754
0.000477255
0.00533701
0.0084468
0.00311116
0.00494076
0.00524715
0.000891872
0.00168393
0.0104197
0.00248142
0.00228787
0.00520228
0.0106711
0.0025687
0.00233378
0.00232053
0.00366939
0.00503121
0.00162303
0.00551754
0.00103049
0.00522036
0.00592929
0.0119009
0.00453131
0.00432152
0.00150923
0.003256
0.00614789
0.0036156
0.00385093
0.00480295
0.00606984
0.00384554
0.00252077
0.00471262
0.00115672
0.00526286
0.000341581
0.00480317
0.00402158
0.00452456
0.00604201
0.00175107
0.00350872
0.0066483
0.0019853
0.00571456
7.59931e-05
0.00134827
0.00469654
0.00077391
0.00366613
0.00435058
0.00424352
0.000575081
0.000623557
0.00302964
0.00130327
0.00267344
0.00232636
0.00574367
0.00851769
0.0034939
0.00630517
0.00299425
0.00367463
0.00289965
0.00196827
0.00454724
0.00153789
0.00310909
0.00117659
0.00350482
0.000507648
0.00179124
0.0016307
0.00398488
0.00044204
0.00318881
0.0061388
0.00223749
0.00218202
0.000598112
0.000580208
0.00122832
0.00168103
0.00110661
0.000929057
0.00445629
0.00345311
0.00364713
0.00398511
0.0010609
0.00269339
0.0018297
0.00277432
0.00164316
0.00387343
0.00318413
0.00120431
0.00333983
0.00715746
0.00495313
0.0027077
0.000720644
0.00616696
0.00269117
0.00257982
0.00584196
0.00347603
0.00505417
0.000854875
0.00581061
0.000763309
0.000938665
0.00461318
0.00380427
0.00266733
0.00340307
0.00166921
0.00170297
0.004679
0.00815507
0.0037184
0.00410283
0.00193561
0.000959794
0.00223112
0.000138692
0.00106326
0.00491752
0.00179512
0.000184021
0.00202729
0.00235351
0.0015138
0.00342982
0.00526915
9.85815e-06
0.000800259
0.00909773
0.00570787
0.00778644
0.00248305
0.00263395
0.00142627
0.00538569
0.0002566
0.00118701
0.00507298
0.00260108
0.00550121
0.00132387
0.00141662
0.00395293
0.00669876
0.00136742
0.0012119
0.00553567
0.000848985
0.00228416
0.00809834
0.0034742
0.00334894
0.00338677
0.0014498
0.00200378
0.00108463
0.00434609
0.000900151
0.000595252
0.000900121
0.00200734
0.00229741
0.00470538
0.00338019
0.00362566
0.000338791
0.00496184
0.0076254
0.000937685
0.00588392
0.00321151
0.00289585
0.00307227
0.00121735
0.00217277
0.00388079
0.00043227
0.0035603
0.00160981
0.000337923
0.00145177
0.00231442
0.00530632
0.00354297
0.00228196
0.00148478
0.00480745
0.00292877
0.000812871
0.00657684
0.001069
0.0045685
0.00563589
2.87611e-05
0.00114828
0.00144013
0.000471049
0.00282592
0.00418235
0.00286185
0.000200872
0.0043464
0.00317319
0.00443251
0.00459216
0.00320037
0.00059256
0.0040848
0.00146401
0.000189797
0.000745983
0.00356309
0.00215557
0.00708835
0.0017512
0.0012935
0.000965359
0.00111992
0.0019979
0.00113449
0.00157717
0.00313413
0.00168979
0.0018463
0.0017776
0.00547106
0.00187108
0.00109228
0.00336752
0.00531565
0.000299594
0.00778028
3.76056e-06
0.00253227
0.00382763
0.000104731
4.30912e-05
0.00116664
0.00581353
0.00180378
2.0614e-05
0.00140341
0.000204233
0.00480732
0.00281318
0.00344931
0.00430709
0.00126447
0.00219439
0.00489395
0.00103375
0.000864274
0.00205462
0.00322555
0.00181975
0.000374312
0.000549082
0.00236147
0.0102314
0.00224819
0.00696234
0.00110154
0.00763243
0.0014861
0.00538521
0.00622733
0.00364279
0.00345511
9.44294e-05
0.00701313
0.00446307
0.000503271
0.00122249
0.00535754
0.00140449
0.00599602
0.00429855
0.00556347
0.000194331
0.00623775
0.00301853
0.000254415
0.000514467
0.00623038
0.00288003
0.00240054
0.000300579
0.00071482
0.0034354
0.00461521
0.000234377
0.00427201
0.000396883
0.00435746
0.000396602
0.00669488
0.000551388
0.00198709
0.000454134
0.00015631
0.00435789
0.000303151
4.46706e-05
9.67993e-05
0.00355456
0.000105679
0.00248331
0.000308969
0.00286312
0.00756389
0.000796181
0.0013791
0.00245991
0.0045653
0.00619009
0.00569657
0.00492147
0.00112238
0.00148512
0.00447543
0.00570065
0.00472883
0.00298565
0.00260931
0.00696106
0.00391247
0.00174701
0.00112155
0.00402556
0.00744138
0.00494722
0.00678845
0.00155437
0.00196193
0.00041265
0.00289204
0.000703531
0.000716026
0.00505445
0.000344348
0.00210594
0.00429567
1.16572e-05
0.00032548
0.000510712
0.0031765
0.00315204