/*--------------------------------*- C++ -*----------------------------------*\
| =========                 |                                                 |
| \\      /  F ield         | OpenFOAM: The Open Source CFD Toolbox           |
|  \\    /   O peration     | Version:  2212                                  |
|   \\  /    A nd           | Website:  www.openfoam.com                      |
|    \\/     M anipulation  |                                                 |
\*---------------------------------------------------------------------------*/
FoamFile
{
    version     2.0;
    format      ascii;
    arch        "LSB;label=32;scalar=64";
    class       volScalarField;
    location    "0";
    object      stateMean;
}
// * * * * * * * * * * * * * * * * * * * * * * * * * * * * * * * * * * * * * //

dimensions      [0 0 0 1 0 0 0];

internalField   nonuniform List<scalar> 
3200
(
340.497
338.744
337.735
338.118
336.757
341.236
340.47
341.268
340.54
343.305
340.125
341.031
341.244
341.14
340.186
339.823
339.232
339.697
344.499
342.005
336.317
334.089
335.148
334.475
333.524
333.086
334.034
335.226
335.347
336.968
337.665
336.121
336.995
335.959
335.203
336.599
332.636
334.879
337.144
335.095
331.287
328.929
329.503
329.182
329.761
328.957
327.821
332.102
331.744
332.607
331.818
330.984
331.737
330.804
330.637
330.388
329.694
330.564
330.908
330.93
322.394
324.609
323.835
323.289
322.622
324.143
324.448
325.927
325.814
325.052
326.901
327.686
324.501
326.055
324.901
324.164
324.375
322.801
324.539
323.954
319.322
316.311
317.835
319.226
316.45
318.062
319.385
321.319
319.648
318.662
319.027
320.514
323.286
319.718
318.136
319.242
320.287
320.973
319.048
320.311
311.54
313.306
312.998
313.095
313.233
314.523
312.731
313.614
313.903
314.769
314.513
315.195
315.596
314.514
312.773
314.294
313.473
313.824
313.848
314.277
311.378
307.379
307.636
306.516
307.133
308.095
309.216
309.554
308.644
307.889
307.196
309.494
306.468
308.22
309.008
307.547
306.463
307.169
307.759
307.796
302.761
302.694
302.301
303.547
302.447
303.64
302.539
302.735
301.412
302.936
302.696
302.74
303.202
303.663
302.747
301.638
301.541
303.27
301.918
303.507
339.099
339.664
340.348
337.157
340.119
338.316
339.074
343.188
341.638
342.672
343.629
342.532
341.111
343.448
342.693
339.795
340.627
340.938
342.228
342.627
334.013
335.251
334.968
336.354
334.137
337.638
333.66
338.489
334.474
339.422
338.518
336.948
338.731
336.751
338.06
335.173
336.776
335.761
335.326
337.759
330.283
331.662
328.463
328.05
329.243
330.203
329.056
330.671
330.635
330.981
333.777
329.245
330.222
331.83
333.074
329.319
329.864
331.597
331.723
331.44
324.259
323.789
323.314
325.656
322.82
326.537
325.876
324.969
327.055
325.468
323.164
323.872
327.571
326.826
325.006
326.936
323.603
323.768
324.827
326.881
318.613
319.832
319.044
316.304
318.817
318.398
318.717
320.085
320.227
321.626
319.492
320.188
318.44
321.979
318.237
319.723
320.194
320.045
318.615
319.288
314.834
313.357
312.607
313.794
312.749
312.609
313.1
313.199
314.279
313.482
314.528
312.993
315.735
312.319
312.909
314.237
315.389
311.831
314.123
314.085
310.534
309.408
308.106
306.841
308.807
307.43
308.62
309.366
310.332
306.804
309.276
308.182
308.066
309.477
311.297
308.919
309.213
308.247
305.583
309.8
301.911
303.008
302.672
304.494
303.488
301.754
303.249
301.895
303.878
301.881
302.978
302.769
302.585
302.961
304.223
301.078
304.676
304.077
303
305.446
341.844
341.7
340.496
338.876
339.758
339.315
341.698
341.214
342.927
343.041
343.433
342.785
342.882
343.129
342.254
338.358
339.964
341.028
344.63
344.217
335.764
333.653
333.853
335.785
333.785
335.112
335.963
338.706
338.376
337.67
339.164
337.6
336.892
336.749
336.134
334.68
335.492
336.504
336.486
337.331
333.08
329.835
330.207
329.431
328.039
330.515
330.365
331.123
331.314
332.881
331.815
332.059
330.184
329.914
332.469
332.912
332.956
329.012
331.789
331.348
326.183
323.993
323.526
324.307
324.607
322.218
324.03
326.6
325.717
326.995
327.842
325.502
326.619
326.296
324.412
326.549
325.059
324.426
324.116
327.198
318.382
317.232
319.472
317.869
319.209
318.671
319.538
321.406
320.594
321.111
321.704
320.033
319.524
319.115
320.751
319.586
320.54
320.521
320.605
319.444
312.809
314.016
315.205
314.298
312.962
313.805
315.409
314.484
316.086
315.631
314.573
313.716
316.825
314.052
314.525
313.241
312.974
315.182
312.851
315.248
305.536
308.563
308.847
308.148
309.37
306.287
308.398
309.13
310.691
308.896
308.601
307.342
308.946
308.986
310.284
308.674
308.801
308.57
309.216
309.256
301.385
304.595
301.069
303.284
302.364
301.629
303.279
300.486
302.653
304
302.741
301.693
302.707
304.088
301.512
303.135
302.749
302.236
302.728
304.15
344.395
341.844
340.131
341.479
340.514
340.892
342.638
343.35
344.462
342.813
344.107
344.277
342.904
343.621
344.051
340.264
341.81
340.284
340.972
341.157
336.56
335.17
334.634
336.555
335.505
338.209
336.025
339.588
339.105
339.874
339.033
336.585
338.902
337.876
337.922
335.349
337.65
336.804
336.766
340.648
330.785
330.424
329.218
328.127
331.153
330.481
329.074
332.58
330.651
333.389
335.035
331.993
333.786
333.362
331.562
332.105
331.016
330.093
331.434
331.268
325.649
324.152
325.345
323.982
324.886
324.726
324.95
325.098
327.68
325.879
326.561
324.905
325.769
325.973
326.484
326.593
326.224
324.51
325.42
327.524
319.853
322.052
319.311
319.579
320.041
321.183
318.376
320.166
319.45
320.357
322.489
318.75
320.221
320.29
320.035
321.256
320.026
319.711
320.819
321.879
314.217
314.444
314.676
312.964
314.329
313.612
314.554
314.914
313.629
315.736
315.959
316.086
314.938
314.072
315.754
312.595
315.609
314.854
316.01
314.052
309.314
310.405
307.399
307.577
307.178
307.437
308.163
307.65
308.295
310.566
309.969
310.444
309.063
309.285
308.189
307.472
307.735
309.825
306.669
311.291
303.234
303.874
302.233
302.962
306.008
305.186
302.542
300.57
302.487
303.496
301.734
302.209
302.745
301.925
303.128
304.872
303.668
302.933
301.569
302.337
343.589
343.317
340.218
341.454
340.895
342.175
342.343
344.123
343.554
345.513
345.958
345.511
345.113
344.166
341.925
344.132
342.436
343.14
342.347
343.157
338.151
335.326
336.965
334.645
334.346
334.968
336.091
339.185
340.931
338.293
339.106
341.771
338.036
337.228
338.081
337.206
336.242
339.453
338.463
338.994
333.82
331.159
332.083
328.827
331.818
333.193
332.56
333.811
333.624
332.827
334.238
334.38
332.177
334.4
332.413
330.708
331.685
331.255
333.206
333.126
326.414
325.582
323.899
324.546
325.639
324.69
326.114
327.436
326.301
327.356
328.938
328.485
328.275
325.265
325.411
325.945
325.456
323.277
326.207
326.869
318.972
319.06
319.121
320.314
317.203
320.372
318.754
321.665
321.833
320.575
320.473
320.287
320.315
320.252
322.447
320.103
319.604
319.834
321.141
321.41
314.051
313.778
313.158
314.914
313.878
314.526
317.122
317.082
314.846
316.15
314.716
315.582
316.238
316.099
316.097
312.08
313.773
314.109
315.211
316.004
308.575
308.297
308.262
308.214
307.475
308.733
307.765
310.388
309.529
311.285
309.466
307.826
309.586
309.482
308.614
309.931
310.623
307.467
310.055
308.223
302.557
302.994
305.639
301.986
303.62
304.382
303.56
302.614
301.664
301.457
302.939
303.228
301.215
301.47
303.963
302.321
304.033
302.346
301.522
302.283
343.795
343.218
339.93
340.704
341.382
343.194
342.47
344.971
345.03
347.225
348.576
347.061
345.546
343.896
345.562
345.534
345.826
343.374
343.034
345.815
338.989
337.543
338.59
339.259
338.877
338.649
338.808
339.919
339.629
340.642
340.189
342.061
339.616
339.674
339.333
341.052
338.278
337.383
338.155
338.568
333.222
332.505
330.881
333.585
332.868
331.632
331.763
334.097
333.837
334.462
334.732
336.319
335.884
333.064
331.893
332.893
331.58
333.388
332.71
334.133
329.003
326.711
325.869
325.978
326.471
324.801
327.9
327.709
328.085
328.639
329.583
328.836
329.024
329.065
326.394
326.454
327.376
327.131
327.819
329.169
320.873
320.162
321.113
319.639
321.556
320.199
321.031
320.713
324.362
322.894
321.451
322.703
323.074
322.201
320.989
321.559
320.179
321.145
319.403
321.353
314.862
315.967
312.734
312.693
314.647
314.283
314.065
314.786
315.506
315.941
315.772
315.81
317.515
316.548
316.875
314.918
313.019
316.054
313.772
314.574
308.466
309.473
307.648
308.181
307.948
307.562
310.319
308.18
309.745
309.719
309.343
307.56
311.689
307.45
308.503
308.977
309.232
310.057
308.764
306.888
302.364
302.705
300.902
302.803
303.962
301.253
301.982
303.976
303.851
303.46
303.576
303.225
303.483
304.254
303.654
304.214
304.561
300.518
301.093
305.6
346.246
342.83
343.628
343.019
343.107
344.185
345.964
346.865
345.743
344.335
349.725
347.943
346.775
347.282
346.459
347.016
344.346
343.029
346.869
346.302
341.176
337.545
337.075
337.491
339.083
339.451
341.807
340.682
340.832
342.519
341.501
341.042
343.92
341.579
341.269
340.548
340.305
341.756
339.411
343.3
332.92
333.195
330.859
329.957
333.585
333.38
332.931
333.019
334.286
334.833
335.183
336.08
335.101
332.956
333.807
332.162
335.079
332.936
332.773
333.023
328.16
327.633
325.727
325.654
326.381
326.287
327.401
328.484
329.688
327.777
327.557
327.042
330.5
329.176
328.361
328.183
328.343
327.771
328.216
328.4
323.827
322.367
318.838
320.43
322.532
320.813
322.931
322.297
321.27
322.328
323.657
324.424
324.215
321.871
323.674
322.676
321.529
320.568
320.661
320.868
315.711
314.812
315.004
312.64
313.483
313.744
313.956
315.604
315.603
315.923
318.049
317.782
316.518
313.851
315.197
315.243
314.914
315.596
315.11
316.385
309.781
309.393
309.83
309.383
309.851
308.338
308.319
310.643
307.257
310.174
308.278
309.621
311.945
306.917
309.815
309.369
309.013
308.5
310.369
309.541
302.318
305.38
302.806
303.697
303.869
302.627
300.716
303.073
303.413
305.212
302.181
304.336
304.291
302.62
304.108
303.813
302.767
301.923
302.959
303.054
345.379
344.831
345.985
346.553
344.43
346.51
347.121
347.904
346.111
348.618
349.484
349.411
348.118
350.012
346.721
347.147
346.156
344.498
346.837
348.319
341.503
338.942
340.129
339.599
336.761
340.437
340.418
341.525
344.154
341.389
341.555
343.572
341.492
342.236
339.919
339.56
340.003
341.103
338.541
339.223
335.872
334.162
332.876
334.545
334.049
333.494
333.097
335.584
335.865
337.848
335.896
337.892
336.263
334.907
336.904
333.373
333.066
333.943
335.239
332.679
329.304
327.103
329.047
328.173
327.015
330.02
327.922
328.14
328.556
327.782
330.306
326.477
329.235
330.198
328.528
329.939
329.204
328.383
329.203
328.899
324.132
321.606
321.34
324.265
321.57
321.168
322.064
322.27
322.321
323.636
321.838
323.469
324.045
322.962
322.954
322.738
322.563
321.83
322.736
322.061
317.007
312.785
315.553
314.825
316.717
314.604
314.334
316.416
317.01
316.949
317.578
317.337
317.003
317.486
314.624
317.403
316.198
316.743
315.56
315.246
308.671
309.921
309.639
308.772
309.337
307.9
310.437
308.642
310.44
311.399
309.727
310
307.782
307.477
309.296
309.661
310.467
309.09
309.913
309.306
303.864
301.906
302.703
303.101
303.611
302.69
303.298
303.644
302.985
303.164
302.771
302.511
304.13
303.388
302.815
302.47
301.931
303.717
303.255
302.077
348.431
349.491
347.664
345.609
345.877
346.304
346.957
348.185
350.991
351.378
350.524
352.369
349.986
348.547
348.153
350.514
347.262
346.774
347.002
348.653
341.682
340.143
341.354
340.987
343.078
340.357
342.585
342.864
342.46
345.349
344.177
344.564
344.679
343.371
345.296
343.445
341.713
341.492
343.509
342.796
335.742
337.618
335.563
334.377
335.52
336.087
336.372
337.356
337.696
335.068
334.8
337.375
335.181
337.066
335.634
335.194
336.29
336.086
335.936
336.183
329.092
330.862
326.527
328.658
327.705
328.3
329.205
328.306
329.929
331.085
330.411
330.953
329.903
329.832
327.988
331.905
329.007
329.191
328.288
327.86
322.689
323.867
323.031
323.113
321.737
324.004
323.776
325.235
323.977
323.745
324.849
324.318
323.759
325.147
323.792
324.271
321.532
322.988
321.466
322.135
316.339
316.114
317.601
316.633
315.764
316.69
317.378
315.963
315.977
316.417
318.945
316.557
316.817
319.389
315.319
314.313
315.871
315.13
315.719
315.757
309.731
308.151
311.75
310.579
308.476
309.862
308.268
308.278
309.892
309.676
310.53
310.336
310.667
308.098
309.943
308.963
310.165
308.357
309.175
308.78
303.567
301.614
300.075
302.049
304.631
305.598
302.639
303.195
304.17
304.657
305.159
303.195
303.431
303.285
303.527
303.109
304.53
302.484
303.386
302.294
350.262
348.835
347.762
347.433
345.265
349.307
349.485
349.751
351.765
351.019
353.192
351.955
350.212
351.804
348.268
350.949
349.516
348.404
352.487
350.841
344.202
340.631
343.944
341.455
342.436
342.23
343.134
343.054
344.19
342.853
343.477
345.878
342.895
344.535
342.626
344.54
341.296
342.156
341.043
344.234
336.367
338.219
334.678
336.011
335.006
336.399
336.156
337.042
338.121
336.679
338.57
339.056
339.591
337.709
336.381
336.864
334.803
337.197
336.083
336.611
329.974
329.999
330.192
330.153
329.885
330.958
330.683
330.337
331.574
332.258
329.807
330.134
332.285
328.388
330.756
329.924
328.542
330.458
330.417
331.655
324.836
322.955
324.515
321.748
322.186
324.293
323.794
324.937
324.272
324.092
324.86
325.156
324.347
325.843
322.181
323.907
321.464
325.292
322.187
325.25
319.448
318.599
316.422
315.638
316.016
316.47
316.099
316.295
319.136
317.6
318.017
316.426
318.042
317.466
317.824
316.705
315.36
317.25
318.532
316.877
309.375
309.574
311.226
309.683
310.516
309.99
309.213
310.543
311.337
311.313
309.446
311.705
311.009
311.218
310.728
312.098
310.395
310.185
309.216
308.425
304.479
304.1
303.467
303.66
303.196
302.981
302.5
302.569
303.44
302.366
302.437
303.786
301.891
302.258
302.668
303.299
304.538
302.227
302.94
303.309
353.053
350.841
350.599
348.721
349.721
351.699
351.946
350.349
353.716
351.906
354.44
353.369
351.611
353.25
351.951
351.571
350.774
351.41
350.774
352.105
346.06
342.047
343.663
343.025
343.113
343.764
345.458
344.024
344.445
344.832
344.605
346.274
343.853
345.809
343.725
344.203
342.895
343.635
342.104
342.869
340.931
338.014
338.132
337.32
336.249
338.782
338.243
338.295
339.775
337.83
339.753
340.669
339.215
338.028
337.418
337.148
336.795
338.15
338.659
338.272
330.249
330.441
329.113
330.511
331.028
331.006
330.895
331.903
331.519
332.361
334.529
332.929
332.914
330.186
330.742
328.417
329.2
330.909
332.9
332.74
324.941
323.174
322.787
325.416
321.796
323.612
323.613
323.725
326.248
325.382
325.784
328.883
324.854
322.667
325.469
323.498
323.83
324.919
325.189
325.616
317.467
316.921
316.304
318.697
316.164
315.829
315.928
316.657
317.662
318.673
317.519
318.149
317.559
318.627
318.25
317.509
317.928
316.276
318.12
320.568
309.219
311.899
312.263
309.932
311.536
309.728
310.508
311.163
310.67
310.562
312.036
309.082
312.107
308.488
309.151
309.74
309.373
312.044
310.667
310.583
303.915
303.667
301.179
302.841
301.951
303.704
305.708
302.611
303.159
303.972
302.482
304.809
305.665
303.711
304.608
304.042
305.1
305.338
301.881
302.565
354.459
353.713
352.673
350.827
349.431
351.552
351.593
353.906
353.579
355.634
354.374
353.94
353.469
353.596
352.737
352.935
350.811
351.068
354.194
354.222
348.455
346.691
347.058
343.547
346.854
346.155
345.161
348.898
347.273
348.171
348.514
348.192
346.545
346.553
344.137
347.003
345.753
344.783
346.563
347.796
338.607
338.92
339.094
337.921
337.344
339.102
340.05
339.679
339.669
340.393
340.459
340.825
342.106
338.285
339.414
338.092
339.52
338.545
338.917
339.522
332.21
332.995
333.086
330.701
332.285
331.44
331.162
330.581
332.524
334.835
333.13
333.919
333.732
333.002
333.116
332.071
330.481
331.79
332.221
336.032
325.993
325.504
326.126
325.698
324.35
326.984
324.393
325.315
325.123
325.721
326.487
324.63
328.291
325.408
323.778
325.53
324.527
325.929
325.766
323.783
318.187
318.527
316.432
317.067
319.163
318.153
317.422
318.512
317.536
317.903
321.152
319.257
319.898
318.643
317.819
317.044
317.461
317.205
319.488
317.45
312.414
308.328
311.061
311.012
311.028
310.967
310.919
311.477
311.228
309.639
312.987
309.869
310.902
310.189
311.867
309.682
311.608
310.137
311.075
310.283
304.901
302.791
303.331
303.18
305.098
305.96
303.435
303.013
302.199
303.868
303.686
304.016
303.622
304.338
301.19
304.297
304.002
303.607
304.665
302.05
355.571
354.953
354.465
353.024
353.166
355.527
354.354
355.054
355.12
353.477
356.373
357.891
354.673
356.077
352.76
356.246
353.4
353.198
355.189
355.126
347.565
345.255
345.472
345.444
346.365
345.785
346.496
346.953
347.871
347.159
347.138
350.16
346.949
348.154
346.344
346.924
346.441
348.155
344.974
347.305
340.828
340.104
338.508
339.642
340.26
340.038
340.375
339.316
341.698
340.996
342.857
340.663
341.554
339.956
342.6
339.826
338.633
341.097
339.558
340.114
333.429
333.931
334.019
332.85
331.276
332.172
334.278
333.354
332.52
335.003
334.381
335.673
334.563
335.556
332.785
333.042
331.224
334.238
332.327
333.035
327.375
325.304
324.525
325.931
326.211
325.063
327.166
325.634
327.097
327.439
327.844
327.29
326.328
323.975
326.706
325.836
325.269
325.46
323.119
326.668
318.283
317.426
318.148
318.337
320.906
319.398
317.565
319.011
319.375
316.189
319.6
317.077
317.692
318.617
318.896
319.041
319.457
319.094
318.023
318.386
311.44
311.062
311.096
310.899
311.906
308.864
311.762
310.87
312.626
311.297
311.584
311.413
310.577
308.906
311.433
311.13
312.037
311.084
310.87
311.711
303.521
302.973
302.631
301.57
303.06
304.029
304.255
304.581
304.611
304.114
303.695
302.826
305.082
303.933
304.435
302.81
304.69
303.976
305.716
305.286
355.447
356.566
355.94
356.57
354.852
355.411
356.367
357.697
358.452
355.701
356.33
359.464
359.233
355.915
357.006
354.164
356.489
356.583
355.761
358.179
350.659
349.793
350.358
348.145
347.877
349.814
347.912
349.663
350.899
349.138
351.069
351.58
348.747
348.577
348.522
348.523
347.664
348.663
348.654
348.014
343.51
341.941
341.016
342.747
342.717
341.645
342.354
342.083
340.411
341.115
342.581
343.446
343.688
340.212
340.214
339.739
341.258
340.905
342.101
341.074
335.558
333.769
333.911
333.362
334.237
332.42
333.939
334.286
335.594
335.197
335.254
334.728
334.902
335.435
334.146
334.79
333.531
332.97
334.114
333.314
326.332
328.754
326.86
325.724
326.406
325.263
326.472
325.675
325.999
327.53
326.581
328.206
326.765
328.829
326.37
326.997
323.791
325.535
325.663
325.349
318.576
318.105
318.819
320.165
318.412
318.771
318.031
319.027
317.175
319.321
319.487
318.872
319.298
318.227
316.49
321.1
317.586
319.629
318.551
319.374
313.416
310.823
311.759
311.258
311.208
309.776
310.385
310.974
311.966
311.648
312.636
311.625
311.553
309.649
311.689
312.827
310.181
310.908
312.533
310.852
304.364
304.971
303.258
302.776
305.075
303.811
304.389
303.465
304.836
302.801
303.71
305.569
305.485
303.888
305.838
304.036
303.887
301.432
304.53
303.233
356.558
357.54
356.607
356.684
353.886
357.219
356.903
355.445
358.619
359.794
359.966
357.151
356.415
354.743
357.819
355.141
356.367
358.356
357.487
358.119
352.53
348.725
350.087
348.966
347.103
349.523
350.443
349.693
347.673
350.39
350.916
353.77
350.331
349.233
349.366
352.988
349.427
350.622
348.683
350.171
343.863
340.092
343.054
339.797
342.11
342.582
338.617
343.173
341.641
344.257
346.13
343.304
343.123
342.976
343.261
343.525
342.143
343.251
341.505
342.763
335.583
337.713
335.428
335.541
334.778
333.35
336.64
335.909
336.07
336.431
332.791
336.068
335.543
336.16
334.052
336.033
334.211
335.519
335.083
335.114
328.157
326.861
325.281
328.738
327.354
328.701
326.97
326.594
328.635
326.879
328.331
328.522
328.423
327.133
327.037
327.695
326.993
327.299
327.049
328.06
321.45
319.923
320.917
319.962
320.279
318.271
319.905
317.89
319.878
320.404
319.787
318.268
319.504
319.849
318.676
320.378
318.866
319.923
320.766
319.448
311.942
311.493
311.546
311.043
312.009
311.885
311.299
313.016
312.73
312.805
312.91
311.323
310.788
312.158
312.404
310.973
310.22
310.374
310.932
312.303
301.603
305.297
304.634
304.05
301.977
304.688
304.67
302.124
304.964
302.377
304.173
305.674
303.667
304.171
305.272
305.007
304.641
304.845
303.285
304.294
359.506
360.975
359.656
357.13
359.563
359.46
358.528
359.453
360.007
361.456
360.333
359.691
358.774
360.176
358.571
357.637
356.711
358.32
358.342
361.087
352.263
353.181
351.556
351.848
350.655
353.262
351.467
351.29
350.027
352.782
349.931
352.278
351.209
350.167
353.724
351.636
351.349
352.626
350.75
351.064
345.411
343.983
344.137
344.353
342.889
344.256
343.354
342.36
344.253
343.784
344.299
343.253
343.064
342.11
344.729
344.632
343.307
341.286
345.406
342.957
336.929
336.159
334.272
336.439
335.979
334.989
337.151
336.097
337.221
336.603
335.948
335.537
336.73
337.63
334.529
334.804
335.907
336.855
336.064
334.686
329.391
327.685
328.955
329.434
327.704
328.205
327.458
327.856
328.994
326.725
327.158
328.133
329.437
328.971
326.376
329.218
328.636
327.265
328.672
327.718
319.549
319.794
320.784
319.048
322.093
319.349
319.567
320.348
319.721
320.74
320.463
319.574
319.036
319.44
319.318
319.257
321.486
319.047
319.905
320.564
313.372
311.849
309.383
311.865
312.708
313.162
311.978
312.033
311.706
313.897
311.52
312.076
312.484
312.075
313.468
312.795
312.94
313.152
312.15
312.399
305.416
303.628
304.223
303.354
304.978
304.566
303.914
304.206
304.765
300.941
303.368
306.164
303.704
306.348
304.465
302.36
305.872
305.067
302.892
303.958
362.73
362.017
360.473
361.348
359.214
361.88
359.397
360.165
359.816
361.814
359.627
362.921
361.628
361.751
359.121
360.109
360.041
360.547
360.15
361.441
353.944
352.574
351.197
352.782
351.593
353.465
351.126
353.433
354.425
353.931
353.715
352.181
353.521
353.509
353.291
351.877
352.959
351.828
352.6
353.327
346.977
344.242
344.22
345.728
343.483
343.085
343.397
343.778
345.169
346.111
344.051
343.587
343.844
344.333
344.321
342.656
343.531
344.093
344.902
345.758
338.88
338.158
338.924
337.313
336.275
337.209
338.162
337.043
337.103
335.673
337.494
336.635
335.831
337.191
337.18
337.108
335.72
335.578
335.639
337.719
329.104
330.079
328.491
327.661
329.699
327.907
330.128
328.827
330.559
328.555
330.049
328.568
330.741
329.149
328.211
328.82
328.5
326.714
328.138
327.509
320.932
321.621
320.51
320.626
320.696
321.03
321.414
321.535
320.266
319.723
318.552
321.192
323.501
321.663
320.597
319.994
318.179
320.962
319.994
320.735
315.201
314.562
312.573
312.282
311.12
311.195
312.32
312.53
310.892
314.72
314.238
313.355
312.031
310.792
312.704
312.744
310.497
311.052
310.728
311.457
304.064
304.296
304.388
305.072
304.259
304.092
302.445
306.779
304.141
304.826
303.192
304.727
305.297
302.83
302.527
305.085
303.747
304.651
304.685
303.934
362.482
364.081
363.623
361.793
360.921
360.64
361.997
362.038
361.548
361.07
362.264
361.212
360.735
360.532
362.355
362.914
362.867
360.359
361.813
363.11
354.649
355.465
353.993
355.862
353.37
353.707
351.739
354.808
354.88
353.736
355.261
354.083
355.805
353.759
352.835
352.867
352.974
351.895
353.705
356.406
348.344
346.292
346.928
347.435
345.565
345.195
345.032
345.755
344.515
345.077
347.468
345.238
345.888
346.207
345.374
344.185
344.42
343.905
347.644
346.015
341.701
337.356
337.783
337.531
338.694
338.207
337.245
338.605
337.901
336.595
337.118
336.314
336.697
336.535
337.049
335.766
333.537
337.319
337.514
337.855
328.91
330.087
330.241
329.516
328.351
326.837
329.998
328.18
327.986
328.142
327.386
328.953
330.14
329.099
327.329
326.958
330.217
329.528
329.014
328.923
320.806
322.468
321.41
322.899
319.709
321.34
320.531
322.747
320.801
321.963
320.115
321.459
320.267
319.904
320.247
320.469
318.722
321.55
319.6
320.934
312.003
313.332
313.739
311.888
312.601
311.105
313.579
312.691
311.23
312.079
314.088
312.037
312.915
314.1
313.63
312.167
312.923
311.55
312.361
312.969
304.609
302.94
306.092
304.345
303.955
305.675
306.455
303.975
304.787
303.989
304.27
304.586
303.24
305.187
302.562
305.142
303.147
304.172
304.573
303.912
366.239
363.534
363.495
363.935
363.406
362.992
362.235
362.07
362.911
363.591
362.673
362.317
365.307
362.064
365.066
361.921
363.219
364.119
363.292
363.794
358.007
356.602
353.943
356.519
355.915
357.589
354.532
357.273
356.304
357.486
357.663
354.389
356.971
355.807
357.412
353.204
356.922
354.478
356.534
354.187
350.272
347.411
347.385
348.176
347.025
347.495
347.06
346.796
346.942
345.164
347.041
344.689
346.738
344.928
345.897
345.199
344.924
345.734
347.443
346.574
338.46
339.144
337.005
338.842
338.834
338.109
336.999
337.05
338.604
337.36
339.441
336.45
338.098
338.236
338.913
338.519
338.634
339.664
337.602
338.903
330.58
329.227
328.151
330.36
329.179
329.104
329.337
328.677
329.825
327.658
329.751
329.805
329.581
331.248
330.585
329.605
329.155
331.026
328.853
332.654
321.384
321.955
322.017
321.875
322.373
321.294
321.348
321.71
321.141
320.077
320.68
320.588
322.327
322.484
322.699
321.183
322.865
321.32
320.523
320.781
312.896
314.457
313.15
312.819
312.575
311.845
313.267
313.423
312.036
316.639
312.553
311.061
310.737
312.374
315.567
309.765
313.788
313.087
313.757
313.803
305.446
305.208
305.617
303.436
303.363
304.08
303.446
305.041
305.335
305.339
304.669
306.054
305.814
304.794
306.525
305.063
304.321
306.083
305.376
304.838
366.504
365.097
365.029
363.953
363.917
363.871
364.402
362.102
363.876
363.506
363.616
366.405
363.58
364.368
364.018
361.105
363.905
364.612
364.539
365.371
357.191
355.94
357.408
357.347
357.946
353.345
355.622
357.068
356.472
354.442
354.088
353.517
355.056
355.739
354.636
356.404
354.628
356.851
355.802
354.268
350.304
347.949
346.98
347.39
348.624
345.743
347.184
348.418
345.261
346.689
347.355
345.786
347.417
347.184
346.51
347.947
347.44
346.603
346.31
346.991
342.063
338.217
341.676
340.17
339.851
338.294
341.324
337.832
338.601
340.561
338.67
341.095
339.089
338.574
339.765
337.55
338.483
338.229
338.361
340.245
331.98
331.395
329.05
330.737
330.354
332.742
328.098
329.14
329.035
329.436
329.746
331.986
332.286
330.762
330.379
329.494
329.851
331.398
331.369
330.875
323.081
321.999
320.615
321.005
321.68
322.124
320.351
322.093
322.047
322.548
321.188
321.32
323.364
320.952
321.023
321.703
320.174
321.951
322.196
320.759
315.788
315.061
312.767
314.099
311.631
311.326
312.522
312.629
312.861
313.048
313.522
311.326
313.227
310.35
312.996
311.925
312.307
314.906
314.1
314.328
302.425
302.913
305.3
304.281
305.177
304.525
304.674
304.354
304.983
304.819
305.741
303.936
305.191
304.504
304.324
304.983
303.422
305.089
303.571
305.174
)
;

boundaryField
{
    hotSide
    {
        type            fixedGradient;
        gradient        nonuniform List<scalar> 
400
(
321.511
322.87
325.591
329.677
335.133
341.965
350.181
359.788
370.794
383.208
397.037
412.289
428.971
447.088
466.647
487.651
510.105
534.011
559.372
586.191
323.738
325.08
327.767
331.802
337.194
343.949
352.078
361.591
372.498
384.81
398.537
413.687
430.268
448.289
467.755
488.672
511.043
534.872
560.161
586.913
326.149
327.47
330.116
334.091
339.406
346.071
354.099
363.503
374.296
386.491
400.101
415.136
431.606
449.52
468.885
489.706
511.988
535.735
560.948
587.63
328.704
330
332.597
336.503
341.73
348.292
356.205
365.485
376.15
388.215
401.695
416.604
432.954
450.753
470.009
490.73
512.919
536.579
561.714
588.325
331.33
332.599
335.142
338.97
344.099
350.546
358.332
367.477
378.003
389.928
403.271
418.047
434.27
451.949
471.095
491.712
513.807
537.382
562.439
588.978
333.918
335.158
337.643
341.389
346.414
352.74
360.392
369.397
379.779
391.562
404.765
419.407
435.503
453.065
472.101
492.618
514.622
538.114
563.096
589.569
336.321
337.531
339.959
343.622
348.544
354.751
362.274
371.142
381.385
393.031
406.101
420.618
436.595
454.047
472.983
493.409
515.33
538.747
563.663
590.076
338.36
339.543
341.92
345.509
350.339
356.44
363.847
372.595
382.718
394.244
407.2
421.608
437.485
454.844
473.695
494.045
515.897
539.253
564.114
590.478
339.852
341.015
343.352
346.885
351.645
357.665
364.985
373.643
383.675
395.113
407.984
422.312
438.116
455.407
474.197
494.491
516.294
539.606
564.428
590.758
340.643
341.795
344.11
347.613
352.334
358.311
365.584
374.193
384.176
395.567
408.393
422.679
438.443
455.699
474.456
494.722
516.498
539.788
564.589
590.901
340.643
341.795
344.11
347.613
352.334
358.311
365.584
374.193
384.176
395.567
408.393
422.679
438.443
455.699
474.456
494.722
516.498
539.788
564.589
590.901
339.852
341.015
343.352
346.885
351.645
357.665
364.985
373.643
383.675
395.113
407.984
422.312
438.116
455.407
474.197
494.491
516.294
539.606
564.428
590.758
338.36
339.543
341.92
345.509
350.339
356.44
363.847
372.595
382.718
394.244
407.2
421.608
437.485
454.844
473.695
494.045
515.897
539.253
564.114
590.478
336.321
337.531
339.959
343.622
348.544
354.751
362.274
371.142
381.385
393.031
406.101
420.618
436.595
454.047
472.983
493.409
515.33
538.747
563.663
590.076
333.918
335.158
337.643
341.389
346.414
352.74
360.392
369.397
379.779
391.562
404.765
419.407
435.503
453.065
472.101
492.618
514.622
538.114
563.096
589.569
331.33
332.599
335.142
338.97
344.099
350.546
358.332
367.477
378.003
389.928
403.271
418.047
434.27
451.949
471.095
491.712
513.807
537.382
562.439
588.978
328.704
330
332.597
336.503
341.73
348.292
356.205
365.485
376.15
388.215
401.695
416.604
432.954
450.753
470.009
490.73
512.919
536.579
561.714
588.325
326.149
327.47
330.116
334.091
339.406
346.071
354.099
363.503
374.296
386.491
400.101
415.136
431.606
449.52
468.885
489.706
511.988
535.735
560.948
587.63
323.738
325.08
327.767
331.802
337.194
343.949
352.078
361.591
372.498
384.81
398.537
413.687
430.268
448.289
467.755
488.672
511.043
534.872
560.161
586.913
321.511
322.87
325.591
329.677
335.133
341.965
350.181
359.788
370.794
383.208
397.037
412.289
428.971
447.088
466.647
487.651
510.105
534.011
559.372
586.191
)
;
    }
    coldSide
    {
        type            mixed;
        refValue        uniform 300;
        refGradient     uniform 0;
        valueFraction   uniform 0.991591;
        source          uniform 0;
        value           nonuniform List<scalar> 
400
(
300.023
300.016
300.012
300.027
300.022
300.02
300.019
300.032
300.03
300.038
300.033
300.041
300.03
300.037
300.013
300.046
300.034
300.039
300.046
300.02
300.023
300.025
300.039
300.033
300.025
300.023
300.045
300.016
300.014
300.034
300.031
300.023
300.025
300.042
300.045
300.031
300.036