/*--------------------------------*- C++ -*----------------------------------*\
| =========                 |                                                 |
| \\      /  F ield         | OpenFOAM: The Open Source CFD Toolbox           |
|  \\    /   O peration     | Version:  2212                                  |
|   \\  /    A nd           | Website:  www.openfoam.com                      |
|    \\/     M anipulation  |                                                 |
\*---------------------------------------------------------------------------*/
FoamFile
{
    version     2.0;
    format      ascii;
    arch        "LSB;label=32;scalar=64";
    class       volScalarField;
    location    "./ITHACAoutput/true/9.4";
    object      trueState;
}
// * * * * * * * * * * * * * * * * * * * * * * * * * * * * * * * * * * * * * //

dimensions      [0 0 0 1 0 0 0];

internalField   nonuniform List<scalar> 
3200
(
340.186
340.675
341.299
341.979
342.679
343.367
344.001
344.537
344.927
345.133
345.133
344.927
344.537
344.001
343.367
342.679
341.979
341.299
340.675
340.186
334.94
335.353
335.891
336.48
337.086
337.68
338.229
338.692
339.029
339.207
339.207
339.029
338.692
338.229
337.68
337.086
336.48
335.891
335.353
334.94
329.646
329.989
330.443
330.94
331.452
331.954
332.417
332.808
333.092
333.242
333.242
333.092
332.808
332.417
331.954
331.452
330.94
330.443
329.989
329.646
324.313
324.589
324.959
325.365
325.784
326.195
326.573
326.892
327.124
327.246
327.246
327.124
326.892
326.573
326.195
325.784
325.365
324.959
324.589
324.313
318.948
319.161
319.447
319.763
320.088
320.407
320.701
320.949
321.129
321.224
321.224
321.129
320.949
320.701
320.407
320.088
319.763
319.447
319.161
318.948
313.559
313.709
313.913
314.139
314.371
314.599
314.809
314.986
315.114
315.182
315.182
315.114
314.986
314.809
314.599
314.371
314.139
313.913
313.709
313.559
308.152
308.241
308.364
308.499
308.639
308.775
308.901
309.007
309.084
309.125
309.125
309.084
309.007
308.901
308.775
308.639
308.499
308.364
308.241
308.152
302.734
302.764
302.805
302.85
302.897
302.943
302.985
303.02
303.046
303.06
303.06
303.046
303.02
302.985
302.943
302.897
302.85
302.805
302.764
302.734
340.327
340.812
341.43
342.104
342.797
343.477
344.104
344.633
345.018
345.222
345.222
345.018
344.633
344.104
343.477
342.797
342.104
341.43
340.812
340.327
335.061
335.472
336.005
336.588
337.188
337.776
338.319
338.776
339.108
339.284
339.284
339.108
338.776
338.319
337.776
337.188
336.588
336.005
335.472
335.061
329.749
330.09
330.539
331.032
331.539
332.036
332.494
332.879
333.16
333.308
333.308
333.16
332.879
332.494
332.036
331.539
331.032
330.539
330.09
329.749
324.398
324.672
325.038
325.441
325.855
326.261
326.635
326.95
327.179
327.3
327.3
327.179
326.95
326.635
326.261
325.855
325.441
325.038
324.672
324.398
319.014
319.225
319.509
319.822
320.144
320.46
320.75
320.995
321.173
321.266
321.266
321.173
320.995
320.75
320.46
320.144
319.822
319.509
319.225
319.014
313.606
313.755
313.958
314.181
314.411
314.636
314.844
315.018
315.145
315.212
315.212
315.145
315.018
314.844
314.636
314.411
314.181
313.958
313.755
313.606
308.18
308.269
308.39
308.524
308.663
308.798
308.922
309.027
309.103
309.143
309.143
309.103
309.027
308.922
308.798
308.663
308.524
308.39
308.269
308.18
302.743
302.773
302.814
302.859
302.905
302.95
302.992
303.027
303.053
303.066
303.066
303.053
303.027
302.992
302.95
302.905
302.859
302.814
302.773
302.743
340.608
341.085
341.693
342.354
343.034
343.699
344.312
344.828
345.203
345.401
345.401
345.203
344.828
344.312
343.699
343.034
342.354
341.693
341.085
340.608
335.306
335.71
336.234
336.806
337.394
337.97
338.499
338.945
339.269
339.441
339.441
339.269
338.945
338.499
337.97
337.394
336.806
336.234
335.71
335.306
329.956
330.292
330.733
331.217
331.714
332.2
332.647
333.024
333.297
333.442
333.442
333.297
333.024
332.647
332.2
331.714
331.217
330.733
330.292
329.956
324.568
324.837
325.198
325.593
325.999
326.396
326.762
327.069
327.292
327.41
327.41
327.292
327.069
326.762
326.396
325.999
325.593
325.198
324.837
324.568
319.147
319.354
319.633
319.94
320.256
320.565
320.849
321.087
321.261
321.352
321.352
321.261
321.087
320.849
320.565
320.256
319.94
319.633
319.354
319.147
313.701
313.847
314.046
314.266
314.491
314.712
314.914
315.085
315.208
315.274
315.274
315.208
315.085
314.914
314.712
314.491
314.266
314.046
313.847
313.701
308.237
308.324
308.444
308.575
308.711
308.843
308.965
309.067
309.141
309.18
309.18
309.141
309.067
308.965
308.843
308.711
308.575
308.444
308.324
308.237
302.762
302.792
302.832
302.876
302.921
302.965
303.006
303.04
303.065
303.078
303.078
303.065
303.04
303.006
302.965
302.921
302.876
302.832
302.792
302.762
341.031
341.497
342.09
342.733
343.392
344.036
344.628
345.125
345.487
345.677
345.677
345.487
345.125
344.628
344.036
343.392
342.733
342.09
341.497
341.031
335.673
336.068
336.579
337.136
337.706
338.263
338.775
339.205
339.517
339.682
339.682
339.517
339.205
338.775
338.263
337.706
337.136
336.579
336.068
335.673
330.268
330.595
331.026
331.496
331.979
332.449
332.882
333.245
333.508
333.647
333.647
333.508
333.245
332.882
332.449
331.979
331.496
331.026
330.595
330.268
324.823
325.086
325.438
325.822
326.216
326.601
326.954
327.251
327.466
327.579
327.579
327.466
327.251
326.954
326.601
326.216
325.822
325.438
325.086
324.823
319.346
319.548
319.82
320.119
320.425
320.724
320.999
321.229
321.396
321.484
321.484
321.396
321.229
320.999
320.724
320.425
320.119
319.82
319.548
319.346
313.843
313.986
314.18
314.394
314.612
314.826
315.022
315.186
315.305
315.368
315.368
315.305
315.186
315.022
314.826
314.612
314.394
314.18
313.986
313.843
308.322
308.408
308.524
308.652
308.784
308.912
309.029
309.128
309.2
309.237
309.237
309.2
309.128
309.029
308.912
308.784
308.652
308.524
308.408
308.322
302.791
302.819
302.859
302.901
302.945
302.988
303.028
303.061
303.085
303.097
303.097
303.085
303.061
303.028
302.988
302.945
302.901
302.859
302.819
302.791
341.598
342.049
342.623
343.243
343.876
344.494
345.059
345.533
345.877
346.058
346.058
345.877
345.533
345.059
344.494
343.876
343.243
342.623
342.049
341.598
336.165
336.548
337.042
337.579
338.127
338.662
339.151
339.561
339.858
340.014
340.014
339.858
339.561
339.151
338.662
338.127
337.579
337.042
336.548
336.165
330.685
331.002
331.419
331.873
332.336
332.788
333.201
333.547
333.798
333.93
333.93
333.798
333.547
333.201
332.788
332.336
331.873
331.419
331.002
330.685
325.165
325.42
325.76
326.131
326.51
326.879
327.216
327.499
327.704
327.812
327.812
327.704
327.499
327.216
326.879
326.51
326.131
325.76
325.42
325.165
319.612
319.808
320.071
320.359
320.654
320.941
321.203
321.423
321.582
321.666
321.666
321.582
321.423
321.203
320.941
320.654
320.359
320.071
319.808
319.612
314.033
314.172
314.36
314.566
314.776
314.981
315.168
315.325
315.439
315.498
315.498
315.439
315.325
315.168
314.981
314.776
314.566
314.36
314.172
314.033
308.437
308.52
308.632
308.756
308.882
309.005
309.118
309.212
309.28
309.316
309.316
309.28
309.212
309.118
309.005
308.882
308.756
308.632
308.52
308.437
302.829
302.857
302.895
302.936
302.978
303.02
303.057
303.089
303.112
303.124
303.124
303.112
303.089
303.057
303.02
302.978
302.936
302.895
302.857
302.829
342.309
342.744
343.294
343.887
344.491
345.077
345.612
346.059
346.383
346.553
346.553
346.383
346.059
345.612
345.077
344.491
343.887
343.294
342.744
342.309
336.783
337.151
337.626
338.139
338.662
339.169
339.632
340.019
340.299
340.446
340.446
340.299
340.019
339.632
339.169
338.662
338.139
337.626
337.151
336.783
331.209
331.515
331.914
332.348
332.79
333.219
333.61
333.937
334.173
334.297
334.297
334.173
333.937
333.61
333.219
332.79
332.348
331.914
331.515
331.209
325.594
325.84
326.166
326.521
326.882
327.233
327.552
327.819
328.012
328.113
328.113
328.012
327.819
327.552
327.233
326.882
326.521
326.166
325.84
325.594
319.946
320.135
320.388
320.664
320.945
321.217
321.465
321.673
321.823
321.901
321.901
321.823
321.673
321.465
321.217
320.945
320.664
320.388
320.135
319.946
314.273
314.406
314.587
314.783
314.984
315.179
315.356
315.504
315.611
315.667
315.667
315.611
315.504
315.356
315.179
314.984
314.783
314.587
314.406
314.273
308.581
308.66
308.768
308.887
309.007
309.124
309.23
309.319
309.384
309.417
309.417
309.384
309.319
309.23
309.124
309.007
308.887
308.768
308.66
308.581
302.878
302.904
302.94
302.98
303.02
303.06
303.095
303.125
303.147
303.158
303.158
303.147
303.125
303.095
303.06
303.02
302.98
302.94
302.904
302.878
343.168
343.583
344.108
344.671
345.241
345.793
346.295
346.713
347.014
347.172
347.172
347.014
346.713
346.295
345.793
345.241
344.671
344.108
343.583
343.168
337.529
337.881
338.333
338.821
339.315
339.792
340.226
340.588
340.849
340.985
340.985
340.849
340.588
340.226
339.792
339.315
338.821
338.333
337.881
337.529
331.842
332.133
332.515
332.926
333.344
333.748
334.115
334.42
334.64
334.756
334.756
334.64
334.42
334.115
333.748
333.344
332.926
332.515
332.133
331.842
326.113
326.348
326.658
326.995
327.337
327.667
327.967
328.216
328.396
328.49
328.49
328.396
328.216
327.967
327.667
327.337
326.995
326.658
326.348
326.113
320.35
320.531
320.772
321.033
321.299
321.555
321.789
321.983
322.122
322.196
322.196
322.122
321.983
321.789
321.555
321.299
321.033
320.772
320.531
320.35
314.561
314.689
314.861
315.048
315.238
315.421
315.587
315.726
315.826
315.878
315.878
315.826
315.726
315.587
315.421
315.238
315.048
314.861
314.689
314.561
308.754
308.83
308.933
309.046
309.16
309.27
309.37
309.453
309.513
309.544
309.544
309.513
309.453
309.37
309.27
309.16
309.046
308.933
308.83
308.754
302.936
302.961
302.996
303.033
303.072
303.108
303.142
303.17
303.19
303.2
303.2
303.19
303.17
303.142
303.108
303.072
303.033
302.996
302.961
302.936
344.176
344.571
345.067
345.598
346.133
346.648
347.114
347.502
347.78
347.926
347.926
347.78
347.502
347.114
346.648
346.133
345.598
345.067
344.571
344.176
338.405
338.739
339.167
339.626
340.09
340.536
340.94
341.275
341.516
341.642
341.642
341.516
341.275
340.94
340.536
340.09
339.626
339.167
338.739
338.405
332.584
332.861
333.222
333.61
334.002
334.379
334.721
335.004
335.207
335.314
335.314
335.207
335.004
334.721
334.379
334.002
333.61
333.222
332.861
332.584
326.721
326.944
327.239
327.556
327.877
328.185
328.464
328.695
328.862
328.949
328.949
328.862
328.695
328.464
328.185
327.877
327.556
327.239
326.944
326.721
320.824
320.996
321.224
321.47
321.72
321.959
322.176
322.356
322.485
322.553
322.553
322.485
322.356
322.176
321.959
321.72
321.47
321.224
320.996
320.824
314.901
315.022
315.184
315.361
315.539
315.71
315.865
315.993
316.086
316.134
316.134
316.086
315.993
315.865
315.71
315.539
315.361
315.184
315.022
314.901
308.958
309.03
309.128
309.234
309.341
309.444
309.537
309.614
309.669
309.698
309.698
309.669
309.614
309.537
309.444
309.341
309.234
309.128
309.03
308.958
303.004
303.028
303.061
303.096
303.132
303.167
303.198
303.224
303.242
303.252
303.252
303.242
303.224
303.198
303.167
303.132
303.096
303.061
303.028
303.004
345.336
345.709
346.176
346.672
347.171
347.649
348.079
348.435
348.69
348.824
348.824
348.69
348.435
348.079
347.649
347.171
346.672
346.176
345.709
345.336
339.412
339.728
340.131
340.561
340.993
341.407
341.779
342.087
342.308
342.424
342.424
342.308
342.087
341.779
341.407
340.993
340.561
340.131
339.728
339.412
333.438
333.7
334.04
334.403
334.769
335.118
335.433
335.694
335.881
335.978
335.978
335.881
335.694
335.433
335.118
334.769
334.403
334.04
333.7
333.438
327.421
327.632
327.909
328.206
328.505
328.791
329.049
329.262
329.414
329.494
329.494
329.414
329.262
329.049
328.791
328.505
328.206
327.909
327.632
327.421
321.37
321.531
321.746
321.977
322.21
322.432
322.632
322.798
322.917
322.978
322.978
322.917
322.798
322.632
322.432
322.21
321.977
321.746
321.531
321.37
315.291
315.405
315.558
315.723
315.889
316.048
316.191
316.31
316.394
316.439
316.439
316.394
316.31
316.191
316.048
315.889
315.723
315.558
315.405
315.291
309.192
309.261
309.353
309.452
309.551
309.647
309.733
309.804
309.855
309.881
309.881
309.855
309.804
309.733
309.647
309.551
309.452
309.353
309.261
309.192
303.083
303.106
303.136
303.17
303.203
303.235
303.264
303.288
303.305
303.313
303.313
303.305
303.288
303.264
303.235
303.203
303.17
303.136
303.106
303.083
346.649
347
347.437
347.899
348.361
348.801
349.196
349.521
349.753
349.875
349.875
349.753
349.521
349.196
348.801
348.361
347.899
347.437
347
346.649
340.554
340.85
341.227
341.628
342.028
342.409
342.751
343.032
343.233
343.338
343.338
343.233
343.032
342.751
342.409
342.028
341.628
341.227
340.85
340.554
334.406
334.652
334.969
335.308
335.647
335.969
336.258
336.496
336.666
336.755
336.755
336.666
336.496
336.258
335.969
335.647
335.308
334.969
334.652
334.406
328.214
328.412
328.671
328.948
329.225
329.489
329.725
329.92
330.059
330.132
330.132
330.059
329.92
329.725
329.489
329.225
328.948
328.671
328.412
328.214
321.987
322.139
322.34
322.555
322.771
322.976
323.16
323.311
323.419
323.476
323.476
323.419
323.311
323.16
322.976
322.771
322.555
322.34
322.139
321.987
315.733
315.84
315.983
316.137
316.291
316.438
316.569
316.677
316.754
316.794
316.794
316.754
316.677
316.569
316.438
316.291
316.137
315.983
315.84
315.733
309.458
309.522
309.608
309.7
309.793
309.881
309.96
310.025
310.071
310.095
310.095
310.071
310.025
309.96
309.881
309.793
309.7
309.608
309.522
309.458
303.172
303.193
303.222
303.253
303.284
303.313
303.34
303.362
303.377
303.385
303.385
303.377
303.362
303.34
303.313
303.284
303.253
303.222
303.193
303.172
348.119
348.447
348.854
349.282
349.708
350.111
350.471
350.766
350.976
351.086
351.086
350.976
350.766
350.471
350.111
349.708
349.282
348.854
348.447
348.119
341.83
342.108
342.459
342.83
343.198
343.548
343.86
344.115
344.298
344.392
344.392
344.298
344.115
343.86
343.548
343.198
342.83
342.459
342.108
341.83
335.488
335.719
336.014
336.328
336.64
336.935
337.199
337.416
337.57
337.65
337.65
337.57
337.416
337.199
336.935
336.64
336.328
336.014
335.719
335.488
329.102
329.287
329.528
329.784
330.04
330.282
330.497
330.674
330.8
330.866
330.866
330.8
330.674
330.497
330.282
330.04
329.784
329.528
329.287
329.102
322.679
322.821
323.008
323.207
323.406
323.594
323.762
323.899
323.997
324.048
324.048
323.997
323.899
323.762
323.594
323.406
323.207
323.008
322.821
322.679
316.227
316.328
316.461
316.603
316.745
316.88
317
317.098
317.168
317.204
317.204
317.168
317.098
317
316.88
316.745
316.603
316.461
316.328
316.227
309.755
309.815
309.895
309.981
310.066
310.147
310.219
310.278
310.32
310.342
310.342
310.32
310.278
310.219
310.147
310.066
309.981
309.895
309.815
309.755
303.271
303.291
303.318
303.347
303.376
303.403
303.427
303.447
303.461
303.468
303.468
303.461
303.447
303.427
303.403
303.376
303.347
303.318
303.291
303.271
349.747
350.052
350.429
350.824
351.214
351.582
351.909
352.176
352.366
352.464
352.464
352.366
352.176
351.909
351.582
351.214
350.824
350.429
350.052
349.747
343.244
343.503
343.828
344.17
344.508
344.827
345.11
345.341
345.506
345.591
345.591
345.506
345.341
345.11
344.827
344.508
344.17
343.828
343.503
343.244
336.687
336.902
337.176
337.465
337.751
338.021
338.26
338.456
338.595
338.667
338.667
338.595
338.456
338.26
338.021
337.751
337.465
337.176
336.902
336.687
330.084
330.257
330.48
330.717
330.951
331.172
331.368
331.528
331.641
331.7
331.7
331.641
331.528
331.368
331.172
330.951
330.717
330.48
330.257
330.084
323.444
323.576
323.75
323.934
324.116
324.287
324.44
324.564
324.653
324.699
324.699
324.653
324.564
324.44
324.287
324.116
323.934
323.75
323.576
323.444
316.775
316.868
316.992
317.123
317.253
317.376
317.485
317.574
317.637
317.67
317.67
317.637
317.574
317.485
317.376
317.253
317.123
316.992
316.868
316.775
310.084
310.14
310.214
310.293
310.371
310.445
310.511
310.564
310.602
310.622
310.622
310.602
310.564
310.511
310.445
310.371
310.293
310.214
310.14
310.084
303.382
303.4
303.425
303.452
303.478
303.503
303.525
303.542
303.555
303.562
303.562
303.555
303.542
303.525
303.503
303.478
303.452
303.425
303.4
303.382
351.534
351.817
352.165
352.528
352.885
353.219
353.514
353.755
353.925
354.013
354.013
353.925
353.755
353.514
353.219
352.885
352.528
352.165
351.817
351.534
344.797
345.036
345.337
345.651
345.96
346.25
346.506
346.714
346.861
346.938
346.938
346.861
346.714
346.506
346.25
345.96
345.651
345.337
345.036
344.797
338.003
338.202
338.455
338.721
338.983
339.228
339.444
339.621
339.745
339.81
339.81
339.745
339.621
339.444
339.228
338.983
338.721
338.455
338.202
338.003
331.163
331.323
331.529
331.747
331.961
332.161
332.339
332.483
332.585
332.638
332.638
332.585
332.483
332.339
332.161
331.961
331.747
331.529
331.323
331.163
324.284
324.407
324.567
324.736
324.903
325.059
325.197
325.309
325.388
325.429
325.429
325.388
325.309
325.197
325.059
324.903
324.736
324.567
324.407
324.284
317.375
317.462
317.576
317.697
317.816
317.928
318.026
318.107
318.163
318.193
318.193
318.163
318.107
318.026
317.928
317.816
317.697
317.576
317.462
317.375
310.446
310.497
310.566
310.638
310.71
310.777
310.836
310.884
310.918
310.936
310.936
310.918
310.884
310.836
310.777
310.71
310.638
310.566
310.497
310.446
303.503
303.52
303.543
303.567
303.591
303.614
303.634
303.65
303.661
303.667
303.667
303.661
303.65
303.634
303.614
303.591
303.567
303.543
303.52
303.503
353.48
353.742
354.062
354.395
354.719
355.022
355.288
355.504
355.657
355.735
355.735
355.657
355.504
355.288
355.022
354.719
354.395
354.062
353.742
353.48
346.487
346.708
346.985
347.273
347.554
347.817
348.048
348.235
348.367
348.435
348.435
348.367
348.235
348.048
347.817
347.554
347.273
346.985
346.708
346.487
339.436
339.62
339.853
340.096
340.335
340.557
340.752
340.911
341.022
341.08
341.08
341.022
340.911
340.752
340.557
340.335
340.096
339.853
339.62
339.436
332.337
332.485
332.675
332.874
333.069
333.251
333.411
333.54
333.632
333.679
333.679
333.632
333.54
333.411
333.251
333.069
332.874
332.675
332.485
332.337
325.199
325.312
325.46
325.614
325.766
325.908
326.032
326.133
326.204
326.241
326.241
326.204
326.133
326.032
325.908
325.766
325.614
325.46
325.312
325.199
318.03
318.11
318.215
318.326
318.434
318.535
318.624
318.696
318.747
318.773
318.773
318.747
318.696
318.624
318.535
318.434
318.326
318.215
318.11
318.03
310.839
310.887
310.95
311.016
311.081
311.142
311.195
311.239
311.269
311.285
311.285
311.269
311.239
311.195
311.142
311.081
311.016
310.95
310.887
310.839
303.635
303.651
303.672
303.694
303.716
303.736
303.754
303.769
303.779
303.784
303.784
303.779
303.769
303.754
303.736
303.716
303.694
303.672
303.651
303.635
355.583
355.824
356.118
356.422
356.717
356.99
357.23
357.423
357.559
357.63
357.63
357.559
357.423
357.23
356.99
356.717
356.422
356.118
355.824
355.583
348.312
348.517
348.771
349.033
349.289
349.526
349.734
349.902
350.02
350.081
350.081
350.02
349.902
349.734
349.526
349.289
349.033
348.771
348.517
348.312
340.983
341.153
341.367
341.589
341.805
342.006
342.182
342.324
342.424
342.475
342.475
342.424
342.324
342.182
342.006
341.805
341.589
341.367
341.153
340.983
333.605
333.741
333.915
334.097
334.274
334.439
334.583
334.699
334.781
334.823
334.823
334.781
334.699
334.583
334.439
334.274
334.097
333.915
333.741
333.605
326.186
326.29
326.426
326.567
326.705
326.833
326.945
327.035
327.099
327.132
327.132
327.099
327.035
326.945
326.833
326.705
326.567
326.426
326.29
326.186
318.735
318.809
318.906
319.007
319.106
319.197
319.277
319.342
319.387
319.411
319.411
319.387
319.342
319.277
319.197
319.106
319.007
318.906
318.809
318.735
311.263
311.307
311.365
311.426
311.485
311.54
311.588
311.627
311.654
311.668
311.668
311.654
311.627
311.588
311.54
311.485
311.426
311.365
311.307
311.263
303.777
303.792
303.811
303.831
303.851
303.87
303.886
303.899
303.908
303.913
303.913
303.908
303.899
303.886
303.87
303.851
303.831
303.811
303.792
303.777
357.832
358.055
358.324
358.601
358.868
359.115
359.33
359.503
359.625
359.687
359.687
359.625
359.503
359.33
359.115
358.868
358.601
358.324
358.055
357.832
350.264
350.452
350.685
350.924
351.156
351.37
351.557
351.707
351.812
351.867
351.867
351.812
351.707
351.557
351.37
351.156
350.924
350.685
350.452
350.264
342.636
342.792
342.988
343.191
343.387
343.568
343.727
343.854
343.943
343.989
343.989
343.943
343.854
343.727
343.568
343.387
343.191
342.988
342.792
342.636
334.958
335.083
335.243
335.409
335.57
335.718
335.848
335.952
336.025
336.062
336.062
336.025
335.952
335.848
335.718
335.57
335.409
335.243
335.083
334.958
327.239
327.335
327.459
327.588
327.713
327.829
327.93
328.011
328.067
328.097
328.097
328.067
328.011
327.93
327.829
327.713
327.588
327.459
327.335
327.239
319.488
319.556
319.645
319.737
319.826
319.909
319.981
320.039
320.079
320.1
320.1
320.079
320.039
319.981
319.909
319.826
319.737
319.645
319.556
319.488
311.715
311.756
311.809
311.864
311.918
311.968
312.011
312.046
312.07
312.083
312.083
312.07
312.046
312.011
311.968
311.918
311.864
311.809
311.756
311.715
303.929
303.942
303.96
303.979
303.997
304.013
304.028
304.039
304.047
304.052
304.052
304.047
304.039
304.028
304.013
303.997
303.979
303.96
303.942
303.929
360.204
360.408
360.655
360.907
361.149
361.372
361.565
361.72
361.829
361.884
361.884
361.829
361.72
361.565
361.372
361.149
360.907
360.655
360.408
360.204
352.318
352.491
352.704
352.922
353.132
353.325
353.493
353.628
353.722
353.77
353.77
353.722
353.628
353.493
353.325
353.132
352.922
352.704
352.491
352.318
344.372
344.516
344.695
344.88
345.058
345.222
345.364
345.478
345.557
345.598
345.598
345.557
345.478
345.364
345.222
345.058
344.88
344.695
344.516
344.372
336.377
336.493
336.639
336.79
336.936
337.07
337.187
337.28
337.345
337.378
337.378
337.345
337.28
337.187
337.07
336.936
336.79
336.639
336.493
336.377
328.342
328.431
328.545
328.662
328.776
328.88
328.971
329.043
329.094
329.12
329.12
329.094
329.043
328.971
328.88
328.776
328.662
328.545
328.431
328.342
320.276
320.339
320.42
320.504
320.585
320.66
320.725
320.776
320.813
320.831
320.831
320.813
320.776
320.725
320.66
320.585
320.504
320.42
320.339
320.276
312.188
312.226
312.274
312.325
312.374
312.418
312.457
312.488
312.51
312.521
312.521
312.51
312.488
312.457
312.418
312.374
312.325
312.274
312.226
312.188
304.087
304.1
304.116
304.133
304.149
304.164
304.177
304.188
304.195
304.199
304.199
304.195
304.188
304.177
304.164
304.149
304.133
304.116
304.1
304.087
362.635
362.823
363.049
363.279
363.499
363.7
363.874
364.013
364.11
364.16
364.16
364.11
364.013
363.874
363.7
363.499
363.279
363.049
362.823
362.635
354.413
354.572
354.767
354.966
355.158
355.332
355.483
355.604
355.688
355.732
355.732
355.688
355.604
355.483
355.332
355.158
354.966
354.767
354.572
354.413
346.136
346.268
346.433
346.602
346.764
346.912
347.04
347.142
347.213
347.25
347.25
347.213
347.142
347.04
346.912
346.764
346.602
346.433
346.268
346.136
337.814
337.921
338.055
338.193
338.326
338.447
338.552
338.636
338.694
338.724
338.724
338.694
338.636
338.552
338.447
338.326
338.193
338.055
337.921
337.814
329.456
329.538
329.642
329.749
329.853
329.947
330.029
330.094
330.14
330.163
330.163
330.14
330.094
330.029
329.947
329.853
329.749
329.642
329.538
329.456
321.07
321.128
321.202
321.279
321.353
321.42
321.479
321.525
321.558
321.575
321.575
321.558
321.525
321.479
321.42
321.353
321.279
321.202
321.128
321.07
312.664
312.698
312.743
312.789
312.834
312.874
312.909
312.937
312.957
312.967
312.967
312.957
312.937
312.909
312.874
312.834
312.789
312.743
312.698
312.664
304.246
304.258
304.273
304.288
304.303
304.317
304.329
304.338
304.345
304.348
304.348
304.345
304.338
304.329
304.317
304.303
304.288
304.273
304.258
304.246
364.966
365.139
365.348
365.559
365.761
365.944
366.102
366.228
366.315
366.36
366.36
366.315
366.228
366.102
365.944
365.761
365.559
365.348
365.139
364.966
356.398
356.545
356.725
356.908
357.083
357.243
357.38
357.49
357.566
357.605
357.605
357.566
357.49
357.38
357.243
357.083
356.908
356.725
356.545
356.398
347.789
347.911
348.064
348.219
348.368
348.503
348.62
348.712
348.777
348.81
348.81
348.777
348.712
348.62
348.503
348.368
348.219
348.064
347.911
347.789
339.149
339.247
339.371
339.499
339.62
339.731
339.827
339.903
339.956
339.983
339.983
339.956
339.903
339.827
339.731
339.62
339.499
339.371
339.247
339.149
330.482
330.558
330.655
330.754
330.849
330.935
331.01
331.069
331.11
331.132
331.132
331.11
331.069
331.01
330.935
330.849
330.754
330.655
330.558
330.482
321.797
321.851
321.92
321.991
322.058
322.12
322.174
322.216
322.246
322.261
322.261
322.246
322.216
322.174
322.12
322.058
321.991
321.92
321.851
321.797
313.098
313.13
313.172
313.214
313.255
313.292
313.324
313.35
313.368
313.377
313.377
313.368
313.35
313.324
313.292
313.255
313.214
313.172
313.13
313.098
304.392
304.402
304.416
304.43
304.444
304.457
304.467
304.476
304.482
304.485
304.485
304.482
304.476
304.467
304.457
304.444
304.43
304.416
304.402
304.392
366.785
366.949
367.145
367.343
367.531
367.702
367.849
367.966
368.047
368.089
368.089
368.047
367.966
367.849
367.702
367.531
367.343
367.145
366.949
366.785
357.888
358.027
358.197
358.37
358.534
358.683
358.812
358.913
358.984
359.021
359.021
358.984
358.913
358.812
358.683
358.534
358.37
358.197
358.027
357.888
348.993
349.108
349.252
349.399
349.539
349.666
349.775
349.861
349.922
349.953
349.953
349.922
349.861
349.775
349.666
349.539
349.399
349.252
349.108
348.993
340.096
340.19
340.307
340.428
340.543
340.647
340.737
340.808
340.858
340.883
340.883
340.858
340.808
340.737
340.647
340.543
340.428
340.307
340.19
340.096
331.198
331.27
331.361
331.455
331.545
331.626
331.696
331.752
331.791
331.811
331.811
331.791
331.752
331.696
331.626
331.545
331.455
331.361
331.27
331.198
322.297
322.348
322.414
322.481
322.545
322.603
322.654
322.694
322.721
322.735
322.735
322.721
322.694
322.654
322.603
322.545
322.481
322.414
322.348
322.297
313.394
313.425
313.464
313.505
313.543
313.578
313.609
313.633
313.649
313.658
313.658
313.649
313.633
313.609
313.578
313.543
313.505
313.464
313.425
313.394
304.49
304.5
304.513
304.527
304.54
304.552
304.562
304.57
304.576
304.578
304.578
304.576
304.57
304.562
304.552
304.54
304.527
304.513
304.5
304.49
)
;

boundaryField
{
    hotSide
    {
        type            fixedGradient;
        gradient        nonuniform List<scalar> 
400
(
415.418
416.883
419.819
424.236
430.149
437.574
446.534
457.05
469.147
482.848
498.175
515.15
533.793
554.121
576.149
599.891
625.359
652.559
681.501
712.19
421.848
423.263
426.099
430.37
436.096
443.3
452.011
462.256
474.067
487.473
502.504
519.184
537.538
557.587
579.348
602.837
628.066
655.044
683.779
714.276
428.807
430.161
432.878
436.977
442.482
449.426
457.844
467.775
479.256
492.326
507.019
523.367
541.4
561.14
582.609
605.823
630.795
657.535
686.05
716.345
436.18
437.463
440.042
443.94
449.191
455.836
463.921
473.495
484.606
497.3
511.621
527.606
545.289
564.698
585.854
608.778
633.48
659.973
688.261
718.35
443.76
444.963
447.386
451.06
456.028
462.342
470.061
479.245
489.954
502.245
516.169
531.77
549.088
568.152
588.988
611.614
636.045
662.289
690.351
720.236
451.231
452.349
454.606
458.041
462.708
468.673
476.008
484.787
495.082
506.96
520.481
535.696
552.648
571.371
591.892
614.229
638.397
664.403
692.251
721.942
458.166
459.199
461.29
464.488
468.857
474.479
481.438
489.823
499.718
511.201
524.338
539.189
555.8
574.207
594.438
616.511
640.44
666.231
693.886
723.405
464.052
465.008
466.95
469.934
474.038
479.353
485.98
494.018
503.563
514.702
527.509
542.048
558.368
576.507
596.494
618.347
642.077
667.69
695.187
724.566
468.359
469.256
471.084
473.906
477.807
482.89
489.265
497.043
506.326
517.21
529.772
544.081
560.188
578.132
597.942
619.635
643.223
668.709
696.093
725.372
470.641
471.507
473.273
476.005
479.797
484.754
490.994
498.631
507.774
518.52
530.952
545.139
561.133
578.974
598.691
620.3
643.813
669.233
696.559
725.785
470.641
471.507
473.273
476.005
479.797
484.754
490.994
498.631
507.774
518.52
530.952
545.139
561.133
578.974
598.691
620.3
643.813
669.233
696.559
725.785
468.359
469.256
471.084
473.906
477.807
482.89
489.265
497.043
506.326
517.21
529.772
544.081
560.188
578.132
597.942
619.635
643.223
668.709
696.093
725.372
464.052
465.008
466.95
469.934
474.038
479.353
485.98
494.018
503.563
514.702
527.509
542.048
558.368
576.507
596.494
618.347
642.077
667.69
695.187
724.566
458.166
459.199
461.29
464.488
468.857
474.479
481.438
489.823
499.718
511.201
524.338
539.189
555.8
574.207
594.438
616.511
640.44
666.231
693.886
723.405
451.231
452.349
454.606
458.041
462.708
468.673
476.008
484.787
495.082
506.96
520.481
535.696
552.648
571.371
591.892
614.229
638.397
664.403
692.251
721.942
443.76
444.963
447.386
451.06
456.028
462.342
470.061
479.245
489.954
502.245
516.169
531.77
549.088
568.152
588.988
611.614
636.045
662.289
690.351
720.236
436.18
437.463
440.042
443.94
449.191
455.836
463.921
473.495
484.606
497.3
511.621
527.606
545.289
564.698
585.854
608.778
633.48
659.973
688.261
718.35
428.807
430.161
432.878
436.977
442.482
449.426
457.844
467.775
479.256
492.326
507.019
523.367
541.4
561.14
582.609
605.823
630.795
657.535
686.05
716.345
421.848
423.263
426.099
430.37
436.096
443.3
452.011
462.256
474.067
487.473
502.504
519.184
537.538
557.587
579.348
602.837
628.066
655.044
683.779
714.276
415.418
416.883
419.819
424.236
430.149
437.574
446.534
457.05
469.147
482.848
498.175
515.15
533.793
554.121
576.149
599.891
625.359
652.559
681.501
712.19
)
;
    }
    coldSide
    {
        type            mixed;
        refValue        uniform 300;
        refGradient     uniform 0;
        valueFraction   uniform 0.991591;
        source          uniform 0;
        value           nonuniform List<scalar> 
400
(
300.023
300.023
300.023
300.023
300.024
300.024
300.025
300.025
300.026
300.027
300.028
300.028
300.029
300.031
300.032
300.033
300.034
300.036
300.037
300.038
300.023
300.023
300.023
300.024
300.024
300.024
300.025
300.025
300.026
300.027
300.028
300.029
300.03
300.031
300.032
300.033
300.034
300.036
300.037
300.038