/*--------------------------------*- C++ -*----------------------------------*\
| =========                 |                                                 |
| \\      /  F ield         | OpenFOAM: The Open Source CFD Toolbox           |
|  \\    /   O peration     | Version:  2212                                  |
|   \\  /    A nd           | Website:  www.openfoam.com                      |
|    \\/     M anipulation  |                                                 |
\*---------------------------------------------------------------------------*/
FoamFile
{
    version     2.0;
    format      ascii;
    arch        "LSB;label=32;scalar=64";
    class       volScalarField;
    location    "./ITHACAoutput/true/5.5";
    object      error;
}
// * * * * * * * * * * * * * * * * * * * * * * * * * * * * * * * * * * * * * //

dimensions      [0 0 0 1 0 0 0];

internalField   nonuniform List<scalar> 
3200
(
3.8129
3.58832
3.50044
3.46236
3.63125
3.93146
4.33295
4.64626
4.92489
5.13331
5.09104
5.09856
4.70841
4.35885
4.12965
3.80103
3.72838
3.66499
3.80239
4.03021
3.06512
2.83855
2.7416
2.87033
2.99038
3.24382
3.55082
3.79707
4.02889
4.24775
4.23888
4.26968
3.86591
3.68183
3.43163
3.12493
3.07389
2.99275
3.2128
3.35001
2.45021
2.2966
2.16101
2.24586
2.34845
2.59265
2.86106
3.11239
3.27831
3.46064
3.53745
3.43934
3.23935
3.02127
2.75725
2.59492
2.54954
2.54136
2.64815
2.79563
1.87907
1.74566
1.68732
1.73837
1.88375
1.97561
2.27443
2.39649
2.64546
2.81372
2.70515
2.73596
2.60226
2.38395
2.16165
2.11684
1.97613
2.05431
2.13677
2.22348
1.4933
1.31685
1.26525
1.31969
1.39911
1.5457
1.70883
1.85932
1.97457
2.13231
2.05318
2.03171
1.98004
1.79121
1.61112
1.58445
1.52227
1.49831
1.54141
1.66673
0.971421
0.946936
0.88536
0.951701
0.973518
1.01064
1.12449
1.25488
1.45925
1.42616
1.47748
1.415
1.2939
1.25388
1.14393
1.09938
1.08691
1.01085
1.15237
1.17998
0.517776
0.556061
0.464778
0.519779
0.554975
0.676091
0.723011
0.763003
0.813839
0.882856
0.784633
0.856719
0.812197
0.720342
0.779031
0.64865
0.627319
0.626677
0.629965
0.717277
0.215443
0.157411
0.20772
0.0666512
0.231752
0.228709
0.194128
0.276628
0.334876
0.235025
0.324865
0.242421
0.275455
0.25449
0.290273
0.193352
0.23103
0.268829
0.231867
0.230112
3.05037
2.7631
2.62905
2.65434
2.80685
3.06862
3.39652
3.70546
4.01845
4.23549
4.16943
4.05103
3.77434
3.52328
3.16874
2.93155
2.80542
2.82106
3.01338
3.24858
2.39779
2.1909
2.0673
2.04692
2.20192
2.46351
2.7198
3.09442
3.31264
3.51778
3.47754
3.39989
3.15884
2.91789
2.65493
2.4201
2.43245
2.44022
2.63049
2.77194
1.94734
1.75097
1.66973
1.71242
1.80037
1.99958
2.22884
2.43131
2.63712
2.79082
2.85238
2.77659
2.63692
2.40304
2.15877
2.01391
1.95062
1.98729
2.1462
2.3959
1.44553
1.39578
1.30253
1.24835
1.40954
1.56853
1.73635
1.97484
2.18039
2.25211
2.22631
2.18058
2.08088
1.87913
1.70021
1.56462
1.49112
1.55876
1.71493
1.8511
1.17125
1.03415
1.01894
0.957225
1.08523
1.1151
1.29541
1.47279
1.59637
1.66209
1.77197
1.67776
1.58408
1.37086
1.25923
1.1848
1.17462
1.20335
1.31065
1.36402
0.738547
0.700331
0.624882
0.657765
0.740439
0.809284
0.840889
0.978917
1.10566
1.19745
1.22098
1.16089
1.09764
0.997492
0.958165
0.932191
0.819474
0.802632
0.929935
0.994062
0.4944
0.383307
0.356487
0.324535
0.423144
0.501838
0.469515
0.622186
0.692478
0.651728
0.68262
0.665693
0.639015
0.579445
0.550907
0.518372
0.547216
0.521838
0.550349
0.601499
0.125721
0.134576
0.162365
0.107284
0.134249
0.125925
0.192006
0.254478
0.22403
0.202938
0.21235
0.269237
0.239545
0.206828
0.17549
0.153676
0.144161
0.133191
0.172507
0.212654
2.16368
1.80845
1.67646
1.52935
1.63079
1.89744
2.18505
2.56525
2.78439
2.90299
3.02261
2.8823
2.62649
2.29551
2.07423
1.82794
1.77678
1.87139
2.10956
2.42357
1.6762
1.40997
1.23583
1.28131
1.33813
1.52317
1.76455
2.06258
2.22648
2.42808
2.50512
2.37854
2.19288
1.92876
1.74257
1.54957
1.53853
1.60923
1.81506
2.02148
1.34158
1.10319
0.935014
0.987869
1.00438
1.11741
1.41096
1.62985
1.89137
1.96165
1.95727
1.94183
1.73849
1.56285
1.3745
1.24647
1.27749
1.38206
1.49209
1.69278
0.916048
0.838634
0.731335
0.674913
0.800927
0.930753
1.09349
1.26949
1.44604
1.56388
1.52758
1.50212
1.38835
1.25201
1.07117
0.957198
0.954916
1.08923
1.18441
1.40789
0.679366
0.61274
0.496503
0.470143
0.501365
0.682215
0.792604
1.04214
1.13213
1.1804
1.21513
1.14925
1.04632
0.945444
0.863253
0.771933
0.734966
0.801888
0.903221
1.08436
0.475636
0.342509
0.316357
0.284239
0.342198
0.480905
0.52027
0.651487
0.737206
0.780886
0.783261
0.807051
0.742273
0.689522
0.567574
0.542228
0.483027
0.532769
0.6875
0.757904
0.221949
0.238569
0.197605
0.16874
0.206201
0.302872
0.28379
0.366191
0.4668
0.53328
0.547289
0.438692
0.420284
0.357854
0.364524
0.322352
0.42937
0.344585
0.405487
0.376383
0.157414
0.0621525
0.0631642
0.0681656
0.0756006
0.0888763
0.100667
0.109048
0.128777
0.0916377
0.132904
0.194006
0.1473
0.119626
0.0729138
0.0650112
0.20192
0.109996
0.155491
0.220384
1.2913
0.952904
0.752918
0.604276
0.619875
0.869777
1.03019
1.33688
1.50865
1.62802
1.71459
1.63981
1.41174
1.21715
1.00684
0.845301
0.865862
0.960203
1.21574
1.60451
0.937586
0.707957
0.467884
0.318419
0.426456
0.596477
0.791648
1.0885
1.2815
1.33355
1.40805
1.34176
1.12252
1.03203
0.804265
0.726059
0.666103
0.780473
0.968584
1.29792
0.705026
0.472952
0.34978
0.228434
0.313879
0.458884
0.568477
0.80622
0.976667
1.01956
1.11169
1.01645
0.90412
0.749438
0.642975
0.503097
0.570744
0.662131
0.816067
1.07208
0.43376
0.293116
0.122518
0.123514
0.125256
0.300358
0.448061
0.568686
0.69386
0.814543
0.853841
0.868689
0.746804
0.558153
0.519879
0.393848
0.436093
0.534904
0.705577
0.902207
0.321868
0.239417
0.0847742
0.00871058
0.102249
0.140941
0.253497
0.42181
0.529514
0.609794
0.579555
0.59441
0.590439
0.481396
0.3593
0.278137
0.314963
0.38139
0.490015
0.723365
0.284701
0.113394
0.0433029
-0.00861058
0.022385
0.0727468
0.183309
0.30608
0.375742
0.374789
0.483273
0.41159
0.289594
0.317371
0.19998
0.177928
0.168214
0.279157
0.346383
0.468391
0.125243
0.0801092
0.00691161
0.00982247
-0.0344799
0.0485198
0.0770777
0.151509
0.186148
0.259816
0.28348
0.295831
0.189583
0.16546
0.0908204
0.0535473
0.110987
0.15257
0.164913
0.20067
0.0233617
-0.000334134
-0.00236005
0.0320389
-0.0377509
0.0466682
-0.0245842
0.0550918
0.0407589
0.0716461
0.10031
0.0151837
0.127008
0.033523
0.0157709
0.0582294
0.0246449
0.0132925
0.0660471
0.103955
0.626806
0.190436
-0.112653
-0.27797
-0.351716
-0.115664
0.0732429
0.25535
0.457984
0.513697
0.570377
0.586277
0.36152
0.185774
0.0577574
-0.0408217
0.0393309
0.16091
0.623686
1.00182
0.370708
0.0468579
-0.179663
-0.334093
-0.302441
-0.258274
-0.0753576
0.162701
0.357786
0.425562
0.444454
0.472187
0.240692
0.108699
0.00756797
-0.0867813
-0.0236461
0.124555
0.415018
0.849811
0.199211
-0.0798705
-0.230883
-0.340664
-0.36239
-0.272672
-0.184805
0.0287648
0.16457
0.234189
0.26778
0.352538
0.181343
-0.00825641
-0.115962
-0.153997
-0.125215
0.119815
0.420377
0.708256
0.115491
-0.096778
-0.252693
-0.3709
-0.306611
-0.340672
-0.136578
-0.0279674
0.101803
0.21804
0.161697
0.180875
0.109233
0.0395335
-0.0580111
-0.117596
-0.101681
0.0167072
0.220809
0.448222
0.00376012
-0.15612
-0.196297
-0.344837
-0.270345
-0.310313
-0.182903
-0.0647976
0.103861
0.118988
0.0878445
0.122962
0.0199121
-0.0513356
-0.0797576
-0.0866864
-0.144745
-0.00109515
0.124958
0.379516
-0.0348352
-0.052282
-0.181364
-0.273709
-0.240832
-0.195674
-0.129635
-0.049837
0.00188781
0.040885
0.0584432
0.0322077
0.0128455
0.00460959
-0.0642556
-0.12644
-0.0481738
0.0259634
0.102498
0.238563
0.036258
-0.0364373
-0.176096
-0.200323
-0.190331
-0.236581
-0.10309
-0.0374505
-0.00267244
-0.00100526
-0.0224871
-0.0458766
-0.0184075
-0.0583429
0.000218703
-0.0960211
-0.0558463
0.0124888
0.104523
0.136985
0.0307783
-0.116505
-0.116517
-0.0583757
-0.0404296
-0.0506402
-0.049882
-0.0640111
0.065699
-0.00677799
0.00475163
0.0195581
0.0158655
-0.0430902
0.0108179
0.0494292
-0.102349
0.00693715
-0.0344192
0.0709658
0.127098
-0.30344
-0.638493
-0.936785
-1.07952
-0.951456
-0.8455
-0.62414
-0.48838
-0.361296
-0.365148
-0.457875
-0.532146
-0.598028
-0.698877
-0.866535
-0.647743
-0.369178
-1.92923e-05
0.475608
0.023708
-0.368337
-0.764582
-0.902855
-0.905045
-0.982432
-0.814593
-0.700931
-0.525268
-0.450681
-0.34442
-0.425902
-0.478793
-0.658915
-0.687293
-0.748838
-0.563828
-0.32695
-0.0226739
0.377135
-0.124479
-0.447573
-0.700803
-0.840886
-0.970125
-0.911835
-0.803954
-0.663881
-0.521736
-0.504475
-0.476923
-0.454113
-0.488603
-0.564087
-0.653812
-0.668374
-0.555089
-0.397582
-0.0309615
0.263053
-0.117246
-0.489296
-0.665598
-0.745759
-0.823973
-0.807134
-0.728765
-0.619337
-0.436891
-0.437542
-0.389467
-0.361294
-0.422958
-0.467197
-0.624126
-0.488971
-0.497531
-0.328387
-0.0340483
0.161874
-0.158723
-0.468674
-0.587971
-0.630737
-0.659861
-0.647006
-0.595999
-0.530897
-0.404381
-0.352113
-0.336373
-0.298377
-0.406734
-0.422733
-0.418876
-0.381608
-0.401019
-0.271665
-0.0125167
0.13612
-0.181252
-0.272988
-0.418608
-0.429194
-0.513656
-0.494306
-0.472444
-0.338957
-0.332419
-0.285736
-0.215168
-0.340634
-0.30781
-0.269396
-0.340223
-0.273828
-0.252996
-0.144623
-0.0878302
0.0850489
-0.150261
-0.207342
-0.272068
-0.349024
-0.282771
-0.310126
-0.23341
-0.221503
-0.232834
-0.148165
-0.168494
-0.161709
-0.164008
-0.171096
-0.225201
-0.205738
-0.120875
-0.102677
-0.0794393
-0.0298478
-0.0455607
-0.127426
-0.093027
-0.0759463
-0.050986
-0.0738226
-0.0686166
-0.0805793
-0.0762353
-0.0582991
-0.040551
-0.0568577
-0.0751453
-0.00998767
-0.102466
-0.0844678
-0.086962
-0.0137227
0.0129042
-0.0224109
-0.121934
-0.651891
-1.0588
-1.38777
-1.50851
-1.56454
-1.49843
-1.37894
-1.27364
-1.17487
-1.16851
-1.15302
-1.25235
-1.25705
-1.32743
-1.3066
-1.0428
-0.761481
-0.332054
0.2479
-0.276432
-0.682591
-1.03859
-1.3387
-1.44046
-1.48062
-1.37074
-1.27342
-1.1968
-1.13861
-1.02543
-1.12578
-1.12778
-1.14531
-1.24749
-1.20533
-0.96596
-0.722418
-0.277521
0.13804
-0.365286
-0.686906
-0.928424
-1.16747
-1.36337
-1.34261
-1.24919
-1.23775
-1.10653
-0.981637
-0.984848
-1.02586
-1.02251
-1.09764
-1.12541
-1.02632
-0.872957
-0.583981
-0.25091
0.0881548
-0.304601
-0.604132
-0.846906
-1.03243
-1.13582
-1.21694
-1.07944
-0.990452
-0.931138
-0.909035
-0.869969
-0.938211
-0.897627
-0.981588
-0.891032
-0.888669
-0.694967
-0.530348
-0.196718
0.0695801
-0.24501
-0.553748
-0.721685
-0.857438
-0.995212
-1.01402
-0.883086
-0.859685
-0.803753
-0.708036
-0.668237
-0.73333
-0.67726
-0.774895
-0.800144
-0.649852
-0.587955
-0.398264
-0.165723
0.0225686
-0.2555
-0.391257
-0.536169
-0.61928
-0.66124
-0.686319
-0.663174
-0.659552
-0.540772
-0.535419
-0.484874
-0.500357
-0.507373
-0.611442
-0.511024
-0.513137
-0.380996
-0.318525
-0.165348
-0.0236442
-0.1324
-0.299598
-0.382216
-0.411406
-0.4024
-0.425322
-0.442733
-0.371981
-0.346406
-0.392692
-0.245167
-0.267539
-0.323301
-0.288673
-0.31069
-0.248899
-0.214749
-0.0704382
-0.0126848
0.0388841
-0.0686282
-0.152674
-0.0694621
-0.089009
-0.188688
-0.181192
-0.113794
-0.1069
-0.145453
-0.177891
-0.127168
-0.0684807
-0.0886788
-0.0993234
-0.0634917
-0.137806
-0.00356389
-0.0496839
0.0184594
-0.0764053
-0.149296
-0.69577
-1.17687
-1.60736
-1.85166
-1.95835
-1.89775
-1.8273
-1.80215
-1.76888
-1.60249
-1.74104
-1.74624
-1.77609
-1.73417
-1.5591
-1.30573
-0.871664
-0.321655
0.237166
-0.18223
-0.710775
-1.27101
-1.53004
-1.61854
-1.85396
-1.81168
-1.75133
-1.7105
-1.60765
-1.52679
-1.54347
-1.58344
-1.6038
-1.50582
-1.42015
-1.17921
-0.772859
-0.318801
0.147843
-0.335549
-0.742981
-1.09826
-1.42418
-1.58705
-1.63486
-1.55423
-1.56723
-1.51544
-1.4819
-1.37337
-1.33246
-1.42199
-1.39005
-1.35953
-1.22496
-1.03743
-0.654563
-0.293835
0.0391157
-0.349596
-0.691925
-0.941662
-1.1715
-1.33788
-1.38099
-1.37425
-1.33845
-1.2606
-1.25433
-1.21413
-1.19713
-1.18562
-1.16321
-1.07876
-0.977272
-0.889343
-0.562629
-0.245123
0.0287877
-0.410409
-0.578182
-0.793869
-1.00788
-1.10198
-1.08148
-1.16372
-1.12244
-1.03173
-0.983533
-1.01959
-0.930869
-0.95945
-0.93602
-0.90446
-0.788365
-0.606565
-0.455808
-0.193526
0.0279121
-0.269684
-0.423751
-0.560526
-0.691919
-0.843895
-0.894652
-0.79618
-0.841441
-0.804419
-0.713093
-0.667769
-0.732193
-0.729191
-0.694319
-0.636187
-0.635344
-0.466763
-0.390774
-0.175296
0.0387113
-0.154085
-0.261289
-0.340491
-0.43159
-0.443039
-0.495769
-0.483941
-0.50532
-0.472442
-0.506128
-0.37857
-0.480156
-0.370142
-0.410715
-0.372438
-0.357725
-0.297122
-0.246422
-0.0683505
0.0158694
-0.0226891
-0.063082
-0.148552
-0.152131
-0.192472
-0.16684
-0.135985
-0.186274
-0.157357
-0.0872901
-0.119172
-0.141871
-0.105605
-0.121162
-0.118776
-0.180632
-0.129526
-0.0619115
-0.082194
-0.0543166
0.0390757
-0.512498
-1.0818
-1.63778
-1.90766
-2.06967
-2.16934
-2.13007
-2.09416
-2.0755
-1.99239
-2.00544
-2.10857
-1.99084
-1.80981
-1.61028
-1.31774
-0.808145
-0.124682
0.50593
-0.0851238
-0.581217
-1.12405
-1.54294
-1.81728
-1.91173
-1.98477
-1.95348
-1.8969
-1.84962
-1.8458
-1.8337
-1.78676
-1.73773
-1.66499
-1.46736
-1.2045
-0.653134
-0.173393
0.382178
-0.178609
-0.714142
-1.08089
-1.29085
-1.5928
-1.70971
-1.82999
-1.7151
-1.67788
-1.66553
-1.6364
-1.58378
-1.52963
-1.49596
-1.49306
-1.24334
-0.951448
-0.543678
-0.112471
0.24908
-0.272094
-0.54358
-0.880848
-1.16697
-1.36217
-1.40622
-1.52007
-1.47051
-1.48422
-1.42565
-1.43115
-1.37554
-1.35565
-1.24597
-1.14826
-1.04459
-0.78665
-0.522326
-0.185077
0.232263
-0.236497
-0.430306
-0.754733
-1.01599
-1.06405
-1.19358
-1.25478
-1.20631
-1.14826
-1.19633
-1.05388
-1.10324
-1.06228
-1.01371
-0.942762
-0.852993
-0.661857
-0.445303
-0.130074
0.173513
-0.221165
-0.277261
-0.633873
-0.713635
-0.816944
-0.882483
-0.840375
-0.877
-0.848169
-0.844981
-0.805831
-0.793106
-0.745603
-0.760783
-0.663794
-0.648838
-0.456907
-0.360149
-0.145108
0.0653726
-0.114066
-0.225112
-0.363141
-0.475143
-0.509228
-0.574925
-0.534677
-0.517236
-0.569959
-0.455631
-0.462003
-0.47068
-0.444282
-0.439754
-0.448467
-0.355427
-0.317561
-0.25165
-0.0427936
0.0805991
-0.0685128
-0.0890391
-0.156789
-0.161354
-0.227501
-0.178901
-0.194703
-0.180656
-0.21158
-0.178214
-0.122606
-0.168814
-0.223579
-0.145454
-0.0896982
-0.128092
-0.0810958
-0.102034
-0.0112237
-0.0142403
0.556257
-0.244936
-0.805035
-1.34958
-1.68302
-1.98956
-2.03884
-2.18737
-2.15956
-2.08802
-2.14497
-2.0806
-2.05467
-1.89226
-1.67961
-1.48449
-0.974202
-0.393352
0.308821
0.994569
0.303623
-0.328081
-0.810167
-1.30158
-1.65289
-1.83405
-1.95363
-1.96143
-2.01644
-1.92632
-1.89474
-1.81274
-1.81197
-1.71368
-1.53106
-1.26445
-0.874862
-0.31296
0.251692
0.763158
0.206831
-0.430738
-0.800933
-1.18459
-1.49825
-1.59032
-1.72869
-1.74253
-1.73342
-1.72659
-1.64831
-1.69397
-1.60933
-1.47787
-1.25307
-1.13834
-0.917826
-0.453411
0.0795852
0.591701
0.0537616
-0.23009
-0.747235
-1.10177
-1.26979
-1.39463
-1.48278
-1.49127
-1.46384
-1.34335
-1.48796
-1.40627
-1.32233
-1.22977
-1.10307
-0.943174
-0.676213
-0.257528
0.17339
0.463862
-0.0910027
-0.384465
-0.646361
-0.926965
-1.00722
-1.07802
-1.18424
-1.14987
-1.12101
-1.17343
-1.17301
-1.0451
-1.04613
-0.932984
-0.938008
-0.781323
-0.56218
-0.22991
0.10129
0.378698
-0.105478
-0.182721
-0.455529
-0.577139
-0.756156
-0.799223
-0.83563
-0.881258
-0.836216
-0.76932
-0.822153
-0.772347
-0.739749
-0.734668
-0.599061
-0.53841
-0.28833
-0.0922031
0.0008154
0.278415
-0.00698348
-0.139803
-0.303456
-0.390011
-0.473545
-0.542651
-0.470499
-0.559003
-0.492792
-0.457881
-0.53001
-0.503522
-0.475664
-0.337539
-0.332157
-0.333192
-0.212404
-0.100707
0.0583375
0.196387
-0.0107221
-0.0604155
-0.0262858
-0.157369
-0.236728
-0.225263
-0.183988
-0.164057
-0.235209
-0.236033
-0.204313
-0.128614
-0.194526
-0.144709
-0.0711626
-0.125814
-0.0383249
0.00314445
0.0242761
0.0557409
1.23639
0.5466
-0.217703
-0.79165
-1.25246
-1.56294
-1.8178
-1.90256
-1.92412
-1.9104
-1.87709
-1.89769
-1.67406
-1.60162
-1.2941
-0.96121
-0.438125
0.273275
0.965813
1.73174
0.938104
0.288832
-0.221624
-0.866021
-1.2636
-1.53764
-1.74068
-1.77765
-1.74678
-1.80394
-1.75968
-1.69882
-1.5503
-1.38568
-1.23146
-0.842072
-0.453428
0.11022
0.805873
1.38914
0.708855
0.133104
-0.347399
-0.803911
-1.07761
-1.27443
-1.44957
-1.53056
-1.51226
-1.54113
-1.51848
-1.45483
-1.3462
-1.23385
-0.975731
-0.788522
-0.364869
0.134735
0.662035
1.15224
0.447704
0.102313
-0.339611
-0.753729
-0.989851
-1.13739
-1.21963
-1.31774
-1.38114
-1.29317
-1.22479
-1.24005
-1.181
-1.05649
-0.88701
-0.69671
-0.335251
0.0700289
0.499896
0.894289
0.271983
0.0113138
-0.336269
-0.618708
-0.803434
-0.886082
-0.99802
-1.07664
-1.06702
-1.02251
-1.00617
-1.01628
-0.917166
-0.834105
-0.656944
-0.524703
-0.294817
-0.0229395
0.363079
0.71544
0.221965
-0.0106437
-0.250245
-0.465736
-0.614814
-0.676031
-0.710726
-0.808148
-0.792411
-0.808106
-0.78788
-0.69933
-0.699995
-0.51073
-0.570602
-0.378551
-0.16283
0.0383669
0.28423
0.540401
0.125255
-0.0347412
-0.164778
-0.273476
-0.348594
-0.341107
-0.431131
-0.469911
-0.463752
-0.441343
-0.475471
-0.442445
-0.479827
-0.352402
-0.247688
-0.234609
-0.137297
-0.00451675
0.102488
0.246839
0.0179184
-0.0217846
-0.0155734
-0.173807
-0.134353
-0.0304506
-0.159561
-0.151849
-0.166173
-0.161782
-0.141623
-0.17912
-0.145426
-0.146028
-0.110233
-0.0748671
-0.0620758
0.00515359
0.0778662
0.100265
2.3058
1.52712
0.731281
-0.0179565
-0.576686
-0.968516
-1.16498
-1.31784
-1.41741
-1.45015
-1.37829
-1.3851
-1.14914
-1.0157
-0.644402
-0.157161
0.398768
1.10314
1.91085
2.75839
1.7899
1.08258
0.43804
-0.173502
-0.597438
-0.931924
-1.16633
-1.23184
-1.36624
-1.38806
-1.37847
-1.20076
-1.06624
-0.856668
-0.566878
-0.215197
0.323686
0.886832
1.54511
2.26315
1.41473
0.897931
0.250621
-0.195278
-0.616226
-0.858546
-1.06606
-1.11321
-1.21961
-1.2241
-1.1507
-1.07941
-1.00747
-0.798564
-0.543834
-0.195445
0.177656
0.749294
1.27998
1.95333
1.12609
0.634424
0.204453
-0.234807
-0.545105
-0.808039
-0.886141
-0.982579
-1.10712
-1.02269
-0.999395
-0.976233
-0.843415
-0.711455
-0.489612
-0.184673
0.136968
0.606761
1.08333
1.53756
0.723604
0.428004
-0.00553026
-0.225036
-0.476903
-0.634387
-0.721795
-0.749565
-0.819635
-0.873086
-0.777191
-0.760222
-0.703176
-0.588963
-0.400191
-0.160819
0.0885509
0.4626
0.799723
1.19051
0.516138
0.245218
0.0464927
-0.183969
-0.375486
-0.455504
-0.583043
-0.589698
-0.61373
-0.571164
-0.642828
-0.574078
-0.478674
-0.386938
-0.236755
-0.11719
0.082646
0.328653
0.564441
0.829879
0.285592
0.137772
0.0782264
-0.117456
-0.188866
-0.21976
-0.326767
-0.333997
-0.33972
-0.386057
-0.364152
-0.34711
-0.297403
-0.189952
-0.114261
-0.063628
0.0518073
0.196062
0.393057
0.540928
0.122776
0.00319878
0.00954907
-0.0151725
-0.0201604
-0.157218
-0.140158
-0.103644
-0.102292
-0.14107
-0.126727
-0.0947705
-0.0733921
-0.125089
-0.0126155
-0.0189421
0.0154807
0.15968
0.103362
0.1147
3.51755
2.71271
1.79693
1.11054
0.491188
0.0785275
-0.285459
-0.440947
-0.580166
-0.570086
-0.586338
-0.488592
-0.294034
-0.0214039
0.310712
0.948559
1.49374
2.28621
3.16897
4.00572
2.85062
2.23138
1.4128
0.844345
0.319109
-0.0627001
-0.291179
-0.518059
-0.592578
-0.596885
-0.616984
-0.46811
-0.343525
-0.0701837
0.254947
0.689904
1.2355
1.90864
2.72062
3.41059
2.33861
1.76228
1.0801
0.639
0.176406
-0.162668
-0.326344
-0.575016
-0.602388
-0.572703
-0.594439
-0.375611
-0.397706
-0.0350183
0.254428
0.542104
0.994657
1.61742
2.26919
2.8702
1.84721
1.36272
0.823953
0.415521
0.0799207
-0.144488
-0.464143
-0.488808
-0.544775
-0.564371
-0.52248
-0.447518
-0.308719
-0.115735
0.0738662
0.438686
0.809111
1.30308
1.85064
2.2716
1.34635
1.03725
0.607761
0.244933
-0.0414216
-0.172021
-0.34341
-0.476126
-0.500545
-0.421088
-0.477434
-0.339324
-0.307779
-0.158255
0.0366536
0.312758
0.689289
0.97228
1.45655
1.79295
0.983902
0.682025
0.412154
0.175542
-0.0782815
-0.147429
-0.275865
-0.302326
-0.302689
-0.340731
-0.267866
-0.282459
-0.20585
-0.0859566
0.011051
0.211839
0.450247
0.726785
1.02914
1.26154
0.534625
0.445571
0.240395
0.0929639
-0.0348489
-0.0461311
-0.127698
-0.175087
-0.198865
-0.286393
-0.225967
-0.152385
-0.0633665
-0.057899
0.0360307
0.0517528
0.315232
0.453769
0.632406
0.728082
0.182801
0.10914
0.0411122
0.0443703
-0.0536854
-0.0151989
0.0302252
-0.0436226
-0.0597709
-0.091796
-0.0784097
-0.0616023
-0.102263
-0.0496615
-0.0309927
0.0640393
0.0474748
0.121313
0.201238
0.235168
5.02734
4.22179
3.27383
2.50682
1.80201
1.29406
0.97417
0.617251
0.589841
0.520544
0.475544
0.646532
0.891208
1.16523
1.6737
2.28128
2.90116
3.77676
4.69869
5.5358
4.1989
3.57048
2.70789
2.00046
1.44013
1.01658
0.678731
0.44325
0.378339
0.335791
0.35631
0.550414
0.716545
1.0153
1.34263
1.82995
2.48512
3.24318
4.03821
4.7285
3.37435
2.82227
2.18594
1.57201
1.19979
0.760964
0.552248
0.333559
0.290845
0.0866156
0.286601
0.375691
0.518943
0.764973
1.10488
1.44939
2.11481
2.74002
3.36554
3.98601
2.75694
2.23108
1.68972
1.17742
0.785214
0.585999
0.386783
0.189167
0.118734
0.210364
0.168435
0.287642
0.380272
0.674232
0.812894
1.22869
1.60706
2.16561
2.7831
3.22055
2.07133
1.6731
1.27067
0.97859
0.657753
0.42053
0.208226
0.162928
0.0773465
0.0555314
0.0282865
0.206975
0.30938
0.426426
0.701502
0.942217
1.2987
1.65362
2.09214
2.56091
1.35856
1.21563
0.921497
0.62256
0.438617
0.244825
0.138782
0.0516151
0.0798243
0.0482553
0.0189535
0.140193
0.172496
0.368544
0.465388
0.612934
0.881033
1.20478
1.44926
1.74025
0.862543
0.719961
0.57365
0.383372
0.302657
0.136215
0.113959
0.02054
0.00949472
-0.0192837
0.00307807
0.0979163
0.0947181
0.166963
0.234307
0.374859
0.501127
0.657967
0.880238
1.05377
0.33794
0.260393
0.170754
0.144338
0.00249766
0.0751243
0.00505433
-0.0250192
0.00810923
-0.0764618
0.0380771
0.0414653
0.0760914
0.0912068
0.0777773
0.113761
0.211818
0.261282
0.334739
0.318012
6.86781
6.04775
5.01961
4.10298
3.48012
2.82511
2.52024
2.20962
1.93331
1.8956
2.01527
2.12369
2.36037
2.70582
3.17478
3.76181
4.50559
5.48086
6.47814
7.34688
5.80397
5.00402
4.15798
3.48836
2.83314
2.42418
2.03355
1.78913
1.62794
1.52236
1.65162
1.73246
1.94748
2.31931
2.71655
3.24211
3.92816
4.70814
5.60064
6.40125
4.69577
4.15727
3.44447
2.80339
2.24193
1.91463
1.63971
1.41075
1.31079
1.22603
1.29616
1.46364
1.58985
1.94466
2.26492
2.79673
3.26259
3.99855
4.68758
5.35787
3.91243
3.2786
2.69553
2.27428
1.76398
1.52331
1.27582
1.15625
1.00522
0.906068
1.02551
1.12409
1.37378
1.54074
1.77769
2.25601
2.6486
3.24906
3.76541
4.28307
2.87334
2.51082
2.11763
1.72431
1.35416
1.12926
0.932592
0.850008
0.762703
0.795143
0.741896
0.847345
1.02071
1.16443
1.38989
1.67046
2.08951
2.50586
2.97171
3.41717
2.03303
1.7701
1.45035
1.18715
0.987359
0.727046
0.598709
0.618709
0.524382
0.515262
0.522231
0.510354
0.727599
0.834217
1.04102
1.18913
1.40346
1.83357
2.09805
2.36289
1.23379
1.05022
0.827359
0.729312
0.610024
0.481567
0.422526
0.269163
0.292503
0.314702
0.3257
0.369538
0.429708
0.47182
0.574008
0.743656
0.874899
1.03391
1.23122
1.42011
0.482184
0.35553
0.298244
0.238542
0.123362
0.14852
0.134708
0.170265
0.0504567
0.173757
0.0288186
0.15746
0.131202
0.141141
0.207291
0.276835
0.299062
0.387427
0.405687
0.492745
9.02293
8.01974
7.0659
6.05906
5.36456
4.72009
4.30933
3.8765
3.70874
3.69348
3.70739
3.84929
4.10805
4.54568
5.06467
5.71965
6.51511
7.52827
8.58205
9.55806
7.61164
6.8195
5.89566
5.11395
4.51654
4.03633
3.64139
3.37187
3.1895
3.14375
3.15918
3.29728
3.49042
3.79359
4.35221
4.85513
5.60437
6.39194
7.40543
8.13871
6.32775
5.60129
4.87908
4.26412
3.7387
3.30285
2.95762
2.74943
2.58292
2.54182
2.57119
2.69647
2.96657
3.25473
3.6302
4.07014
4.72683
5.44333
6.2018
6.87591
5.11574
4.49682
4.00761
3.42867
2.90377
2.63877
2.30759
2.10039
2.07011
2.07623
2.09657
2.20144
2.31909
2.57848
2.9429
3.34419
3.85616
4.44898
5.07653
5.62595
3.86209
3.50021
2.96478
2.65493
2.34272
1.99455
1.8568
1.68331
1.55915
1.56157
1.54821
1.71493
1.80193
1.94411
2.24916
2.62501
2.92876
3.45704
3.93379
4.38491
2.75697
2.45188
2.10785
1.8317
1.5684
1.44467
1.22992
1.17507
1.1155
1.10577
1.15931
1.09846
1.24593
1.40962
1.5975
1.8254
2.07819
2.45428
2.82705
3.04358
1.60422
1.43847
1.25632
1.11706
0.936676
0.901584
0.800503
0.660569
0.614299
0.654781
0.721831
0.770076
0.725892
0.849412
0.929151
1.04468
1.30151
1.45523
1.63812
1.84104
0.541054
0.498485
0.480338
0.455327
0.326548
0.232508
0.189625
0.209009
0.291096
0.17967
0.237777
0.256302
0.191034
0.268764
0.284245
0.394419
0.396771
0.444272
0.600212
0.540823
11.3731
10.3142
9.21848
8.28526
7.48229
6.90301
6.37631
6.146
5.75902
5.72881
5.77488
5.91265
6.26136
6.65274
7.22187
7.90641
8.79579
9.83087
10.8825
11.909
9.63737
8.8268
7.88205
7.02575
6.37002
5.77965
5.3473
5.11674
4.89018
4.84978
4.83594
5.09722
5.27073
5.65769
6.1478
6.79732
7.51898
8.45536
9.34357
10.2342
8.0035
7.26031
6.6101
5.83089
5.26123
4.7768
4.38826
4.1838
4.10736
4.04846
4.05633
4.2819
4.45068
4.6914
5.13155
5.69792
6.31526
7.11205
7.89781
8.59016
6.53176
5.93538
5.2722
4.77005
4.24851
3.87164
3.60991
3.45221
3.2689
3.27625
3.32869
3.41777
3.61407
3.89159
4.19412
4.65198
5.13589
5.79947
6.40466
6.98903
4.92969
4.56598
4.06165
3.62402
3.25315
2.91361
2.71685
2.57358
2.47785
2.49313
2.48617
2.64509
2.79024
2.98824
3.21986
3.57461
3.99354
4.50296
4.94667
5.34305
3.51445
3.23782
2.89031
2.56037
2.36422
2.08447
1.93732
1.85828
1.79156
1.78678
1.77697
1.85964
1.94878
2.16436
2.28941
2.50669
2.82253
3.15931
3.51616
3.87757
2.02494
1.9547
1.70898
1.49728
1.40156
1.27945
1.19026
1.1035
1.06611
1.00068
1.04228
1.06741
1.13258
1.27693
1.39551
1.51493
1.66691
1.88625
2.17247
2.39701
0.683109
0.675559
0.597488
0.488765
0.505658
0.407505
0.359969
0.359092
0.38753
0.326298
0.317647
0.347416
0.385335
0.430707
0.424316
0.499676
0.548215
0.683694
0.708447
0.782688
13.9101
12.7939
11.7606
10.7177
9.8922
9.22467
8.67583
8.34563
8.17636
7.9859
7.93706
8.25715
8.49665
8.97186
9.5022
10.2417
11.1826
12.2502
13.4132
14.4284
11.8045
10.98
9.94107
9.11829
8.40506
7.84918
7.37763
6.97217
6.8717
6.78764
6.8655
6.98884
7.27305
7.73363
8.18153
8.80299
9.74112
10.5613
11.5364
12.4158
9.8851
9.08008
8.36624
7.64383
7.03128
6.46721
6.13158
5.83085
5.73891
5.71284
5.70521
5.75433
6.07727
6.43079
6.91479
7.42481
8.07499
8.83901
9.72497
10.4902
7.93465
7.32692
6.70973
6.15874
5.646
5.23501
4.91639
4.71664
4.5972
4.49436
4.65588
4.73657
4.90589
5.19337
5.60233
5.94638
6.56839
7.19739
7.89465
8.46016
6.11705
5.67688
5.18437
4.73087
4.37459
4.05803
3.79693
3.62818
3.57321
3.50737
3.52428
3.65654
3.73713
4.06985
4.29314
4.67484
5.11271
5.59425
6.05833
6.56099
4.29623
4.04541
3.71327
3.3106
2.98877
2.84408
2.71174
2.59803
2.48798
2.45921
2.49009
2.53476
2.64819
2.87021
3.07789
3.3047
3.64757
3.96839
4.2965
4.64856
2.5686
2.43153
2.22399
2.01419
1.83518
1.71123
1.53983
1.51864
1.52457
1.53578
1.476
1.55591
1.62188
1.73357
1.84733
1.91365
2.15482
2.39883
2.58559
2.82822
0.870978
0.817641
0.79236
0.657354
0.647295
0.551984
0.544082
0.527077
0.509382
0.527959
0.406241
0.52479
0.605004
0.579242
0.664122
0.666158
0.789776
0.749256
0.843788
0.940225
16.4292
15.2986
14.1251
13.1997
12.2612
11.6398
11.0831
10.6774
10.4502
10.2681
10.3538
10.6068
10.8719
11.2734
11.9876
12.7202
13.7009
14.7052
15.8381
17.0056
13.9506
13.1102
12.0923
11.2402
10.4766
9.86662
9.41269
8.98771
8.87925
8.76086
8.8175
9.02632
9.27505
9.60549
10.2259
10.8422
11.7283
12.6792
13.5914
14.55
11.5447
10.8687
10.0878
9.27623
8.71124
8.21869
7.78449
7.47787
7.35362
7.29213
7.43175
7.47739
7.74835
8.06039
8.51765
9.08995
9.77224
10.6213
11.4225
12.2817
9.44455
8.7506
8.12935
7.49283
7.0312
6.65003
6.28404
6.09295
5.9219
5.84182
5.96243
6.05789
6.21926
6.57212
6.87177
7.3905
7.92865
8.63068
9.25758
9.89812
7.17458
6.7134
6.20883
5.80002
5.39565
5.12124
4.84355
4.64292
4.52754
4.5112
4.56648
4.68379
4.76139
5.09576
5.3955
5.73338
6.18947
6.6419
7.26345
7.65093
5.03772
4.84033
4.42038
4.06315
3.81147
3.57289
3.35609
3.28896
3.19447
3.15463
3.25112
3.28679
3.41708
3.57703
3.83955
4.08933
4.40897
4.69443
5.13938
5.4971
3.02621
2.82012
2.71495
2.42329
2.27966
2.15858
2.01997
1.98766
1.91134
1.91562
1.84572
1.98199
2.05753
2.08316
2.2606
2.4803
2.70017
2.84549
3.0595
3.23468
1.00115
0.902868
0.880698
0.840345
0.789215
0.643107
0.677654
0.736169
0.647792
0.585433
0.590815
0.675155
0.716998
0.770888
0.790802
0.772696
0.862943
0.90386
1.023
1.14888
18.444
17.3618
16.19
15.1683
14.2867
13.5689
13.0267
12.4979
12.2447
12.1932
12.1954
12.3603
12.8112
13.2575
13.858
14.6982
15.6764
16.832
17.9021
18.9553
15.607
14.7118
13.7163
12.7987
12.1384
11.4029
10.9512
10.5484
10.4046
10.2952
10.3413
10.5071
10.8798
11.2539
11.8265
12.4711
13.3121
14.2455
15.3281
16.1981
12.8942
12.2191
11.3479
10.6077
9.9375
9.45726
9.10132
8.76965
8.61689
8.49408
8.5011
8.67982
8.97897
9.35816
9.74436
10.4056
11.15
11.9078
12.7694
13.5138
10.4014
9.8326
9.11836
8.47494
8.01798
7.56875
7.29895
6.99205
6.84305
6.88569
6.79132
6.99773
7.16038
7.52817
7.93306
8.3858
9.00601
9.64775
10.3873
10.9335
8.01144
7.52171
7.00973
6.51372
6.1273
5.86793
5.56689
5.30863
5.25444
5.26558
5.22838
5.43218
5.61573
5.71284
6.02921
6.49338
6.95004
7.40909
8.03698
8.43828
5.68126
5.31677
4.96112
4.60064
4.37905
4.16796
3.90086
3.82905
3.7981
3.71041
3.6963
3.76771
3.88508
4.02633
4.32559
4.65358
4.88687
5.27395
5.68632
5.92656
3.36998
3.16852
2.9626
2.77761
2.5978
2.37261
2.29308
2.21087
2.25256
2.22048
2.21342
2.23313
2.34654
2.43893
2.51254
2.67038
2.98
3.13351
3.3889
3.5873
1.20201
1.06419
0.927192
0.904388
0.913158
0.909383
0.741613
0.696108
0.708749
0.799056
0.764664
0.717807
0.863355
0.825191
0.850123
0.940046
1.02278
1.10159
1.11555
1.21091
)
;

boundaryField
{
    hotSide
    {
        type            calculated;
        value           nonuniform List<scalar> 
400
(
5.01114
4.25063
3.36802
2.50185
1.84581
1.3569
1.12118
1.10979
1.31698
1.85598
2.56108
3.65878
4.90225
6.44735
8.32681
10.5247
12.9215
15.5091
18.0827
20.156
4.832
4.00844
3.05717
2.2068
1.45146
0.966822
0.629919
0.600104
0.800168
1.08746
1.90187
2.90859
4.12388
5.66629
7.52935
9.54233
11.8818
14.4103
16.9682
19.0885
4.79329
3.92313
2.97307
2.05349
1.19349
0.675048
0.264224
0.158003
0.267528
0.561651
1.16947
2.14231
3.23538
4.74344
6.52425
8.60959
10.8053
13.3947
15.8107
17.9313
4.8073
4.00002
2.87658
1.95405
1.07557
0.422046
-0.0218027
-0.232074
-0.250648
0.0522561
0.628041
1.42303