/*--------------------------------*- C++ -*----------------------------------*\
| =========                 |                                                 |
| \\      /  F ield         | OpenFOAM: The Open Source CFD Toolbox           |
|  \\    /   O peration     | Version:  2212                                  |
|   \\  /    A nd           | Website:  www.openfoam.com                      |
|    \\/     M anipulation  |                                                 |
\*---------------------------------------------------------------------------*/
FoamFile
{
    version     2.0;
    format      ascii;
    arch        "LSB;label=32;scalar=64";
    class       volScalarField;
    location    "0";
    object      T;
}
// * * * * * * * * * * * * * * * * * * * * * * * * * * * * * * * * * * * * * //

dimensions      [0 0 0 1 0 0 0];

internalField   nonuniform List<scalar> 
3200
(
348.045
349.032
350.032
350.774
351.264
351.985
352.428
352.518
352.648
352.435
352.356
351.94
351.494
350.792
350.018
349.345
348.063
346.787
345.486
344.352
341.754
342.621
343.443
344.135
344.512
345.131
345.575
345.639
345.774
345.578
345.531
345.175
344.811
344.183
343.491
342.909
341.839
340.689
339.573
338.634
335.367
336.105
336.824
337.424
337.717
338.233
338.673
338.692
338.822
338.672
338.637
338.416
338.076
337.504
336.932
336.392
335.508
334.51
333.549
332.837
329.006
329.539
330.194
330.685
330.9
331.361
331.7
331.715
331.821
331.712
331.695
331.598
331.268
330.76
330.313
329.817
329.135
328.231
327.504
326.994
322.608
323.014
323.494
323.884
324.042
324.436
324.688
324.706
324.77
324.71
324.71
324.681
324.394
324.018
323.629
323.224
322.712
321.954
321.399
320.991
316.182
316.483
316.802
317.088
317.195
317.476
317.643
317.696
317.698
317.664
317.663
317.668
317.46
317.224
316.933
316.61
316.255
315.658
315.305
314.98
309.736
309.913
310.13
310.268
310.282
310.534
310.591
310.65
310.633
310.603
310.597
310.588
310.5
310.345
310.181
309.987
309.779
309.399
309.219
308.985
303.282
303.326
303.41
303.476
303.446
303.548
303.563
303.582
303.564
303.569
303.548
303.537
303.532
303.455
303.43
303.344
303.276
303.153
303.095
303.012
349.14
350.16
350.975
351.976
352.642
352.99
353.653
353.701
354.04
353.842
353.589
353.376
352.542
351.896
351.202
350.296
349.086
347.831
346.785
345.374
342.62
343.474
344.246
345.108
345.72
345.939
346.562
346.609
346.916
346.741
346.524
346.393
345.679
345.069
344.454
343.731
342.665
341.544
340.648
339.451
336.083
336.828
337.504
338.211
338.767
338.942
339.404
339.47
339.72
339.568
339.423
339.359
338.762
338.193
337.642
337.124
336.179
335.224
334.436
333.453
329.565
330.188
330.703
331.293
331.8
331.935
332.272
332.255
332.5
332.419
332.327
332.252
331.815
331.329
330.885
330.456
329.663
328.863
328.212
327.411
323.008
323.49
323.877
324.377
324.77
324.891
325.137
325.051
325.263
325.271
325.185
325.154
324.794
324.397
324.088
323.751
323.129
322.463
321.981
321.358
316.455
316.813
317.068
317.481
317.677
317.772
317.99
317.872
318.074
318.09
318.004
318.005
317.763
317.449
317.248
316.984
316.526
316.056
315.723
315.277
309.893
310.114
310.248
310.548
310.614
310.673
310.805
310.709
310.863
310.892
310.83
310.831
310.68
310.496
310.387
310.202
309.935
309.65
309.474
309.175
303.333
303.386
303.45
303.544
303.54
303.584
303.616
303.579
303.642
303.687
303.624
303.635
303.584
303.526
303.484
303.42
303.332
303.241
303.178
303.084
350.505
351.72
352.523
353.591
354.269
354.878
355.32
355.594
355.576
355.468
355.175
354.829
354.178
353.379
352.834
351.844
350.719
349.205
347.957
346.748
343.853
344.847
345.555
346.502
347.082
347.57
348.001
348.226
348.221
348.147
347.89
347.598
347.015
346.347
345.918
345.046
344.02
342.75
341.623
340.667
337.165
337.973
338.58
339.369
339.868
340.274
340.657
340.845
340.812
340.767
340.558
340.354
339.828
339.284
338.92
338.149
337.275
336.238
335.291
334.539
330.435
331.09
331.558
332.243
332.613
332.989
333.255
333.402
333.431
333.377
333.214
333.058
332.611
332.244
331.897
331.267
330.529
329.723
328.926
328.332
323.655
324.195
324.541
325.116
325.365
325.657
325.842
325.986
326.021
325.929
325.906
325.691
325.375
325.155
324.808
324.345
323.78
323.169
322.517
322.078
316.939
317.322
317.54
317.974
318.087
318.365
318.49
318.58
318.634
318.513
318.578
318.373
318.147
317.997
317.747
317.382
317.042
316.578
316.117
315.792
310.202
310.398
310.521
310.846
310.894
311.021
311.126
311.153
311.197
311.113
311.176
311.037
310.931
310.831
310.672
310.44
310.273
309.959
309.691
309.502
303.441
303.488
303.532
303.638
303.65
303.697
303.724
303.715
303.765
303.699
303.733
303.702
303.659
303.618
303.58
303.506
303.444
303.335
303.246
303.188
352.281
353.239
354.22
355.269
355.978
356.547
357.079
357.212
357.281
357.299
356.835
356.493
355.823
355.277
354.392
353.571
352.315
350.868
349.188
348.096
345.381
346.121
346.969
347.908
348.558
349.052
349.512
349.669
349.7
349.729
349.3
349.014
348.378
347.95
347.175
346.528
345.409
344.131
342.661
341.801
338.406
339.048
339.765
340.495
341.124
341.511
341.922
342.065
342.08
342.138
341.76
341.513
340.967
340.616
339.971
339.375
338.491
337.358
336.153
335.492
331.434
331.968
332.572
333.128
333.67
333.945
334.261
334.432
334.501
334.515
334.224
334.014
333.529
333.284
332.752
332.233
331.539
330.608
329.607
329.108
324.454
324.88
325.382
325.803
326.207
326.37
326.641
326.793
326.955
326.873
326.652
326.472
326.145
325.92
325.471
325.119
324.581
323.858
323.042
322.721
317.495
317.812
318.119
318.46
318.721
318.805
319.017
319.149
319.304
319.221
319.088
318.92
318.704
318.554
318.22
317.999
317.61
317.071
316.471
316.243
310.539
310.693
310.862
311.085
311.249
311.282
311.408
311.511
311.625
311.543
311.452
311.37
311.236
311.183
310.964
310.826
310.609
310.28
309.922
309.766
303.532
303.586
303.646
303.709
303.762
303.781
303.789
303.876
303.89
303.864
303.838
303.801
303.759
303.758
303.67
303.648
303.577
303.463
303.327
303.273
353.815
354.815
355.804
356.783
357.815
358.452
358.73
358.955
359.045
359.228
358.489
358.046
357.592
356.909
355.938
354.836
353.973
352.365
350.75
349.695
346.7
347.523
348.351
349.234
350.133
350.728
350.946
351.121
351.227
351.394
350.713
350.305
349.949
349.359
348.55
347.605
346.823
345.424
344.042
343.167
339.537
340.186
340.919
341.666
342.441
342.968
343.146
343.27
343.422
343.546
342.906
342.596
342.318
341.766
341.143
340.332
339.635
338.485
337.334
336.601
332.365
332.913
333.492
334.09
334.759
335.178
335.333
335.378
335.573
335.609
335.074
334.878
334.638
334.22
333.671
333.026
332.483
331.508
330.575
329.978
325.163
325.655
326.055
326.544
327.062
327.342
327.487
327.49
327.689
327.675
327.256
327.176
326.938
326.608
326.176
325.73
325.295
324.583
323.791
323.345
317.975
318.384
318.612
318.948
319.344
319.513
319.588
319.604
319.791
319.785
319.509
319.483
319.23
319.004
318.643
318.409
318.072
317.61
317.012
316.703
310.791
311.029
311.191
311.388
311.616
311.701
311.726
311.82
311.896
311.867
311.745
311.722
311.525
311.382
311.204
311.071
310.873
310.613
310.225
310.043
303.617
303.709
303.744
303.824
303.876
303.931
303.939
303.961
304.004
303.978
303.961
303.929
303.858
303.809
303.77
303.712
303.652
303.562
303.443
303.365
355.385
356.135
357.429
358.174
359.455
360.102
360.296
360.821
360.804
360.606
360.285
359.868
359.298
358.537
357.724
356.348
355.284
353.84
352.554
351.215
348.046
348.697
349.748
350.387
351.6
352.155
352.275
352.788
352.724
352.563
352.272
351.929
351.422
350.745
350.062
348.885
347.98
346.716
345.594
344.508
340.646
341.221
342.116
342.654
343.724
344.151
344.26
344.686
344.635
344.544
344.226
343.971
343.544
342.989
342.411
341.384
340.663
339.584
338.617
337.739
333.237
333.714
334.457
334.911
335.822
336.155
336.227
336.562
336.49
336.545
336.202
336.01
335.681
335.213
334.734
333.84
333.298
332.422
331.619
330.921
325.855
326.264
326.787
327.161
327.894
328.132
328.197
328.435
328.353
328.487
328.111
327.987
327.792
327.412
327.044
326.297
325.918
325.224
324.609
324.071
318.475
318.782
319.128
319.394
319.939
320.12
320.115
320.332
320.267
320.381
320.07
320.016
319.875
319.602
319.34
318.781
318.527
318.023
317.585
317.17
311.075
311.298
311.5
311.684
311.961
312.096
312.078
312.245
312.167
312.257
312.101
312.025
311.909
311.775
311.589
311.245
311.158
310.824
310.552
310.307
303.716
303.785
303.845
303.916
304.028
304.056
304.051
304.11
304.104
304.096
304.055
304.017
303.986
303.941
303.869
303.772
303.739
303.614
303.552
303.443
356.907
357.943
359.004
359.932
360.999
361.546
361.959
362.487
362.315
362.263
362.027
361.522
360.778
360.131
359.344
357.967
356.686
355.131
354.146
352.705
349.36
350.232
351.126
351.963
352.89
353.328
353.717
354.226
353.984
353.976
353.832
353.344
352.683
352.13
351.508
350.286
349.182
347.812
347.006
345.757
341.765
342.5
343.277
343.944
344.798
345.176
345.442
345.968
345.677
345.735
345.549
345.182
344.588
344.086
343.671
342.548
341.672
340.517
339.839
338.765
334.206
334.757
335.471
335.937
336.66
336.973
337.189
337.67
337.38
337.491
337.25
336.951
336.47
336.072
335.739
334.85
334.163
333.174
332.587
331.72
326.561
327.008
327.598
327.971
328.557
328.777
328.94
329.306
329.116
329.209
328.973
328.765
328.395
328.035
327.803
327.15
326.567
325.822
325.35
324.675
318.971
319.297
319.743
319.991
320.399
320.586
320.716
320.953
320.841
320.901
320.71
320.554
320.289
320.019
319.871
319.421
318.965
318.437
318.13
317.603
311.395
311.599
311.883
312.014
312.285
312.351
312.45
312.632
312.557
312.546
312.443
312.342
312.203
312.017
311.949
311.671
311.412
311.073
310.873
310.582
303.806
303.88
303.998
304.044
304.117
304.145
304.193
304.252
304.211
304.204
304.158
304.15
304.079
304.014
304.024
303.895
303.828
303.735
303.634
303.555
358.336
359.516
360.548
361.519
362.353
363.03
363.542
364.143
364.056
363.853
363.723
363.246
362.204
361.697
360.82
359.731
358.239
356.624
355.441
353.871
350.585
351.581
352.5
353.314
354.066
354.601
355.096
355.602
355.55
355.346
355.27
354.868
353.89
353.509
352.792
351.835
350.566
349.13
348.069
346.767
342.844
343.651
344.45
345.125
345.79
346.169
346.608
347.09
346.972
346.856
346.797
346.429
345.601
345.295
344.688
343.875
342.813
341.654
340.69
339.659
335.075
335.726
336.37
336.934
337.514
337.781
338.14
338.622
338.409
338.39
338.292
337.989
337.297
337.093
336.597
335.905
335.074
334.123
333.311
332.508
327.314
327.8
328.316
328.732
329.19
329.39
329.704
330.059
329.875
329.938
329.728
329.578
329.018
328.831
328.472
327.948
327.307
326.563
325.905
325.277
319.516
319.886
320.242
320.527
320.881
321.009
321.284
321.468
321.342
321.41
321.22
321.178
320.735
320.608
320.342
319.998
319.525
318.988
318.492
318.073
311.713
311.912
312.161
312.338
312.521
312.639
312.833
312.888
312.822
312.894
312.721
312.711
312.464
312.371
312.222
312.051
311.747
311.432
311.111
310.872
303.933
303.973
304.083
304.129
304.167
304.251
304.302
304.332
304.291
304.327
304.255
304.267
304.178
304.135
304.087
304.061
303.937
303.84
303.729
303.649
359.726
360.785
361.803
362.855
363.996
364.515
365.007
365.3
365.468
365.288
364.921
364.713
363.956
363.004
361.907
360.759
359.393
357.918
356.743
354.908
351.848
352.714
353.597
354.445
355.466
355.94
356.407
356.648
356.737
356.607
356.293
356.112
355.439
354.614
353.682
352.666
351.509
350.252
349.278
347.695
343.944
344.64
345.368
346.012
346.96
347.327
347.749
347.995
347.983
347.854
347.638
347.478
346.869
346.225
345.431
344.564
343.606
342.578
341.789
340.43
335.986
336.552
337.107
337.623
338.408
338.698
339.07
339.295
339.248
339.129
338.96
338.865
338.357
337.862
337.178
336.479
335.709
334.855
334.293
333.131
328.023
328.435
328.865
329.221
329.826
330.081
330.391
330.56
330.484
330.406
330.267
330.251
329.868
329.504
328.927
328.411
327.803
327.145
326.71
325.804
320.036
320.294
320.663
320.819
321.271
321.49
321.703
321.828
321.758
321.732
321.626
321.645
321.343
321.108
320.679
320.301
319.854
319.399
319.123
318.446
312.052
312.158
312.441
312.49
312.771
312.954
313.035
313.07
313.042
313.057
313.006
312.99
312.846
312.682
312.415
312.189
311.893
311.65
311.518
311.084
304.05
304.072
304.162
304.186
304.269
304.344
304.373
304.361
304.362
304.38
304.357
304.353
304.303
304.267
304.163
304.087
303.976
303.904
303.841
303.717
360.755
362.006
363.177
364.236
365.259
365.882
366.522
366.979
366.944
366.766
366.583
366.019
365.458
364.469
363.174
362.128
360.937
359.479
358.074
356.18
352.711
353.751
354.754
355.678
356.581
357.073
357.677
358.089
357.991
357.89
357.712
357.249
356.731
355.888
354.804
353.854
352.862
351.561
350.392
348.714
344.643
345.509
346.363
347.079
347.909
348.262
348.843
349.138
349.027
348.994
348.827
348.457
348.053
347.297
346.417
345.591
344.769
343.622
342.699
341.264
336.525
337.231
337.966
338.498
339.224
339.506
339.98
340.202
340.09
340.039
339.959
339.662
339.341
338.708
338.029
337.278
336.628
335.701
334.965
333.765
328.386
328.952
329.565
329.935
330.478
330.752
331.137
331.235
331.181
331.118
331.095
330.896
330.607
330.099
329.62
328.953
328.482
327.77
327.205
326.232
320.294
320.692
321.152
321.388
321.778
322.013
322.235
322.293
322.293
322.244
322.231
322.103
321.885
321.498
321.165
320.677
320.335
319.822
319.432
318.755
312.143
312.439
312.749
312.88
313.091
313.255
313.374
313.367
313.388
313.352
313.34
313.262
313.189
312.868
312.716
312.424
312.227
311.921
311.678
311.246
304.069
304.173
304.297
304.304
304.39
304.442
304.495
304.482
304.501
304.467
304.457
304.442
304.436
304.336
304.272
304.162
304.1
304.006
303.922
303.762
361.87
363.028
364.243
365.593
366.572
367.068
367.714
368.136
368.437
368.096
367.852
367.449
366.628
365.547
364.576
363.367
361.967
360.484
358.893
357.204
353.631
354.621
355.689
356.827
357.704
358.14
358.737
359.093
359.368
359.067
358.847
358.5
357.756
356.871
356.013
354.945
353.71
352.444
351.107
349.649
345.379
346.214
347.098
348.068
348.867
349.163
349.769
350.024
350.283
350.001
349.826
349.507
348.922
348.168
347.438
346.513
345.503
344.394
343.28
342.085
337.108
337.811
338.521
339.355
340.013
340.227
340.724
340.942
341.187
340.926
340.789
340.531
340.055
339.43
338.833
338.05
337.271
336.328
335.461
334.484
328.839
329.399
329.974
330.628
331.121
331.288
331.715
331.857
332.066
331.837
331.719
331.529
331.173
330.668
330.257
329.632
328.962
328.271
327.601
326.844
320.569
320.991
321.437
321.882
322.27
322.318
322.687
322.743
322.92
322.771
322.683
322.497
322.253
321.92
321.672
321.184
320.68
320.214
319.735
319.157
312.377
312.561
312.861
313.162
313.414
313.356
313.656
313.649
313.775
313.723
313.63
313.535
313.389
313.149
313.047
312.718
312.391
312.153
311.855
311.494
304.161
304.205
304.32
304.421
304.505
304.464
304.584
304.577
304.639
304.622
304.564
304.525
304.514
304.422
304.382
304.247
304.169
304.073
303.99
303.861
363.116
364.367
365.39
366.769
367.858
368.517
368.966
369.497
369.658
369.285
368.813
368.463
367.797
366.873
365.744
364.528
363.149
361.762
360.012
358.507
354.75
355.818
356.679
357.836
358.82
359.379
359.821
360.257
360.391
360.089
359.64
359.35
358.736
358.003
357.047
355.937
354.759
353.605
352.07
350.783
346.315
347.231
347.961
348.93
349.726
350.281
350.643
351.001
351.133
350.876
350.485
350.252
349.709
349.092
348.364
347.328
346.389
345.371
344.144
343.063
337.915
338.651
339.242
340.061
340.629
341.166
341.479
341.752
341.842
341.614
341.29
341.159
340.651
340.22
339.624
338.737
337.987
337.151
336.169
335.267
329.51
330.031
330.586
331.195
331.593
332.016
332.274
332.474
332.522
332.371
332.111
332.031
331.586
331.339
330.819
330.119
329.552
328.919
328.144
327.421
321.119
321.43
321.883
322.288
322.558
322.85
323.048
323.218
323.173
323.12
322.923
322.913
322.533
322.418
322.028
321.518
321.125
320.669
320.146
319.622
312.699
312.868
313.145
313.384
313.517
313.701
313.832
313.921
313.92
313.86
313.764
313.753
313.496
313.427
313.251
312.921
312.716
312.427
312.136
311.778
304.258
304.319
304.41
304.491
304.518
304.583
304.638
304.665
304.669
304.635
304.614
304.619
304.502
304.505
304.444
304.332
304.253
304.173
304.067
303.949
364.162
365.277
366.402
367.646
368.937
369.733
369.925
370.538
370.445
370.352
370.039
369.488
368.96
367.987
366.958
365.539
364.196
362.573
361.013
359.517
355.64
356.586
357.557
358.657
359.734
360.469
360.621
361.168
361.085
360.989
360.71
360.216
359.8
358.99
358.043
356.859
355.655
354.27
352.919
351.719
347.119
347.892
348.72
349.643
350.508
351.147
351.311
351.807
351.69
351.636
351.349
350.97
350.558
349.969
349.134
348.124
347.112
345.913
344.813
343.843
338.572
339.175
339.867
340.603
341.3
341.871
341.979
342.406
342.305
342.283
342.021
341.7
341.365
340.895
340.21
339.352
338.573
337.572
336.646
335.93
330.038
330.489
331.006
331.622
332.09
332.545
332.651
332.998
332.953
332.919
332.671
332.449
332.178
331.867
331.279
330.608
330.016
329.219
328.517
327.985
321.509
321.813
322.138
322.614
322.938
323.216
323.341
323.579
323.552
323.559
323.377
323.246
322.978
322.812
322.353
321.879
321.438
320.876
320.422
320.006
312.925
313.08
313.299
313.601
313.79
313.923
314.046
314.179
314.123
314.183
314.083
313.97
313.815
313.746
313.438
313.168
312.893
312.543
312.286
312.052
304.32
304.381
304.464
304.563
304.631
304.65
304.727
304.759
304.742
304.756
304.738
304.674
304.634
304.618
304.506
304.42
304.329
304.202
304.108
304.042
364.726
365.99
367.369
368.745
369.819
370.457
371.079
371.436
371.457
371.26
371.034
370.509
369.964
368.788
367.577
366.398
365.049
363.603
361.803
360.265
356.15
357.186
358.416
359.556
360.476
361.098
361.611
361.926
361.962
361.763
361.619
361.138
360.665
359.67
358.587
357.558
356.412
355.128
353.657
352.332
347.595
348.429
349.503
350.405
351.179
351.732
352.163
352.436
352.455
352.28
352.158
351.807
351.321
350.539
349.581
348.732
347.765
346.666
345.459
344.347
338.991
339.639
340.534
341.211
341.908
342.401
342.697
342.963
342.963
342.825
342.683
342.454
342.024
341.35
340.605
339.888
339.061
338.241
337.201
336.344
330.385
330.83
331.55
332.02
332.603
333.045
333.179
333.453
333.464
333.37
333.191
333.035
332.704
332.16
331.592
331.023
330.34
329.791
328.93
328.337
321.728
322.01
322.546
322.859
323.284
323.64
323.696
323.926
323.898
323.873
323.722
323.609
323.359
322.97
322.571
322.169
321.657
321.298
320.656
320.269
313.027
313.221
313.536
313.718
313.993
314.21
314.2
314.37
314.294
314.345
314.23
314.177
314.001
313.767
313.581
313.361
312.966
312.78
312.415
312.194
304.371
304.419
304.546
304.574
304.685
304.77
304.747
304.809
304.789
304.825
304.77
304.75
304.683
304.633
304.553
304.502
304.356
304.266
304.153
304.085
365.646
366.804
368.212
369.315
370.648
371.308
371.859
372.34
372.324
372.301
371.866
371.457
370.732
369.693
368.534
367.114
365.954
364.239
362.534
361.019
356.906
357.866
359.118
360.092
361.227
361.827
362.286
362.739
362.695
362.7
362.315
361.931
361.347
360.44
359.37
358.174
357.151
355.723
354.276
352.984
348.174
348.959
350.069
350.835
351.822
352.336
352.691
353.18
353.059
353.058
352.744
352.423
351.951
351.151
350.171
349.239
348.381
347.189
346.023
344.892
339.41
340.039
341.02
341.598
342.409
342.854
343.127
343.593
343.399
343.376
343.153
342.925
342.529
341.89
341.009
340.291
339.625
338.646
337.687
336.759
330.679
331.152
331.931
332.358
332.993
333.333
333.543
333.962
333.752
333.761
333.589
333.402
333.088
332.588
331.848
331.368
330.824
330.092
329.373
328.651
321.879
322.298
322.835
323.121
323.577
323.804
323.976
324.275
324.11
324.107
323.985
323.875
323.617
323.31
322.72
322.441
322.01
321.508
320.992
320.498
313.137
313.39
313.697
313.878
314.145
314.289
314.395
314.596
314.483
314.474
314.415
314.343
314.159
314
313.62
313.502
313.197
312.926
312.612
312.316
304.401
304.483
304.576
304.636
304.748
304.805
304.828
304.883
304.85
304.829
304.829
304.806
304.757
304.679
304.574
304.528
304.404
304.344
304.236
304.132
366.303
367.417
368.829
369.843
371.167
371.966
372.754
373.013
373.071
373.157
372.794
372.06
371.43
370.373
369.289
367.943
366.602
365.173
363.159
361.74
357.456
358.36
359.646
360.478
361.681
362.405
363.087
363.298
363.36
363.424
363.112
362.467
361.919
361.036
360.011
358.872
357.737
356.515
354.795
353.594
348.636
349.334
350.502
351.178
352.188
352.769
353.359
353.594
353.602
353.675
353.423
352.88
352.367
351.652
350.743
349.839
348.853
347.829
346.415
345.368
339.819
340.363
341.329
341.865
342.722
343.145
343.724
343.895
343.827
343.938
343.714
343.299
342.797
342.302
341.522
340.804
339.982
339.141
338.008
337.189
330.984
331.416
332.135
332.602
333.256
333.553
334.002
334.176
334.073
334.2
334.008
333.707
333.229
332.923
332.263
331.733
331.102
330.44
329.594
328.984
322.146
322.454
322.913
323.325
323.739
323.957
324.266
324.446
324.367
324.451
324.278
324.101
323.739
323.531
323.009
322.685
322.225
321.714
321.167
320.742
313.281
313.485
313.776
314.023
314.263
314.375
314.565
314.677
314.612
314.697
314.558
314.483
314.239
314.126
313.837
313.615
313.339
313.031
312.696
312.456
304.455
304.521
304.597
304.702
304.77
304.806
304.878
304.913
304.892
304.936
304.865
304.847
304.787
304.751
304.647
304.55
304.471
304.35
304.262
304.157
366.907
367.922
369.152
370.477
371.638
372.48
373.34
373.48
373.656
373.537
373.413
372.652
371.775
371.005
369.799
368.488
367.109
365.647
363.726
362.296
358.005
358.858
359.928
361.021
362.099
362.839
363.556
363.704
363.889
363.751
363.649
362.98
362.218
361.57
360.491
359.357
358.148
356.898
355.28
354.088
349.127
349.759
350.739
351.613
352.562
353.124
353.765
353.955
354.115
353.914
353.895
353.314
352.663
352.112
351.245
350.269
349.232
348.189
346.824
345.848
340.221
340.686
341.549
342.21
343.039
343.424
343.964
344.181
344.278
344.087
344.106
343.667
343.067
342.675
341.95
341.161
340.315
339.423
338.338
337.569
331.302
331.653
332.362
332.807
333.49
333.731
334.17
334.371
334.424
334.249
334.332
333.98
333.488
333.238
332.61
332.039
331.374
330.663
329.839
329.216
322.333
322.599
323.122
323.458
323.922
324.08
324.405
324.565
324.574
324.439
324.525
324.296
323.913
323.768
323.288
322.86
322.447
321.888
321.292
320.87
313.411
313.575
313.912
314.09
314.379
314.475
314.642
314.749
314.746
314.668
314.767
314.622
314.352
314.32
313.985
313.715
313.494
313.133
312.813
312.53
304.508
304.561
304.657
304.722
304.813
304.837
304.878
304.936
304.958
304.923
304.966
304.886
304.816
304.819
304.714
304.602
304.527
304.373
304.292
304.193
367.312
368.43
369.673
371.15
372.127
372.942
373.672
374.08
374.075
373.993
373.765
373.06
372.387
371.386
370.195
368.872
367.416
365.863
364.199
362.642
358.381
359.288
360.332
361.605
362.471
363.226
363.902
364.211
364.208
364.14
363.945
363.345
362.76
361.898
360.832
359.697
358.453
357.145
355.695
354.384
349.393
350.146
351.001
352.106
352.837
353.52
354.107
354.379
354.325
354.285
354.099
353.621
353.052
352.428
351.511
350.526
349.449
348.389
347.152
346.105
340.418
341.017
341.769
342.65
343.237
343.801
344.286
344.495
344.436
344.414
344.298
343.905
343.389
342.967
342.137
341.376
340.484
339.566
338.593
337.803
331.453
331.872
332.515
333.198
333.623
334.092
334.468
334.582
334.54
334.549
334.467
334.138
333.732
333.493
332.771
332.207
331.491
330.782
330.002
329.485
322.486
322.727
323.228
323.729
324.03
324.382
324.643
324.731
324.646
324.703
324.626
324.402
324.108
323.963
323.426
322.994
322.5
321.996
321.418
321.102
313.503
313.636
313.964
314.238
314.44
314.65
314.802
314.888
314.796
314.853
314.814
314.672
314.495
314.405
314.04
313.795
313.509
313.196
312.861
312.68
304.527
304.567
304.666
304.776
304.847
304.919
304.979
304.987
304.963
304.953
304.963
304.933
304.862
304.841
304.698
304.625
304.528
304.432
304.3
304.25
367.358
368.749
370.129
371.465
372.352
373.233
373.955
374.23
374.465
374.291
374.039
373.462
372.745
371.76
370.523
369.168
367.706
366.183
364.206
362.85
358.43
359.576
360.748
361.879
362.692
363.48
364.154
364.359
364.505
364.41
364.15
363.654
363.039
362.221
361.158
359.978
358.707
357.421
355.705
354.562
349.485
350.381
351.384
352.294
353.046
353.693
354.324
354.471
354.517
354.542
354.289
353.895
353.353
352.695
351.821
350.743
349.727
348.646
347.145
346.286
340.519
341.222
342.04
342.734
343.354
343.907
344.43
344.579
344.582
344.643
344.42
344.117
343.649
343.14
342.415
341.521
340.7
339.828
338.57
337.942
331.503
332.069
332.721
333.211
333.733
334.167
334.548
334.686
334.665
334.719
334.574
334.347
333.974
333.612
333.004
332.303
331.671
331.006
330.01
329.588
322.506
322.891
323.355
323.751
324.134
324.42
324.7
324.79
324.726
324.798
324.738
324.555
324.309
324.047
323.582
323.069
322.637
322.156
321.41
321.169
313.537
313.758
313.995
314.3
314.495
314.656
314.848
314.881
314.821
314.917
314.848
314.776
314.661
314.444
314.228
313.847
313.595
313.268
312.834
312.727
304.543
304.603
304.693
304.8
304.846
304.914
304.97
304.984
304.965
305.005
304.98
304.966
304.924
304.828
304.763
304.622
304.575
304.437
304.299
304.278
367.694
368.96
370.13
371.611
372.694
373.625
374.052
374.325
374.626
374.538
374.174
373.565
372.789
372.066
370.818
369.291
368.061
366.179
364.405
362.724
358.696
359.756
360.716
362.009
362.991
363.801
364.212
364.405
364.697
364.607
364.325
363.73
363.089
362.492
361.401
360.095
359.049
357.367
355.861
354.504
349.698
350.533
351.342
352.393
353.307
353.98
354.339
354.495
354.769
354.677
354.507
353.932
353.419
352.904
351.966
350.897
349.994
348.596
347.242
346.197
340.688
341.333
342.006
342.812
343.615
344.163
344.431
344.579
344.79
344.757
344.651
344.1
343.725
343.292
342.509
341.64
340.954
339.78
338.615
337.849
331.654
332.151
332.626
333.27
333.953
334.348
334.547
334.65
334.776
334.848
334.768
334.273
334.016
333.669
333.087
332.355
331.904
330.925
330.019
329.486
322.66
322.983
323.281
323.768
324.275
324.56
324.681
324.755
324.798
324.961
324.862
324.478
324.332
324.08
323.596
323.077
322.8
322.069
321.5
321.089
313.623
313.81
314.02
314.269
314.561
314.776
314.826
314.87
314.915
315.021
314.952
314.718
314.638
314.47
314.168
313.842
313.688
313.238
312.925
312.68
304.574
304.608
304.714
304.807
304.875
304.975
304.963
304.997
304.991
305.051
304.995
304.934
304.893
304.846
304.739
304.658
304.582
304.446
304.339
304.25
)
;

boundaryField
{
    hotSide
    {
        type            fixedGradient;
        gradient        nonuniform List<scalar> 
400
(
497.053
515.557
533.715
551.446
568.668
585.302
601.266
616.484
630.878
644.377
656.912
668.417
678.833
688.104
696.182
703.024
708.593
712.861
715.804
717.409
508.548
527.537
546.174
564.376
582.061
599.144
615.544
631.18
645.975
659.855
672.747
684.586
695.309
704.861
713.19
720.253
726.012
730.436
733.503
735.197
518.545
537.963
557.025
575.646
593.74
611.223
628.01
644.02
659.173
673.392
686.605
698.743
709.743
719.547
728.104
735.367
741.298
745.866
749.048
750.827
526.988
546.776
566.205
585.188
603.637
621.466
638.59
654.925
670.389
684.904
698.397
710.798
722.041
732.068
740.825
748.266
754.352
759.05
762.336
764.194
533.833
553.931
573.666
592.952
611.698
629.819
647.225
663.834
679.561
694.327
708.058
720.681
732.132
742.349
751.279
758.874
765.094
769.906
773.286
775.215
539.054
559.397
579.377
598.904
617.889
636.242
653.876
670.705
686.645
701.614
715.538
728.344
739.964
750.338
759.411
767.134
773.467
778.377
781.837
783.831
542.637
563.161
583.321
603.027
622.188
640.716
658.52
675.514
691.614
706.738
720.809
733.754
745.505
756
765.185
773.01
779.434
784.422
787.95
789.999
544.58
565.219
585.494
605.316
624.592
643.233
661.149
678.253
694.46
709.688
723.859
736.899
748.741
759.322
768.587
776.485
782.976
788.025
791.606
793.7
544.895
565.583
585.908
605.78
625.109
643.803
661.772
678.93
695.19
710.47
724.693
737.785
749.677
760.307
769.619
777.562
784.096
789.185
792.804
794.933
543.603
564.273
584.583
604.443
623.76
642.446
660.41
677.564
693.823
709.106
723.333
736.431
748.333
758.974
768.3
776.259
782.811
787.921
791.561
793.715
540.734
561.321
581.552
601.335
620.58
639.197
657.097
674.192
690.396
705.63
719.813
732.874
744.743
755.359
764.665
772.612
779.157
784.267
787.914
790.08
536.329
556.769
576.856
596.5
615.611
634.1
651.878
668.858
684.955
700.089
714.182
727.161
738.958
749.511
758.765
766.669
773.183
778.272
781.91
784.077
530.433
550.663
570.545
589.989
608.907
627.21
644.81
661.62
677.559
692.544
706.499
719.353
731.038
741.493
750.661
758.495
764.954
770.002
773.614
775.771
523.101
543.061
562.678
581.863
600.529
618.589
635.956
652.545
668.274
683.063
696.837
709.524
721.058
731.378
740.43
748.166
754.545
759.533
763.103
765.239
514.394
534.025
553.318
572.187
590.547
608.31
625.392
641.709
657.18
671.727
685.275
697.755
709.101
719.253
728.159
735.77
742.046
746.954
750.468
752.572
504.376
523.622
542.538
561.037
579.037
596.452
613.198
629.195
644.362
658.623
671.905
684.139
695.262
705.214
713.944
721.404
727.556
732.366
735.81
737.871
493.119
511.929
530.414
548.493
566.083
583.101
599.465
615.096
629.916
643.85
656.827
668.779
679.645
689.367
697.893
705.179
711.186
715.881
719.242
721.249
480.701
499.024
517.032
534.642
551.776
568.351
584.289
599.512
613.944
627.513
640.149
651.786
662.364
671.827
680.125
687.214
693.056
697.621
700.885
702.831
467.202
484.995
502.48
519.578
536.212
552.303
567.775
582.551
596.558
609.726
621.987
633.278
643.539
652.717
660.764
667.636
673.297
677.717
680.873
682.75
452.712
469.932
486.853
503.399
519.495
535.064
550.032
564.326
577.874
590.61
602.466
613.383
623.302
632.172
639.946
646.582
652.046
656.309
659.347
661.147
)
;
    }
    coldSide
    {
        type            mixed;
        refValue        uniform 300;
        refGradient     uniform 0;
        valueFraction   uniform 0.991591;
        source          uniform 0;
        value           nonuniform List<scalar> 
400
(
300.028
300.028
300.029
300.03
300.03
300.031
300.032
300.033
300.034
300.034
300.035
300.036
300.036
300.037
300.037
300.037
300.038
300.038
300.038
300.038
300.028
300.028
300.029
300.03
300.031
300.032
300.033
300.033
300.034
300.035
300.035
300.036
300.037
300.037
300.038
300.038
300.038
300.038
300.039
300.039
300.029