/*--------------------------------*- C++ -*----------------------------------*\
| =========                 |                                                 |
| \\      /  F ield         | OpenFOAM: The Open Source CFD Toolbox           |
|  \\    /   O peration     | Version:  2212                                  |
|   \\  /    A nd           | Website:  www.openfoam.com                      |
|    \\/     M anipulation  |                                                 |
\*---------------------------------------------------------------------------*/
FoamFile
{
    version     2.0;
    format      ascii;
    arch        "LSB;label=32;scalar=64";
    class       volScalarField;
    location    "./ITHACAoutput/true/6.8";
    object      error;
}
// * * * * * * * * * * * * * * * * * * * * * * * * * * * * * * * * * * * * * //

dimensions      [0 0 0 1 0 0 0];

internalField   nonuniform List<scalar> 
3200
(
0.43107
-0.0340885
-0.402305
-0.52517
-0.560125
-0.573563
-0.222144
-0.0767551
0.264617
0.31732
0.327613
0.322699
0.173102
0.0554234
-0.124023
-0.128363
-0.00696189
0.199441
0.617416
1.03665
0.231229
-0.0639191
-0.405491
-0.609634
-0.567611
-0.50877
-0.332794
-0.149104
0.0371366
0.197323
0.256493
0.15852
0.107391
-0.0669932
-0.12025
-0.158668
-0.123437
0.0735996
0.417187
0.80171
0.172196
-0.174092
-0.506943
-0.59165
-0.570479
-0.481279
-0.3074
-0.179932
0.0317597
0.0879409
0.149226
0.0806817
-0.0274081
-0.113065
-0.174716
-0.212735
-0.115765
-0.0205304
0.242263
0.561815
0.0814429
-0.201822
-0.38976
-0.450349
-0.535132
-0.457794
-0.322459
-0.202221
-0.0569889
0.0507437
0.0397025
0.0118566
-0.0194472
-0.110951
-0.170884
-0.140624
-0.155492
-0.0418963
0.206507
0.483069
-0.0082549
-0.128117
-0.272156
-0.443037
-0.489248
-0.405619
-0.186382
-0.155084
-0.0530093
-0.0222338
-0.0266359
-0.0175845
-0.0810822
-0.129511
-0.18443
-0.174192
-0.119283
-0.0072887
0.124209
0.23013
-0.00236146
-0.0627346
-0.305101
-0.328534
-0.288692
-0.307858
-0.17117
-0.153061
-0.0281094
0.00762672
0.0350182
-0.0166054
-0.0900673
-0.0564474
-0.176539
-0.155374
-0.124032
-0.0200379
0.0549895
0.283699
0.048984
-0.0339975
-0.0945552
-0.194352
-0.164665
-0.260797
-0.0778658
-0.0939757
-0.0247305
0.0157288
-0.00882772
-0.05784
-0.0586782
-0.0478855
-0.0299523
-0.0522119
-0.0212405
-0.0737577
0.0215897
0.186881
-0.0128684
-0.0117777
-0.0318448
-0.0494678
-0.0971197
-0.0925291
-0.0417562
-0.0726919
-0.0305321
0.00613336
0.00555
-0.0108916
-0.0682902
0.00146909
0.0409389
0.0366885
0.0190521
0.0269666
0.00311131
0.0670811
-0.527967
-1.00078
-1.32591
-1.56556
-1.58728
-1.55282
-1.38799
-1.12352
-0.945126
-0.90313
-0.805083
-0.811226
-0.931911
-1.02862
-1.14589
-1.15942
-1.06824
-0.774673
-0.347386
0.245444
-0.52281
-0.917409
-1.18954
-1.44308
-1.4647
-1.36964
-1.27005
-0.948676
-0.793448
-0.688369
-0.722257
-0.735292
-0.815717
-0.975507
-1.08184
-0.976926
-0.909934
-0.70825
-0.31529
0.0908548
-0.536239
-0.760348
-1.02086
-1.22943
-1.19251
-1.23278
-1.08693
-0.866508
-0.733071
-0.633778
-0.676202
-0.648413
-0.699963
-0.776229
-0.864652
-0.824917
-0.829231
-0.616502
-0.256509
0.0247154
-0.436012
-0.63666
-0.76506
-1.00847
-1.00228
-1.00026
-0.913268
-0.808009
-0.631854
-0.591021
-0.524
-0.56104
-0.618307
-0.630543
-0.786292
-0.760926
-0.650938
-0.467952
-0.246969
0.0449805
-0.31956
-0.53313
-0.62529
-0.872948
-0.849017
-0.801496
-0.624726
-0.682194
-0.450874
-0.426736
-0.379484
-0.363619
-0.51783
-0.599713
-0.55523
-0.573477
-0.520458
-0.433397
-0.267639
0.0201894
-0.267811
-0.342197
-0.468541
-0.499823
-0.548232
-0.578279
-0.534896
-0.445073
-0.354034
-0.302346
-0.35453
-0.278403
-0.364462
-0.393356
-0.483346
-0.466062
-0.328555
-0.219084
-0.167371
-0.0569897
-0.144263
-0.259039
-0.325437
-0.297605
-0.319401
-0.34488
-0.288742
-0.284082
-0.206686
-0.194284
-0.176199
-0.163516
-0.123886
-0.255621
-0.288266
-0.279701
-0.194289
-0.129983
-0.0621487
-0.0154331
0.0269829
-0.0425776
-0.0950671
-0.110685
-0.122065
-0.0789911
-0.120759
-0.0841639
-0.085418
-0.0828033
-0.0913998
-0.0107108
-0.0257657
-0.103152
-0.195282
-0.0500611
-0.150501
-0.0846966
-0.0470593
0.00928928
-1.58059
-2.09171
-2.46881
-2.77067
-2.87186
-2.87162
-2.71952
-2.57593
-2.36106
-2.22252
-2.19702
-2.21243
-2.33094
-2.35256
-2.42672
-2.39837
-2.20186
-1.92548
-1.3976
-0.83408
-1.40971
-1.79149
-2.20883
-2.39611
-2.47707
-2.45867
-2.41173
-2.23502
-2.08882
-2.00498
-1.84069
-1.92621
-1.95049
-2.10944
-2.07952
-2.06083
-1.88628
-1.72097
-1.2345
-0.766028
-1.17398
-1.53661
-1.81927
-2.03313
-2.14537
-2.09799
-1.95205
-1.87983
-1.66795
-1.65474
-1.65454
-1.62834
-1.67043
-1.72949
-1.82555
-1.74239
-1.61054
-1.37255
-1.07027
-0.6514
-1.04061
-1.33355
-1.5225
-1.65242
-1.7629
-1.73898
-1.6952
-1.57659
-1.38261
-1.3841
-1.27862
-1.29579
-1.40424
-1.38611
-1.4419
-1.41224
-1.31969
-1.09075
-0.847164
-0.579587
-0.740094
-0.970952
-1.20297
-1.25729
-1.37511
-1.35701
-1.28677
-1.23806
-1.14853
-1.00865
-1.05751
-0.986072
-1.12195
-1.07743
-1.06358
-1.19529
-1.00494
-0.880832
-0.685969
-0.398073
-0.53755
-0.687006
-0.8162
-0.908858
-0.959226
-0.949441
-0.929385
-0.852532
-0.772208
-0.755775
-0.777047
-0.760316
-0.764756
-0.826961
-0.83486
-0.798019
-0.735032
-0.622197
-0.483234
-0.278228
-0.399151
-0.42606
-0.500655
-0.530595
-0.575286
-0.529289
-0.539576
-0.52949
-0.431123
-0.458784
-0.425285
-0.525776
-0.493488
-0.501081
-0.551664
-0.439196
-0.415626
-0.357012
-0.288465
-0.167043
-0.171584
-0.134868
-0.178276
-0.170813
-0.138491
-0.198915
-0.169081
-0.165728
-0.158993
-0.195859
-0.147101
-0.16175
-0.125023
-0.195101
-0.0975249
-0.152509
-0.0837334
-0.132458
-0.102974
-0.0447394
-2.64138
-3.22857
-3.60152
-3.9628
-4.08099
-4.11681
-4.04402
-3.93438
-3.74637
-3.58275
-3.61139
-3.58917
-3.6594
-3.70165
-3.68137
-3.58129
-3.37498
-3.00184
-2.38658
-1.79278
-2.29637
-2.78797
-3.14167
-3.40906
-3.5548
-3.57635
-3.55159
-3.36829
-3.2238
-3.19367
-3.0827
-3.06307
-3.12661
-3.20755
-3.1784
-3.09846
-2.90134
-2.48396
-2.04995
-1.55185
-1.93082
-2.33704
-2.67784
-2.8507
-3.00636
-2.97965
-2.90616
-2.88151
-2.67953
-2.64511
-2.64136
-2.62645
-2.69289
-2.71709
-2.63955
-2.65553
-2.38648
-2.17268
-1.76615
-1.33779
-1.57518
-1.83952
-2.11681
-2.28928
-2.44741
-2.48379
-2.47526
-2.37369
-2.25364
-2.18162
-2.13457
-2.15941
-2.18249
-2.21624
-2.23612
-2.07762
-1.97192
-1.75808
-1.39656
-1.07641
-1.26405
-1.47998
-1.70496
-1.85982
-1.95315
-1.88469
-1.84055
-1.81714
-1.72268
-1.75535
-1.6835
-1.67545
-1.71133
-1.64392
-1.6786
-1.61291
-1.58176
-1.30324
-1.04332
-0.848787
-0.860678
-1.03866
-1.23244
-1.35289
-1.39688
-1.30543
-1.32706
-1.25822
-1.29694
-1.13202
-1.1755
-1.13816
-1.16797
-1.16083
-1.2268
-1.15593
-1.11826
-0.96597
-0.798084
-0.580184
-0.550585
-0.678968
-0.714008
-0.840406
-0.848103
-0.784465
-0.768447
-0.733196
-0.732212
-0.673471
-0.761777
-0.766116
-0.710383
-0.706022
-0.74565
-0.665982
-0.681705
-0.559215
-0.406286
-0.335889
-0.211098
-0.156499
-0.246753
-0.271026
-0.252746
-0.351288
-0.231068
-0.298145
-0.204005
-0.25437
-0.227319
-0.220202
-0.201523
-0.253373
-0.277654
-0.20317
-0.22776
-0.175121
-0.143115
-0.151236
-3.4653
-3.97542
-4.62057
-4.99741
-5.19008
-5.29854
-5.20227
-5.16386
-5.0259
-4.81292
-4.78995
-4.8194
-4.81122
-4.84094
-4.72798
-4.52819
-4.32542
-3.85943
-3.20561
-2.63159
-3.04115
-3.51391
-3.97702
-4.32798
-4.50983
-4.56803
-4.47697
-4.41432
-4.37589
-4.23066
-4.14638
-4.22777
-4.15677
-4.20013
-4.07309
-3.96121
-3.69433
-3.35886
-2.79618
-2.2625
-2.5309
-2.8865
-3.31435
-3.60023
-3.79248
-3.83133
-3.78864
-3.73402
-3.58573
-3.5015
-3.53341
-3.48623
-3.52188
-3.57052
-3.50142
-3.33271
-3.09781
-2.81014
-2.33095
-1.9217
-2.03805
-2.39893
-2.73667
-2.97065
-3.10224
-3.14821
-3.1029
-3.10949
-2.96011
-2.93873
-2.90622
-2.86138
-2.88223
-2.88064
-2.85807
-2.71838
-2.58094
-2.30742
-1.89104
-1.57173
-1.60407
-1.87785
-2.1403
-2.39069
-2.34865
-2.45186
-2.36963
-2.41895
-2.3093
-2.23031
-2.17985
-2.26189
-2.23224
-2.17868
-2.17816
-2.19893
-1.93306
-1.78712
-1.48966
-1.20679
-1.14276
-1.38984
-1.51717
-1.61092
-1.69266
-1.70234
-1.65621
-1.68064
-1.64125
-1.58716
-1.59165
-1.56842
-1.59014
-1.60787
-1.56153
-1.49385
-1.4668
-1.31081
-1.07543
-0.853562
-0.709867
-0.78018
-0.928542
-0.986404
-1.03287
-1.03424
-1.01039
-0.99882
-1.01565
-1.04426
-0.927038
-0.981474
-0.919398
-0.891316
-0.890056
-0.909962
-0.817023
-0.78157
-0.653077
-0.5246
-0.163196
-0.268698
-0.331096
-0.326424
-0.370697
-0.364936
-0.407001
-0.400418
-0.358416
-0.414832
-0.348131
-0.39638
-0.206317
-0.353315
-0.32938
-0.355277
-0.251699
-0.262899
-0.221631
-0.248654
-4.06395
-4.75317
-5.33144
-5.84566
-6.10449
-6.22438
-6.22397
-6.16065
-6.06088
-6.01332
-5.97592
-5.90566
-5.91987
-5.7733
-5.73345
-5.44952
-5.14536
-4.50619
-3.90007
-3.19636
-3.53519
-4.03327
-4.62937
-4.95366
-5.22313
-5.30158
-5.38831
-5.3976
-5.2714
-5.20578
-5.09645
-5.13402
-4.99455
-4.98113
-4.9539
-4.79393
-4.38912
-3.94496
-3.30224
-2.77772
-2.97889
-3.46392
-3.91138
-4.24855
-4.45421
-4.52464
-4.51491
-4.4768
-4.37256
-4.34867
-4.30253
-4.24441
-4.26856
-4.21602
-4.13802
-3.97454
-3.66894
-3.34125
-2.85378
-2.38261
-2.44545
-2.79648
-3.16497
-3.50032
-3.61494
-3.69564
-3.66648
-3.7441
-3.60541
-3.527
-3.49886
-3.46625
-3.53362
-3.46103
-3.39482
-3.26573
-3.0085
-2.69415
-2.23379
-1.88976
-1.84772
-2.26104
-2.42445
-2.73075
-2.82346
-2.88693
-2.8736
-2.83695
-2.83085
-2.82249
-2.69121
-2.75207
-2.66235
-2.65095
-2.70728
-2.48274
-2.30773
-2.08243
-1.75864
-1.46786
-1.32089
-1.59413
-1.71503
-1.8958
-1.9878
-1.96529
-2.08369
-2.00866
-2.01648
-1.98056
-1.9281
-1.96748
-1.94711
-1.91025
-1.86431
-1.80457
-1.61033
-1.51035
-1.30563
-0.98092
-0.800624
-0.933578
-1.01477
-1.13893
-1.19156
-1.18365
-1.23625
-1.19428
-1.15723
-1.18042
-1.19173
-1.10878
-1.14797
-1.1166
-1.07266
-1.05813
-1.00176
-0.940388
-0.770762
-0.659687
-0.222571
-0.334531
-0.408614
-0.434017
-0.379947
-0.467697
-0.423264
-0.44626
-0.366619
-0.349528
-0.446789
-0.322525
-0.377291
-0.355759
-0.363008
-0.370399
-0.327916
-0.320587
-0.290865
-0.214179
-4.49552
-5.17203
-5.83122
-6.39302
-6.72044
-6.97126
-7.0294
-6.97107
-6.90598
-6.82337
-6.80543
-6.81119
-6.74165
-6.58597
-6.3943
-6.05402
-5.64411
-5.02649
-4.28276
-3.55632
-3.89293
-4.4517
-4.9912
-5.51251
-5.78706
-6.1089
-6.03934
-6.05614
-6.0323
-5.93817
-5.88888
-5.84338
-5.77895
-5.6927
-5.50201
-5.24238
-4.85311
-4.30878
-3.68179
-3.03295
-3.34599
-3.72597
-4.2871
-4.67204
-4.93643
-5.11266
-5.10107
-5.08093
-5.12088
-4.98498
-4.96709
-4.91336
-4.80265
-4.76092
-4.62881
-4.36223
-4.0888
-3.60497
-3.1299
-2.56397
-2.72595
-3.04794
-3.46835
-3.79043
-3.92552
-4.10482
-4.14665
-4.14283
-4.13183
-4.14123
-4.10457
-4.00591
-4.00115
-3.88946
-3.77947
-3.57995
-3.39218
-2.99266
-2.51706
-2.08295
-2.05597
-2.37923
-2.67644
-2.89291
-3.12974
-3.18937
-3.17606
-3.24636
-3.24564
-3.19604
-3.16052
-3.08029
-3.11241
-2.98014
-2.90109
-2.79972
-2.5556
-2.31517
-1.92335
-1.68581
-1.49054
-1.77314
-1.95151
-2.08171
-2.2663
-2.26796
-2.33066
-2.31756
-2.26196
-2.22775
-2.20894
-2.22087
-2.19181
-2.18294
-2.14231
-2.04848
-1.84874
-1.74211
-1.39089
-1.2304
-0.885112
-1.05191
-1.16434
-1.27357
-1.34503
-1.3889
-1.35836
-1.37852
-1.30571
-1.34779
-1.30722
-1.29138
-1.31464
-1.29403
-1.3026
-1.17366
-1.08528
-0.969685
-0.851999
-0.64959
-0.322144
-0.336981
-0.395265
-0.39283
-0.44258
-0.408942
-0.518911
-0.521365
-0.476927
-0.456925
-0.438697
-0.431093
-0.400007
-0.400832
-0.449594
-0.418064
-0.437896
-0.346747
-0.31099
-0.317303
-4.61815
-5.36426
-6.08014
-6.8085
-7.21729
-7.38813
-7.55758
-7.56766
-7.56647
-7.51526
-7.38066
-7.34923
-7.25362
-7.13167
-6.8269
-6.43328
-5.89294
-5.23402
-4.40675
-3.54533
-4.02958
-4.60187
-5.26714
-5.82526
-6.20906
-6.35188
-6.53263
-6.54363
-6.49146
-6.41118
-6.43652
-6.34101
-6.27907
-6.08307
-5.88318
-5.51897
-5.10899
-4.4669
-3.81684
-3.12204
-3.34361
-3.93572
-4.51921
-4.90305
-5.15506
-5.36666
-5.52039
-5.54364
-5.47299
-5.45349
-5.40673
-5.30491
-5.27357
-5.12945
-4.95442
-4.75871
-4.31116
-3.80731
-3.26121
-2.62923
-2.70447
-3.21611
-3.63906
-4.00663
-4.27432
-4.41305
-4.46585
-4.47946
-4.50967
-4.39489
-4.40696
-4.39933
-4.1903
-4.23149
-4.12087
-3.82801
-3.52392
-3.06557
-2.68821
-2.18766
-2.22555
-2.43727
-2.782
-3.17964
-3.32282
-3.4273
-3.49458
-3.50288
-3.4702
-3.45839
-3.40013
-3.44526
-3.32662
-3.29622
-3.12472
-2.97132
-2.73664
-2.37278
-1.97932
-1.70774
-1.5859
-1.76087
-1.96791
-2.224
-2.34277
-2.47825
-2.49639
-2.50654
-2.48616
-2.46394
-2.43589
-2.38969
-2.39089
-2.26612
-2.23139
-2.0606
-2.00101
-1.72543
-1.34123
-1.26453
-0.876233
-1.11497
-1.19139
-1.28305
-1.31028
-1.44315
-1.55738
-1.49676
-1.46452
-1.54042
-1.48344
-1.42051
-1.39296
-1.41997
-1.33556
-1.26828
-1.14444
-0.977405
-0.892699
-0.788405
-0.230288
-0.369875
-0.415976
-0.426787
-0.407164
-0.465902
-0.453197
-0.472273
-0.53356
-0.505939
-0.483852
-0.436917
-0.436145
-0.466466
-0.414599
-0.426567
-0.414461
-0.283518
-0.321483
-0.206669
-4.5019
-5.29067
-6.10662
-6.7427
-7.26735
-7.6691
-7.83611
-7.88903
-7.92504
-7.90801
-7.87495
-7.70859
-7.55515
-7.36586
-7.06833
-6.54564
-5.91294
-5.28325
-4.22902
-3.42407
-3.91485
-4.57837
-5.20406
-5.85436
-6.32779
-6.53392
-6.7581
-6.81873
-6.91778
-6.8177
-6.64406
-6.64547
-6.48799
-6.39715
-5.96606
-5.63178
-5.14766
-4.45599
-3.70156
-2.94449
-3.34934
-3.84984
-4.46536
-4.89163
-5.36026
-5.56232
-5.71806
-5.73546
-5.71058
-5.77734
-5.69301
-5.56114
-5.49829
-5.30552
-5.09839
-4.78053
-4.27345
-3.78754
-3.11692
-2.57806
-2.7023
-3.1434
-3.64249
-4.0199
-4.33894
-4.58068
-4.67684
-4.73061
-4.70981
-4.60007
-4.6091
-4.60631
-4.49453
-4.3472
-4.09791
-3.83754
-3.46421
-3.03728
-2.60087
-2.03039
-2.10637
-2.4414
-2.82597
-3.09225
-3.33916
-3.55174
-3.69724
-3.63541
-3.61519
-3.67301
-3.54671
-3.52552
-3.48347
-3.38062
-3.20366
-3.01189
-2.68286
-2.33908
-2.00382
-1.60416
-1.49125
-1.76833
-1.94622
-2.159
-2.4375
-2.46367
-2.52326
-2.61962
-2.59427
-2.58541
-2.6282
-2.50895
-2.50415
-2.4061
-2.42003
-2.14417
-1.97114
-1.73324
-1.46985
-1.14223
-0.941973
-1.00118
-1.18672
-1.28673
-1.47027
-1.55806
-1.49585
-1.54379
-1.55601
-1.62154
-1.55103
-1.54205
-1.4813
-1.53687
-1.32219
-1.34999
-1.16946
-1.00306
-0.810477
-0.674939
-0.255349
-0.39139
-0.347985
-0.432732
-0.508254
-0.548132
-0.616844
-0.546842
-0.50942
-0.495367
-0.513472
-0.488606
-0.462856
-0.4663
-0.464709
-0.494766
-0.39842
-0.323192
-0.308471
-0.28538
-4.11459
-4.96826
-5.83903
-6.5211
-7.132
-7.53202
-7.82458
-7.89923
-8.01254
-7.90629
-7.94662
-7.73121
-7.59969
-7.28257
-6.90612
-6.3676
-5.74764
-4.80676
-3.84004
-2.92957
-3.49759
-4.31331
-4.95652
-5.71709
-6.10659
-6.51264
-6.66776
-6.78842
-6.85169
-6.89666
-6.80272
-6.65579
-6.56377
-6.2046
-5.95057
-5.52917
-4.9546
-4.22899
-3.34086
-2.54743
-2.97906
-3.64758
-4.26543
-4.7811
-5.17419
-5.50942
-5.64231
-5.78945
-5.84235
-5.81987
-5.74586
-5.63552
-5.51498
-5.29549
-5.04911
-4.68308
-4.11559
-3.50135
-2.82182
-2.17933
-2.41685
-2.95608
-3.4815
-3.82327
-4.21563
-4.41968
-4.66341
-4.68183
-4.685
-4.76323
-4.68669
-4.67915
-4.55504
-4.3133
-4.01672
-3.74596
-3.33831
-2.87976
-2.25507
-1.74817
-1.8016
-2.30218
-2.72705
-3.0355
-3.26485
-3.5055
-3.5806
-3.63876
-3.7738
-3.61635
-3.72245
-3.55747
-3.47461
-3.36438
-3.09654
-2.91399
-2.62893
-2.14852
-1.77485
-1.34725
-1.32332
-1.64036
-1.93556
-2.10295
-2.34591
-2.47509
-2.56263
-2.6648
-2.62445
-2.58818
-2.59785
-2.54212
-2.41372
-2.40825
-2.28463
-2.13447
-1.81141
-1.60461
-1.29633
-0.952808
-0.760425
-0.922575
-1.20087
-1.2795
-1.41757
-1.479
-1.52138
-1.536
-1.55388
-1.55604
-1.54365
-1.47889
-1.46995
-1.43747
-1.32372
-1.23993
-1.04992
-0.908413
-0.729419
-0.648155
-0.289607
-0.324546
-0.406269
-0.430758
-0.459465
-0.45885
-0.525626
-0.565766
-0.474386
-0.540114
-0.47289
-0.57079
-0.488578
-0.518384
-0.533328
-0.368782
-0.357831
-0.259988
-0.257919
-0.166144
-3.37217
-4.30502
-5.23088
-6.11508
-6.74919
-7.22951
-7.50462
-7.67936
-7.72897
-7.76224
-7.66163
-7.55155
-7.25758
-6.96791
-6.43829
-5.9207
-5.17771
-4.20323
-3.17639
-2.21695
-2.95757
-3.72446
-4.4995
-5.23609
-5.70833
-6.16118
-6.47128
-6.55969
-6.70115
-6.71249
-6.61856
-6.52944
-6.29448
-6.01612
-5.56611
-5.14226
-4.4495
-3.67131
-2.67636
-1.93693
-2.5344
-3.10292
-3.77229
-4.43905
-4.83608
-5.22333
-5.45845
-5.58735
-5.67169
-5.65442
-5.54806
-5.50073
-5.26943
-5.06312
-4.7584
-4.29264
-3.74134
-3.08524
-2.29342
-1.60698
-1.99444
-2.54421
-3.15792
-3.59556
-4.00999
-4.331
-4.49388
-4.55493
-4.59393
-4.57707
-4.57152
-4.49044
-4.29997
-4.12423
-3.85149
-3.5082
-3.04169
-2.48712
-1.84576
-1.37381
-1.52656
-2.00693
-2.45707
-2.78303
-3.08671
-3.24984
-3.43432
-3.52536
-3.61718
-3.57527
-3.52979
-3.47938
-3.37689
-3.16559
-2.93856
-2.60806
-2.27338
-1.93411
-1.44615
-0.969691
-1.23328
-1.40705
-1.74867
-1.95621
-2.10219
-2.43621
-2.41322
-2.47669
-2.57975
-2.51977
-2.61004
-2.40431
-2.37624
-2.30931
-2.09784
-2.00641
-1.74698
-1.33984
-0.923043
-0.72131
-0.755301
-0.817412
-1.01228
-1.18076
-1.34477
-1.42049
-1.39917
-1.49262
-1.53847
-1.50492
-1.51539
-1.48868
-1.44233
-1.39507
-1.31825
-1.0501
-1.02247
-0.870848
-0.550317
-0.41293
-0.163234
-0.250322
-0.422733
-0.381125
-0.466556
-0.47185
-0.5356
-0.484792
-0.541098
-0.507644
-0.561079
-0.5789
-0.483472
-0.4246
-0.400159
-0.369891
-0.345752
-0.328515
-0.164919
-0.165027
-2.36098
-3.38551
-4.38074
-5.31165
-6.01696
-6.53303
-6.82549
-7.0845
-7.21624
-7.28527
-7.12931
-6.89889
-6.72351
-6.33021
-5.77935
-5.14502
-4.25833
-3.32545
-2.25582
-1.17384
-2.07989
-2.86727
-3.7606
-4.48614
-5.20133
-5.57905
-5.91279
-6.13664
-6.27845
-6.2298
-6.20592
-6.0105
-5.776
-5.43562
-4.94763
-4.46254
-3.73192
-2.76186
-1.84914
-0.978273
-1.80519
-2.47462
-3.16126
-3.80557
-4.30257
-4.70187
-4.99076
-5.16521
-5.22359
-5.25161
-5.19989
-5.07782
-4.85829
-4.53781
-4.16275
-3.66503
-3.10988
-2.43522
-1.60843
-0.899126
-1.40557
-1.94122
-2.60917
-3.08467
-3.48845
-3.8231
-4.06691
-4.22786
-4.30424
-4.31634
-4.1978
-4.09489
-4.00102
-3.68199
-3.39859
-3.03765
-2.49332
-1.93168
-1.31806
-0.660863
-1.17754
-1.47884
-2.00553
-2.37292
-2.7314
-3.02739
-3.16606
-3.27956
-3.38321
-3.29277
-3.27703
-3.21656
-3.05131
-2.82567
-2.6214
-2.34939
-1.94855
-1.61308
-0.965826
-0.504395
-0.840259
-1.13364
-1.36892
-1.6489
-1.99612
-2.10645
-2.24838
-2.35368
-2.37959
-2.36084
-2.32274
-2.33928
-2.24049
-2.0219
-1.87255
-1.7345
-1.42502
-1.14351
-0.723499
-0.363814
-0.485858
-0.673432
-0.836031
-1.04756
-1.17677
-1.2274
-1.31679
-1.41969
-1.43215
-1.41364
-1.32617
-1.4121
-1.40889
-1.23
-1.12568
-0.971717
-0.885762
-0.67248
-0.448225
-0.282914
-0.149263
-0.166076
-0.254186
-0.299274
-0.436611
-0.504077
-0.459763
-0.493555
-0.468569
-0.481796
-0.457796
-0.496803
-0.483151
-0.475524
-0.378441
-0.341801
-0.319319
-0.291597
-0.164946
-0.0164909
-1.1221
-2.14635
-3.2242
-4.18613
-4.89374
-5.53425
-5.90251
-6.2062
-6.38468
-6.43769
-6.25536
-6.13233
-5.71686
-5.34421
-4.77447
-4.03295
-3.14517
-2.11666
-0.875735
0.12323
-1.00328
-1.84805
-2.77857
-3.51067
-4.22461
-4.76319
-5.09959
-5.30506
-5.48766
-5.45284
-5.44685
-5.2855
-4.99399
-4.68219
-4.06887
-3.46519
-2.67346
-1.74541
-0.742464
0.156152
-0.728027
-1.43529
-2.25348
-2.99628
-3.55819
-4.00207
-4.32925
-4.56079
-4.59346
-4.60392
-4.49338
-4.3971
-4.17411
-3.8153
-3.46924
-2.87842
-2.25914
-1.5657
-0.610297
0.152906
-0.747485
-1.25149
-1.95622
-2.44957
-2.85342
-3.25117
-3.51547
-3.67121
-3.76364
-3.73685
-3.70616
-3.58167
-3.35897
-3.16079
-2.83761
-2.39349
-1.8502
-1.18472
-0.44491
0.0776647
-0.463167
-0.935323
-1.36745
-1.87326
-2.24178
-2.46819
-2.66902
-2.80734
-2.87316
-2.97443
-2.87248
-2.80109
-2.6646
-2.36547
-2.19523
-1.91391
-1.41081
-0.842427
-0.350983
0.0719186
-0.37701
-0.711715
-0.978478
-1.35168
-1.5177
-1.74683
-1.89796
-2.04723
-2.07246
-2.18907
-2.09235
-1.99777
-1.88798
-1.72785
-1.5831
-1.31352
-0.913276
-0.727808
-0.289044
0.0757712
-0.231523
-0.318045
-0.624905
-0.82523
-0.990554
-1.04746
-1.16294
-1.1723
-1.16049
-1.19427
-1.20366
-1.28119
-1.11577
-1.01309
-0.984361
-0.768279
-0.629987
-0.372053
-0.220861
0.0955058
0.00464599
-0.177419
-0.311768
-0.263867
-0.359283
-0.357588
-0.391706
-0.425417
-0.382518
-0.395451
-0.423703
-0.413139
-0.347309
-0.365757
-0.309145
-0.316437
-0.194871
-0.146005
-0.0230517
-0.00677826
0.541236
-0.561969
-1.69596
-2.72187
-3.52467
-4.16329
-4.61948
-4.97218
-5.1395
-5.18625
-5.0416
-4.80655
-4.54426
-4.07874
-3.4817
-2.60522
-1.67493
-0.467352
0.595956
1.87355
0.432423
-0.49206
-1.48447
-2.29002
-3.00546
-3.55652
-3.96498
-4.2651
-4.37826
-4.46097
-4.40063
-4.17297
-3.92012
-3.44872
-2.93077
-2.17014
-1.36975
-0.424145
0.577177
1.56744
0.356738
-0.340438
-1.24058
-1.90241
-2.54137
-3.04027
-3.39412
-3.58776
-3.72057
-3.75196
-3.67003
-3.56341
-3.27782
-2.92388
-2.48429
-1.83993
-1.15077
-0.379603
0.505674
1.34254
0.289176
-0.268653
-0.929695
-1.56391
-2.02859
-2.45308
-2.74724
-2.87008
-3.06866
-3.02062
-3.01831
-2.81817
-2.68003
-2.36745
-1.98902
-1.5185
-0.974761
-0.216371
0.464178
1.04543
0.239175
-0.244009
-0.736116
-1.23725
-1.65148
-1.89523
-2.09936
-2.20504
-2.31785
-2.40203
-2.32806
-2.14758
-2.04839
-1.83661
-1.51488
-1.18424
-0.697006
-0.214787
0.344747
0.865678
0.171996
-0.161944
-0.584561
-0.85554
-1.14376
-1.36793
-1.52345
-1.59588
-1.66569
-1.73434
-1.62447
-1.54449
-1.51295
-1.33573
-1.1157
-0.838305
-0.523478
-0.0780896
0.275763
0.537432
0.0707653
-0.0536097
-0.305611
-0.503555
-0.703492
-0.779652
-0.88622
-0.892602
-0.999878
-1.00816
-0.961383
-0.915036
-0.894049
-0.786641
-0.652664
-0.492319
-0.242624
-0.0786585
0.159415
0.354511
0.0165846
0.0295303
-0.084426
-0.158006
-0.256915
-0.231559
-0.334802
-0.411658
-0.310588
-0.36476
-0.360797
-0.325727
-0.313427
-0.186677
-0.26993
-0.197313
-0.152618
-0.0522277
0.0434616
0.0721003
2.41032
1.20184
0.135674
-0.995201
-1.83868
-2.55741
-2.99196
-3.4097
-3.58265
-3.61171
-3.55616
-3.33469
-2.946
-2.42652
-1.7222
-0.904577
0.124902
1.27928
2.5351
3.76475
2.11053
1.13625
0.113017
-0.780531
-1.55619
-2.2333
-2.53123
-2.81518
-3.07712
-3.08469
-3.03235
-2.85385
-2.51885
-2.05176
-1.49233
-0.706761
0.109085
1.1794
2.25684
3.17678
1.75662
0.981562
0.078213
-0.693055
-1.30195
-1.79183
-2.19374
-2.44579
-2.66094
-2.6543
-2.48389
-2.41152
-2.09987
-1.78887
-1.20518
-0.588815
0.201072
1.02633
1.92219
2.72724
1.44994
0.822277
0.0808913
-0.491154
-0.964251
-1.42746
-1.76397
-1.93841
-2.10951
-2.13127
-2.05824
-1.90201
-1.72843
-1.37941
-0.960099
-0.485479
0.0978419
0.816244
1.52656
2.24372
1.13554
0.637941
0.0305112
-0.348296
-0.779903
-1.08577
-1.4012
-1.47954
-1.6033
-1.65299
-1.59625
-1.52565
-1.37931
-1.08545
-0.790759
-0.425899
0.0601959
0.653829
1.23641
1.71751
0.803604
0.487148
0.0895944
-0.28387
-0.527007
-0.718407
-0.958657
-1.0392
-1.236
-1.12029
-1.08032
-1.09577
-0.857636
-0.783176
-0.525834
-0.266083
0.0667973
0.454702
0.859287
1.3298
0.515497
0.269823
0.0200629
-0.183529
-0.329206
-0.458837
-0.597376
-0.667805
-0.69047
-0.726269
-0.652604
-0.613404
-0.594542
-0.465139
-0.321143
-0.201235
0.0238232
0.266934
0.575492
0.729254
0.289031
0.0740236
0.0733351
-0.0918889
-0.103628
-0.118882
-0.230711
-0.203234
-0.261776
-0.232979
-0.226657
-0.21738
-0.241819
-0.106676
-0.0436395
-0.0360024
0.0487387
0.0978202
0.208147
0.210642
4.61471
3.40995
2.24381
1.1785
0.214679
-0.534648
-1.10669
-1.50533
-1.71693
-1.74327
-1.66924
-1.49118
-1.00574
-0.390607
0.240766
1.07641
2.16405
3.50925
4.7378
5.99318
3.9387
2.93349
1.94774
1.01794
0.315245
-0.500457
-0.962784
-1.26257
-1.4683
-1.47163
-1.43032
-1.26252
-0.830273
-0.379709
0.213371
1.05359
1.99456
3.03023
4.11166
5.18491
3.28076
2.61543
1.59419
0.857216
0.255922
-0.326875
-0.698255
-1.06762
-1.17217
-1.21097
-1.15469
-1.01892
-0.66111
-0.196035
0.23403
0.886105
1.67971
2.55039
3.51201
4.44342
2.69102
2.09033
1.39542
0.723165
0.148788
-0.20201
-0.599511
-0.806947
-1.02598
-0.959964
-0.980221
-0.760693
-0.545041
-0.189057
0.201498
0.708254
1.38434
2.10368
2.86633
3.54033
2.16539
1.64731
1.0504
0.569983
0.134758
-0.101249
-0.493872
-0.686473
-0.731437
-0.787828
-0.762285
-0.577167
-0.400991
-0.196042
0.190807
0.570061
1.05312
1.61912
2.30296
2.80608
1.54547
1.14977
0.723428
0.40835
0.119347
-0.118146
-0.335142
-0.474077
-0.501754
-0.564105
-0.535499
-0.4096
-0.314064
0.00646304
0.214697
0.406911
0.792705
1.17645
1.57819
2.01827
0.902764
0.687112
0.531501
0.245484
0.0788316
-0.189925
-0.173235
-0.254867
-0.347877
-0.339104
-0.22998
-0.228768
-0.189074
-0.0727499
0.0960656
0.274383
0.462879
0.670129
0.993014
1.1925
0.302597
0.25193
0.170756
0.105699
0.0293769
-0.0105859
-0.0663938
-0.134613
-0.07098
-0.0397831
-0.122914
-0.0764569
-0.038094
-0.0623545
0.0493365
0.0782482
0.170581
0.228387
0.368905
0.380647
7.05197
5.96284
4.63809
3.43929
2.44289
1.69935
1.13058
0.705468
0.417034
0.378469
0.476742
0.736528
1.24353
1.75859
2.49728
3.50019
4.53913
5.82257
7.24041
8.44876
6.17354
5.05122
4.08503
3.04224
2.1817
1.46526
0.989013
0.68912
0.457655
0.363427
0.54337
0.677433
1.10507
1.51594
2.24171
3.07483
3.9304
5.08251
6.25838
7.30156
5.16985
4.34558
3.36266
2.53616
1.9109
1.30328
0.872204
0.545458
0.333588
0.321672
0.403562
0.613116
0.935703
1.35139
1.91506
2.52978
3.3616
4.38964
5.33181
6.17339
4.25942
3.53519
2.80244
2.17745
1.57655
1.01962
0.703577
0.480975
0.374423
0.294582
0.282553
0.52984
0.770696
1.16199
1.60791
2.12818
2.74833
3.57281
4.39684
5.06679
3.34274
2.7627
2.24678
1.64377
1.25555
0.862675
0.606017
0.316372
0.271464
0.224729
0.322734
0.402919
0.531904
0.889204
1.25928
1.66736
2.1953
2.7502
3.38397
3.89117
2.35408
2.01797
1.51425
1.23329
0.922422
0.606112
0.411188
0.23813
0.230228
0.167274
0.179632
0.307098
0.464456
0.6412
0.845358
1.25144
1.57623
1.96338
2.38701
2.78416
1.44666
1.18019
0.955922
0.711052
0.523944
0.41969
0.275512
0.181662
0.0680027
0.139987
0.197824
0.167833
0.24765
0.401317
0.541341
0.711136
0.875917
1.19717
1.48382
1.65435
0.51135
0.304636
0.360661
0.23328
0.206802
0.113144
0.130325
0.0245508
0.0842182
-0.0133461
0.103402
0.0616264
0.03295
0.126696
0.198886
0.307351
0.245474
0.421495
0.523544
0.634948
9.80115
8.50319
7.21111
6.02958
5.01353
4.22403
3.5812
3.24172
2.92144
2.8167
2.98609
3.20986
3.64551
4.263
5.02516
6.06685
7.13217
8.44383
9.9064
11.2387
8.43794
7.37071
6.29435
5.31188
4.384
3.63474
3.14235
2.85807
2.54936
2.44008
2.53991
2.74421
3.18549
3.69543
4.40621
5.16688
6.18881
7.30744
8.56028
9.61995
7.04188
6.21313
5.30738
4.52458
3.67064
3.10464
2.68135
2.34591
2.13594
2.09166
2.18081
2.33837
2.69164
3.13556
3.69092
4.42926
5.18246
6.24209
7.25942
8.1839
5.71796
5.12345
4.27628
3.65377
3.06923
2.56386
2.09032
1.92297
1.73172
1.67221
1.82046
1.94299
2.16972
2.55685
3.0117
3.62215
4.34538
5.0707
5.87466
6.68493
4.44958
4.00253
3.35423
2.78212
2.36083
2.01109
1.69838
1.46987
1.36563
1.34765
1.40489
1.57655
1.76516
2.02466
2.34206
2.82306
3.32742
3.8662
4.55119
5.1663
3.24023
2.84412
2.39657
1.97366
1.64914
1.47235
1.25361
1.10291
0.932867
0.912281
1.04537
1.09745
1.26457
1.36256
1.63657
2.03627
2.32813
2.8225
3.26279
3.68509
1.91088
1.6372
1.4485
1.22857
1.00549
0.870846
0.741716
0.58543
0.621135
0.556156
0.577832
0.673366
0.760278
0.888071
1.03995
1.21402
1.44868
1.67449
1.95515
2.16925
0.675341
0.570484
0.424646
0.437812
0.337141
0.302978
0.26803
0.211112
0.173481
0.182295
0.20919
0.234467
0.231868
0.403712
0.356375
0.412591
0.455073
0.608784
0.699867
0.800728
12.4319
11.208
9.80049
8.66305
7.65385
6.74552
6.15997
5.71143
5.44261
5.32903
5.35988
5.74679
6.14467
6.79436
7.55266
8.63966
9.73781
11.0866
12.5707
13.9374
10.6836
9.65869
8.49587
7.39998
6.53326
5.84259
5.28304
4.87833
4.64286
4.60487
4.63859
4.97166
5.3236
5.81104
6.55006
7.41303
8.49746
9.56939
10.8238
11.906
8.96554
8.08475
7.1467
6.28461
5.5194
4.91384
4.41988
4.13775
3.85472
3.75621
3.89296
4.22027
4.53096
4.93729
5.48969
6.25304
7.08866
8.06995
9.10658
10.0197
7.31941
6.54543
5.83344
5.07611
4.50944
3.97627
3.62404
3.38202
3.19486
3.14069
3.17412
3.35109
3.60675
3.97732
4.52096
5.05746
5.81757
6.5251
7.39129
8.08406
5.67531
5.1057
4.47056
4.04018
3.45909
3.10511
2.77911
2.55789
2.35876
2.43277
2.43472
2.61863
2.84459
3.09007
3.52381
3.96522
4.49254
5.05584
5.70272
6.35329
4.00919
3.69248
3.25847
2.82661
2.51083
2.16111
2.02774
1.85579
1.75273
1.65786
1.77782
1.86767
2.01004
2.19745
2.44567
2.77452
3.23198
3.65572
4.09918
4.54348
2.47008
2.23125
1.88605
1.69596
1.45518
1.32461
1.14544
1.09985
1.03616
0.957303
1.13455
1.07141
1.20252
1.34351
1.54292
1.62972
1.85761
2.18288
2.5374
2.68625
0.707821
0.769852
0.551852
0.52904
0.448334
0.420526
0.404812
0.330621
0.352143
0.270266
0.373746
0.386766
0.346911
0.424894
0.55562
0.575713
0.632436
0.724424
0.798735
0.877295
14.5409
13.3094
11.9883
10.814
9.66653
8.8276
8.17181
7.72932
7.4614
7.4418
7.522
7.76054
8.17401
8.84921
9.64363
10.7305
11.9624
13.1878
14.7172
16.0895
12.4335
11.3321
10.2835
9.1352
8.20673
7.49394
7.0212
6.61259
6.27205
6.23867
6.26173
6.54625
6.91916
7.51664
8.1613
9.12897
10.1934
11.3038
12.5865
13.7043
10.3825
9.52518
8.52024
7.65815
6.83026
6.29856
5.7421
5.45979
5.2139
5.13565
5.24463
5.51359
5.81631
6.13922
6.88243
7.63957
8.46905
9.44669
10.5275
11.4787
8.42721
7.66031
6.91832
6.17128
5.52406
5.02872
4.66064
4.40282
4.23424
4.197
4.1986
4.41911
4.63652
5.03457
5.5945
6.17798
6.86224
7.65098
8.5257
9.17856
6.51852
5.91635
5.31413
4.74046
4.34886
3.8916
3.62792
3.38472
3.23699
3.19323
3.2803
3.3401
3.55359
3.86468
4.32787
4.75782
5.22773
5.89405
6.60719
7.19388
4.63559
4.2664
3.79309
3.33936
3.10548
2.72404
2.50345
2.39507
2.26811
2.2241
2.33474
2.3919
2.50306
2.72737
3.05006
3.36862
3.70259
4.17698
4.74777
5.04751
2.78893
2.48692
2.27385
2.00482
1.93775
1.68697
1.46959
1.45968
1.37803
1.41386
1.3109
1.38728
1.48013
1.65739
1.83254
2.03408
2.23011
2.57667
2.79445
3.00805
0.971209
0.880174
0.780944
0.695126
0.578256
0.557044
0.513116
0.447953
0.482855
0.400174
0.400785
0.5135
0.516287
0.537405
0.5686
0.684408
0.721453
0.818443
0.86082
1.01382
)
;

boundaryField
{
    hotSide
    {
        type            calculated;
        value           nonuniform List<scalar> 
400
(
1.72834
0.772388
-0.274021
-1.32542
-2.13667
-2.71929
-3.13133
-3.23078
-3.0876
-2.66943
-1.89211
-0.841852
0.440398
2.15149
4.07282