/*--------------------------------*- C++ -*----------------------------------*\
| =========                 |                                                 |
| \\      /  F ield         | OpenFOAM: The Open Source CFD Toolbox           |
|  \\    /   O peration     | Version:  2212                                  |
|   \\  /    A nd           | Website:  www.openfoam.com                      |
|    \\/     M anipulation  |                                                 |
\*---------------------------------------------------------------------------*/
FoamFile
{
    version     2.0;
    format      ascii;
    arch        "LSB;label=32;scalar=64";
    class       volScalarField;
    location    "0";
    object      relativeErrorField;
}
// * * * * * * * * * * * * * * * * * * * * * * * * * * * * * * * * * * * * * //

dimensions      [0 0 0 1 0 0 0];

internalField   nonuniform List<scalar> 
3200
(
0.00123171
9.72265e-05
0.0011448
0.00149069
0.00158582
0.00161978
0.000625894
0.000215836
0.000743048
0.000890372
0.000919253
0.000906142
0.000486764
0.000156156
0.000350248
0.000363419
1.97612e-05
0.00056753
0.00176098
0.00296207
0.000673458
0.000185875
0.00117677
0.0017653
0.00163988
0.00146661
0.000957372
0.000428196
0.000106515
0.00056559
0.000735189
0.000454668
0.000308405
0.000192724
0.000346641
0.000458406
0.000357433
0.000213591
0.00121316
0.00233499
0.000511415
0.000516364
0.001501
0.00174847
0.0016826
0.00141679
0.000903326
0.000527963
9.30896e-05
0.000257613
0.000437142
0.000236483
8.04215e-05
0.000332254
0.000514329
0.00062745
0.000342114
6.0788e-05
0.000718563
0.00166857
0.000246759
0.000610825
0.00117792
0.00135887
0.00161205
0.00137686
0.000968399
0.000606554
0.000170781
0.000151994
0.000118922
3.55311e-05
5.8331e-05
0.000333204
0.000513953
0.000423621
0.000469175
0.000126618
0.000625004
0.00146363
2.55263e-05
0.000395835
0.000839896
0.00136553
0.001506
0.00124698
0.000572319
0.000475745
0.000162497
6.81311e-05
8.16204e-05
5.39043e-05
0.000248732
0.000397687
0.000566989
0.000536196
0.000367653
2.24936e-05
0.00038376
0.000711621
7.45603e-06
0.000197955
0.000961922
0.00103485
0.000908488
0.000967903
0.000537697
0.000480465
8.81907e-05
2.39215e-05
0.000109836
5.20979e-05
0.000282724
0.000177319
0.000555037
0.000488948
0.000390686
6.31755e-05
0.000173516
0.000895747
0.00015799
0.000109612
0.000304703
0.000625943
0.000530023
0.000838971
0.000250359
0.000302023
7.94543e-05
5.05249e-05
2.8357e-05
0.000185829
0.000188583
0.000153964
9.63552e-05
0.000168059
6.84084e-05
0.000237684
6.96079e-05
0.000602755
4.24187e-05
3.88182e-05
0.000104939
0.000162982
0.000319916
0.000304735
0.000137495
0.000239323
0.000100509
2.01895e-05
1.82692e-05
3.58543e-05
0.000224832
4.83742e-06
0.000134828
0.000120853
6.2771e-05
8.88642e-05
1.02546e-05
0.000221122
0.00150784
0.00285305
0.00377132
0.00444191
0.00449209
0.00438362
0.00390931
0.00315832
0.00265312
0.00253336
0.00225833
0.00227724
0.0026197
0.00289715
0.00323485
0.0032812
0.00303088
0.00220342
0.000990336
0.000700975
0.00152203
0.00266668
0.00345075
0.00417709
0.00423014
0.0039469
0.00365253
0.00272364
0.00227517
0.00197257
0.00206968
0.00210841
0.00234192
0.00280545
0.00311756
0.00282142
0.00263386
0.00205457
0.000916469
0.000264501
0.00159202
0.00225441
0.0030216
0.00363207
0.00351617
0.00362801
0.00319321
0.00254191
0.00214817
0.00185616
0.00198041
0.0019001
0.00205334
0.00228042
0.00254463
0.00243231
0.00244977
0.00182476
0.000760544
7.33765e-05
0.00132063
0.0019263
0.00231147
0.00304207
0.00301853
0.00300766
0.00274209
0.00242309
0.00189314
0.00176996
0.00156925
0.00168097
0.0018542
0.00189321
0.00236429
0.00229165
0.00196358
0.00141382
0.000747237
0.000136241
0.000987918
0.00164678
0.00192926
0.00269001
0.0026129
0.00246355
0.00191799
0.00209239
0.00138192
0.00130745
0.00116268
0.00111449
0.00158826
0.0018412
0.00170661
0.00176491
0.0016038
0.00133719
0.000826708
6.24153e-05
0.000845426
0.00107959
0.00147697
0.00157414
0.00172498
0.00181785
0.00168005
0.00139693
0.00111062
0.000948216
0.00111187
0.000873362
0.00114392
0.00123549
0.00151942
0.00146644
0.00103475
0.000690612
0.000528037
0.000179905
0.000465245
0.000835088
0.00104861
0.000958392
0.00102799
0.00110937
0.00092831
0.000912927
0.000663996
0.00062405
0.000565959
0.00052531
0.00039812
0.000821823
0.000927257
0.000900217
0.00062568
0.000418825
0.000200354
4.97716e-05
8.89413e-05
0.000140327
0.000313267
0.00036466
0.000402074
0.000260141
0.000397625
0.000277086
0.000281184
0.000272561
0.000300858
3.52584e-05
8.48263e-05
0.000339649
0.000643123
0.000164898
0.00049584
0.000279094
0.000155098
3.06194e-05
0.00450963
0.00595742
0.00701569
0.00785433
0.00812089
0.00810048
0.00765426
0.00723648
0.0066238
0.00623065
0.00615916
0.00620683
0.00654826
0.00662142
0.00684546
0.00678199
0.00624186
0.0054717
0.00398052
0.00237974
0.00410045
0.00520304
0.00640246
0.0069304
0.0071488
0.00708046
0.00693155
0.00641302
0.00598629
0.00574237
0.00527184
0.00552027
0.00559661
0.00606275
0.00598857
0.00594754
0.00545578
0.00498835
0.00358536
0.00222817
0.00348277
0.0045527
0.00538105
0.00600248
0.00632181
0.00617071
0.00573168
0.00551173
0.00488541
0.00484407
0.00484347
0.0047694
0.00489777
0.0050782
0.00536941
0.00513432
0.00475484
0.00405973
0.00317101
0.00193247
0.00314994
0.00403241
0.00459725
0.00498185
0.0053065
0.0052264
0.00508756
0.00472594
0.00414087
0.00414347
0.00382767
0.00388084
0.0042093
0.00415996
0.00433356
0.00425098
0.00397872
0.00329358
0.00256166
0.00175442
0.00228686
0.00299772
0.00370992
0.00387267
0.00423025
0.00416944
0.00394915
0.00379606
0.00351911
0.00308939
0.00323904
0.00302133
0.00344003
0.00330669
0.00326787
0.00367705
0.00309538
0.00271645
0.00211786
0.00123003
0.00169633
0.00216666
0.00257202
0.00286144
0.00301724
0.00298378
0.00291834
0.00267516
0.00242189
0.00236972
0.00243642
0.0023846
0.00239972
0.00259672
0.00262369
0.00251016
0.00231416
0.00196068
0.00152401
0.000877995
0.00128697
0.00137323
0.00161285
0.00170837
0.00185121
0.00170225
0.00173446
0.00170132
0.00138482
0.00147343
0.00136585
0.00168886
0.00158564
0.00161072
0.00177422
0.00141329
0.0013382
0.00115011
0.000929748
0.000538593
0.000565534
0.000444464
0.000587415
0.000562719
0.000456151
0.000655048
0.000556703
0.000545585
0.000523355
0.000644672
0.000484184
0.000532432
0.00041158
0.000642375
0.000321159
0.000502322
0.000275848
0.000436448
0.000339356
0.000147459
0.00752509
0.00918214
0.0102205
0.0112192
0.0115259
0.0115997
0.01137
0.0110417
0.0105003
0.0100347
0.0101149
0.0100597
0.01027
0.0104074
0.0103728
0.0101146
0.00955497
0.00851869
0.0067875
0.00510748
0.00667079
0.00808685
0.00909531
0.00984885
0.010248
0.0102887
0.010198
0.00965619
0.00923124
0.00913939
0.00882182
0.00877099
0.00896334
0.0092101
0.00914381
0.00893243
0.00838203
0.00719123
0.00594614
0.00450803
0.00572161
0.00691668
0.0079122
0.0084078
0.00885059
0.00875622
0.00852622
0.00844224
0.00784262
0.00773778
0.00772682
0.00768726
0.00788962
0.00797152
0.00775675
0.00781776
0.00703863
0.0064196
0.00522707
0.00396428
0.0047636
0.00555728
0.00638621
0.00689614
0.00736116
0.0074594
0.00742356
0.00711075
0.00674549
0.00652704
0.00638629
0.00646343
0.00653798
0.00664673
0.00671558
0.00624893
0.00594013
0.00530395
0.00421907
0.00325525
0.00390297
0.004566
0.00525436
0.00572479
0.00600471
0.00578734
0.00564562
0.00556872
0.00527576
0.00537392
0.00515397
0.00513111
0.00524446
0.00504251
0.00515451
0.00495869
0.00486887
0.00401635
0.00321884
0.00262077
0.00271454
0.00327396
0.00388169
0.00425738
0.00439188
0.00410077
0.00416539
0.0039467
0.00406617
0.00354821
0.0036845
0.00356834
0.00366361
0.00364363
0.00385379
0.00363432
0.003519
0.00304243
0.00251565
0.00182988
0.00177464
0.00218767
0.00229945
0.00270506
0.00272834
0.00252227
0.00246956
0.0023553
0.00235144
0.00216246
0.00244601
0.00246032
0.00228202
0.00226894
0.00239747
0.00214246
0.00219424
0.00180094
0.00130907
0.00108263
0.000695693
0.000515693
0.000812961
0.000892767
0.000832395
0.00115672
0.000760732
0.000981427
0.00067147
0.0008372
0.000748169
0.000724783
0.000663368
0.000834165
0.000914258
0.000669121
0.000750248
0.00057696
0.000471591
0.000498411
0.00985288
0.0112845
0.0130882
0.0141235
0.014634
0.0149062
0.0146052
0.0144724
0.0140682
0.0134632
0.0133989
0.0134901
0.0134841
0.0135908
0.013301
0.0127677
0.0122243
0.0109322
0.00909934
0.0074824
0.00881895
0.0101753
0.0114949
0.0124842
0.0129822
0.0131235
0.0128385
0.0126396
0.0125158
0.0120933
0.0118524
0.0120921
0.0119021
0.0120446
0.0117016
0.0114029
0.0106564
0.00970825
0.00809692
0.00656095
0.00748857
0.00853035
0.00977914
0.0106042
0.0111508
0.0112456
0.0111029
0.0109284
0.0104844
0.010233
0.0103263
0.0101935
0.0103075
0.0104637
0.0102773
0.00979893
0.00912441
0.00829145
0.00688854
0.00568603
0.00615568
0.00723842
0.00824654
0.00893867
0.00932085
0.00944538
0.00929723
0.00930673
0.00885261
0.00878498
0.00868781
0.00855734
0.00862654
0.00863126
0.00857489
0.00816752
0.00776602
0.00695308
0.00570593
0.00474723
0.0049479
0.00578786
0.00658983
0.00735232
0.00721453
0.007523
0.00726312
0.00740779
0.00706755
0.00682355
0.00666916
0.00692244
0.00683602
0.00667782
0.00668318
0.00675462
0.00594492
0.00550241
0.00459139
0.00372247
0.0036016
0.00437781
0.00477523
0.00506606
0.00531854
0.00534449
0.00519569
0.005269
0.00514313
0.00497243
0.00498648
0.00491489
0.00498528
0.00504405
0.00490241
0.00469387
0.00461281
0.00412571
0.00338747
0.00269014
0.00228702
0.00251268
0.0029891
0.00317373
0.00332146
0.00332419
0.00324599
0.00320757
0.00326071
0.00335205
0.00297577
0.00315098
0.00295252
0.00286346
0.00286076
0.00292623
0.00262875
0.00251598
0.00210333
0.00169014
0.000537744
0.000885275
0.00109068
0.0010751
0.0012207
0.00120151
0.00133979
0.00131794
0.00117959
0.00136519
0.00114568
0.00130453
0.000679075
0.00116307
0.00108445
0.00116992
0.000828992
0.00086603
0.000730204
0.000819335
0.0115265
0.0134598
0.0150668
0.0164842
0.0171762
0.0174761
0.017441
0.0172355
0.0169365
0.0167933
0.0166888
0.0165027
0.0165619
0.0161781
0.0160977
0.0153333
0.0145094
0.0127346
0.011044
0.00906572
0.0102292
0.0116543
0.013353
0.014261
0.0150075
0.0152042
0.0154264
0.0154308
0.0150544
0.0148589
0.0145469
0.0146621
0.0142785
0.0142607
0.0142071
0.0137743
0.0126358
0.0113789
0.00954198
0.00803746
0.0087975
0.010218
0.0115203
0.0124927
0.0130753
0.0132605
0.0132123
0.0130846
0.0127684
0.0126927
0.0125581
0.0123943
0.0124759
0.0123376
0.0121274
0.0116673
0.0107883
0.00984107
0.00841815
0.00703651
0.00737456
0.00842505
0.00952305
0.0105175
0.0108467
0.0110737
0.0109727
0.0111934
0.0107707
0.0105324
0.0104483
0.010355
0.0105642
0.0103579
0.0101723
0.00979888
0.00903975
0.00810642
0.00672979
0.0056988
0.00569233
0.00696043
0.00745593
0.00838868
0.0086638
0.00884898
0.00879941
0.00868005
0.0086562
0.00862796
0.00822667
0.00841532
0.00814584
0.00811763
0.00829829
0.00761828
0.00708918
0.00640413
0.00541382
0.0045221
0.00415919
0.00501682
0.00539336
0.00595704
0.00624104
0.00616549
0.00653221
0.0062932
0.00631496
0.00620104
0.0060368
0.0061615
0.00610038
0.00598848
0.00584868
0.00566575
0.00506003
0.00474967
0.0041089
0.0030887
0.00257798
0.00300508
0.00326494
0.00366262
0.00382995
0.00380268
0.00396991
0.0038337
0.00371379
0.00378767
0.00382397
0.0035583
0.00368506
0.00358568
0.00344609
0.00340107
0.00322151
0.00302563
0.00248099
0.00212416
0.00073325
0.00110197
0.00134579
0.00142922
0.00125095
0.00153961
0.00139312
0.00146863
0.00120642
0.00115012
0.00147016
0.00106132
0.00124165
0.00117094
0.00119498
0.00121952
0.00107983
0.00105587
0.00095813
0.000705602
0.0127126
0.0146034
0.016433
0.0179793
0.0188608
0.0195255
0.0196526
0.01946
0.0192573
0.0190161
0.0189661
0.018993
0.0188196
0.0184129
0.0179096
0.0169905
0.0158731
0.0141652
0.0120925
0.0100567
0.0112347
0.0128304
0.0143611
0.0158322
0.0165902
0.0174818
0.017255
0.0172798
0.0171952
0.0169183
0.0167779
0.0166567
0.0164889
0.0162646
0.0157451
0.0150287
0.0139384
0.0123975
0.0106114
0.00875286
0.0098592
0.0109666
0.0125999
0.0137097
0.0144625
0.0149559
0.0149013
0.0148253
0.0149294
0.0145268
0.0144747
0.0143244
0.0140133
0.0139076
0.0135405
0.0127802
0.0119982
0.0105951
0.0092122
0.00755494
0.00820486
0.00916561
0.0104172
0.0113697
0.0117593
0.0122806
0.0123914
0.012368
0.0123266
0.0123501
0.0122408
0.0119509
0.011945
0.0116228
0.0113072
0.0107241
0.0101751
0.00898848
0.00756917
0.00626949
0.00632436
0.00731348
0.00821916
0.00887469
0.00959107
0.00976389
0.00971411
0.00992153
0.00991379
0.00975946
0.00965099
0.00940875
0.00951214
0.0091149
0.00888135
0.00857973
0.00783992
0.00710974
0.00591217
0.00518572
0.00468825
0.0055742
0.00613063
0.00653468
0.00710865
0.00710853
0.00730013
0.00725503
0.00707809
0.00696956
0.0069107
0.00694952
0.00686136
0.00683744
0.00671472
0.00642541
0.00580336
0.0054728
0.00437251
0.00387
0.0028481
0.00338373
0.0037438
0.0040931
0.00432069
0.00445957
0.00435972
0.00442287
0.00418824
0.00432264
0.00419254
0.00414227
0.00421793
0.00415323
0.00418248
0.00377021
0.00348796
0.0031179
0.00274067
0.00209024
0.00106104
0.00110979
0.00130155
0.00129332
0.00145687
0.00134593
0.00170762
0.0017155
0.00156914
0.00150327
0.0014433
0.00141834
0.00131618
0.00131905
0.00147972
0.00137617
0.00144169
0.00114178
0.00102419
0.00104509
0.0130139
0.0150946
0.0170781
0.019087
0.0201938
0.0206332
0.0210708
0.0210694
0.021045
0.0208916
0.0205174
0.0204408
0.0201951
0.0198834
0.0190658
0.0180001
0.0165204
0.0147015
0.0124002
0.00999069
0.0115933
0.0132233
0.0151108
0.0166835
0.0177521
0.0181305
0.0186186
0.0186268
0.0184619
0.0182251
0.0182972
0.0180341
0.0178738
0.0173373
0.0167926
0.0157791
0.0146321
0.012815
0.0109675
0.00898224
0.00982599
0.0115538
0.0132486
0.0143527
0.0150679
0.015664
0.016092
0.0161425
0.0159245
0.0158614
0.0157254
0.0154354
0.015356
0.0149524
0.0144608
0.0139094
0.01262
0.0111616
0.00957372
0.00772663
0.00812211
0.0096503
0.0109069
0.0119938
0.0127792
0.0131782
0.0133215
0.0133502
0.0134315
0.0130853
0.0131212
0.0131029
0.0124884
0.0126224
0.0123057
0.0114449
0.0105488
0.00918807
0.00806628
0.00657003
0.0068339
0.00747891
0.00852901
0.00973852
0.010167
0.0104767
0.0106732
0.010691
0.0105858
0.0105469
0.0103693
0.0105097
0.010153
0.0100674
0.00955179
0.00909151
0.00838173
0.00727442
0.00607369
0.00524387
0.00498174
0.00552861
0.00617457
0.00697311
0.00734018
0.00775924
0.00781114
0.00783878
0.00777216
0.00770117
0.00761351
0.00747057
0.00747711
0.00709062
0.00698634
0.00645609
0.00627393
0.00541376
0.00421107
0.00397222
0.00281729
0.0035838
0.00382787
0.00412054
0.00420613
0.00463067
0.00499529
0.00479932
0.00469486
0.00493758
0.00475492
0.00455377
0.00446649
0.00455455
0.00428546
0.00407131
0.00367541
0.00314036
0.00286936
0.0025349
0.000758289
0.00121779
0.00136939
0.00140477
0.00133997
0.00153305
0.00149104
0.00155364
0.00175511
0.00166418
0.00159153
0.00143721
0.00143479
0.0015347
0.00136424
0.00140382
0.00136419
0.000933337
0.00105846
0.000680518
0.0126356
0.0148293
0.0170874
0.0188333
0.0202621
0.0213454
0.0217764
0.0218954
0.0219751
0.0219174
0.0218258
0.0213749
0.0209687
0.0204695
0.0196733
0.0182499
0.0165157
0.0147835
0.0118536
0.00961043
0.0112234
0.0131103
0.0148797
0.0167124
0.0180351
0.0185941
0.0192057
0.019356
0.0196212
0.0193292
0.0188369
0.0188489
0.0184171
0.0181799
0.0169781
0.0160514
0.014695
0.0127408
0.0105995
0.00844149
0.00981278
0.0112679
0.0130527
0.014279
0.0156253
0.016193
0.0166266
0.0166608
0.0165769
0.0167645
0.0165198
0.0161431
0.0159718
0.015427
0.0148424
0.0139354
0.0124745
0.0110714
0.00912279
0.00755312
0.00809488
0.00940853
0.0108907
0.0120052
0.0129431
0.0136491
0.0139217
0.0140702
0.0140001
0.0136697
0.0136965
0.0136925
0.0133681
0.0129405
0.0122105
0.0114474
0.0103457
0.00908115
0.00778468
0.00608215
0.00645483
0.00747669
0.00864704
0.00945315
0.0101986
0.0108383
0.0112733
0.0110776
0.0110108
0.0111842
0.0107996
0.0107377
0.0106146
0.0103079
0.0097761
0.00919903
0.00820163
0.00715724
0.00613662
0.00491583
0.00467746
0.00554395
0.00609789
0.00676004
0.00762689
0.00770382
0.00788558
0.0081828
0.00810083
0.00807171
0.0082053
0.00783439
0.0078221
0.00751945
0.00756735
0.00670907
0.00617181
0.00543059
0.00460817
0.00358274
0.0030259
0.00321516
0.00380955
0.00412888
0.00471587
0.00499548
0.00479432
0.00494651
0.00498459
0.00519397
0.00496811
0.00493988
0.00474629
0.00492578
0.00423925
0.00433009
0.00375259
0.00321999
0.00260275
0.0021681
0.000840545
0.00128824
0.00114522
0.00142392
0.00167219
0.00180314
0.00202893
0.0017985
0.0016753
0.00162902
0.00168856
0.00160685
0.00152228
0.00153376
0.00152871
0.00162781
0.00131102
0.00106363
0.00101531
0.000939399
0.0114965
0.0138641
0.0162683
0.0181384
0.0198046
0.0208823
0.0216627
0.0218438
0.0221387
0.0218357
0.0219471
0.0213614
0.0210155
0.0201621
0.019147
0.0176819
0.015987
0.0133923
0.0107158
0.00818546
0.00998723
0.012303
0.0141179
0.0162603
0.0173425
0.0184697
0.0188858
0.0192077
0.0193725
0.0194921
0.0192266
0.0188186
0.0185721
0.017574
0.0168757
0.0157026
0.0140916
0.0120457
0.00952924
0.00727409
0.00869789
0.0106398
0.0124272
0.0139117
0.0150363
0.0159911
0.016359
0.0167706
0.016913
0.0168423
0.0166282
0.0163143
0.0159755
0.0153534
0.014655
0.0136091
0.0119753
0.010201
0.00823112
0.00636292
0.00721893
0.0088228
0.0103806
0.0113874
0.0125426
0.0131364
0.0138482
0.0138925
0.0138944
0.0141225
0.0138956
0.0138771
0.0135162
0.0128085
0.0119387
0.0111452
0.00994299
0.00858641
0.00673056
0.00522165
0.00550823
0.00703446
0.00832603
0.00925988
0.00995106
0.0106759
0.0108967
0.0110671
0.0114729
0.0109918
0.0113143
0.0108152
0.0105678
0.0102387
0.00943042
0.00888164
0.00801964
0.00655971
0.00542316
0.00411909
0.00414377
0.00513429
0.00605472
0.00657423
0.00732922
0.0077282
0.0079973
0.00831252
0.00818408
0.00806965
0.00809981
0.00792734
0.00752931
0.0075155
0.00713351
0.00666863
0.00566282
0.00501946
0.00405746
0.00298357
0.00244019
0.00295973
0.00385117
0.00410175
0.00454263
0.00473775
0.00487189
0.00491737
0.00497369
0.00498008
0.00494042
0.00473366
0.00470592
0.00460318
0.00424031
0.00397336
0.00336578
0.00291325
0.00234006
0.00207991
0.000952979
0.00106785
0.00133657
0.00141695
0.00151118
0.00150897
0.00172838
0.00186019
0.00155964
0.00177568
0.00155467
0.00187659
0.0016064
0.00170457
0.0017539
0.00121293
0.00117706
0.000855328
0.000848628
0.000546713
0.00937486
0.0119541
0.0145038
0.0169294
0.0186564
0.0199552
0.0206879
0.0211473
0.021268
0.0213512
0.0210744
0.0207798
0.0199859
0.0192084
0.0177713
0.0163662
0.0143343
0.0116544
0.00882017
0.00616328
0.00840769
0.010577
0.0127615
0.0148304
0.0161461
0.0174047
0.0182598
0.018492
0.0188782
0.0189036
0.0186391
0.0183945
0.0177443
0.0169755
0.0157237
0.0145449
0.0126025
0.0104126
0.0076005
0.00550625
0.0073712
0.00901688
0.0109498
0.01287
0.0140047
0.0151094
0.0157739
0.0161333
0.0163674
0.0163127
0.0160058
0.015874
0.0152153
0.0146314
0.0137645
0.012431
0.0108472
0.00895552
0.00666455
0.00467384
0.00593808
0.0075695
0.00938668
0.010677
0.0118959
0.0128363
0.013308
0.0134796
0.0135884
0.0135352
0.0135188
0.0132823
0.0127251
0.0122133
0.0114151
0.0104073
0.00903224
0.00739277
0.00549149
0.00409028
0.00465535
0.00611682
0.00748326
0.00846934
0.00938616
0.00987488
0.0104285
0.0106992
0.0109736
0.0108443
0.0107064
0.0105556
0.0102486
0.0096125
0.00892903
0.00793066
0.00691836
0.00589053
0.00440765
0.00295714
0.00385456
0.00439589
0.00546024
0.00610475
0.00655652
0.00759418
0.00751891
0.00771358
0.00803227
0.00784439
0.00812541
0.00748603
0.00740073
0.00719515
0.00653943
0.00625781
0.00545179
0.00418367
0.00288376
0.00225443
0.00242095
0.00261937
0.00324273
0.00378109
0.00430479
0.00454564
0.0044761
0.00477387
0.00491969
0.00481193
0.00484541
0.00476046
0.00461304
0.00446298
0.00421848
0.0033615
0.00327423
0.00278968
0.00176347
0.00132355
0.000536923
0.000823309
0.00139021
0.00125322
0.00153395
0.00155118
0.00176057
0.00159343
0.00177839
0.00166838
0.001844
0.00190263
0.00158909
0.0013957
0.0013155
0.00121613
0.00113691
0.00108036
0.000542419
0.000542819
0.00652742
0.00934972
0.0120819
0.0146286
0.0165481
0.0179439
0.0187253
0.0194175
0.0197652
0.0199473
0.0195203
0.018896
0.018428
0.0173666
0.0158738
0.01415
0.0117277
0.00917145
0.00622986
0.00324533
0.00588371
0.0081034
0.0106155
0.0126477
0.0146459
0.0156912
0.0166127
0.0172272
0.0176147
0.0174728
0.0174058
0.016863
0.0162147
0.015272
0.0139154
0.0125656
0.0105213
0.0077962
0.00522601
0.00276739
0.00522806
0.00716103
0.00913864
0.0109893
0.0124112
0.0135494
0.014369
0.0148604
0.0150205
0.0150971
0.0149484
0.0146014
0.0139773
0.0130649
0.0119958
0.0105722
0.00898038
0.00703981
0.00465446
0.00260398
0.00416996
0.00575528
0.00772895
0.0091292
0.0103149
0.0112949
0.0120062
0.0124737
0.0126935
0.0127263
0.0123768
0.0120762
0.0118044
0.0108698
0.0100407
0.00898197
0.00737908
0.00572207
0.00390776
0.00196061
0.00358084
0.00449471
0.00609134
0.00720199
0.00828406
0.00917557
0.00959012
0.00992905
0.0102393
0.0099638
0.00991618
0.00973493
0.00923803
0.00855906
0.00794508
0.00712547
0.00591401
0.00489935
0.00293548
0.00153383
0.00262076
0.00353446
0.0042659
0.00513563
0.00621383
0.00655403
0.00699256
0.00731744
0.00739608
0.00733684
0.00721843
0.0072708
0.00696552
0.00628819
0.00582626
0.00539941
0.00443835
0.00356346
0.00225572
0.00113473
0.00155531
0.00215527
0.00267484
0.00335052
0.00376256
0.00392324
0.00420784
0.00453563
0.00457474
0.00451525
0.00423584
0.00451067
0.00450112
0.0039305
0.0035981
0.00310693
0.00283301
0.00215156
0.00143451
0.000905656
0.000490752
0.000545986
0.000835567
0.000983668
0.00143491
0.00165646
0.0015107
0.00162162
0.00153944
0.00158285
0.001504
0.0016322
0.00158743
0.00156249
0.00124361
0.00112332
0.00104955
0.000958545
0.000542273
5.42194e-05
0.00308355
0.00589228
0.00884028
0.011463
0.0133837
0.0151175
0.0161066
0.0169209
0.017397
0.017536
0.0170393
0.0167094
0.0155867
0.0145831
0.013042
0.0110296
0.0086125
0.00580357
0.00240412
0.00033864
0.00282294
0.00519536
0.00780277
0.00984734
0.0118366
0.0133316
0.0142599
0.0148233
0.0153253
0.0152238
0.0152071
0.0147607
0.0139541
0.0130927
0.0113883
0.00970888
0.00749899
0.00490145
0.00208726
0.000439369
0.00209869
0.00413445
0.00648518
0.00861428
0.0102198
0.0114842
0.0124131
0.0130684
0.0131559
0.0131827
0.0128662
0.0125935
0.0119604
0.0109395
0.00995525
0.00826737
0.00649501
0.00450584
0.001758
0.000440784
0.00220898
0.00369617
0.00577295
0.00722284
0.00840677
0.00957128
0.0103424
0.0107946
0.0110621
0.0109811
0.0108909
0.0105272
0.00987651
0.00929891
0.00835377
0.00705171
0.00545554
0.00349618
0.001314
0.000229516
0.0014041
0.00283408
0.00414085
0.00566876
0.00677951
0.00745963
0.00806224
0.00847635
0.00867239
0.00897661
0.00866893
0.00845485
0.00804537
0.0071453
0.00663467
0.00578797
0.0042693
0.00255099
0.0010635
0.000218022
0.00117321
0.00221401
0.00304246
0.00420084
0.00471455
0.00542385
0.00589076
0.00635203
0.00642885
0.00678978
0.00648979
0.00619716
0.00585791
0.00536281
0.00491547
0.00408028
0.00283833
0.00226303
0.000899161
0.000235792
0.000740107
0.00101647
0.00199663
0.0026359
0.00316302
0.00334379
0.00371154
0.00374068
0.00370248
0.00380995
0.0038399
0.00408755
0.00356029
0.00323329
0.00314237
0.00245326
0.00201226
0.00118874
0.00070587
0.000305302
1.52678e-05
0.000582999
0.00102437
0.000866891
0.00118024
0.00117457
0.00128652
0.00139714
0.0012562
0.00129864
0.00139142
0.00135676
0.00114063
0.00120129
0.00101544
0.00103949
0.000640218
0.000479726
7.57478e-05
2.2275e-05
0.00147762
0.0015328
0.00462059
0.00740694
0.0095806
0.0113044
0.0125313
0.0134779
0.0139239
0.0140467
0.0136549
0.0130219
0.0123179
0.0110644
0.0094537
0.00708138
0.00455794
0.00127328
0.0016255
0.00511494
0.00120967
0.00137539
0.00414519
0.00638793
0.00837509
0.00990129
0.0110292
0.0118561
0.0121649
0.0123916
0.012224
0.0115945
0.0108971
0.00959319
0.00815924
0.00604737
0.00382088
0.00118437
0.00161331
0.00438479
0.0010232
0.000975786
0.00355275
0.00544317
0.00726493
0.00868399
0.00968767
0.0102344
0.0106088
0.0106961
0.0104625
0.0101607
0.00935024
0.00834549
0.00709592
0.00525976
0.00329259
0.0010871
0.0014494
0.00385069
0.000850975
0.000790136
0.00273235
0.0045928
0.00595302
0.00719375
0.00805149
0.00840737
0.00898594
0.00884367
0.00883693
0.00825243
0.00785065
0.00693842
0.00583287
0.00445615
0.00286262
0.000635907
0.00136519
0.00307646
0.000722623
0.000736901
0.00222177
0.00373204
0.00497857
0.00571024
0.0063222
0.00663781
0.0069755
0.00722777
0.00700521
0.00646305
0.00616625
0.00553092
0.00456426
0.00357002
0.00210245
0.000648276
0.00104113
0.00261548
0.00053391
0.000502547
0.00181325
0.00265262
0.00354472
0.00423772
0.00471783
0.0049407
0.00515577
0.00536768
0.00502766
0.00478063
0.00468394
0.0041365
0.00345634
0.00259805
0.00162305
0.000242226
0.000855752
0.0016683
0.000225869
0.000171078
0.000975004
0.00160607
0.00224316
0.00248538
0.00282448
0.00284431
0.00318574
0.00321192
0.0030629
0.00291543
0.00284892
0.00250711
0.00208057
0.00156981
0.000773841
0.000250947
0.000508722
0.00113153
5.44723e-05
9.69859e-05
0.000277255
0.000518843
0.000843549
0.00076023
0.0010991
0.00135133
0.00101951
0.0011973
0.00118429
0.0010692
0.00102887
0.000612832
0.000886206
0.000647852
0.000501148
0.000171516
0.00014274
0.000236814
0.00653423
0.00325534
0.000367112
0.00268999
0.00496475
0.00689882
0.00806431
0.00918404
0.00964529
0.00972114
0.00957164
0.00897774
0.00793507
0.00654026
0.00464578
0.00244251
0.000337605
0.00346152
0.00686666
0.010206
0.00586729
0.00315646
0.000313669
0.00216426
0.00431103
0.00618154
0.00700095
0.00778164
0.0085021
0.00852115
0.00837656
0.00788519
0.00696255
0.00567481
0.00413061
0.00195791
0.000302471
0.00327335
0.00626941
0.00883147
0.00501119
0.00279839
0.000222806
0.00197269
0.00370287
0.00509237
0.00623056
0.00694275
0.00755074
0.00753045
0.00704701
0.00684299
0.0059608
0.00508067
0.0034251
0.00167464
0.000572326
0.00292371
0.0054801
0.00778011
0.0042475
0.00240755
0.000236686
0.00143611
0.00281754
0.00416842
0.00514829
0.00565491
0.00615216
0.00621464
0.00600168
0.00554701
0.00504235
0.00402592
0.00280365
0.00141857
0.000286085
0.00238831
0.00446962
0.00657281
0.0034184
0.00191966
9.17644e-05
0.00104694
0.00234305
0.00326036
0.00420566
0.00443924
0.0048094
0.00495782
0.00478763
0.00457649
0.0041385
0.00325796
0.00237449
0.00127952
0.000180943
0.00196643
0.00372055
0.00517036
0.00248792
0.00150774
0.000277191
0.000877891
0.00162917
0.00222005
0.00296152
0.00320952
0.0038166
0.003459
0.00333559
0.0033836
0.00264876
0.00241942
0.00162495
0.000822558
0.000206576
0.00140678
0.00265952
0.004117
0.00164267
0.000859651
6.39047e-05
0.000584434
0.00104808
0.00146045
0.00190102
0.00212481
0.00219668
0.00231043
0.00207609
0.0019515
0.00189171
0.00148021
0.00102217
0.000640661
7.58632e-05
0.000850245
0.00183351
0.00232382
0.000948788
0.000242978
0.000240699
0.000301569
0.000340069
0.000390096
0.000756993
0.000666799
0.000858839
0.000764346
0.000743607
0.000713185
0.000793396
0.000350019
0.000143197
0.000118146
0.000159955
0.000321063
0.00068323
0.000691464
0.012417
0.00916817
0.00602717
0.00316254
0.000575563
0.00143219
0.00296232
0.00402696
0.0045911
0.00466052
0.00446261
0.00398743
0.0026905
0.00104556
0.00064495
0.00288591
0.00580732
0.00942631
0.0127383
0.0161261
0.0108772
0.00809573
0.00537082
0.00280453
0.000867815
0.00137662
0.00264659
0.0034688
0.00403253
0.0040409
0.00392746
0.00346737
0.00228111
0.00104378
0.000586924
0.00290035
0.00549522
0.00835575
0.0113472
0.0143188
0.00930545
0.00741408
0.00451587
0.00242644
0.000723891
0.00092397
0.0019726
0.00301466
0.00330881
0.00341776
0.00325891
0.00287623
0.00186679
0.000553806
0.000661528
0.0025064
0.00475458
0.00722452
0.00995566
0.0126032
0.00784514
0.00609107
0.00406368
0.00210466
0.000432763
0.000587235
0.0017419
0.0023437
0.00297904
0.00278696
0.00284577
0.00220875
0.00158302
0.000549311
0.000585746
0.00206001
0.00402892
0.00612627
0.00835228
0.0103211
0.00649354
0.00493807
0.00314722
0.00170694
0.000403365
0.000302931
0.00147705
0.00205243
0.00218638
0.00235467
0.00227833
0.00172524
0.00119889
0.000586314
0.000570879
0.00170634
0.00315381
0.00485123
0.00690349
0.00841485
0.00477116
0.00354859
0.00223196
0.0012594
0.000367949
0.000364127
0.00103261
0.00146035
0.00154536
0.00173725
0.00164915
0.00126153
0.000967445
1.99134e-05
0.000661698
0.00125452
0.0024448
0.00362964
0.00487086
0.00623079
0.00287168
0.00218533
0.00169005
0.000780401
0.000250552
0.00060352
0.000550388
0.000809626
0.00110497
0.00107705
0.000730456
0.000726644
0.000600623
0.000231135
0.000305266
0.000872079
0.00147151
0.00213085
0.00315824
0.00379332
0.000992722
0.000826451
0.000560118
0.00034669
9.63481e-05
3.47164e-05
0.000217724
0.000441412
0.000232744
0.000130447
0.000403029
0.000250703
0.000124915
0.000204478
0.000161798
0.000256632
0.000559501
0.000749163
0.00121018
0.00124878
0.0188269
0.015908
0.0123632
0.00915971
0.00650061
0.00451854
0.0030042
0.00187358
0.00110715
0.00100457
0.00126541
0.00195534
0.00330257
0.00467294
0.00664023
0.00931413
0.0120889
0.0155205
0.0193164
0.022556
0.016931
0.0138445
0.0111879
0.00832549
0.00596604
0.00400414
0.00270108
0.00188116
0.00124889
0.000991581
0.00148254
0.00184864
0.00301661
0.00414018
0.00612597
0.00840839
0.0107561
0.0139197
0.0171531
0.0200246
0.0145757
0.0122453
0.00946934
0.00713708
0.00537403
0.00366304
0.00245017
0.00153165
0.000936449
0.000902864
0.00113271
0.00172114
0.00262747
0.00379628
0.00538253
0.0071145
0.00945998
0.0123614
0.0150244
0.017405
0.012355
0.0102498
0.00812085
0.00630619
0.00456339
0.00294984
0.00203463
0.00139041
0.00108213
0.000851267
0.000816506
0.0015313
0.00222794
0.00336028
0.00465184
0.00616013
0.00795953
0.0103532
0.0127481
0.0146969
0.0099838
0.00824857
0.00670525
0.00490341
0.00374368
0.00257121
0.00180561
0.000942356
0.000808434
0.000669188
0.000961021
0.00119991
0.00158435
0.00264936
0.00375331
0.00497159
0.00654863
0.00820763
0.0101035
0.0116218
0.00724601
0.00620989
0.00465829
0.00379268
0.00283578
0.0018628
0.0012634
0.000731518
0.000707143
0.000513741
0.000551696
0.000943249
0.00142678
0.00197013
0.00259809
0.00384726
0.00484734
0.00603996
0.00734553
0.00856984
0.0045934
0.00374673
0.00303413
0.00225644
0.00166234
0.00133133
0.000873829
0.000576096
0.000215634
0.000443872
0.000627265
0.000532193