/*--------------------------------*- C++ -*----------------------------------*\
| =========                 |                                                 |
| \\      /  F ield         | OpenFOAM: The Open Source CFD Toolbox           |
|  \\    /   O peration     | Version:  2212                                  |
|   \\  /    A nd           | Website:  www.openfoam.com                      |
|    \\/     M anipulation  |                                                 |
\*---------------------------------------------------------------------------*/
FoamFile
{
    version     2.0;
    format      ascii;
    arch        "LSB;label=32;scalar=64";
    class       volScalarField;
    location    "0";
    object      T;
}
// * * * * * * * * * * * * * * * * * * * * * * * * * * * * * * * * * * * * * //

dimensions      [0 0 0 1 0 0 0];

internalField   nonuniform List<scalar> 
3200
(
341.378
342.265
342.946
343.785
344.27
344.838
345.317
345.81
346.199
346.196
346.283
346.033
345.779
345.457
344.725
343.915
343.313
342.277
341.418
340.828
335.942
336.675
337.296
337.972
338.379
338.89
339.283
339.731
340.078
340.06
340.184
339.917
339.725
339.445
338.771
338.048
337.547
336.633
335.877
335.439
330.454
331.086
331.625
332.175
332.512
332.946
333.283
333.672
333.94
333.9
334.031
333.815
333.654
333.417
332.81
332.195
331.777
330.995
330.36
329.985
324.998
325.474
325.972
326.358
326.65
326.962
327.246
327.57
327.809
327.766
327.88
327.715
327.582
327.362
326.849
326.369
325.972
325.37
324.866
324.537
319.498
319.835
320.297
320.538
320.782
320.989
321.219
321.452
321.638
321.639
321.732
321.591
321.478
321.292
320.897
320.575
320.185
319.704
319.361
319.094
313.962
314.162
314.532
314.711
314.846
314.99
315.214
315.299
315.475
315.451
315.559
315.466
315.384
315.262
314.918
314.718
314.443
314.064
313.883
313.687
308.387
308.483
308.73
308.845
308.928
308.993
309.136
309.161
309.277
309.258
309.347
309.299
309.253
309.159
308.94
308.871
308.643
308.453
308.362
308.27
302.804
302.845
302.911
302.965
302.997
303.009
303.06
303.056
303.105
303.111
303.155
303.109
303.098
303.064
302.992
302.993
302.876
302.848
302.819
302.768
342.351
343.144
344.138
345.008
345.667
346.067
346.68
346.984
347.272
347.255
347.412
347.43
346.903
346.643
345.722
345.175
344.549
343.643
342.518
341.871
336.75
337.398
338.261
339.031
339.578
339.917
340.463
340.688
340.992
340.932
341.061
341.079
340.615
340.432
339.531
339.1
338.525
337.814
336.793
336.287
331.122
331.642
332.361
332.982
333.484
333.797
334.266
334.442
334.685
334.66
334.726
334.763
334.362
334.222
333.417
333.058
332.534
331.94
331.116
330.722
325.496
325.905
326.45
326.987
327.39
327.668
328.066
328.174
328.393
328.387
328.411
328.462
328.109
328.033
327.349
327.018
326.558
326.124
325.395
325.134
319.816
320.111
320.566
320.992
321.304
321.556
321.842
321.922
322.085
322.136
322.116
322.162
321.884
321.838
321.257
320.997
320.608
320.292
319.711
319.565
314.145
314.304
314.694
314.967
315.194
315.426
315.613
315.68
315.789
315.842
315.828
315.831
315.627
315.595
315.184
314.958
314.706
314.474
314.048
313.977
308.472
308.567
308.825
308.971
309.112
309.283
309.373
309.422
309.492
309.512
309.554
309.492
309.369
309.322
309.115
308.978
308.826
308.694
308.443
308.383
302.809
302.862
302.952
302.983
303.045
303.089
303.143
303.156
303.181
303.167
303.199
303.166
303.153
303.106
303.054
303.002
302.956
302.922
302.82
302.827
343.61
344.46
345.569
346.37
347.04
347.736
348.435
348.642
348.76
349.094
349.136
348.974
348.414
348.068
347.337
346.732
345.919
345.01
343.949
343.115
337.785
338.515
339.468
340.17
340.743
341.332
341.985
342.102
342.245
342.575
342.541
342.333
341.864
341.622
340.954
340.397
339.681
338.937
338.037
337.334
331.954
332.589
333.396
333.965
334.446
334.938
335.573
335.608
335.697
336.091
335.956
335.729
335.395
335.182
334.625
334.131
333.506
332.893
332.145
331.553
326.139
326.655
327.305
327.818
328.204
328.549
329.153
329.105
329.18
329.562
329.373
329.166
328.974
328.756
328.323
327.937
327.324
326.86
326.27
325.781
320.332
320.726
321.273
321.684
321.955
322.181
322.648
322.636
322.682
323.044
322.868
322.668
322.541
322.366
322.032
321.754
321.246
320.875
320.38
320.037
314.489
314.821
315.201
315.525
315.725
315.866
316.185
316.174
316.222
316.457
316.366
316.199
316.14
315.959
315.75
315.561
315.185
314.946
314.521
314.273
308.704
308.898
309.122
309.312
309.448
309.514
309.719
309.714
309.744
309.903
309.82
309.744
309.711
309.568
309.469
309.356
309.125
308.971
308.722
308.535
302.911
302.976
303.071
303.124
303.173
303.194
303.269
303.253
303.282
303.328
303.27
303.257
303.237
303.212
303.169
303.132
303.062
302.995
302.923
302.854
345.044
346.241
347.233
347.97
348.681
349.371
350.018
350.415
350.667
350.705
350.762
350.448
349.991
349.645
349.085
348.366
347.496
346.656
345.518
344.415
339.057
340.086
340.928
341.54
342.118
342.789
343.372
343.639
343.869
343.912
343.881
343.669
343.309
342.934
342.473
341.842
341.135
340.406
339.355
338.436
333.079
333.884
334.589
335.125
335.594
336.183
336.698
336.909
337.075
337.143
337.086
336.917
336.632
336.266
335.895
335.381
334.801
334.125
333.216
332.464
327.086
327.687
328.227
328.703
329.087
329.599
330.028
330.185
330.316
330.364
330.3
330.207
329.986
329.637
329.354
328.929
328.448
327.893
327.124
326.539
321.063
321.475
321.917
322.28
322.591
323.028
323.345
323.473
323.573
323.619
323.562
323.481
323.367
323.026
322.8
322.461
322.127
321.683
321.068
320.624
315.066
315.311
315.654
315.922
316.139
316.471
316.671
316.775
316.845
316.899
316.862
316.753
316.716
316.419
316.222
316.041
315.794
315.493
315.017
314.731
309.031
309.163
309.417
309.558
309.714
309.885
310.028
310.097
310.101
310.138
310.14
310.08
310.063
309.848
309.725
309.649
309.51
309.286
308.992
308.857
303.015
303.05
303.166
303.203
303.256
303.295
303.373
303.396
303.399
303.392
303.413
303.411
303.383
303.307
303.266
303.234
303.187
303.111
302.99
302.972
346.595
347.489
348.758
349.489
350.325
351.24
351.793
352.262
352.41
352.356
352.384
352.117
351.642
351.387
350.809
349.936
349.099
348.435
346.99
345.866
340.381
341.187
342.228
342.835
343.582
344.372
344.845
345.26
345.42
345.312
345.328
345.106
344.661
344.457
343.979
343.183
342.451
341.905
340.614
339.707
334.17
334.854
335.704
336.18
336.856
337.493
337.953
338.254
338.419
338.32
338.33
338.096
337.761
337.56
337.194
336.509
335.904
335.369
334.259
333.566
327.938
328.535
329.144
329.558
330.143
330.631
331.049
331.253
331.422
331.315
331.322
331.113
330.847
330.688
330.412
329.892
329.375
328.892
327.993
327.436
321.727
322.209
322.657
322.952
323.451
323.792
324.145
324.289
324.441
324.339
324.381
324.16
323.968
323.784
323.662
323.228
322.873
322.47
321.728
321.327
315.522
315.869
316.155
316.42
316.753
317.019
317.216
317.332
317.458
317.372
317.408
317.221
317.149
316.97
316.87
316.586
316.338
316.015
315.528
315.251
309.323
309.54
309.693
309.862
310.052
310.229
310.33
310.392
310.473
310.425
310.464
310.318
310.327
310.169
310.092
309.937
309.811
309.596
309.345
309.15
303.129
303.208
303.267
303.301
303.381
303.425
303.462
303.479
303.504
303.48
303.515
303.468
303.455
303.4
303.388
303.327
303.305
303.213
303.138
303.085
348.107
349.07
350.283
351.141
352.014
352.779
353.174
353.66
353.966
354.054
353.891
353.783
353.292
353.071
352.251
351.457
350.694
349.761
348.344
347.329
341.68
342.545
343.596
344.246
344.999
345.683
346.037
346.435
346.716
346.773
346.626
346.571
346.1
345.911
345.237
344.51
343.866
343.011
341.795
340.966
335.236
336.023
336.873
337.406
338.016
338.625
338.927
339.258
339.497
339.542
339.396
339.315
338.959
338.792
338.241
337.602
337.058
336.318
335.286
334.624
328.793
329.466
330.105
330.53
331.056
331.604
331.817
332.097
332.286
332.35
332.258
332.174
331.832
331.704
331.321
330.73
330.271
329.697
328.882
328.294
322.414
322.917
323.427
323.72
324.145
324.611
324.691
324.956
325.102
325.126
325.065
325.015
324.745
324.664
324.363
323.853
323.502
323.065
322.45
322.014
316.005
316.347
316.71
316.904
317.247
317.614
317.656
317.801
317.898
317.943
317.902
317.902
317.676
317.611
317.4
317.027
316.784
316.442
316.063
315.743
309.629
309.84
310.035
310.117
310.358
310.585
310.594
310.692
310.721
310.786
310.733
310.765
310.639
310.559
310.458
310.198
310.042
309.855
309.654
309.467
303.238
303.31
303.361
303.378
303.47
303.55
303.534
303.579
303.581
303.617
303.589
303.62
303.558
303.553
303.52
303.415
303.376
303.29
303.236
303.172
349.589
350.504
351.806
352.663
353.507
354.287
354.757
355.248
355.457
355.781
355.715
355.509
354.952
354.37
353.778
352.923
352.239
351.156
349.848
348.866
342.976
343.781
344.849
345.635
346.316
347.014
347.388
347.848
348.023
348.269
348.21
348.024
347.503
346.99
346.52
345.79
345.181
344.227
343.103
342.254
336.333
337.033
337.911
338.586
339.147
339.779
340.061
340.496
340.607
340.794
340.727
340.544
340.138
339.706
339.334
338.692
338.152
337.327
336.442
335.721
329.754
330.308
331.002
331.571
331.993
332.512
332.778
333.148
333.171
333.323
333.316
333.16
332.786
332.475
332.132
331.636
331.185
330.459
329.788
329.2
323.212
323.599
324.13
324.586
324.847
325.315
325.463
325.79
325.793
325.852
325.925
325.754
325.45
325.255
325.003
324.639
324.236
323.608
323.119
322.702
316.6
316.87
317.275
317.534
317.737
318.116
318.184
318.42
318.422
318.443
318.534
318.356
318.148
318.028
317.864
317.637
317.297
316.822
316.465
316.201
310.008
310.133
310.415
310.535
310.664
310.873
310.916
311.061
311.057
311.077
311.147
311
310.876
310.817
310.74
310.598
310.402
310.091
309.873
309.728
303.348
303.39
303.49
303.529
303.563
303.643
303.652
303.7
303.702
303.685
303.714
303.681
303.631
303.617
303.6
303.558
303.495
303.365
303.294
303.256
350.949
352.022
353.163
354.311
355.149
355.873
356.395
356.922
357.092
357.376
357.184
356.928
356.372
356.062
355.314
354.613
353.606
352.622
351.387
350.213
344.193
345.081
346.028
347.022
347.788
348.401
348.835
349.243
349.43
349.646
349.502
349.265
348.733
348.462
347.851
347.223
346.321
345.528
344.434
343.46
337.447
338.126
338.928
339.787
340.434
340.95
341.31
341.601
341.816
341.941
341.815
341.669
341.194
340.952
340.464
339.873
339.129
338.483
337.487
336.76
330.677
331.226
331.828
332.529
333.043
333.508
333.816
334.035
334.207
334.245
334.141
334.097
333.713
333.479
333.083
332.539
331.979
331.411
330.61
330.09
323.844
324.297
324.78
325.318
325.743
326.051
326.291
326.462
326.613
326.601
326.502
326.543
326.203
325.996
325.726
325.336
324.859
324.367
323.791
323.395
317.036
317.374
317.71
318.067
318.422
318.596
318.782
318.883
319.046
318.973
318.892
318.931
318.711
318.554
318.398
318.104
317.763
317.334
317.012
316.713
310.241
310.462
310.642
310.832
311.059
311.183
311.267
311.335
311.44
311.409
311.335
311.386
311.208
311.117
311.037
310.903
310.664
310.372
310.243
310.034
303.432
303.504
303.563
303.635
303.709
303.726
303.782
303.798
303.846
303.815
303.781
303.802
303.733
303.713
303.695
303.658
303.562
303.468
303.432
303.342
352.382
353.393
354.679
355.719
356.51
357.199
357.94
358.452
358.582
358.855
358.745
358.408
358.083
357.615
356.978
356.141
355.04
353.872
352.662
351.573
345.421
346.26
347.37
348.259
348.914
349.534
350.196
350.609
350.719
350.923
350.882
350.582
350.243
349.866
349.293
348.549
347.578
346.586
345.546
344.665
338.418
339.132
340.085
340.863
341.345
341.932
342.457
342.747
342.893
343.041
343.047
342.762
342.455
342.121
341.649
341
340.179
339.314
338.44
337.752
331.39
332.058
332.786
333.484
333.818
334.29
334.712
334.908
335.064
335.15
335.209
334.966
334.684
334.411
334.033
333.479
332.81
332.109
331.377
330.856
324.396
324.919
325.539
326.033
326.309
326.671
326.966
327.101
327.281
327.296
327.43
327.148
326.931
326.718
326.453
325.997
325.499
324.941
324.375
323.971
317.363
317.754
318.271
318.598
318.819
319.057
319.24
319.333
319.491
319.449
319.62
319.367
319.187
319.064
318.896
318.551
318.168
317.8
317.408
317.099
310.428
310.629
311.016
311.147
311.312
311.471
311.574
311.615
311.668
311.64
311.788
311.659
311.512
311.444
311.36
311.146
310.9
310.647
310.464
310.269
303.49
303.542
303.692
303.72
303.796
303.855
303.868
303.887
303.884
303.897
303.961
303.924
303.88
303.842
303.807
303.737
303.656
303.57
303.512
303.446
353.538
354.668
355.85
357
358.017
358.732
359.267
359.846
359.873
360.279
360.295
359.775
359.48
358.979
358.251
357.42
356.275
355.012
353.798
352.818
346.401
347.397
348.391
349.34
350.244
350.804
351.286
351.808
351.831
352.175
352.16
351.709
351.423
351.03
350.387
349.656
348.661
347.571
346.507
345.646
339.276
340.124
340.912
341.757
342.473
342.936
343.346
343.798
343.812
344.099
344.039
343.718
343.442
343.133
342.544
341.923
341.113
340.187
339.249
338.559
332.187
332.841
333.46
334.166
334.684
335.098
335.444
335.844
335.84
336.019
335.984
335.761
335.492
335.264
334.81
334.242
333.58
332.803
332.047
331.519
325.071
325.582
326.046
326.591
326.966
327.279
327.565
327.906
327.926
327.968
327.95
327.8
327.597
327.406
327.054
326.596
326.128
325.497
324.959
324.516
317.923
318.287
318.603
319.027
319.225
319.45
319.718
319.932
319.958
319.949
319.901
319.873
319.694
319.539
319.32
319.012
318.663
318.197
317.869
317.516
310.792
310.94
311.199
311.436
311.53
311.646
311.836
311.953
311.977
311.965
311.927
311.951
311.84
311.724
311.623
311.453
311.219
310.916
310.747
310.531
303.633
303.67
303.763
303.837
303.862
303.902
303.969
304.009
304.019
304.006
303.989
304.01
303.986
303.948
303.915
303.855
303.773
303.68
303.611
303.526
354.906
355.946
356.959
358.258
359.287
359.669
360.55
361.07
361.261
361.501
361.355
361.132
360.95
360.36
359.588
358.811
357.698
356.294
355.147
353.959
347.581
348.45
349.308
350.475
351.318
351.657
352.429
352.834
352.973
353.227
353.091
352.89
352.719
352.262
351.566
350.866
349.909
348.699
347.696
346.661
340.247
340.976
341.668
342.704
343.414
343.719
344.338
344.698
344.729
344.971
344.847
344.665
344.584
344.234
343.545
342.97
342.166
341.165
340.275
339.424
332.912
333.484
334.07
334.959
335.533
335.781
336.26
336.575
336.592
336.744
336.668
336.467
336.462
336.166
335.608
335.143
334.455
333.657
332.918
332.219
325.552
326.056
326.503
327.162
327.591
327.834
328.248
328.422
328.468
328.565
328.488
328.333
328.409
328.149
327.664
327.323
326.796
326.148
325.609
325.057
318.248
318.622
318.913
319.438
319.684
319.911
320.211
320.291
320.325
320.411
320.348
320.181
320.283
320.118
319.733
319.5
319.177
318.662
318.263
317.916
310.958
311.19
311.345
311.672
311.793
311.967
312.112
312.193
312.161
312.265
312.205
312.099
312.183
312.088
311.846
311.714
311.548
311.154
310.966
310.774
303.663
303.754
303.798
303.92
303.944
303.997
304.058
304.089
304.078
304.085
304.1
304.071
304.098
304.066
303.978
303.928
303.87
303.742
303.692
303.618
356.106
356.87
358.197
359.475
360.462
361.152
361.869
362.283
362.42
362.666
362.69
362.479
361.983
361.48
360.738
359.818
358.723
357.584
356.139
355.213
348.656
349.253
350.354
351.516
352.359
352.956
353.587
353.892
354.014
354.22
354.243
354.054
353.614
353.219
352.554
351.768
350.802
349.815
348.567
347.774
341.171
341.657
342.521
343.617
344.271
344.794
345.355
345.587
345.661
345.825
345.847
345.652
345.362
344.989
344.418
343.734
342.949
342.08
341.044
340.358
333.654
334.017
334.776
335.693
336.232
336.673
337.082
337.28
337.342
337.474
337.476
337.253
337.094
336.791
336.302
335.747
335.16
334.368
333.529
333.014
326.189
326.417
327.054
327.762
328.144
328.516
328.817
328.964
329.03
329.14
329.113
328.939
328.822
328.575
328.243
327.779
327.364
326.699
326.005
325.72
318.719
318.836
319.316
319.821
320.106
320.364
320.604
320.679
320.723
320.807
320.799
320.672
320.568
320.418
320.138
319.823
319.54
319.059
318.566
318.363
311.203
311.301
311.601
311.895
312.095
312.234
312.363
312.404
312.426
312.462
312.484
312.4
312.345
312.249
312.091
311.914
311.733
311.471
311.136
311.02
303.735
303.767
303.917
303.977
304.062
304.106
304.142
304.171
304.171
304.172
304.186
304.171
304.139
304.113
304.048
303.97
303.951
303.823
303.716
303.675
356.779
358.033
359.167
360.377
361.644
362.311
362.904
363.251
363.615
363.83
363.982
363.823
363.028
362.788
361.969
360.858
359.732
358.668
357.404
356.237
349.216
350.251
351.203
352.269
353.368
353.938
354.459
354.724
355.032
355.214
355.34
355.268
354.576
354.354
353.63
352.622
351.621
350.739
349.664
348.68
341.653
342.529
343.272
344.227
345.139
345.617
346.027
346.254
346.474
346.679
346.699
346.698
346.151
345.957
345.332
344.458
343.551
342.858
341.983
341.11
334.06
334.803
335.377
336.191
336.855
337.308
337.601
337.782
337.962
338.181
338.173
338.13
337.715
337.622
337.103
336.336
335.599
335.023
334.325
333.557
326.472
327.045
327.514
328.191
328.608
329.041
329.181
329.36
329.512
329.711
329.676
329.628
329.337
329.276
328.827
328.296
327.661
327.226
326.671
326.06
318.921
319.338
319.648
320.194
320.402
320.774
320.797
320.943
321.051
321.259
321.214
321.178
320.964
320.953
320.591
320.25
319.741
319.439
319.075
318.552
311.357
311.612
311.789
312.129
312.246
312.488
312.466
312.562
312.616
312.771
312.739
312.704
312.604
312.588
312.36
312.204
311.857
311.685
311.483
311.125
303.79
303.89
303.956
304.068
304.094
304.188
304.186
304.197
304.199
304.289
304.269
304.262
304.233
304.215
304.166
304.101
303.969
303.91
303.858
303.735
357.661
358.87
360.211
361.235
362.501
363.151
364.258
364.406
364.852
365.026
365.122
364.838
364.24
363.742
362.788
361.855
360.855
359.641
358.263
357.168
350.015
350.981
352.15
353.04
354.095
354.648
355.583
355.745
356.103
356.242
356.349
356.097
355.584
355.18
354.335
353.499
352.6
351.568
350.421
349.486
342.302
343.128
344.096
344.86
345.714
346.21
346.979
347.133
347.399
347.518
347.59
347.344
346.986
346.615
345.933
345.176
344.442
343.577
342.605
341.867
334.617
335.318
336.065
336.691
337.381
337.81
338.407
338.546
338.686
338.867
338.907
338.67
338.419
338.059
337.552
336.909
336.321
335.609
334.839
334.25
326.949
327.478
328.037
328.548
329.06
329.368
329.842
329.962
330.072
330.24
330.242
330.057
329.939
329.58
329.161
328.68
328.231
327.667
327.094
326.622
319.297
319.663
320.02
320.41
320.772
320.995
321.311
321.402
321.466
321.587
321.603
321.452
321.405
321.097
320.778
320.502
320.18
319.729
319.371
318.967
311.631
311.806
312.049
312.251
312.476
312.596
312.815
312.837
312.861
312.96
312.95
312.838
312.87
312.669
312.466
312.306
312.115
311.846
311.66
311.385
303.9
303.972
304.05
304.092
304.179
304.207
304.31
304.314
304.303
304.338
304.348
304.293
304.302
304.263
304.153
304.13
304.052
303.983
303.914
303.79
358.481
359.569
360.923
362.056
363.208
364.064
364.944
365.418
365.747
365.943
366.035
365.716
365.273
364.707
363.708
362.594
361.733
360.528
359.128
357.783
350.698
351.608
352.738
353.704
354.701
355.461
356.214
356.626
356.886
357.064
357.168
356.849
356.452
355.924
355.089
354.098
353.36
352.378
351.111
350.013
342.918
343.656
344.572
345.409
346.251
346.89
347.554
347.898
348.067
348.199
348.375
348.059
347.721
347.212
346.553
345.656
345.056
344.285
343.2
342.254
335.149
335.744
336.45
337.157
337.846
338.318
338.902
339.125
339.322
339.409
339.565
339.284
339.005
338.581
338.027
337.324
336.801
336.218
335.288
334.53
327.392
327.778
328.352
328.878
329.445
329.782
330.272
330.395
330.553
330.602
330.777
330.554
330.327
329.998
329.504
329.043
328.595
328.2
327.398
326.82
319.623
319.841
320.249
320.61
321.101
321.231
321.61
321.708
321.801
321.8
321.985
321.833
321.627
321.39
321.026
320.785
320.411
320.148
319.531
319.163
311.823
311.945
312.149
312.377
312.691
312.752
312.955
313.042
313.037
313.052
313.23
313.073
312.95
312.84
312.569
312.498
312.259
312.118
311.718
311.537
303.974
304.013
304.075
304.137
304.263
304.273
304.334
304.385
304.364
304.38
304.426
304.383
304.327
304.325
304.211
304.176
304.103
304.057
303.927
303.864
359.202
360.152
361.814
362.899
363.894
364.882
365.797
366
366.436
366.576
366.42
366.532
365.962
365.379
364.538
363.428
362.421
361.323
359.846
358.428
351.294
352.082
353.538
354.47
355.337
356.163
356.921
357.123
357.497
357.622
357.47
357.532
357.068
356.534
355.828
354.906
354.014
353.01
351.776
350.567
343.38
344.054
345.268
346.032
346.808
347.437
348.047
348.311
348.608
348.714
348.574
348.592
348.223
347.77
347.197
346.408
345.633
344.763
343.702
342.713
335.458
336.032
337.007
337.676
338.327
338.768
339.263
339.478
339.748
339.849
339.72
339.711
339.427
339.041
338.55
337.943
337.303
336.577
335.666
334.95
327.613
328.012
328.764
329.292
329.803
330.158
330.448
330.65
330.912
330.981
330.92
330.889
330.657
330.338
329.941
329.479
328.979
328.42
327.683
327.184
319.709
320.003
320.498
320.915
321.29
321.537
321.742
321.854
322.076
322.123
322.108
322.071
321.873
321.616
321.376
321.082
320.695
320.292
319.776
319.422
311.82
311.998
312.288
312.575
312.782
312.911
313.064
313.114
313.216
313.3
313.305
313.276
313.103
312.951
312.814
312.683
312.425
312.156
311.884
311.665
303.964
304.026
304.115
304.21
304.294
304.308
304.362
304.403
304.412
304.466
304.446
304.459
304.375
304.342
304.282
304.251
304.16
304.073
303.997
303.917
359.76
360.998
362.331
363.742
364.687
365.508
366.338
366.876
367.155
367.35
367.148
367.187
366.654
366.149
365.038
364.16
362.878
361.725
360.475
359.028
351.791
352.85
353.996
355.183
356.027
356.69
357.417
357.866
358.116
358.326
358.085
358.147
357.657
357.239
356.25
355.474
354.388
353.397
352.324
351.103
343.865
344.675
345.667
346.65
347.368
347.913
348.581
348.855
349.12
349.304
349.053
349.14
348.746
348.359
347.512
346.849
345.953
345.162
344.21
343.223
335.886
336.49
337.376
338.109
338.723
339.17
339.723
339.859
340.178
340.301
340.095
340.101
339.851
339.58
338.789
338.306
337.553
336.947
336.134
335.328
327.899
328.328
329.076
329.651
330.109
330.445
330.862
330.938
331.236
331.298
331.135
331.132
330.973
330.81
330.136
329.779
329.173
328.708
328.039
327.43
319.922
320.219
320.791
321.194
321.509
321.711
322.051
322.078
322.264
322.36
322.251
322.188
322.123
322.015
321.512
321.288
320.818
320.45
320.006
319.564
311.985
312.137
312.487
312.683
312.911
313.041
313.252
313.238
313.359
313.441
313.376
313.278
313.27
313.217
312.876
312.804
312.495
312.252
311.994
311.746
304.024
304.072
304.202
304.258
304.322
304.382
304.426
304.431
304.489
304.522
304.515
304.432
304.451
304.441
304.311
304.284
304.176
304.104
303.996
303.918
360.188
361.488
362.926
364.333
365.281
366.047
366.61
367.27
367.591
367.831
367.808
367.874
367.218
366.569
365.823
364.781
363.588
362.217
360.852
359.548
352.197
353.24
354.516
355.658
356.496
357.181
357.719
358.21
358.486
358.67
358.701
358.697
358.139
357.587
356.951
356.041
354.97
353.774
352.595
351.534
344.187
345.048
346.115
347.065
347.755
348.346
348.839
349.211
349.484
349.575
349.619
349.573
349.088
348.646
348.075
347.354
346.446
345.42
344.38
343.539
336.201
336.836
337.726
338.46
338.993
339.51
339.96
340.269
340.505
340.556
340.556
340.501
340.137
339.777
339.26
338.691
337.976
337.123
336.219
335.566
328.204
328.657
329.347
329.859
330.287
330.67
331.079
331.329
331.515
331.563
331.525
331.447
331.197
330.913
330.485
330.08
329.514
328.865
328.119
327.639
320.171
320.495
320.978
321.324
321.64
321.901
322.217
322.378
322.473
322.555
322.489
322.43
322.252
322.098
321.736
321.457
321.083
320.652
320.066
319.701
312.151
312.334
312.633
312.785
313
313.132
313.332
313.462
313.454
313.515
313.509
313.471
313.353
313.266
313.05
312.889
312.682
312.394
312.023
311.783
304.078
304.16
304.244
304.285
304.357
304.409
304.463
304.521
304.509
304.538
304.516
304.51
304.487
304.429
304.366
304.333
304.265
304.147
304.021
303.938
360.584
361.822
363.377
364.666
365.625
366.444
367.212
367.662
367.988
368.263
368.233
368.149
367.576
366.808
366.249
365.341
363.945
362.535
361.151
359.586
352.516
353.541
354.897
356.02
356.819
357.532
358.175
358.544
358.853
359.031
359.041
358.951
358.427
357.817
357.305
356.532
355.318
354.085
352.91
351.518
344.441
345.322
346.441
347.357
348.04
348.622
349.167
349.445
349.796
349.859
349.878
349.803
349.369
348.848
348.441
347.762
346.764
345.719
344.71
343.522
336.391
337.103
337.941
338.718
339.257
339.747
340.206
340.365
340.726
340.703
340.757
340.688
340.317
339.911
339.609
339.034
338.23
337.37
336.524
335.588
328.302
328.868
329.49
330.029
330.485
330.889
331.232
331.35
331.69
331.589
331.664
331.601
331.294
331.028
330.787
330.339
329.677
329.063
328.374
327.682
320.209
320.603
321.083
321.432
321.756
322.089
322.279
322.386
322.649
322.526
322.579
322.525
322.355
322.174
322.019
321.677
321.193
320.749
320.243
319.779
312.136
312.392
312.665
312.88
313.067
313.268
313.37
313.463
313.637
313.536
313.543
313.516
313.41
313.296
313.261
313.006
312.737
312.45
312.142
311.892
304.078
304.142
304.233
304.321
304.353
304.444
304.464
304.49
304.6
304.528
304.548
304.487
304.512
304.454
304.432
304.357
304.26
304.17
304.054
303.99
360.706
361.984
363.6
364.872
366.004
366.89
367.535
368.02
368.171
368.595
368.469
368.534
367.766
367.07
366.471
365.375
364.013
362.626
361.368
359.828
352.67
353.731
355.074
356.148
357.179
357.947
358.469
358.779
358.932
359.321
359.236
359.281
358.624
358.022
357.479
356.547
355.332
354.18
353.021
351.712
344.573
345.463
346.589
347.446
348.401
349.017
349.454
349.603
349.79
350.123
350.04
350.106
349.528
349.015
348.595
347.74
346.729
345.795
344.758
343.684
336.488
337.206
338.142
338.759
339.583
340.133
340.427
340.507
340.68
340.965
340.854
340.991
340.461
340.04
339.756
339.019
338.205
337.435
336.498
335.633
328.395
328.959
329.657
330.139
330.765
331.191
331.441
331.462
331.629
331.841
331.716
331.874
331.419
331.13
330.935
330.341
329.701
329.078
328.353
327.655
320.315
320.73
321.176
321.53
321.998
322.295
322.435
322.46
322.632
322.763
322.666
322.789
322.437
322.237
322.083
321.723
321.203
320.763
320.21
319.711
312.18
312.447
312.692
312.929
313.21
313.395
313.455
313.517
313.601
313.673
313.634
313.67
313.501
313.354
313.25
313.047
312.746
312.47
312.091
311.83
304.076
304.176
304.241
304.306
304.444
304.475
304.505
304.55
304.557
304.588
304.559
304.553
304.506
304.459
304.433
304.397
304.259
304.181
304.034
303.96
)
;

boundaryField
{
    hotSide
    {
        type            fixedGradient;
        gradient        nonuniform List<scalar> 
400
(
429.502
446.899
464.049
480.874
497.298
513.243
528.633
543.393
557.45
570.733
583.172
594.705
605.271
614.815
623.285
630.637
636.833
641.84
645.632
648.191
440.788
458.699
476.358
493.686
510.605
527.034
542.895
558.11
572.604
586.304
599.139
611.043
621.954
631.815
640.572
648.181
654.601
659.799
663.746
666.425
450.966
469.345
487.467
505.254
522.623
539.493
555.783
571.414
586.307
600.388
613.584
625.828
637.055
647.206
656.227
664.072
670.698
676.071
680.164
682.954
459.985
478.781
497.318
515.514
533.286
550.55
567.224
583.227
598.478
612.9
626.421
638.969
650.48
660.893
670.152
678.21
685.023
690.555
694.779
697.672
467.799
486.959
505.858
524.412
542.536
560.145
577.156
593.483
609.048
623.77
637.575
650.391
662.152
672.794
682.263
690.508
697.486
703.16
707.5
710.486
474.372
493.841
513.047
531.904
550.327
568.229
585.525
602.13
617.961
632.938
646.985
660.029
672.002
682.842
692.49
700.895
708.014
713.809
718.251
721.316
479.677
499.396
518.851
537.955
556.622
574.763
592.291
609.121
625.169
640.355
654.6
667.831
679.978
690.978
700.773
709.311
716.546
722.441
726.966
730.098
483.69
503.6
523.246
542.539
561.391
579.714
597.42
614.423
630.638
645.983
660.38
673.754
686.035
697.16
707.068
715.707
723.033
729.006
733.597
736.78
486.397
506.438
526.213
545.635
564.614
583.062
600.89
618.011
634.341
649.795
664.297
677.77
690.143
701.353
711.34
720.051
727.439
733.467
738.104
741.325
487.787
507.897
527.741
547.231
566.277
584.791
602.684
619.869
636.259
651.773
666.331
679.857
692.281
703.538
713.568
722.317
729.741
735.8
740.462
743.705
487.858
507.974
527.825
547.321
566.375
584.896
602.796
619.988
636.386
651.907
666.472
680.006
692.438
703.702
713.738
722.495
729.926
735.991
740.659
743.908
486.608
506.669
526.464
545.906
564.906
583.375
601.225
618.369
634.72
650.198
664.721
678.217
690.613
701.844
711.852
720.584
727.992
734.039
738.694
741.932
484.045
503.987
523.665
542.991
561.878
580.237
597.979
615.019
631.271
646.653
661.087
674.498
686.816
697.976
707.919
716.593
723.951
729.956
734.576
737.788
480.177
499.94
519.44
538.591
557.306
575.495
593.074
609.955
626.054
641.291
655.587
668.869
681.067
692.117
701.96
710.544
717.825
723.764
728.33
731.5
475.021
494.545
513.808
532.725
551.209
569.173
586.532
603.201
619.097
634.139
648.251
661.359
673.396
684.298
694.007
702.472
709.648
715.497
719.99
723.104
468.6
487.827
506.794
525.42
543.617
561.301
578.387
594.791
610.433
625.233
639.116
652.009
663.845
674.563
684.104
692.42
699.465
705.204
709.605
712.649
460.942
479.815
498.431
516.71
534.566
551.917
568.678
584.769
600.11
614.622
628.232
640.869
652.467
662.965
672.308
680.446
687.336
692.943
697.237
700.196
452.082
470.547
488.76
506.639
524.103
541.07
557.458
573.188
588.181
602.362
615.659
628.001
639.325
649.572
658.687
666.621
673.334
678.789
682.959
685.823
442.064
460.071
477.829
495.26
512.283
528.818
544.787
560.112
574.716
588.525
601.469
613.481
624.499
634.463
643.322
651.029
657.543
662.829
666.861
669.619
430.94
448.442
465.699
482.634
499.171
515.231
530.738
545.616
559.79
573.191
585.748
597.396
608.076
617.731
626.31
633.767
640.063
645.165
649.046
651.688
)
;
    }
    coldSide
    {
        type            mixed;
        refValue        uniform 300;
        refGradient     uniform 0;
        valueFraction   uniform 0.991591;
        source          uniform 0;
        value           nonuniform List<scalar> 
400
(
300.024
300.024
300.024
300.025
300.026
300.027
300.028
300.029
300.029
300.031
300.031
300.031
300.032
300.033
300.033
300.033
300.034
300.034
300.034
300.034
300.024
300.024
300.025
300.026
300.027
300.028
300.029
300.029
300.03
300.031
300.032
300.032
300.033
300.033
300.034
300.034
300.034
300.035
300.035
300.035
300.024
300.025
300.026