/*--------------------------------*- C++ -*----------------------------------*\
| =========                 |                                                 |
| \\      /  F ield         | OpenFOAM: The Open Source CFD Toolbox           |
|  \\    /   O peration     | Version:  2212                                  |
|   \\  /    A nd           | Website:  www.openfoam.com                      |
|    \\/     M anipulation  |                                                 |
\*---------------------------------------------------------------------------*/
FoamFile
{
    version     2.0;
    format      ascii;
    arch        "LSB;label=32;scalar=64";
    class       volScalarField;
    location    "0";
    object      stateMean;
}
// * * * * * * * * * * * * * * * * * * * * * * * * * * * * * * * * * * * * * //

dimensions      [0 0 0 1 0 0 0];

internalField   nonuniform List<scalar> 
3200
(
347.609
348.572
349.717
350.742
351.659
352.329
352.939
353.395
353.617
353.672
353.648
353.479
353.065
352.485
351.742
351.021
349.915
348.825
347.669
346.584
341.196
342.13
343.053
343.95
344.719
345.354
345.852
346.263
346.431
346.534
346.48
346.278
345.9
345.475
344.839
344.146
343.232
342.295
341.297
340.383
335.014
335.595
336.453
337.242
337.796
338.331
338.787
339.119
339.26
339.391
339.345
339.146
338.891
338.475
337.961
337.347
336.578
335.782
334.933
334.161
328.593
329.115
329.836
330.453
330.965
331.39
331.711
332.03
332.106
332.153
332.18
332.012
331.778
331.433
331.081
330.518
329.967
329.311
328.575
328.004
322.305
322.623
323.221
323.682
324.128
324.43
324.629
324.874
324.951
325.06
325.062
324.942
324.727
324.478
324.202
323.761
323.307
322.785
322.253
321.736
315.923
316.249
316.542
316.914
317.219
317.459
317.579
317.783
317.914
317.845
317.874
317.815
317.735
317.488
317.254
317.009
316.691
316.269
315.946
315.585
309.522
309.715
309.967
310.13
310.283
310.491
310.545
310.683
310.698
310.708
310.694
310.715
310.605
310.52
310.389
310.26
310.063
309.847
309.568
309.326
303.223
303.285
303.32
303.442
303.465
303.506
303.586
303.585
303.62
303.532
303.59
303.604
303.496
303.574
303.475
303.4
303.354
303.235
303.184
303.137
348.478
349.539
350.629
351.665
352.57
353.38
353.958
354.359
354.582
354.744
354.684
354.385
353.996
353.439
352.744
351.886
350.87
349.682
348.605
347.412
341.974
342.865
343.865
344.779
345.482
346.145
346.682
347.067
347.296
347.363
347.311
347.121
346.874
346.338
345.641
344.909
344.026
343.155
342.009
341.063
335.616
336.234
337.079
337.814
338.451
338.99
339.482
339.774
339.993
340.042
340
339.885
339.569
339.098
338.589
337.903
337.181
336.345
335.539
334.76
329.083
329.62
330.272
330.953
331.366
331.896
332.277
332.499
332.642
332.726
332.733
332.545
332.327
331.876
331.506
330.958
330.401
329.696
329.101
328.405
322.616
322.996
323.549
324.056
324.413
324.77
325.05
325.284
325.395
325.437
325.327
325.255
325.084
324.814
324.537
324.14
323.644
323.182
322.56
322.069
316.054
316.476
316.835
317.114
317.477
317.744
317.939
318.027
318.141
318.197
318.086
318.082
317.984
317.703
317.504
317.205
316.903
316.532
316.107
315.814
309.656
309.865
310.104
310.336
310.391
310.688
310.727
310.884
310.887
310.938
310.9
310.841
310.776
310.65
310.531
310.354
310.165
309.915
309.705
309.512
303.232
303.336
303.326
303.442
303.482
303.573
303.622
303.58
303.627
303.628
303.59
303.652
303.613
303.596
303.549
303.433
303.406
303.478
303.269
303.179
349.706
350.684
351.926
352.896
353.911
354.66
355.238
355.678
355.969
356.009
355.952
355.694
355.325
354.753
353.955
353.179
352.105
350.96
349.681
348.616
342.955
343.894
344.89
345.779
346.611
347.317
347.76
348.183
348.355
348.488
348.489
348.214
347.871
347.315
346.791
345.971
345.11
344.042
342.941
342.004
336.324
337.127
337.92
338.686
339.339
339.917
340.394
340.699
340.926
340.884
340.899
340.74
340.47
340.024
339.477
338.779
338.071
337.197
336.324
335.553
329.644
330.325
330.97
331.67
332.232
332.692
332.988
333.329
333.465
333.469
333.432
333.256
332.95
332.709
332.26
331.726
331.124
330.377
329.672
329.02
323.119
323.571
324.097
324.572
324.938
325.422
325.65
325.855
325.959
325.996
325.977
325.885
325.739
325.425
325.04
324.651
324.234
323.686
323.122
322.568
316.493
316.887
317.165
317.477
317.839
318.118
318.343
318.428
318.573
318.594
318.554
318.481
318.358
318.09
317.849
317.595
317.221
316.829
316.496
316.089
309.826
310.07
310.396
310.482
310.655
310.879
311.023
311.045
311.176
311.189
311.173
311.063
311.05
310.874
310.765
310.552
310.402
310.147
309.941
309.727
303.284
303.403
303.463
303.549
303.595
303.689
303.693
303.732
303.751
303.693
303.708
303.75
303.635
303.634
303.614
303.518
303.469
303.407
303.332
303.211
350.853
351.989
353.233
354.258
355.181
356.019
356.638
357.118
357.396
357.473
357.397
357.094
356.723
356.073
355.406
354.567
353.367
352.222
350.981
349.854
344.022
344.982
346.051
346.941
347.737
348.47
349.041
349.399
349.655
349.618
349.669
349.434
349.082
348.518
347.889
347.081
346.151
345.204
344.052
343.155
337.301
338.009
338.869
339.624
340.35
340.862
341.385
341.692
341.859
341.967
341.877
341.73
341.447
341.048
340.473
339.758
339.039
338.133
337.252
336.466
330.428
330.977
331.778
332.429
332.946
333.48
333.774
334.013
334.226
334.252
334.238
334.14
333.877
333.453
333.036
332.472
331.944
331.197
330.363
329.82
323.666
324.143
324.72
325.21
325.518
326.03
326.277
326.455
326.598
326.657
326.593
326.53
326.288
326.017
325.638
325.236
324.774
324.195
323.695
323.108
316.853
317.152
317.685
317.983
318.261
318.495
318.74
318.882
319.098
319.077
318.981
318.954
318.845
318.6
318.31
318.04
317.658
317.343
316.948
316.536
310.148
310.393
310.632
310.778
310.997
311.091
311.248
311.337
311.346
311.449
311.439
311.375
311.307
311.177
310.955
310.786
310.608
310.399
310.088
309.97
303.39
303.501
303.623
303.659
303.599
303.766
303.806
303.896
303.875
303.797
303.757
303.89
303.774
303.753
303.695
303.635
303.566
303.525
303.422
303.329
352.074
353.265
354.453
355.548
356.561
357.358
358.019
358.472
358.698
358.879
358.841
358.55
358.066
357.499
356.681
355.74
354.697
353.421
352.156
350.997
345.106
346.041
347.092
348.057
348.893
349.578
350.193
350.599
350.82
350.887
350.779
350.621
350.262
349.685
349.053
348.197
347.345
346.277
345.107
344.149
338.157
338.89
339.745
340.616
341.314
341.909
342.333
342.67
342.93
342.916
342.904
342.746
342.483
341.975
341.409
340.781
339.946
338.995
338.142
337.361
331.155
331.762
332.523
333.195
333.804
334.276
334.619
334.901
335.087
335.169
335.085
334.931
334.673
334.251
333.822
333.266
332.714
332.002
331.169
330.557
324.288
324.719
325.248
325.795
326.204
326.655
326.903
327.03
327.236
327.283
327.278
327.131
326.936
326.686
326.299
325.887
325.37
324.843
324.129
323.712
317.266
317.629
317.968
318.46
318.694
319.008
319.217
319.335
319.444
319.5
319.429
319.385
319.219
319.009
318.772
318.46
318.087
317.686
317.288
316.922
310.367
310.63
310.825
310.967
311.233
311.362
311.496
311.647
311.686
311.739
311.7
311.598
311.503
311.402
311.27
311.08
310.91
310.66
310.347
310.17
303.46
303.596
303.585
303.651
303.757
303.817
303.846
303.904
303.895
303.883
303.914
303.898
303.846
303.845
303.763
303.671
303.686
303.554
303.434
303.407
353.313
354.425
355.697
356.892
357.786
358.655
359.311
359.811
360.087
360.213
360.078
359.863
359.432
358.887
357.97
357.058
355.974
354.758
353.278
352.204
346.137
347.083
348.125
349.113
349.953
350.692
351.33
351.73
351.983
352.106
351.929
351.803
351.403
350.837
350.23
349.404
348.39
347.377
346.195
345.156
339.063
339.795
340.601
341.506
342.272
342.817
343.35
343.681
343.94
343.943
343.921
343.739
343.304
342.944
342.381
341.701
340.914
339.969
338.998
338.152
331.865
332.533
333.191
333.933
334.465
334.979
335.398
335.672
335.842
335.888
335.861
335.766
335.476
335.052
334.68
334.048
333.423
332.698
331.874
331.205
324.776
325.189
325.824
326.343
326.755
327.146
327.508
327.694
327.823
327.884
327.824
327.758
327.5
327.258
326.893
326.466
325.91
325.374
324.792
324.229
317.716
318.064
318.403
318.84
319.182
319.437
319.597
319.795
319.871
319.884
319.866
319.771
319.659
319.478
319.165
318.93
318.472
318.089
317.647
317.366
310.69
310.856
311.108
311.3
311.48
311.626
311.821
311.91
311.96
311.988
311.93
311.938
311.791
311.692
311.544
311.285
311.142
310.856
310.588
310.438
303.569
303.69
303.755
303.801
303.815
303.969
303.96
303.923
304.003
304.047
303.963
303.904
303.964
303.882
303.896
303.752
303.72
303.623
303.566
303.504
354.36
355.65
356.884
358.014
359.061
359.807
360.584
361.047
361.388
361.426
361.412
361.095
360.683
360.069
359.268
358.212
357.082
355.865
354.522
353.262
347.064
348.15
349.218
350.179
351.081
351.766
352.449
352.843
353.084
353.208
353.135
352.921
352.49
351.922
351.257
350.37
349.423
348.235
347.164
346.053
339.795
340.609
341.548
342.384
343.102
343.722
344.269
344.585
344.817
344.903
344.885
344.697
344.294
343.926
343.308
342.618
341.746
340.823
339.751
338.97
332.548
333.168
333.869
334.658
335.264
335.738
336.147
336.429
336.595
336.694
336.63
336.545
336.244
335.852
335.348
334.79
334.052
333.308
332.558
331.878
325.289
325.789
326.4
326.9
327.378
327.759
328.106
328.283
328.502
328.538
328.472
328.27
328.099
327.775
327.44
327.066
326.519
325.904
325.242
324.77
318.072
318.434
318.819
319.249
319.49
319.785
320.025
320.22
320.278
320.301
320.326
320.22
320.089
319.908
319.622
319.225
318.939
318.545
318.112
317.695
310.863
311.04
311.26
311.469
311.715
311.881
312.006
312.125
312.222
312.24
312.225
312.19
312.042
311.885
311.749
311.554
311.279
311.151
310.878
310.614
303.633
303.726
303.838
303.828
303.958
304.045
303.97
304.124
304.159
304.112
304.085
304.05
304.055
303.994
303.933
303.856
303.758
303.669
303.647
303.631
355.475
356.651
357.94
359.182
360.247
361.013
361.702
362.271
362.499
362.65
362.636
362.312
361.884
361.285
360.412
359.408
358.261
356.988
355.561
354.37
348.036
349.075
350.17
351.099
352.163
352.881
353.418
353.796
354.067
354.206
354.116
353.94
353.545
353.022
352.256
351.399
350.479
349.235
348.027
346.998
340.575
341.443
342.409
343.275
343.961
344.556
345.15
345.436
345.673
345.747
345.665
345.46
345.143
344.738
344.154
343.328
342.523
341.555
340.638
339.797
333.177
333.904
334.561
335.321
335.944
336.441
336.812
337.153
337.307
337.402
337.413
337.256
336.95
336.574
336.05
335.521
334.8
333.963
333.166
332.505
325.81
326.386
326.879
327.426
327.932
328.31
328.646
328.869
329.004
329.053
329.031
328.841
328.669
328.339
327.955
327.519
327.009
326.458
325.792
325.261
318.403
318.821
319.209
319.567
319.915
320.236
320.389
320.521
320.75
320.691
320.732
320.63
320.468
320.227
319.993
319.616
319.319
318.759
318.402
318.074
311.069
311.318
311.507
311.745
311.93
312.13
312.245
312.398
312.499
312.405
312.481
312.306
312.304
312.132
312.043
311.776
311.518
311.397
311.008
310.859
303.74
303.844
303.854
303.959
304.048
304.054
304.115
304.169
304.218
304.249
304.187
304.144
304.161
304.122
304.105
303.982
303.862
303.827
303.76
303.64
356.433
357.663
358.952
360.167
361.282
362.119
362.876
363.36
363.689
363.763
363.689
363.425
362.942
362.282
361.505
360.505
359.313
357.957
356.559
355.252
348.803
349.838
350.984
352.069
353.043
353.798
354.302
354.814
355.075
355.153
355.102
354.832
354.432
353.926
353.079
352.228
351.258
350.172
348.873
347.805
341.33
342.15
343.029
344.029
344.703
345.449
345.947
346.23
346.538
346.641
346.491
346.319
345.925
345.479
344.902
344.192
343.269
342.335
341.347
340.439
333.779
334.442
335.162
335.906
336.522
337.066
337.498
337.822
338.031
338.053
338.066
337.876
337.618
337.225
336.687
336.087
335.404
334.607
333.757
333
326.183
326.756
327.294
327.896
328.454
328.755
329.155
329.313
329.555
329.567
329.587
329.486
329.184
328.985
328.498
328.071
327.51
326.936
326.188
325.69
318.746
319.088
319.491
320.003
320.319
320.653
320.755
320.987
321.044
321.119
321.133
321.002
320.867
320.67
320.384
319.995
319.563
319.165
318.727
318.342
311.248
311.443
311.736
312.022
312.182
312.364
312.491
312.621
312.678
312.694
312.651
312.584
312.473
312.405
312.166
312.009
311.779
311.535
311.185
310.992
303.766
303.869
303.931
303.944
304.036
304.146
304.157
304.189
304.301
304.275
304.225
304.221
304.23
304.138
304.058
304.106
303.983
303.88
303.786
303.707
357.372
358.579
359.925
361.146
362.195
363.113
363.904
364.346
364.721
364.784
364.755
364.473
364.002
363.308
362.445
361.411
360.216
358.844
357.436
356.083
349.623
350.664
351.804
352.906
353.853
354.577
355.137
355.712
355.934
355.967
356.034
355.732
355.372
354.781
353.996
353.107
352.028
350.9
349.742
348.6
341.948
342.849
343.745
344.698
345.497
346.107
346.621
347.005
347.298
347.238
347.304
347.118
346.737
346.269
345.637
344.888
343.992
342.943
341.954
341.02
334.285
335.058
335.818
336.616
337.162
337.669
338.128
338.419
338.665
338.639
338.662
338.513
338.201
337.745
337.265
336.653
335.863
335.131
334.308
333.573
326.618
327.196
327.726
328.414
328.844
329.221
329.616
329.888
330.025
330.029
329.939
329.888
329.722
329.331
328.943
328.519
327.967
327.311
326.632
326.113
319.064
319.341
319.819
320.239
320.517
320.9
321.167
321.326
321.439
321.462
321.412
321.336
321.188
320.929
320.704
320.28
319.961
319.469
319.035
318.616
311.409
311.691
311.999
312.129
312.343
312.629
312.634
312.813
312.782
312.932
312.857
312.782
312.691
312.543
312.361
312.241
311.997
311.681
311.383
311.2
303.864
303.996
304.072
304.058
304.106
304.146
304.197
304.32
304.316
304.266
304.277
304.327
304.243
304.245
304.197
304.102
304.035
303.977
303.846
303.701
358.193
359.271
360.733
362.064
363.137
364.073
364.777
365.334
365.637
365.731
365.677
365.328
364.87
364.227
363.374
362.296
361.127
359.731
358.183
356.857
350.309
351.326
352.56
353.653
354.604
355.397
356.012
356.486
356.738
356.802
356.751
356.547
356.104
355.586
354.734
353.88
352.846
351.609
350.384
349.284
342.546
343.5
344.363
345.399
346.164
346.758
347.331
347.724
347.976
348.074
347.981
347.778
347.385
346.995
346.339
345.53
344.644
343.598
342.613
341.683
334.757
335.468
336.222
337.054
337.715
338.289
338.697
338.918
339.234
339.166
339.141
338.993
338.744
338.265
337.866
337.182
336.433
335.667
334.754
334.04
327.048
327.581
328.105
328.768
329.266
329.717
330.034
330.298
330.396
330.438
330.436
330.342
330.038
329.874
329.366
328.866
328.35
327.685
327.091
326.499
319.347
319.704
320.122
320.483
320.931
321.161
321.381
321.632
321.674
321.727
321.756
321.64
321.451
321.338
320.978
320.591
320.224
319.747
319.348
318.944
311.543
311.845
312.04
312.399
312.52
312.685
312.864
313.013
312.965
313.093
313.019
312.979
312.924
312.716
312.539
312.392
312.217
311.867
311.636
311.35
303.891
304.005
304.12
304.127
304.144
304.303
304.315
304.393
304.329
304.423
304.328
304.354
304.324
304.259
304.299
304.227
304.095
303.967
303.851
303.793
358.863
360.17
361.528
362.915
363.958
364.836
365.643
366.126
366.486
366.601
366.472
366.168
365.787
365.07
364.206
363.068
361.866
360.405
358.982
357.673
350.973
352.046
353.191
354.31
355.326
356.148
356.716
357.176
357.523
357.57
357.543
357.216
356.842
356.26
355.535
354.554
353.419
352.256
351.011
349.898
343.12
343.977
344.981
345.895
346.665
347.348
347.946
348.272
348.479
348.554
348.592
348.392
348.017
347.476
346.852
346.121
345.048
344.189
343.127
342.104
335.282
335.929
336.789
337.534
338.144
338.685
339.144
339.512
339.649
339.692
339.645
339.466
339.146
338.769
338.275
337.683
336.917
335.971
335.205
334.453
327.359
327.919
328.516
329.094
329.562
330.051
330.34
330.689
330.814
330.922
330.874
330.652
330.411
330.158
329.725
329.285
328.734
328.033
327.324
326.754
319.583
319.949
320.393
320.867
321.174
321.424
321.671
321.958
321.993
322.01
321.99
321.97
321.738
321.512
321.21
320.78
320.509
320.035
319.526
319.142
311.825
311.966
312.2
312.484
312.691
312.818
313.04
313.097
313.251
313.222
313.211
313.143
313.019
312.914
312.725
312.446
312.275
312.052
311.796
311.488
303.946
303.995
304.075
304.197
304.288
304.25
304.313
304.422
304.41
304.372
304.478
304.377
304.369
304.332
304.33
304.216
304.127
304.015
303.939
303.867
359.541
360.707
362.191
363.531
364.647
365.549
366.336
366.802
367.12
367.315
367.17
366.877
366.406
365.759
364.891
363.79
362.529
361.102
359.611
358.228
351.489
352.523
353.78
354.857
355.897
356.761
357.334
357.876
358.093
358.243
358.058
357.96
357.409
356.872
356.065
355.101
354.053
352.807
351.596
350.447
343.536
344.405
345.463
346.412
347.219
347.81
348.361
348.845
349.001
349.125
349.149
348.954
348.476
348.033
347.378
346.508
345.639
344.683
343.576
342.65
335.599
336.348
337.075
337.907
338.502
339.133
339.565
339.861
340.166
340.184
340.155
339.851
339.623
339.226
338.694
338.045
337.258
336.432
335.628
334.825
327.644
328.222
328.775
329.428
329.924
330.379
330.714
331.019
331.178
331.226
331.151
330.996
330.827
330.444
330.042
329.507
329.01
328.243
327.629
327.042
319.797
320.151
320.541
321.071
321.415
321.678
321.94
322.155
322.18
322.27
322.218
322.14
321.997
321.825
321.458
321.019
320.639
320.23
319.823
319.377
311.797
312.126
312.359
312.681
312.848
313.006
313.127
313.326
313.339
313.364
313.391
313.261
313.149
313.052
312.926
312.628
312.427
312.06
311.869
311.596
303.937
304.078
304.14
304.22
304.222
304.342
304.471
304.425
304.459
304.479
304.471
304.412
304.409
304.379
304.332
304.194
304.157
304.087
303.923
303.922
359.997
361.342
362.696
364.081
365.142
366.228
366.892
367.422
367.65
367.944
367.849
367.505
367.015
366.344
365.42
364.344
363.113
361.633
360.15
358.722
351.936
353.071
354.274
355.408
356.36
357.207
357.783
358.335
358.621
358.744
358.663
358.339
357.948
357.425
356.633
355.661
354.553
353.324
352.108
350.923
343.938
344.832
345.82
346.85
347.605
348.218
348.838
349.182
349.467
349.528
349.497
349.324
348.945
348.376
347.728
346.976
346.128
345.058
343.868
342.977
335.898
336.631
337.379
338.242
338.919
339.43
339.959
340.25
340.431
340.562
340.486
340.299
340.078
339.64
338.995
338.411
337.704
336.776
335.848
335.108
327.895
328.4
329.024
329.632
330.252
330.67
331.003
331.2
331.437
331.437
331.402
331.31
331.085
330.703
330.369
329.768
329.246
328.597
327.864
327.3
319.914
320.268
320.756
321.254
321.524
321.847
322.134
322.3
322.407
322.462
322.424
322.323
322.175
321.907
321.604
321.276
320.856
320.394
319.937
319.504
311.991
312.238
312.505
312.747
312.958
313.148
313.233
313.405
313.441
313.502
313.455
313.399
313.282
313.123
312.96
312.795
312.614
312.3
311.97
311.737
303.991
304.074
304.153
304.22
304.346
304.37
304.507
304.412
304.516
304.489
304.549
304.545
304.467
304.429
304.325
304.278
304.25
304.12
304.068
303.886
360.495
361.742
363.143
364.471
365.678
366.553
367.372
368.03
368.252
368.444
368.309
367.983
367.463
366.785
365.852
364.865
363.58
362.131
360.581
359.142
352.332
353.472
354.667
355.77
356.799
357.51
358.188
358.74
359.059
359.14
359.138
358.799
358.421
357.707
357.032
356.055
354.95
353.758
352.387
351.249
344.154
345.163
346.183
347.199
347.982
348.707
349.212
349.661
349.855
349.996
349.899
349.695
349.31
348.791
348.194
347.374
346.4
345.278
344.221
343.29
336.098
336.955
337.658
338.479
339.184
339.754
340.186
340.543
340.681
340.779
340.808
340.537
340.257
339.855
339.356
338.662
337.881
337.062
336.171
335.362
328.066
328.659
329.202
329.925
330.453
330.845
331.24
331.53
331.648
331.677
331.667
331.496
331.271
330.931
330.559
330.073
329.41
328.827
328.176
327.53
320.085
320.483
320.919
321.335
321.673
322.074
322.284
322.534
322.562
322.592
322.643
322.479
322.299
322.029
321.889
321.482
321.1
320.523
320.124
319.618
312.024
312.3
312.486
312.813
313.058
313.271
313.409
313.483
313.516
313.592
313.558
313.55
313.441
313.275
313.077
312.851
312.627
312.238
312.076
311.77
303.995
304.047
304.203
304.235
304.382
304.419
304.521
304.473
304.529
304.5
304.575
304.489
304.514
304.433
304.398
304.316
304.234
304.089
304.014
303.904
360.755
362.012
363.603
364.869
366.091
366.965
367.636
368.355
368.615
368.774
368.746
368.429
367.877
367.161
366.309
365.183
363.877
362.447
360.92
359.513
352.608
353.672
354.927
356.076
357.136
357.985
358.603
359.086
359.36
359.441
359.423
359.182
358.66
358.081
357.386
356.376
355.227
354.029
352.664
351.464
344.415
345.385
346.436
347.376
348.218
348.945
349.493
349.867
350.162
350.212
350.182
349.998
349.638
349.104
348.408
347.565
346.603
345.589
344.455
343.56
336.332
337.023
337.92
338.701
339.322
340.013
340.453
340.784
340.951
341.062
340.963
340.807
340.501
340.058
339.585
338.888
338.099
337.23
336.384
335.632
328.269
328.889
329.436
330.069
330.603
331.054
331.43
331.595
331.825
331.921
331.878
331.726
331.46
331.102
330.733
330.197
329.611
328.997
328.216
327.683
320.18
320.585
320.917
321.499
321.858
322.162
322.385
322.619
322.754
322.711
322.787
322.657
322.458
322.211
321.913
321.598
321.168
320.671
320.198
319.717
312.163
312.346
312.646
312.896
313.152
313.252
313.475
313.543
313.631
313.699
313.668
313.595
313.498
313.332
313.171
312.956
312.696
312.514
312.072
311.867
304.08
304.124
304.23
304.355
304.386
304.459
304.484
304.589
304.606
304.6
304.598
304.536
304.498
304.517
304.412
304.342
304.314
304.046
304.03
304.01
360.937
362.265
363.689
365.077
366.274
367.21
368.021
368.563
368.912
369.029
368.943
368.674
368.144
367.459
366.497
365.398
364.088
362.659
361.159
359.671
352.748
353.883
355.165
356.269
357.29
358.153
358.84
359.327
359.558
359.74
359.632
359.344
358.944
358.332
357.548
356.583
355.458
354.183
352.876
351.672
344.625
345.497
346.599
347.579
348.367
349.128
349.664
350.17
350.311
350.385
350.365
350.149
349.776
349.272
348.591
347.785
346.837
345.717
344.632
343.67
336.491
337.162
338.022
338.776
339.525
340.103
340.533
340.924
341.099
341.169
341.056
340.934
340.614
340.259
339.708
339.007
338.256
337.397
336.43
335.689
328.388
328.912
329.519
330.219
330.755
331.146
331.545
331.839
331.989
332.024
331.927
331.871
331.585
331.321
330.821
330.286
329.719
329.06
328.312
327.819
320.255
320.667
321.069
321.521
321.92
322.255
322.425
322.701
322.845
322.919
322.771
322.738
322.564
322.307
321.993
321.69
321.252
320.757
320.218
319.799
312.146
312.395
312.651
312.947
313.24
313.34
313.509
313.557
313.67
313.721
313.736
313.684
313.501
313.388
313.216
312.964
312.741
312.465
312.115
311.847
304.097
304.077
304.26
304.321
304.356
304.521
304.421
304.565
304.608
304.576
304.607
304.585
304.592
304.47
304.484
304.359
304.222
304.233
304.088
304.052
361.071
362.392
363.809
365.222
366.393
367.463
368.175
368.705
369.041
369.152
369.16
368.83
368.282
367.608
366.596
365.541
364.212
362.75
361.21
359.828
352.915
354.001
355.236
356.344
357.442
358.304
358.912
359.347
359.755
359.781
359.682
359.535
359.066
358.482
357.687
356.679
355.577
354.346
352.974
351.808
344.664
345.655
346.717
347.612
348.47
349.198
349.746
350.124
350.474
350.525
350.448
350.372
349.887
349.257
348.743
347.91
346.913
345.888
344.838
343.807
336.509
337.221
338.192
338.96
339.634
340.198
340.661
341.021
341.195
341.29
341.29
340.983
340.791
340.349
339.797
339.103
338.319
337.501
336.573
335.83
328.403
328.944
329.624
330.243
330.798
331.262
331.565
331.83
332.079
332.009
332.057
331.932
331.644
331.287
330.947
330.451
329.79
329.16
328.432
327.883
320.333
320.645
321.144
321.631
322.038
322.237
322.582
322.756
322.863
322.863
322.908
322.734
322.648
322.383
322.089
321.756
321.294
320.779
320.274
319.956
312.126
312.439
312.72
312.899
313.184
313.479
313.476
313.668
313.631
313.742
313.677
313.658
313.621
313.416
313.182
313.035
312.77
312.481
312.161
311.964
304.028
304.174
304.255
304.327
304.38
304.495
304.554
304.602
304.636
304.548
304.598
304.614
304.592
304.453
304.468
304.398
304.296
304.116
304.044
303.986
361.093
362.405
363.865
365.19
366.432
367.433
368.181
368.742
369.12
369.215
369.097
368.753
368.3
367.637
366.674
365.573
364.322
362.846
361.313
359.907
352.852
353.956
355.335
356.362
357.412
358.286
358.931
359.422
359.774
359.882
359.784
359.559
359.191
358.528
357.697
356.728
355.569
354.333
353.012
351.874
344.754
345.677
346.74
347.698
348.537
349.303
349.828
350.168
350.5
350.559
350.503
350.275
349.901
349.414
348.751
347.927
346.905
345.958
344.782
343.844
336.576
337.341
338.174
338.949
339.59
340.252
340.627
341.054
341.177
341.329
341.289
341.051
340.722
340.297
339.838
339.179
338.374
337.462
336.625
335.879
328.478
328.957
329.674
330.253
330.78
331.284
331.638
331.891
332.015
332.061
332.044
331.947
331.629
331.337
330.945
330.497
329.82
329.119
328.421
327.849
320.252
320.754
321.132
321.59
321.99
322.353
322.564
322.772
322.877
322.864
322.891
322.739
322.631
322.403
322.079
321.734
321.334
320.851
320.257
319.893
312.197
312.399
312.729
313.085
313.184
313.445
313.608
313.58
313.815
313.737
313.747
313.625
313.581
313.447
313.267
313.001
312.764
312.491
312.176
311.967
304.086
304.185
304.283
304.416
304.4
304.554
304.569
304.619
304.63
304.591
304.646
304.573
304.565
304.486
304.464
304.338
304.281
304.17
304.096
304.021
361.088
362.449
363.942
365.164
366.398
367.324
368.181
368.718
369.066
369.227
369.137
368.798
368.298
367.558
366.652
365.586
364.228
362.801
361.23
359.83
352.898
354.035
355.281
356.427
357.407
358.225
358.918
359.491
359.721
359.878
359.824
359.488
359.115
358.435
357.64
356.72
355.58
354.368
352.979
351.868
344.79
345.622
346.721
347.707
348.563
349.212
349.784
350.25
350.444
350.484
350.482
350.311
349.929
349.383
348.746
347.935
346.95
345.885
344.671
343.866
336.592
337.288
338.189
338.983
339.709
340.327
340.739
340.992
341.253
341.282
341.314
341.099
340.769
340.272
339.796
339.147
338.319
337.498
336.612
335.811
328.489
328.963
329.661
330.249
330.755
331.242
331.632
331.86
331.993
332.049
332.062
331.944
331.696
331.362
330.96
330.429
329.799
329.152
328.434
327.823
320.36
320.701
321.165
321.668
321.931
322.293
322.491
322.794
322.833
322.92
322.847
322.788
322.606
322.373
322.077
321.773
321.274
320.864
320.328
319.912
312.138
312.376
312.649
312.989
313.192
313.33
313.548
313.734
313.735
313.781
313.756
313.627
313.578
313.472
313.333
312.978
312.746
312.488
312.232
311.871
304.117
304.182
304.269
304.379
304.408
304.467
304.506
304.571
304.667
304.578
304.592
304.571
304.611
304.49
304.438
304.355
304.312
304.169
304.171
303.941
)
;

boundaryField
{
    hotSide
    {
        type            fixedGradient;
        gradient        nonuniform List<scalar> 
400
(
321.511
322.87
325.591
329.677
335.133
341.965
350.181
359.788
370.794
383.208
397.037
412.289
428.971
447.088
466.647
487.651
510.105
534.011
559.372
586.191
323.738
325.08
327.767
331.802
337.194
343.949
352.078
361.591
372.498
384.81
398.537
413.687
430.268
448.289
467.755
488.672
511.043
534.872
560.161
586.913
326.149
327.47
330.116
334.091
339.406
346.071
354.099
363.503
374.296
386.491
400.101
415.136
431.606
449.52
468.885
489.706
511.988
535.735
560.948
587.63
328.704
330
332.597
336.503
341.73
348.292
356.205
365.485
376.15
388.215
401.695
416.604
432.954
450.753
470.009
490.73
512.919
536.579
561.714
588.325
331.33
332.599
335.142
338.97
344.099
350.546
358.332
367.477
378.003
389.928
403.271
418.047
434.27
451.949
471.095
491.712
513.807
537.382
562.439
588.978
333.918
335.158
337.643
341.389
346.414
352.74
360.392
369.397
379.779
391.562
404.765
419.407
435.503
453.065
472.101
492.618
514.622
538.114
563.096
589.569
336.321
337.531
339.959
343.622
348.544
354.751
362.274
371.142
381.385
393.031
406.101
420.618
436.595
454.047
472.983
493.409
515.33
538.747
563.663
590.076
338.36
339.543
341.92
345.509
350.339
356.44
363.847
372.595
382.718
394.244
407.2
421.608
437.485
454.844
473.695
494.045
515.897
539.253
564.114
590.478
339.852
341.015
343.352
346.885
351.645
357.665
364.985
373.643
383.675
395.113
407.984
422.312
438.116
455.407
474.197
494.491
516.294
539.606
564.428
590.758
340.643
341.795
344.11
347.613
352.334
358.311
365.584
374.193
384.176
395.567
408.393
422.679
438.443
455.699
474.456
494.722
516.498
539.788
564.589
590.901
340.643
341.795
344.11
347.613
352.334
358.311
365.584
374.193
384.176
395.567
408.393
422.679
438.443
455.699
474.456
494.722
516.498
539.788
564.589
590.901
339.852
341.015
343.352
346.885
351.645
357.665
364.985
373.643
383.675
395.113
407.984
422.312
438.116
455.407
474.197
494.491
516.294
539.606
564.428
590.758
338.36
339.543
341.92
345.509
350.339
356.44
363.847
372.595
382.718
394.244
407.2
421.608
437.485
454.844
473.695
494.045
515.897
539.253
564.114
590.478
336.321
337.531
339.959
343.622
348.544
354.751
362.274
371.142
381.385
393.031
406.101
420.618
436.595
454.047
472.983
493.409
515.33
538.747
563.663
590.076
333.918
335.158
337.643
341.389
346.414
352.74
360.392
369.397
379.779
391.562
404.765
419.407
435.503
453.065
472.101
492.618
514.622
538.114
563.096
589.569
331.33
332.599
335.142
338.97
344.099
350.546
358.332
367.477
378.003
389.928
403.271
418.047
434.27
451.949
471.095
491.712
513.807
537.382
562.439
588.978
328.704
330
332.597
336.503
341.73
348.292
356.205
365.485
376.15
388.215
401.695
416.604
432.954
450.753
470.009
490.73
512.919
536.579
561.714
588.325
326.149
327.47
330.116
334.091
339.406
346.071
354.099
363.503
374.296
386.491
400.101
415.136
431.606
449.52
468.885
489.706
511.988
535.735
560.948
587.63
323.738
325.08
327.767
331.802
337.194
343.949
352.078
361.591
372.498
384.81
398.537
413.687
430.268
448.289
467.755
488.672
511.043
534.872
560.161
586.913
321.511
322.87
325.591
329.677
335.133
341.965
350.181
359.788
370.794
383.208
397.037
412.289
428.971
447.088
466.647
487.651
510.105
534.011
559.372
586.191
)
;
    }
    coldSide
    {
        type            mixed;
        refValue        uniform 300;
        refGradient     uniform 0;
        valueFraction   uniform 0.991591;
        source          uniform 0;
        value           nonuniform List<scalar> 
400
(
300.027
300.027
300.028
300.029
300.029
300.03
300.031
300.031
300.032
300.032
300.033
300.033
300.033
300.034
300.034
300.034
300.034
300.034
300.034
300.035
300.028
300.028
300.029
300.029
300.03
300.031
300.031
300.032
300.033
300.034
300.034
300.034
300.034
300.034
300.034
300.035
300.034
300.035
300.035