/*--------------------------------*- C++ -*----------------------------------*\
| =========                 |                                                 |
| \\      /  F ield         | OpenFOAM: The Open Source CFD Toolbox           |
|  \\    /   O peration     | Version:  2212                                  |
|   \\  /    A nd           | Website:  www.openfoam.com                      |
|    \\/     M anipulation  |                                                 |
\*---------------------------------------------------------------------------*/
FoamFile
{
    version     2.0;
    format      ascii;
    arch        "LSB;label=32;scalar=64";
    class       volScalarField;
    location    "./ITHACAoutput/true/6";
    object      trueState;
}
// * * * * * * * * * * * * * * * * * * * * * * * * * * * * * * * * * * * * * //

dimensions      [0 0 0 1 0 0 0];

internalField   nonuniform List<scalar> 
3200
(
349.212
349.898
350.775
351.73
352.714
353.68
354.572
355.324
355.872
356.162
356.162
355.872
355.324
354.572
353.68
352.714
351.73
350.775
349.898
349.212
342.672
343.253
344.009
344.835
345.687
346.522
347.293
347.943
348.416
348.666
348.666
348.416
347.943
347.293
346.522
345.687
344.835
344.009
343.253
342.672
336.123
336.606
337.243
337.941
338.66
339.366
340.017
340.566
340.965
341.176
341.176
340.965
340.566
340.017
339.366
338.66
337.941
337.243
336.606
336.123
329.569
329.957
330.476
331.047
331.635
332.212
332.743
333.191
333.517
333.689
333.689
333.517
333.191
332.743
332.212
331.635
331.047
330.476
329.957
329.569
323.009
323.307
323.71
324.154
324.611
325.059
325.472
325.82
326.073
326.206
326.206
326.073
325.82
325.472
325.059
324.611
324.154
323.71
323.307
323.009
316.446
316.657
316.944
317.261
317.587
317.907
318.202
318.45
318.631
318.726
318.726
318.631
318.45
318.202
317.907
317.587
317.261
316.944
316.657
316.446
309.88
310.006
310.178
310.368
310.564
310.756
310.933
311.082
311.19
311.248
311.248
311.19
311.082
310.933
310.756
310.564
310.368
310.178
310.006
309.88
303.312
303.354
303.412
303.475
303.541
303.606
303.665
303.715
303.751
303.77
303.77
303.751
303.715
303.665
303.606
303.541
303.475
303.412
303.354
303.312
349.375
350.056
350.925
351.871
352.845
353.8
354.681
355.424
355.965
356.251
356.251
355.965
355.424
354.681
353.8
352.845
351.871
350.925
350.056
349.375
342.812
343.389
344.138
344.957
345.8
346.626
347.388
348.03
348.497
348.744
348.744
348.497
348.03
347.388
346.626
345.8
344.957
344.138
343.389
342.812
336.242
336.721
337.352
338.044
338.756
339.454
340.097
340.639
341.034
341.242
341.242
341.034
340.639
340.097
339.454
338.756
338.044
337.352
336.721
336.242
329.666
330.051
330.566
331.131
331.714
332.284
332.809
333.252
333.574
333.744
333.744
333.574
333.252
332.809
332.284
331.714
331.131
330.566
330.051
329.666
323.085
323.381
323.78
324.219
324.672
325.115
325.523
325.867
326.117
326.249
326.249
326.117
325.867
325.523
325.115
324.672
324.219
323.78
323.381
323.085
316.5
316.709
316.994
317.307
317.631
317.947
318.239
318.484
318.662
318.756
318.756
318.662
318.484
318.239
317.947
317.631
317.307
316.994
316.709
316.5
309.912
310.037
310.208
310.396
310.59
310.78
310.955
311.102
311.209
311.266
311.266
311.209
311.102
310.955
310.78
310.59
310.396
310.208
310.037
309.912
303.323
303.365
303.422
303.485
303.55
303.614
303.672
303.722
303.757
303.776
303.776
303.757
303.722
303.672
303.614
303.55
303.485
303.422
303.365
303.323
349.701
350.371
351.225
352.154
353.108
354.043
354.903
355.628
356.156
356.434
356.434
356.156
355.628
354.903
354.043
353.108
352.154
351.225
350.371
349.701
343.094
343.662
344.399
345.202
346.028
346.837
347.581
348.207
348.663
348.903
348.903
348.663
348.207
347.581
346.837
346.028
345.202
344.399
343.662
343.094
336.481
336.951
337.572
338.251
338.949
339.632
340.261
340.79
341.174
341.377
341.377
341.174
340.79
340.261
339.632
338.949
338.251
337.572
336.951
336.481
329.861
330.24
330.746
331.301
331.871
332.43
332.943
333.375
333.689
333.854
333.854
333.689
333.375
332.943
332.43
331.871
331.301
330.746
330.24
329.861
323.236
323.527
323.92
324.351
324.795
325.228
325.627
325.963
326.206
326.335
326.335
326.206
325.963
325.627
325.228
324.795
324.351
323.92
323.527
323.236
316.608
316.814
317.094
317.402
317.718
318.028
318.313
318.552
318.726
318.818
318.818
318.726
318.552
318.313
318.028
317.718
317.402
317.094
316.814
316.608
309.977
310.1
310.268
310.453
310.643
310.829
311
311.143
311.248
311.303
311.303
311.248
311.143
311
310.829
310.643
310.453
310.268
310.1
309.977
303.345
303.386
303.442
303.504
303.568
303.63
303.687
303.735
303.77
303.789
303.789
303.77
303.735
303.687
303.63
303.568
303.504
303.442
303.386
303.345
350.191
350.846
351.679
352.582
353.508
354.413
355.244
355.943
356.451
356.718
356.718
356.451
355.943
355.244
354.413
353.508
352.582
351.679
350.846
350.191
343.519
344.073
344.791
345.573
346.375
347.158
347.876
348.48
348.919
349.15
349.15
348.919
348.48
347.876
347.158
346.375
345.573
344.791
344.073
343.519
336.839
337.299
337.904
338.565
339.242
339.904
340.511
341.021
341.391
341.586
341.586
341.391
341.021
340.511
339.904
339.242
338.565
337.904
337.299
336.839
330.154
330.524
331.018
331.557
332.111
332.652
333.148
333.564
333.867
334.026
334.026
333.867
333.564
333.148
332.652
332.111
331.557
331.018
330.524
330.154
323.464
323.748
324.131
324.551
324.981
325.401
325.787
326.11
326.345
326.468
326.468
326.345
326.11
325.787
325.401
324.981
324.551
324.131
323.748
323.464
316.771
316.972
317.245
317.544
317.852
318.152
318.427
318.658
318.825
318.913
318.913
318.825
318.658
318.427
318.152
317.852
317.544
317.245
316.972
316.771
310.075
310.195
310.358
310.538
310.723
310.903
311.068
311.207
311.307
311.36
311.36
311.307
311.207
311.068
310.903
310.723
310.538
310.358
310.195
310.075
303.377
303.417
303.472
303.533
303.594
303.655
303.71
303.757
303.79
303.808
303.808
303.79
303.757
303.71
303.655
303.594
303.533
303.472
303.417
303.377
350.849
351.483
352.289
353.16
354.05
354.917
355.712
356.378
356.861
357.115
357.115
356.861
356.378
355.712
354.917
354.05
353.16
352.289
351.483
350.849
344.088
344.625
345.32
346.074
346.844
347.595
348.282
348.858
349.275
349.495
349.495
349.275
348.858
348.282
347.595
346.844
346.074
345.32
344.625
344.088
337.32
337.766
338.351
338.988
339.64
340.274
340.854
341.341
341.693
341.878
341.878
341.693
341.341
340.854
340.274
339.64
338.988
338.351
337.766
337.32
330.547
330.906
331.383
331.904
332.436
332.955
333.429
333.826
334.114
334.265
334.265
334.114
333.826
333.429
332.955
332.436
331.904
331.383
330.906
330.547
323.769
324.045
324.415
324.82
325.234
325.637
326.005
326.314
326.537
326.655
326.655
326.537
326.314
326.005
325.637
325.234
324.82
324.415
324.045
323.769
316.989
317.184
317.448
317.737
318.032
318.32
318.583
318.803
318.963
319.047
319.047
318.963
318.803
318.583
318.32
318.032
317.737
317.448
317.184
316.989
310.206
310.322
310.48
310.654
310.831
311.004
311.162
311.294
311.39
311.44
311.44
311.39
311.294
311.162
311.004
310.831
310.654
310.48
310.322
310.206
303.421
303.46
303.513
303.571
303.631
303.689
303.742
303.786
303.818
303.835
303.835
303.818
303.786
303.742
303.689
303.631
303.571
303.513
303.46
303.421
351.676
352.287
353.059
353.893
354.741
355.564
356.316
356.944
357.399
357.638
357.638
357.399
356.944
356.316
355.564
354.741
353.893
353.059
352.287
351.676
344.803
345.32
345.987
346.708
347.443
348.155
348.805
349.349
349.742
349.948
349.948
349.742
349.349
348.805
348.155
347.443
346.708
345.987
345.32
344.803
337.925
338.354
338.915
339.525
340.146
340.748
341.297
341.757
342.088
342.263
342.263
342.088
341.757
341.297
340.748
340.146
339.525
338.915
338.354
337.925
331.041
331.386
331.844
332.342
332.85
333.343
333.792
334.167
334.438
334.58
334.58
334.438
334.167
333.792
333.343
332.85
332.342
331.844
331.386
331.041
324.154
324.419
324.774
325.161
325.556
325.939
326.288
326.579
326.789
326.9
326.9
326.789
326.579
326.288
325.939
325.556
325.161
324.774
324.419
324.154
317.263
317.451
317.704
317.98
318.262
318.536
318.785
318.993
319.143
319.222
319.222
319.143
318.993
318.785
318.536
318.262
317.98
317.704
317.451
317.263
310.37
310.482
310.634
310.8
310.969
311.134
311.283
311.408
311.498
311.546
311.546
311.498
311.408
311.283
311.134
310.969
310.8
310.634
310.482
310.37
303.476
303.514
303.565
303.62
303.677
303.732
303.782
303.824
303.854
303.87
303.87
303.854
303.824
303.782
303.732
303.677
303.62
303.565
303.514
303.476
352.675
353.259
353.995
354.786
355.588
356.363
357.067
357.655
358.078
358.3
358.3
358.078
357.655
357.067
356.363
355.588
354.786
353.995
353.259
352.675
345.668
346.162
346.797
347.482
348.176
348.847
349.457
349.965
350.331
350.523
350.523
350.331
349.965
349.457
348.847
348.176
347.482
346.797
346.162
345.668
338.655
339.065
339.6
340.179
340.766
341.333
341.849
342.278
342.587
342.749
342.749
342.587
342.278
341.849
341.333
340.766
340.179
339.6
339.065
338.655
331.638
331.968
332.405
332.878
333.358
333.821
334.243
334.593
334.846
334.978
334.978
334.846
334.593
334.243
333.821
333.358
332.878
332.405
331.968
331.638
324.618
324.871
325.21
325.577
325.95
326.311
326.638
326.911
327.107
327.21
327.21
327.107
326.911
326.638
326.311
325.95
325.577
325.21
324.871
324.618
317.594
317.774
318.015
318.278
318.544
318.802
319.036
319.23
319.37
319.444
319.444
319.37
319.23
319.036
318.802
318.544
318.278
318.015
317.774
317.594
310.569
310.676
310.821
310.979
311.139
311.293
311.434
311.551
311.635
311.679
311.679
311.635
311.551
311.434
311.293
311.139
310.979
310.821
310.676
310.569
303.543
303.579
303.627
303.68
303.734
303.786
303.833
303.872
303.9
303.915
303.915
303.9
303.872
303.833
303.786
303.734
303.68
303.627
303.579
303.543
353.849
354.404
355.101
355.846
356.599
357.322
357.977
358.521
358.913
359.117
359.117
358.913
358.521
357.977
357.322
356.599
355.846
355.101
354.404
353.849
346.684
347.154
347.755
348.4
349.052
349.678
350.245
350.716
351.054
351.232
351.232
351.054
350.716
350.245
349.678
349.052
348.4
347.755
347.154
346.684
339.514
339.903
340.41
340.956
341.506
342.036
342.516
342.913
343.199
343.349
343.349
343.199
342.913
342.516
342.036
341.506
340.956
340.41
339.903
339.514
332.34
332.654
333.067
333.513
333.963
334.396
334.788
335.113
335.347
335.469
335.469
335.347
335.113
334.788
334.396
333.963
333.513
333.067
332.654
332.34
325.163
325.404
325.724
326.071
326.421
326.758
327.063
327.316
327.497
327.592
327.592
327.497
327.316
327.063
326.758
326.421
326.071
325.724
325.404
325.163
317.984
318.154
318.383
318.63
318.881
319.121
319.339
319.519
319.649
319.717
319.717
319.649
319.519
319.339
319.121
318.881
318.63
318.383
318.154
317.984
310.803
310.905
311.042
311.191
311.341
311.485
311.616
311.724
311.802
311.843
311.843
311.802
311.724
311.616
311.485
311.341
311.191
311.042
310.905
310.803
303.621
303.655
303.701
303.751
303.802
303.85
303.894
303.93
303.956
303.97
303.97
303.956
303.93
303.894
303.85
303.802
303.751
303.701
303.655
303.621
355.202
355.726
356.382
357.08
357.781
358.452
359.056
359.556
359.915
360.102
360.102
359.915
359.556
359.056
358.452
357.781
357.08
356.382
355.726
355.202
347.855
348.298
348.864
349.468
350.075
350.656
351.18
351.613
351.923
352.085
352.085
351.923
351.613
351.18
350.656
350.075
349.468
348.864
348.298
347.855
340.503
340.871
341.348
341.859
342.372
342.864
343.306
343.672
343.934
344.071
344.071
343.934
343.672
343.306
342.864
342.372
341.859
341.348
340.871
340.503
333.149
333.445
333.834
334.251
334.671
335.073
335.435
335.734
335.949
336.061
336.061
335.949
335.734
335.435
335.073
334.671
334.251
333.834
333.445
333.149
325.792
326.019
326.321
326.645
326.972
327.284
327.566
327.798
327.965
328.052
328.052
327.965
327.798
327.566
327.284
326.972
326.645
326.321
326.019
325.792
318.433
318.594
318.809
319.041
319.274
319.497
319.698
319.864
319.983
320.046
320.046
319.983
319.864
319.698
319.497
319.274
319.041
318.809
318.594
318.433
311.073
311.169
311.298
311.437
311.577
311.711
311.832
311.932
312.003
312.04
312.04
312.003
311.932
311.832
311.711
311.577
311.437
311.298
311.169
311.073
303.712
303.744
303.787
303.834
303.881
303.926
303.966
304
304.023
304.036
304.036
304.023
304
303.966
303.926
303.881
303.834
303.787
303.744
303.712
356.737
357.229
357.843
358.493
359.142
359.76
360.314
360.771
361.098
361.268
361.268
361.098
360.771
360.314
359.76
359.142
358.493
357.843
357.229
356.737
349.183
349.6
350.129
350.692
351.254
351.789
352.27
352.665
352.948
353.095
353.095
352.948
352.665
352.27
351.789
351.254
350.692
350.129
349.6
349.183
341.626
341.971
342.418
342.893
343.369
343.822
344.228
344.562
344.801
344.926
344.926
344.801
344.562
344.228
343.822
343.369
342.893
342.418
341.971
341.626
334.066
334.344
334.708
335.097
335.486
335.857
336.189
336.462
336.658
336.76
336.76
336.658
336.462
336.189
335.857
335.486
335.097
334.708
334.344
334.066
326.505
326.719
327.001
327.303
327.606
327.894
328.152
328.365
328.517
328.596
328.596
328.517
328.365
328.152
327.894
327.606
327.303
327.001
326.719
326.505
318.942
319.093
319.295
319.511
319.727
319.933
320.117
320.269
320.377
320.434
320.434
320.377
320.269
320.117
319.933
319.727
319.511
319.295
319.093
318.942
311.379
311.469
311.589
311.719
311.849
311.973
312.083
312.175
312.24
312.274
312.274
312.24
312.175
312.083
311.973
311.849
311.719
311.589
311.469
311.379
303.814
303.844
303.885
303.928
303.972
304.013
304.05
304.081
304.103
304.114
304.114
304.103
304.081
304.05
304.013
303.972
303.928
303.885
303.844
303.814
358.456
358.917
359.488
360.09
360.688
361.254
361.76
362.175
362.47
362.624
362.624
362.47
362.175
361.76
361.254
360.688
360.09
359.488
358.917
358.456
350.671
351.061
351.554
352.075
352.593
353.084
353.522
353.881
354.137
354.27
354.27
354.137
353.881
353.522
353.084
352.593
352.075
351.554
351.061
350.671
342.884
343.207
343.622
344.063
344.501
344.916
345.287
345.591
345.807
345.92
345.92
345.807
345.591
345.287
344.916
344.501
344.063
343.622
343.207
342.884
335.094
335.355
335.693
336.054
336.412
336.752
337.055
337.304
337.481
337.573
337.573
337.481
337.304
337.055
336.752
336.412
336.054
335.693
335.355
335.094
327.304
327.504
327.767
328.047
328.326
328.59
328.826
329.019
329.157
329.228
329.228
329.157
329.019
328.826
328.59
328.326
328.047
327.767
327.504
327.304
319.513
319.654
319.842
320.042
320.241
320.43
320.598
320.736
320.835
320.886
320.886
320.835
320.736
320.598
320.43
320.241
320.042
319.842
319.654
319.513
311.721
311.806
311.918
312.038
312.158
312.271
312.372
312.455
312.514
312.545
312.545
312.514
312.455
312.372
312.271
312.158
312.038
311.918
311.806
311.721
303.929
303.957
303.995
304.035
304.075
304.113
304.147
304.175
304.195
304.205
304.205
304.195
304.175
304.147
304.113
304.075
304.035
303.995
303.957
303.929
360.364
360.792
361.322
361.877
362.425
362.942
363.401
363.776
364.042
364.181
364.181
364.042
363.776
363.401
362.942
362.425
361.877
361.322
360.792
360.364
352.322
352.684
353.141
353.622
354.097
354.545
354.943
355.268
355.498
355.618
355.618
355.498
355.268
354.943
354.545
354.097
353.622
353.141
352.684
352.322
344.279
344.579
344.965
345.371
345.773
346.152
346.488
346.763
346.958
347.06
347.06
346.958
346.763
346.488
346.152
345.773
345.371
344.965
344.579
344.279
336.235
336.477
336.791
337.123
337.452
337.762
338.038
338.263
338.422
338.505
338.505
338.422
338.263
338.038
337.762
337.452
337.123
336.791
336.477
336.235
328.191
328.376
328.62
328.878
329.134
329.376
329.59
329.765
329.889
329.953
329.953
329.889
329.765
329.59
329.376
329.134
328.878
328.62
328.376
328.191
320.146
320.278
320.451
320.636
320.819
320.991
321.144
321.269
321.358
321.404
321.404
321.358
321.269
321.144
320.991
320.819
320.636
320.451
320.278
320.146
312.101
312.18
312.284
312.395
312.505
312.608
312.7
312.775
312.828
312.856
312.856
312.828
312.775
312.7
312.608
312.505
312.395
312.284
312.18
312.101
304.057
304.083
304.118
304.155
304.192
304.226
304.257
304.282
304.3
304.309
304.309
304.3
304.282
304.257
304.226
304.192
304.155
304.118
304.083
304.057
362.46
362.858
363.347
363.857
364.358
364.827
365.242
365.58
365.819
365.943
365.943
365.819
365.58
365.242
364.827
364.358
363.857
363.347
362.858
362.46
354.136
354.473
354.895
355.336
355.77
356.177
356.537
356.83
357.037
357.144
357.144
357.037
356.83
356.537
356.177
355.77
355.336
354.895
354.473
354.136
345.812
346.091
346.447
346.82
347.188
347.532
347.837
348.084
348.259
348.35
348.35
348.259
348.084
347.837
347.532
347.188
346.82
346.447
346.091
345.812
337.488
337.713
338.003
338.308
338.609
338.891
339.14
339.343
339.486
339.56
339.56
339.486
339.343
339.14
338.891
338.609
338.308
338.003
337.713
337.488
329.165
329.337
329.562
329.8
330.034
330.253
330.447
330.605
330.716
330.774
330.774
330.716
330.605
330.447
330.253
330.034
329.8
329.562
329.337
329.165
320.842
320.964
321.124
321.294
321.461
321.618
321.756
321.869
321.949
321.99
321.99
321.949
321.869
321.756
321.618
321.461
321.294
321.124
320.964
320.842
312.519
312.592
312.688
312.79
312.89
312.985
313.068
313.135
313.183
313.208
313.208
313.183
313.135
313.068
312.985
312.89
312.79
312.688
312.592
312.519
304.197
304.221
304.253
304.287
304.321
304.352
304.38
304.403
304.419
304.427
304.427
304.419
304.403
304.38
304.352
304.321
304.287
304.253
304.221
304.197
364.747
365.115
365.565
366.031
366.488
366.913
367.287
367.59
367.804
367.915
367.915
367.804
367.59
367.287
366.913
366.488
366.031
365.565
365.115
364.747
356.115
356.426
356.815
357.219
357.614
357.983
358.307
358.57
358.756
358.852
358.852
358.756
358.57
358.307
357.983
357.614
357.219
356.815
356.426
356.115
347.484
347.742
348.07
348.412
348.746
349.059
349.333
349.556
349.712
349.794
349.794
349.712
349.556
349.333
349.059
348.746
348.412
348.07
347.742
347.484
338.855
339.063
339.33
339.61
339.884
340.139
340.364
340.546
340.674
340.741
340.741
340.674
340.546
340.364
340.139
339.884
339.61
339.33
339.063
338.855
330.228
330.387
330.594
330.811
331.025
331.223
331.398
331.54
331.64
331.691
331.691
331.64
331.54
331.398
331.223
331.025
330.811
330.594
330.387
330.228
321.601
321.714
321.861
322.017
322.169
322.311
322.436
322.537
322.608
322.645
322.645
322.608
322.537
322.436
322.311
322.169
322.017
321.861
321.714
321.601
312.975
313.042
313.131
313.224
313.315
313.401
313.476
313.537
313.579
313.602
313.602
313.579
313.537
313.476
313.401
313.315
313.224
313.131
313.042
312.975
304.349
304.372
304.401
304.433
304.463
304.492
304.517
304.537
304.552
304.559
304.559
304.552
304.537
304.517
304.492
304.463
304.433
304.401
304.372
304.349
367.221
367.56
367.973
368.4
368.814
369.198
369.535
369.807
369.998
370.096
370.096
369.998
369.807
369.535
369.198
368.814
368.4
367.973
367.56
367.221
358.255
358.542
358.899
359.268
359.627
359.961
360.253
360.488
360.654
360.739
360.739
360.654
360.488
360.253
359.961
359.627
359.268
358.899
358.542
358.255
349.293
349.531
349.831
350.144
350.448
350.73
350.977
351.176
351.317
351.389
351.389
351.317
351.176
350.977
350.73
350.448
350.144
349.831
349.531
349.293
340.333
340.525
340.77
341.025
341.274
341.505
341.707
341.871
341.985
342.045
342.045
341.985
341.871
341.707
341.505
341.274
341.025
340.77
340.525
340.333
331.376
331.523
331.713
331.912
332.105
332.285
332.443
332.57
332.659
332.705
332.705
332.659
332.57
332.443
332.285
332.105
331.912
331.713
331.523
331.376
322.421
322.525
322.66
322.802
322.941
323.069
323.182
323.272
323.336
323.369
323.369
323.336
323.272
323.182
323.069
322.941
322.802
322.66
322.525
322.421
313.467
313.529
313.61
313.696
313.779
313.856
313.924
313.978
314.016
314.036
314.036
314.016
313.978
313.924
313.856
313.779
313.696
313.61
313.529
313.467
304.514
304.535
304.562
304.591
304.619
304.645
304.667
304.685
304.698
304.705
304.705
304.698
304.685
304.667
304.645
304.619
304.591
304.562
304.535
304.514
369.872
370.185
370.563
370.952
371.328
371.674
371.977
372.22
372.391
372.478
372.478
372.391
372.22
371.977
371.674
371.328
370.952
370.563
370.185
369.872
360.548
360.812
361.139
361.475
361.801
362.102
362.364
362.575
362.723
362.799
362.799
362.723
362.575
362.364
362.102
361.801
361.475
361.139
360.812
360.548
351.228
351.447
351.723
352.007
352.283
352.538
352.76
352.939
353.064
353.128
353.128
353.064
352.939
352.76
352.538
352.283
352.007
351.723
351.447
351.228
341.914
342.09
342.315
342.548
342.774
342.982
343.164
343.31
343.412
343.465
343.465
343.412
343.31
343.164
342.982
342.774
342.548
342.315
342.09
341.914
332.604
332.739
332.913
333.095
333.27
333.433
333.574
333.688
333.768
333.809
333.809
333.768
333.688
333.574
333.433
333.27
333.095
332.913
332.739
332.604
323.297
323.393
323.517
323.647
323.772
323.888
323.989
324.071
324.128
324.157
324.157
324.128
324.071
323.989
323.888
323.772
323.647
323.517
323.393
323.297
313.993
314.05
314.125
314.202
314.278
314.348
314.408
314.457
314.491
314.509
314.509
314.491
314.457
314.408
314.348
314.278
314.202
314.125
314.05
313.993
304.69
304.71
304.735
304.761
304.786
304.809
304.83
304.846
304.857
304.863
304.863
304.857
304.846
304.83
304.809
304.786
304.761
304.735
304.71
304.69
372.674
372.961
373.307
373.661
374.002
374.315
374.586
374.804
374.956
375.035
375.035
374.956
374.804
374.586
374.315
374.002
373.661
373.307
372.961
372.674
362.965
363.208
363.507
363.814
364.109
364.381
364.616
364.805
364.937
365.005
365.005
364.937
364.805
364.616
364.381
364.109
363.814
363.507
363.208
362.965
353.266
353.467
353.719
353.979
354.229
354.459
354.659
354.819
354.93
354.988
354.988
354.93
354.819
354.659
354.459
354.229
353.979
353.719
353.467
353.266
343.576
343.738
343.943
344.156
344.361
344.549
344.712
344.843
344.935
344.982
344.982
344.935
344.843
344.712
344.549
344.361
344.156
343.943
343.738
343.576
333.893
334.017
334.177
334.342
334.502
334.648
334.775
334.877
334.949
334.985
334.985
334.949
334.877
334.775
334.648
334.502
334.342
334.177
334.017
333.893
324.217
324.304
324.418
324.536
324.65
324.755
324.846
324.919
324.97
324.996
324.996
324.97
324.919
324.846
324.755
324.65
324.536
324.418
324.304
324.217
314.544
314.597
314.665
314.736
314.805
314.868
314.922
314.966
314.997
315.012
315.012
314.997
314.966
314.922
314.868
314.805
314.736
314.665
314.597
314.544
304.875
304.893
304.916
304.939
304.962
304.983
305.002
305.016
305.027
305.032
305.032
305.027
305.016
305.002
304.983
304.962
304.939
304.916
304.893
304.875
375.552
375.816
376.134
376.457
376.766
377.049
377.294
377.489
377.625
377.695
377.695
377.625
377.489
377.294
377.049
376.766
376.457
376.134
375.816
375.552
365.438
365.661
365.935
366.215
366.484
366.73
366.942
367.111
367.23
367.29
367.29
367.23
367.111
366.942
366.73
366.484
366.215
365.935
365.661
365.438
355.342
355.527
355.758
355.995
356.223
356.431
356.611
356.755
356.855
356.906
356.906
356.855
356.755
356.611
356.431
356.223
355.995
355.758
355.527
355.342
345.263
345.412
345.6
345.795
345.981
346.151
346.299
346.416
346.499
346.541
346.541
346.499
346.416
346.299
346.151
345.981
345.795
345.6
345.412
345.263
335.198
335.312
335.459
335.61
335.755
335.888
336.003
336.094
336.158
336.191
336.191
336.158
336.094
336.003
335.888
335.755
335.61
335.459
335.312
335.198
325.145
325.226
325.33
325.438
325.542
325.637
325.719
325.785
325.83
325.854
325.854
325.83
325.785
325.719
325.637
325.542
325.438
325.33
325.226
325.145
315.1
315.149
315.212
315.276
315.339
315.396
315.445
315.484
315.512
315.526
315.526
315.512
315.484
315.445
315.396
315.339
315.276
315.212
315.149
315.1
305.061
305.077
305.098
305.12
305.141
305.16
305.177
305.19
305.199
305.204
305.204
305.199
305.19
305.177
305.16
305.141
305.12
305.098
305.077
305.061
378.324
378.568
378.861
379.158
379.441
379.698
379.92
380.097
380.22
380.283
380.283
380.22
380.097
379.92
379.698
379.441
379.158
378.861
378.568
378.324
367.79
367.996
368.25
368.507
368.753
368.977
369.17
369.324
369.431
369.486
369.486
369.431
369.324
369.17
368.977
368.753
368.507
368.25
367.996
367.79
357.295
357.466
357.68
357.898
358.107
358.297
358.461
358.592
358.682
358.729
358.729
358.682
358.592
358.461
358.297
358.107
357.898
357.68
357.466
357.295
346.835
346.973
347.148
347.327
347.498
347.654
347.788
347.895
347.97
348.008
348.008
347.97
347.895
347.788
347.654
347.498
347.327
347.148
346.973
346.835
336.405
336.511
336.647
336.786
336.92
337.041
337.146
337.229
337.287
337.317
337.317
337.287
337.229
337.146
337.041
336.92
336.786
336.647
336.511
336.405
325.999
326.074
326.171
326.271
326.366
326.453
326.528
326.588
326.629
326.65
326.65
326.629
326.588
326.528
326.453
326.366
326.271
326.171
326.074
325.999
315.61
315.655
315.713
315.773
315.83
315.883
315.928
315.963
315.988
316.001
316.001
315.988
315.963
315.928
315.883
315.83
315.773
315.713
315.655
315.61
305.231
305.246
305.266
305.286
305.305
305.323
305.338
305.35
305.358
305.363
305.363
305.358
305.35
305.338
305.323
305.305
305.286
305.266
305.246
305.231
380.5
380.729
381.005
381.283
381.548
381.788
381.995
382.159
382.273
382.331
382.331
382.273
382.159
381.995
381.788
381.548
381.283
381.005
380.729
380.5
369.566
369.761
370
370.242
370.473
370.683
370.863
371.006
371.105
371.157
371.157
371.105
371.006
370.863
370.683
370.473
370.242
370
369.761
369.566
358.724
358.886
359.089
359.294
359.491
359.669
359.823
359.945
360.029
360.073
360.073
360.029
359.945
359.823
359.669
359.491
359.294
359.089
358.886
358.724
347.958
348.089
348.254
348.423
348.584
348.731
348.857
348.957
349.027
349.063
349.063
349.027
348.957
348.857
348.731
348.584
348.423
348.254
348.089
347.958
337.251
337.352
337.48
337.612
337.738
337.852
337.951
338.029
338.083
338.111
338.111
338.083
338.029
337.951
337.852
337.738
337.612
337.48
337.352
337.251
326.589
326.66
326.752
326.847
326.937
327.019
327.089
327.146
327.184
327.204
327.204
327.184
327.146
327.089
327.019
326.937
326.847
326.752
326.66
326.589
315.959
316.002
316.057
316.114
316.168
316.217
316.26
316.293
316.317
316.329
316.329
316.317
316.293
316.26
316.217
316.168
316.114
316.057
316.002
315.959
305.348
305.362
305.38
305.399
305.418
305.434
305.448
305.46
305.467
305.472
305.472
305.467
305.46
305.448
305.434
305.418
305.399
305.38
305.362
305.348
)
;

boundaryField
{
    hotSide
    {
        type            fixedGradient;
        gradient        nonuniform List<scalar> 
400
(
522.485
524.251
527.789
533.114
540.247
549.213
560.041
572.762
587.411
604.019
622.619
643.242
665.913
690.659
717.5
746.456
777.542
810.771
846.152
883.694
531.52
533.214
536.611
541.732
548.603
557.258
567.735
580.076
594.323
610.518
628.701
648.908
671.175
695.528
721.995
750.595
781.347
814.262
849.352
886.624
541.297
542.905
546.136
551.014
557.575
565.864
575.931
587.829
601.613
617.335
635.044
654.786
676.6
700.52
726.576
754.79
785.18
817.761
852.543
889.531
551.655
553.164
556.2
560.796
567
574.869
584.469
595.866
609.129
624.324
641.51
660.741
682.064
705.519
731.136
758.941
788.953
821.187
855.65
892.348
562.304
563.701
566.519
570.8
576.606
584.01
593.095
603.944
616.644
631.272
647.9
666.592
687.401
710.372
735.538
762.926
792.556
824.44
858.586
894.998
572.801
574.079
576.663
580.608
585.992
592.906
601.45
611.731
623.848
637.895
653.957
672.107
692.403
714.894
739.618
766.6
795.861
827.41
861.254
897.395
582.544
583.702
586.053
589.665
594.631
601.062
609.079
618.806
630.361
643.853
659.378
677.015
696.832
718.879
743.195
769.806
798.731
829.978
863.552
899.451
590.813
591.863
594.005
597.318
601.909
607.91
615.46
624.7
635.763
648.772
663.833
681.032
700.44
722.111
746.084
772.385
801.031
832.029
865.38
901.081
596.864
597.832
599.813
602.897
607.205
612.88
620.076
628.95
639.646
652.295
667.012
683.888
702.997
724.394
748.118
774.196
802.641
833.461
866.653
902.214
600.071
600.994
602.888
605.847
610
615.498
622.504
631.18
641.679
654.136
668.67
685.374
704.324
725.576
749.17
775.13
803.47
834.197
867.307
902.795
600.071
600.994
602.888
605.847
610
615.498
622.504
631.18
641.679
654.136
668.67
685.374
704.324
725.576
749.17
775.13
803.47
834.197
867.307
902.795
596.864
597.832
599.813
602.897
607.205
612.88
620.076
628.95
639.646
652.295
667.012
683.888
702.997
724.394
748.118
774.196
802.641
833.461
866.653
902.214
590.813
591.863
594.005
597.318
601.909
607.91
615.46
624.7
635.763
648.772
663.833
681.032
700.44
722.111
746.084
772.385
801.031
832.029
865.38
901.081
582.544
583.702
586.053
589.665
594.631
601.062
609.079
618.806
630.361
643.853
659.378
677.015
696.832
718.879
743.195
769.806
798.731
829.978
863.552
899.451
572.801
574.079
576.663
580.608
585.992
592.906
601.45
611.731
623.848
637.895
653.957
672.107
692.403
714.894
739.618
766.6
795.861
827.41
861.254
897.395
562.304
563.701
566.519
570.8
576.606
584.01
593.095
603.944
616.644
631.272
647.9
666.592
687.401
710.372
735.538
762.926
792.556
824.44
858.586
894.998
551.655
553.164
556.2
560.796
567
574.869
584.469
595.866
609.129
624.324
641.51
660.741
682.064
705.519
731.136
758.941
788.953
821.187
855.65
892.348
541.297
542.905
546.136
551.014
557.575
565.864
575.931
587.829
601.613
617.335
635.044
654.786
676.6
700.52
726.576
754.79
785.18
817.761
852.543
889.531
531.52
533.214
536.611
541.732
548.603
557.258
567.735
580.076
594.323
610.518
628.701
648.908
671.175
695.528
721.995
750.595
781.347
814.262
849.352
886.624
522.485
524.251
527.789
533.114
540.247
549.213
560.041
572.762
587.411
604.019
622.619
643.242
665.913
690.659
717.5
746.456
777.542
810.771
846.152
883.694
)
;
    }
    coldSide
    {
        type            mixed;
        refValue        uniform 300;
        refGradient     uniform 0;
        valueFraction   uniform 0.991591;
        source          uniform 0;
        value           nonuniform List<scalar> 
400
(
300.028
300.028
300.028
300.028
300.029
300.029
300.03
300.03
300.031
300.032
300.033
300.034
300.035
300.037
300.038
300.039
300.041
300.043
300.044
300.045
300.028
300.028
300.028
300.029
300.029
300.03
300.03
300.031
300.031
300.032
300.033
300.034
300.035
300.037
300.038
300.04
300.041
300.043
300.044
300.045
300.029
300.029
300.029