/*--------------------------------*- C++ -*----------------------------------*\
| =========                 |                                                 |
| \\      /  F ield         | OpenFOAM: The Open Source CFD Toolbox           |
|  \\    /   O peration     | Version:  2212                                  |
|   \\  /    A nd           | Website:  www.openfoam.com                      |
|    \\/     M anipulation  |                                                 |
\*---------------------------------------------------------------------------*/
FoamFile
{
    version     2.0;
    format      ascii;
    arch        "LSB;label=32;scalar=64";
    class       volScalarField;
    location    "0";
    object      Ttrue;
}
// * * * * * * * * * * * * * * * * * * * * * * * * * * * * * * * * * * * * * //

dimensions      [0 0 0 1 0 0 0];

internalField   nonuniform List<scalar> 
3200
(
336.772
337.242
337.841
338.494
339.167
339.828
340.438
340.952
341.327
341.525
341.525
341.327
340.952
340.438
339.828
339.167
338.494
337.841
337.242
336.772
331.989
332.387
332.904
333.469
334.051
334.623
335.15
335.594
335.918
336.089
336.089
335.918
335.594
335.15
334.623
334.051
333.469
332.904
332.387
331.989
327.156
327.485
327.921
328.399
328.891
329.374
329.819
330.194
330.467
330.611
330.611
330.467
330.194
329.819
329.374
328.891
328.399
327.921
327.485
327.156
322.28
322.545
322.9
323.291
323.693
324.087
324.451
324.757
324.98
325.098
325.098
324.98
324.757
324.451
324.087
323.693
323.291
322.9
322.545
322.28
317.369
317.573
317.849
318.152
318.465
318.771
319.053
319.291
319.465
319.556
319.556
319.465
319.291
319.053
318.771
318.465
318.152
317.849
317.573
317.369
312.432
312.576
312.772
312.989
313.212
313.431
313.633
313.803
313.926
313.991
313.991
313.926
313.803
313.633
313.431
313.212
312.989
312.772
312.576
312.432
307.475
307.561
307.679
307.809
307.943
308.075
308.196
308.297
308.372
308.411
308.411
308.372
308.297
308.196
308.075
307.943
307.809
307.679
307.561
307.475
302.507
302.536
302.575
302.619
302.664
302.708
302.748
302.783
302.807
302.82
302.82
302.807
302.783
302.748
302.708
302.664
302.619
302.575
302.536
302.507
336.898
337.364
337.958
338.606
339.272
339.925
340.527
341.036
341.406
341.601
341.601
341.406
341.036
340.527
339.925
339.272
338.606
337.958
337.364
336.898
332.099
332.493
333.006
333.566
334.142
334.707
335.228
335.667
335.987
336.156
336.156
335.987
335.667
335.228
334.707
334.142
333.566
333.006
332.493
332.099
327.249
327.576
328.008
328.481
328.968
329.445
329.885
330.256
330.526
330.668
330.668
330.526
330.256
329.885
329.445
328.968
328.481
328.008
327.576
327.249
322.356
322.619
322.972
323.358
323.756
324.147
324.506
324.808
325.029
325.145
325.145
325.029
324.808
324.506
324.147
323.756
323.358
322.972
322.619
322.356
317.429
317.631
317.904
318.204
318.514
318.817
319.096
319.331
319.502
319.592
319.592
319.502
319.331
319.096
318.817
318.514
318.204
317.904
317.631
317.429
312.474
312.617
312.812
313.027
313.248
313.464
313.664
313.831
313.953
314.018
314.018
313.953
313.831
313.664
313.464
313.248
313.027
312.812
312.617
312.474
307.501
307.586
307.703
307.832
307.964
308.094
308.214
308.315
308.388
308.426
308.426
308.388
308.315
308.214
308.094
307.964
307.832
307.703
307.586
307.501
302.516
302.544
302.583
302.626
302.671
302.714
302.755
302.788
302.813
302.826
302.826
302.813
302.788
302.755
302.714
302.671
302.626
302.583
302.544
302.516
337.151
337.609
338.193
338.829
339.481
340.121
340.709
341.205
341.566
341.756
341.756
341.566
341.205
340.709
340.121
339.481
338.829
338.193
337.609
337.151
332.318
332.706
333.21
333.76
334.325
334.878
335.387
335.815
336.127
336.291
336.291
336.127
335.815
335.387
334.878
334.325
333.76
333.21
332.706
332.318
327.435
327.757
328.182
328.646
329.123
329.591
330.02
330.382
330.645
330.783
330.783
330.645
330.382
330.02
329.591
329.123
328.646
328.182
327.757
327.435
322.509
322.768
323.114
323.494
323.884
324.266
324.617
324.912
325.127
325.24
325.24
325.127
324.912
324.617
324.266
323.884
323.494
323.114
322.768
322.509
317.548
317.747
318.015
318.31
318.614
318.91
319.183
319.412
319.579
319.667
319.667
319.579
319.412
319.183
318.91
318.614
318.31
318.015
317.747
317.548
312.56
312.7
312.892
313.102
313.319
313.531
313.726
313.889
314.008
314.071
314.071
314.008
313.889
313.726
313.531
313.319
313.102
312.892
312.7
312.56
307.552
307.636
307.751
307.877
308.007
308.135
308.251
308.35
308.421
308.459
308.459
308.421
308.35
308.251
308.135
308.007
307.877
307.751
307.636
307.552
302.533
302.561
302.599
302.642
302.685
302.728
302.767
302.8
302.824
302.837
302.837
302.824
302.8
302.767
302.728
302.685
302.642
302.599
302.561
302.533
337.531
337.979
338.548
339.166
339.8
340.418
340.987
341.465
341.812
341.995
341.995
341.812
341.465
340.987
340.418
339.8
339.166
338.548
337.979
337.531
332.649
333.028
333.519
334.054
334.602
335.137
335.629
336.042
336.342
336.5
336.5
336.342
336.042
335.629
335.137
334.602
334.054
333.519
333.028
332.649
327.715
328.03
328.444
328.896
329.359
329.811
330.226
330.575
330.828
330.962
330.962
330.828
330.575
330.226
329.811
329.359
328.896
328.444
328.03
327.715
322.739
322.992
323.329
323.699
324.077
324.447
324.786
325.071
325.278
325.387
325.387
325.278
325.071
324.786
324.447
324.077
323.699
323.329
322.992
322.739
317.727
317.921
318.183
318.47
318.764
319.052
319.315
319.537
319.697
319.782
319.782
319.697
319.537
319.315
319.052
318.764
318.47
318.183
317.921
317.727
312.688
312.825
313.012
313.217
313.427
313.632
313.82
313.978
314.093
314.153
314.153
314.093
313.978
313.82
313.632
313.427
313.217
313.012
312.825
312.688
307.629
307.711
307.823
307.946
308.072
308.196
308.309
308.403
308.472
308.508
308.508
308.472
308.403
308.309
308.196
308.072
307.946
307.823
307.711
307.629
302.559
302.586
302.624
302.665
302.707
302.748
302.786
302.818
302.841
302.853
302.853
302.841
302.818
302.786
302.748
302.707
302.665
302.624
302.586
302.559
338.04
338.474
339.025
339.621
340.23
340.823
341.366
341.822
342.152
342.326
342.326
342.152
341.822
341.366
340.823
340.23
339.621
339.025
338.474
338.04
333.091
333.459
333.934
334.449
334.977
335.49
335.96
336.354
336.639
336.789
336.789
336.639
336.354
335.96
335.49
334.977
334.449
333.934
333.459
333.091
328.091
328.396
328.796
329.232
329.677
330.111
330.508
330.841
331.081
331.208
331.208
331.081
330.841
330.508
330.111
329.677
329.232
328.796
328.396
328.091
323.047
323.292
323.618
323.974
324.339
324.693
325.018
325.289
325.486
325.59
325.59
325.486
325.289
325.018
324.693
324.339
323.974
323.618
323.292
323.047
317.967
318.155
318.408
318.685
318.968
319.244
319.496
319.707
319.86
319.94
319.94
319.86
319.707
319.496
319.244
318.968
318.685
318.408
318.155
317.967
312.859
312.993
313.173
313.371
313.573
313.77
313.95
314.101
314.21
314.267
314.267
314.21
314.101
313.95
313.77
313.573
313.371
313.173
312.993
312.859
307.732
307.812
307.92
308.039
308.16
308.278
308.386
308.477
308.542
308.577
308.577
308.542
308.477
308.386
308.278
308.16
308.039
307.92
307.812
307.732
302.593
302.62
302.656
302.696
302.737
302.776
302.812
302.843
302.865
302.876
302.876
302.865
302.843
302.812
302.776
302.737
302.696
302.656
302.62
302.593
338.68
339.098
339.626
340.196
340.776
341.339
341.853
342.283
342.594
342.757
342.757
342.594
342.283
341.853
341.339
340.776
340.196
339.626
339.098
338.68
333.647
334.001
334.457
334.95
335.453
335.94
336.385
336.756
337.025
337.166
337.166
337.025
336.756
336.385
335.94
335.453
334.95
334.457
334.001
333.647
328.563
328.856
329.24
329.657
330.082
330.494
330.869
331.183
331.41
331.529
331.529
331.41
331.183
330.869
330.494
330.082
329.657
329.24
328.856
328.563
323.434
323.67
323.983
324.324
324.671
325.008
325.315
325.571
325.756
325.854
325.854
325.756
325.571
325.315
325.008
324.671
324.324
323.983
323.67
323.434
318.268
318.45
318.693
318.957
319.227
319.489
319.728
319.927
320.071
320.147
320.147
320.071
319.927
319.728
319.489
319.227
318.957
318.693
318.45
318.268
313.075
313.203
313.377
313.566
313.759
313.946
314.116
314.258
314.361
314.415
314.415
314.361
314.258
314.116
313.946
313.759
313.566
313.377
313.203
313.075
307.862
307.939
308.042
308.156
308.272
308.384
308.486
308.572
308.633
308.666
308.666
308.633
308.572
308.486
308.384
308.272
308.156
308.042
307.939
307.862
302.637
302.662
302.697
302.735
302.774
302.812
302.846
302.875
302.895
302.906
302.906
302.895
302.875
302.846
302.812
302.774
302.735
302.697
302.662
302.637
339.452
339.852
340.355
340.896
341.444
341.974
342.456
342.858
343.148
343.3
343.3
343.148
342.858
342.456
341.974
341.444
340.896
340.355
339.852
339.452
334.319
334.657
335.091
335.56
336.034
336.493
336.91
337.258
337.508
337.639
337.639
337.508
337.258
336.91
336.493
336.034
335.56
335.091
334.657
334.319
329.132
329.413
329.779
330.174
330.576
330.964
331.316
331.61
331.821
331.932
331.932
331.821
331.61
331.316
330.964
330.576
330.174
329.779
329.413
329.132
323.901
324.126
324.425
324.748
325.077
325.394
325.682
325.922
326.094
326.185
326.185
326.094
325.922
325.682
325.394
325.077
324.748
324.425
324.126
323.901
318.632
318.806
319.037
319.289
319.544
319.79
320.014
320.201
320.335
320.405
320.405
320.335
320.201
320.014
319.79
319.544
319.289
319.037
318.806
318.632
313.336
313.458
313.623
313.803
313.985
314.161
314.321
314.454
314.55
314.6
314.6
314.55
314.454
314.321
314.161
313.985
313.803
313.623
313.458
313.336
308.019
308.092
308.191
308.299
308.408
308.514
308.61
308.69
308.747
308.777
308.777
308.747
308.69
308.61
308.514
308.408
308.299
308.191
308.092
308.019
302.689
302.714
302.747
302.783
302.82
302.855
302.887
302.914
302.933
302.944
302.944
302.933
302.914
302.887
302.855
302.82
302.783
302.747
302.714
302.689
340.359
340.739
341.215
341.725
342.24
342.734
343.182
343.554
343.822
343.962
343.962
343.822
343.554
343.182
342.734
342.24
341.725
341.215
340.739
340.359
335.107
335.429
335.84
336.281
336.727
337.155
337.543
337.865
338.096
338.217
338.217
338.096
337.865
337.543
337.155
336.727
336.281
335.84
335.429
335.107
329.801
330.068
330.414
330.787
331.164
331.526
331.854
332.126
332.322
332.424
332.424
332.322
332.126
331.854
331.526
331.164
330.787
330.414
330.068
329.801
324.449
324.664
324.946
325.251
325.559
325.856
326.124
326.346
326.506
326.589
326.589
326.506
326.346
326.124
325.856
325.559
325.251
324.946
324.664
324.449
319.06
319.224
319.444
319.681
319.92
320.151
320.359
320.532
320.656
320.721
320.721
320.656
320.532
320.359
320.151
319.92
319.681
319.444
319.224
319.06
313.641
313.758
313.914
314.084
314.255
314.419
314.568
314.692
314.78
314.827
314.827
314.78
314.692
314.568
314.419
314.255
314.084
313.914
313.758
313.641
308.202
308.272
308.366
308.467
308.57
308.669
308.758
308.832
308.886
308.913
308.913
308.886
308.832
308.758
308.669
308.57
308.467
308.366
308.272
308.202
302.751
302.774
302.806
302.84
302.874
302.907
302.937
302.962
302.98
302.989
302.989
302.98
302.962
302.937
302.907
302.874
302.84
302.806
302.774
302.751
341.403
341.762
342.21
342.687
343.167
343.626
344.039
344.381
344.626
344.755
344.755
344.626
344.381
344.039
343.626
343.167
342.687
342.21
341.762
341.403
336.015
336.318
336.705
337.118
337.534
337.931
338.289
338.585
338.797
338.908
338.908
338.797
338.585
338.289
337.931
337.534
337.118
336.705
336.318
336.015
330.571
330.823
331.149
331.498
331.849
332.185
332.488
332.738
332.918
333.011
333.011
332.918
332.738
332.488
332.185
331.849
331.498
331.149
330.823
330.571
325.081
325.283
325.549
325.835
326.122
326.397
326.644
326.849
326.995
327.072
327.072
326.995
326.849
326.644
326.397
326.122
325.835
325.549
325.283
325.081
319.552
319.707
319.914
320.136
320.359
320.573
320.765
320.924
321.038
321.098
321.098
321.038
320.924
320.765
320.573
320.359
320.136
319.914
319.707
319.552
313.994
314.104
314.251
314.409
314.569
314.722
314.859
314.973
315.054
315.096
315.096
315.054
314.973
314.859
314.722
314.569
314.409
314.251
314.104
313.994
308.414
308.48
308.568
308.663
308.759
308.851
308.933
309.001
309.05
309.076
309.076
309.05
309.001
308.933
308.851
308.759
308.663
308.568
308.48
308.414
302.822
302.844
302.873
302.905
302.937
302.968
302.996
303.019
303.035
303.044
303.044
303.035
303.019
302.996
302.968
302.937
302.905
302.873
302.844
302.822
342.586
342.923
343.343
343.787
344.231
344.654
345.033
345.345
345.569
345.685
345.685
345.569
345.345
345.033
344.654
344.231
343.787
343.343
342.923
342.586
337.044
337.329
337.691
338.075
338.46
338.826
339.155
339.425
339.618
339.719
339.719
339.618
339.425
339.155
338.826
338.46
338.075
337.691
337.329
337.044
331.444
331.68
331.985
332.311
332.636
332.946
333.223
333.452
333.615
333.701
333.701
333.615
333.452
333.223
332.946
332.636
332.311
331.985
331.68
331.444
325.796
325.986
326.235
326.501
326.767
327.021
327.248
327.435
327.568
327.638
327.638
327.568
327.435
327.248
327.021
326.767
326.501
326.235
325.986
325.796
320.11
320.256
320.449
320.655
320.862
321.059
321.236
321.382
321.485
321.54
321.54
321.485
321.382
321.236
321.059
320.862
320.655
320.449
320.256
320.11
314.393
314.496
314.634
314.781
314.929
315.07
315.196
315.3
315.374
315.413
315.413
315.374
315.3
315.196
315.07
314.929
314.781
314.634
314.496
314.393
308.654
308.716
308.798
308.887
308.976
309.06
309.136
309.198
309.243
309.266
309.266
309.243
309.198
309.136
309.06
308.976
308.887
308.798
308.716
308.654
302.902
302.923
302.951
302.98
303.01
303.038
303.064
303.085
303.1
303.107
303.107
303.1
303.085
303.064
303.038
303.01
302.98
302.951
302.923
302.902
343.911
344.226
344.616
345.028
345.437
345.824
346.17
346.454
346.656
346.761
346.761
346.656
346.454
346.17
345.824
345.437
345.028
344.616
344.226
343.911
338.195
338.461
338.798
339.155
339.509
339.845
340.144
340.39
340.565
340.656
340.656
340.565
340.39
340.144
339.845
339.509
339.155
338.798
338.461
338.195
332.421
332.642
332.926
333.227
333.527
333.811
334.064
334.272
334.42
334.497
334.497
334.42
334.272
334.064
333.811
333.527
333.227
332.926
332.642
332.421
326.597
326.775
327.007
327.253
327.498
327.731
327.938
328.108
328.229
328.292
328.292
328.229
328.108
327.938
327.731
327.498
327.253
327.007
326.775
326.597
320.734
320.87
321.05
321.242
321.432
321.613
321.774
321.907
322.001
322.05
322.05
322.001
321.907
321.774
321.613
321.432
321.242
321.05
320.87
320.734
314.839
314.936
315.064
315.201
315.337
315.466
315.582
315.676
315.743
315.778
315.778
315.743
315.676
315.582
315.466
315.337
315.201
315.064
314.936
314.839
308.923
308.98
309.057
309.139
309.221
309.299
309.368
309.425
309.465
309.486
309.486
309.465
309.425
309.368
309.299
309.221
309.139
309.057
308.98
308.923
302.992
303.012
303.037
303.065
303.092
303.118
303.142
303.161
303.174
303.181
303.181
303.174
303.161
303.142
303.118
303.092
303.065
303.037
303.012
302.992
345.378
345.671
346.034
346.413
346.788
347.141
347.455
347.712
347.894
347.989
347.989
347.894
347.712
347.455
347.141
346.788
346.413
346.034
345.671
345.378
339.47
339.719
340.031
340.36
340.685
340.991
341.263
341.485
341.643
341.725
341.725
341.643
341.485
341.263
340.991
340.685
340.36
340.031
339.719
339.47
333.503
333.709
333.972
334.25
334.525
334.784
335.014
335.202
335.336
335.405
335.405
335.336
335.202
335.014
334.784
334.525
334.25
333.972
333.709
333.503
327.485
327.65
327.865
328.092
328.317
328.529
328.718
328.871
328.981
329.037
329.037
328.981
328.871
328.718
328.529
328.317
328.092
327.865
327.65
327.485
321.425
321.553
321.719
321.896
322.071
322.236
322.382
322.502
322.587
322.631
322.631
322.587
322.502
322.382
322.236
322.071
321.896
321.719
321.553
321.425
315.334
315.424
315.543
315.669
315.794
315.912
316.017
316.102
316.163
316.194
316.194
316.163
316.102
316.017
315.912
315.794
315.669
315.543
315.424
315.334
309.22
309.274
309.345
309.421
309.496
309.567
309.63
309.681
309.717
309.736
309.736
309.717
309.681
309.63
309.567
309.496
309.421
309.345
309.274
309.22
303.092
303.11
303.134
303.159
303.185
303.208
303.229
303.247
303.259
303.265
303.265
303.259
303.247
303.229
303.208
303.185
303.159
303.134
303.11
303.092
346.99
347.262
347.596
347.945
348.287
348.608
348.892
349.123
349.287
349.372
349.372
349.287
349.123
348.892
348.608
348.287
347.945
347.596
347.262
346.99
340.871
341.102
341.39
341.692
341.989
342.267
342.513
342.713
342.855
342.929
342.929
342.855
342.713
342.513
342.267
341.989
341.692
341.39
341.102
340.871
334.691
334.882
335.125
335.381
335.632
335.868
336.076
336.245
336.365
336.427
336.427
336.365
336.245
336.076
335.868
335.632
335.381
335.125
334.882
334.691
328.459
328.613
328.811
329.02
329.226
329.418
329.589
329.727
329.825
329.876
329.876
329.825
329.727
329.589
329.418
329.226
329.02
328.811
328.613
328.459
322.185
322.303
322.457
322.619
322.779
322.929
323.061
323.169
323.245
323.285
323.285
323.245
323.169
323.061
322.929
322.779
322.619
322.457
322.303
322.185
315.877
315.961
316.071
316.187
316.301
316.408
316.503
316.58
316.634
316.663
316.663
316.634
316.58
316.503
316.408
316.301
316.187
316.071
315.961
315.877
309.547
309.596
309.662
309.732
309.801
309.865
309.922
309.968
310.001
310.018
310.018
310.001
309.968
309.922
309.865
309.801
309.732
309.662
309.596
309.547
303.202
303.218
303.24
303.264
303.287
303.308
303.327
303.343
303.354
303.36
303.36
303.354
303.343
303.327
303.308
303.287
303.264
303.24
303.218
303.202
348.746
348.997
349.305
349.624
349.936
350.227
350.483
350.69
350.837
350.912
350.912
350.837
350.69
350.483
350.227
349.936
349.624
349.305
348.997
348.746
342.397
342.61
342.876
343.152
343.423
343.675
343.897
344.077
344.203
344.269
344.269
344.203
344.077
343.897
343.675
343.423
343.152
342.876
342.61
342.397
335.986
336.162
336.386
336.62
336.849
337.062
337.25
337.402
337.509
337.565
337.565
337.509
337.402
337.25
337.062
336.849
336.62
336.386
336.162
335.986
329.521
329.663
329.845
330.036
330.224
330.398
330.552
330.677
330.764
330.81
330.81
330.764
330.677
330.552
330.398
330.224
330.036
329.845
329.663
329.521
323.012
323.121
323.262
323.411
323.557
323.693
323.812
323.909
323.978
324.013
324.013
323.978
323.909
323.812
323.693
323.557
323.411
323.262
323.121
323.012
316.469
316.546
316.647
316.754
316.858
316.955
317.04
317.11
317.158
317.184
317.184
317.158
317.11
317.04
316.955
316.858
316.754
316.647
316.546
316.469
309.902
309.948
310.009
310.073
310.135
310.194
310.245
310.287
310.316
310.331
310.331
310.316
310.287
310.245
310.194
310.135
310.073
310.009
309.948
309.902
303.321
303.336
303.357
303.378
303.399
303.419
303.436
303.45
303.46
303.465
303.465
303.46
303.45
303.436
303.419
303.399
303.378
303.357
303.336
303.321
350.643
350.875
351.158
351.449
351.733
351.995
352.226
352.412
352.542
352.61
352.61
352.542
352.412
352.226
351.995
351.733
351.449
351.158
350.875
350.643
344.046
344.242
344.486
344.739
344.984
345.212
345.412
345.573
345.686
345.745
345.745
345.686
345.573
345.412
345.212
344.984
344.739
344.486
344.242
344.046
337.384
337.546
337.752
337.966
338.174
338.367
338.536
338.672
338.768
338.817
338.817
338.768
338.672
338.536
338.367
338.174
337.966
337.752
337.546
337.384
330.667
330.797
330.965
331.14
331.31
331.468
331.606
331.718
331.796
331.837
331.837
331.796
331.718
331.606
331.468
331.31
331.14
330.965
330.797
330.667
323.905
324.005
324.135
324.271
324.403
324.526
324.634
324.721
324.782
324.813
324.813
324.782
324.721
324.634
324.526
324.403
324.271
324.135
324.005
323.905
317.108
317.179
317.272
317.369
317.463
317.551
317.628
317.69
317.734
317.756
317.756
317.734
317.69
317.628
317.551
317.463
317.369
317.272
317.179
317.108
310.286
310.329
310.384
310.443
310.499
310.552
310.598
310.636
310.662
310.675
310.675
310.662
310.636
310.598
310.552
310.499
310.443
310.384
310.329
310.286
303.45
303.464
303.483
303.502
303.521
303.539
303.554
303.567
303.576
303.58
303.58
303.576
303.567
303.554
303.539
303.521
303.502
303.483
303.464
303.45
352.674
352.888
353.146
353.412
353.669
353.906
354.113
354.279
354.396
354.456
354.456
354.396
354.279
354.113
353.906
353.669
353.412
353.146
352.888
352.674
345.809
345.99
346.213
346.443
346.666
346.872
347.051
347.196
347.297
347.349
347.349
347.297
347.196
347.051
346.872
346.666
346.443
346.213
345.99
345.809
338.878
339.028
339.216
339.411
339.599
339.774
339.925
340.047
340.133
340.177
340.177
340.133
340.047
339.925
339.774
339.599
339.411
339.216
339.028
338.878
331.89
332.011
332.165
332.324
332.478
332.621
332.745
332.845
332.915
332.951
332.951
332.915
332.845
332.745
332.621
332.478
332.324
332.165
332.011
331.89
324.857
324.95
325.069
325.193
325.313
325.424
325.521
325.599
325.653
325.681
325.681
325.653
325.599
325.521
325.424
325.313
325.193
325.069
324.95
324.857
317.789
317.855
317.94
318.028
318.114
318.193
318.263
318.318
318.357
318.377
318.377
318.357
318.318
318.263
318.193
318.114
318.028
317.94
317.855
317.789
310.696
310.735
310.786
310.839
310.89
310.938
310.98
311.013
311.036
311.049
311.049
311.036
311.013
310.98
310.938
310.89
310.839
310.786
310.735
310.696
303.587
303.6
303.617
303.635
303.652
303.668
303.682
303.693
303.701
303.705
303.705
303.701
303.693
303.682
303.668
303.652
303.635
303.617
303.6
303.587
354.815
355.012
355.249
355.491
355.724
355.938
356.124
356.272
356.376
356.43
356.43
356.376
356.272
356.124
355.938
355.724
355.491
355.249
355.012
354.815
347.665
347.831
348.035
348.245
348.447
348.633
348.794
348.923
349.013
349.06
349.06
349.013
348.923
348.794
348.633
348.447
348.245
348.035
347.831
347.665
340.447
340.585
340.758
340.935
341.106
341.263
341.4
341.509
341.586
341.625
341.625
341.586
341.509
341.4
341.263
341.106
340.935
340.758
340.585
340.447
333.174
333.285
333.426
333.571
333.711
333.84
333.952
334.041
334.104
334.136
334.136
334.104
334.041
333.952
333.84
333.711
333.571
333.426
333.285
333.174
325.856
325.941
326.05
326.163
326.272
326.372
326.459
326.529
326.578
326.603
326.603
326.578
326.529
326.459
326.372
326.272
326.163
326.05
325.941
325.856
318.502
318.563
318.64
318.721
318.799
318.871
318.933
318.983
319.018
319.036
319.036
319.018
318.983
318.933
318.871
318.799
318.721
318.64
318.563
318.502
311.124
311.16
311.207
311.255
311.302
311.345
311.382
311.412
311.433
311.444
311.444
311.433
311.412
311.382
311.345
311.302
311.255
311.207
311.16
311.124
303.731
303.743
303.758
303.774
303.79
303.805
303.817
303.827
303.834
303.838
303.838
303.834
303.827
303.817
303.805
303.79
303.774
303.758
303.743
303.731
357.01
357.191
357.408
357.629
357.84
358.034
358.201
358.334
358.428
358.475
358.475
358.428
358.334
358.201
358.034
357.84
357.629
357.408
357.191
357.01
349.557
349.71
349.898
350.089
350.273
350.441
350.586
350.702
350.783
350.825
350.825
350.783
350.702
350.586
350.441
350.273
350.089
349.898
349.71
349.557
342.042
342.169
342.327
342.489
342.645
342.787
342.91
343.008
343.077
343.112
343.112
343.077
343.008
342.91
342.787
342.645
342.489
342.327
342.169
342.042
334.474
334.576
334.705
334.838
334.965
335.082
335.183
335.263
335.319
335.348
335.348
335.319
335.263
335.183
335.082
334.965
334.838
334.705
334.576
334.474
326.863
326.942
327.042
327.145
327.244
327.335
327.414
327.476
327.52
327.543
327.543
327.52
327.476
327.414
327.335
327.244
327.145
327.042
326.942
326.863
319.221
319.276
319.347
319.421
319.492
319.557
319.613
319.658
319.689
319.705
319.705
319.689
319.658
319.613
319.557
319.492
319.421
319.347
319.276
319.221
311.555
311.588
311.63
311.675
311.717
311.756
311.79
311.817
311.836
311.846
311.846
311.836
311.817
311.79
311.756
311.717
311.675
311.63
311.588
311.555
303.875
303.886
303.9
303.915
303.929
303.942
303.954
303.963
303.969
303.972
303.972
303.969
303.963
303.954
303.942
303.929
303.915
303.9
303.886
303.875
359.114
359.281
359.481
359.684
359.877
360.054
360.206
360.326
360.411
360.454
360.454
360.411
360.326
360.206
360.054
359.877
359.684
359.481
359.281
359.114
351.35
351.491
351.664
351.841
352.009
352.162
352.294
352.399
352.472
352.51
352.51
352.472
352.399
352.294
352.162
352.009
351.841
351.664
351.491
351.35
343.536
343.653
343.799
343.948
344.091
344.221
344.333
344.422
344.485
344.516
344.516
344.485
344.422
344.333
344.221
344.091
343.948
343.799
343.653
343.536
335.68
335.775
335.894
336.016
336.133
336.24
336.332
336.405
336.456
336.482
336.482
336.456
336.405
336.332
336.24
336.133
336.016
335.894
335.775
335.68
327.792
327.864
327.957
328.052
328.144
328.227
328.298
328.355
328.395
328.415
328.415
328.395
328.355
328.298
328.227
328.144
328.052
327.957
327.864
327.792
319.878
319.93
319.996
320.064
320.129
320.189
320.24
320.281
320.309
320.324
320.324
320.309
320.281
320.24
320.189
320.129
320.064
319.996
319.93
319.878
311.948
311.978
312.018
312.059
312.098
312.134
312.165
312.189
312.206
312.215
312.215
312.206
312.189
312.165
312.134
312.098
312.059
312.018
311.978
311.948
304.006
304.016
304.03
304.043
304.057
304.069
304.079
304.087
304.093
304.096
304.096
304.093
304.087
304.079
304.069
304.057
304.043
304.03
304.016
304.006
360.755
360.912
361.1
361.29
361.471
361.636
361.777
361.889
361.967
362.007
362.007
361.967
361.889
361.777
361.636
361.471
361.29
361.1
360.912
360.755
352.695
352.828
352.992
353.158
353.315
353.459
353.582
353.68
353.748
353.783
353.783
353.748
353.68
353.582
353.459
353.315
353.158
352.992
352.828
352.695
344.622
344.733
344.872
345.012
345.147
345.269
345.374
345.457
345.515
345.545
345.545
345.515
345.457
345.374
345.269
345.147
345.012
344.872
344.733
344.622
336.536
336.626
336.739
336.855
336.965
337.065
337.152
337.22
337.268
337.292
337.292
337.268
337.22
337.152
337.065
336.965
336.855
336.739
336.626
336.536
328.439
328.507
328.595
328.686
328.772
328.85
328.917
328.971
329.008
329.027
329.027
329.008
328.971
328.917
328.85
328.772
328.686
328.595
328.507
328.439
320.331
320.38
320.442
320.507
320.569
320.625
320.673
320.711
320.738
320.752
320.752
320.738
320.711
320.673
320.625
320.569
320.507
320.442
320.38
320.331
312.215
312.244
312.282
312.321
312.358
312.392
312.421
312.444
312.46
312.468
312.468
312.46
312.444
312.421
312.392
312.358
312.321
312.282
312.244
312.215
304.095
304.105
304.118
304.131
304.143
304.154
304.164
304.172
304.177
304.18
304.18
304.177
304.172
304.164
304.154
304.143
304.131
304.118
304.105
304.095
)
;

boundaryField
{
    hotSide
    {
        type            fixedGradient;
        gradient        nonuniform List<scalar> 
400
(
377.958
379.264
381.882
385.821
391.095
397.722
405.721
415.114
425.924
438.174
451.884
467.077
483.77
501.98
521.723
543.011
565.854
590.262
616.241
643.797
384.136
385.394
387.916
391.715
396.81
403.224
410.983
420.116
430.651
442.618
456.043
470.952
487.368
505.31
524.797
545.841
568.456
592.65
618.429
645.801
390.822
392.022
394.429
398.062
402.945
409.109
416.588
425.418
435.637
447.28
460.381
474.971
491.078
508.724
527.929
548.71
571.077
595.042
620.611
647.789
397.906
399.037
401.311
404.752
409.391
415.267
422.426
430.914
440.777
452.059
464.803
479.044
494.815
512.142
531.048
551.548
573.658
597.385
622.736
649.715
405.188
406.243
408.368
411.593
415.96
421.518
428.325
436.439
445.916
456.811
469.173
483.045
498.465
515.461
534.058
554.274
576.121
599.61
624.744
651.527
412.367
413.34
415.305
418.301
422.378
427.602
434.04
441.763
450.842
461.34
473.315
486.816
501.885
518.554
536.848
556.787
578.381
601.641
626.569
653.166
419.03
419.921
421.727
424.494
428.286
433.179
439.257
446.602
455.296
465.415
477.022
490.173
504.914
521.279
539.294
558.979
580.344
603.397
628.14
654.572
424.685
425.502
427.165
429.727
433.264
437.863
443.62
450.632
458.991
468.779
480.068
492.92
507.381
523.489
541.27
560.742
581.917
604.8
629.39
655.687
428.823
429.584
431.137
433.543
436.885
441.261
446.777
453.539
461.646
471.188
482.243
494.873
509.13
525.05
542.661
561.98
583.018
605.779
630.261
656.462
431.016
431.746
433.239
435.56
438.797
443.052
448.437
455.064
463.036
472.447
483.376
495.889
510.037
525.859
543.38
562.619
583.585
606.282
630.708
656.859
431.016
431.746
433.239
435.56
438.797
443.052
448.437
455.064
463.036
472.447
483.376
495.889
510.037
525.859
543.38
562.619
583.585
606.282
630.708
656.859
428.823
429.584
431.137
433.543
436.885
441.261
446.777
453.539
461.646
471.188
482.243
494.873
509.13
525.05
542.661
561.98
583.018
605.779
630.261
656.462
424.685
425.502
427.165
429.727
433.264
437.863
443.62
450.632
458.991
468.779
480.068
492.92
507.381
523.489
541.27
560.742
581.917
604.8
629.39
655.687
419.03
419.921
421.727
424.494
428.286
433.179
439.257
446.602
455.296
465.415
477.022
490.173
504.914
521.279
539.294
558.979
580.344
603.397
628.14
654.572
412.367
413.34
415.305
418.301
422.378
427.602
434.04
441.763
450.842
461.34
473.315
486.816
501.885
518.554
536.848
556.787
578.381
601.641
626.569
653.166
405.188
406.243
408.368
411.593
415.96
421.518
428.325
436.439
445.916
456.811
469.173
483.045
498.465
515.461
534.058
554.274
576.121
599.61
624.744
651.527
397.906
399.037
401.311
404.752
409.391
415.267
422.426
430.914
440.777
452.059
464.803
479.044
494.815
512.142
531.048
551.548
573.658
597.385
622.736
649.715
390.822
392.022
394.429
398.062
402.945
409.109
416.588
425.418
435.637
447.28
460.381
474.971
491.078
508.724
527.929
548.71
571.077
595.042
620.611
647.789
384.136
385.394
387.916
391.715
396.81
403.224
410.983
420.116
430.651
442.618
456.043
470.952
487.368
505.31
524.797
545.841
568.456
592.65
618.429
645.801
377.958
379.264
381.882
385.821
391.095
397.722
405.721
415.114
425.924
438.174
451.884
467.077
483.77
501.98
521.723
543.011
565.854
590.262
616.241
643.797
)
;
    }
    coldSide
    {
        type            mixed;
        refValue        uniform 300;
        refGradient     uniform 0;
        valueFraction   uniform 0.991591;
        source          uniform 0;
        value           nonuniform List<scalar> 
400
(
300.021
300.021
300.021
300.022
300.022
300.022
300.023
300.023
300.024
300.024
300.025
300.026
300.027
300.028
300.029
300.03
300.031
300.033
300.034
300.034
300.021
300.021
300.022
300.022
300.022
300.022
300.023
300.023
300.024
300.025
300.025
300.026
300.027