/*--------------------------------*- C++ -*----------------------------------*\
| =========                 |                                                 |
| \\      /  F ield         | OpenFOAM: The Open Source CFD Toolbox           |
|  \\    /   O peration     | Version:  2212                                  |
|   \\  /    A nd           | Website:  www.openfoam.com                      |
|    \\/     M anipulation  |                                                 |
\*---------------------------------------------------------------------------*/
FoamFile
{
    version     2.0;
    format      ascii;
    arch        "LSB;label=32;scalar=64";
    class       volScalarField;
    location    "./ITHACAoutput/true/19.3";
    object      error;
}
// * * * * * * * * * * * * * * * * * * * * * * * * * * * * * * * * * * * * * //

dimensions      [0 0 0 1 0 0 0];

internalField   nonuniform List<scalar> 
3200
(
3.95538
5.35581
5.62384
4.57451
3.63531
5.83065
4.92803
4.07641
6.16572
3.82473
5.86359
5.60584
6.14379
4.99825
6.55859
4.89368
3.40328
4.80263
4.70512
5.42441
4.88257
6.26686
4.07736
4.25231
4.84145
4.86824
5.96962
5.10816
3.63108
4.81205
5.72825
3.99493
5.18485
5.89821
6.45554
3.53132
4.13693
5.06904
4.24004
3.27102
2.65737
1.91272
2.93579
4.45855
3.68798
5.16217
4.53394
3.57875
2.76713
6.5877
4.97557
4.92942
3.58165
6.15786
3.97818
4.11423
3.69246
3.91592
5.43104
3.65817
2.22372
2.80562
2.51258
3.81829
4.15491
3.78305
3.04214
4.26862
3.62348
2.03962
1.2926
4.65059
4.42737
4.38643
2.25434
2.3286
2.97764
4.05112
2.04474
3.53326
-0.160988
2.5172
3.05341
2.99911
1.78868
2.1957
2.31353
3.4504
1.94695
1.58303
3.20041
3.65328
3.21359
1.55692
3.4744
1.43407
1.52291
2.2231
1.47507
1.13923
0.206044
2.28074
1.48254
0.823606
1.4378
2.24412
2.30152
2.75696
0.329678
3.32688
1.30012
0.482647
2.59544
4.60764
1.56651
2.04198
0.868887
1.68629
0.0790684
2.20327
1.235
2.16882
-1.14364
2.57523
1.69049
1.02243
0.538357
0.0164199
2.23074
1.8212
2.3268
1.9021
-0.795751
0.408843
1.11165
0.535389
2.0986
0.254205
2.69465
0.898761
0.371073
0.980961
0.903895
0.879761
0.706431
-0.346612
-0.662576
1.85091
1.18592
0.359324
0.239114
-0.352658
2.09625
-0.618946
-0.792897
0.941112
-0.674982
-1.64748
2.07286
1.02449
4.30383
3.9408
4.81429
3.19429
5.05314
4.9946
4.49018
7.38746
5.24145
5.8533
3.68811
5.89272
5.12069
6.57883
4.89457
3.52851
3.98894
4.26934
4.20013
4.8489
3.08397
1.00266
4.03211
0.337766
3.78763
0.117285
3.82029
-0.0400917
4.68526
0.474962
-0.265614
5.07802
0.139746
3.59082
0.207966
4.91916
0.540145
5.22114
-0.0542368
2.94779
1.8245
4.7237
2.81164
3.35235
4.64161
2.11446
2.09477
4.00691
5.15807
2.08455
3.85424
2.34454
6.3293
3.59131
3.91706
3.93845
4.65917
1.34039
1.22649
3.60344
1.67222
3.57289
2.23899
1.7639
2.60947
2.39598
3.30718
4.25397
3.1918
1.7229
3.30936
3.64577
2.46192
4.33561
3.92278
4.28959
3.33357
3.52712
1.06921
4.08785
3.01814
1.24435
4.5785
2.81196
2.19892
2.31336
1.76848
3.59683
4.689
3.15531
1.8946
4.37994
2.57698
1.24589
1.71353
2.01097
1.58011
4.10379
1.74199
2.90076
0.670025
-1.39344
1.41797
-0.676106
1.26637
1.99621
1.33033
2.10492
1.58295
0.726472
3.74067
2.39496
1.33521
2.44038
2.7149
0.471259
1.35493
2.37616
2.41742
1.0186
-0.735875
-0.0171518
1.8432
1.39774
0.522375
1.59941
0.650403
1.0316
1.07243
1.22004
-0.454894
3.1801
-0.187914
0.570177
0.213042
0.837175
1.20498
-1.00453
1.23448
0.644359
1.38795
0.51759
-1.98805
0.916559
-0.174736
0.800685
0.858838
-0.628267
0.244889
0.461461
0.928567
0.432286
-0.0955108
0.193337
-0.665163
-0.682511
0.569764
3.41354
1.42518
-0.771547
2.82054
4.62118
5.458
4.15607
3.59329
4.46596
3.44249
4.11962
5.00593
4.72625
5.043
4.72219
3.36062
4.21444
3.51248
4.04565
3.62466
4.05118
4.76946
4.19404
5.36164
5.08873
3.26315
4.20603
3.58622
4.31866
3.0026
2.53774
3.40858
2.39244
3.25144
4.27029
3.36023
3.40136
2.509
2.82171
2.73891
3.43525
4.86293
2.48258
2.86821
1.37237
3.37036
2.46598
2.22841
4.14973
6.59757
4.30947
3.38957
3.66112
3.15269
2.56561
2.40767
3.29735
3.6925
3.68876
2.29496
3.3357
2.29432
1.10507
2.46373
1.56922
2.36808
1.21708
3.73787
3.88956
3.11049
4.01647
3.75456
4.73543
3.12942
1.96374
2.94296
1.83893
2.66089
1.49076
2.69817
1.75488
1.68624
3.89495
2.63149
3.78791
1.44526
1.99692
2.16734
2.07815
2.40315
1.91024
1.78676
1.61221
0.55684
2.21603
4.3834
4.67966
1.06017
3.58027
1.05133
2.00798
1.88172
1.7509
0.093606
1.01395
1.93415
0.0537026
1.45134
0.540034
0.669416
2.93993
-1.08726
1.72423
-0.468858
2.30419
1.45532
4.01532
2.45033
0.0596646
2.15249
1.24673
0.786458
0.862321
1.61089
0.955242
1.42762
0.583245
1.43505
2.51858
0.0983277
1.92784
1.26319
2.61216
-0.360631
3.35299
1.98393
0.666213
0.450004
0.500023
-0.276077
0.495668
1.52385
-0.414117
-0.637185
0.394705
1.81832
0.113003
1.68628
1.39194
0.110708
0.5191
0.712216
-0.290015
0.908635
-0.600736
0.504913
0.383543
-0.105757
-0.266753
-1.40476
0.363383
-0.999035
-0.758486
4.50442
2.01784
2.94381
2.25659
3.74064
2.8881
3.08503
3.0876
1.49028
3.24578
4.2181
4.42342
3.04505
2.68989
2.45943
2.10366
2.04076
2.97063
0.843884
2.45981
2.80591
0.99554
1.89113
1.12647
1.88435
-0.718369
3.52385
0.157444
4.55652
0.83447
0.0418997
3.79196
0.0932968
2.85464
-0.154276
3.15029
0.263228
3.87504
-0.679528
3.53404
2.95454
3.61634
2.23829
1.15626
3.27283
2.83119
2.87327
2.31331
3.52975
3.2516
3.72455
1.91003
1.13471
2.79905
0.803564
4.38714
1.09747
1.9453
0.542492
1.10281
0.171015
0.05333
1.33905
0.997554
3.27536
-1.34046
1.87792
3.32683
2.24802
-0.552055
3.95842
2.46785
4.12494
1.44382
0.881449
2.33981
2.45025
1.20568
0.102749
1.92686
1.78328
0.990261
0.559119
-0.952497
2.20765
0.834384
0.176307
3.41093
1.41967
-0.21971
0.503202
2.52626
3.39847
0.384727
1.02148
0.464637
2.88974
0.19349
1.29307
0.99057
1.0417
2.78379
-0.183806
0.0192854
1.23605
1.96595
-0.676205
0.942138
3.54047
0.635001
0.376625
3.58128
1.13432
2.20656
1.20203
0.94834
1.25185
0.666105
0.352007
0.859147
1.15252
2.62044
0.705235
-0.995414
0.749017
-1.09991
2.827
0.434761
1.39561
0.622958
-0.464893
-1.9687
-1.21993
0.905346
0.776967
0.548748
0.7236
1.07544
0.10619
1.42866
1.85293
-0.937118
0.622194
0.457014
-1.01779
0.340809
0.703108
-0.503209
0.350334
0.644914
0.200876
-0.965709
0.0628043
-0.336079
1.01423
-0.246476
1.4602
-0.504039
0.689778
-0.0388938
3.00694
3.87534
1.05644
2.35454
2.56943
2.7044
4.29258
2.02262
2.09455
3.80388
3.0353
1.70453
4.05389
3.53765
1.25032
2.20146
3.04975
2.87088
0.87503
1.56309
2.92089
0.292391
0.674092
2.60851
3.01973
2.09169
2.01927
2.68941
1.87154
1.47115
4.20584
1.81107
2.66246
0.0383264
3.30642
1.79035
2.02288
1.09626
-0.117031
1.00331
2.74882
1.1458
0.381245
1.1218
0.529879
2.35324
0.842879
2.46546
2.5289
1.28781
3.16842
0.439366
1.40612
2.98975
1.65674
1.74092
0.347981
0.735488
0.592897
0.987679
0.471572
2.12002
0.118757
1.53453
1.08867
2.31077
1.18392
2.41514
2.15781
2.37753
1.08086
2.45805
1.96604
1.15244
1.17304
1.02521
1.6974
1.44421
1.29118
1.29613
1.11882
0.844064
2.41033
1.15861
0.157342
1.18594
0.127104
1.52898
3.15567
2.97946
0.828633
-0.645687
1.46488
0.734427
1.43238
-0.333302
-0.483669
1.56671
0.82539
0.832079
2.07457
-0.590042
1.24227
0.596143
1.26915
-0.771996
1.16322
0.488926
0.0279831
0.795635
1.15738
0.443088
0.278275
1.78911
0.555391
2.52077
2.45516
1.05215
2.8942
0.864466
-1.38151
0.113376
0.16379
-1.53099
-0.922744
1.46387
-0.107003
0.268783
0.142904
-0.0217076
-1.43736
-0.240353
1.57671
0.89655
-0.405576
0.689514
-0.181793
-0.0985922
-0.972214
-0.178215
-0.769041
0.922071
0.922204
0.0329486
0.847747
2.16881
1.37615
-0.656169
-0.596172
0.149336
1.40132
-0.811282
1.36873
0.451711
-1.49633
2.19716
-0.35889
-1.66269
-1.3526
0.706121
1.22019
2.85771
2.4942
0.259035
-0.0759342
1.25407
2.34683
0.983184
3.26849
3.1865
1.75958
1.97321
2.70357
-0.313816
2.47576
0.846234
3.38651
-1.1135
-0.494379
0.0082074
1.71945
0.754178
1.77901
0.72991
2.37332
0.351224
1.02359
0.453747
0.245072
-0.350136
0.5089
2.41877
-0.123247
2.42986
0.178967
2.00875
-0.395713
1.63263
-0.323276
0.620197
2.06714
1.53653
2.0685
1.63458
3.46011
2.1914
1.83528
0.542157
0.116694
2.98039
2.44552
-0.139883
-0.932305
2.99964
1.18136
2.37211
0.548002
2.98484
1.41049
-2.00184
0.215539
0.218743
1.73523
-0.258047
1.51071
-0.4977
0.651165
-0.419626
0.770551
0.412381
1.28953
2.66205
1.07327
0.502517
1.05844
-0.660726
0.253009
0.723158
1.50454
2.00434
1.23338
0.44727
1.59943
1.30943
1.00437
1.77504
1.53893
0.511792
2.73278
1.4287
1.81885
0.861734
1.69147
2.53209
1.27263
1.1108
1.5248
0.389625
-1.01081
0.651676
-1.47148
0.304042
-0.648335
0.544513
1.52635
2.43714
0.367665
-1.23667
-0.778155
0.557793
1.09918
-0.12057
-0.401757
1.08006
0.619151
0.599617
1.07463
-0.546657
-1.04288
0.604238
1.88426
1.08868
0.731989
-0.940684
-0.573104
-0.717537
1.17813
0.433158
-0.872918
-0.497194
1.05241
-0.65922
0.120872
0.443088
0.946965
0.898779
1.87026
0.380396
-0.864635
-1.18397
-1.88171
2.05208
-0.923385
-1.84714
1.22571
-0.067395
0.239697
0.160143
0.22632
-0.44296
-1.11455
0.85616
0.252732
-0.44718
0.14198
1.2255
-0.387661
0.055903
-0.82996
0.654106
0.974991
1.30097
0.526389
1.94589
0.109053
0.975571
2.37005
-0.394964
1.15647
0.845285
4.32457
0.166555
0.238823
-0.181528
1.66225
0.675366
1.87948
-0.599926
0.943407
-1.09117
-0.0292676
0.346537
2.3143
-0.351969
-0.282264
0.609274
1.94225
1.67631
2.15841
1.58065
2.1224
1.63497
1.45969
0.796516
-0.335199
1.27288
0.201858
-0.578494
2.76738
0.694191
0.783605
1.16464
1.60665
0.18473
-0.491797
0.917579
1.80754
0.797282
-0.491973
0.315368
0.0827954
0.0194418
1.98155
1.50155
1.47376
2.17994
0.794644
0.464273
0.143533
-0.0575188
1.3372
0.36352
2.41723
0.246575
-0.042905
0.722161
-0.623526
0.736527
1.02318
-0.0840114
-0.273043
2.30501
-0.0474133
1.74852
0.962289
0.330726
-0.24502
-0.0446255
-1.64374
0.637471
0.0125805
1.00143
1.3382
0.493552
-0.387454
0.234989
-1.36656
-0.0350504
0.851415
0.376484
2.69445
-0.729501
2.65476
-0.165942
-0.247645
-1.63253
1.66076
0.734106
-1.15999
-1.65779
-1.23343
1.40488
-0.111722
1.43067
-0.330172
-1.33012
0.112021
0.630245
-0.392332
-0.372183
2.31761
1.35098
-2.0942
0.908094
0.165545
-1.57537
-0.254343
-1.22018
1.57298
-0.611677
0.357319
0.741062
0.195552
0.263814
-1.27608
0.189325
0.331528
1.02476
0.143017
-0.207349
0.4585
0.744022
1.12869
-0.629137
1.22543
-0.983652
0.11289
1.84288
0.159196
-0.259724
1.15004
-1.79109
-2.80845
-0.906636
0.986009
0.836546
1.27486
0.446695
-0.499877
-0.761544
2.36276
-0.0640788
2.6345
-2.68746
0.511537
0.569433
1.2059
-1.06768
-0.117254
0.982946
-0.699771
2.66623
1.63993
0.349983
0.618294
-0.742031
-1.49783
1.29878
1.32075
-1.82881
0.630025
1.36893
-0.678301
0.968388
0.238139
-1.42552
-0.359566
-0.0511636
-0.432571
0.255086
-1.98974
1.53899
1.0611
1.04682
2.87378
-0.0872136
1.84844
0.24448
0.120567
0.544215
0.0204342
-0.86745
-0.0652037
-1.29148
-0.153923
0.334116
0.342524
-1.00755
-0.193205
2.50791
-0.609794
-0.933877
1.48587
1.50343
-2.40345
1.38901
-0.764201
1.81301
-1.64867
1.90902
-2.47812
0.580628
1.38613
-0.0157283
-0.771944
0.00152057
1.03172
-0.194693
-0.581022
-2.16555
1.27734
0.36416
0.982478
-2.48412
-0.0444407
-0.785914
0.836404
-0.390552
-0.371391
0.961423
1.14082
-0.19319
-0.490651
0.454862
-0.0431755
0.941083
-0.0148602
-0.440477
0.930527
-0.320504
-0.305655
0.958499
2.39483
-0.169375
-0.554751
1.80208
-0.279202
1.30282
-0.396155
1.37642
0.0319911
-0.854641
-0.582188
1.01956
0.146542
-0.376585
0.0235812
0.461785
-0.466642
-1.41179
-0.519152
1.30696
-0.26171
-0.417802
0.356262
0.811332
-0.516855
-0.171707
0.33081
2.25601
-0.697742
-0.518653
0.151122
-1.67014
0.00529004
-0.533305
-0.0817735
-0.541598
2.35605
-1.11893
-0.255127
-0.419526
2.82046
1.8248
0.745315
0.766565
-0.784683
0.366834
-0.547113
1.3224
-1.35178
1.26445
-1.08058
-1.53289
0.855011
0.0440627
0.368549
1.67942
0.944112
0.633441
0.249795
0.430198
0.758435
-1.79725
0.391024
-0.798291
-0.648408
-0.749659
-0.030051
-1.35174
-1.52184
-0.967623
-2.28882
-0.187839
0.0887942
0.595335
-0.467586
0.411411
-0.81543
0.135337
0.69038
0.652516
1.13177
-0.412503
1.45393
-0.686774
-0.626652
-0.57853
0.861573
-2.12611
0.542191
-0.265421
-1.77501
0.393101
0.158727
-0.367271
0.815961
-0.356186
-1.84223
0.198012
0.231477
2.43621
-0.922164
-1.72383
-2.1662
-0.628933
0.348328
0.581057
1.95769
0.534518
1.7844
-0.290777
1.68117
-0.241934
0.912396
0.604326
-0.918655
-1.11468
0.0301815
-2.11192
0.1056
1.49694
0.352429
1.53922
-1.38153
-0.195109
1.35825
-1.98152
0.0755606
0.828593
2.39751
0.451449
-0.621461
-1.18443
0.237743
-1.63234
-0.497446
-0.0300305
0.745311
0.602978
0.358281
1.57998
-0.650169
-2.01324
1.03044
0.996542
-1.22725
-2.00486
-1.07132
-2.82579
-1.20801
-0.410751
-1.00541
-0.530422
-1.58854
-0.523651
-1.34969
-2.32562
0.853649
-1.13951
-0.927819
0.764347
0.609041
-1.51583
0.442867
1.43089
1.33174
0.600111
-0.213935
0.117307
-1.19562
1.6867
0.486791
0.980396
-0.93895
-1.8285
-1.9177
-0.454921
-0.0790875
0.419998
0.597802
0.827664
-0.923921
-0.233905
0.583293
0.303555
-0.603959
1.8705
0.839764
-0.200187
0.913269
-1.80079
-2.52478
0.169911
-0.917827
-0.197993
0.452319
0.727619
-1.24451
2.49792
-1.08994
-0.0127435
-1.2193
-0.480822
0.721924
0.571756
-0.354377
0.927089
0.296071
-0.121899
0.585035
0.461135
-0.111732
-0.56426
0.172166
-0.758087
-0.165456
-0.943709
-0.0567852
1.04329
-0.0226513
0.137578
0.720305
2.19417
1.50637
-1.26073
-0.836167
1.23581
1.35155
1.05376
-0.0828762
0.320606
0.267449
2.16018
-2.15034
0.373461
0.0879395
1.04372
0.762914
0.175342
0.648557
1.34142
-0.746481
-1.52527
0.484928
0.189132
-1.37951
-0.495714
-1.70365
-3.35093
-2.21277
-2.00793
0.803527
-0.936482
-2.21286
-0.906452
-1.374
-1.01879
-0.697813
-0.649475
-0.286542
1.03256
-0.431373
0.496783
-1.17903
0.53071
-0.729172
-0.0449781
0.564623
-0.569623
0.674116
-0.605607
-0.191671
-1.15591
0.500947
-1.97024
-0.01194
-1.87235
-0.343329
-1.55556
0.478117
-0.263654
0.204946
-1.77818
0.485546
-1.84029
-1.08173
-0.897538
-0.262096
-1.04872
-0.620222
-1.16531
-0.770382
-0.482095
-0.955312
-2.48101
-1.15814
-1.14427
-1.0684
-2.17524
0.825142
0.98062
2.68235
0.0167945
0.14731
-0.925876
1.24297
-1.96046
0.916291
-0.524698
-0.493608
0.238414
-1.8899
-1.2667
-0.579546
-1.26786
0.0254189
-0.0813582
1.76506
0.716201
-0.897428
0.902179
-0.628527
-0.751576
-0.0863571
-0.440747
-0.558717
-1.55905
-0.302733
-0.633677
-0.986415
-1.11922
1.02505
-1.44356
-0.922936
-1.50897
1.58612
-1.25345
0.476949
0.221448
1.40615
1.17561
-1.10277
-1.24436
-0.594949
0.853916
-0.33805
-0.175295
0.531934
-0.606319
-0.933836
-1.32203
0.745278
0.603615
-0.639047
-1.43699
-1.64701
0.087404
1.17819
0.432198
0.205723
-0.807169
-0.943729
-1.00749
-0.923913
0.287707
-0.318151
0.327663
1.61952
1.20441
0.65912
0.312257
0.503889
-0.717482
-2.73795
-0.860561
-0.185928
0.469759
0.931229
0.834999
0.541296
-0.442205
1.92547
1.61719
-0.438768
-0.642717
1.55617
1.2142
-0.373469
-0.670554
-0.978684
0.934345
0.296554
-2.22242
1.41606
-2.08419
1.60537
0.0465737
1.02753
-0.256401
-0.879263
-1.60323
-0.806847
0.444526
-1.69311
0.486152
-1.59069
0.325394
-0.168451
0.338943
-1.3424
-2.32245
-0.258981
-1.05743
-1.28193
-0.234975
-2.19735
-2.38879
-3.91772
-1.68846
1.93838
0.121078
0.780686
1.89145
1.0152
-0.0160274
-1.98922
0.0192491
0.0578734
-0.0610023
0.325565
0.430704
-0.0247871
-0.80739
-0.521593
-2.09643
-0.43862
-2.71844
-0.372848
-1.55451
-1.1953
-0.0288383
-1.01458
0.469861
-1.15699
0.0759835
-0.00156369
0.952968
-0.483647
0.340403
-0.618246
-1.91382
-0.66689
-0.547037
-2.00426
-3.17527
-1.52214
-3.74549
-1.66983
-0.581598
-1.5653
0.308127
0.225077
0.714563
-1.97796
-1.23235
0.197502
-1.37536
0.219237
0.716751
-0.695556
-1.06433
-1.66916
-0.180592
-1.42218
-0.40193
-0.757134
-2.01502
-0.906657
0.363954
-0.0398572
0.86455
-0.454611
-0.894826
0.727716
-0.805551
-1.01019
-0.650933
-0.712465
-0.959556
1.3245
-1.36316
-0.988856
-0.58262
-0.954133
-0.636888
-2.58375
-0.392656
-2.6501
-1.21937
-1.81598
-0.913808
-0.548717
0.0653125
0.739449
-0.188353
-0.190395
-0.43548
-0.273378
-1.81082
-0.929843
-0.576441
0.221964
0.217216
1.15608
0.943929
-1.5669
-0.246952
-1.9663
-1.9856
0.63604
-1.28706
0.535293
-1.41371
-1.91737
-1.59019
0.38079
-0.513823
-1.0435
-1.64395
-0.865902
-2.25491
0.197532
0.667826
0.139435
-0.215359
0.234263
-0.0886796
-0.322486
-0.164444
0.399815
1.63317
1.41063
-0.344247
0.0914402
-1.81925
-0.236536
0.457458
0.356849
1.17886
0.402348
-0.621877
-0.79508
-0.753465
1.20157
0.687105
0.334507
-0.887662
0.580343
-0.254246
0.136966
0.984928
-0.770709
-0.330718
-0.467057
-1.0549
-2.35698
-2.89269
-2.54446
0.730838
0.911897
0.0732757
-0.958936
-2.74188
-3.15646
-1.73664
-1.01787
-0.561363
-0.38183
-1.55888
1.93559
1.7365
-0.146248
-2.45758
-1.01342
-1.93856
1.14447
-1.77378
0.445087
-1.91333
-0.846276
-1.24261
-0.325606
-2.43478
-1.78722
0.0512031
-3.05738
-1.2797
-1.44322
-0.965627
-0.070537
1.32942
0.355507
0.469658
-1.02039
-0.685222
-1.82407
-3.20937
-0.747632
-0.771158
-1.09746
0.294773
0.312538
-1.53035
-0.972923
-1.33049
0.206721
-0.699895
-1.67447
-1.96097
-0.100276
0.681821
-0.26072
2.09174
1.52017
-0.643837
-2.54077
0.392451
-1.6851
0.0779528
0.0260144
-0.852844
-2.26096
-1.14872
-1.45252
-2.15574
1.29008
0.0414427
2.09339
-0.972348
-2.55245
0.0354751
-0.635823
-0.536546
0.023736
-0.410436
-0.855884
-0.987866
-1.56047
-2.60765
-0.764395
-1.25705
-0.212374
1.00788
-0.976551
-2.08255
-0.661288
0.633648
-1.79957
0.139803
-0.876331
-1.96065
-0.949283
0.258772
0.704336
0.323298
-2.44176
-0.961885
-0.162172
-0.912483
-0.116151
1.12323
-0.557374
-0.771768
-0.829693
-2.14254
-2.10036
0.39558
-0.237759
1.00163
-0.489923
-0.831607
1.06694
-2.94871
-0.964862
-0.336799
-0.375536
-0.482197
1.77129
-0.862101
-0.0576538
0.858469
-1.51669
0.194974
0.666888
-0.519988
0.655673
-1.54775
1.18084
-1.15286
-1.58336
-0.650803
0.989184
0.292601
0.468002
-0.0830372
-1.61566
0.418937
-0.75002
-0.88397
-1.52997
1.7826
-1.88468
-1.23401
0.029383
-0.796584
-0.630056
0.792564
-0.4164
0.285545
0.884754
-1.83434
0.0817882
-1.89074
-1.66025
0.457416
0.29005
-2.79278
-1.12684
-2.20669
-2.41465
-0.774482
-2.06296
-0.871827
-3.07091
-2.24921
-0.350198
-2.16693
-1.36316
-0.978477
-1.50571
0.491704
-0.532722
-0.139569
-1.31048
-0.214167
-2.07452
-0.222238
0.0798963
0.159661
-0.750966
-2.29625
0.0268432
0.79189
-0.323036
-3.02387
-0.234127
-1.46312
-0.526919
-1.54629
0.108237
0.586461
-1.65355
-1.94016
-1.64985
-1.66337
-1.39837
-1.6442
-0.531574
-0.93731
-1.40504
-2.01984
-0.684013
-1.43052
-1.61998
-1.34137
-1.39206
-0.655927
-1.92737
-0.26639
-2.52893
-1.32311
-1.43817
-0.422545
0.133182
-1.99326
-2.29043
-0.812501
0.211332
-1.78357
-2.46556
0.304624
-1.64583
-1.06002
-1.06892
-1.65132
0.000507131
-0.361555
-1.62909
-1.87642
0.429871
-0.162815
-0.880428
-0.233811
0.312837
0.482111
1.15704
-0.322449
-2.35438
0.109285
-2.1536
-1.34048
0.46294
1.95043
-2.021
-0.425379
-0.697774
0.0288938
-0.273358
-1.9433
0.610789
-1.40882
-0.234924
-1.43799
1.75944
-0.116545
0.336954
0.790367
-0.241528
0.661608
-0.437613
0.73453
-0.391841
-0.443288
-0.608162
-0.424134
-0.982389
-1.79601
-0.377023
-1.17384
-0.0789878
1.59224
0.0350223
0.454962
0.29841
-1.15942
-0.143867
-0.387
0.784975
0.498233
-1.26776
0.218703
-3.40802
0.262611
-0.267042
-0.574363
-0.498733
-0.287162
-0.285757
0.41499
-1.90063
0.479706
-0.0220503
-0.580667
0.442371
-0.504284
-0.447455
-1.15251
-2.16859
-0.683481
1.63686
-0.00971895
-0.358687
1.42707
-0.163896
-0.606628
0.534404
0.797282
-0.405248
0.251856
-0.335758
-0.442949
-1.28246
-0.886484
-1.0621
-0.840058
-2.07644
-1.71221
-0.832482
0.723618
-1.96105
-3.61911
-3.49469
-1.27866
-0.389079
0.49893
-1.39072
-3.81189
-1.40454
-0.807237
-1.04486
-1.72941
-0.214405
-0.475841
0.471453
0.645582
-0.638978
-1.89431
-0.825624
-2.20957
-0.183753
-2.48133
-2.46889
-2.37126
-1.08555
-0.683877
-1.0299
-0.799465
-2.0518
-1.83796
-0.523105
-0.804287
0.584495
-1.44152
-1.62057
0.180987
-2.20184
-0.532103
-0.292331
-2.35523
-0.373067
-0.551313
-1.47338
0.00419621
-1.43643
-2.27659
-1.26371
-0.788977
-0.100647
0.0552066
1.19377
-0.812236
-0.281691
-0.537956
0.630458
0.128414
-0.373638
-1.09507
-2.20734
-1.32562
-0.73898
-1.37823
-1.12247
-2.03245
-2.60978
-0.514524
-0.631233
0.900755
-0.614345
-1.75554
0.816244
-0.717723
-1.89217
-0.360262
-0.542664
-1.85344
-0.930725
-1.06227
-0.273274
-1.21112
-0.413773
-3.09896
-1.27601
-0.950278
-1.13745
-0.198412
0.492965
-2.97255
0.888787
1.13387
0.792709
0.362416
-0.191774
-0.887619
-1.30271
1.31896
0.243716
0.0809742
-0.316266
-1.33268
0.573903
0.759319
-1.73919
0.553383
-0.712285
0.869933
-0.331343
-0.271271
-0.408808
1.12317
-0.317825
-0.104569
-0.451902
-0.6149
1.88175
-2.18841
0.937343
-0.0479448
-0.845146
0.478214
0.0272152
-1.80237
-1.0926
-0.581541
-0.00487391
-1.40378
1.47554
-0.125354
1.1999
-0.221497
0.252762
-0.88786
-0.3848
-0.147795
-0.917161
-0.00354763
-0.83478
0.64436
-1.19595
0.403443
-0.256165
-0.0968936
-2.40909
0.289702
-0.486584
0.952274
0.0688154
-1.7201
0.209419
0.927592
0.900355
1.866
-0.985387
0.0913571
-1.61955
-2.43392
-1.39358
-0.641778
-2.23759
-2.19804
-2.16218
-1.27476
-2.13931
-2.52781
-1.36834
-4.08972
-1.13756
-0.903957
-0.973229
-0.756287
1.01167
-0.188905
0.945153
0.396238
-1.38592
-0.402062
-1.80795
0.261118
0.735053
0.360538
-0.635486
-2.00757
-0.17742
0.233648
-0.274357
-0.622171
0.15199
-1.63163
0.136964
-0.0323906
-0.896063
0.262184
-0.886169
-0.720218
-2.02424
-1.13158
-1.17483
0.510602
-0.644122
-0.92804
0.0827256
-0.675978
0.594461
-0.59107
-1.20624
-1.63646
-0.0193067
-3.36269
-2.51181
0.665401
1.73216
0.422879
-0.540454
-0.672926
0.0717785
1.6361
0.328757
-2.71996
-1.64659
-0.302116
-1.964
-0.940416
-1.49896
-1.66088
-0.436497
-0.729529
-0.574505
-2.13158
-0.0257171
-1.67182
-0.234814
-0.937482
-0.105521
-0.280592
1.13027
-1.68612
-0.0247356
-0.373722
-0.994732
-2.40959
-0.396244
-0.4667
-0.610211
1.15058
-0.0726785
0.916442
0.595034
-0.346678
-0.0549096
-0.0541404
-0.122354
-1.52479
1.01756
-0.874603
0.14382
2.22226
-1.84873
0.389962
0.761209
-1.53011
-2.72689
0.0293246
-1.94786
-0.0756473
-0.52883
-1.1079
-0.157791
0.458488
-0.126549
0.585567
2.08815
0.236764
0.465255
0.0971043
-0.678461
0.954964
0.924925
1.87756
-0.826221
-0.863139
0.674139
-0.199748
-1.04599
-1.36828
1.06346
0.176437
-1.06722
0.425364
-1.28263
0.00320377
0.746723
-0.655174
0.592059
-1.39044
0.411063
0.65681
-1.48553
-0.151131
-0.372746
0.102691
-0.294671
0.563414
-0.551621
0.270213
0.83063
1.41501
0.74829
-0.740813
-0.557382
-0.812567
2.88947
-0.379081
-0.341679
0.789274
-0.625136
-0.981961
-1.44525
-1.04354
-1.15786
-2.56925
-0.11849
0.89554
-1.15425
-0.0846158
-0.278938
-2.63184
-2.52735
-0.329755
-2.31545
-1.93746
0.716864
-1.69314
0.122481
-1.17608
-0.753419
-2.02466
-0.890211
-1.12372
-1.29543
-1.4123
-3.82713
-1.39246
-1.14716
-1.1323
1.18069
-2.42131
-1.5227
-1.61753
-1.54987
-0.103562
0.158966
0.623841
1.87062
-0.369912
-1.9732
-1.28157
-1.35039
-1.91606
-1.68283
-2.28342
-1.76508
-1.97665
-1.50889
-0.446905
0.374858
-2.08613
-1.5516
-0.991342
0.282496
-1.20051
0.793658
1.28681
0.5499
-0.514044
-1.53845
-1.89606
-1.11955
-0.924679
-2.84748
-1.36778
0.785542
-2.23098
-1.72476
-0.612942
0.360165
-0.607851
0.15479
0.548744
1.05615
1.47621
-1.75091
-0.229461
-0.818231
-0.494394
-0.631534
0.326273
-1.74423
0.12188
-1.84057
0.659362
-0.200301
1.50449
0.500678
-0.846255
0.120048
-0.152932
0.442296
-0.774343
-0.812284
-0.153373
0.75564
0.750954
-0.38105
2.22029
0.44532
-2.22959
-0.115455
-0.350768
-0.285592
0.72246
-0.410642
-1.574
-1.19443
-1.39241
-1.96186
-1.27615
-1.10752
0.645958
-0.662803
-0.574682
1.73211
-0.378009
1.21564
0.418837
0.376484
-0.989226
0.493148
0.652094
-0.0440518
-0.368615
-0.842355
-1.81194
-1.0223
0.13275
-1.01618
-2.37055
0.459088
-0.26818
0.907524
-1.75822
0.000414174
-0.162743
-0.309572
-0.324515
2.22068
-1.17969
-0.192871
1.0815
1.98434
-0.295826
-0.196388
0.651792
-0.352833
-1.37963
0.797525
-0.115207
0.554948
-1.00766
0.806009
0.404992
0.973816
2.02215
0.715344
0.425543
0.506652
0.65272
-0.635155
1.15795
-0.567576
-0.945736
-1.82289
-2.20995
-0.931292
-1.13283
-1.14573
-1.67034
-2.6623
-1.64239
-0.355227
1.39657
1.39406
1.03333
0.872515
0.561034
-0.50417
0.434397
-0.378184
0.422323
-1.0697
0.840535
0.247547
-2.64602
-0.153105
-0.24202
-0.724643
-0.584907
0.291022
-0.840898
0.0528797
1.8877
1.85802
1.18579
1.1422
0.853161
0.0124773
0.226461
-1.15381
-1.9114
-0.293184
-0.670527
-1.89819
-1.01248
0.387287
-1.85316
-0.675007
1.18244
-0.545087
0.695304
0.319794
-0.982548
2.00119
1.63946
1.03421
0.106862
-0.323544
-0.95662
-1.4466
-0.643426
-0.726501
-0.723424
-1.37171
-2.12086
0.779419
-0.766708
-0.771917
-0.506187
-1.35784
0.796939
0.180222
-2.17911
0.443996
2.11517
0.813624
0.246101
-0.669528
-0.870469
-1.88291
-0.772597
-1.86507
0.083013
-0.474711
-0.916168
-1.41303
0.335685
-0.0109995
-0.0504412
-0.7318
0.0123361
0.71235
-0.916347
0.841411
-0.0725382
1.12399
1.41847
-0.666163
1.84631
0.881558
0.0312318
0.616499
-0.67025
0.0694616
0.726899
-0.733347
-0.420977
-1.10104
-1.38289
0.57766
0.0193757
0.149124
-1.04234
0.082304
-1.10386
-0.997587
-0.60869
-1.29181
-0.647995
-0.0868499
0.40014
0.0385018
-0.157686
-0.441275
-1.04759
0.266341
0.106413
0.542866
-1.84336
-0.995204
0.442361
0.048701
0.0663583
1.28777
-1.64978
1.62032
-1.26056
-0.85859
0.326822
0.0961635
2.14954
-0.192483
-0.545916
-0.22292
-0.267056
-0.354055
-1.65567
-0.447128
-0.647828
-1.37614
1.44777
0.692845
-1.31278
0.452701
1.28967
1.40681
0.0730867
2.31115
0.399165
-1.24135
0.907215
-1.34855
-2.21734
1.54226
-2.44468
1.15371
-0.687173
-1.31656
1.24073
0.393303
-0.86497
1.05902
-1.34523
2.58196
2.4003
0.874881
0.898144
1.10173
0.985632
-2.59578
-0.348071
-1.06251
-3.10605
-1.35059
-1.0045
-1.69359
0.065787
0.133326
-0.423341
-0.756811
-1.26651
0.389262
-1.3011
0.233754
0.340939
2.20377
-1.37329
0.234408
1.40173
-0.0896283
-0.982874
-1.57015
-0.111951
-2.17475
-1.0072
-0.498897
-1.11045
-0.767572
0.606303
-0.961547
1.1765
0.765043
-0.372329
2.42225
-0.237181
0.685608
-0.0635936
-0.687151
-0.162064
-0.646103
-1.92069
0.3972
-3.24956
-0.886455
1.04528
-0.185291
-1.35958
-1.23768
0.806132
0.515849
0.59785
1.08372
-1.16933
0.907341
2.29668
-0.762038
0.400898
1.21729
-0.0954201
-0.0119991
-0.439213
-0.557741
0.573443
-0.834063
-1.27464
0.798775
-0.182393
0.547791
0.478176
-0.478614
0.91078
0.542285
-1.75761
0.932359
0.890762
-0.476105
0.102927
-1.00142
1.65316
-0.601952
1.2016
-0.456679
-2.01123
0.0269182
0.526636
-0.329332
1.87222
-0.783511
0.113621
-0.328996
-1.7192
-1.06745
-0.902758
2.62054
-0.91403
-0.425796
1.08945
0.565945
1.09616
0.962775
0.823649
0.502142
-0.199923
-0.151101
-0.511661
-0.109174
0.150876
0.929251
0.571806
-0.126068
-0.942095
-0.364669
-0.378036
0.806965
0.123042
0.0856138
0.275626
0.528551
-0.763673
0.54933
-0.297713
-0.74338
-0.143939
1.60885
-0.714156
0.292934
0.939046
0.616485
-1.60003
-0.620977
-1.09318
-0.0608885
0.420176
3.13884
3.41721
3.1506
1.4971
0.501463
2.17397
-1.72586
-0.687575
1.07559
1.46404
-1.61806
-0.659842
0.907454
-0.984335
-0.0996803
3.24673
0.390026
-0.494546
-0.156517
1.66448
1.36456
0.25815
0.253803
0.336983
0.886402
-0.174227
-0.493969
0.186812
-0.410724
0.386702
-0.736587
-0.959817
-0.27845
-0.19367
0.178291
0.0663558
-0.259091
1.07412
-0.341484
0.880607
2.24081
2.12391
0.0859835
1.46485
-0.023783
0.470939
0.277653
2.06998
1.05954
1.03822
-0.312788
-2.64587
-3.00926
-0.693291
0.6066
0.0934539
-0.770327
0.702168
2.2148
2.01655
1.0502
0.803586
0.94491
-0.0423345
0.612545
0.887006
2.13015
-1.94158
0.834607
-1.36665
-2.23025
-0.42046
-1.48835
1.29346
-0.911925
-0.230644
0.207183
1.15581
0.738891
-1.09802
0.592878
0.398586
0.0834556
-1.74243
1.28091
0.568516
1.82452
1.15356
0.181953
-0.128122
-1.23537
0.592992
-0.745775
-2.15313
-0.242149
-1.53383
-1.42302
-1.56558
0.211976
1.44246
0.866836
-0.548433
-1.10526
-0.576132
0.4047
-0.813876
0.133562
-0.709554
0.84567
0.374375
0.0494559
1.21748
0.498583
-2.33826
0.27
-0.494602
-2.01719
-1.92722
1.33964
-0.47628
0.163201
-0.394708
1.18046
0.823804
-0.379483
0.803732
0.357116
0.995234
-1.62791
0.267284
0.654606
0.749428
-0.727624
0.207333
-0.331856
1.17804
0.821538
0.385487
1.2041
1.31856
1.46961
-2.14114
0.245101
1.09393
0.334027
-3.86022
-1.68803
1.65234
-0.25853
1.34851
-1.00437
0.588507
-0.277233
2.02214
0.977937
-0.0738927
-0.415157
0.53337
-0.983609
0.239383
2.56331
2.81647
3.46299
3.4131
0.989271
1.45508
0.926713
0.990985
1.56008
-1.12739
-0.0531927
1.33165
0.73045
-0.906048
0.348345
0.836516
2.05117
0.665782
-0.169341
2.24346
3.17945
2.27845
0.802373
2.15256
0.804946
3.04382
2.62708
0.334732
-0.115906
1.46196
-1.87441
-0.0581891
-1.02413
-0.446825
2.08656
1.22381
2.30198
2.82705
1.23221
0.855051
3.41424
2.39898
2.59488
1.86671
1.28729
0.412364
-0.090589
-0.19846
1.91623
0.930481
0.22184
0.290746
3.59448
-1.76859
1.6304
1.03227
2.18163
0.505449
0.692221
0.838174
2.49548
3.43219
0.267117
-0.582708
0.905484
1.88497
-0.418508
1.15806
-0.14967
0.241097
-0.625451
1.09829
0.232886
-1.30613
0.0739462
-0.673291
3.18406
1.00639
0.686746
0.878873
0.691036
2.86891
0.446835
0.421067
1.31806
2.12516
1.50223
-0.744281
0.0997312
0.166043
-1.63414
0.274434
-0.594449
-1.49446
0.712124
-0.0216964
1.27062
0.0274655
0.978413
-1.21573
-0.725504
1.81519
1.61855
1.00608
-0.70779
-1.41195
2.14271
-0.871654
0.627775
0.0803439
-1.00505
-0.647709
0.76815
-1.03837
0.150429
1.10125
-0.209934
-0.643616
-0.513223
-0.85151
-1.74746
1.08502
-0.559051
0.694382
0.184654
0.0464245
-0.0506745
0.619186
1.64947
-0.780655
0.927201
-0.023049
0.451882
0.304584
0.71064
1.76028
-1.37558
-0.189476
0.482655
-0.677475
-3.74298
-0.0543433
-0.0360286
-2.444
-0.684248
-0.253507
0.945252
1.04452
0.0945209
0.569452
-0.367844
0.170624
0.228957
0.120853
-1.41253
1.38508
-2.1091
-0.782514
-0.324777
0.804322
)
;

boundaryField
{
    hotSide
    {
        type            calculated;
        value           nonuniform List<scalar> 
400
(
3.25154
3.59653
2.10634
3.77984
2.26853
0.464497
0.198567
-1.50037
-0.137832
-0.210704
-1.77301
-0.794697
-0.088257
-1.35354
-0.165612
1.77189
-0.198794
-0.778355
1.84592
1.20511
4.65299
3.23451
3.90795
1.29422
3.13786
2.10292
0.525408
1.86646
-0.174925
0.482885
-2.49629
0.0538927
-2.80676
-1.46018
0.800526
-1.4962
0.849963
0.0590047
2.12465
1.4586
4.9221
4.10908
4.74584
2.22123
0.319967
1.74036
-0.248257
0.841021