/*--------------------------------*- C++ -*----------------------------------*\
| =========                 |                                                 |
| \\      /  F ield         | OpenFOAM: The Open Source CFD Toolbox           |
|  \\    /   O peration     | Version:  2212                                  |
|   \\  /    A nd           | Website:  www.openfoam.com                      |
|    \\/     M anipulation  |                                                 |
\*---------------------------------------------------------------------------*/
FoamFile
{
    version     2.0;
    format      ascii;
    arch        "LSB;label=32;scalar=64";
    class       volScalarField;
    location    "0";
    object      relativeErrorField;
}
// * * * * * * * * * * * * * * * * * * * * * * * * * * * * * * * * * * * * * //

dimensions      [0 0 0 1 0 0 0];

internalField   nonuniform List<scalar> 
3200
(
0.00945682
0.0119541
0.0140626
0.0156701
0.0160953
0.0164955
0.0160591
0.0156415
0.0150241
0.0146903
0.0143631
0.0138866
0.0136003
0.0134634
0.0131209
0.0127899
0.0116806
0.0101588
0.00766882
0.00544621
0.00848271
0.010341
0.0124636
0.0134253
0.0138282
0.014011
0.0137695
0.0137305
0.0132204
0.0129958
0.0123716
0.0123609
0.012131
0.0117352
0.0114744
0.0112942
0.0103474
0.00906261
0.0071601
0.00481863
0.00710808
0.00891233
0.0103294
0.0112845
0.0119652
0.0121404
0.0117512
0.0117033
0.0113408
0.0111776
0.0107572
0.0105276
0.0103263
0.0100133
0.00977373
0.00942237
0.00895136
0.00764946
0.00601485
0.00454207
0.0058323
0.00713799
0.00881199
0.00918684
0.00971115
0.0101084
0.00964979
0.0094303
0.00939032
0.00900723
0.00879714
0.0086407
0.00824032
0.00828337
0.00809927
0.00781004
0.00713482
0.00633368
0.00511999
0.00380902
0.00472583
0.00573833
0.00666257
0.00755378
0.00765977
0.00772907
0.00746949
0.007527
0.00728578
0.00703774
0.00700128
0.0067293
0.00654757
0.00633762
0.00643618
0.00609834
0.00555222
0.00484193
0.0040029
0.00316993
0.00337778
0.00410507
0.00489267
0.00527956
0.00545129
0.00535797
0.00561342
0.00555227
0.00528599
0.00520292
0.0052038
0.00500168
0.00476643
0.00494069
0.00450268
0.0045231
0.00394344
0.00383233
0.00299647
0.00236176
0.00204108
0.00218911
0.0027829
0.00332066
0.00326445
0.00335836
0.00332287
0.00329893
0.00304284
0.00328021
0.00299478
0.00281622
0.00283023
0.00291355
0.00256668
0.0027732
0.00246611
0.00216498
0.0014788
0.00148458
0.000623154
0.000994255
0.0010716
0.00107522
0.000970614
0.000895604
0.00138271
0.00110618
0.00108094
0.000915044
0.000912345
0.000983694
0.000832402
0.000836847
0.000960216
0.00109771
0.000962168
0.000686784
0.000475724
0.00035942
0.00950927
0.012093
0.0141665
0.0151634
0.0158359
0.0161856
0.0157112
0.0153074
0.0147725
0.0143707
0.0137974
0.0136837
0.0132626
0.0131842
0.0129055
0.012703
0.011498
0.010152
0.00808705
0.00550394
0.00840732
0.0104
0.0121534
0.0134144
0.0137359
0.0138352
0.0136979
0.0131902
0.0130573
0.0124653
0.0119861
0.0118655
0.0118708
0.0115177
0.0113107
0.0109367
0.0101991
0.00894234
0.00702935
0.00491262
0.00683879
0.00889342
0.0102542
0.011405
0.0117337
0.0117204
0.0115946
0.0116122
0.0108698
0.0106172
0.0105144
0.0100352
0.00988549
0.0101439
0.00943686
0.00923916
0.00855447
0.00763379
0.00611958
0.00423327
0.00581804
0.00725129
0.00838841
0.0092776
0.00987758
0.00920364
0.00954296
0.00943161
0.00897594
0.00893277
0.00839356
0.00853718
0.00827489
0.00818069
0.0077789
0.00743942
0.00727255
0.00622389
0.00504575
0.00383188
0.00443419
0.00554715
0.00649428
0.00730829
0.00755187
0.00763712
0.00758693
0.00708183
0.00696732
0.00674503
0.00645034
0.00665046
0.00643556
0.00628798
0.00621082
0.00612582
0.00571614
0.00512561
0.00379895
0.00311712
0.0033028
0.00402941
0.00452276
0.00502286
0.00535042
0.00552065
0.00565497
0.00501769
0.00505973
0.004906
0.00485325
0.0046443
0.00455837
0.00472822
0.00466512
0.00417005
0.00403388
0.0036596
0.0028789
0.00217235
0.00190294
0.00243774
0.00297519
0.00317011
0.00329619
0.00317312
0.00333759
0.0031593
0.0030628
0.00312788
0.00280426
0.00281436
0.00277439
0.00274835
0.0026915
0.00256875
0.00231788
0.00233773
0.00160646
0.00137061
0.000805037
0.000734653
0.00113898
0.000867261
0.0011564
0.00129955
0.00110066
0.00112934
0.00115411
0.00099268
0.000919985
0.000777525
0.00100436
0.000749134
0.00103077
0.000980708
0.000818328
0.000934156
0.000776575
0.000582657
0.00932267
0.0117257
0.01382
0.0151617
0.0157085
0.0155459
0.0152532
0.0146975
0.0143193
0.0137976
0.0135089
0.0128914
0.0126909
0.012709
0.0124548
0.0122146
0.0114546
0.0101653
0.00791609
0.00565268
0.00817057
0.0101631
0.0119111
0.0128772
0.0136778
0.0136514
0.0133908
0.0131576
0.0124226
0.0120743
0.0115302
0.0111823
0.0110863
0.0110738
0.01089
0.0105481
0.00985229
0.00887936
0.00735906
0.00510849
0.00699087
0.00875773
0.0102734
0.0110718
0.0113775
0.0117526
0.0114074
0.0110324
0.0106887
0.0100069
0.00976884
0.00959514
0.00962203
0.0094035
0.00914209
0.0091909
0.0084248
0.00742197
0.00609878
0.00447
0.00571267
0.00703547
0.00851246
0.0092671
0.00952243
0.00937433
0.00920152
0.00901135
0.00871009
0.00824794
0.00812189
0.00817209
0.00800771
0.00775891
0.00762159
0.00753138
0.00719304
0.00639587
0.00500906
0.00387544
0.00449934
0.00577825
0.00675129
0.00711935
0.00745657
0.00749212
0.00722874
0.00732953
0.0068305
0.00683187
0.0063396
0.00615661
0.00620599
0.00615065
0.00571442
0.00589047
0.00571205
0.00499151
0.00407865
0.0027626
0.00329014
0.00387991
0.00474552
0.00501799
0.00520002
0.00520226
0.00525269
0.00511958
0.00506586
0.00483509
0.00456981
0.00455129
0.00445724
0.00450545
0.00397916
0.00436319
0.00411903
0.00365147
0.00277893
0.00225986
0.00182664
0.00235148
0.00283161
0.00298192
0.00303829
0.00285057
0.00327019
0.00317072
0.00276475
0.00269031
0.00263598
0.00282481
0.00272776
0.00258221
0.00260163
0.00250867
0.00247552
0.00220338
0.00144766
0.00138452
0.000629156
0.000676252
0.00113567
0.000947511
0.00114633
0.00107374
0.000965969
0.00107316
0.00104991
0.000949581
0.000987159
0.00101347
0.00117603
0.000987813
0.00074949
0.0010937
0.000641274
0.000463057
0.000796901
0.000597497
0.0089439
0.0114379
0.0136252
0.0148212
0.0154001
0.0150991
0.0148264
0.0141702
0.0137342
0.0131902
0.0127078
0.0123168
0.0122573
0.0120082
0.011927
0.0118784
0.0113232
0.0100207
0.00777953
0.00544093
0.00793623
0.0101685
0.0115823
0.0126916
0.0131932
0.0134243
0.0126628
0.0124741
0.0120183
0.0114919
0.0111876
0.0107829
0.0107144
0.0106026
0.0106478
0.0104068
0.00985939
0.00880181
0.00699458
0.00483601
0.00679203
0.00832161
0.00983124
0.0108983
0.0112781
0.0111561
0.0110196
0.0106448
0.00996398
0.009696
0.00953619
0.00909921
0.00903113
0.00914067
0.00912595
0.00904665
0.00825279
0.00750633
0.00592264
0.0043246
0.00550139
0.006998
0.00831279
0.00882984
0.00910946
0.00928929
0.00909157
0.00843243
0.00823401
0.00795036
0.00768468
0.00758347
0.00747781
0.00742415
0.00751319
0.00733756
0.00692415
0.00634594
0.00488117
0.00362397
0.0045541
0.0055803
0.00628332
0.0066091
0.00722484
0.00719875
0.00699745
0.00686365
0.00623914
0.00628926
0.00621587
0.00588564
0.00586167
0.00598221
0.00570854
0.00581403
0.00538896
0.00465569
0.00405797
0.00292421
0.00295026
0.00378377
0.00456083
0.00489315
0.00508815
0.00525726
0.00527237
0.00489315
0.00475748
0.00436534
0.00433794
0.00448116
0.00429154
0.0042923
0.00417808
0.00419516
0.00393524
0.00347315
0.00302828
0.00241432
0.00177585
0.00263807
0.00299953
0.00315354
0.00296333
0.00313855
0.00297291
0.00300822
0.00299166
0.00263521
0.00257971
0.0025583
0.00248635
0.0025941
0.00258512
0.00236633
0.00219061
0.00230831
0.00183929
0.00128939
0.000635563
0.000572293
0.000611172
0.00126082
0.00112592
0.000979428
0.00125276
0.00105202
0.000867697
0.00100746
0.00103088
0.000984507
0.000928056
0.000881998
0.000978962
0.000880186
0.000654502
0.000572145
0.000713445
0.000459762
0.00863445
0.0110818
0.0130991
0.0141389
0.0144973
0.014373
0.0139974
0.0135543
0.0130771
0.0121577
0.0120144
0.0115537
0.011582
0.0116574
0.011695
0.0115127
0.0105933
0.00953779
0.00754107
0.00544316
0.00745776
0.00963135
0.0113449
0.0121108
0.0127885
0.0126522
0.0123983
0.0118469
0.0113977
0.0106781
0.0104267
0.0101173
0.0102742
0.0100698
0.0101945
0.0100064
0.00935747
0.00846769
0.00673956
0.00483244
0.00655816
0.00804042
0.00942832
0.0103978
0.0108103
0.0108786
0.0106235
0.00991851
0.00927357
0.00937489
0.00887796
0.00875413
0.00839892
0.00888323
0.0088518
0.00855501
0.00820098
0.00738299
0.00585087
0.00443657
0.00524151
0.00669555
0.00778773
0.00851743
0.00881069
0.00883733
0.00884269
0.00803017
0.00788854
0.00749789
0.00741173
0.00712034
0.00713267
0.00694971
0.00710523
0.00708638
0.00673421
0.00605909
0.00452825
0.00358813
0.00434432
0.00498503
0.00623857
0.00650911
0.00685078
0.00669484
0.00677297
0.00648083
0.00630854
0.00597881
0.00567164
0.00561878
0.00538879
0.00578185
0.00571921
0.00560707
0.00540204
0.00453155
0.00364459
0.00288806
0.0027748
0.00376167
0.00423156
0.004852
0.00488482
0.00492116
0.0049446
0.0044631
0.00420723
0.00438531
0.0042245
0.00392464
0.00417467
0.00401169
0.00417728
0.00384595
0.00385835
0.00334904
0.00266123
0.00240174
0.00193629
0.00224423
0.00242869
0.00297026
0.00298689
0.00295417
0.00285501
0.00268975
0.00263178
0.00244459
0.00260016
0.00242821
0.00232877
0.00249218
0.00238089
0.00221371
0.00247253
0.00206311
0.00170176
0.0013152
0.000746577
0.000821878
0.00101002
0.00106112
0.00100833
0.00102295
0.000938357
0.00102761
0.00101872
0.000653112
0.000908566
0.000913166
0.000743638
0.000825645
0.000871554
0.00108697
0.000602995
0.000624895
0.000506762
0.000475953
0.00827497
0.0103324
0.0122825
0.0137599
0.0141354
0.0142425
0.0139512
0.0130455
0.0123448
0.0118218
0.0111404
0.0110641
0.01105
0.0111838
0.0110926
0.0110259
0.0105453
0.00942247
0.00772097
0.00536088
0.00716903
0.00904997
0.0109007
0.0117688
0.0120813
0.0122695
0.0119092
0.0113959
0.0107366
0.0102563
0.0099748
0.00978617
0.00983595
0.0095922
0.00992592
0.00967071
0.00916896
0.00812796
0.00661527
0.00493613
0.00591692
0.00767797
0.00922173
0.00999325
0.0104398
0.0103957
0.00992902
0.00981354
0.0091916
0.00851524
0.00815963
0.00833866
0.00826993
0.00845438
0.0084466
0.00815225
0.00815596
0.00733128
0.00567807
0.00437533
0.0049618
0.00627997
0.00753152
0.00815778
0.00876523
0.00844523
0.00812898
0.00805113
0.00741389
0.00713947
0.00683016
0.00662018
0.00676381
0.0068499
0.00704063
0.00708416
0.00661743
0.00581884
0.00468351
0.00357639
0.00372166
0.00506972
0.0058545
0.00640939
0.00656643
0.00667298
0.00633729
0.00623769
0.00565486
0.00578388
0.00562746
0.00524111
0.00523963
0.00541612
0.00553404
0.00534076
0.0052136
0.00464535
0.00371889
0.00254054
0.00301815
0.00352438
0.00398012
0.00472593
0.00462887
0.00469881
0.0047454
0.00428713
0.00416271
0.00390696
0.00375807
0.00371406
0.00390362
0.00380646
0.00373834
0.00410501
0.00361846
0.00323114
0.00261268
0.00227462
0.00170912
0.00225731
0.00259432
0.0029832
0.00308046
0.00303167
0.00281662
0.00287111
0.00267487
0.00261842
0.00243602
0.00248045
0.00219644
0.00211848
0.00249313
0.00263327
0.0023362
0.00206944
0.0016705
0.00127407
0.000727945
0.000671744
0.000777415
0.00107007
0.00116752
0.000847035
0.000801541
0.0010493
0.000866738
0.000936167
0.00102545
0.000865159
0.000858114
0.000880548
0.00061447
0.00076126
0.000873076
0.000839669
0.000240561
0.000511787
0.00762903
0.0099513
0.0119576
0.0132026
0.01365
0.0134654
0.0129158
0.0126217
0.0119606
0.011064
0.0107308
0.0106686
0.0105684
0.0108087
0.0109064
0.0110466
0.010469
0.00927929
0.00733242
0.00538169
0.00707174
0.00855945
0.0103357
0.0114391
0.0118443
0.0116776
0.0117702
0.0107882
0.0102465
0.00975683
0.00930753
0.00910139
0.00929542
0.00958053
0.00954707
0.0093799
0.00921606
0.00807377
0.0065111
0.00477631
0.00578027
0.00726473
0.00868378
0.00963794
0.00996846
0.0100049
0.00982284
0.00932255
0.00886178
0.00821258
0.0080521
0.00784082
0.00785249
0.0080954
0.00802645
0.00816489
0.00768726
0.00692785
0.00582707
0.00437031
0.00490335
0.00590717
0.00697358
0.008139
0.00811907
0.00807908
0.00771121
0.00771621
0.00735087
0.00700705
0.00655578
0.00656615
0.00650404
0.00657596
0.00666238
0.00685731
0.00661011
0.0056871
0.00473225
0.00366905
0.00369331
0.00450831
0.00569146
0.00618025
0.00668869
0.00622647
0.0063712
0.0059872
0.00594648
0.00528462
0.00501918
0.00510446
0.00485259
0.00518696
0.00549586
0.0051291
0.00523314
0.00469207
0.00370463
0.003086
0.00275601
0.00335746
0.00377813
0.00440535
0.00466497
0.00482068
0.00442015
0.0042669
0.0041588
0.00384334
0.00351624
0.00378804
0.00380529
0.00375171
0.00392904
0.00384481
0.00382516
0.00300867
0.00284798
0.00222154
0.00137215
0.00197912
0.00244716
0.00251916
0.00277168
0.00271247
0.00295178
0.00296063
0.00249655
0.00231284
0.00220692
0.00191451
0.00212396
0.0024798
0.00224496
0.00248524
0.00200266
0.00222783
0.00176377
0.00108491
0.000537112
0.00080916
0.000860002
0.000899111
0.000688714
0.000981765
0.000896715
0.000839198
0.000883348
0.000731599
0.00077708
0.00105329
0.000525213
0.000739357
0.000665342
0.001007
0.000859307
0.000783477
0.000520421
0.000627309
0.00731981
0.00956481
0.011455
0.0127776
0.0131483
0.0132007
0.0128698
0.0123696
0.0115729
0.0107418
0.0103003
0.00998025
0.0104235
0.0106898
0.0107081
0.0105318
0.0102652
0.008973
0.0074331
0.00551517
0.00656042
0.00827479
0.00992864
0.0108418
0.0113878
0.0115145
0.010931
0.0106617
0.00995127
0.00964265
0.0087864
0.00899732
0.00899378
0.00933743
0.00940996
0.0095978
0.00879165
0.00819422
0.00668811
0.00504059
0.00561207
0.00702921
0.00835008
0.00929536
0.00978377
0.00979311
0.00960961
0.00911302
0.00876981
0.00822976
0.00799752
0.00752698
0.00764076
0.00781914
0.00791081
0.0078477
0.00764786
0.00701576
0.00593022
0.00450065
0.00473434
0.00587497
0.00692825
0.00778725
0.00789415
0.00773775
0.00775184
0.00766059
0.00691649
0.00653038
0.00639528
0.00606957
0.0064493
0.00635222
0.00674912
0.00672079
0.0063154
0.00563903
0.0048017
0.00351161
0.00335884
0.00433286
0.0053284
0.00595855
0.00616786
0.00628189
0.00615208
0.0058849
0.0055207
0.00534885
0.0050675
0.00517963
0.00495981
0.0049161
0.00524442
0.00500513
0.00479262
0.00462432
0.00365621
0.00281557
0.00220803
0.00328824
0.00392959
0.00406349
0.00450803
0.00428778
0.0045248
0.00408896
0.00421833
0.00383363
0.00357387
0.00334204
0.00391232
0.00368372
0.00371179
0.00386101
0.00352811
0.00334857
0.00276029
0.00215079
0.00170058
0.00191955
0.00210846
0.00272671
0.00290106
0.0027225
0.00262395
0.00281479
0.00255376
0.00212738
0.00206982
0.00231343
0.00212899
0.00222072
0.00226927
0.00224818
0.00218494
0.00203329
0.00173784
0.0013438
0.000501962
0.000660441
0.00094126
0.0011185
0.000955887
0.00107106
0.00092934
0.000670516
0.00069862
0.000790815
0.000763631
0.000555284
0.000647258
0.000710418
0.00070158
0.000724479
0.000823623
0.000596873
0.000694089
0.00052078
0.00729737
0.0092828
0.0109804
0.0122961
0.0127044
0.0126879
0.0126453
0.0121457
0.0115213
0.0107559
0.0103297
0.0100313
0.0103245
0.0104799
0.0105908
0.0106755
0.0103425
0.00918049
0.0071705
0.00571237
0.00630161
0.00806676
0.00939173
0.010598
0.0108263
0.0114
0.0111606
0.0104342
0.00998109
0.009425
0.00905138
0.00894178
0.00893555
0.00943406
0.00937458
0.00950047
0.00895445
0.00830378
0.00657604
0.00525672
0.00519556
0.00697717
0.00816247
0.00882408
0.00951923
0.00948354
0.00946238
0.00893792
0.00816999
0.00793703
0.00756601
0.00752881
0.00790439
0.00787695
0.00802369
0.00783489
0.00779171
0.00711456
0.00592743
0.00472394
0.00441373
0.00570515
0.00664728
0.00751618
0.00776411
0.00780838
0.00762689
0.0072989
0.00715636
0.00660962
0.00645277
0.00638958
0.00643322
0.00658752
0.00684621
0.00690564
0.00629004
0.00571298
0.00478194
0.00386538
0.00361521
0.00429638
0.00506616
0.00572838
0.00594726
0.00606615
0.00599017
0.00568259
0.00559585
0.00508695
0.00477003
0.00508414
0.00498566
0.00493487
0.00550836
0.00511241
0.00502649
0.00445653
0.00388866
0.00312784
0.00245146
0.00315651
0.00363733
0.00432694
0.00442515
0.00450983
0.00444194
0.00397306
0.00390346
0.00390585
0.00349265
0.00317639
0.00368469
0.00377025
0.00396401
0.00371261
0.00385953
0.00330404
0.00272975
0.00224453
0.00176826
0.00190737
0.00212014
0.00234816
0.00264153
0.00258812
0.00263208
0.00242511
0.00252001
0.00222437
0.00222539
0.00211877
0.00207897
0.00221871
0.00237095
0.0022974
0.00217536
0.00194531
0.00169613
0.0015188
0.000470141
0.000826539
0.000910878
0.000793203
0.000815407
0.0010323
0.000871437
0.000700432
0.000686243
0.000919017
0.000613537
0.000659234
0.000793929
0.000731721
0.00101167
0.000667615
0.000587018
0.000667948
0.000580492
0.000600538
0.0072264
0.00903443
0.010786
0.0121523
0.0125817
0.0128057
0.0128313
0.0120993
0.0114485
0.0110905
0.0104312
0.0103792
0.0104983
0.0107419
0.0110236
0.0109584
0.0106189
0.00965694
0.00806223
0.00636222
0.00659118
0.00798408
0.00928812
0.0104375
0.0113535
0.0110121
0.0111401
0.0106202
0.00986316
0.00958879
0.00916885
0.00897497
0.00937422
0.00929693
0.00981169
0.00964884
0.00905423
0.00857791
0.00710969
0.00570218
0.00546072
0.00690762
0.00802913
0.00881172
0.0093814
0.00946668
0.00934639
0.00895783
0.00852969
0.00804401
0.00766163
0.0076799
0.00781784
0.00771831
0.00833477
0.00826993
0.00800217
0.00741746
0.00612011
0.00498019
0.00427052
0.00546457
0.00647748
0.00700332
0.00787259
0.00774142
0.00755313
0.00733622
0.00699411
0.00674341
0.006518
0.00629799
0.00649469
0.00651173
0.00705882
0.00694049
0.00647422
0.00608539
0.00515152
0.00404715
0.0032148
0.00444391
0.00509375
0.00547718
0.00598181
0.00608714
0.00571739
0.00583411
0.00568171
0.00516179
0.00521323
0.00496372
0.00508761
0.00531818
0.00545944
0.00550773
0.00518076
0.00485363
0.00433359
0.00343197
0.00256562
0.00311624
0.00360713
0.00414785
0.00436037
0.00437859
0.0042985
0.00429488
0.00379047
0.00363638
0.00377847
0.00367604
0.00367679
0.00379619
0.00385481
0.00378096
0.00380494
0.00340963
0.00283553
0.00243679
0.00132866
0.00157734
0.00200658
0.00244674
0.00260661
0.00251391
0.00238209
0.00207246
0.00227365
0.00228682
0.00194892
0.0021373
0.00213543
0.00241875
0.00224092
0.00226644
0.00213243
0.00225421
0.0017898
0.00143361
0.000687486
0.000774889
0.00109398
0.000703461
0.000973437
0.000879106
0.000934089
0.00106273
0.000721639
0.000778112
0.000810167
0.000737719
0.000889974
0.000739407
0.00077108
0.000834054
0.00100033
0.000788033
0.000527562
0.000513675
0.00741747
0.00914662
0.0110057
0.012122
0.0126986
0.0131366
0.0126953
0.0124539
0.0120324
0.0114146
0.0108646
0.0108411
0.0110541
0.0113606
0.0116938
0.0117486
0.0110762
0.0102907
0.00862657
0.00693124
0.00634887
0.00791161
0.00955881
0.0103816
0.010878
0.0113696
0.0112561
0.0107318
0.0103227
0.00989713
0.00955958
0.00964514
0.00975518
0.0101973
0.00981891
0.0103075
0.00966408
0.00877693
0.00743014
0.00615367
0.0052802
0.00655933
0.00794017
0.00887578
0.00946075
0.00938838
0.00940613
0.00914983
0.00876224
0.00818149
0.00806861
0.00814038
0.00823973
0.00831982
0.00851586
0.00875103
0.00826292
0.00778747
0.00659963
0.0053275
0.00462011
0.00571712
0.00649343
0.0073398
0.00764485
0.00813662
0.00771795
0.00753334
0.00682815
0.00687808
0.00665409
0.00686952
0.00665952
0.00701355
0.00714531
0.00697645
0.00685692
0.00627088
0.00563424
0.00452877
0.00342633
0.00422683
0.00487973
0.00584322
0.00596048
0.0063079
0.00598462
0.00597484
0.00597575
0.00548176
0.00535766
0.00503762
0.00534493
0.00565518
0.00571743
0.00550321
0.00552972
0.00487114
0.00432502
0.00384322
0.00222011
0.00313297
0.00348346
0.00408689
0.00440609
0.00433733
0.00442481
0.00422719
0.0041304
0.00399078
0.00391725
0.0037386
0.00379509
0.00391867
0.00404673
0.00383373
0.00408353
0.00364604
0.0030904
0.00274116
0.00140417
0.00201516
0.00236866
0.00251137
0.00283579
0.00274018
0.00280443
0.00264908
0.00234811
0.00223482
0.00220343
0.00196972
0.00237559
0.00237118
0.00246814
0.00249956
0.00247801
0.00220513
0.00180012
0.0016299
0.000517356
0.000539784
0.000905198
0.000819407
0.000769436
0.000989766
0.000951575
0.000790601
0.000930222
0.000867601
0.000827129
0.000681081
0.000920663
0.000620179
0.000675058
0.000990509
0.000841753
0.000787264
0.000871074
0.000469812
0.00777368
0.00960169
0.0111945
0.0124169
0.0133554
0.0134974
0.0133346
0.013179
0.0126214
0.0123083
0.0119101
0.0116166
0.0120027
0.0120958
0.0122451
0.0125981
0.0115607
0.0109011
0.00972056
0.00765597
0.00674157
0.00796099
0.00984924
0.0108091
0.0114769
0.0118117
0.0117482
0.0112992
0.0108229
0.0103972
0.0102909
0.0102437
0.010413
0.0107825
0.0108428
0.0108336
0.0103684
0.00971317
0.00862608
0.00691479
0.00581248
0.00698896
0.00804626
0.0090956
0.00963922
0.00997489
0.01001
0.00956824
0.00962348
0.00902616
0.00864172
0.00882793
0.00891021
0.00909135
0.00916152
0.00921289
0.0090219
0.00842557
0.007143
0.00579758
0.00473173
0.00557196
0.00670168
0.0072451
0.00795083
0.00810819
0.00800744
0.00788715
0.00761968
0.00742963
0.00727026
0.00724642
0.00721362
0.00749774
0.00767959
0.00781752
0.00737047
0.00686127
0.00610717
0.00513823
0.00364688
0.00444067
0.00506373
0.00598295
0.00622298
0.00636104
0.00631449
0.0061655
0.00598464
0.00566672
0.00594568
0.00562423
0.00549873
0.00590524
0.00593229
0.00591721
0.00575892
0.00553255
0.00466056
0.00408564
0.00273166
0.00307578
0.00369291
0.00407929
0.00433433
0.00437708
0.00467791
0.00445603
0.0042404
0.00397942
0.00414642
0.00400027
0.00412652
0.00421134
0.00449474
0.00438914
0.00434278
0.00407331
0.00387197
0.00306944
0.00158923
0.00213536
0.00225618
0.00259998
0.00276493
0.00264409
0.00266842
0.00277873
0.00228698
0.00239282
0.00239382
0.00246762
0.00240226
0.00245479
0.0026305
0.00265199
0.00278457
0.00240233
0.00203703
0.0017352
0.000433586
0.000740933
0.000751778
0.000999566
0.00108978
0.000733096
0.000920444
0.000641342
0.000801372
0.000778028
0.000789323
0.000733894
0.000880432
0.00101424
0.00106827
0.000727255
0.000850213
0.000692536
0.000675329
0.000733096
0.00827727
0.0100789
0.011626
0.0129657
0.0138415
0.0141168
0.014345
0.0139895
0.0135056
0.0132862
0.012929
0.0130342
0.0130863
0.0132771
0.0134461
0.0132311
0.0128428
0.0116507
0.010501
0.00898213
0.00728778
0.00880153
0.0100039
0.0111044
0.0120073
0.0123036
0.0123466
0.0119233
0.0115907
0.0114319
0.0113504
0.011217
0.0115973
0.011547
0.0117557
0.0118691
0.0112447
0.0105644
0.00948907
0.00793609
0.0058552
0.00747587
0.00848564
0.00943574
0.0102153
0.010281
0.0105019
0.01022
0.0100036
0.00991987
0.009627
0.00981205
0.00978224
0.00994471
0.0101047
0.0100222
0.00971174
0.00878819
0.00783719
0.00709318
0.00505126
0.00613833
0.00678282
0.00783888
0.00822919
0.00870133
0.00886578
0.00836549
0.00819473
0.00784984
0.00772869
0.00792791
0.00803131
0.00809143
0.00818413
0.00820537
0.00774443
0.00777928
0.0067728
0.00577485
0.0040555
0.00459988
0.00554998
0.00607396
0.00634596
0.00647348
0.00704844
0.00679828
0.00638524
0.00630682
0.00631427
0.00622081
0.00659037
0.00630665
0.00636118
0.00668577
0.00651626
0.00596383
0.00529986
0.00453354
0.00284725
0.00338325
0.00399677
0.00448063
0.00471211
0.00472706
0.00503634
0.00461582
0.0046586
0.004574
0.00455459
0.00449613
0.00442045
0.00454194
0.00489452
0.00465869
0.00470496
0.00391067
0.00368896
0.00346377
0.00166648
0.0020593
0.00244751
0.00271546
0.00276757
0.00279008
0.00291931
0.00289149
0.00289034
0.00281984
0.00277876
0.00279705
0.00290849
0.00276314
0.00291997
0.00264647
0.00289103
0.00253253
0.00266727
0.00212655
0.000673796
0.000670584
0.00095374
0.00114979
0.00104487
0.00103662
0.000953594
0.000684698
0.00119243
0.000929448
0.000908818
0.00095741
0.000877463
0.00104875
0.000865455
0.000799778
0.00106104
0.000903749
0.000749164
0.000794592
0.00917778
0.0108558
0.0123228
0.0138893
0.0145587
0.0149082
0.0152313
0.0151266
0.0148324
0.0142896
0.0142759
0.0143873
0.0142077
0.0144977
0.0148569
0.0144983
0.0140262
0.0133176
0.0119562
0.0103005
0.00808934
0.00945757
0.0110805
0.0118554
0.0128579
0.0129828
0.0131813
0.0132249
0.0130642
0.0127221
0.0126532
0.0125888
0.0126851
0.0129759
0.0129476
0.0130307
0.0123979
0.0116262
0.0104374
0.00921889
0.00670972
0.00798905
0.0091813
0.0100151
0.0107325
0.0112345
0.0113032
0.0111309
0.010867
0.0106292
0.010616
0.0106349
0.0109776
0.0108163
0.0111939
0.0110026
0.0106021
0.0100224
0.00903078
0.00797044
0.00560648
0.00689322
0.00760751
0.00810047
0.0088444
0.00927644
0.00922784
0.00905598
0.00915419
0.00873677
0.00901347
0.00882596
0.00880331
0.00901659
0.00956877
0.0090282
0.0088129
0.00836673
0.00745521
0.00652174
0.00436366
0.0051793
0.00610086
0.00659691
0.00678799
0.00705062
0.0071266
0.00708717
0.00701098
0.0068796
0.00686825
0.00671766
0.00726019
0.00700962
0.00720387
0.00699093
0.00682268
0.00647294
0.0058907
0.00521323
0.00316766
0.00384187
0.00447356
0.00448209
0.00502053
0.00518384
0.00516181
0.00529042
0.00506331
0.00512392
0.00492999
0.00488702
0.00513296
0.004953
0.00534253
0.00528208
0.00511951
0.0044952
0.00414154
0.00381956
0.00177356
0.00239789
0.00256728
0.00282001
0.00321374
0.00318322
0.0030533
0.00317123
0.00324689
0.00306343
0.00299534
0.00307462
0.00318728
0.00327975
0.0029774
0.00316603
0.00307263
0.00273351
0.00248353
0.00244212
0.000741537
0.000783527
0.000980082
0.00101834
0.00101845
0.000852727
0.00103795
0.000799644
0.00109805
0.00115003
0.000903508
0.000947836
0.000925194
0.00102458
0.00121717
0.000973402
0.000928034
0.00114213
0.00105793
0.000874717
0.0102828
0.011817
0.0133749
0.0148953
0.0156048
0.0164044
0.0165749
0.0165471
0.0165382
0.0162449
0.0161143
0.0159775
0.0163207
0.0165174
0.0163446
0.0162062
0.0157145
0.0147846
0.0132167
0.0117768
0.00876634
0.0101196
0.0117163
0.0128699
0.0135364
0.0140383
0.0143732
0.0143026
0.0141441
0.0142097
0.0139198
0.013811
0.0140986
0.0142151
0.0143672
0.0140847
0.0138541
0.0130297
0.011866
0.0105866
0.00749036
0.00882799
0.00987865
0.0110023
0.0118328
0.0119193
0.0121246
0.0120885
0.0119839
0.0118427
0.0116933
0.0119954
0.0122039
0.0121781
0.0123818
0.0122141
0.0119286
0.0113177
0.0102788
0.00909973
0.00634291
0.00729956
0.00827532
0.00896071
0.00953019
0.00985375
0.0100287
0.0102573
0.0100449
0.00978265
0.0100546
0.0097955
0.00998928
0.0100985
0.0102541
0.010062
0.00980141
0.00937127
0.00837624
0.00753258
0.00506299
0.00560996
0.00644233
0.00701639
0.00760765
0.00787008
0.00791235
0.00809835
0.00810965
0.00765479
0.00756621
0.00784586
0.00781815
0.00793819
0.00813623
0.00778034
0.00773628
0.00747211
0.00682658
0.00610732
0.00347406
0.0044269
0.00481276
0.00510964
0.00544898
0.00559198
0.00549076
0.00567677
0.0054889
0.0055788
0.00559697
0.00545678
0.00581603
0.00584719
0.00575605
0.00563958
0.00568475
0.00530265
0.00478765
0.00442257
0.00197838
0.00235097
0.00284888
0.00313029
0.00325505
0.00328398
0.00327375
0.00334148
0.00330112
0.00306144
0.00323231
0.00338997
0.00341619
0.00360287
0.00338489
0.00349452
0.00324624
0.00318418
0.00288649
0.00279673
0.000607039
0.000860887
0.000939099
0.00104209
0.000931707
0.00136701
0.00106113
0.00118098
0.000957545
0.0010874
0.0010175
0.00114451
0.00125919
0.00123487
0.00113197
0.00120361
0.00140521
0.000839256
0.000812778
0.000604769
0.0117197
0.0133388
0.0149204
0.0161304
0.0168464
0.0176466
0.017825
0.0179529
0.0180968
0.0179542
0.0180078
0.0181411
0.0180356
0.0182993
0.0181625
0.0183492
0.017609
0.0168674
0.0152669
0.0137336
0.0100749
0.0115948
0.012782
0.0138365
0.014688
0.0150435
0.0157859
0.0160264
0.015702
0.0156524
0.015503
0.0158207
0.0158909
0.0158114
0.0159453
0.0156922
0.0152937
0.0145819
0.0132277
0.0120113
0.00879802
0.00971575
0.0109151
0.012063
0.0124047
0.0129953
0.0131634
0.0135736
0.0134701
0.0134475
0.0133101
0.0133815
0.013485
0.0135621
0.0137876
0.0135742
0.0132167
0.0123494
0.0114895
0.0107289
0.00706325
0.00822925
0.0089563
0.00993974
0.0104101
0.0107374
0.011021
0.0110521
0.0111248
0.0113838
0.0111056
0.0112408
0.0111687
0.0113946
0.011418
0.0112768
0.0107464
0.0100291
0.00950192
0.00894001
0.00573121
0.00644595
0.00705089
0.00770227
0.0081257
0.00825921
0.00855592
0.00863357
0.00864849
0.00878814
0.00863416
0.00863367
0.00868414
0.00860983
0.00902622
0.00877253
0.00863835
0.00795285
0.00766985
0.00704276
0.00390058
0.0044037
0.00482079
0.00543213
0.00580092
0.00606657
0.00614153
0.00616555
0.00637722
0.00629324
0.00631596
0.0063552
0.00635726
0.00639763
0.00664825
0.00634925
0.00625181
0.00609679
0.00560769
0.00519384
0.0027107
0.00264339
0.00296332
0.00323275
0.00357155
0.00393693
0.00385431
0.00373156
0.00396882
0.00372331
0.00375402
0.00388921
0.00398985
0.00378375
0.00377271
0.00403013
0.00371457
0.00350469
0.00334255
0.0027861
0.000949998
0.000936736
0.00118117
0.000939656
0.00116634
0.00104795
0.00129761
0.00106522
0.00106879
0.00124417
0.00117268
0.00113024
0.00117255
0.00148409
0.00135283
0.00147483
0.00101294
0.00116177
0.000994835
0.00106888
0.0133658
0.0148445
0.0165616
0.0176006
0.0189311
0.0194053
0.0197739
0.0198421
0.0201046
0.0198171
0.0200873
0.0203049
0.0200944
0.0202837
0.0204818
0.0198499
0.0194006
0.0183964
0.0170213
0.0160201
0.0116358
0.0128982
0.0143475
0.0156211
0.0164214
0.0169714
0.0174302
0.0172431
0.0173736
0.0174401
0.0174904
0.0174287
0.017789
0.0177576
0.0178332
0.0175658
0.0169696
0.0162408
0.0151546
0.0140718
0.00975274
0.0109382
0.0120874
0.0132416
0.0138988
0.0142228
0.0146216
0.0146754
0.0148477
0.0150328
0.0150126
0.015107
0.0150609
0.0150935
0.0153867
0.0149722
0.0146616
0.0142813
0.013095
0.0120797
0.00815271
0.00893823
0.010128
0.0106712
0.0111849
0.0118602
0.0120549
0.0122484
0.0125031
0.0123568
0.0125018
0.0122998
0.012501
0.0124713
0.0126406
0.0124631
0.0121742
0.0115084
0.0109652
0.0100026
0.00643977
0.00729845
0.0076938
0.00841884
0.00903349
0.00940401
0.00966011
0.0095778
0.00955202
0.00984705
0.00986485
0.00993127
0.00965651
0.00972783
0.00989494
0.00974984
0.00953656
0.00909656
0.00846042
0.00794498
0.00455006
0.00495381
0.00561766
0.00614216
0.00631445
0.00661538
0.00672377
0.00701894
0.00711968
0.00675367
0.00698281
0.00708378
0.00699092
0.00715968
0.00697932
0.0071502
0.00700305
0.00653673
0.00607903
0.00594126
0.00274249
0.00297571
0.00351957
0.0038055
0.00377604
0.00418527
0.0041728
0.00427479
0.00439052
0.00407504
0.0042681
0.00418284
0.00445936
0.00446684
0.00442513
0.00425883
0.00402994
0.00406858
0.00384755
0.0034624
0.000856878
0.00105724
0.000897232
0.00114591
0.00122243
0.00155725
0.0016037
0.00153491