/*--------------------------------*- C++ -*----------------------------------*\
| =========                 |                                                 |
| \\      /  F ield         | OpenFOAM: The Open Source CFD Toolbox           |
|  \\    /   O peration     | Version:  2212                                  |
|   \\  /    A nd           | Website:  www.openfoam.com                      |
|    \\/     M anipulation  |                                                 |
\*---------------------------------------------------------------------------*/
FoamFile
{
    version     2.0;
    format      ascii;
    arch        "LSB;label=32;scalar=64";
    class       volScalarField;
    location    "0";
    object      T;
}
// * * * * * * * * * * * * * * * * * * * * * * * * * * * * * * * * * * * * * //

dimensions      [0 0 0 1 0 0 0];

internalField   nonuniform List<scalar> 
3200
(
345.562
346.548
347.521
348.675
349.397
349.985
350.781
351.154
351.262
350.903
351.189
350.936
350.605
350.23
349.516
348.502
347.566
346.789
345.524
344.566
339.75
340.605
341.456
342.467
343.03
343.521
344.277
344.544
344.617
344.31
344.558
344.324
344.025
343.705
343.094
342.188
341.338
340.704
339.594
338.804
333.778
334.516
335.221
336.159
336.607
336.945
337.605
337.836
337.879
337.59
337.855
337.618
337.373
337.092
336.59
335.811
335.042
334.512
333.62
332.995
327.738
328.288
328.895
329.712
330.073
330.344
330.863
331.049
331.073
330.814
331.068
330.866
330.654
330.432
330.028
329.33
328.68
328.289
327.592
327.092
321.641
322.037
322.539
323.222
323.469
323.646
324.065
324.21
324.227
324.019
324.218
324.037
323.949
323.679
323.375
322.838
322.324
322.026
321.5
321.105
315.483
315.786
316.141
316.661
316.78
316.953
317.2
317.35
317.334
317.179
317.326
317.208
317.185
316.936
316.75
316.314
315.937
315.713
315.432
315.114
309.321
309.499
309.72
310.011
310.086
310.215
310.355
310.445
310.423
310.364
310.434
310.341
310.367
310.169
310.092
309.822
309.581
309.428
309.303
309.092
303.142
303.186
303.262
303.352
303.382
303.419
303.447
303.504
303.484
303.475
303.505
303.489
303.477
303.405
303.403
303.285
303.21
303.152
303.128
303.04
346.641
347.522
348.397
349.647
350.345
351.041
351.798
351.957
352.095
352.198
352.23
351.966
351.707
350.979
350.36
349.694
348.572
347.838
346.789
345.703
340.72
341.408
342.197
343.219
343.827
344.414
345.072
345.173
345.318
345.369
345.411
345.187
344.933
344.298
343.744
343.166
342.186
341.534
340.624
339.709
334.666
335.172
335.832
336.706
337.217
337.718
338.302
338.344
338.457
338.478
338.562
338.347
338.08
337.609
337.075
336.582
335.71
335.181
334.454
333.685
328.495
328.841
329.386
330.148
330.532
330.997
331.464
331.503
331.533
331.527
331.632
331.447
331.183
330.835
330.388
329.988
329.23
328.788
328.209
327.609
322.257
322.469
322.92
323.481
323.798
324.179
324.559
324.589
324.584
324.556
324.625
324.496
324.299
324.038
323.674
323.354
322.74
322.335
321.964
321.5
315.938
316.105
316.414
316.782
317.028
317.286
317.563
317.612
317.607
317.571
317.58
317.519
317.388
317.203
316.919
316.695
316.276
315.953
315.714
315.376
309.573
309.688
309.906
310.069
310.254
310.401
310.554
310.596
310.593
310.566
310.534
310.509
310.483
310.335
310.183
310.009
309.778
309.613
309.489
309.222
303.214
303.248
303.333
303.397
303.447
303.494
303.518
303.549
303.552
303.552
303.532
303.505
303.539
303.457
303.414
303.343
303.272
303.218
303.202
303.072
347.781
348.676
349.868
350.931
351.777
352.418
353.149
353.24
353.6
353.576
353.513
353.348
352.953
352.277
351.779
350.972
349.975
348.91
347.535
346.72
341.667
342.428
343.437
344.279
345.01
345.576
346.215
346.243
346.618
346.586
346.534
346.39
346.027
345.405
344.979
344.27
343.323
342.446
341.265
340.608
335.411
336.05
336.941
337.521
338.22
338.692
339.208
339.155
339.537
339.522
339.525
339.322
339.041
338.48
338.169
337.524
336.668
335.947
334.988
334.472
329.06
329.585
330.327
330.764
331.343
331.743
332.152
332.092
332.406
332.362
332.418
332.165
332.004
331.486
331.283
330.777
330.021
329.447
328.629
328.272
322.658
323.065
323.633
323.966
324.413
324.745
325.063
325.011
325.252
325.209
325.258
325.007
324.919
324.539
324.347
323.987
323.369
322.918
322.284
322.059
316.217
316.518
316.918
317.139
317.5
317.718
317.958
317.838
318.073
318.039
318.053
317.864
317.844
317.585
317.397
317.176
316.719
316.385
315.926
315.793
309.724
309.924
310.194
310.296
310.548
310.635
310.767
310.679
310.831
310.881
310.862
310.713
310.747
310.544
310.432
310.313
310.045
309.832
309.572
309.497
303.255
303.341
303.436
303.449
303.551
303.555
303.612
303.574
303.609
303.665
303.633
303.599
303.611
303.536
303.501
303.46
303.368
303.296
303.206
303.181
349.128
350.253
351.248
352.396
353.284
353.939
354.597
354.733
355.195
355.254
355.232
354.85
354.376
353.705
353.134
352.298
351.388
350.145
348.832
347.992
342.81
343.762
344.642
345.562
346.37
346.908
347.514
347.533
348.016
348.018
347.992
347.622
347.154
346.632
346.122
345.377
344.615
343.51
342.37
341.733
336.376
337.215
337.941
338.67
339.337
339.805
340.299
340.311
340.747
340.754
340.702
340.323
339.941
339.518
339.099
338.43
337.822
336.831
335.879
335.399
329.862
330.557
331.142
331.743
332.254
332.674
333.018
333.043
333.378
333.395
333.35
333.05
332.718
332.352
332.023
331.451
331.016
330.128
329.38
329.041
323.322
323.813
324.291
324.763
325.126
325.48
325.736
325.719
325.952
326.033
325.978
325.69
325.504
325.179
324.895
324.467
324.131
323.478
322.872
322.67
316.731
317.006
317.406
317.717
317.975
318.229
318.435
318.377
318.536
318.618
318.608
318.359
318.264
317.989
317.747
317.511
317.215
316.832
316.327
316.224
310.07
310.228
310.476
310.629
310.803
310.944
311.103
311.06
311.172
311.181
311.213
311.047
310.983
310.806
310.66
310.559
310.362
310.125
309.793
309.701
303.376
303.44
303.511
303.541
303.64
303.69
303.73
303.709
303.765
303.749
303.771
303.714
303.69
303.629
303.569
303.54
303.474
303.414
303.284
303.235
350.316
351.587
352.765
353.89
354.584
355.471
355.833
356.17
356.489
356.593
356.565
356.54
355.717
355.138
354.482
353.653
352.673
351.608
350.231
349.203
343.835
344.901
345.918
346.854
347.488
348.251
348.596
348.815
349.126
349.138
349.135
349.125
348.347
347.854
347.304
346.545
345.706
344.784
343.582
342.679
337.29
338.148
338.969
339.734
340.326
340.931
341.285
341.401
341.667
341.643
341.631
341.675
340.968
340.575
340.099
339.409
338.743
337.944
336.911
336.16
330.626
331.283
331.911
332.611
333.093
333.588
333.889
333.949
334.142
334.128
334.07
334.141
333.547
333.295
332.825
332.264
331.718
331.063
330.197
329.655
323.907
324.372
324.841
325.411
325.809
326.21
326.444
326.408
326.596
326.611
326.503
326.57
326.107
325.943
325.507
325.089
324.666
324.159
323.488
323.129
317.093
317.456
317.733
318.159
318.485
318.79
318.891
318.898
319.014
319.081
318.924
319.011
318.692
318.542
318.21
317.932
317.64
317.247
316.801
316.588
310.286
310.483
310.651
310.936
311.127
311.311
311.358
311.365
311.422
311.486
311.365
311.447
311.252
311.107
310.932
310.794
310.604
310.343
310.133
309.993
303.458
303.509
303.561
303.694
303.736
303.788
303.789
303.814
303.83
303.866
303.8
303.835
303.766
303.716
303.653
303.619
303.548
303.459
303.417
303.359
351.528
352.764
354.089
355.095
355.851
356.79
357.354
357.609
357.936
358.266
358.147
357.832
357.312
356.618
355.901
354.937
353.98
352.89
351.601
350.444
344.849
345.932
347.085
347.896
348.585
349.409
349.902
350.057
350.322
350.553
350.518
350.245
349.785
349.136
348.502
347.635
346.831
345.897
344.78
343.781
338.079
338.979
339.956
340.623
341.198
341.947
342.292
342.463
342.633
342.808
342.859
342.616
342.155
341.626
341.076
340.345
339.597
338.867
337.907
337.063
331.245
331.97
332.774
333.308
333.754
334.428
334.676
334.822
334.92
335.066
335.142
334.93
334.519
334.07
333.673
333.014
332.354
331.859
331.024
330.386
324.363
324.931
325.56
325.975
326.312
326.794
327.008
327.16
327.207
327.276
327.427
327.195
326.858
326.488
326.249
325.674
325.104
324.798
324.156
323.681
317.463
317.823
318.306
318.614
318.782
319.141
319.325
319.472
319.468
319.498
319.649
319.454
319.176
318.956
318.789
318.336
317.911
317.723
317.27
316.933
310.506
310.694
311.013
311.192
311.27
311.454
311.599
311.712
311.715
311.732
311.794
311.667
311.537
311.427
311.283
311.009
310.784
310.641
310.359
310.192
303.534
303.566
303.705
303.738
303.784
303.84
303.894
303.944
303.948
303.958
303.949
303.921
303.868
303.813
303.766
303.704
303.62
303.58
303.478
303.408
352.917
353.947
355.141
356.37
357.305
358.14
358.811
359.106
359.522
359.546
359.395
359.117
358.799
357.905
357.202
356.287
355.103
353.833
352.751
351.628
346.108
346.938
347.989
349.042
349.842
350.532
351.115
351.354
351.713
351.719
351.597
351.341
351.054
350.242
349.647
348.835
347.78
346.703
345.708
344.787
339.143
339.836
340.743
341.621
342.262
342.88
343.331
343.594
343.831
343.836
343.736
343.502
343.264
342.554
342.096
341.414
340.443
339.569
338.676
337.903
332.155
332.648
333.418
334.121
334.637
335.17
335.52
335.705
335.931
335.897
335.801
335.65
335.465
334.834
334.534
333.893
333.098
332.374
331.587
331.053
325.086
325.424
326.065
326.528
326.972
327.416
327.686
327.82
327.999
327.929
327.86
327.747
327.6
327.086
326.906
326.369
325.76
325.189
324.569
324.157
317.985
318.165
318.655
318.975
319.307
319.59
319.769
319.887
320.035
319.919
319.911
319.814
319.689
319.36
319.271
318.851
318.397
317.99
317.565
317.254
310.836
310.947
311.195
311.387
311.622
311.788
311.881
311.919
312.023
311.94
311.946
311.881
311.821
311.644
311.575
311.328
311.006
310.807
310.573
310.369
303.664
303.677
303.769
303.8
303.908
303.939
303.973
304.01
304.028
304.004
303.99
303.981
303.97
303.896
303.873
303.812
303.674
303.635
303.555
303.488
354.089
355.116
356.304
357.468
358.679
359.326
359.944
360.457
360.772
360.841
360.796
360.178
360.056
359.232
358.694
357.753
356.482
355.08
353.737
352.747
347.115
347.933
348.931
349.977
351.002
351.53
352.103
352.566
352.792
352.888
352.854
352.252
352.146
351.413
350.967
350.127
348.988
347.713
346.61
345.778
340.034
340.694
341.499
342.409
343.243
343.665
344.211
344.642
344.732
344.878
344.863
344.278
344.226
343.554
343.192
342.461
341.475
340.368
339.472
338.794
332.855
333.394
334.017
334.814
335.455
335.788
336.225
336.581
336.654
336.78
336.807
336.264
336.25
335.703
335.418
334.773
333.931
332.99
332.332
331.803
325.593
326.047
326.475
327.117
327.613
327.86
328.229
328.496
328.546
328.631
328.629
328.244
328.223
327.797
327.602
327.074
326.345
325.659
325.213
324.781
318.31
318.585
318.951
319.358
319.752
319.919
320.175
320.383
320.395
320.443
320.469
320.241
320.221
319.891
319.73
319.333
318.81
318.378
318.028
317.735
311.006
311.187
311.384
311.603
311.875
311.985
312.148
312.284
312.269
312.268
312.323
312.185
312.157
311.964
311.853
311.599
311.281
311.076
310.854
310.649
303.71
303.747
303.813
303.879
303.991
304.022
304.089
304.119
304.111
304.102
304.143
304.086
304.083
303.997
303.982
303.899
303.778
303.722
303.652
303.565
354.948
356.281
357.393
358.728
359.853
360.473
361.06
361.706
362.088
361.891
362.117
361.658
361.327
360.393
359.786
358.881
357.611
356.17
354.95
353.75
347.902
348.971
349.931
351.075
351.999
352.537
353.035
353.573
353.907
353.758
353.984
353.54
353.255
352.431
351.824
351.079
349.994
348.714
347.629
346.613
340.741
341.56
342.412
343.32
344.103
344.526
344.945
345.384
345.721
345.597
345.783
345.39
345.16
344.441
343.876
343.27
342.365
341.208
340.278
339.468
333.474
334.072
334.828
335.526
336.147
336.486
336.817
337.189
337.456
337.377
337.545
337.179
337
336.439
335.911
335.434
334.675
333.745
332.924
332.286
326.108
326.537
327.153
327.706
328.151
328.414
328.674
328.989
329.156
329.118
329.227
328.944
328.816
328.401
327.955
327.602
327.011
326.266
325.656
325.123
318.664
318.992
319.44
319.886
320.138
320.258
320.506
320.741
320.833
320.831
320.855
320.687
320.595
320.337
319.971
319.754
319.31
318.824
318.311
317.908
311.219
311.422
311.671
311.967
312.111
312.15
312.331
312.461
312.497
312.504
312.526
312.425
312.382
312.226
312.003
311.868
311.615
311.341
310.995
310.709
303.775
303.846
303.894
304.024
304.07
304.078
304.128
304.173
304.181
304.198
304.208
304.157
304.149
304.106
304.017
303.985
303.916
303.815
303.69
303.578
355.776
357.005
358.559
359.887
360.884
361.528
362.124
362.899
363.197
363.151
363.136
362.754
362.268
361.511
360.624
359.741
358.724
357.461
355.928
354.834
348.575
349.594
350.895
352.067
352.965
353.462
353.983
354.646
354.931
354.864
354.881
354.519
354.082
353.366
352.604
351.809
350.926
349.844
348.468
347.598
341.292
342.122
343.196
344.164
344.914
345.328
345.722
346.302
346.605
346.512
346.513
346.227
345.834
345.199
344.565
343.884
343.092
342.204
341.026
340.286
333.936
334.545
335.376
336.205
336.799
337.147
337.459
337.884
338.195
338.105
338.077
337.888
337.553
337.076
336.475
335.939
335.268
334.56
333.594
332.979
326.464
326.957
327.506
328.186
328.672
328.955
329.145
329.461
329.713
329.678
329.658
329.483
329.233
328.962
328.397
328.014
327.481
326.946
326.166
325.683
318.941
319.307
319.657
320.154
320.513
320.719
320.851
321.049
321.176
321.25
321.242
321.077
320.902
320.76
320.33
320.052
319.677
319.302
318.714
318.349
311.387
311.616
311.803
312.135
312.332
312.475
312.546
312.627
312.689
312.776
312.747
312.652
312.546
312.513
312.255
312.071
311.831
311.622
311.258
311.05
303.828
303.902
303.969
304.079
304.136
304.186
304.214
304.217
304.239
304.296
304.26
304.24
304.204
304.192
304.134
304.051
303.982
303.902
303.774
303.679
357.034
358.017
359.463
360.858
361.987
362.721
363.275
363.945
364.316
364.215
364.063
363.882
363.307
362.579
361.632
360.936
359.809
358.378
356.931
355.468
349.585
350.441
351.718
352.92
353.874
354.52
354.986
355.576
355.861
355.809
355.62
355.477
354.963
354.248
353.468
352.862
351.868
350.711
349.406
348.101
342.049
342.804
343.88
344.888
345.709
346.242
346.636
347.107
347.362
347.323
347.11
346.999
346.541
345.893
345.216
344.732
343.926
342.987
341.876
340.683
334.508
335.126
335.97
336.746
337.528
337.909
338.247
338.594
338.81
338.801
338.616
338.511
338.119
337.575
337.022
336.617
336.003
335.213
334.26
333.298
326.884
327.422
328.046
328.598
329.249
329.554
329.778
330.047
330.233
330.2
330.082
330.037
329.651
329.269
328.83
328.494
328.007
327.376
326.672
325.931
319.264
319.623
320.091
320.442
320.926
321.191
321.287
321.487
321.638
321.563
321.51
321.477
321.21
320.955
320.647
320.352
320.021
319.556
319.099
318.52
311.617
311.787
312.101
312.287
312.552
312.733
312.806
312.934
313.017
312.953
312.93
312.896
312.753
312.607
312.437
312.222
312.019
311.758
311.491
311.123
303.903
303.951
304.056
304.117
304.19
304.278
304.285
304.339
304.355
304.358
304.341
304.317
304.285
304.227
304.192
304.095
304.031
303.922
303.854
303.733
357.83
358.974
360.316
361.64
362.924
363.629
364.122
364.783
365.207
365.177
365.054
364.774
364.362
363.602
362.646
361.507
360.469
359.385
357.616
356.619
350.379
351.326
352.458
353.581
354.745
355.286
355.726
356.278
356.673
356.627
356.48
356.268
355.828
355.218
354.349
353.358
352.407
351.54
349.977
349.122
342.821
343.547
344.467
345.462
346.474
346.875
347.255
347.741
348.078
348.022
347.893
347.706
347.267
346.788
346.035
345.186
344.353
343.7
342.33
341.558
335.178
335.761
336.431
337.278
338.093
338.421
338.771
339.109
339.416
339.342
339.272
339.141
338.699
338.303
337.687
336.994
336.28
335.793
334.692
334.014
327.44
327.858
328.386
329.043
329.691
329.918
330.197
330.428
330.669
330.633
330.626
330.513
330.123
329.81
329.32
328.781
328.229
327.808
327.034
326.393
319.612
319.922
320.29
320.789
321.272
321.418
321.574
321.752
321.909
321.891
321.927
321.843
321.554
321.32
320.966
320.513
320.184
319.821
319.348
318.866
311.816
311.988
312.177
312.502
312.819
312.854
312.952
313.081
313.142
313.136
313.169
313.137
312.937
312.785
312.589
312.292
312.119
311.855
311.638
311.304
303.952
304.026
304.077
304.188
304.305
304.307
304.331
304.402
304.404
304.411
304.407
304.402
304.34
304.268
304.238
304.118
304.069
303.963
303.898
303.759
358.524
359.789
360.992
362.461
363.65
364.494
365.217
365.88
366.198
365.928
365.847
365.536
365.122
364.487
363.288
362.402
361.255
359.906
358.308
357.075
350.982
351.99
353.042
354.278
355.324
356.043
356.682
357.256
357.517
357.249
357.13
356.875
356.496
355.982
354.911
354.108
353.134
351.987
350.585
349.544
343.345
344.118
345.024
346.016
346.888
347.55
348.048
348.579
348.75
348.517
348.396
348.194
347.832
347.421
346.499
345.785
344.996
344.01
342.775
341.977
335.597
336.176
336.914
337.726
338.36
338.968
339.353
339.78
339.961
339.694
339.606
339.46
339.176
338.82
338.11
337.466
336.864
336.042
334.975
334.372
327.735
328.204
328.786
329.404
329.856
330.33
330.624
330.929
331.137
330.887
330.792
330.676
330.494
330.206
329.693
329.147
328.665
328.032
327.191
326.76
319.843
320.204
320.624
321.042
321.356
321.693
321.859
322.098
322.27
322.088
322.011
321.937
321.763
321.622
321.236
320.816
320.468
320.01
319.44
319.094
311.924
312.131
312.392
312.618
312.82
313.034
313.106
313.235
313.374
313.31
313.242
313.141
313.064
312.998
312.747
312.509
312.278
312.017
311.713
311.493
304.019
304.052
304.173
304.215
304.303
304.373
304.375
304.461
304.477
304.478
304.453
304.398
304.368
304.371
304.288
304.197
304.109
304.031
303.939
303.863
359.206
360.602
361.844
363.138
364.131
365.21
365.906
366.394
366.807
366.652
366.572
366.21
365.846
365.217
364.213
363.337
362.215
360.601
359.026
357.622
351.498
352.709
353.722
354.88
355.709
356.672
357.286
357.677
358.025
357.861
357.769
357.449
357.148
356.587
355.689
354.999
353.988
352.541
351.182
349.983
343.698
344.709
345.543
346.521
347.206
348.059
348.631
348.88
349.201
349.055
348.908
348.671
348.45
347.929
347.12
346.579
345.737
344.455
343.362
342.292
335.827
336.64
337.316
338.145
338.683
339.416
339.871
340.068
340.306
340.195
340.019
339.866
339.684
339.244
338.592
338.137
337.41
336.425
335.511
334.6
327.916
328.568
329.098
329.729
330.125
330.685
331.073
331.172
331.363
331.295
331.141
331.022
330.876
330.547
330.045
329.689
329.122
328.36
327.683
326.894
319.996
320.433
320.841
321.303
321.56
321.97
322.22
322.255
322.399
322.364
322.231
322.176
322.039
321.847
321.481
321.181
320.827
320.271
319.829
319.212
311.994
312.265
312.558
312.837
312.943
313.215
313.341
313.362
313.491
313.441
313.315
313.333
313.219
313.128
312.925
312.692
312.509
312.164
311.939
311.546
304.02
304.107
304.205
304.299
304.345
304.436
304.461
304.478
304.505
304.497
304.461
304.475
304.43
304.427
304.322
304.259
304.202
304.075
304.005
303.88
359.685
361.086
362.62
363.665
364.756
365.676
366.587
367.007
367.273
367.281
367.279
366.746
366.512
365.676
364.882
363.9
362.614
361.154
359.504
358.198
351.99
353.139
354.405
355.356
356.287
357.078
357.865
358.176
358.447
358.357
358.412
357.93
357.69
356.994
356.278
355.451
354.353
353.064
351.579
350.465
344.142
345.085
346.161
346.946
347.744
348.402
349.056
349.275
349.545
349.436
349.535
349.065
348.835
348.283
347.681
346.94
346.055
344.935
343.648
342.738
336.206
336.976
337.834
338.504
339.122
339.678
340.185
340.378
340.613
340.517
340.587
340.192
339.985
339.541
339.056
338.42
337.717
336.754
335.708
334.959
328.242
328.808
329.458
330.021
330.488
330.907
331.334
331.446
331.605
331.553
331.628
331.297
331.119
330.772
330.39
329.868
329.354
328.595
327.815
327.221
320.209
320.624
321.063
321.492
321.819
322.093
322.444
322.473
322.593
322.574
322.621
322.393
322.259
322.022
321.709
321.362
320.987
320.442
319.868
319.519
312.136
312.428
312.658
312.918
313.136
313.301
313.511
313.513
313.585
313.534
313.605
313.473
313.352
313.243
313.026
312.818
312.565
312.292
311.911
311.76
304.066
304.174
304.234
304.333
304.392
304.452
304.525
304.536
304.533
304.536
304.555
304.523
304.457
304.475
304.36
304.293
304.201
304.13
303.989
303.966
360.048
361.675
362.893
364.087
365.125
366.147
367.023
367.458
367.738
367.882
367.763
367.296
367.016
366.37
365.55
364.319
363.051
361.553
359.962
358.774
352.239
353.633
354.688
355.722
356.625
357.44
358.245
358.6
358.786
358.926
358.858
358.357
358.109
357.627
356.828
355.804
354.722
353.409
351.96
350.985
344.365
345.494
346.394
347.292
347.992
348.693
349.397
349.681
349.824
349.895
349.918
349.436
349.218
348.799
348.142
347.254
346.346
345.193
343.981
343.199
336.422
337.251
338.019
338.772
339.365
339.88
340.47
340.716
340.816
340.871
340.879
340.467
340.336
339.951
339.431
338.707
337.952
336.956
336
335.377
328.371
328.989
329.625
330.281
330.747
331.023
331.504
331.715
331.78
331.815
331.817
331.477
331.429
331.12
330.703
330.111
329.54
328.733
328.005
327.528
320.303
320.714
321.171
321.664
322.052
322.145
322.518
322.689
322.761
322.719
322.78
322.456
322.525
322.256
321.931
321.518
321.128
320.558
320.009
319.696
312.216
312.44
312.719
313.026
313.306
313.314
313.559
313.624
313.687
313.598
313.718
313.461
313.567
313.363
313.173
312.924
312.709
312.346
312.042
311.85
304.075
304.151
304.249
304.37
304.458
304.462
304.553
304.557
304.596
304.547
304.591
304.503
304.559
304.492
304.426
304.316
304.265
304.127
304.042
303.982
360.714
361.818
363.319
364.515
365.608
366.37
367.292
367.756
368.068
368.27
368.087
367.663
367.475
366.831
365.855
364.683
363.371
361.988
360.402
359.143
352.846
353.829
355.049
356.096
357.03
357.707
358.493
358.885
359.11
359.283
359.147
358.683
358.542
357.986
357.143
356.095
354.947
353.747
352.392
351.318
344.839
345.672
346.675
347.624
348.319
348.921
349.589
349.904
350.109
350.202
350.138
349.693
349.59
349.114
348.396
347.434
346.535
345.517
344.316
343.454
336.794
337.434
338.261
339.113
339.604
340.062
340.651
340.899
341.025
341.126
341.073
340.668
340.61
340.208
339.651
338.801
338.099
337.222
336.219
335.545
328.685
329.152
329.826
330.499
330.856
331.183
331.673
331.857
331.963
332.007
331.966
331.63
331.599
331.279
330.924
330.189
329.645
328.96
328.196
327.684
320.556
320.864
321.32
321.825
322.078
322.292
322.65
322.775
322.848
322.874
322.826
322.616
322.559
322.37
322.149
321.578
321.205
320.689
320.162
319.784
312.367
312.504
312.798
313.138
313.303
313.363
313.62
313.676
313.731
313.752
313.728
313.596
313.543
313.45
313.345
312.935
312.781
312.413
312.12
311.871
304.154
304.203
304.276
304.422
304.47
304.489
304.557
304.567
304.598
304.606
304.626
304.554
304.531
304.501
304.467
304.339
304.308
304.163
304.078
303.972
360.861
362.125
363.522
364.863
365.772
366.71
367.513
368.189
368.36
368.498
368.336
367.983
367.678
367.014
366.111
364.976
363.627
362.196
360.446
359.223
353.014
354.058
355.186
356.394
357.137
357.948
358.633
359.249
359.38
359.531
359.314
358.993
358.713
358.176
357.334
356.36
355.229
353.97
352.379
351.349
345.085
345.89
346.794
347.806
348.411
349.135
349.708
350.228
350.329
350.452
350.264
350.019
349.724
349.265
348.522
347.701
346.829
345.684
344.336
343.516
337.048
337.632
338.341
339.167
339.654
340.266
340.719
341.149
341.208
341.354
341.195
340.972
340.722
340.328
339.749
339.029
338.347
337.367
336.302
335.688
328.9
329.297
329.915
330.484
330.89
331.337
331.785
332.018
332.113
332.241
332.086
331.872
331.655
331.352
330.976
330.381
329.818
329.05
328.267
327.806
320.721
320.959
321.42
321.829
322.084
322.421
322.769
322.872
322.978
323.086
322.958
322.791
322.596
322.378
322.157
321.687
321.296
320.767
320.216
319.896
312.488
312.584
312.88
313.098
313.317
313.481
313.708
313.725
313.798
313.874
313.802
313.681
313.564
313.447
313.299
313.022
312.784
312.479
312.161
311.939
304.204
304.212
304.308
304.387
304.47
304.529
304.605
304.591
304.657
304.656
304.623
304.574
304.551
304.502
304.448
304.365
304.288
304.183
304.083
303.987
360.927
362.173
363.499
365
366.274
366.856
367.798
368.245
368.458
368.661
368.529
368.217
367.593
366.947
366.049
365.019
363.679
362.332
360.858
359.434
353.024
354.085
355.169
356.488
357.597
358.073
358.89
359.26
359.451
359.609
359.443
359.165
358.675
358.094
357.276
356.41
355.219
354.055
352.775
351.565
345.05
345.949
346.773
347.905
348.866
349.214
349.944
350.216
350.412
350.536
350.375
350.163
349.707
349.196
348.519
347.759
346.719
345.772
344.657
343.661
336.961
337.666
338.355
339.28
340.058
340.363
340.92
341.137
341.286
341.445
341.27
341.081
340.703
340.228
339.722
339.115
338.228
337.446
336.555
335.727
328.793
329.373
329.893
330.59
331.243
331.459
331.893
332.003
332.142
332.281
332.102
331.987
331.682
331.297
330.941
330.477
329.766
329.182
328.419
327.809
320.613
321.035
321.366
321.88
322.363
322.514
322.802
322.872
323.006
323.094
322.964
322.872
322.611
322.372
322.166
321.761
321.29
320.872
320.324
319.796
312.416
312.639
312.856
313.127
313.472
313.573
313.664
313.765
313.84
313.885
313.818
313.767
313.596
313.421
313.338
313.076
312.8
312.533
312.201
311.85
304.187
304.259
304.307
304.377
304.52
304.568
304.591
304.619
304.65
304.66
304.628
304.621
304.574
304.491
304.484
304.387
304.296
304.219
304.096
303.973
360.859
362.347
363.663
364.846
366.126
366.792
367.944
368.413
368.593
368.829
368.785
368.489
367.785
366.977
366.301
365.084
363.792
362.385
360.794
359.484
352.962
354.216
355.311
356.322
357.481
358.037
359.043
359.408
359.569
359.79
359.757
359.406
358.778
358.167
357.586
356.442
355.293
354.11
352.726
351.611
344.952
346.038
346.898
347.738
348.801
349.266
350.065
350.326
350.511
350.675
350.652
350.267
349.738
349.299
348.796
347.791
346.795
345.774
344.656
343.691
336.88
337.825
338.487
339.107
340.047
340.419
340.992
341.18
341.415
341.483
341.527
341.125
340.7
340.347
339.97
339.125
338.231
337.47
336.534
335.781
328.793
329.515
329.975
330.484
331.245
331.495
331.926
332.059
332.269
332.271
332.348
332.008
331.674
331.388
331.109
330.471
329.705
329.169
328.391
327.886
320.593
321.131
321.415
321.809
322.372
322.499
322.827
322.916
323.084
323.053
323.13
322.863
322.625
322.487
322.232
321.803
321.206
320.827
320.283
319.95
312.423
312.727
312.864
313.117
313.48
313.51
313.719
313.77
313.891
313.878
313.919
313.731
313.541
313.524
313.355
313.117
312.739
312.48
312.167
312.008
304.174
304.296
304.303
304.401
304.526
304.52
304.617
304.62
304.675
304.675
304.659
304.6
304.525
304.547
304.497
304.425
304.281
304.175
304.075
304.054
)
;

boundaryField
{
    hotSide
    {
        type            fixedGradient;
        gradient        nonuniform List<scalar> 
400
(
449.886
465.249
480.253
494.832
508.919
522.447
535.351
547.569
559.04
569.705
579.512
588.408
596.347
603.288
609.193
614.031
617.776
620.408
621.912
622.281
462.947
478.766
494.217
509.23
523.738
537.671
550.963
563.549
575.367
586.357
596.462
605.631
613.816
620.973
627.064
632.057
635.926
638.648
640.21
640.603
474.839
491.071
506.927
522.335
537.225
551.526
565.17
578.09
590.223
601.506
611.883
621.3
629.707
637.06
643.321
648.454
652.434
655.239
656.852
657.267
485.48
502.081
518.298
534.057
549.287
563.916
577.873
591.09
603.503
615.048
625.667
635.304
643.908
651.436
657.846
663.105
667.183
670.06
671.719
672.153
494.8
511.722
528.253
544.318
559.843
574.756
588.985
602.461
615.117
626.889
637.717
647.545
656.321
663.999
670.539
675.905
680.068
683.007
684.705
685.153
502.738
519.93
536.726
553.048
568.822
583.975
598.433
612.126
624.986
636.948
647.952
657.939
666.859
674.663
681.31
686.766
690.999
693.989
695.718
696.177
509.241
526.653
543.661
560.19
576.165
591.51
606.152
620.019
633.043
645.158
656.301
666.416
675.45
683.354
690.087
695.612
699.901
702.929
704.681
705.147
514.27
531.845
549.013
565.698
581.823
597.312
612.092
626.089
639.234
651.462
662.71
672.919
682.036
690.013
696.808
702.384
706.711
709.766
711.533
712.001
517.789
535.473
552.748
569.536
585.76
601.343
616.212
630.294
643.519
655.819
667.134
677.402
686.572
694.595
701.428
707.034
711.383
714.453
716.225
716.692
519.776
537.514
554.84
571.677
587.947
603.576
618.486
632.607
645.867
658.2
669.543
679.837
689.028
697.069
703.915
709.531
713.886
716.956
718.726
719.186
520.217
537.952
555.274
572.106
588.371
603.993
618.897
633.01
646.262
658.587
669.921
680.205
689.387
697.416
704.252
709.857
714.201
717.26
719.018
719.466
519.107
536.782
554.045
570.819
587.027
602.592
617.441
631.5
644.701
656.976
668.263
678.503
687.643
695.635
702.435
708.009
712.324
715.36
717.098
717.53
516.45
534.01
551.16
567.822
583.92
599.379
614.124
628.085
641.191
653.376
664.578
674.74
683.808
691.733
698.475
703.997
708.269
711.268
712.978
713.389
512.261
529.651
546.632
563.13
579.068
594.371
608.967
622.783
635.752
647.808
658.89
668.939
677.904
685.737
692.397
697.847
702.059
705.01
706.684
707.071
506.561
523.728
540.49
556.772
572.5
587.6
602
615.629
628.42
640.308
651.232
661.137
669.97
677.685
684.24
689.6
693.737
696.628
698.258
698.617
499.386
516.277
532.769
548.786
564.256
579.107
593.266
606.666
619.239
630.922
641.656
651.384
660.057
667.628
674.057
679.31
683.357
686.178
687.758
688.086
490.779
507.345
523.517
539.222
554.388
568.945
582.822
595.952
608.269
619.712
630.222
639.745
648.231
655.635
661.918
667.046
670.991
673.732
675.254
675.549
480.794
496.988
512.793
528.141
542.96
557.181
570.735
583.558
595.584
606.753
617.009
626.299
634.573
641.787
647.905
652.892
656.722
659.375
660.835
661.095
469.496
485.272
500.669
515.617
530.047
543.893
557.088
569.567
581.268
592.134
602.107
611.136
619.175
626.181
632.116
636.948
640.653
643.208
644.602
644.825
456.96
472.278
487.225
501.734
515.738
529.173
541.973
554.076
565.422
575.954
585.618
594.365
602.147
608.925
614.662
619.327
622.896
625.348
626.671
626.857
)
;
    }
    coldSide
    {
        type            mixed;
        refValue        uniform 300;
        refGradient     uniform 0;
        valueFraction   uniform 0.991591;
        source          uniform 0;
        value           nonuniform List<scalar> 
400
(
300.026
300.027
300.027
300.028
300.029
300.03
300.031
300.031
300.032
300.032
300.033
300.033
300.034
300.034
300.034
300.034
300.035
300.035
300.035
300.035
300.027
300.027
300.028
300.029
300.03
300.03
300.031
300.032
300.032
300.033
300.033
300.034
300.034
300.035
300.035