/*--------------------------------*- C++ -*----------------------------------*\
| =========                 |                                                 |
| \\      /  F ield         | OpenFOAM: The Open Source CFD Toolbox           |
|  \\    /   O peration     | Version:  2212                                  |
|   \\  /    A nd           | Website:  www.openfoam.com                      |
|    \\/     M anipulation  |                                                 |
\*---------------------------------------------------------------------------*/
FoamFile
{
    version     2.0;
    format      ascii;
    arch        "LSB;label=32;scalar=64";
    class       volScalarField;
    location    "0";
    object      stateMean;
}
// * * * * * * * * * * * * * * * * * * * * * * * * * * * * * * * * * * * * * //

dimensions      [0 0 0 1 0 0 0];

internalField   nonuniform List<scalar> 
3200
(
354.41
352.464
351.466
348.723
346.694
350.552
349.566
351.405
349.979
354.069
351.853
350.228
350.294
349.261
346.806
345.673
344.495
347.146
346.914
351.972
346.063
343.442
341.564
342.887
340.866
345.467
343.629
344.795
341.87
344.389
344.43
343.195
342.914
340.83
340.776
338.673
340.078
342.757
340.387
340.231
339.318
337.349
335.512
336.007
335.135
335.79
336.914
338.368
337.013
339.287
337.731
337.326
336.958
336.245
334.885
332.801
335.744
335.652
332.493
335.278
331.085
331.487
329.804
327.076
329.563
330.294
330.607
331.226
332.494
329.744
331.376
328.799
328.151
329.952
329.385
327.888
326.967
329.075
328.922
329.021
325.335
320.941
322.211
321.05
322.606
323.744
321.756
325.374
326.419
323.15
323.92
323.921
322.73
321.969
323.42
322.892
321.239
321.668
322.703
321.875
317.99
317.015
318.617
317.656
316.021
315.088
316.211
319.446
317.956
318.168
316.555
315.233
316.208
317.451
314.697
316.878
315.633
316.73
317.497
315.899
312.561
311.123
310.373
309.403
309.287
309.251
310.272
313.749
309.739
312.127
310.923
311.532
307.466
309.963
309.98
308.092
308.272
308.944
309.088
310.007
302.167
303.13
300.785
300.535
302.108
303.602
304.534
304.399
306.513
304.678
303.008
302.566
303.542
303.851
300.784
304.865
302.54
305.83
301.604
301.002
350.978
349.685
350.649
347.33
350.741
350.877
350.816
353.102
351.937
352.251
350.636
352.195
350.186
349.089
349.816
346.432
348.755
345.482
347.996
345.875
343.25
341.885
343.096
343.581
343.293
344.92
343.462
346.865
345.419
347.407
346.854
343.35
347.163
344.453
345.514
339.72
343.608
338.763
341.894
341.462
337.365
338.387
335.321
337.023
336.745
337.132
335.349
334.985
338.15
339.268
339.747
337.166
334.818
339.319
334.172
333.266
334.373
333.027
335.571
333.826
333.368
329.827
329.453
331.16
328.31
331.64
328.534
330.167
330.881
332.627
332.654
331.438
329.757
329.485
327.573
328.815
330.087
328.067
328.065
328.409
324.189
322.991
321.854
322.369
325.114
325.687
324.038
324.812
322.818
324.265
323.232
324.691
323.368
323.968
323.815
323.152
322.923
325.342
322.251
322.005
317.406
318.151
317.379
315.908
315.826
315.688
315.812
316.224
316.733
316.897
318.456
316.372
318.567
316.103
316.447
316.273
316.733
315.488
315.77
316.146
311.725
311.014
310.277
309.371
308.496
309.407
310.41
313.005
310.159
310.775
306.24
309.189
309.443
310.239
310.836
307.435
309.3
310.853
310.614
309.254
303.344
303.321
304.99
306.551
302.376
303.05
302.824
302.509
302.852
307.384
302.743
302.401
304.227
302.669
303.06
304.073
303.755
302.469
303.469
302.94
350.545
351.439
350.626
349.595
350.339
351.193
351.563
352.994
352.359
352.71
353.372
351.036
353.09
348.619
349.668
349.601
347.684
347.982
349.608
349.965
343.795
344.817
343.869
343.25
343.975
343.375
345.392
345.511
346.493
347.078
347.679
346.655
349.438
343.319
343.19
341.426
340.127
340.921
342.017
343.268
337.643
336.612
335.371
336.561
335.438
336.493
339.615
335.662
339.12
339.354
338.882
337.675
339.752
336.084
336.098
334.917
333.405
333.197
335.098
336.584
331.686
328.387
330.9
330.111
331.46
330.76
330.863
330.101
332.649
332.617
333.936
331.032
330.64
330.725
327.715
329.07
325.717
327.326
329.634
329.259
324.096
324.178
321.724
322.633
322.212
324.573
324.872
323.935
324.548
323.697
327.368
325.295
324.524
322.238
320.982
322.517
320.908
322.243
322.812
322.024
316.25
317.274
316.379
316.34
316.556
317.924
318.523
317.808
317.008
319.186
316.948
317.521
316.857
314.91
316.473
317.25
317.41
314.189
314.718
318.599
311.471
311.155
311.214
310.391
310.94
310.34
310.825
311.957
309.46
312.092
309.435
310.24
308.93
310.613
310.59
310.167
311.628
311.997
309.187
310.701
301.319
304.661
300.851
303.757
302.598
303.296
303.9
302.095
302.497
302.653
304.085
303.133
304.458
304.125
302.386
305.443
303.656
305.704
300.733
303.928
351.672
352.383
350.194
351.276
349.915
349.171
351.619
351.879
352.497
353.526
354.784
352.883
352.818
350.265
350.328
349.289
348.714
347.197
349.386
350.049
345.29
342.479
342.935
343.99
342.414
345.591
342.547
347.064
347.158
347.868
348.002
346.843
346.974
343.411
346.059
341.406
343.77
342.063
342.143
343.871
338.649
336.495
336.612
336.475
335.317
337.231
339.557
338.127
340.193
339.473
339.052
339.519
337.035
338.981
336.628
337.009
335.419
334.185
336.411
338.009
331.249
329.933
332.123
329.828
330.929
330.718
332.58
329.717
331.877
330.897
332.899
331.96
331.213
332.039
331.392
328.64
330.224
329.007
329.226
331.532
322.894
323.93
323.729
323.633
324.047
321.701
323.139
323.42
325.303
326.564
325.959
324.345
325.337
324.321
323.188
324.974
324.165
324.226
324.15
321.994
316.952
319.44
319.329
316.756
314.891
316.773
315.112
320.632
318.511
317.394
315.155
318.154
316.821
317.169
317.831
314.218
315.672
316.453
316.974
314.926
311.531
308.162
310.212
311.605
312.841
310.623
311.142
311.934
309.631
310.567
310.348
310.39
312.399
309.914
310.526
310.338
311.559
308.184
310.529
310.742
303.766
301.92
303.53
303.435
305.573
305.51
304.993
302.994
304.109
303.952
303.709
306.307
304.668
303.8
305.617
304.157
303.046
303.062
303.675
303.437
350.641
351.555
353.264
353.796
351.273
349.059
353.571
351.833
356.227
353.942
355.621
355.155
352.745
350.289
352.565
349.184
350.155
348.418
350.152
351.866
342.978
342.985
344.145
343.337
343.418
346.388
344.858
347.549
347.971
347.483
346.563
349.027
345.981
346.001
345.523
344.354
344.015
342.715
340.939
343.658
338.497
338.449
339.306
338.199
334.768
337.402
338.589
340.196
339.194
340.682
340.512
341.651
340.634
339.58
335.312
336.38
334.154
336.479
337.183
336.577
333.783
332.002
332.33
329.815
331.522
330.634
330.933
329.4
330.405
332.597
332.058
330.855
331.833
333.715
330.733
330.482
330.478
330.058
328.783
330.152
326.017
324.357
321.358
323.123
325.398
325.85
325.023
327.521
325.414
325.442
325.286
327.09
324.153
323.697
321.981
323.679
322.292
323.1
322.739
321.932
317.256
317.394
317.624
317.217
318.066
319.738
318.526
316.934
320.908
318.273
317.203
319.576
317.268
317.195
316.354
316.962
317.328
315.345
318.555
315.909
310.182
311.167
310.271
310.376
311.125
309.887
312.345
310.704
309.347
310.139
311.429
310.584
309.685
310.559
308.331
310.721
310.345
308.084
309.102
308.497
302.992
302.231
303.922
302.951
306.507
303.476
303.561
303.831
303.586
301.846
303.282
303.49
304.297
302.764
303.08
305.684
304.431
302.956
304.56
303.774
355.299
351.395
352.563
351.582
350.875
353.2
355.466
354.792
357.526
355.516
357.413
356.691
356.816
353.243
354.833
351.148
353.193
349.491
351.731
354.067
345.63
343.828
347.715
345.217
345.247
346.175
345.396
347.611
347.757
348.991
348.419
347.301
347.775
348.849
346.323
346.25
344.805
344.19
342.846
345.218
341.607
341.088
340.034
339.629
335.684
337.729
340.872
343.556
341.942
342.494
339.338
338.748
339.757
340.225
340.428
339.724
335.888
336.369
338.179
336.41
332.066
332.164
332.306
333.39
332.649
332.902
331.956
334.094
334.63
333.009
329.943
334.731
334.479
333.556
332.602
331.353
330.34
328.66
329.12
332.456
322.466
325.965
324.999
324.099
323.78
324.212
325.03
324.264
326.062
328.868
326.067
325.642
326.875
324.505
326.484
325.77
322.987
322.89
323.544
324.067
317.152
315.757
320.423
316.051
315.625
315.796
318.659
319.617
317.999
317.771
320.118
317.925
318.311
318.271
316.39
318.285
316.679
316.239
316.725
317.154
311.139
310.437
309.622
309.569
310.37
311.914
311.775
311.09
310.93
312.738
309.556
310.75
311.559
312.846
312.058
310.118
310.127
307.605
309.192
308.45
303.355
301.697
303.491
302.679
303.833
303.757
303.114
304.788
303.224
305.725
304.606
303.145
305.113
304.693
303.898
301.835
301.489
303.983
303.42
304.388
355.546
355.273
354.605
350.859
352.877
355.302
353.816
357.27
357.322
354.606
358.115
359.134
357.13
355.65
355.344
352.211
353.082
351.93
350.925
352.248
347.206
349.035
346.413
348.096
348.583
348.045
348.903
348.048
352.798
352.468
350.638
350.29
350.992
347.668
345.539
346.405
344.595
344.366
346.739
344.555
342.386
339.192
339.62
336.965
339.167
339.873
340.941
345.034
341.583
341.064
339.379
341.981
341.004
341.574
339.059
338.151
337.306
339.463
338.933
338.196
333.012
333.36
330.907
331.326
330.73
333.166
335.446
333.141
334.756
334
336.13
334.462
333.975
332.541
334.463
329.927
332.947
330.833
331.012
331.984
327.491
324.567
324.049
325.208
321.647
324.824
327.12
326.955
328.182
327.147
326.553
328.984
326.728
325.193
323.84
324.38
325.491
323.559
323.717
325.719
320.595
320.053
319.632
318.604
317.616
320.028
319.192
320.944
319.782
318.761
318.98
319.306
320.792
317.313
318.11
317.982
315.92
316.047
315.693
315.174
309.621
310.459
312.554
308.849
309.464
311.678
311.366
311.465
311.594
311.116
312.864
312.07
312.892
313.732
307.962
309.089
311.185
309.505
312.505
310.961
300.325
303.513
304.486
306.675
303.54
302.173
304.532
304.138
304.428
302.682
303.835
304.326
303.838
303.632
302.172
304.864
303.692
306.594
302.818
305.394
355.061
354.542
353.178
352.773
356.42
355.697
356.532
357.245
357.051
359.121
357.789
359.373
357.708
356.666
356.527
354.084
353.637
351.634
354.416
355.462
350.694
345.571
346.685
346.139
345.707
347.951
350.515
349.01
351.132
349.227
349.615
349.436
349.147
348.195
347.592
347.847
345.941
348.002
344.836
345.974
340.715
342.769
340.728
340.195
341.427
343.41
343.701
343.253
342.789
341.001
345.93
343.798
344.477
340.899
340.889
339.227
338.822
339.831
339.859
342.58
334.393
333.682
331.716
333.322
332.581
334.737
334.827
334.539
335.014
333.912
335.762
333.615
334.416
331.398
334.517
332.681
334.141
330.947
332.237
332.66
323.912
325.162
325.879
325.703
326.48
325.28
328.89
326.8
328.375
325.507
329.441
329.604
329.536
326.695
325.242
325.86
325.537
321.754
324.228
323.58
319.219
317.523
319.11
318.719
320.392
319.091
319.736
319.375
320.569
321.48
318.956
320.709
321.358
317.839
319.68
316.785
318.778
317.621
317.775
319.836
312.967
310.004
309.375
312.685
312.345
311.418
310.119
312.731
313.348
312.923
311.716
312.165
312.444
311.794
312.082
311.366
308.649
311.4
310.115
311.495
302.141
302.34
305.063
303.067
302.795
301.765
303.799
303.493
305.841
304.99
303.099
305.184
304.245
305.61
303.285
304.535
301.752
303.328
304.004
302.976
359.336
356.823
358.418
355.698
357.786
356.76
357.377
358.428
362.287
361.79
358.97
360.332
360.712
358.471
358.982
357.18
354.359
353.75
355.412
357.633
350.956
349.812
349.963
348.59
349.226
349.257
350.019
353.528
353.078
352.268
353.159
353.806
352.429
350.332
350.164
348.817
347.802
347.897
347.304
347.018
340.778
342.691
343.629
340.735
340.79
342.526
341.658
344.336
346.882
343.537
343.336
344.27
344.735
343.857
342.238
342.388
341.918
339.743
340.177
341.752
337.898
334.905
334.133
331.759
333.522
335.558
335.633
337.477
335.214
337.205
338.969
336.734
333.305
332.62
336.1
333.481
334.243
332.062
333.491
332.931
327.09
327.161
326.414
325.881
325.116
326.724
327.498
328.349
326.65
327.86
327.913
329.21
326.884
328.15
329.276
327.929
326.366
326.432
327.204
328.809
317.73
317.641
319.853
318.509
319.859
317.925
318.328
318.419
319.172
319.255
320.819
321.072
319.694
319.338
315.54
318.878
320.552
321.033
319.546
320.929
312.359
312.69
313.089
311.928
310.762
312.02
311.849
311.395
310.123
310.596
310.291
311.939
312.474
312.03
311.505
309.64
311.788
310.659
312.094
310.697
303.893
302.81
303.923
304.077
305.16
304.3
301.844
306.071
302.743
304.509
302.783
304.666
302.139
305.325
305.055
304.413
302.731
305.208
305.249
303.964
360.126
359.809
356.405
357.724
359.005
359.212
358.983
360.531
360.295
361.1
364.983
361.14
359.198
359.669
358.905
357.552
356.421
356.868
355.252
359.041
351.349
347.895
351.3
348.721
349.933
349.066
351.806
349.837
352.506
350.877
351.511
352.166
351.421
353.929
350.566
352.181
348.254
349.36
346.846
351.308
342.01
341.29
341.093
343.16
342.96
340.973
343.568
344.941
343.661
345.706
346.47
341.908
345.528
346.443
341.449
342.904
342.104
341.874
342.806
341.684
335.195
333.287
332.868
336.084
336.186
335.545
334.459
335.81
335.347
337.63
336.992
337.468
337.629
332.669
334.456
332.746
335.337
333.967
334.098
333.854
327.271
326.701
327.643
326.633
326.487
326.688
330.553
327.493
327.085
327.236
327.574
327.498
328.542
328.152
329.382
326.668
327.328
326.884
327.312
328.686
318.901
320.775
318.439
319.089
319.76
321.233
319.775
320.949
319.152
322.372
319.754
318.335
322.225
320.474
320.405
317.577
319.446
318.981
319.038
320.211
310.392
309.817
311.965
313.788
310.501
311.122
312.252
311.179
312.921
312.024
312.633
314.275
313.182
312.424
310.14
311.867
311.456
311.394
310.651
310.6
303.573
303.088
302.981
304.206
304.372
301.432
303.616
302.75
303.036
303.359
303.668
305.973
304.569
303.499
306.716
301.85
305.32
300.208
302.672
301.695
361.305
360.307
359.41
357.935
360.505
358.251
359.956
363.432
363.341
364.051
366.209
364.31
363.777
361.988
360.819
357.825
358.763
357.887
359.664
359.027
354.89
348.255
349.38
349.83
351.527
350.712
353.286
351.515
355.325
351.962
352.167
354.596
352.205
355.151
350.355
351.441
350.236
350.504
348.614
352.808
344.738
343.447
342.9
339.939
343.836
343.997
342.915
345.794
346.069
347.606
347.939
345.53
344.103
343.402
343.421
343.581
343.406
344.047
344.853
343.002
336.978
334.848
336.322
332.618
334.657
335.326
337.094
339.062
339.374
339.066
337.64
338.688
338.38
336.794
336.44
334.605
333.93
335.016
335.061
334.866
326.386
327.636
326.6
327.697
325.557
325.387
327.314
327.319
329.797
329.785
330.657
327.25
327.854
330.459
329.938
328.193
325.872
325.006
327.371
325.462
319.407
320.13
320.54
319.805
316.613
319.086
319.013
320.582
320.349
322.871
321.657
319.686
320.199
320.98
319.182
318.372
321.06
319.843
317.075
321.606
312.545
314.756
311.656
312.923
311.217
308.706
312.031
313.853
309.641
311.198
313.605
311.93
311.747
314.108
312.199
310.624
312.768
310.498
313.55
312.371
304.479
305.475
305.532
306.45
307.145
305.004
304.22
302.732
303.23
304.059
302.105
304.547
305.343
305.776
303.661
302.534
306.595
304.227
303.952
305.311
362.516
359.932
361.69
362.393
359.42
361.111
361.467
361.292
363.953
364.327
366.238
363.362
364.13
363.492
362.879
361.495
359.615
360.283
361.78
361.979
354.527
353.128
353.87
352.344
350.569
352.998
353.368
356
354.209
356.055
355.337
355.268
355.288
356.646
352.061
352.375
351.497
352.136
352.835
353.826
346.879
344.602
344.115
342.806
344.384
346.006
343.668
347.282
348.661
345.564
348.213
346.881
346.784
345.542
346.834
344.338
344.146
345.112
344.62
344.41
335.719
339.591
335.345
337.946
336.618
337.695
338.472
339.579
336.761
337.929
338.604
338.752
339.871
337.293
338.85
337.539
336.118
336.684
336.22
338.12
330.781
328.952
328.61
328.792
328.515
327.095
328.6
327.836
329.32
330.462
330.872
331.049
330.714
329.193
328.629
329.075
326.031
327.801
326.147
326.686
320.411
321.529
321.396
320.08
319.714
320.355
321.913
323.019
321.072
320.665
320.81
321.735
320.451
319.967
321.458
320.747
320.931
320.019
318.836
319.263
312.902
313.763
312.297
312.358
312.108
312.803
312.355
311.536
312.104
312.601
312.752
313.113
314.808
312.486
312.417
311.265
310.43
313.137
308.681
309.607
303.276
304.999
304.987
303.275
305.349
304.396
302.128
303.593
303.452
305.322
303.788
306.351
303.709
303.963
304.294
305.959
304.914
303.606
303.358
302.653
362.572
363.332
360.335
360.634
362.019
361.332
364.035
361.931
366.366
366.136
366.938
363.49
365.353
364.589
363.547
362.22
362.534
363.666
363.044
364.617
355.029
351.769
354.004
352.175
350.962
354.449
355.644
353.504
354.725
355.225
355.121
355.197
355.003
354.913
353.063
354.044
353.203
356.322
351.559
353.593
344.433
344.066
348.121
344.461
344.864
343.649
345.107
345.479
345.732
349.229
348.729
351.39
346.683
349.463
344.432
345.56
343.946
346.762
343.728
345.776
338.53
336.642
336.089
337.034
338.046
337.791
337.763
337.756
338.965
337.983
340.262
340.074
339.351
337.371
336.565
337.008
337.945
336.674
335.226
339.254
328.538
330.384
328.738
329.346
326.21
327.752
330.937
331.336
329.144
330.902
332.281
330.905
329.876
328.659
330.316
328.11
327.089
328.911
328.697
327.797
321.399
321.641
322.306
322.183
318.851
320.386
321.285
319.543
322.989
320.29
325.003
321.61
322.941
321.199
324.01
321.385
322.348
320.468
322.702
320.78
311.857
310.264
311.302
312.321
312.937
313.75
312.95
311.708
315.026
314.638
312.435
314.489
313.682
313.445
310.281
310.321
312.423
310.138
313.15
313.76
304.95
303.984
302.964
303.256
303.732
302.267
303.714
303.258
305.716
303.733
303.054
305.689
302.854
305.985
304.369
305.082
302.947
306.103
303.922
304.049
365.121
362.779
362.366
363.988
364.344
364.571
364.884
364.223
365.218
366.347
367.195
368.884
365.69
366.353
365.305
362.97
365.336
365.179
366.432
364.038
354.846
356.957
354.198
354.289
355.022
355.072
354.832
355.879
359.823
356.748
358.118
358.42
357.641
356.117
356.06
357.826
355.429
353.179
357.029
356.702
348.738
348.734
347.808
345.074
346.173
345.691
347.947
348.698
349.776
347.308
348.015
351.207
349.456
347.467
347.026
347.246
346.596
348.919
349.418
347.426
337.686
340.61
336.192
337.993
336.642
339.712
339.452
337.529
337.263
341.036
337.679
341.164
341.416
338.02
338.323
340.464
335.344
337.801
339.821
338.319
333.017
331.743
328.407
331.27
330.644
328.6
330.26
329.554
332.066
330.707
330.221
332.338
329.452
331.063
330.908
330.037
332.376
328.68
329.144
329.527
321.833
322.253
322.619
321.524
318.764
321.298
320.675
322.372
321.121
321.438
322.355
321.654
322.788
321.561
319.243
322.311
319.786
319.43
319.522
322.693
313.83
312.402
313.606
312.47
310.578
313.314
311.26
312.402
311.596
312.943
314.28
314.184
313.601
313.813
312.768
311.109
312.654
313.964
312.891
312.624
302.607
304.339
305.875
304.794
305.598
302.849
302.366
302.649
304.457
304.942
304.918
301.682
304.147
302.412
303.668
302.475
305.218
303.888
304.298
303.076
364.998
364.798
363.379
368.171
364.237
367.067
365.865
369.322
369.804
366.751
369.16
368.26
370.076
368.798
366.04
365.345
367.001
365.627
363.923
367.113
358.326
355.178
356.937
356.231
355.752
357.407
356.567
357.453
359.631
358.076
358.075
357.665
357.878
358.024
356.839
358.943
355.956
354.623
354.88
358.879
348.92
348.952
348.122
346.534
349.357
347.738
347.71
348.02
350.649
348.566
350.394
351.388
347.997
350.137
347.732
349.607
349.282
348.606
347.031
349.054
339.831
340.458
337.454
340.389
339.342
339.804
343.082
339.443
342.865
341.746
340.71
341.852
340.996
341.403
338.627
340.978
341.408
339.663
339.546
340.341
333.634
330.958
329.574
329.101
331.805
329.289
331.406
329.085
333.234
333.359
330.812
333.022
333.339
330.551
331.233
331.769
330.646
332.062
329.731
332.406
322.034
322.6
321.384
319.931
320.76
321.452
323.359
319.919
322.602
322.754
319.857
323.706
325.214
323.428
322.232
318.785
322.546
321.758
319.835
321.092
312.208
315.841
313.038
314.296
311.719
311.295
314.152
315.107
313.116
315.44
312.526
313.996
315.11
313.17
313.094
315.557
314.884
310.854
314.069
314.066
305.2
302.098
302.69
306.858
303.078
306.441
305.192
305.222
302.924
303.379
305.431
303.531
304.277
304.388
302.188
303.659
302.677
302.044
305.233
304.094
369.64
366.527
366.818
365.582
365.622
366.668
367.166
367.518
369.253
367.435
369.543
367.718
369.328
367.733
369.229
365.066
367.685
367.423
370.084
369.226
360.296
359.606
357.3
358.885
358.268
359.758
357.421
358.969
358.368
360.032
358.325
360.713
359.52
359.629
358.372
357.175
358.71
356.636
359.99
358.925
349.564
348.262
348.376
348.517
348.313
346.869
351.271
346.293
349.84
347.785
352.312
350.991
349.696
350.423
349.536
347.937
347.315
351.75
350.361
349.678
342.137
336.619
342.148
339.322
340.585
339.877
341.166
339.624
341.347
341.037
344.097
341.868
341.252
340.742
339.26
339.322
340.249
341.233
340.488
341.603
330.966
330.458
330.47
328.834
330.494
333.503
333.332
331.108
331.69
331.232
331.98
331.768
333.023
331.524
330.377
331.495
331.187
331.081
332.002
329.83
323.059
324.687
321.381
322.453
321.187
322.231
319.87
323.178
323.501
324.041
323.325
323.292
321.303
323.468
322.858
324.235
322.692
321.504
321.171
325.287
314.499
313.356
312.012
312.829
313.114
314.389
311.661
311.579
313.218
313.886
311.781
313.591
314.658
313.69
312.57
311.728
310.397
312.654
312.224
313.53
305.038
305.446
304.971
302.764
303.087
306.088
303.717
305.545
302.388
303.456
305.914
302.452
306.815
305.638
302.425
306.082
307.07
303.863
305.646
304.85
368.562
370.531
367.389
368.549
368.023
368.706
369.477
369.664
369.297
371.596
368.513
372.105
366.551
371.473
369.108
369.41
367.323
368.59
367.579
370.545
360.762
359.317
359.475
360.126
358.619
360.684
357.163
361.378
361.828
361.556
361.664
361.24
361.933
361.566
361.716
360.437
359.736
359.47
359.785
358.969
351.291
348.648
349.716
349.234
349.313
349.249
350.207
351.986
351.744
353.263
350.428
351.089
351.754
350.858
348.446
349.35
348.927
350.588
353.616
352.08
340.228
340.115
340.911
340.002
342.516
341.344
340.446
342.185
344.101
344.118
343.453
343.156
342.282
342.387
341.473
339.772
339.508
341.153
340.65
344.17
333.426
331.64
333.093
332.307
332.982
333.425
331.249
334.902
333.84
332.953
330.599
332.442
332.555
332.634
332.828
333.863
331.337
331.923
332.872
330.56
323.738
323.718
322.485
321.545
324.582
322.715
324.415
322.801
322.859
322.493
323.088
324.521
323.652
323.182
323.601
322.731
322.798
325.695
325
323.234
313.013
312.651
312.096
316.417
314.135
314.007
313.488
313.505
313.478
312.706
313.264
312.557
313.775
312.606
314.294
312.737
311.978
312.889
314.534
314.131
304.631
305.668
304.918
306.278
304.963
305.86
305.685
304.942
305.144
304.077
306.149
302.276
303.866
304.766
306.301
303.418
301.482
305.218
305.193
306.255
371.328
371.358
369.585
368.183
369.135
370.569
371.294
370.911
370.085
370.09
369.872
371.206
370.284
370.014
371.784
370.608
368.329
370.427
371.7
373.098
363.024
361.685
362.011
359.824
360.737
361.175
361.043
362.407
360.553
360.189
366.327
361.93
362.434
361.519
362.638
361.64
362.265
362.051
362.844
361.239
352.887
353.067
350.788
351.544
352.053
351.561
350.485
353.037
350.712
349.732
351.278
351.14
351.706
351.468
351.619
349.378
352.285
353.436
351.562
352.777
342.442
342.013
343.061
341.87
339.538
342.43
342.21
344.649
341.87
342.926
339.639
343.022
342.009
342.299
341.263
342.327
341.62
339.059
342.948
342.676
333.283
331.389
335.5
333.796
330.837
331.202
332.285
333.222
332.062
332.199
333.73
333.693
334.31
333.272
333.405
331.891
331.244
334.114
330.3
334.387
322.85
323.507
322.607
322.43
323.425
326.349
322.043
322.166
325.209
324.51
323.631
320.637
324.997
323.099
323.329
321.453
325.688
324.962
325.206
324.687
314.661
316.289
314.79
313.012
313.529
315.788
314.478
316.085
314.436
315.319
314.784
315.611
315.827
314.756
312.157
314.096
312.602
315.67
315.309
314.278
303.3
304.939
304.284
307.205
302.794
304.391
304.246
305.778
303.975
304.725
304.167
304.847
305.316
303.883
305.294
304.384
305.615
305.401
304.058
305.588
371.276
371.539
372.231
370.977
370.822
370.643
371.043
372.611
372.004
373.567
371.807
373.96
372.142
372.182
372.257
374.162
373.464
371.849
372.176
374.272
361.565
363.611
361.678
365.07
361.658
364.722
362.543
364.378
364.014
365.78
365.298
363.697
365.684
364.171
365.092
359.8
364.809
362.144
363.609
362.075
352.576
352.442
353.222
351.505
350.617
353.01
349.992
352.37
351.954
352.416
354.366
353.021
353.879
353.406
351.596
354.473
351.904
351.02
352.131
352.708
342.425
341.74
342.637
342.834
343.075
343.509
342.217
341.104
343.311
343.428
343.899
342.448
344.282
343.858
345.601
341.318
340.854
343.728
343.178
344.531
331.621
331.077
333.926
331.271
332.555
335.001
331.582
332.795
336.114
335.505
335.136
332.743
332.908
333.704
331.448
334.852
333.037
333.887
333.708
333.015
323.981
324.635
323.454
322.488
321.862
321.859
322.961
324.83
325.697
323.095
323.814
323.738
323.54
323.246
323.095
322.867
324.148
324.404
323.741
323.779
314.637
313.666
314.487
314.192
313.912
313.309
315.771
314.405
314.782
312.743
313.828
314.903
315.708
314.303
314.816
315.398
314.007
313.373
313.106
316.769
305.15
304.176
305.986
304.694
302.53
301.732
302.847
306.803
304.417
302.557
302.686
304.834
305.493
304.965
303.137
306.081
305.858
304.926
305.609
305.237
374.909
372.421
372.991
371.236
373.734
370.79
371.808
372.178
372.031
372.985
371.976
374.027
373.153
369.549
371.858
373.586
371.593
371.884
372.482
373.333
364.016
362.427
361.511
361.529
361.683
363.384
363.994
362.895
361.305
362.742
363.484
364.627
363.884
360.883
364.02
361.48
362.444
364.121
362.18
364.647
352.77
353.585
352.93
352.957
351.485
350.866
352.517
355.346
352.874
352.931
353.492
355.179
352.798
353.943
351.747
353.725
355.792
356.882
354.675
355.106
343.834
343.401
342.74
342.73
342.251
341.1
343.961
342.119
341.278
344.166
344.645
344.867
343.274
343.541
344.301
343.981
344.08
342.659
344.46
346.962
333.85
335.062
334.836
333.862
331.189
335.922
334.423
336.239
336.534
334.083
334.062
334.633
332.945
333.797
334.108
332.653
332.863
332.802
335.69
335.139
324.338
323.974
322.209
324.169
323.233
322.237
325.319
324.797
323.425
322.374
323.993
324.399
322.938
326.072
324.306
322.645
324.59
325.293
324.722
324.984
316.044
316
314.555
315.161
315.056
313.735
313.451
313.383
315.39
317.922
316.828
314.637
316.797
313.781
314.184
312.498
315.206
315.291
314.382
313.932
306.881
305.252
303.834
306.511
302.744
303.834
305.853
305.088
304.592
306.024
304.92
306.291
305.937
307.545
306.686
304.912
306.211
304.376
305.213
306.418
)
;

boundaryField
{
    hotSide
    {
        type            fixedGradient;
        gradient        nonuniform List<scalar> 
400
(
321.511
322.87
325.591
329.677
335.133
341.965
350.181
359.788
370.794
383.208
397.037
412.289
428.971
447.088
466.647
487.651
510.105
534.011
559.372
586.191
323.738
325.08
327.767
331.802
337.194
343.949
352.078
361.591
372.498
384.81
398.537
413.687
430.268
448.289
467.755
488.672
511.043
534.872
560.161
586.913
326.149
327.47
330.116
334.091
339.406
346.071
354.099
363.503
374.296
386.491
400.101
415.136
431.606
449.52
468.885
489.706
511.988
535.735
560.948
587.63
328.704
330
332.597
336.503
341.73
348.292
356.205
365.485
376.15
388.215
401.695
416.604
432.954
450.753
470.009
490.73
512.919
536.579
561.714
588.325
331.33
332.599
335.142
338.97
344.099
350.546
358.332
367.477
378.003
389.928
403.271
418.047
434.27
451.949
471.095
491.712
513.807
537.382
562.439
588.978
333.918
335.158
337.643
341.389
346.414
352.74
360.392
369.397
379.779
391.562
404.765
419.407
435.503
453.065
472.101
492.618
514.622
538.114
563.096
589.569
336.321
337.531
339.959
343.622
348.544
354.751
362.274
371.142
381.385
393.031
406.101
420.618
436.595
454.047
472.983
493.409
515.33
538.747
563.663
590.076
338.36
339.543
341.92
345.509
350.339
356.44
363.847
372.595
382.718
394.244
407.2
421.608
437.485
454.844
473.695
494.045
515.897
539.253
564.114
590.478
339.852
341.015
343.352
346.885
351.645
357.665
364.985
373.643
383.675
395.113
407.984
422.312
438.116
455.407
474.197
494.491
516.294
539.606
564.428
590.758
340.643
341.795
344.11
347.613
352.334
358.311
365.584
374.193
384.176
395.567
408.393
422.679
438.443
455.699
474.456
494.722
516.498
539.788
564.589
590.901
340.643
341.795
344.11
347.613
352.334
358.311
365.584
374.193
384.176
395.567
408.393
422.679
438.443
455.699
474.456
494.722
516.498
539.788
564.589
590.901
339.852
341.015
343.352
346.885
351.645
357.665
364.985
373.643
383.675
395.113
407.984
422.312
438.116
455.407
474.197
494.491
516.294
539.606
564.428
590.758
338.36
339.543
341.92
345.509
350.339
356.44
363.847
372.595
382.718
394.244
407.2
421.608
437.485
454.844
473.695
494.045
515.897
539.253
564.114
590.478
336.321
337.531
339.959
343.622
348.544
354.751
362.274
371.142
381.385
393.031
406.101
420.618
436.595
454.047
472.983
493.409
515.33
538.747
563.663
590.076
333.918
335.158
337.643
341.389
346.414
352.74
360.392
369.397
379.779
391.562
404.765
419.407
435.503
453.065
472.101
492.618
514.622
538.114
563.096
589.569
331.33
332.599
335.142
338.97
344.099
350.546
358.332
367.477
378.003
389.928
403.271
418.047
434.27
451.949
471.095
491.712
513.807
537.382
562.439
588.978
328.704
330
332.597
336.503
341.73
348.292
356.205
365.485
376.15
388.215
401.695
416.604
432.954
450.753
470.009
490.73
512.919
536.579
561.714
588.325
326.149
327.47
330.116
334.091
339.406
346.071
354.099
363.503
374.296
386.491
400.101
415.136
431.606
449.52
468.885
489.706
511.988
535.735
560.948
587.63
323.738
325.08
327.767
331.802
337.194
343.949
352.078
361.591
372.498
384.81
398.537
413.687
430.268
448.289
467.755
488.672
511.043
534.872
560.161
586.913
321.511
322.87
325.591
329.677
335.133
341.965
350.181
359.788
370.794
383.208
397.037
412.289
428.971
447.088
466.647
487.651
510.105
534.011
559.372
586.191
)
;
    }
    coldSide
    {
        type            mixed;
        refValue        uniform 300;
        refGradient     uniform 0;
        valueFraction   uniform 0.991591;
        source          uniform 0;
        value           nonuniform List<scalar> 
400
(
300.018
300.028
300.011
300.032
300.025
300.028
300.003
300.018
300.033
300.03
300.038
300.028
300.042
300.022
300.044
300.042
300.039
300.028
300.043
300.058
300.026
300.028
300.039
300.016
300.019
300.014
300.03
300.02
300.024
300.026
300.046
300.042
300.034
300.036
300.018
300.046
300.048
300.042
300.035
300.044
300.007