/*--------------------------------*- C++ -*----------------------------------*\
| =========                 |                                                 |
| \\      /  F ield         | OpenFOAM: The Open Source CFD Toolbox           |
|  \\    /   O peration     | Version:  2212                                  |
|   \\  /    A nd           | Website:  www.openfoam.com                      |
|    \\/     M anipulation  |                                                 |
\*---------------------------------------------------------------------------*/
FoamFile
{
    version     2.0;
    format      ascii;
    arch        "LSB;label=32;scalar=64";
    class       volScalarField;
    location    "./ITHACAoutput/true/13";
    object      error;
}
// * * * * * * * * * * * * * * * * * * * * * * * * * * * * * * * * * * * * * //

dimensions      [0 0 0 1 0 0 0];

internalField   nonuniform List<scalar> 
3200
(
-2.31782
-0.763174
0.486239
0.831803
0.667937
0.776235
0.331793
2.14439
1.21072
2.13348
1.41761
1.0873
1.43198
0.167116
2.05715
1.24313
0.931782
0.304692
-0.558455
-1.59308
-1.71461
-0.940628
-0.666953
1.45327
0.981693
1.28195
1.23086
1.22255
1.87089
1.29919
2.05898
1.59789
0.880127
1.35772
0.752069
1.27028
1.10388
1.27271
-0.600849
-0.902055
-1.24892
0.0115845
0.0941799
0.557859
-0.315426
1.51247
1.01317
1.55265
0.508438
0.765553
0.93676
1.0422
1.01418
0.14467
1.82924
1.10762
-0.291984
-0.713624
0.0831329
-1.36009
-2.49335
-0.83475
0.318476
0.410317
1.16288
1.37557
-0.143054
1.41593
0.040538
0.531864
0.407395
1.12829
1.68104
0.970492
1.16599
0.779927
0.330416
0.00100489
-0.111951
-0.177928
-0.956299
-0.610296
0.23153
1.07046
-0.184838
-0.166123
-0.176507
-0.39009
0.486498
0.53285
0.486333
0.329261
-0.112074
0.189938
1.75525
-0.257194
1.36161
-0.563612
0.512484
-0.859944
0.00931782
-0.0765966
0.124371
-1.13665
0.744023
0.482977
1.1187
1.04455
1.0215
1.06456
-0.0420432
0.276916
0.561499
0.410884
1.13944
0.143994
1.06219
-0.448999
0.054185
-0.35038
-0.262708
-0.136185
0.171904
0.0463094
1.08044
1.03909
0.441886
0.620764
-0.237715
0.749433
0.384639
-0.424034
0.956463
-0.0321153
0.57601
-0.0810855
0.0566433
0.852027
0.604941
-0.176187
0.0113666
-0.411146
-0.534444
0.00971844
0.401398
-0.0388127
-0.115035
-0.154663
0.28576
0.0156232
-0.133812
-0.144574
0.548982
0.935616
-0.569112
-0.295828
0.468305
-0.349675
-0.50505
0.841537
-1.42205
-0.891525
-0.0745247
0.920584
2.30644
0.881391
0.912171
1.41806
1.31184
1.19934
1.78261
0.985691
0.550267
1.6598
0.376494
1.5354
0.865031
0.196769
-0.598239
-0.668555
-0.78588
-0.546364
-0.847139
0.0377013
1.01988
0.19879
1.46766
0.739742
1.30686
0.426683
-0.187639
0.21413
-0.0736139
1.03044
0.104078
0.538491
0.0157385
-0.213001
0.166119
-1.30558
-0.889309
-0.921336
0.335646
0.263393
0.171768
0.0982944
1.09706
0.514284
-0.0144858
0.822326
0.160347
1.52978
0.0591823
0.86804
0.805569
0.702213
0.819203
0.40077
0.42914
-0.393237
-0.988603
0.0949273
1.1348
0.523787
1.08738
1.20197
0.204466
0.498503
0.860654
1.15683
1.2271
0.896064
0.95167
0.103781
-0.0926346
0.436981
0.0734631
-0.18491
-0.0972098
-1.28581
-0.946759
-0.78293
0.117139
-0.148905
0.976269
-0.26307
0.354597
0.624013
0.0116168
0.150966
0.746527
1.78519
1.57153
0.724799
-0.261981
0.442599
0.39589
0.52606
-0.844236
-0.788909
-0.991299
-0.776372
-0.287223
-0.152098
0.543249
-0.235805
-0.02118
0.663489
0.762358
1.10207
0.312517
0.98066
0.504816
-0.133477
1.04252
0.453378
0.468997
0.723152
-0.120125
0.173755
0.237881
-0.240929
0.273771
-0.0978402
-0.724226
0.676152
0.831931
0.530221
0.246002
-0.257908
-0.81243
-0.223124
0.230487
0.834313
0.267954
0.336815
-0.0560966
0.734741
-0.140004
-0.190566
0.0616754
0.834421
0.291864
0.119802
0.190625
0.0275518
0.92157
-0.949142
0.352891
0.615385
-0.0576375
0.263281
-0.753011
-0.272282
-1.25677
0.310145
0.270813
0.651166
0.139028
-0.18361
-1.38616
-1.48424
-0.00774047
0.591967
1.9539
0.881182
1.61079
0.905419
0.967873
0.728357
1.46521
1.30976
0.872968
0.744458
1.33584
1.07194
0.629528
-0.407008
0.0878265
-1.5239
-1.67933
-1.26021
0.0142385
0.328331
-0.145671
0.956796
0.879864
1.33662
1.16359
0.936094
0.350926
0.45313
0.563943
0.942085
1.2891
1.09791
0.089953
-0.136675
0.0830909
-0.722514
-0.547864
-0.430727
-0.0638595
1.23108
1.916
0.511758
0.343284
1.03414
-0.259559
0.757259
0.579858
1.16649
1.78224
0.668114
0.571151
0.583827
0.434149
0.0513424
0.229012
0.324056
-0.629632
-0.948654
-0.0718237
0.0806936
0.791843
0.231733
0.73307
0.375886
1.01986
0.852715
0.894227
1.15277
0.69992
0.89317
1.14378
0.811742
-0.124366
0.698404
-1.07613
-1.30947
-0.570757
-0.438136
-0.303637
-0.699956
0.238004
0.0147453
1.07953
-0.0945714
0.787196
0.646095
-0.419019
0.778793
1.09852
0.518515
0.621704
0.581676
0.609373
0.930003
0.186316
0.170156
-0.679544
-0.223895
0.044076
0.291634
-0.168648
-0.783402
1.01111
0.340436
0.517613
-0.168034
0.823305
1.17846
0.909738
-0.426359
1.65948
-0.158992
0.322025
0.0519048
0.35607
-0.269033
-0.473922
-0.0776668
0.141535
-0.115798
-1.1563
0.188848
1.06061
-0.712606
0.0462887
0.695925
0.359514
-0.633998
-0.49669
0.484541
1.3372
0.336699
-0.544243
0.676251
0.0668607
-0.81063
0.408991
0.292519
0.846202
0.448615
0.0451254
0.446941
-0.590237
-0.0778829
0.42808
0.0229874
1.57175
-0.0737049
-0.423614
-0.0889996
-0.025905
0.304713
-0.211903
-0.441929
-0.0472587
0.339632
-0.851035
-0.972737
-0.458659
1.20439
0.305505
0.663993
0.70669
0.247582
0.83558
0.645768
1.09284
0.679314
1.15314
0.349734
-0.0963257
0.157996
0.679263
0.681688
-0.41805
-0.809403
-1.61469
-0.00725586
-0.250398
0.286889
0.629446
0.040934
0.809763
0.304304
0.111698
-0.00864565
-0.0742775
-0.344325
0.415247
1.00646
-0.0216154
0.208646
0.104118
-0.42063
-0.414496
-1.00685
-0.828999
-0.858949
-0.165191
-0.703144
1.88295
0.504156
0.00499252
0.858858
-0.222746
-0.590154
0.293611
0.471532
0.39617
0.720242
0.452407
-0.337942
1.107
0.236025
0.116618
-1.21239
-1.10331
-1.74355
0.112714
0.319022
0.292368
0.487247
-0.116835
1.01563
0.511408
0.070827
-0.0861702
-0.160299
-0.161528
-0.60093
0.623284
0.648301
-0.224744
0.350537
-0.945554
-0.471929
-1.09015
-1.1074
-0.193864
0.966788
0.379014
0.575933
0.315091
-0.455259
0.28127
-0.541111
-0.0950741
0.0608798
0.579072
1.05306
-0.016015
0.669512
-0.573273
-0.370953
-0.0263571
0.129159
-0.973026
-0.663354
0.716137
0.16237
1.07261
0.591752
-0.0500616
0.874932
0.395779
-0.17523
1.57677
0.0862391
-0.403378
0.687056
0.880291
-0.516163
0.514211
-0.0742109
-0.0584708
-0.930488
-0.629861
-0.965194
-0.594044
0.202549
1.96155
0.239725
0.000896539
0.0943144
0.696567
-0.256258
-0.160153
0.626458
0.10676
-0.115166
0.38984
0.217211
0.764561
0.678797
0.36562
0.576776
0.790449
0.808918
0.250355
-0.726128
-0.730137
-0.361086
-0.448459
-0.0894288
-1.07865
-0.116186
-0.216032
0.771792
0.314678
0.568052
-0.354597
0.550569
0.27095
-1.06732
0.323864
0.558709
-2.07091
-1.21953
-0.511559
-0.357386
1.75466
0.712494
0.196472
0.254874
0.452497
0.441855
-0.293091
0.541185
-0.185324
-0.251657
0.53173
0.680186
-0.186606
-0.252046
-0.80601
-1.19149
-1.55102
-0.627836
0.489703
0.394958
-0.602766
-0.255777
0.15543
0.103394
0.309224
0.592732
0.809378
-0.0873129
0.548291
0.153306
-0.0883815
0.228768
-0.364648
-0.250664
0.361215
-1.84083
-1.13964
-0.706409
-0.0878402
0.814256
0.229103
0.369962
0.996012
-0.162717
0.0521645
1.02607
0.407723
0.444734
0.416708
0.260506
0.749768
-0.631954
0.271084
0.185761
-0.118234
-1.39503
-1.03021
-0.274318
-1.3386
0.117854
0.761754
0.611772
-0.0482848
0.977259
-0.333961
0.234876
0.481237
1.09189
0.495205
0.298299
0.519457
0.319733
-0.309943
0.0120312
-0.63573
-1.45105
-1.26547
-0.556066
-0.59282
-0.476196
0.339343
-0.465158
0.232215
0.723884
1.3984
0.710107
-0.396113
0.244565
-0.597792
-0.790544
0.239887
0.659275
0.526062
-0.249238
0.0213438
-0.230703
-0.252288
-0.563456
-0.609978
-0.0246571
0.517465
-0.627648
-0.771739
0.0188868
0.058104
0.341227
0.0689951
-0.154167
-0.434604
0.0423256
-0.0482256
-0.0268797
-0.0600779
-0.585002
0.589953
-0.69453
-0.320931
0.511288
-1.1485
-0.823481
-1.0975
0.544258
-0.121742
0.400834
0.154769
0.123701
-0.534949
0.0948738
1.07332
0.400609
0.0986119
-0.612605
-0.514741
-0.529677
0.13515
-0.675544
-0.0600604
0.0791419
0.577537
-0.450731
0.550976
-0.378009
0.359309
-0.265281
-0.423262
-0.381402
0.992367
-0.439384
-0.466681
-0.289769
1.12195
0.157853
-0.612987
-0.235542
0.0349382
-0.383015
-1.9837
-0.847079
-0.291975
-0.0382316
1.19499
-0.51981
0.0755207
0.991692
-0.608533
-0.468321
-0.453986
-0.908236
0.0258623
-0.27437
-0.176086
0.27039
0.0870354
0.131711
-0.0609249
-1.26229
-2.19154
-0.232508
0.023141
0.100678
-0.160717
0.231221
-0.257001
-0.126837
0.191445
-0.00595124
0.3272
-0.81808
-0.218838
-0.156026
-0.179019
0.11007
-0.0226474
-0.175539
0.000243522
-0.462216
-1.58084
-1.66266
-0.334083
-0.587808
-0.156921
0.834904
-0.205275
-0.0178608
-0.357818
-0.290441
0.22783
0.690327
-0.214042
-0.315214
-0.407996
-0.197875
-0.432791
-0.156156
-0.870323
-1.13289
-1.56377
-0.551219
-0.615985
0.0510277
-0.778503
0.32163
1.23605
-0.478436
-0.0565254
0.747707
-0.958889
-1.10405
-0.41721
0.276064
0.667394
0.249415
-0.458489
-1.28927
-0.272237
-0.719438
-0.896386
0.196333
-0.118379
0.45213
0.431786
1.04647
0.252148
-0.279703
0.564727
0.235569
-1.19145
0.398119
0.735693
0.121703
-0.520108
-0.00794128
-0.295366
-0.159961
-0.54632
-1.50963
0.0262555
-0.679064
-0.656582
-0.18843
-0.506031
0.0225795
-0.167713
-1.27417
-0.0120413
0.260924
-0.192165
-0.963744
0.756064
-0.519505
-0.05905
0.706321
-0.260402
-0.987431
-0.0791856
-0.875316
-0.143894
-0.896739
0.233301
0.223701
-0.163536
-0.501686
0.765595
0.154202
-0.483516
0.0737222
-0.409991
-0.893234
0.754812
-0.506083
-0.512151
-0.0461673
-0.0117191
0.978878
-0.0528181
0.338873
0.14924
0.105438
0.408374
-0.500383
0.0234052
0.267195
0.854294
-0.462997
-0.411226
0.27332
1.05457
-0.289461
-0.272014
0.36878
-0.503433
0.872229
-0.392118
0.741444
0.88008
-1.347
-1.2936
-1.6325
-0.686931
0.464739
0.378015
0.42812
0.621695
0.193869
-0.843207
-0.963313
0.287059
-0.470589
0.0925537
-0.107032
0.325711
0.478254
-0.661192
-0.418451
-1.12416
-0.626147
-0.844347
0.188278
-0.936984
0.0590326
0.426043
0.296145
0.965387
0.222155
0.15898
-0.0767915
-1.47104
-1.20532
-1.07982
-0.614242
-0.104906
0.19553
-0.381189
0.155902
-0.910433
-1.30418
-1.10486
-1.01477
-0.516798
0.519981
-0.265237
-0.0833146
-1.12929
0.127886
-0.103781
-0.0445049
0.350008
-0.496774
-0.543125
0.522967
0.564897
0.502866
0.128655
1.19364
-0.218241
-0.365541
-1.54151
-1.18414
-0.490839
-0.329436
1.19349
-0.147155
0.568214
-1.15826
0.515325
-0.0030539
-0.27323
-0.226539
-0.20121
0.580374
-0.833586
0.0634061
0.0902218
-0.662632
-0.530878
-1.07415
-0.372452
-1.17291
-0.200967
0.646185
0.614905
-0.725553
-0.471048
-0.0313048
-0.114888
-0.0196784
-0.0595067
-0.0138915
-0.311634
-0.692057
-0.18534
0.391768
0.366238
0.169784
-1.19389
-0.298881
-0.606025
0.384277
-0.660771
-0.0973222
-0.232711
0.345604
-0.557563
0.0607219
0.554659
0.0651022
-0.356411
-0.351467
-0.00249778
0.434019
1.10985
0.202077
-0.377101
-1.01272
0.193623
-0.368887
-0.524509
-0.401222
0.114187
-0.744833
-0.221715
-0.281012
-0.265783
0.24749
-0.148944
0.182791
0.145573
0.215207
1.13107
0.186813
-0.159808
-0.0380705
-1.20772
-0.0803312
-0.331966
-0.179206
-0.788385
0.612889
-0.469672
-0.505793
0.125864
0.157144
-0.105947
0.588746
0.336482
-0.373911
-0.0043096
0.418646
0.452812
-0.711746
-0.289209
-0.962403
-0.37634
-0.126049
-1.27248
0.233375
-2.78056
-0.741858
-0.532791
-0.217469
-0.566909
0.752316
0.144414
0.245966
-0.0488552
-0.794052
-0.697242
-0.91261
-1.66932
0.126123
-0.669066
0.162864
-0.512092
-0.974552
-1.19541
-2.0572
-1.46362
0.160244
-0.46788
-0.0341976
0.771469
-0.232493
-0.735766
0.1587
-0.910164
-0.0368452
-0.128268
-0.721549
-0.112824
-1.18347
-0.225614
-0.103059
0.10106
-1.04236
-0.267399
-2.00888
-1.68304
-0.731706
-1.08225
-0.256488
0.00358296
0.11962
-0.495968
0.945943
-0.30853
0.408741
0.0313983
-0.977992
-0.0984368
-0.192224
-0.50502
0.380288
-0.0640215
-0.512287
-0.228249
-0.905785
-0.158245
-0.895594
-0.443027
-1.41922
-0.0791781
0.170587
0.0528284
-0.6923
-0.296978
0.225905
-0.0732445
-1.75675
-0.310067
-0.27441
-0.914482
-0.526999
-0.882122
-0.0696879
-1.25904
-1.02664
-1.04336
-1.09002
0.0377876
-0.441886
-1.53891
-1.41455
0.3467
-0.48162
-0.877764
-0.247667
-1.70367
-0.40211
-0.464825
0.288251
-0.218977
-0.596526
-0.187229
-1.57259
-0.747779
-0.9367
-1.47274
-0.400781
-0.55334
-0.679347
0.356484
0.236441
0.0306512
-0.482066
-0.619963
-0.102628
0.4975
0.198194
-0.0422321
-0.308433
1.06339
-0.936841
-0.0185723
0.280964
-0.824547
-0.444516
-0.591064
-0.535133
0.165825
0.915986
-0.725494
0.406478
-1.11649
0.625139
0.478205
-0.195251
-0.30149
-0.0426265
-0.319506
0.43224
-0.136806
0.20385
-0.0479546
0.913177
0.173919
-0.116454
-0.0450686
-0.174445
-0.660175
0.217342
-0.655506
0.15574
-0.141483
-0.762674
0.20212
0.257473
-0.379446
0.0911662
0.680141
0.965916
-1.02675
-0.372947
-0.745045
-1.12221
0.0653615
-0.0778305
-1.90773
-0.950232
-0.962205
-0.369698
0.149117
-0.107572
-1.43206
-1.08189
-0.808091
-1.24946
-1.39521
-1.11785
-0.383726
-0.350653
-0.226174
-0.7556
0.647543
0.611551
-1.10982
-0.892445
-1.62542
-1.51297
0.164801
0.10637
0.596652
-0.658098
-0.272079
-0.926143
-0.149983
-0.391787
-0.204058
-1.46529
-0.970244
-0.708501
-0.225614
0.490284
-0.140612
-1.26027
-1.1047
-2.67225
-1.40633
-0.202767
-0.37949
-0.286641
-0.105355
-0.245268
-0.051374
-0.38586
-0.919372
-0.302823
-0.471278
-1.27417
-0.845862
-0.971905
-0.867079
-0.260897
0.268425
-0.0827217
-1.62852
-1.00029
-1.43172
-0.240819
-0.456741
-1.20729
-0.700828
0.1192
-0.997775
-0.612698
-0.782988
-0.600942
-1.08202
-0.599613
-0.590455
-0.607742
0.260248
0.533019
-0.563332
-0.104222
-0.14911
-0.997476
-0.461028
-0.152262
-0.820508
0.0704601
-0.388048
0.428722
0.379968
-1.17776
0.016226
-0.398355
-0.775456
-0.781259
-0.381581
-0.45356
-0.11368
-1.85145
0.259463
-1.11909
-0.994094
-1.03793
-0.936533
-0.706531
-0.951212
-0.293237
0.348953
0.95495
0.449599
0.311103
0.184285
0.536377
-0.507231
-1.07143
-0.0932256
-0.571887
-0.781494
-0.326045
-0.511437
0.416676
-0.409085
-0.82161
1.26697
0.0687777
-0.551571
-0.150725
-0.688998
0.107784
0.503705
-0.286628
-0.0669316
-0.431494
0.0955399
0.288112
-0.0646859
-0.601305
-0.47776
0.365072
0.125616
-0.00201565
-0.41048
-0.201269
0.128153
-1.52364
0.495581
0.203764
-0.237056
0.504364
1.18444
0.00964705
-0.0962086
0.835019
-0.722465
-0.207893
-0.483575
0.975389
-0.0656397
-0.638383
0.248389
-0.183047
-0.39613
-0.669249
-2.38909
-1.27633
-0.67756
-0.54219
-0.726569
0.280508
-0.246667
-1.17543
-1.11132
-1.06668
-1.35752
-1.36662
-0.688128
-0.513488
-0.401508
-1.30943
-0.399168
-0.30644
-1.35412
-1.25072
-1.56622
0.337701
-0.895427
-0.366038
-0.975486
-0.0945388
-0.255541
0.00640968
-0.0910538
-0.0440105
-0.319318
-1.41501
0.000343804
-0.51982
0.260061
-0.677037
0.122681
-0.402996
-0.15013
-1.96474
-2.03284
-1.26221
-0.326891
-0.330295
-0.209045
0.0225306
-0.390908
0.0835455
-0.134653
-1.34037
0.0188644
-1.0163
-0.23603
-0.8826
-1.13328
-0.729609
-0.680648
-0.390561
-1.60197
-0.593667
-1.91187
-0.869192
-1.1875
0.877876
0.104236
-0.815826
-0.914898
-0.137793
-0.0503827
-0.843908
-0.160378
0.447141
-1.88251
-0.702502
-0.0689503
-0.460787
-0.185376
0.58448
-0.857165
-1.22653
-0.79557
-0.705986
0.0841732
-0.53507
0.322386
-0.198197
0.0859843
0.137077
-0.176785
-0.234577
-0.12034
0.464557
-0.824874
-0.62196
0.292878
-0.0360561
-0.0173893
-0.38058
-0.205967
-0.890304
-0.105196
-0.444985
-1.05856
-0.1095
-0.00919561
0.8453
0.288089
-0.411352
-0.13345
0.39196
0.244415
-0.277861
-0.564642
-1.0357
-0.49564
0.799239
-0.208092
-1.13692
0.181382
-0.821462
-0.705262
-0.876193
-0.339228
-0.725138
-0.291642
-0.052477
-0.353603
-0.173224
-0.0624739
0.178743
-0.401799
-0.0261905
0.0956462
-0.56451
-0.858355
0.810787
0.0453275
-0.565123
-0.578949
-0.908879
-0.690678
-0.601121
-0.0419544
-0.0733382
0.125416
0.035207
-0.569368
0.0416576
-0.225653
-1.0509
0.287727
-0.512883
0.246595
0.366507
-0.0521293
0.426752
0.011409
0.217744
0.211241
0.497184
-2.36716
-0.476835
-1.08499
-0.356354
-1.04346
0.948925
0.263543
-1.05172
-2.07068
-2.11144
-0.903535
-0.798636
-1.10996
-0.790272
0.000347861
-1.0028
-0.784653
-0.263295
-1.57949
-2.1453
-2.00286
-0.0980646
-1.46404
0.106252
-0.0663235
0.00903696
-0.417335
0.0407524
-0.379291
-0.0974039
-0.0426023
-1.84243
-0.285156
-0.717528
0.209768
-0.885216
-0.188626
-0.544566
-0.156359
-1.53377
-1.17777
-0.9171
-0.509703
-0.316204
0.0132981
-0.0198593
-0.935089
-0.523468
-0.394809
-0.160995
-0.518689
-1.68165
-0.0650324
-0.158246
-0.930162
-1.13455
-0.990377
0.302123
-0.685582
-0.994033
-0.898456
-1.21114
-0.850375
-0.904442
0.218028
-0.651556
-0.46913
0.164334
-0.703965
-0.62423
-0.68837
-0.275783
-0.621439
-0.834795
-0.023985
-0.538729
-0.545839
-1.89052
-0.560515
-0.943305
-1.68394
-0.753526
-1.03912
-0.447501
-0.68342
-0.36995
-0.0923649
-0.908461
-1.06487
-0.0568266
0.346115
-1.45517
-0.757397
0.208931
-0.343489
-1.19946
-0.038765
9.53343e-05
-1.06595
-0.868785
-0.901645
-0.0775218
0.114411
-0.747206
0.689202
0.44553
-0.426178
-0.120122
0.048507
-0.293396
-0.644129
-0.877958
-0.0271851
0.0608374
-0.615608
-0.799799
-0.521423
-0.496494
-1.01952
-1.53975
-0.280868
-0.16342
-0.381223
-0.799229
-0.267988
0.105728
-0.529495
-0.576847
-0.00512068
-0.0665816
0.378586
-0.401308
-0.572112
0.45117
-0.00154605
0.289259
-0.1407
-0.326326
-0.549131
0.127927
-0.0719192
-0.432172
-0.038622
-0.0343679
0.38668
-0.183287
0.0260527
0.535588
-0.397639
-0.388185
-0.173932
-0.277316
0.192819
-1.04779
0.148258
0.200808
-0.315947
-0.374632
1.32957
-0.243618
-1.71714
-2.18783
-0.15137
-0.993873
0.666862
-0.561136
-0.536838
-0.06748
-0.929961
-0.955396
-1.18039
-0.616654
-1.05805
0.0993131
-0.596615
0.984471
0.278697
-0.430071
-1.47736
-1.76015
-2.00608
-2.18932
0.391326
-0.985472
1.10819
-0.164322
0.307956
-0.683906
-1.21592
-1.62953
-0.691383
-1.73994
-1.54058
-0.423451
-0.706378
-0.64946
-0.0802581
-1.67543
-1.59059
-1.31206
-1.66334
-0.873048
-0.381365
-0.0394328
-0.799536
-0.191951
-0.250911
0.182829
-0.238288
-0.186331
-0.599396
-1.40561
-0.417135
-0.832802
-0.165519
-0.514929
-0.995561
-1.2307
-0.905155
-0.796802
-0.774405
-0.0950842
-0.912378
-1.12832
0.249985
0.460659
-0.140569
0.0735322
-0.507338
-0.257
-0.92576
-0.269532
-0.767152
-0.118253
0.655505
-0.193772
0.891024
-0.308771
-0.379467
-1.40171
-1.46763
-0.187768
-0.724959
-0.932687
-0.35973
-0.207983
-1.16969
-1.48896
0.340751
-0.341935
0.123763
-0.70556
-0.725311
-0.967982
-0.309758
-0.920516
-0.318469
-0.922141
-0.401033
-0.817299
0.337143
0.30212
-0.462523
0.0472384
-0.458605
-0.124739
-0.202412
0.515331
-0.00510597
-0.505597
0.291755
0.0333546
-0.309051
-0.0860635
0.43905
0.170647
-0.553872
-0.0324242
-0.393448
-0.0512691
-0.314302
-0.331407
0.0114137
-0.268966
0.938361
0.639504
1.17111
-0.0942152
0.43665
0.352975
-0.658964
-0.177362
-0.0304319
-0.939572
0.0922778
-0.794606
-0.202315
0.510852
0.397929
0.0947478
0.0614777
-1.33543
-0.1322
-0.137556
0.320072
-0.011172
0.333555
-0.123263
-0.291023
-0.193663
-0.118286
-0.449462
0.116834
-0.301048
-0.902908
0.316872
-0.386073
-0.103335
0.532284
0.0445012
-1.38813
-0.940709
0.222237
0.334343
0.888148
-0.660754
-0.734379
-0.316557
-0.643371
-0.964952
-0.695749
0.111713
-1.08868
-0.928792
-0.18381
0.202477
0.4062
-1.06858
-0.353888
-0.0821222
-1.07378
-0.0542693
-1.32596
0.0851611
-0.0762941
-0.341259
-0.498925
-0.0915638
-0.74094
-0.00758426
0.138684
-1.8412
-0.239676
-1.0951
0.103724
0.47401
-0.0794488
0.181172
-0.180542
-1.38383
-2.142
-2.10091
-1.12321
-0.967626
-0.647634
-0.858813
0.416293
0.743328
-0.683348
-0.29759
-1.11066
-1.28317
-1.43287
-0.14632
-0.243591
-0.37207
-0.950953
-0.705503
-1.59998
-1.75512
-1.49951
-1.13661
-0.681482
-0.931418
0.0912089
0.1913
-0.800055
0.243634
0.303154
-0.370556
-0.772763
-1.09695
-1.38906
0.526003
0.0702788
0.323469
0.0991711
-0.89617
0.149917
0.0119483
-1.50209
-0.462356
-0.873433
-0.265569
0.484497
0.449874
0.175655
-0.0939921
-0.892492
-0.31796
-0.0829728
-0.231074
-0.141006
-0.90362
-0.997604
0.170124
-0.643425
-0.653873
-0.43449
-1.23355
-1.21526
-0.4256
-0.485369
0.0861937
0.596741
-0.0702509
-0.110099
-0.0942684
-0.308185
-0.960942
-0.0310316
-0.227194
1.21143
-0.28799
0.545458
-0.541425
-0.717828
-0.193552
0.478931
-0.394165
0.194223
0.215321
0.218948
1.20404
-0.252455
1.18569
-0.0763339
-0.372781
0.486744
0.243633
-0.13625
0.298014
-0.144081
0.0223426
-0.17481
-0.731136
-1.17071
-0.0588573
-0.199358
-1.31921
-0.77699
0.425932
1.00219
0.0334886
-0.0593588
-0.455216
-0.245382
-0.528836
0.255059
-0.0355994
-0.366979
0.372901
-0.135849
-0.168292
0.0939971
-0.024473
0.517013
-0.680371
0.77317
0.312094
-1.84408
-1.02184
-0.696135
-0.0343981
-0.0593349
-0.352419
-0.274496
0.418295
0.510907
-0.169596
0.459984
-0.603325
-0.300181
0.192584
0.236528
0.0274289
-0.422974
-0.15953
-0.78164
-1.14685
-0.734129
-0.834832
-0.473895
0.613222
-0.404844
-0.355728
0.594049
-0.712551
-1.82624
-0.869186
-0.940696
-0.619568
-1.00151
0.115086
1.33498
0.46543
-0.145328
0.457655
0.192016
-1.82819
-0.656783
-0.948174
-1.41973
1.01418
0.991483
0.878682
0.201235
-0.266078
-0.240904
-0.304271
-0.236393
0.369391
-0.38246
0.0480723
0.10734
0.158149
-0.748585
-0.0997825
0.0455442
-0.0147583
-1.23647
-1.43966
0.446441
-0.0889573
0.0881904
0.45425
0.0995279
0.248086
-0.15259
-0.30253
0.907499
-0.786333
-0.695261
-0.426726
-0.155501
0.507964
0.43112
-0.0464092
0.154498
-0.782766
-0.587216
-0.975749
-0.13076
-1.0658
-0.114347
0.572201
-0.0317267
0.263979
-0.189924
0.0203798
-0.279909
-0.737598
0.715301
0.677685
-0.32041
-0.762495
-0.24821
-0.903256
-0.00021872
-1.15193
-0.49999
-0.0320573
0.541474
0.524084
-0.262532
0.527363
0.536886
-0.561388
-0.356673
-0.172235
-0.348006
-1.01469
-1.06505
-0.0771372
-0.970748
-0.155499
-0.613047
-0.466283
0.42228
-0.455293
-0.271697
-0.349745
-0.587755
-0.118407
-0.547252
-0.678697
0.600353
-0.42118
0.222522
-0.734672
0.421989
0.822216
0.31933
-0.964175
0.802968
-0.430267
0.41985
-0.409588
-0.200528
-0.322715
-0.35856
0.131832
-0.290566
0.607479
-0.427579
0.222414
-0.910353
-0.117853
0.414934
-0.269398
0.722125
-1.13083
0.440031
-0.681394
1.50604
-0.533578
0.587734
0.56271
-0.139506
-0.0278268
-1.14961
-1.44627
0.482941
1.00804
0.387489
0.870978
-0.0395618
0.639309
-0.502549
-0.850709
0.282183
-0.0101286
0.108413
0.526409
0.423049
-0.0213378
0.921412
-0.702595
-0.311004
-0.382841
-0.523253
-0.106072
1.09929
0.0182225
1.76272
-0.408236
0.633735
0.16501
-0.569859
-0.44308
0.305079
-0.0392146
-0.159174
-0.295106
0.0855991
0.183794
0.401194
0.101292
-0.200019
-1.44132
-1.13607
0.232385
-0.109453
-0.883327
0.487722
-0.310838
1.2134
0.417753
0.00244894
0.0338718
-0.139426
-0.501146
-0.0557698
-0.215321
0.182487
-0.594152
0.335718
-1.05606
0.663621
-1.28502
-0.508476
-0.996658
0.391972
-0.116155
-0.0905994
0.926398
0.000187594
0.7697
-0.00399733
0.0451517
0.479127
-0.0102142
-0.187936
-1.04991
0.340293
0.846998
-0.299892
0.361763
-1.10345
-0.836886
-0.331543
-1.48797
-0.993477
-0.621233
-0.961206
-0.00345241
-0.0768349
-0.602524
-0.0457859
-0.584278
-0.948322
-0.164346
-0.713019
-0.0978667
0.102891
0.64915
0.411588
-0.556194
-1.03655
-0.752584
-0.130593
0.000571779
0.584023
0.493385
0.213759
0.119223
0.187715
-0.697693
-0.134813
-0.486857
-0.563464
-0.0643311
0.252392
-0.125557
-0.797163
0.351873
0.0071762
-0.174641
0.221783
-0.827589
-0.020849
0.111532
0.0675771
1.09106
-0.197557
0.196901
-0.6362
-0.318429
-0.132055
-0.184575
-0.583803
-0.434378
-0.792275
-0.257003
0.314449
-1.08826
1.271
-0.390665
-0.504062
0.385366
-0.20458
0.414487
0.528976
1.1125
0.836199
0.370416
0.992777
1.0372
-0.327654
-0.45822
0.900254
-0.854521
-0.574117
-0.530067
-0.509868
-0.388375
-0.019909
-0.483197
-0.0810711
-0.492595
-0.973018
-0.0306458
-0.197143
-0.0166764
0.977965
0.721168
1.13996
1.10901
0.0876926
0.846139
0.913082
0.513948
0.247713
1.35695
0.834369
0.463919
0.16431
0.246987
0.061683
-0.949059
-0.600076
-0.660427
0.389711
0.258844
-0.0736168
0.299094
1.05018
1.81358
0.342446
0.547931
-0.11519
0.925125
-0.206743
0.642291
0.627578
0.848256
0.836928
0.686467
0.248124
-0.975502
-1.23454
0.0475036
0.0969863
0.414906
0.435599
-0.0619733
1.60763
0.279508
1.23842
0.804364
0.0714044
0.105636
0.051889
0.791365
1.47309
1.27781
0.385948
-0.118649
-0.456237
0.896987
-0.543523
-1.18246
0.232897
-0.253119
0.674048
0.934983
0.370802
-0.132048
0.314003
1.07959
0.93497
-0.197418
-0.497155
0.508151
-0.078963
0.453849
0.523443
0.351899
0.2647
-1.22893
-0.957927
-0.179831
-0.508262
0.0555919
0.662199
0.538915
0.477102
0.367158
0.178418
-0.0606102
0.441045
-0.235114
-0.816103
0.0743932
0.95646
0.105502
0.650063
0.170693
0.00692075
0.115983
-0.880597
-0.644832
-0.986924
-0.480996
0.504665
-0.154682
0.408709
-0.218049
-0.393565
-0.000355953
-0.467588
0.425585
0.137267
0.549619
0.385449
0.142693
-0.424929
1.06815
0.0167616
0.450273
-0.176896
-0.0748625
-1.23983
-0.744689
-0.118269
0.0648105
0.659131
0.122156
0.314774
0.41895
-0.141376
0.406171
0.378891
0.154967
-0.731682
0.109234
0.576744
-0.474452
0.184477
0.203961
0.600587
-0.390949
-0.124906
-0.569832
0.13572
0.407195
-0.215644
0.179992
-0.358977
-0.144498
0.268982
-0.566069
-0.857519
0.390331
-0.00712993
-0.07001
0.0960528
-0.577436
0.528234
0.507076
-0.555815
-0.116392
0.267377
1.68916
1.28906
1.34817
2.00874
0.872285
0.642694
0.602903
1.02527
0.619588
1.14249
1.0498
0.970642
0.987584
1.1741
1.06044
0.851276
-0.449701
0.206627
-0.291039
0.653663
0.0963817
0.38027
-0.148543
0.859936
0.0508829
0.631703
-0.188786
0.375504
1.16396
0.181387
1.24349
0.136574
1.81402
-0.00237308
0.880951
0.0936126
0.709795
-0.116657
0.227972
0.212856
0.322648
2.28087
1.305
0.591182
0.984024
-0.514848
1.28372
0.104934
0.0509063
0.873453
0.670947
0.96766
1.03895
0.20514
0.939392
0.61211
-0.242727
0.311792
-0.18373
0.391472
-0.361633
-0.236311
1.1882
-0.126178
0.547016
0.657486
0.688865
0.425769
0.883886
0.808852
1.39421
0.244655
0.744074
1.37297
0.0634835
-0.178401
0.421265
-0.484541
0.0791736
-0.101999
0.03831
0.900689
0.744627
-1.63221
-0.157515
0.644678
-0.93364
0.360484
0.723781
0.589283
0.594004
0.632467
0.830864
0.488603
1.36611
0.119431
-0.229003
-0.217666
0.610924
0.787414
0.114489
0.794174
0.785954
0.226883
0.422493
0.174567
0.267845
-0.167923
0.448359
0.220123
-0.023117
0.818834
0.610283
0.213314
-0.434387
-0.250802
-0.242983
-0.120612
-0.0803276
0.198495
0.187491
0.552701
-0.614267
-0.576947
0.439753
0.0201205
0.762418
-0.0848399
-0.167471
0.565707
1.0146
0.53573
0.444131
0.185435
-0.138488
-0.263863
-0.516038
0.374681
-0.172373
0.0436653
0.438529
-0.0803025
-0.613568
0.0485476
0.120965
0.362359
0.752573
0.0295068
0.496962
-0.0344229
-0.795898
0.405185
0.423458
-0.463113
-0.634396
-0.0475125
-0.156934
0.241444
1.94724
1.77596
1.17201
1.18101
1.20093
1.24861
2.12656
1.29536
1.66411
1.41556
2.06544
1.23017
2.16406
2.37521
1.52585
2.22337
1.77568
0.958179
0.69687
0.197858
0.53222
0.807729
0.933327
1.26408
1.52608
0.283653
2.254
1.3963
1.36777
1.47389
1.41922
1.2856
0.850995
1.65076
0.907441
0.227311
1.28114
0.910114
1.62265
-0.839276
0.219288
0.94981
1.34607
0.531616
1.36967
0.93725
1.28142
0.439121
0.431905
0.4505
1.07262
1.49565
0.43402
1.62045
0.826054
0.299622
0.55011
1.45156
0.730087
-0.580482
0.683509
0.273453
0.155126
0.168197
0.640211
1.35057
1.09296
0.266761
1.76701
1.34621
0.200131
1.10545
0.932668
0.43847
1.13353
0.510138
0.699685
0.141404
0.203835
-0.505143
-0.200189
1.45172
0.470943
1.44975
0.539398
0.204996
0.755965
0.384523
1.68915
0.7129
0.434385
0.313284
0.892083
1.15153
-0.0139382
0.0962173
0.647585
-0.662336
1.10931
0.00861771
1.09219
1.23057
0.925693
1.41874
-0.0380333
-0.383028
0.120173
0.866961
0.264767
0.37307
1.15188
0.717111
0.838423
0.811703
1.39405
1.3526
0.83797
-0.0599921
0.261613
-1.02068
0.31647
0.326767
0.433441
0.47361
0.21879
0.977535
1.00621
0.157851
-0.397271
0.804803
-0.582005
-0.14945
0.973911
-0.306911
0.65006
0.479345
0.12078
0.347454
0.0121883
0.262796
-0.745705
0.587765
-0.222229
-0.607594
-0.0950375
0.494576
0.236328
-0.0495068
0.224672
-0.39043
-0.130277
0.425639
-0.112181
0.28728
-0.345983
-0.39197
0.266267
-0.524519
0.120283
0.327838
1.16162
1.14893
1.53447
0.954537
2.07208
2.71333
2.05153
2.34406
2.85715
1.2989
1.78173
2.38975
2.34432
1.75415
1.96562
1.41002
1.21773
0.414967
0.252651
-0.0975804
0.0580492
1.26446
0.149134
0.574613
0.244418
1.10557
0.250515
1.02735
0.64702
0.309677
1.61568
0.0996584
1.7134
0.137067
1.49568
0.3197
1.98508
-0.259707
-0.422027
0.34653
0.851873
0.858882
2.2927
1.06392
0.583174
0.864596
2.33472
0.495029
1.39954
1.53791
0.943316
0.873453
1.01266
1.00556
1.35168
1.49514
0.687361
0.504211
0.0118957
0.361852
0.644173
1.09147
1.01896
0.967642
1.84425
0.822453
1.42746
0.498603
1.0973
2.06054
0.373908
0.975481
-0.121856
1.63956
1.0715
1.5393
0.103966
1.33573
-0.319849
0.655777
0.986476
0.160556
1.37565
1.52142
1.48042
1.12976
1.27457
0.422578
0.738835
0.230611
1.22822
1.00672
1.05756
1.1875
1.52598
0.229192
0.729324
0.355088
0.32682
1.44975
-0.49294
0.410604
0.741482
0.944467
0.631121
1.54554
-0.169145
1.33955
0.610665
0.783095
0.183838
0.596188
0.64006
0.474392
1.36044
0.329592
0.977832
-0.0692064
0.443444
0.313998
-0.393086
0.720592
-0.330181
0.972199
0.430009
1.05372
0.360193
-0.595166
-0.00981802
-0.514106
-0.0720125
0.398751
-0.295813
0.24989
-0.408716
-0.075828
-0.330867
0.313675
0.332327
-1.11305
0.101286
-0.363783
0.821077
-0.922721
-0.368743
-0.358896
0.301102
0.566798
-0.208714
-0.0271244
0.148043
0.777559
0.780976
0.530539
-0.502649
0.105025
-0.644338
0.220324
0.424414
2.32413
1.41455
1.34183
2.01801
3.13333
1.69839
2.29786
3.50409
1.60021
2.21653
2.13323
1.01135
2.28345
2.08548
1.52763
2.50842
2.98913
2.65052
1.76815
0.241585
0.387005
1.07356
1.35399
1.51294
2.68666
2.54161
1.9319
2.50176
1.46805
0.968785
2.28007
2.59628
2.44305
2.11018
1.06594
2.23022
1.19844
2.96311
2.07776
1.06323
0.0573181
0.371874
1.37085
2.36074
1.48688
1.61858
1.44157
1.83248
2.12095
1.68059
1.43382
2.21273
0.801166
1.60105
1.53131
1.86743
1.14096
1.58561
0.882259
0.747967
0.187087
0.547153
1.17426
1.61907
1.37534
1.69093
1.88867
0.535827
1.81697
1.524
0.589189
1.97791
0.769046
1.76619
0.927406
0.544109
1.5811
2.42704