/*--------------------------------*- C++ -*----------------------------------*\
| =========                 |                                                 |
| \\      /  F ield         | OpenFOAM: The Open Source CFD Toolbox           |
|  \\    /   O peration     | Version:  2212                                  |
|   \\  /    A nd           | Website:  www.openfoam.com                      |
|    \\/     M anipulation  |                                                 |
\*---------------------------------------------------------------------------*/
FoamFile
{
    version     2.0;
    format      ascii;
    arch        "LSB;label=32;scalar=64";
    class       volScalarField;
    location    "0";
    object      Ttrue;
}
// * * * * * * * * * * * * * * * * * * * * * * * * * * * * * * * * * * * * * //

dimensions      [0 0 0 1 0 0 0];

internalField   nonuniform List<scalar> 
3200
(
331.293
331.596
331.982
332.403
332.836
333.261
333.654
333.986
334.227
334.355
334.355
334.227
333.986
333.654
333.261
332.836
332.403
331.982
331.596
331.293
327.02
327.276
327.609
327.973
328.348
328.716
329.055
329.342
329.55
329.66
329.66
329.55
329.342
329.055
328.716
328.348
327.973
327.609
327.276
327.02
322.79
323.003
323.283
323.591
323.908
324.219
324.505
324.747
324.923
325.016
325.016
324.923
324.747
324.505
324.219
323.908
323.591
323.283
323.003
322.79
318.599
318.77
318.998
319.25
319.509
319.763
319.997
320.194
320.338
320.414
320.414
320.338
320.194
319.997
319.763
319.509
319.25
318.998
318.77
318.599
314.438
314.569
314.746
314.942
315.143
315.34
315.522
315.676
315.787
315.846
315.846
315.787
315.676
315.522
315.34
315.143
314.942
314.746
314.569
314.438
310.3
310.393
310.52
310.659
310.803
310.944
311.074
311.183
311.263
311.305
311.305
311.263
311.183
311.074
310.944
310.803
310.659
310.52
310.393
310.3
306.18
306.236
306.312
306.395
306.482
306.566
306.644
306.71
306.758
306.783
306.783
306.758
306.71
306.644
306.566
306.482
306.395
306.312
306.236
306.18
302.071
302.089
302.115
302.143
302.172
302.2
302.226
302.248
302.264
302.272
302.272
302.264
302.248
302.226
302.2
302.172
302.143
302.115
302.089
302.071
331.411
331.711
332.094
332.511
332.94
333.36
333.748
334.076
334.314
334.44
334.44
334.314
334.076
333.748
333.36
332.94
332.511
332.094
331.711
331.411
327.121
327.375
327.705
328.066
328.437
328.801
329.136
329.419
329.625
329.734
329.734
329.625
329.419
329.136
328.801
328.437
328.066
327.705
327.375
327.121
322.876
323.086
323.364
323.669
323.983
324.29
324.574
324.812
324.986
325.078
325.078
324.986
324.812
324.574
324.29
323.983
323.669
323.364
323.086
322.876
318.668
318.838
319.064
319.313
319.57
319.821
320.053
320.247
320.389
320.464
320.464
320.389
320.247
320.053
319.821
319.57
319.313
319.064
318.838
318.668
314.491
314.622
314.797
314.991
315.19
315.386
315.565
315.717
315.827
315.885
315.885
315.827
315.717
315.565
315.386
315.19
314.991
314.797
314.622
314.491
310.339
310.431
310.556
310.695
310.837
310.976
311.105
311.213
311.291
311.333
311.333
311.291
311.213
311.105
310.976
310.837
310.695
310.556
310.431
310.339
306.203
306.258
306.334
306.417
306.502
306.586
306.663
306.728
306.775
306.8
306.8
306.775
306.728
306.663
306.586
306.502
306.417
306.334
306.258
306.203
302.078
302.097
302.122
302.15
302.178
302.206
302.232
302.254
302.27
302.278
302.278
302.27
302.254
302.232
302.206
302.178
302.15
302.122
302.097
302.078
331.647
331.942
332.318
332.727
333.148
333.559
333.938
334.258
334.49
334.612
334.612
334.49
334.258
333.938
333.559
333.148
332.727
332.318
331.942
331.647
327.324
327.574
327.898
328.252
328.616
328.972
329.3
329.576
329.776
329.882
329.882
329.776
329.576
329.3
328.972
328.616
328.252
327.898
327.574
327.324
323.046
323.254
323.527
323.826
324.134
324.434
324.711
324.944
325.113
325.203
325.203
325.113
324.944
324.711
324.434
324.134
323.826
323.527
323.254
323.046
318.807
318.974
319.197
319.441
319.693
319.939
320.165
320.355
320.493
320.566
320.566
320.493
320.355
320.165
319.939
319.693
319.441
319.197
318.974
318.807
314.599
314.727
314.9
315.09
315.286
315.477
315.652
315.8
315.907
315.964
315.964
315.907
315.8
315.652
315.477
315.286
315.09
314.9
314.727
314.599
310.416
310.506
310.63
310.765
310.905
311.041
311.167
311.272
311.349
311.389
311.389
311.349
311.272
311.167
311.041
310.905
310.765
310.63
310.506
310.416
306.249
306.304
306.377
306.459
306.543
306.625
306.7
306.763
306.809
306.833
306.833
306.809
306.763
306.7
306.625
306.543
306.459
306.377
306.304
306.249
302.094
302.112
302.137
302.164
302.192
302.219
302.245
302.266
302.281
302.289
302.289
302.281
302.266
302.245
302.219
302.192
302.164
302.137
302.112
302.094
332.001
332.289
332.656
333.054
333.462
333.86
334.226
334.534
334.758
334.875
334.875
334.758
334.534
334.226
333.86
333.462
333.054
332.656
332.289
332.001
327.629
327.873
328.189
328.533
328.886
329.231
329.548
329.814
330.007
330.109
330.109
330.007
329.814
329.548
329.231
328.886
328.533
328.189
327.873
327.629
323.303
323.505
323.772
324.063
324.361
324.653
324.92
325.145
325.308
325.394
325.394
325.308
325.145
324.92
324.653
324.361
324.063
323.772
323.505
323.303
319.016
319.179
319.396
319.634
319.878
320.116
320.335
320.518
320.651
320.721
320.721
320.651
320.518
320.335
320.116
319.878
319.634
319.396
319.179
319.016
314.761
314.886
315.055
315.24
315.429
315.614
315.784
315.927
316.03
316.084
316.084
316.03
315.927
315.784
315.614
315.429
315.24
315.055
314.886
314.761
310.531
310.62
310.74
310.872
311.007
311.139
311.261
311.362
311.436
311.475
311.475
311.436
311.362
311.261
311.139
311.007
310.872
310.74
310.62
310.531
306.319
306.371
306.444
306.523
306.604
306.683
306.756
306.817
306.862
306.885
306.885
306.862
306.817
306.756
306.683
306.604
306.523
306.444
306.371
306.319
302.117
302.135
302.159
302.185
302.213
302.239
302.263
302.284
302.299
302.307
302.307
302.299
302.284
302.263
302.239
302.213
302.185
302.159
302.135
302.117
332.474
332.754
333.108
333.492
333.884
334.266
334.616
334.909
335.122
335.234
335.234
335.122
334.909
334.616
334.266
333.884
333.492
333.108
332.754
332.474
328.036
328.273
328.579
328.911
329.25
329.581
329.884
330.137
330.321
330.418
330.418
330.321
330.137
329.884
329.581
329.25
328.911
328.579
328.273
328.036
323.646
323.842
324.1
324.381
324.668
324.947
325.203
325.417
325.572
325.654
325.654
325.572
325.417
325.203
324.947
324.668
324.381
324.1
323.842
323.646
319.295
319.453
319.664
319.893
320.128
320.356
320.565
320.74
320.867
320.933
320.933
320.867
320.74
320.565
320.356
320.128
319.893
319.664
319.453
319.295
314.978
315.099
315.262
315.44
315.623
315.8
315.963
316.098
316.197
316.249
316.249
316.197
316.098
315.963
315.8
315.623
315.44
315.262
315.099
314.978
310.685
310.771
310.887
311.015
311.145
311.272
311.388
311.485
311.555
311.592
311.592
311.555
311.485
311.388
311.272
311.145
311.015
310.887
310.771
310.685
306.411
306.462
306.532
306.609
306.687
306.763
306.832
306.891
306.933
306.955
306.955
306.933
306.891
306.832
306.763
306.687
306.609
306.532
306.462
306.411
302.148
302.165
302.188
302.214
302.24
302.266
302.289
302.309
302.323
302.33
302.33
302.323
302.309
302.289
302.266
302.24
302.214
302.188
302.165
302.148
333.068
333.337
333.677
334.044
334.418
334.781
335.112
335.389
335.589
335.694
335.694
335.589
335.389
335.112
334.781
334.418
334.044
333.677
333.337
333.068
328.548
328.776
329.069
329.387
329.71
330.024
330.311
330.55
330.723
330.814
330.814
330.723
330.55
330.311
330.024
329.71
329.387
329.069
328.776
328.548
324.076
324.265
324.513
324.781
325.055
325.32
325.562
325.764
325.91
325.987
325.987
325.91
325.764
325.562
325.32
325.055
324.781
324.513
324.265
324.076
319.646
319.798
320
320.219
320.443
320.66
320.858
321.023
321.142
321.205
321.205
321.142
321.023
320.858
320.66
320.443
320.219
320
319.798
319.646
315.25
315.366
315.523
315.693
315.867
316.036
316.189
316.318
316.411
316.459
316.459
316.411
316.318
316.189
316.036
315.867
315.693
315.523
315.366
315.25
310.879
310.962
311.073
311.195
311.319
311.44
311.549
311.641
311.707
311.742
311.742
311.707
311.641
311.549
311.44
311.319
311.195
311.073
310.962
310.879
306.527
306.577
306.644
306.717
306.791
306.864
306.929
306.984
307.024
307.045
307.045
307.024
306.984
306.929
306.864
306.791
306.717
306.644
306.577
306.527
302.187
302.203
302.226
302.25
302.275
302.299
302.321
302.34
302.353
302.36
302.36
302.353
302.34
302.321
302.299
302.275
302.25
302.226
302.203
302.187
333.784
334.041
334.365
334.714
335.067
335.408
335.719
335.977
336.164
336.262
336.262
336.164
335.977
335.719
335.408
335.067
334.714
334.365
334.041
333.784
329.164
329.382
329.662
329.963
330.269
330.565
330.833
331.057
331.218
331.303
331.303
331.218
331.057
330.833
330.565
330.269
329.963
329.662
329.382
329.164
324.595
324.776
325.012
325.266
325.525
325.775
326.002
326.191
326.327
326.399
326.399
326.327
326.191
326.002
325.775
325.525
325.266
325.012
324.776
324.595
320.069
320.214
320.406
320.615
320.826
321.03
321.216
321.37
321.482
321.54
321.54
321.482
321.37
321.216
321.03
320.826
320.615
320.406
320.214
320.069
315.577
315.689
315.838
316
316.164
316.323
316.467
316.587
316.674
316.719
316.719
316.674
316.587
316.467
316.323
316.164
316
315.838
315.689
315.577
311.113
311.192
311.298
311.413
311.531
311.644
311.747
311.833
311.895
311.927
311.927
311.895
311.833
311.747
311.644
311.531
311.413
311.298
311.192
311.113
306.667
306.714
306.778
306.848
306.918
306.986
307.048
307.1
307.137
307.156
307.156
307.137
307.1
307.048
306.986
306.918
306.848
306.778
306.714
306.667
302.234
302.249
302.271
302.294
302.318
302.34
302.361
302.378
302.391
302.397
302.397
302.391
302.378
302.361
302.34
302.318
302.294
302.271
302.249
302.234
334.623
334.867
335.174
335.502
335.834
336.152
336.441
336.681
336.853
336.943
336.943
336.853
336.681
336.441
336.152
335.834
335.502
335.174
334.867
334.623
329.887
330.094
330.359
330.643
330.93
331.206
331.455
331.663
331.812
331.89
331.89
331.812
331.663
331.455
331.206
330.93
330.643
330.359
330.094
329.887
325.203
325.375
325.598
325.838
326.081
326.314
326.525
326.701
326.827
326.893
326.893
326.827
326.701
326.525
326.314
326.081
325.838
325.598
325.375
325.203
320.564
320.702
320.884
321.081
321.279
321.47
321.642
321.786
321.889
321.942
321.942
321.889
321.786
321.642
321.47
321.279
321.081
320.884
320.702
320.564
315.961
316.067
316.208
316.361
316.515
316.664
316.798
316.909
316.989
317.031
317.031
316.989
316.909
316.798
316.664
316.515
316.361
316.208
316.067
315.961
311.386
311.461
311.562
311.671
311.781
311.887
311.983
312.062
312.12
312.149
312.149
312.12
312.062
311.983
311.887
311.781
311.671
311.562
311.461
311.386
306.831
306.876
306.937
307.002
307.068
307.132
307.189
307.237
307.271
307.289
307.289
307.271
307.237
307.189
307.132
307.068
307.002
306.937
306.876
306.831
302.289
302.304
302.324
302.346
302.368
302.389
302.409
302.425
302.436
302.442
302.442
302.436
302.425
302.409
302.389
302.368
302.346
302.324
302.304
302.289
335.586
335.817
336.106
336.413
336.722
337.018
337.284
337.504
337.662
337.745
337.745
337.662
337.504
337.284
337.018
336.722
336.413
336.106
335.817
335.586
330.717
330.912
331.161
331.427
331.695
331.951
332.181
332.372
332.509
332.58
332.58
332.509
332.372
332.181
331.951
331.695
331.427
331.161
330.912
330.717
325.902
326.064
326.274
326.499
326.725
326.942
327.137
327.298
327.413
327.474
327.474
327.413
327.298
327.137
326.942
326.725
326.499
326.274
326.064
325.902
321.133
321.264
321.435
321.619
321.804
321.981
322.14
322.272
322.366
322.416
322.416
322.366
322.272
322.14
321.981
321.804
321.619
321.435
321.264
321.133
316.402
316.502
316.635
316.778
316.922
317.06
317.184
317.286
317.359
317.398
317.398
317.359
317.286
317.184
317.06
316.922
316.778
316.635
316.502
316.402
311.701
311.771
311.866
311.968
312.071
312.169
312.258
312.331
312.384
312.411
312.411
312.384
312.331
312.258
312.169
312.071
311.968
311.866
311.771
311.701
307.02
307.062
307.119
307.18
307.242
307.301
307.354
307.398
307.43
307.446
307.446
307.43
307.398
307.354
307.301
307.242
307.18
307.119
307.062
307.02
302.352
302.366
302.385
302.405
302.426
302.446
302.464
302.478
302.489
302.495
302.495
302.489
302.478
302.464
302.446
302.426
302.405
302.385
302.366
302.352
336.676
336.893
337.163
337.449
337.735
338.007
338.252
338.453
338.597
338.672
338.672
338.597
338.453
338.252
338.007
337.735
337.449
337.163
336.893
336.676
331.655
331.839
332.072
332.32
332.567
332.803
333.015
333.189
333.314
333.378
333.378
333.314
333.189
333.015
332.803
332.567
332.32
332.072
331.839
331.655
326.692
326.844
327.041
327.25
327.46
327.659
327.838
327.985
328.091
328.145
328.145
328.091
327.985
327.838
327.659
327.46
327.25
327.041
326.844
326.692
321.777
321.899
322.06
322.231
322.402
322.565
322.712
322.832
322.918
322.963
322.963
322.918
322.832
322.712
322.565
322.402
322.231
322.06
321.899
321.777
316.901
316.995
317.119
317.253
317.386
317.513
317.627
317.72
317.787
317.822
317.822
317.787
317.72
317.627
317.513
317.386
317.253
317.119
316.995
316.901
312.056
312.123
312.211
312.306
312.402
312.492
312.574
312.641
312.688
312.713
312.713
312.688
312.641
312.574
312.492
312.402
312.306
312.211
312.123
312.056
307.233
307.273
307.326
307.383
307.44
307.495
307.544
307.584
307.612
307.627
307.627
307.612
307.584
307.544
307.495
307.44
307.383
307.326
307.273
307.233
302.423
302.436
302.454
302.473
302.493
302.511
302.527
302.541
302.55
302.555
302.555
302.55
302.541
302.527
302.511
302.493
302.473
302.454
302.436
302.423
337.893
338.096
338.347
338.612
338.876
339.125
339.348
339.531
339.661
339.729
339.729
339.661
339.531
339.348
339.125
338.876
338.612
338.347
338.096
337.893
332.704
332.875
333.092
333.322
333.55
333.766
333.959
334.117
334.23
334.289
334.289
334.23
334.117
333.959
333.766
333.55
333.322
333.092
332.875
332.704
327.574
327.717
327.9
328.094
328.287
328.47
328.633
328.767
328.862
328.912
328.912
328.862
328.767
328.633
328.47
328.287
328.094
327.9
327.717
327.574
322.496
322.61
322.759
322.918
323.076
323.226
323.359
323.469
323.547
323.587
323.587
323.547
323.469
323.359
323.226
323.076
322.918
322.759
322.61
322.496
317.458
317.546
317.662
317.786
317.908
318.025
318.129
318.214
318.274
318.306
318.306
318.274
318.214
318.129
318.025
317.908
317.786
317.662
317.546
317.458
312.453
312.516
312.598
312.686
312.774
312.857
312.931
312.992
313.035
313.058
313.058
313.035
312.992
312.931
312.857
312.774
312.686
312.598
312.516
312.453
307.471
307.508
307.558
307.611
307.664
307.713
307.758
307.795
307.821
307.834
307.834
307.821
307.795
307.758
307.713
307.664
307.611
307.558
307.508
307.471
302.503
302.515
302.532
302.55
302.567
302.584
302.599
302.611
302.62
302.624
302.624
302.62
302.611
302.599
302.584
302.567
302.55
302.532
302.515
302.503
339.238
339.427
339.66
339.905
340.146
340.374
340.576
340.741
340.858
340.919
340.919
340.858
340.741
340.576
340.374
340.146
339.905
339.66
339.427
339.238
333.863
334.022
334.224
334.435
334.645
334.842
335.017
335.16
335.262
335.314
335.314
335.262
335.16
335.017
334.842
334.645
334.435
334.224
334.022
333.863
328.55
328.682
328.852
329.031
329.208
329.375
329.523
329.644
329.73
329.775
329.775
329.73
329.644
329.523
329.375
329.208
329.031
328.852
328.682
328.55
323.291
323.397
323.535
323.682
323.827
323.963
324.085
324.184
324.254
324.29
324.29
324.254
324.184
324.085
323.963
323.827
323.682
323.535
323.397
323.291
318.075
318.156
318.264
318.378
318.49
318.597
318.691
318.768
318.823
318.851
318.851
318.823
318.768
318.691
318.597
318.49
318.378
318.264
318.156
318.075
312.893
312.95
313.027
313.108
313.189
313.265
313.332
313.387
313.426
313.447
313.447
313.426
313.387
313.332
313.265
313.189
313.108
313.027
312.95
312.893
307.735
307.769
307.815
307.864
307.912
307.958
307.998
308.031
308.055
308.067
308.067
308.055
308.031
307.998
307.958
307.912
307.864
307.815
307.769
307.735
302.591
302.603
302.618
302.634
302.651
302.666
302.679
302.691
302.698
302.702
302.702
302.698
302.691
302.679
302.666
302.651
302.634
302.618
302.603
302.591
340.713
340.888
341.103
341.328
341.549
341.755
341.938
342.087
342.192
342.247
342.247
342.192
342.087
341.938
341.755
341.549
341.328
341.103
340.888
340.713
335.133
335.281
335.467
335.661
335.853
336.032
336.19
336.319
336.41
336.458
336.458
336.41
336.319
336.19
336.032
335.853
335.661
335.467
335.281
335.133
329.619
329.742
329.899
330.063
330.225
330.377
330.511
330.62
330.697
330.737
330.737
330.697
330.62
330.511
330.377
330.225
330.063
329.899
329.742
329.619
324.162
324.261
324.388
324.523
324.655
324.779
324.889
324.978
325.042
325.074
325.074
325.042
324.978
324.889
324.779
324.655
324.523
324.388
324.261
324.162
318.75
318.826
318.925
319.03
319.133
319.229
319.315
319.384
319.433
319.459
319.459
319.433
319.384
319.315
319.229
319.133
319.03
318.925
318.826
318.75
313.374
313.428
313.498
313.573
313.647
313.716
313.777
313.826
313.861
313.88
313.88
313.861
313.826
313.777
313.716
313.647
313.573
313.498
313.428
313.374
308.023
308.055
308.098
308.143
308.187
308.228
308.265
308.295
308.316
308.327
308.327
308.316
308.295
308.265
308.228
308.187
308.143
308.098
308.055
308.023
302.688
302.698
302.713
302.728
302.743
302.756
302.769
302.779
302.786
302.789
302.789
302.786
302.779
302.769
302.756
302.743
302.728
302.713
302.698
302.688
342.317
342.479
342.677
342.882
343.083
343.271
343.436
343.569
343.663
343.712
343.712
343.663
343.569
343.436
343.271
343.083
342.882
342.677
342.479
342.317
336.514
336.651
336.822
337.001
337.175
337.337
337.48
337.596
337.677
337.72
337.72
337.677
337.596
337.48
337.337
337.175
337.001
336.822
336.651
336.514
330.782
330.896
331.04
331.191
331.338
331.475
331.596
331.694
331.763
331.799
331.799
331.763
331.694
331.596
331.475
331.338
331.191
331.04
330.896
330.782
325.109
325.201
325.318
325.441
325.562
325.674
325.773
325.854
325.91
325.939
325.939
325.91
325.854
325.773
325.674
325.562
325.441
325.318
325.201
325.109
319.484
319.555
319.646
319.742
319.835
319.923
320
320.062
320.106
320.129
320.129
320.106
320.062
320
319.923
319.835
319.742
319.646
319.555
319.484
313.897
313.947
314.012
314.08
314.148
314.21
314.265
314.31
314.341
314.357
314.357
314.341
314.31
314.265
314.21
314.148
314.08
314.012
313.947
313.897
308.337
308.367
308.406
308.447
308.487
308.525
308.558
308.585
308.603
308.613
308.613
308.603
308.585
308.558
308.525
308.487
308.447
308.406
308.367
308.337
302.793
302.803
302.816
302.83
302.843
302.856
302.867
302.876
302.882
302.885
302.885
302.882
302.876
302.867
302.856
302.843
302.83
302.816
302.803
302.793
344.048
344.197
344.379
344.567
344.749
344.919
345.067
345.187
345.271
345.314
345.314
345.271
345.187
345.067
344.919
344.749
344.567
344.379
344.197
344.048
338.005
338.131
338.288
338.451
338.609
338.756
338.885
338.988
339.061
339.099
339.099
339.061
338.988
338.885
338.756
338.609
338.451
338.288
338.131
338.005
332.037
332.141
332.274
332.411
332.545
332.67
332.778
332.866
332.928
332.96
332.96
332.928
332.866
332.778
332.67
332.545
332.411
332.274
332.141
332.037
326.131
326.215
326.323
326.436
326.545
326.647
326.736
326.808
326.859
326.885
326.885
326.859
326.808
326.736
326.647
326.545
326.436
326.323
326.215
326.131
320.276
320.341
320.425
320.512
320.598
320.677
320.746
320.802
320.841
320.862
320.862
320.841
320.802
320.746
320.677
320.598
320.512
320.425
320.341
320.276
314.462
314.507
314.567
314.63
314.691
314.747
314.797
314.837
314.865
314.879
314.879
314.865
314.837
314.797
314.747
314.691
314.63
314.567
314.507
314.462
308.675
308.703
308.739
308.776
308.813
308.847
308.876
308.9
308.917
308.926
308.926
308.917
308.9
308.876
308.847
308.813
308.776
308.739
308.703
308.675
302.906
302.915
302.927
302.94
302.952
302.964
302.974
302.982
302.987
302.99
302.99
302.987
302.982
302.974
302.964
302.952
302.94
302.927
302.915
302.906
345.899
346.037
346.203
346.375
346.54
346.693
346.826
346.933
347.008
347.047
347.047
347.008
346.933
346.826
346.693
346.54
346.375
346.203
346.037
345.899
339.598
339.715
339.859
340.007
340.15
340.283
340.398
340.491
340.556
340.59
340.59
340.556
340.491
340.398
340.283
340.15
340.007
339.859
339.715
339.598
333.377
333.473
333.594
333.72
333.841
333.954
334.051
334.13
334.185
334.214
334.214
334.185
334.13
334.051
333.954
333.841
333.72
333.594
333.473
333.377
327.222
327.299
327.398
327.501
327.6
327.692
327.772
327.837
327.882
327.905
327.905
327.882
327.837
327.772
327.692
327.6
327.501
327.398
327.299
327.222
321.121
321.181
321.258
321.338
321.415
321.486
321.549
321.599
321.634
321.652
321.652
321.634
321.599
321.549
321.486
321.415
321.338
321.258
321.181
321.121
315.064
315.106
315.161
315.218
315.273
315.324
315.369
315.404
315.429
315.442
315.442
315.429
315.404
315.369
315.324
315.273
315.218
315.161
315.106
315.064
309.036
309.061
309.094
309.128
309.162
309.192
309.219
309.241
309.256
309.264
309.264
309.256
309.241
309.219
309.192
309.162
309.128
309.094
309.061
309.036
303.027
303.035
303.046
303.058
303.069
303.079
303.088
303.096
303.101
303.103
303.103
303.101
303.096
303.088
303.079
303.069
303.058
303.046
303.035
303.027
347.853
347.979
348.132
348.288
348.438
348.576
348.695
348.791
348.858
348.893
348.893
348.858
348.791
348.695
348.576
348.438
348.288
348.132
347.979
347.853
341.277
341.384
341.516
341.651
341.781
341.9
342.004
342.087
342.146
342.175
342.175
342.146
342.087
342.004
341.9
341.781
341.651
341.516
341.384
341.277
334.786
334.875
334.986
335.1
335.21
335.312
335.4
335.47
335.519
335.545
335.545
335.519
335.47
335.4
335.312
335.21
335.1
334.986
334.875
334.786
328.367
328.439
328.529
328.623
328.713
328.796
328.868
328.926
328.966
328.987
328.987
328.966
328.926
328.868
328.796
328.713
328.623
328.529
328.439
328.367
322.008
322.063
322.133
322.206
322.276
322.341
322.397
322.442
322.473
322.489
322.489
322.473
322.442
322.397
322.341
322.276
322.206
322.133
322.063
322.008
315.695
315.733
315.784
315.836
315.886
315.932
315.972
316.004
316.026
316.038
316.038
316.026
316.004
315.972
315.932
315.886
315.836
315.784
315.733
315.695
309.414
309.437
309.467
309.499
309.529
309.557
309.581
309.6
309.613
309.62
309.62
309.613
309.6
309.581
309.557
309.529
309.499
309.467
309.437
309.414
303.154
303.161
303.171
303.182
303.192
303.201
303.209
303.216
303.22
303.223
303.223
303.22
303.216
303.209
303.201
303.192
303.182
303.171
303.161
303.154
349.861
349.977
350.117
350.26
350.396
350.52
350.628
350.714
350.774
350.805
350.805
350.774
350.714
350.628
350.52
350.396
350.26
350.117
349.977
349.861
342.994
343.093
343.214
343.337
343.455
343.563
343.657
343.732
343.784
343.81
343.81
343.784
343.732
343.657
343.563
343.455
343.337
343.214
343.093
342.994
336.222
336.304
336.406
336.51
336.611
336.702
336.781
336.845
336.889
336.911
336.911
336.889
336.845
336.781
336.702
336.611
336.51
336.406
336.304
336.222
329.531
329.597
329.68
329.765
329.847
329.922
329.987
330.039
330.075
330.094
330.094
330.075
330.039
329.987
329.922
329.847
329.765
329.68
329.597
329.531
322.906
322.956
323.021
323.087
323.151
323.21
323.26
323.301
323.329
323.343
323.343
323.329
323.301
323.26
323.21
323.151
323.087
323.021
322.956
322.906
316.332
316.368
316.414
316.461
316.507
316.549
316.585
316.614
316.634
316.644
316.644
316.634
316.614
316.585
316.549
316.507
316.461
316.414
316.368
316.332
309.795
309.817
309.844
309.873
309.9
309.926
309.947
309.965
309.977
309.983
309.983
309.977
309.965
309.947
309.926
309.9
309.873
309.844
309.817
309.795
303.281
303.288
303.297
303.307
303.316
303.325
303.332
303.338
303.342
303.344
303.344
303.342
303.338
303.332
303.325
303.316
303.307
303.297
303.288
303.281
351.798
351.906
352.035
352.166
352.29
352.404
352.502
352.579
352.634
352.661
352.661
352.634
352.579
352.502
352.404
352.29
352.166
352.035
351.906
351.798
344.631
344.722
344.834
344.947
345.056
345.154
345.24
345.307
345.354
345.378
345.378
345.354
345.307
345.24
345.154
345.056
344.947
344.834
344.722
344.631
337.577
337.652
337.746
337.843
337.935
338.018
338.09
338.148
338.188
338.208
338.208
338.188
338.148
338.09
338.018
337.935
337.843
337.746
337.652
337.577
330.618
330.679
330.756
330.835
330.91
330.979
331.038
331.085
331.118
331.135
331.135
331.118
331.085
331.038
330.979
330.91
330.835
330.756
330.679
330.618
323.738
323.785
323.845
323.906
323.965
324.018
324.064
324.101
324.127
324.14
324.14
324.127
324.101
324.064
324.018
323.965
323.906
323.845
323.785
323.738
316.92
316.953
316.996
317.039
317.081
317.12
317.153
317.179
317.197
317.207
317.207
317.197
317.179
317.153
317.12
317.081
317.039
316.996
316.953
316.92
310.146
310.165
310.191
310.217
310.243
310.266
310.286
310.301
310.312
310.318
310.318
310.312
310.301
310.286
310.266
310.243
310.217
310.191
310.165
310.146
303.398
303.405
303.413
303.422
303.43
303.438
303.445
303.45
303.454
303.456
303.456
303.454
303.45
303.445
303.438
303.43
303.422
303.413
303.405
303.398
353.327
353.428
353.55
353.672
353.789
353.895
353.986
354.058
354.108
354.134
354.134
354.108
354.058
353.986
353.895
353.789
353.672
353.55
353.428
353.327
345.874
345.96
346.065
346.172
346.273
346.366
346.445
346.508
346.552
346.574
346.574
346.552
346.508
346.445
346.366
346.273
346.172
346.065
345.96
345.874
338.572
338.644
338.733
338.824
338.91
338.989
339.056
339.11
339.147
339.166
339.166
339.147
339.11
339.056
338.989
338.91
338.824
338.733
338.644
338.572
331.397
331.455
331.528
331.602
331.673
331.738
331.794
331.838
331.868
331.884
331.884
331.868
331.838
331.794
331.738
331.673
331.602
331.528
331.455
331.397
324.324
324.368
324.425
324.483
324.538
324.589
324.632
324.666
324.69
324.703
324.703
324.69
324.666
324.632
324.589
324.538
324.483
324.425
324.368
324.324
317.327
317.359
317.399
317.441
317.481
317.517
317.548
317.573
317.59
317.598
317.598
317.59
317.573
317.548
317.517
317.481
317.441
317.399
317.359
317.327
310.386
310.405
310.429
310.454
310.478
310.5
310.519
310.534
310.544
310.549
310.549
310.544
310.534
310.519
310.5
310.478
310.454
310.429
310.405
310.386
303.478
303.484
303.492
303.501
303.509
303.516
303.522
303.527
303.531
303.533
303.533
303.531
303.527
303.522
303.516
303.509
303.501
303.492
303.484
303.478
)
;

boundaryField
{
    hotSide
    {
        type            fixedGradient;
        gradient        nonuniform List<scalar> 
400
(
346.007
347.34
350.01
354.024
359.389
366.117
374.222
383.716
394.615
406.934
420.685
435.883
452.539
470.665
490.27
511.362
533.948
558.034
583.624
610.721
349.986
351.288
353.896
357.819
363.069
369.661
377.611
386.937
397.66
409.796
423.363
438.379
454.857
472.81
492.25
513.185
535.624
559.571
585.033
612.011
354.292
355.556
358.091
361.907
367.021
373.451
381.22
390.352
400.871
412.798
426.157
440.967
457.246
475.008
494.267
515.032
537.312
561.113
586.438
613.292
358.854
360.075
362.524
366.216
371.172
377.417
384.981
393.892
404.181
415.876
429.005
443.59
459.653
477.21
496.275
516.861
538.974
562.621
587.807
614.532
363.544
364.716
367.068
370.622
375.403
381.443
388.78
397.45
407.491
418.936
431.819
446.167
462.003
479.347
498.214
518.616
540.561
564.054
589.1
615.699
368.167
369.286
371.536
374.942
379.536
385.361
392.46
400.879
410.663
421.854
434.487
448.596
464.206
481.339
500.011
520.234
542.016
565.362
590.275
616.755
372.458
373.524
375.672
378.931
383.341
388.953
395.82
403.995
413.532
424.478
436.874
450.758
466.157
483.094
501.587
521.646
543.28
566.493
591.287
617.66
376.1
377.119
379.174
382.301
386.547
391.97
398.63
406.591
415.911
426.644
438.837
452.527
467.746
484.518
502.859
522.782
544.293
567.397
592.092
618.379
378.766
379.748
381.732
384.758
388.879
394.158
400.663
408.463
417.621
428.196
440.237
453.785
468.872
485.523
503.755
523.579
545.002
568.027
592.653
618.878
380.178
381.14
383.086
386.058
390.11
395.312
401.733
409.446
418.517
429.007
440.967
454.439
469.457
486.044
504.218
523.991
545.368
568.351
592.941
619.133
380.178
381.14
383.086
386.058
390.11
395.312
401.733
409.446
418.517
429.007
440.967
454.439
469.457
486.044
504.218
523.991
545.368
568.351
592.941
619.133
378.766
379.748
381.732
384.758
388.879
394.158
400.663
408.463
417.621
428.196
440.237
453.785
468.872
485.523
503.755
523.579
545.002
568.027
592.653
618.878
376.1
377.119
379.174
382.301
386.547
391.97
398.63
406.591
415.911
426.644
438.837
452.527
467.746
484.518
502.859
522.782
544.293
567.397
592.092
618.379
372.458
373.524
375.672
378.931
383.341
388.953
395.82
403.995
413.532
424.478
436.874
450.758
466.157
483.094
501.587
521.646
543.28
566.493
591.287
617.66
368.167
369.286
371.536
374.942
379.536
385.361
392.46
400.879
410.663
421.854
434.487
448.596
464.206
481.339
500.011
520.234
542.016
565.362
590.275
616.755
363.544
364.716
367.068
370.622
375.403
381.443
388.78
397.45
407.491
418.936
431.819
446.167
462.003
479.347
498.214
518.616
540.561
564.054
589.1
615.699
358.854
360.075
362.524
366.216
371.172
377.417
384.981
393.892
404.181
415.876
429.005
443.59
459.653
477.21
496.275
516.861
538.974
562.621
587.807
614.532
354.292
355.556
358.091
361.907
367.021
373.451
381.22
390.352
400.871
412.798
426.157
440.967
457.246
475.008
494.267
515.032
537.312
561.113
586.438
613.292
349.986
351.288
353.896
357.819
363.069
369.661
377.611
386.937
397.66
409.796
423.363
438.379
454.857
472.81
492.25
513.185
535.624
559.571
585.033
612.011
346.007
347.34
350.01
354.024
359.389
366.117
374.222
383.716
394.615
406.934
420.685
435.883
452.539
470.665
490.27
511.362
533.948
558.034
583.624
610.721
)
;
    }
    coldSide
    {
        type            mixed;
        refValue        uniform 300;
        refGradient     uniform 0;
        valueFraction   uniform 0.991591;
        source          uniform 0;
        value           nonuniform List<scalar> 
400
(
300.017
300.017
300.018
300.018
300.018
300.018
300.019
300.019
300.02
300.02
300.021
300.022
300.023
300.023
300.024
300.025
300.027
300.028
300.029
300.029
300.018
300.018
300.018
300.018
300.018
300.019
300.019
300.019
300.02
300.02
300.021
300.022
300.023
300.024
300.025
300.026
300.027
300.028