/*--------------------------------*- C++ -*----------------------------------*\
| =========                 |                                                 |
| \\      /  F ield         | OpenFOAM: The Open Source CFD Toolbox           |
|  \\    /   O peration     | Version:  2212                                  |
|   \\  /    A nd           | Website:  www.openfoam.com                      |
|    \\/     M anipulation  |                                                 |
\*---------------------------------------------------------------------------*/
FoamFile
{
    version     2.0;
    format      ascii;
    arch        "LSB;label=32;scalar=64";
    class       volScalarField;
    location    "0";
    object      Tdirect;
}
// * * * * * * * * * * * * * * * * * * * * * * * * * * * * * * * * * * * * * //

dimensions      [0 0 0 1 0 0 0];

internalField   nonuniform List<scalar> 
3200
(
331.188
331.63
332.195
332.81
333.444
334.066
334.64
335.125
335.478
335.664
335.664
335.478
335.125
334.64
334.066
333.444
332.81
332.195
331.63
331.188
327.155
327.529
328.016
328.548
329.096
329.635
330.131
330.55
330.855
331.016
331.016
330.855
330.55
330.131
329.635
329.096
328.548
328.016
327.529
327.155
323.068
323.379
323.789
324.239
324.702
325.157
325.576
325.929
326.187
326.322
326.322
326.187
325.929
325.576
325.157
324.702
324.239
323.789
323.379
323.068
318.938
319.188
319.522
319.89
320.269
320.64
320.982
321.271
321.481
321.592
321.592
321.481
321.271
320.982
320.64
320.269
319.89
319.522
319.188
318.938
314.771
314.963
315.222
315.508
315.802
316.091
316.357
316.581
316.744
316.83
316.83
316.744
316.581
316.357
316.091
315.802
315.508
315.222
314.963
314.771
310.576
310.712
310.897
311.101
311.311
311.517
311.707
311.867
311.983
312.044
312.044
311.983
311.867
311.707
311.517
311.311
311.101
310.897
310.712
310.576
306.361
306.442
306.553
306.675
306.801
306.925
307.039
307.135
307.205
307.242
307.242
307.205
307.135
307.039
306.925
306.801
306.675
306.553
306.442
306.361
302.134
302.161
302.198
302.239
302.281
302.323
302.361
302.393
302.416
302.429
302.429
302.416
302.393
302.361
302.323
302.281
302.239
302.198
302.161
302.134
331.291
331.729
332.289
332.898
333.526
334.141
334.708
335.187
335.535
335.719
335.719
335.535
335.187
334.708
334.141
333.526
332.898
332.289
331.729
331.291
327.244
327.615
328.098
328.625
329.168
329.7
330.191
330.604
330.905
331.064
331.064
330.905
330.604
330.191
329.7
329.168
328.625
328.098
327.615
327.244
323.144
323.452
323.859
324.304
324.763
325.213
325.627
325.976
326.23
326.364
326.364
326.23
325.976
325.627
325.213
324.763
324.304
323.859
323.452
323.144
319
319.248
319.579
319.943
320.318
320.686
321.024
321.309
321.517
321.626
321.626
321.517
321.309
321.024
320.686
320.318
319.943
319.579
319.248
319
314.819
315.01
315.267
315.55
315.841
316.127
316.39
316.611
316.772
316.857
316.857
316.772
316.611
316.39
316.127
315.841
315.55
315.267
315.01
314.819
310.611
310.745
310.929
311.131
311.339
311.543
311.73
311.888
312.003
312.064
312.064
312.003
311.888
311.73
311.543
311.339
311.131
310.929
310.745
310.611
306.382
306.462
306.572
306.693
306.818
306.941
307.053
307.148
307.217
307.253
307.253
307.217
307.148
307.053
306.941
306.818
306.693
306.572
306.462
306.382
302.141
302.167
302.204
302.245
302.287
302.328
302.366
302.397
302.42
302.433
302.433
302.42
302.397
302.366
302.328
302.287
302.245
302.204
302.167
302.141
331.496
331.927
332.477
333.076
333.69
334.292
334.846
335.313
335.653
335.832
335.832
335.653
335.313
334.846
334.292
333.69
333.076
332.477
331.927
331.496
327.422
327.788
328.262
328.78
329.312
329.832
330.312
330.715
331.008
331.163
331.163
331.008
330.715
330.312
329.832
329.312
328.78
328.262
327.788
327.422
323.296
323.599
323.999
324.436
324.885
325.325
325.73
326.071
326.318
326.449
326.449
326.318
326.071
325.73
325.325
324.885
324.436
323.999
323.599
323.296
319.124
319.368
319.694
320.052
320.419
320.779
321.109
321.387
321.589
321.696
321.696
321.589
321.387
321.109
320.779
320.419
320.052
319.694
319.368
319.124
314.916
315.104
315.357
315.634
315.92
316.199
316.456
316.672
316.829
316.912
316.912
316.829
316.672
316.456
316.199
315.92
315.634
315.357
315.104
314.916
310.68
310.813
310.993
311.191
311.395
311.595
311.778
311.932
312.044
312.103
312.103
312.044
311.932
311.778
311.595
311.395
311.191
310.993
310.813
310.68
306.423
306.503
306.611
306.73
306.852
306.972
307.082
307.175
307.242
307.277
307.277
307.242
307.175
307.082
306.972
306.852
306.73
306.611
306.503
306.423
302.155
302.181
302.217
302.257
302.298
302.338
302.375
302.406
302.429
302.441
302.441
302.429
302.406
302.375
302.338
302.298
302.257
302.217
302.181
302.155
331.804
332.226
332.762
333.344
333.941
334.523
335.059
335.509
335.836
336.008
336.008
335.836
335.509
335.059
334.523
333.941
333.344
332.762
332.226
331.804
327.691
328.048
328.51
329.014
329.53
330.034
330.497
330.886
331.169
331.317
331.317
331.169
330.886
330.497
330.034
329.53
329.014
328.51
328.048
327.691
323.524
323.82
324.21
324.635
325.071
325.497
325.888
326.217
326.455
326.581
326.581
326.455
326.217
325.888
325.497
325.071
324.635
324.21
323.82
323.524
319.312
319.55
319.868
320.215
320.572
320.92
321.24
321.508
321.703
321.805
321.805
321.703
321.508
321.24
320.92
320.572
320.215
319.868
319.55
319.312
315.062
315.245
315.492
315.762
316.039
316.31
316.558
316.767
316.918
316.997
316.997
316.918
316.767
316.558
316.31
316.039
315.762
315.492
315.245
315.062
310.785
310.914
311.09
311.283
311.481
311.674
311.851
312
312.108
312.165
312.165
312.108
312
311.851
311.674
311.481
311.283
311.09
310.914
310.785
306.486
306.564
306.669
306.785
306.904
307.02
307.126
307.215
307.28
307.314
307.314
307.28
307.215
307.126
307.02
306.904
306.785
306.669
306.564
306.486
302.176
302.201
302.237
302.276
302.315
302.354
302.39
302.42
302.442
302.453
302.453
302.442
302.42
302.39
302.354
302.315
302.276
302.237
302.201
302.176
332.218
332.627
333.145
333.706
334.28
334.838
335.35
335.779
336.09
336.254
336.254
336.09
335.779
335.35
334.838
334.28
333.706
333.145
332.627
332.218
328.051
328.397
328.844
329.33
329.826
330.309
330.752
331.123
331.392
331.533
331.533
331.392
331.123
330.752
330.309
329.826
329.33
328.844
328.397
328.051
323.829
324.116
324.493
324.904
325.323
325.732
326.106
326.419
326.646
326.765
326.765
326.646
326.419
326.106
325.732
325.323
324.904
324.493
324.116
323.829
319.562
319.793
320.101
320.436
320.779
321.113
321.418
321.674
321.86
321.957
321.957
321.86
321.674
321.418
321.113
320.779
320.436
320.101
319.793
319.562
315.258
315.435
315.674
315.934
316.201
316.461
316.698
316.897
317.041
317.116
317.116
317.041
316.897
316.698
316.461
316.201
315.934
315.674
315.435
315.258
310.925
311.05
311.22
311.406
311.597
311.782
311.952
312.093
312.196
312.25
312.25
312.196
312.093
311.952
311.782
311.597
311.406
311.22
311.05
310.925
306.571
306.645
306.747
306.859
306.973
307.085
307.186
307.272
307.333
307.366
307.366
307.333
307.272
307.186
307.085
306.973
306.859
306.747
306.645
306.571
302.204
302.229
302.263
302.301
302.339
302.376
302.41
302.439
302.459
302.47
302.47
302.459
302.439
302.41
302.376
302.339
302.301
302.263
302.229
302.204
332.738
333.132
333.629
334.166
334.712
335.243
335.727
336.132
336.424
336.578
336.578
336.424
336.132
335.727
335.243
334.712
334.166
333.629
333.132
332.738
328.504
328.837
329.266
329.73
330.203
330.662
331.081
331.431
331.684
331.817
331.817
331.684
331.431
331.081
330.662
330.203
329.73
329.266
328.837
328.504
324.214
324.49
324.852
325.245
325.644
326.032
326.386
326.682
326.895
327.008
327.008
326.895
326.682
326.386
326.032
325.644
325.245
324.852
324.49
324.214
319.878
320.1
320.395
320.716
321.043
321.36
321.649
321.891
322.065
322.157
322.157
322.065
321.891
321.649
321.36
321.043
320.716
320.395
320.1
319.878
315.504
315.675
315.904
316.153
316.407
316.654
316.879
317.066
317.202
317.273
317.273
317.202
317.066
316.879
316.654
316.407
316.153
315.904
315.675
315.504
311.101
311.222
311.385
311.563
311.744
311.92
312.081
312.215
312.312
312.363
312.363
312.312
312.215
312.081
311.92
311.744
311.563
311.385
311.222
311.101
306.676
306.749
306.846
306.953
307.062
307.168
307.264
307.345
307.403
307.433
307.433
307.403
307.345
307.264
307.168
307.062
306.953
306.846
306.749
306.676
302.239
302.264
302.296
302.332
302.369
302.404
302.436
302.463
302.483
302.493
302.493
302.483
302.463
302.436
302.404
302.369
302.332
302.296
302.264
302.239
333.367
333.743
334.217
334.727
335.243
335.742
336.196
336.574
336.847
336.99
336.99
336.847
336.574
336.196
335.742
335.243
334.727
334.217
333.743
333.367
329.051
329.369
329.778
330.219
330.666
331.098
331.491
331.818
332.054
332.178
332.178
332.054
331.818
331.491
331.098
330.666
330.219
329.778
329.369
329.051
324.679
324.943
325.288
325.66
326.038
326.403
326.735
327.012
327.211
327.315
327.315
327.211
327.012
326.735
326.403
326.038
325.66
325.288
324.943
324.679
320.259
320.472
320.753
321.058
321.367
321.665
321.937
322.163
322.325
322.411
322.411
322.325
322.163
321.937
321.665
321.367
321.058
320.753
320.472
320.259
315.802
315.965
316.183
316.42
316.66
316.892
317.103
317.279
317.405
317.471
317.471
317.405
317.279
317.103
316.892
316.66
316.42
316.183
315.965
315.802
311.314
311.429
311.585
311.754
311.925
312.091
312.242
312.367
312.457
312.505
312.505
312.457
312.367
312.242
312.091
311.925
311.754
311.585
311.429
311.314
306.804
306.873
306.967
307.068
307.171
307.271
307.361
307.437
307.491
307.519
307.519
307.491
307.437
307.361
307.271
307.171
307.068
306.967
306.873
306.804
302.282
302.305
302.337
302.371
302.405
302.439
302.469
302.494
302.512
302.522
302.522
302.512
302.494
302.469
302.439
302.405
302.371
302.337
302.305
302.282
334.106
334.464
334.912
335.392
335.877
336.343
336.765
337.115
337.367
337.499
337.499
337.367
337.115
336.765
336.343
335.877
335.392
334.912
334.464
334.106
329.694
329.997
330.384
330.799
331.219
331.622
331.988
332.291
332.509
332.623
332.623
332.509
332.291
331.988
331.622
331.219
330.799
330.384
329.997
329.694
325.225
325.476
325.802
326.153
326.508
326.849
327.158
327.414
327.598
327.695
327.695
327.598
327.414
327.158
326.849
326.508
326.153
325.802
325.476
325.225
320.708
320.91
321.176
321.463
321.753
322.032
322.285
322.494
322.644
322.723
322.723
322.644
322.494
322.285
322.032
321.753
321.463
321.176
320.91
320.708
316.151
316.306
316.513
316.736
316.961
317.178
317.375
317.537
317.654
317.716
317.716
317.654
317.537
317.375
317.178
316.961
316.736
316.513
316.306
316.151
311.564
311.674
311.821
311.98
312.142
312.296
312.437
312.553
312.636
312.68
312.68
312.636
312.553
312.437
312.296
312.142
311.98
311.821
311.674
311.564
306.955
307.02
307.109
307.204
307.301
307.394
307.478
307.548
307.598
307.625
307.625
307.598
307.548
307.478
307.394
307.301
307.204
307.109
307.02
306.955
302.333
302.355
302.384
302.416
302.449
302.48
302.508
302.532
302.548
302.557
302.557
302.548
302.532
302.508
302.48
302.449
302.416
302.384
302.355
302.333
334.958
335.295
335.718
336.167
336.619
337.051
337.44
337.762
337.993
338.114
338.114
337.993
337.762
337.44
337.051
336.619
336.167
335.718
335.295
334.958
330.435
330.721
331.085
331.475
331.865
332.24
332.577
332.856
333.056
333.16
333.16
333.056
332.856
332.577
332.24
331.865
331.475
331.085
330.721
330.435
325.855
326.091
326.399
326.727
327.058
327.375
327.66
327.895
328.064
328.153
328.153
328.064
327.895
327.66
327.375
327.058
326.727
326.399
326.091
325.855
321.224
321.415
321.666
321.934
322.205
322.464
322.697
322.89
323.028
323.1
323.1
323.028
322.89
322.697
322.464
322.205
321.934
321.666
321.415
321.224
316.554
316.7
316.895
317.104
317.314
317.515
317.697
317.846
317.954
318.01
318.01
317.954
317.846
317.697
317.515
317.314
317.104
316.895
316.7
316.554
311.852
311.956
312.095
312.244
312.394
312.538
312.667
312.774
312.851
312.891
312.891
312.851
312.774
312.667
312.538
312.394
312.244
312.095
311.956
311.852
307.128
307.19
307.273
307.363
307.453
307.54
307.617
307.682
307.728
307.752
307.752
307.728
307.682
307.617
307.54
307.453
307.363
307.273
307.19
307.128
302.391
302.412
302.44
302.47
302.5
302.529
302.555
302.576
302.592
302.6
302.6
302.592
302.576
302.555
302.529
302.5
302.47
302.44
302.412
302.391
335.924
336.241
336.637
337.055
337.473
337.871
338.228
338.522
338.733
338.842
338.842
338.733
338.522
338.228
337.871
337.473
337.055
336.637
336.241
335.924
331.276
331.545
331.886
332.248
332.61
332.955
333.264
333.519
333.701
333.796
333.796
333.701
333.519
333.264
332.955
332.61
332.248
331.886
331.545
331.276
326.569
326.791
327.079
327.385
327.691
327.983
328.245
328.46
328.614
328.694
328.694
328.614
328.46
328.245
327.983
327.691
327.385
327.079
326.791
326.569
321.811
321.99
322.224
322.474
322.725
322.964
323.178
323.354
323.48
323.545
323.545
323.48
323.354
323.178
322.964
322.725
322.474
322.224
321.99
321.811
317.011
317.149
317.33
317.525
317.72
317.906
318.072
318.209
318.307
318.358
318.358
318.307
318.209
318.072
317.906
317.72
317.525
317.33
317.149
317.011
312.18
312.277
312.407
312.546
312.685
312.818
312.936
313.034
313.104
313.14
313.14
313.104
313.034
312.936
312.818
312.685
312.546
312.407
312.277
312.18
307.325
307.383
307.461
307.545
307.628
307.708
307.779
307.838
307.88
307.902
307.902
307.88
307.838
307.779
307.708
307.628
307.545
307.461
307.383
307.325
302.457
302.476
302.503
302.53
302.559
302.585
302.609
302.629
302.643
302.65
302.65
302.643
302.629
302.609
302.585
302.559
302.53
302.503
302.476
302.457
337.007
337.304
337.672
338.059
338.444
338.809
339.135
339.402
339.592
339.691
339.691
339.592
339.402
339.135
338.809
338.444
338.059
337.672
337.304
337.007
332.219
332.47
332.787
333.123
333.457
333.773
334.055
334.286
334.451
334.537
334.537
334.451
334.286
334.055
333.773
333.457
333.123
332.787
332.47
332.219
327.369
327.577
327.845
328.129
328.411
328.678
328.917
329.113
329.252
329.325
329.325
329.252
329.113
328.917
328.678
328.411
328.129
327.845
327.577
327.369
322.467
322.635
322.853
323.085
323.316
323.535
323.73
323.89
324.004
324.063
324.063
324.004
323.89
323.73
323.535
323.316
323.085
322.853
322.635
322.467
317.523
317.652
317.821
318.002
318.181
318.351
318.503
318.628
318.716
318.763
318.763
318.716
318.628
318.503
318.351
318.181
318.002
317.821
317.652
317.523
312.546
312.637
312.758
312.887
313.015
313.137
313.245
313.334
313.398
313.431
313.431
313.398
313.334
313.245
313.137
313.015
312.887
312.758
312.637
312.546
307.546
307.6
307.672
307.75
307.827
307.9
307.965
308.019
308.057
308.076
308.076
308.057
308.019
307.965
307.9
307.827
307.75
307.672
307.6
307.546
302.531
302.549
302.573
302.599
302.625
302.65
302.672
302.689
302.702
302.709
302.709
302.702
302.689
302.672
302.65
302.625
302.599
302.573
302.549
302.531
338.208
338.485
338.826
339.183
339.536
339.869
340.164
340.406
340.577
340.667
340.667
340.577
340.406
340.164
339.869
339.536
339.183
338.826
338.485
338.208
333.264
333.498
333.792
334.102
334.408
334.696
334.952
335.161
335.31
335.387
335.387
335.31
335.161
334.952
334.696
334.408
334.102
333.792
333.498
333.264
328.257
328.451
328.699
328.96
329.219
329.463
329.68
329.857
329.983
330.048
330.048
329.983
329.857
329.68
329.463
329.219
328.96
328.699
328.451
328.257
323.196
323.352
323.554
323.768
323.98
324.18
324.357
324.502
324.605
324.658
324.658
324.605
324.502
324.357
324.18
323.98
323.768
323.554
323.352
323.196
318.092
318.211
318.368
318.535
318.699
318.855
318.993
319.105
319.185
319.227
319.227
319.185
319.105
318.993
318.855
318.699
318.535
318.368
318.211
318.092
312.953
313.038
313.15
313.269
313.386
313.497
313.596
313.676
313.733
313.763
313.763
313.733
313.676
313.596
313.497
313.386
313.269
313.15
313.038
312.953
307.79
307.841
307.908
307.979
308.05
308.117
308.176
308.224
308.259
308.276
308.276
308.259
308.224
308.176
308.117
308.05
307.979
307.908
307.841
307.79
302.613
302.63
302.652
302.676
302.7
302.722
302.742
302.758
302.77
302.776
302.776
302.77
302.758
302.742
302.722
302.7
302.676
302.652
302.63
302.613
339.529
339.785
340.1
340.428
340.751
341.053
341.321
341.538
341.692
341.772
341.772
341.692
341.538
341.321
341.053
340.751
340.428
340.1
339.785
339.529
334.413
334.63
334.902
335.186
335.466
335.728
335.96
336.148
336.282
336.351
336.351
336.282
336.148
335.96
335.728
335.466
335.186
334.902
334.63
334.413
329.233
329.412
329.641
329.882
330.119
330.34
330.536
330.696
330.809
330.867
330.867
330.809
330.696
330.536
330.34
330.119
329.882
329.641
329.412
329.233
323.997
324.142
324.328
324.525
324.719
324.9
325.061
325.191
325.283
325.331
325.331
325.283
325.191
325.061
324.9
324.719
324.525
324.328
324.142
323.997
318.716
318.827
318.972
319.125
319.276
319.417
319.542
319.643
319.715
319.752
319.752
319.715
319.643
319.542
319.417
319.276
319.125
318.972
318.827
318.716
313.4
313.479
313.582
313.691
313.799
313.9
313.989
314.062
314.113
314.139
314.139
314.113
314.062
313.989
313.9
313.799
313.691
313.582
313.479
313.4
308.059
308.106
308.168
308.234
308.298
308.359
308.413
308.456
308.487
308.503
308.503
308.487
308.456
308.413
308.359
308.298
308.234
308.168
308.106
308.059
302.703
302.719
302.74
302.762
302.783
302.804
302.822
302.836
302.847
302.852
302.852
302.847
302.836
302.822
302.804
302.783
302.762
302.74
302.719
302.703
340.969
341.206
341.496
341.797
342.09
342.364
342.605
342.801
342.938
343.01
343.01
342.938
342.801
342.605
342.364
342.09
341.797
341.496
341.206
340.969
335.667
335.867
336.117
336.377
336.632
336.87
337.079
337.248
337.367
337.429
337.429
337.367
337.248
337.079
336.87
336.632
336.377
336.117
335.867
335.667
330.297
330.463
330.674
330.894
331.109
331.31
331.487
331.631
331.732
331.784
331.784
331.732
331.631
331.487
331.31
331.109
330.894
330.674
330.463
330.297
324.87
325.004
325.176
325.356
325.532
325.697
325.841
325.959
326.041
326.084
326.084
326.041
325.959
325.841
325.697
325.532
325.356
325.176
325.004
324.87
319.397
319.499
319.633
319.773
319.91
320.038
320.151
320.242
320.306
320.34
320.34
320.306
320.242
320.151
320.038
319.91
319.773
319.633
319.499
319.397
313.887
313.96
314.055
314.155
314.253
314.345
314.425
314.49
314.536
314.56
314.56
314.536
314.49
314.425
314.345
314.253
314.155
314.055
313.96
313.887
308.352
308.396
308.453
308.513
308.572
308.627
308.675
308.714
308.742
308.756
308.756
308.742
308.714
308.675
308.627
308.572
308.513
308.453
308.396
308.352
302.801
302.816
302.835
302.855
302.875
302.893
302.91
302.923
302.932
302.937
302.937
302.932
302.923
302.91
302.893
302.875
302.855
302.835
302.816
302.801
342.527
342.746
343.012
343.286
343.553
343.801
344.017
344.192
344.315
344.379
344.379
344.315
344.192
344.017
343.801
343.553
343.286
343.012
342.746
342.527
337.022
337.206
337.436
337.674
337.905
338.12
338.308
338.46
338.566
338.621
338.621
338.566
338.46
338.308
338.12
337.905
337.674
337.436
337.206
337.022
331.447
331.6
331.794
331.995
332.191
332.372
332.532
332.66
332.75
332.797
332.797
332.75
332.66
332.532
332.372
332.191
331.995
331.794
331.6
331.447
325.813
325.937
326.095
326.259
326.419
326.568
326.698
326.804
326.877
326.916
326.916
326.877
326.804
326.698
326.568
326.419
326.259
326.095
325.937
325.813
320.132
320.227
320.349
320.477
320.602
320.718
320.819
320.901
320.958
320.988
320.988
320.958
320.901
320.819
320.718
320.602
320.477
320.349
320.227
320.132
314.414
314.481
314.568
314.659
314.749
314.831
314.904
314.962
315.003
315.025
315.025
315.003
314.962
314.904
314.831
314.749
314.659
314.568
314.481
314.414
308.669
308.709
308.761
308.816
308.869
308.919
308.963
308.998
309.022
309.035
309.035
309.022
308.998
308.963
308.919
308.869
308.816
308.761
308.709
308.669
302.908
302.921
302.939
302.957
302.975
302.992
303.006
303.018
303.026
303.03
303.03
303.026
303.018
303.006
302.992
302.975
302.957
302.939
302.921
302.908
344.196
344.397
344.641
344.891
345.133
345.356
345.551
345.708
345.817
345.874
345.874
345.817
345.708
345.551
345.356
345.133
344.891
344.641
344.397
344.196
338.472
338.642
338.852
339.069
339.279
339.473
339.642
339.777
339.873
339.922
339.922
339.873
339.777
339.642
339.473
339.279
339.069
338.852
338.642
338.472
332.677
332.818
332.995
333.179
333.356
333.52
333.663
333.778
333.859
333.901
333.901
333.859
333.778
333.663
333.52
333.356
333.179
332.995
332.818
332.677
326.822
326.935
327.08
327.23
327.375
327.51
327.627
327.721
327.787
327.821
327.821
327.787
327.721
327.627
327.51
327.375
327.23
327.08
326.935
326.822
320.918
321.005
321.117
321.234
321.347
321.452
321.543
321.616
321.667
321.694
321.694
321.667
321.616
321.543
321.452
321.347
321.234
321.117
321.005
320.918
314.976
315.037
315.117
315.201
315.282
315.356
315.421
315.474
315.511
315.529
315.529
315.511
315.474
315.421
315.356
315.282
315.201
315.117
315.037
314.976
309.006
309.043
309.091
309.141
309.19
309.235
309.274
309.305
309.327
309.339
309.339
309.327
309.305
309.274
309.235
309.19
309.141
309.091
309.043
309.006
303.021
303.033
303.049
303.066
303.082
303.097
303.111
303.121
303.128
303.132
303.132
303.128
303.121
303.111
303.097
303.082
303.066
303.049
303.033
303.021
345.956
346.141
346.364
346.592
346.811
347.013
347.188
347.328
347.426
347.477
347.477
347.426
347.328
347.188
347.013
346.811
346.592
346.364
346.141
345.956
339.999
340.155
340.348
340.545
340.736
340.91
341.062
341.184
341.269
341.313
341.313
341.269
341.184
341.062
340.91
340.736
340.545
340.348
340.155
339.999
333.97
334.099
334.262
334.429
334.59
334.738
334.867
334.97
335.042
335.079
335.079
335.042
334.97
334.867
334.738
334.59
334.429
334.262
334.099
333.97
327.88
327.984
328.117
328.254
328.386
328.507
328.612
328.696
328.755
328.786
328.786
328.755
328.696
328.612
328.507
328.386
328.254
328.117
327.984
327.88
321.741
321.821
321.924
322.031
322.133
322.228
322.31
322.375
322.421
322.445
322.445
322.421
322.375
322.31
322.228
322.133
322.031
321.924
321.821
321.741
315.564
315.621
315.694
315.77
315.844
315.911
315.97
316.017
316.049
316.066
316.066
316.049
316.017
315.97
315.911
315.844
315.77
315.694
315.621
315.564
309.36
309.394
309.438
309.483
309.528
309.568
309.603
309.631
309.651
309.661
309.661
309.651
309.631
309.603
309.568
309.528
309.483
309.438
309.394
309.36
303.139
303.151
303.165
303.181
303.196
303.209
303.221
303.23
303.237
303.24
303.24
303.237
303.23
303.221
303.209
303.196
303.181
303.165
303.151
303.139
347.76
347.93
348.135
348.343
348.542
348.724
348.882
349.008
349.095
349.14
349.14
349.095
349.008
348.882
348.724
348.542
348.343
348.135
347.93
347.76
341.556
341.7
341.877
342.057
342.23
342.388
342.525
342.634
342.71
342.75
342.75
342.71
342.634
342.525
342.388
342.23
342.057
341.877
341.7
341.556
335.283
335.402
335.551
335.704
335.851
335.985
336.1
336.193
336.257
336.291
336.291
336.257
336.193
336.1
335.985
335.851
335.704
335.551
335.402
335.283
328.951
329.047
329.169
329.294
329.414
329.524
329.619
329.694
329.747
329.774
329.774
329.747
329.694
329.619
329.524
329.414
329.294
329.169
329.047
328.951
322.572
322.646
322.74
322.838
322.931
323.017
323.091
323.15
323.191
323.212
323.212
323.191
323.15
323.091
323.017
322.931
322.838
322.74
322.646
322.572
316.157
316.209
316.276
316.346
316.413
316.474
316.527
316.569
316.598
316.613
316.613
316.598
316.569
316.527
316.474
316.413
316.346
316.276
316.209
316.157
309.715
309.747
309.787
309.829
309.869
309.906
309.937
309.963
309.98
309.99
309.99
309.98
309.963
309.937
309.906
309.869
309.829
309.787
309.747
309.715
303.258
303.269
303.282
303.296
303.31
303.322
303.333
303.341
303.347
303.35
303.35
303.347
303.341
303.333
303.322
303.31
303.296
303.282
303.269
303.258
349.489
349.647
349.835
350.026
350.209
350.375
350.518
350.631
350.711
350.751
350.751
350.711
350.631
350.518
350.375
350.209
350.026
349.835
349.647
349.489
343.031
343.164
343.327
343.493
343.652
343.796
343.92
344.019
344.088
344.124
344.124
344.088
344.019
343.92
343.796
343.652
343.493
343.327
343.164
343.031
336.513
336.623
336.761
336.902
337.036
337.159
337.264
337.348
337.407
337.437
337.437
337.407
337.348
337.264
337.159
337.036
336.902
336.761
336.623
336.513
329.945
330.034
330.147
330.262
330.372
330.473
330.559
330.628
330.676
330.701
330.701
330.676
330.628
330.559
330.473
330.372
330.262
330.147
330.034
329.945
323.338
323.406
323.493
323.583
323.669
323.747
323.815
323.868
323.906
323.925
323.925
323.906
323.868
323.815
323.747
323.669
323.583
323.493
323.406
323.338
316.7
316.748
316.81
316.874
316.936
316.992
317.04
317.079
317.105
317.119
317.119
317.105
317.079
317.04
316.992
316.936
316.874
316.81
316.748
316.7
310.04
310.069
310.106
310.145
310.182
310.215
310.244
310.267
310.283
310.292
310.292
310.283
310.267
310.244
310.215
310.182
310.145
310.106
310.069
310.04
303.367
303.377
303.389
303.402
303.414
303.426
303.435
303.443
303.449
303.451
303.451
303.449
303.443
303.435
303.426
303.414
303.402
303.389
303.377
303.367
350.836
350.984
351.162
351.341
351.511
351.666
351.799
351.905
351.978
352.016
352.016
351.978
351.905
351.799
351.666
351.511
351.341
351.162
350.984
350.836
344.137
344.262
344.416
344.572
344.721
344.856
344.972
345.064
345.128
345.161
345.161
345.128
345.064
344.972
344.856
344.721
344.572
344.416
344.262
344.137
337.407
337.511
337.642
337.774
337.901
338.016
338.114
338.193
338.247
338.275
338.275
338.247
338.193
338.114
338.016
337.901
337.774
337.642
337.511
337.407
330.65
330.735
330.841
330.95
331.054
331.148
331.23
331.294
331.339
331.362
331.362
331.339
331.294
331.23
331.148
331.054
330.95
330.841
330.735
330.65
323.871
323.935
324.018
324.103
324.184
324.258
324.321
324.372
324.407
324.425
324.425
324.407
324.372
324.321
324.258
324.184
324.103
324.018
323.935
323.871
317.072
317.118
317.177
317.238
317.296
317.349
317.395
317.431
317.456
317.469
317.469
317.456
317.431
317.395
317.349
317.296
317.238
317.177
317.118
317.072
310.26
310.288
310.323
310.36
310.395
310.427
310.454
310.476
310.491
310.499
310.499
310.491
310.476
310.454
310.427
310.395
310.36
310.323
310.288
310.26
303.44
303.45
303.461
303.474
303.485
303.496
303.505
303.513
303.518
303.52
303.52
303.518
303.513
303.505
303.496
303.485
303.474
303.461
303.45
303.44
)
;

boundaryField
{
    hotSide
    {
        type            fixedGradient;
        gradient        nonuniform List<scalar> 
400
(
317.833
318.88
320.98
324.141
328.377
333.703
340.139
347.706
356.424
366.314
377.398
389.694
403.221
417.994
434.027
451.333
469.921
489.799
510.974
533.451
323.651
324.653
326.662
329.691
333.758
338.885
345.095
352.416
360.875
370.499
381.314
393.344
406.61
421.13
436.922
453.999
472.371
492.047
513.035
535.338
329.948
330.895
332.796
335.669
339.536
344.427
350.373
357.409
365.57
374.89
385.4
397.129
410.104
424.345
439.872
456.7
474.84
494.301
515.089
537.21
336.619
337.502
339.278
341.969
345.607
350.227
355.872
362.585
370.411
379.391
389.564
400.965
413.623
427.564
442.809
459.373
477.27
496.507
517.091
539.024
343.478
344.288
345.924
348.412
351.793
356.114
361.427
367.788
375.251
383.866
393.679
404.733
417.06
430.69
445.644
461.94
479.59
498.602
518.982
540.731
350.238
350.971
352.457
354.729
357.838
361.843
366.809
372.803
379.89
388.131
397.581
408.284
420.281
433.603
448.272
464.306
481.718
500.515
520.7
542.274
356.513
357.169
358.504
360.562
363.402
367.096
371.722
377.36
384.085
391.969
401.071
411.446
423.134
436.169
450.575
466.371
483.567
502.169
522.18
543.598
361.838
362.425
363.626
365.49
368.09
371.507
375.832
381.155
387.564
395.137
403.941
414.032
425.457
438.25
452.436
468.032
485.048
503.49
523.357
544.649
365.736
366.269
367.366
369.084
371.5
374.707
378.805
383.893
390.065
397.406
405.988
415.872
427.104
439.72
453.746
469.198
486.085
504.412
524.177
545.378
367.801
368.306
369.346
370.984
373.3
376.393
380.368
385.329
391.374
398.591
407.056
416.829
427.959
440.482
454.424
469.8
486.619
504.886
524.598
545.752
367.801
368.306
369.346
370.984
373.3
376.393
380.368
385.329
391.374
398.591
407.056
416.829
427.959
440.482
454.424
469.8
486.619
504.886
524.598
545.752
365.736
366.269
367.366
369.084
371.5
374.707
378.805
383.893
390.065
397.406
405.988
415.872
427.104
439.72
453.746
469.198
486.085
504.412
524.177
545.378
361.838
362.425
363.626
365.49
368.09
371.507
375.832
381.155
387.564
395.137
403.941
414.032
425.457
438.25
452.436
468.032
485.048
503.49
523.357
544.649
356.513
357.169
358.504
360.562
363.402
367.096
371.722
377.36
384.085
391.969
401.071
411.446
423.134
436.169
450.575
466.371
483.567
502.169
522.18
543.598
350.238
350.971
352.457
354.729
357.838
361.843
366.809
372.803
379.89
388.131
397.581
408.284
420.281
433.603
448.272
464.306
481.718
500.515
520.7
542.274
343.478
344.288
345.924
348.412
351.793
356.114
361.427
367.788
375.251
383.866
393.679
404.733
417.06
430.69
445.644
461.94
479.59
498.602
518.982
540.731
336.619
337.502
339.278
341.969
345.607
350.227
355.872
362.585
370.411
379.391
389.564
400.965
413.623
427.564
442.809
459.373
477.27
496.507
517.091
539.024
329.948
330.895
332.796
335.669
339.536
344.427
350.373
357.409
365.57
374.89
385.4
397.129
410.104
424.345
439.872
456.7
474.84
494.301
515.089
537.21
323.651
324.653
326.662
329.691
333.758
338.885
345.095
352.416
360.875
370.499
381.314
393.344
406.61
421.13
436.922
453.999
472.371
492.047
513.035
535.338
317.833
318.88
320.98
324.141
328.377
333.703
340.139
347.706
356.424
366.314
377.398
389.694
403.221
417.994
434.027
451.333
469.921
489.799
510.974
533.451
)
;
    }
    coldSide
    {
        type            mixed;
        refValue        uniform 300;
        refGradient     uniform 0;
        valueFraction   uniform 0.991591;
        source          uniform 0;
        value           nonuniform List<scalar> 
400
(
300.018
300.018
300.018
300.018
300.019
300.019
300.019
300.02
300.02
300.021
300.021
300.022
300.023
300.024
300.024
300.025
300.026
300.027
300.028
300.029
300.018
300.018
300.018
300.019
300.019
300.019
300.019
300.02
300.02
300.021
300.021
300.022
300.023
300.024
300.025
300.026
300.026
300.027
300.028
300.029
300.018
300.019
300.019
300.019