/*--------------------------------*- C++ -*----------------------------------*\
| =========                 |                                                 |
| \\      /  F ield         | OpenFOAM: The Open Source CFD Toolbox           |
|  \\    /   O peration     | Version:  2212                                  |
|   \\  /    A nd           | Website:  www.openfoam.com                      |
|    \\/     M anipulation  |                                                 |
\*---------------------------------------------------------------------------*/
FoamFile
{
    version     2.0;
    format      ascii;
    arch        "LSB;label=32;scalar=64";
    class       volScalarField;
    location    "0";
    object      Ttrue;
}
// * * * * * * * * * * * * * * * * * * * * * * * * * * * * * * * * * * * * * //

dimensions      [0 0 0 1 0 0 0];

internalField   nonuniform List<scalar> 
3200
(
319.409
319.786
320.267
320.791
321.331
321.861
322.351
322.764
323.064
323.223
323.223
323.064
322.764
322.351
321.861
321.331
320.791
320.267
319.786
319.409
316.879
317.198
317.613
318.067
318.534
318.992
319.415
319.772
320.032
320.169
320.169
320.032
319.772
319.415
318.992
318.534
318.067
317.613
317.198
316.879
314.325
314.59
314.939
315.323
315.718
316.105
316.462
316.763
316.982
317.098
317.098
316.982
316.763
316.462
316.105
315.718
315.323
314.939
314.59
314.325
311.751
311.964
312.249
312.562
312.885
313.201
313.493
313.739
313.918
314.012
314.012
313.918
313.739
313.493
313.201
312.885
312.562
312.249
311.964
311.751
309.16
309.323
309.544
309.788
310.039
310.285
310.511
310.702
310.841
310.914
310.914
310.841
310.702
310.511
310.285
310.039
309.788
309.544
309.323
309.16
306.555
306.671
306.829
307.002
307.182
307.357
307.519
307.655
307.754
307.807
307.807
307.754
307.655
307.519
307.357
307.182
307.002
306.829
306.671
306.555
303.941
304.011
304.105
304.209
304.317
304.422
304.519
304.601
304.661
304.692
304.692
304.661
304.601
304.519
304.422
304.317
304.209
304.105
304.011
303.941
301.322
301.345
301.377
301.412
301.448
301.483
301.515
301.543
301.563
301.573
301.573
301.563
301.543
301.515
301.483
301.448
301.412
301.377
301.345
301.322
319.462
319.836
320.313
320.832
321.367
321.891
322.374
322.782
323.079
323.236
323.236
323.079
322.782
322.374
321.891
321.367
320.832
320.313
319.836
319.462
316.925
317.242
317.653
318.102
318.565
319.018
319.436
319.789
320.045
320.181
320.181
320.045
319.789
319.436
319.018
318.565
318.102
317.653
317.242
316.925
314.364
314.627
314.973
315.353
315.744
316.127
316.48
316.777
316.994
317.108
317.108
316.994
316.777
316.48
316.127
315.744
315.353
314.973
314.627
314.364
311.783
311.994
312.277
312.587
312.906
313.22
313.508
313.751
313.927
314.021
314.021
313.927
313.751
313.508
313.22
312.906
312.587
312.277
311.994
311.783
309.185
309.347
309.566
309.807
310.055
310.299
310.523
310.711
310.848
310.921
310.921
310.848
310.711
310.523
310.299
310.055
309.807
309.566
309.347
309.185
306.573
306.688
306.844
307.016
307.194
307.367
307.527
307.662
307.76
307.811
307.811
307.76
307.662
307.527
307.367
307.194
307.016
306.844
306.688
306.573
303.952
304.021
304.114
304.218
304.324
304.429
304.524
304.605
304.664
304.695
304.695
304.664
304.605
304.524
304.429
304.324
304.218
304.114
304.021
303.952
301.325
301.348
301.38
301.414
301.45
301.485
301.517
301.544
301.564
301.574
301.574
301.564
301.544
301.517
301.485
301.45
301.414
301.38
301.348
301.325
319.568
319.936
320.405
320.915
321.439
321.952
322.424
322.822
323.111
323.264
323.264
323.111
322.822
322.424
321.952
321.439
320.915
320.405
319.936
319.568
317.017
317.329
317.733
318.174
318.628
319.071
319.48
319.824
320.073
320.205
320.205
320.073
319.824
319.48
319.071
318.628
318.174
317.733
317.329
317.017
314.442
314.701
315.042
315.414
315.797
316.172
316.517
316.807
317.018
317.129
317.129
317.018
316.807
316.517
316.172
315.797
315.414
315.042
314.701
314.442
311.847
312.055
312.333
312.637
312.95
313.257
313.539
313.776
313.948
314.039
314.039
313.948
313.776
313.539
313.257
312.95
312.637
312.333
312.055
311.847
309.235
309.394
309.61
309.846
310.09
310.328
310.547
310.731
310.865
310.935
310.935
310.865
310.731
310.547
310.328
310.09
309.846
309.61
309.394
309.235
306.609
306.722
306.875
307.044
307.218
307.388
307.545
307.676
307.771
307.822
307.822
307.771
307.676
307.545
307.388
307.218
307.044
306.875
306.722
306.609
303.974
304.041
304.133
304.235
304.339
304.441
304.535
304.614
304.671
304.701
304.701
304.671
304.614
304.535
304.441
304.339
304.235
304.133
304.041
303.974
301.333
301.355
301.386
301.42
301.455
301.489
301.521
301.547
301.566
301.576
301.576
301.566
301.547
301.521
301.489
301.455
301.42
301.386
301.355
301.333
319.729
320.088
320.545
321.041
321.549
322.046
322.502
322.886
323.164
323.311
323.311
323.164
322.886
322.502
322.046
321.549
321.041
320.545
320.088
319.729
317.157
317.461
317.855
318.284
318.724
319.154
319.548
319.88
320.12
320.247
320.247
320.12
319.88
319.548
319.154
318.724
318.284
317.855
317.461
317.157
314.561
314.813
315.145
315.508
315.879
316.242
316.576
316.856
317.059
317.166
317.166
317.059
316.856
316.576
316.242
315.879
315.508
315.145
314.813
314.561
311.944
312.147
312.418
312.714
313.018
313.315
313.587
313.815
313.981
314.069
314.069
313.981
313.815
313.587
313.315
313.018
312.714
312.418
312.147
311.944
309.31
309.466
309.676
309.906
310.143
310.373
310.585
310.762
310.891
310.959
310.959
310.891
310.762
310.585
310.373
310.143
309.906
309.676
309.466
309.31
306.663
306.773
306.923
307.087
307.256
307.421
307.572
307.699
307.79
307.839
307.839
307.79
307.699
307.572
307.421
307.256
307.087
306.923
306.773
306.663
304.006
304.072
304.162
304.26
304.362
304.461
304.551
304.627
304.683
304.712
304.712
304.683
304.627
304.551
304.461
304.362
304.26
304.162
304.072
304.006
301.344
301.366
301.396
301.429
301.463
301.496
301.526
301.552
301.57
301.58
301.58
301.57
301.552
301.526
301.496
301.463
301.429
301.396
301.366
301.344
319.945
320.293
320.735
321.213
321.702
322.177
322.613
322.979
323.244
323.384
323.384
323.244
322.979
322.613
322.177
321.702
321.213
320.735
320.293
319.945
317.344
317.639
318.02
318.434
318.857
319.269
319.646
319.962
320.191
320.312
320.312
320.191
319.962
319.646
319.269
318.857
318.434
318.02
317.639
317.344
314.719
314.964
315.285
315.635
315.992
316.34
316.659
316.926
317.119
317.221
317.221
317.119
316.926
316.659
316.34
315.992
315.635
315.285
314.964
314.719
312.074
312.271
312.533
312.819
313.111
313.395
313.656
313.874
314.032
314.115
314.115
314.032
313.874
313.656
313.395
313.111
312.819
312.533
312.271
312.074
309.411
309.563
309.766
309.988
310.215
310.436
310.638
310.808
310.93
310.995
310.995
310.93
310.808
310.638
310.436
310.215
309.988
309.766
309.563
309.411
306.735
306.842
306.987
307.146
307.308
307.466
307.61
307.731
307.819
307.865
307.865
307.819
307.731
307.61
307.466
307.308
307.146
306.987
306.842
306.735
304.05
304.114
304.2
304.296
304.393
304.488
304.575
304.647
304.7
304.727
304.727
304.7
304.647
304.575
304.488
304.393
304.296
304.2
304.114
304.05
301.358
301.379
301.409
301.44
301.473
301.505
301.534
301.558
301.576
301.585
301.585
301.576
301.558
301.534
301.505
301.473
301.44
301.409
301.379
301.358
320.217
320.552
320.976
321.434
321.899
322.351
322.763
323.108
323.358
323.489
323.489
323.358
323.108
322.763
322.351
321.899
321.434
320.976
320.552
320.217
317.581
317.864
318.23
318.626
319.029
319.42
319.777
320.075
320.291
320.404
320.404
320.291
320.075
319.777
319.42
319.029
318.626
318.23
317.864
317.581
314.92
315.155
315.464
315.798
316.139
316.469
316.771
317.023
317.205
317.301
317.301
317.205
317.023
316.771
316.469
316.139
315.798
315.464
315.155
314.92
312.238
312.428
312.679
312.953
313.231
313.501
313.748
313.954
314.102
314.181
314.181
314.102
313.954
313.748
313.501
313.231
312.953
312.679
312.428
312.238
309.539
309.685
309.88
310.092
310.309
310.519
310.711
310.871
310.986
311.047
311.047
310.986
310.871
310.711
310.519
310.309
310.092
309.88
309.685
309.539
306.827
306.93
307.069
307.221
307.375
307.525
307.662
307.776
307.859
307.902
307.902
307.859
307.776
307.662
307.525
307.375
307.221
307.069
306.93
306.827
304.105
304.166
304.25
304.341
304.434
304.524
304.606
304.674
304.724
304.75
304.75
304.724
304.674
304.606
304.524
304.434
304.341
304.25
304.166
304.105
301.377
301.397
301.425
301.456
301.487
301.517
301.544
301.567
301.584
301.593
301.593
301.584
301.567
301.544
301.517
301.487
301.456
301.425
301.397
301.377
320.547
320.868
321.272
321.706
322.146
322.571
322.958
323.28
323.513
323.635
323.635
323.513
323.28
322.958
322.571
322.146
321.706
321.272
320.868
320.547
317.868
318.139
318.488
318.863
319.244
319.613
319.947
320.226
320.427
320.532
320.532
320.427
320.226
319.947
319.613
319.244
318.863
318.488
318.139
317.868
315.163
315.388
315.682
316
316.322
316.633
316.916
317.152
317.321
317.41
317.41
317.321
317.152
316.916
316.633
316.322
316
315.682
315.388
315.163
312.438
312.619
312.859
313.118
313.382
313.636
313.867
314.06
314.198
314.271
314.271
314.198
314.06
313.867
313.636
313.382
313.118
312.859
312.619
312.438
309.695
309.834
310.02
310.221
310.426
310.624
310.804
310.953
311.061
311.118
311.118
311.061
310.953
310.804
310.624
310.426
310.221
310.02
309.834
309.695
306.938
307.037
307.169
307.313
307.459
307.601
307.729
307.836
307.913
307.953
307.953
307.913
307.836
307.729
307.601
307.459
307.313
307.169
307.037
306.938
304.172
304.23
304.31
304.396
304.484
304.569
304.646
304.71
304.756
304.781
304.781
304.756
304.71
304.646
304.569
304.484
304.396
304.31
304.23
304.172
301.399
301.419
301.445
301.474
301.504
301.532
301.558
301.579
301.595
301.603
301.603
301.595
301.579
301.558
301.532
301.504
301.474
301.445
301.419
301.399
320.938
321.242
321.625
322.034
322.447
322.844
323.203
323.502
323.717
323.829
323.829
323.717
323.502
323.203
322.844
322.447
322.034
321.625
321.242
320.938
318.207
318.465
318.795
319.149
319.506
319.85
320.161
320.42
320.605
320.703
320.703
320.605
320.42
320.161
319.85
319.506
319.149
318.795
318.465
318.207
315.451
315.665
315.943
316.242
316.544
316.835
317.098
317.317
317.474
317.556
317.556
317.474
317.317
317.098
316.835
316.544
316.242
315.943
315.665
315.451
312.674
312.846
313.072
313.317
313.564
313.802
314.017
314.196
314.324
314.391
314.391
314.324
314.196
314.017
313.802
313.564
313.317
313.072
312.846
312.674
309.878
310.011
310.186
310.377
310.569
310.754
310.921
311.06
311.159
311.212
311.212
311.159
311.06
310.921
310.754
310.569
310.377
310.186
310.011
309.878
307.069
307.163
307.288
307.424
307.562
307.694
307.813
307.912
307.983
308.021
308.021
307.983
307.912
307.813
307.694
307.562
307.424
307.288
307.163
307.069
304.251
304.306
304.382
304.463
304.546
304.625
304.697
304.756
304.799
304.821
304.821
304.799
304.756
304.697
304.625
304.546
304.463
304.382
304.306
304.251
301.426
301.444
301.469
301.497
301.524
301.551
301.575
301.595
301.609
301.617
301.617
301.609
301.595
301.575
301.551
301.524
301.497
301.469
301.444
301.426
321.39
321.678
322.037
322.42
322.805
323.173
323.505
323.78
323.976
324.079
324.079
323.976
323.78
323.505
323.173
322.805
322.42
322.037
321.678
321.39
318.6
318.843
319.154
319.485
319.818
320.137
320.425
320.662
320.832
320.921
320.921
320.832
320.662
320.425
320.137
319.818
319.485
319.154
318.843
318.6
315.784
315.986
316.248
316.528
316.81
317.079
317.322
317.523
317.667
317.742
317.742
317.667
317.523
317.322
317.079
316.81
316.528
316.248
315.986
315.784
312.947
313.109
313.322
313.552
313.782
314.003
314.201
314.365
314.483
314.545
314.545
314.483
314.365
314.201
314.003
313.782
313.552
313.322
313.109
312.947
310.091
310.216
310.381
310.56
310.739
310.91
311.065
311.192
311.284
311.332
311.332
311.284
311.192
311.065
310.91
310.739
310.56
310.381
310.216
310.091
307.222
307.31
307.428
307.555
307.683
307.806
307.916
308.007
308.073
308.107
308.107
308.073
308.007
307.916
307.806
307.683
307.555
307.428
307.31
307.222
304.342
304.395
304.465
304.542
304.619
304.692
304.759
304.813
304.853
304.873
304.873
304.853
304.813
304.759
304.692
304.619
304.542
304.465
304.395
304.342
301.456
301.474
301.497
301.523
301.549
301.574
301.596
301.614
301.627
301.634
301.634
301.627
301.614
301.596
301.574
301.549
301.523
301.497
301.474
301.456
321.905
322.176
322.512
322.869
323.225
323.564
323.869
324.119
324.299
324.392
324.392
324.299
324.119
323.869
323.564
323.225
322.869
322.512
322.176
321.905
319.048
319.276
319.567
319.876
320.184
320.478
320.742
320.959
321.114
321.195
321.195
321.114
320.959
320.742
320.478
320.184
319.876
319.567
319.276
319.048
316.164
316.353
316.598
316.859
317.12
317.369
317.592
317.775
317.906
317.975
317.975
317.906
317.775
317.592
317.369
317.12
316.859
316.598
316.353
316.164
313.258
313.411
313.61
313.824
314.037
314.241
314.423
314.573
314.68
314.736
314.736
314.68
314.573
314.423
314.241
314.037
313.824
313.61
313.411
313.258
310.334
310.451
310.606
310.772
310.938
311.096
311.238
311.354
311.438
311.481
311.481
311.438
311.354
311.238
311.096
310.938
310.772
310.606
310.451
310.334
307.395
307.478
307.588
307.707
307.826
307.939
308.04
308.123
308.183
308.214
308.214
308.183
308.123
308.04
307.939
307.826
307.707
307.588
307.478
307.395
304.446
304.496
304.562
304.633
304.704
304.772
304.833
304.883
304.919
304.938
304.938
304.919
304.883
304.833
304.772
304.704
304.633
304.562
304.496
304.446
301.491
301.508
301.53
301.554
301.578
301.6
301.621
301.638
301.649
301.656
301.656
301.649
301.638
301.621
301.6
301.578
301.554
301.53
301.508
301.491
322.486
322.739
323.052
323.383
323.711
324.022
324.299
324.527
324.689
324.774
324.774
324.689
324.527
324.299
324.022
323.711
323.383
323.052
322.739
322.486
319.552
319.766
320.036
320.322
320.607
320.876
321.117
321.314
321.454
321.527
321.527
321.454
321.314
321.117
320.876
320.607
320.322
320.036
319.766
319.552
316.592
316.769
316.997
317.239
317.479
317.707
317.911
318.077
318.196
318.258
318.258
318.196
318.077
317.911
317.707
317.479
317.239
316.997
316.769
316.592
313.609
313.751
313.937
314.135
314.332
314.518
314.685
314.821
314.918
314.969
314.969
314.918
314.821
314.685
314.518
314.332
314.135
313.937
313.751
313.609
310.607
310.716
310.861
311.014
311.168
311.313
311.442
311.548
311.623
311.663
311.663
311.623
311.548
311.442
311.313
311.168
311.014
310.861
310.716
310.607
307.591
307.668
307.771
307.881
307.99
308.094
308.186
308.262
308.316
308.344
308.344
308.316
308.262
308.186
308.094
307.99
307.881
307.771
307.668
307.591
304.564
304.61
304.672
304.738
304.803
304.866
304.921
304.967
304.999
305.016
305.016
304.999
304.967
304.921
304.866
304.803
304.738
304.672
304.61
304.564
301.531
301.546
301.567
301.589
301.611
301.632
301.65
301.666
301.676
301.682
301.682
301.676
301.666
301.65
301.632
301.611
301.589
301.567
301.546
301.531
323.134
323.369
323.66
323.964
324.265
324.549
324.801
325.006
325.152
325.228
325.228
325.152
325.006
324.801
324.549
324.265
323.964
323.66
323.369
323.134
320.114
320.314
320.564
320.828
321.089
321.335
321.553
321.731
321.858
321.924
321.924
321.858
321.731
321.553
321.335
321.089
320.828
320.564
320.314
320.114
317.068
317.234
317.445
317.668
317.889
318.097
318.281
318.432
318.539
318.595
318.595
318.539
318.432
318.281
318.097
317.889
317.668
317.445
317.234
317.068
313.999
314.132
314.305
314.487
314.668
314.838
314.989
315.112
315.2
315.245
315.245
315.2
315.112
314.989
314.838
314.668
314.487
314.305
314.132
313.999
310.911
311.013
311.147
311.289
311.429
311.562
311.679
311.775
311.843
311.879
311.879
311.843
311.775
311.679
311.562
311.429
311.289
311.147
311.013
310.911
307.808
307.881
307.976
308.077
308.178
308.272
308.356
308.425
308.473
308.499
308.499
308.473
308.425
308.356
308.272
308.178
308.077
307.976
307.881
307.808
304.695
304.738
304.795
304.856
304.916
304.973
305.023
305.065
305.094
305.109
305.109
305.094
305.065
305.023
304.973
304.916
304.856
304.795
304.738
304.695
301.574
301.589
301.608
301.628
301.649
301.668
301.685
301.698
301.708
301.713
301.713
301.708
301.698
301.685
301.668
301.649
301.628
301.608
301.589
301.574
323.849
324.067
324.336
324.615
324.89
325.148
325.376
325.561
325.692
325.76
325.76
325.692
325.561
325.376
325.148
324.89
324.615
324.336
324.067
323.849
320.736
320.921
321.152
321.394
321.633
321.856
322.054
322.214
322.328
322.387
322.387
322.328
322.214
322.054
321.856
321.633
321.394
321.152
320.921
320.736
317.595
317.749
317.944
318.149
318.35
318.539
318.706
318.842
318.938
318.988
318.988
318.938
318.842
318.706
318.539
318.35
318.149
317.944
317.749
317.595
314.431
314.555
314.714
314.881
315.046
315.201
315.338
315.449
315.528
315.568
315.568
315.528
315.449
315.338
315.201
315.046
314.881
314.714
314.555
314.431
311.248
311.343
311.466
311.596
311.725
311.845
311.951
312.038
312.099
312.131
312.131
312.099
312.038
311.951
311.845
311.725
311.596
311.466
311.343
311.248
308.049
308.116
308.204
308.297
308.389
308.475
308.551
308.613
308.656
308.679
308.679
308.656
308.613
308.551
308.475
308.389
308.297
308.204
308.116
308.049
304.839
304.879
304.932
304.988
305.043
305.095
305.14
305.178
305.204
305.217
305.217
305.204
305.178
305.14
305.095
305.043
304.988
304.932
304.879
304.839
301.623
301.636
301.654
301.673
301.691
301.709
301.724
301.736
301.745
301.75
301.75
301.745
301.736
301.724
301.709
301.691
301.673
301.654
301.636
301.623
324.633
324.835
325.082
325.338
325.588
325.821
326.027
326.193
326.311
326.371
326.371
326.311
326.193
326.027
325.821
325.588
325.338
325.082
324.835
324.633
321.417
321.587
321.801
322.022
322.239
322.442
322.62
322.764
322.866
322.919
322.919
322.866
322.764
322.62
322.442
322.239
322.022
321.801
321.587
321.417
318.173
318.314
318.494
318.681
318.865
319.036
319.187
319.309
319.395
319.44
319.44
319.395
319.309
319.187
319.036
318.865
318.681
318.494
318.314
318.173
314.904
315.018
315.165
315.318
315.469
315.609
315.732
315.832
315.903
315.939
315.939
315.903
315.832
315.732
315.609
315.469
315.318
315.165
315.018
314.904
311.616
311.704
311.818
311.937
312.054
312.163
312.259
312.337
312.391
312.42
312.42
312.391
312.337
312.259
312.163
312.054
311.937
311.818
311.704
311.616
308.313
308.375
308.456
308.541
308.625
308.702
308.771
308.827
308.866
308.886
308.886
308.866
308.827
308.771
308.702
308.625
308.541
308.456
308.375
308.313
304.998
305.035
305.083
305.135
305.185
305.232
305.273
305.306
305.33
305.342
305.342
305.33
305.306
305.273
305.232
305.185
305.135
305.083
305.035
304.998
301.676
301.688
301.705
301.722
301.739
301.754
301.768
301.779
301.787
301.791
301.791
301.787
301.779
301.768
301.754
301.739
301.722
301.705
301.688
301.676
325.484
325.67
325.897
326.131
326.358
326.569
326.754
326.903
327.008
327.062
327.062
327.008
326.903
326.754
326.569
326.358
326.131
325.897
325.67
325.484
322.156
322.313
322.509
322.712
322.909
323.092
323.252
323.381
323.472
323.519
323.519
323.472
323.381
323.252
323.092
322.909
322.712
322.509
322.313
322.156
318.799
318.93
319.095
319.266
319.433
319.588
319.724
319.833
319.91
319.95
319.95
319.91
319.833
319.724
319.588
319.433
319.266
319.095
318.93
318.799
315.418
315.523
315.657
315.798
315.934
316.061
316.172
316.262
316.325
316.357
316.357
316.325
316.262
316.172
316.061
315.934
315.798
315.657
315.523
315.418
312.016
312.097
312.201
312.31
312.417
312.515
312.602
312.671
312.72
312.746
312.746
312.72
312.671
312.602
312.515
312.417
312.31
312.201
312.097
312.016
308.599
308.656
308.73
308.808
308.884
308.955
309.016
309.066
309.101
309.119
309.119
309.101
309.066
309.016
308.955
308.884
308.808
308.73
308.656
308.599
305.17
305.204
305.248
305.295
305.341
305.383
305.42
305.45
305.471
305.482
305.482
305.471
305.45
305.42
305.383
305.341
305.295
305.248
305.204
305.17
301.734
301.745
301.76
301.776
301.791
301.805
301.818
301.828
301.835
301.838
301.838
301.835
301.828
301.818
301.805
301.791
301.776
301.76
301.745
301.734
326.4
326.571
326.779
326.992
327.199
327.389
327.555
327.688
327.782
327.83
327.83
327.782
327.688
327.555
327.389
327.199
326.992
326.779
326.571
326.4
322.95
323.095
323.275
323.46
323.638
323.803
323.947
324.063
324.144
324.186
324.186
324.144
324.063
323.947
323.803
323.638
323.46
323.275
323.095
322.95
319.472
319.592
319.743
319.9
320.051
320.191
320.313
320.411
320.479
320.515
320.515
320.479
320.411
320.313
320.191
320.051
319.9
319.743
319.592
319.472
315.969
316.066
316.189
316.317
316.441
316.555
316.655
316.735
316.791
316.82
316.82
316.791
316.735
316.655
316.555
316.441
316.317
316.189
316.066
315.969
312.445
312.519
312.615
312.715
312.811
312.9
312.978
313.04
313.084
313.106
313.106
313.084
313.04
312.978
312.9
312.811
312.715
312.615
312.519
312.445
308.905
308.958
309.026
309.097
309.166
309.23
309.285
309.33
309.361
309.377
309.377
309.361
309.33
309.285
309.23
309.166
309.097
309.026
308.958
308.905
305.354
305.385
305.426
305.469
305.51
305.549
305.582
305.609
305.627
305.637
305.637
305.627
305.609
305.582
305.549
305.51
305.469
305.426
305.385
305.354
301.795
301.806
301.82
301.834
301.848
301.861
301.872
301.881
301.887
301.89
301.89
301.887
301.881
301.872
301.861
301.848
301.834
301.82
301.806
301.795
327.37
327.527
327.718
327.912
328.099
328.271
328.42
328.539
328.623
328.666
328.666
328.623
328.539
328.42
328.271
328.099
327.912
327.718
327.527
327.37
323.79
323.924
324.088
324.256
324.418
324.567
324.697
324.8
324.873
324.91
324.91
324.873
324.8
324.697
324.567
324.418
324.256
324.088
323.924
323.79
320.182
320.293
320.431
320.574
320.711
320.837
320.947
321.034
321.096
321.127
321.127
321.096
321.034
320.947
320.837
320.711
320.574
320.431
320.293
320.182
316.55
316.638
316.751
316.868
316.98
317.084
317.173
317.245
317.295
317.321
317.321
317.295
317.245
317.173
317.084
316.98
316.868
316.751
316.638
316.55
312.897
312.965
313.052
313.143
313.231
313.311
313.381
313.437
313.476
313.496
313.496
313.476
313.437
313.381
313.311
313.231
313.143
313.052
312.965
312.897
309.228
309.276
309.339
309.403
309.466
309.523
309.573
309.613
309.641
309.656
309.656
309.641
309.613
309.573
309.523
309.466
309.403
309.339
309.276
309.228
305.548
305.576
305.614
305.653
305.69
305.725
305.755
305.779
305.796
305.804
305.804
305.796
305.779
305.755
305.725
305.69
305.653
305.614
305.576
305.548
301.86
301.87
301.883
301.896
301.908
301.92
301.93
301.938
301.944
301.946
301.946
301.944
301.938
301.93
301.92
301.908
301.896
301.883
301.87
301.86
328.368
328.513
328.687
328.864
329.034
329.189
329.324
329.431
329.506
329.544
329.544
329.506
329.431
329.324
329.189
329.034
328.864
328.687
328.513
328.368
324.651
324.773
324.924
325.077
325.225
325.36
325.476
325.569
325.634
325.667
325.667
325.634
325.569
325.476
325.36
325.225
325.077
324.924
324.773
324.651
320.906
321.008
321.135
321.265
321.39
321.504
321.603
321.682
321.737
321.765
321.765
321.737
321.682
321.603
321.504
321.39
321.265
321.135
321.008
320.906
317.14
317.221
317.325
317.431
317.534
317.627
317.708
317.773
317.818
317.841
317.841
317.818
317.773
317.708
317.627
317.534
317.431
317.325
317.221
317.14
313.354
313.417
313.497
313.58
313.66
313.732
313.795
313.846
313.881
313.899
313.899
313.881
313.846
313.795
313.732
313.66
313.58
313.497
313.417
313.354
309.554
309.598
309.655
309.715
309.772
309.824
309.869
309.905
309.93
309.943
309.943
309.93
309.905
309.869
309.824
309.772
309.715
309.655
309.598
309.554
305.743
305.769
305.804
305.839
305.874
305.905
305.932
305.954
305.969
305.976
305.976
305.969
305.954
305.932
305.905
305.874
305.839
305.804
305.769
305.743
301.926
301.935
301.946
301.958
301.97
301.98
301.989
301.996
302.001
302.004
302.004
302.001
301.996
301.989
301.98
301.97
301.958
301.946
301.935
301.926
329.328
329.462
329.623
329.786
329.941
330.083
330.204
330.301
330.369
330.404
330.404
330.369
330.301
330.204
330.083
329.941
329.786
329.623
329.462
329.328
325.468
325.582
325.721
325.862
325.997
326.12
326.226
326.31
326.369
326.399
326.399
326.369
326.31
326.226
326.12
325.997
325.862
325.721
325.582
325.468
321.587
321.681
321.799
321.919
322.033
322.137
322.227
322.299
322.349
322.374
322.374
322.349
322.299
322.227
322.137
322.033
321.919
321.799
321.681
321.587
317.689
317.765
317.861
317.959
318.053
318.138
318.212
318.271
318.312
318.333
318.333
318.312
318.271
318.212
318.138
318.053
317.959
317.861
317.765
317.689
313.777
313.835
313.909
313.986
314.059
314.126
314.183
314.229
314.261
314.277
314.277
314.261
314.229
314.183
314.126
314.059
313.986
313.909
313.835
313.777
309.853
309.894
309.947
310.002
310.055
310.102
310.143
310.176
310.199
310.211
310.211
310.199
310.176
310.143
310.102
310.055
310.002
309.947
309.894
309.853
305.922
305.946
305.978
306.011
306.043
306.071
306.096
306.116
306.129
306.136
306.136
306.129
306.116
306.096
306.071
306.043
306.011
305.978
305.946
305.922
301.986
301.994
302.004
302.015
302.026
302.036
302.044
302.051
302.055
302.058
302.058
302.055
302.051
302.044
302.036
302.026
302.015
302.004
301.994
301.986
330.08
330.206
330.357
330.51
330.655
330.787
330.9
330.991
331.053
331.085
331.085
331.053
330.991
330.9
330.787
330.655
330.51
330.357
330.206
330.08
326.084
326.191
326.322
326.455
326.582
326.697
326.796
326.874
326.929
326.957
326.957
326.929
326.874
326.796
326.697
326.582
326.455
326.322
326.191
326.084
322.084
322.173
322.284
322.397
322.505
322.603
322.687
322.754
322.8
322.824
322.824
322.8
322.754
322.687
322.603
322.505
322.397
322.284
322.173
322.084
318.08
318.152
318.243
318.336
318.424
318.505
318.574
318.629
318.667
318.687
318.687
318.667
318.629
318.574
318.505
318.424
318.336
318.243
318.152
318.08
314.072
314.127
314.198
314.27
314.339
314.402
314.456
314.499
314.529
314.544
314.544
314.529
314.499
314.456
314.402
314.339
314.27
314.198
314.127
314.072
310.059
310.099
310.149
310.201
310.25
310.295
310.334
310.365
310.386
310.397
310.397
310.386
310.365
310.334
310.295
310.25
310.201
310.149
310.099
310.059
306.044
306.067
306.098
306.129
306.159
306.186
306.209
306.227
306.24
306.247
306.247
306.24
306.227
306.209
306.186
306.159
306.129
306.098
306.067
306.044
302.026
302.034
302.044
302.055
302.065
302.074
302.082
302.088
302.092
302.094
302.094
302.092
302.088
302.082
302.074
302.065
302.055
302.044
302.034
302.026
)
;

boundaryField
{
    hotSide
    {
        type            fixedGradient;
        gradient        nonuniform List<scalar> 
400
(
200.221
200.774
201.886
203.564
205.818
208.663
212.115
216.191
220.91
226.289
232.346
239.098
246.56
254.745
263.665
273.33
283.749
294.929
306.875
319.592
205.179
205.693
206.728
208.293
210.404
213.078
216.338
220.205
224.703
229.856
235.684
242.208
249.447
257.417
266.131
275.601
285.837
296.845
308.632
321.201
210.545
211.012
211.955
213.387
215.328
217.801
220.836
224.46
228.704
233.597
239.165
245.434
252.425
260.157
268.645
277.903
287.941
298.765
310.382
322.796
216.229
216.642
217.478
218.756
220.5
222.744
225.521
228.871
232.829
237.433
242.714
248.702
255.424
262.9
271.148
280.181
290.011
300.645
312.088
324.342
222.074
222.425
223.142
224.246
225.772
227.76
230.255
233.304
236.953
241.245
246.221
251.913
258.353
265.563
273.564
282.369
291.989
302.431
313.699
325.796
227.834
228.12
228.709
229.629
230.923
232.642
234.841
237.578
240.907
244.881
249.545
254.94
261.098
268.045
275.803
284.385
293.802
304.061
315.164
327.111
233.181
233.402
233.862
234.599
235.664
237.118
239.028
241.461
244.481
248.15
252.52
257.634
263.528
270.232
277.766
286.144
295.377
305.47
316.425
328.24
237.72
237.881
238.226
238.799
239.659
240.877
242.53
244.695
247.446
250.85
254.965
259.838
265.508
272.006
279.351
287.56
296.64
306.596
317.428
329.135
241.041
241.157
241.414
241.861
242.565
243.604
245.063
247.027
249.577
252.784
256.709
261.405
266.912
273.259
280.468
288.553
297.523
307.381
318.127
329.756
242.801
242.892
243.101
243.48
244.099
245.041
246.396
248.252
250.693
253.794
257.619
262.221
267.64
273.908
281.045
289.066
297.979
307.785
318.485
330.075
242.801
242.892
243.101
243.48
244.099
245.041
246.396
248.252
250.693
253.794
257.619
262.221
267.64
273.908
281.045
289.066
297.979
307.785
318.485
330.075
241.041
241.157
241.414
241.861
242.565
243.604
245.063
247.027
249.577
252.784
256.709
261.405
266.912
273.259
280.468
288.553
297.523
307.381
318.127
329.756
237.72
237.881
238.226
238.799
239.659
240.877
242.53
244.695
247.446
250.85
254.965
259.838
265.508
272.006
279.351
287.56
296.64
306.596
317.428
329.135
233.181
233.402
233.862
234.599
235.664
237.118
239.028
241.461
244.481
248.15
252.52
257.634
263.528
270.232
277.766
286.144
295.377
305.47
316.425
328.24
227.834
228.12
228.709
229.629
230.923
232.642
234.841
237.578
240.907
244.881
249.545
254.94
261.098
268.045
275.803
284.385
293.802
304.061
315.164
327.111
222.074
222.425
223.142
224.246
225.772
227.76
230.255
233.304
236.953
241.245
246.221
251.913
258.353
265.563
273.564
282.369
291.989
302.431
313.699
325.796
216.229
216.642
217.478
218.756
220.5
222.744
225.521
228.871
232.829
237.433
242.714
248.702
255.424
262.9
271.148
280.181
290.011
300.645
312.088
324.342
210.545
211.012
211.955
213.387
215.328
217.801
220.836
224.46
228.704
233.597
239.165
245.434
252.425
260.157
268.645
277.903
287.941
298.765
310.382
322.796
205.179
205.693
206.728
208.293
210.404
213.078
216.338
220.205
224.703
229.856
235.684
242.208
249.447
257.417
266.131
275.601
285.837
296.845
308.632
321.201
200.221
200.774
201.886
203.564
205.818
208.663
212.115
216.191
220.91
226.289
232.346
239.098
246.56
254.745
263.665
273.33
283.749
294.929
306.875
319.592
)
;
    }
    coldSide
    {
        type            mixed;
        refValue        uniform 300;
        refGradient     uniform 0;
        valueFraction   uniform 0.991591;
        source          uniform 0;
        value           nonuniform List<scalar> 
400
(
300.011
300.011
300.011
300.011
300.011
300.012
300.012
300.012
300.012
300.013
300.013
300.013
300.014
300.014
300.015
300.015
300.016
300.016
300.017
300.017
300.011
300.011
300.011
300.011
300.012
300.012
300.012
300.012