/*--------------------------------*- C++ -*----------------------------------*\
| =========                 |                                                 |
| \\      /  F ield         | OpenFOAM: The Open Source CFD Toolbox           |
|  \\    /   O peration     | Version:  2212                                  |
|   \\  /    A nd           | Website:  www.openfoam.com                      |
|    \\/     M anipulation  |                                                 |
\*---------------------------------------------------------------------------*/
FoamFile
{
    version     2.0;
    format      ascii;
    arch        "LSB;label=32;scalar=64";
    class       volScalarField;
    location    "0";
    object      T;
}
// * * * * * * * * * * * * * * * * * * * * * * * * * * * * * * * * * * * * * //

dimensions      [0 0 0 1 0 0 0];

internalField   nonuniform List<scalar> 
3200
(
351.51
349.93
348.596
347.985
347.961
348.156
348.536
348.823
349.074
349.188
349.167
348.801
348.122
347.165
346.402
345.654
345.194
345.182
345.989
347.375
344.714
343.412
342.263
341.704
341.688
341.859
342.219
342.43
342.672
342.784
342.762
342.437
341.862
341.01
340.349
339.71
339.283
339.263
339.962
341.104
337.896
336.858
335.875
335.353
335.361
335.536
335.816
335.992
336.22
336.314
336.27
336.004
335.543
334.781
334.227
333.693
333.339
333.3
333.879
334.822
331.052
330.257
329.429
328.977
328.989
329.169
329.361
329.501
329.704
329.796
329.723
329.519
329.117
328.526
328.077
327.645
327.342
327.312
327.77
328.544
324.202
323.577
322.93
322.564
322.545
322.74
322.902
322.974
323.135
323.219
323.158
323.011
322.688
322.211
321.869
321.534
321.324
321.272
321.621
322.228
317.313
316.867
316.406
316.129
316.103
316.275
316.386
316.422
316.577
316.619
316.558
316.472
316.234
315.894
315.651
315.402
315.26
315.199
315.467
315.898
310.407
310.134
309.857
309.672
309.684
309.775
309.854
309.856
309.971
310.006
309.952
309.892
309.772
309.563
309.428
309.272
309.185
309.121
309.296
309.547
303.489
303.398
303.305
303.237
303.243
303.286
303.308
303.304
303.347
303.355
303.343
303.321
303.277
303.201
303.171
303.113
303.073
303.059
303.114
303.194
351.761
350.161
348.949
348.325
348.268
348.46
348.938
349.263
349.632
349.782
349.78
349.388
348.689
347.576
346.784
346.025
345.442
345.547
346.219
347.489
344.955
343.6
342.564
342.001
341.953
342.12
342.543
342.812
343.14
343.264
343.272
342.939
342.321
341.35
340.669
340.02
339.517
339.61
340.163
341.21
338.122
336.99
336.089
335.604
335.579
335.726
336.09
336.31
336.601
336.687
336.708
336.43
335.908
335.078
334.498
333.955
333.532
333.608
334.052
334.922
331.246
330.332
329.593
329.181
329.142
329.307
329.591
329.781
330.002
330.089
330.072
329.864
329.451
328.765
328.289
327.837
327.508
327.568
327.928
328.611
324.348
323.637
323.056
322.727
322.684
322.835
323.067
323.199
323.367
323.459
323.449
323.275
322.954
322.406
322.029
321.665
321.438
321.488
321.76
322.276
317.421
316.918
316.488
316.259
316.198
316.328
316.531
316.591
316.718
316.792
316.779
316.668
316.433
316.013
315.751
315.485
315.341
315.374
315.564
315.911
310.474
310.181
309.914
309.792
309.729
309.805
309.955
309.962
310.059
310.088
310.082
310.022
309.895
309.621
309.462
309.318
309.217
309.252
309.354
309.549
303.514
303.407
303.332
303.278
303.271
303.291
303.346
303.34
303.373
303.385
303.378
303.359
303.31
303.223
303.179
303.127
303.092
303.114
303.131
303.203
352.304
350.644
349.529
348.855
348.76
349.095
349.639
350.076
350.46
350.606
350.507
350.191
349.382
348.519
347.617
346.665
346.09
346.024
346.713
347.914
345.402
344.03
343.075
342.483
342.401
342.645
343.153
343.521
343.864
343.957
343.914
343.608
342.911
342.162
341.401
340.569
340.086
339.993
340.607
341.585
338.476
337.346
336.542
336.046
335.972
336.16
336.603
336.883
337.234
337.279
337.273
337.01
336.414
335.768
335.126
334.421
334.008
333.945
334.459
335.242
331.507
330.61
329.954
329.566
329.491
329.658
330.016
330.218
330.541
330.557
330.566
330.368
329.869
329.32
328.78
328.247
327.881
327.84
328.268
328.862
324.521
323.865
323.358
323.044
322.971
323.114
323.397
323.533
323.802
323.792
323.808
323.677
323.291
322.815
322.427
322.006
321.724
321.699
322.055
322.48
317.539
317.084
316.713
316.506
316.426
316.541
316.723
316.824
317.041
317.021
317.021
316.963
316.675
316.314
316.048
315.739
315.531
315.538
315.786
316.072
310.537
310.271
310.045
309.935
309.847
309.934
310.048
310.093
310.241
310.239
310.219
310.207
310.025
309.805
309.668
309.449
309.32
309.331
309.495
309.655
303.541
303.448
303.37
303.333
303.296
303.327
303.374
303.37
303.442
303.428
303.424
303.42
303.362
303.288
303.237
303.168
303.121
303.132
303.175
303.24
352.85
351.373
350.234
349.646
349.655
349.921
350.42
351.004
351.585
351.626
351.603
351.29
350.505
349.568
348.555
347.523
346.92
346.94
347.508
348.553
345.852
344.669
343.692
343.174
343.154
343.402
343.83
344.297
344.843
344.844
344.844
344.587
343.87
343.074
342.207
341.304
340.799
340.827
341.283
342.158
338.848
337.892
337.086
336.633
336.59
336.811
337.166
337.555
338.037
338.004
338.06
337.827
337.21
336.543
335.812
335.031
334.615
334.655
335.021
335.754
331.835
331.069
330.425
330.055
330.006
330.175
330.459
330.745
331.189
331.165
331.226
331.024
330.517
329.973
329.364
328.718
328.381
328.424
328.711
329.303
324.776
324.232
323.725
323.439
323.376
323.5
323.746
323.923
324.295
324.274
324.31
324.185
323.781
323.35
322.878
322.379
322.121
322.135
322.365
322.83
317.706
317.361
316.985
316.767
316.721
316.817
317.012
317.085
317.381
317.358
317.364
317.285
317.016
316.701
316.353
316.009
315.816
315.836
316.001
316.315
310.644
310.446
310.223
310.078
310.041
310.101
310.238
310.264
310.435
310.432
310.422
310.398
310.228
310.048
309.838
309.622
309.506
309.502
309.62
309.799
303.569
303.501
303.426
303.384
303.362
303.387
303.427
303.453
303.5
303.512
303.492
303.493
303.43
303.381
303.294
303.226
303.195
303.182
303.224
303.278
353.878
352.345
351.213
350.709
350.7
350.994
351.616
352.076
352.726
352.905
352.845
352.422
351.707
350.755
349.524
348.569
348.068
348.088
348.559
349.487
346.792
345.501
344.494
344.082
344.054
344.302
344.858
345.253
345.831
345.956
345.927
345.566
344.925
344.109
343.018
342.209
341.778
341.801
342.195
342.963
339.649
338.595
337.747
337.385
337.356
337.55
338.04
338.367
338.873
338.96
338.936
338.666
338.109
337.379
336.484
335.808
335.463
335.453
335.764
336.418
332.504
331.658
330.945
330.655
330.615
330.766
331.187
331.441
331.874
331.931
331.911
331.71
331.262
330.627
329.906
329.37
329.108
329.058
329.3
329.838
325.313
324.684
324.095
323.865
323.847
323.973
324.313
324.497
324.83
324.864
324.86
324.707
324.37
323.847
323.293
322.879
322.692
322.636
322.79
323.236
318.079
317.662
317.227
317.056
317.063
317.139
317.417
317.531
317.751
317.799
317.757
317.686
317.45
317.064
316.66
316.359
316.227
316.202
316.288
316.629
310.841
310.624
310.354
310.246
310.267
310.291
310.475
310.539
310.663
310.7
310.65
310.659
310.486
310.261
310.02
309.822
309.741
309.744
309.782
309.996
303.623
303.561
303.47
303.435
303.446
303.448
303.52
303.541
303.575
303.585
303.568
303.576
303.527
303.439
303.357
303.291
303.264
303.273
303.269
303.352
355.049
353.625
352.464
352.002
351.801
352.293
352.785
353.433
354.02
354.17
354.217
353.792
353.067
352.025
350.912
349.896
349.34
349.351
349.81
350.736
347.761
346.61
345.606
345.205
345.025
345.444
345.878
346.434
346.933
347.057
347.099
346.725
346.11
345.187
344.261
343.367
342.899
342.885
343.281
344.004
340.466
339.535
338.703
338.353
338.172
338.541
338.895
339.351
339.784
339.906
339.952
339.632
339.09
338.315
337.551
336.787
336.405
336.377
336.709
337.272
333.14
332.422
331.737
331.46
331.308
331.594
331.881
332.264
332.605
332.709
332.774
332.51
332.045
331.403
330.806
330.154
329.863
329.812
330.077
330.528
325.8
325.276
324.714
324.51
324.39
324.621
324.828
325.14
325.389
325.491
325.554
325.343
324.957
324.462
324
323.51
323.288
323.241
323.421
323.788
318.471
318.097
317.664
317.532
317.446
317.627
317.79
317.999
318.167
318.247
318.283
318.131
317.826
317.498
317.188
316.826
316.676
316.614
316.738
317.004
311.091
310.891
310.633
310.54
310.489
310.607
310.723
310.833
310.937
310.972
310.977
310.899
310.702
310.514
310.337
310.118
310.024
309.97
310.068
310.23
303.721
303.655
303.57
303.534
303.507
303.558
303.602
303.637
303.683
303.68
303.68
303.658
303.593
303.519
303.465
303.4
303.36
303.333
303.37
303.443
356.418
354.978
354.082
353.419
353.241
353.668
354.337
354.749
355.346
355.679
355.7
355.303
354.642
353.531
352.337
351.38
350.779
350.702
351.174
352.169
348.977
347.752
346.978
346.448
346.272
346.63
347.207
347.556
348.061
348.38
348.379
348.051
347.475
346.51
345.479
344.625
344.127
344.05
344.468
345.279
341.497
340.475
339.827
339.41
339.239
339.543
340.029
340.323
340.758
341.02
341.011
340.745
340.252
339.43
338.57
337.847
337.443
337.34
337.707
338.354
333.991
333.171
332.632
332.305
332.15
332.415
332.814
333.045
333.411
333.631
333.606
333.402
332.991
332.303
331.63
331.019
330.718
330.602
330.887
331.406
326.462
325.835
325.407
325.15
325.017
325.256
325.551
325.749
326.024
326.189
326.16
326.034
325.682
325.156
324.651
324.175
323.927
323.846
324.063
324.452
318.91
318.474
318.173
317.981
317.895
318.063
318.283
318.431
318.613
318.753
318.702
318.644
318.35
317.981
317.637
317.302
317.099
317.071
317.212
317.465
311.378
311.095
310.917
310.82
310.762
310.837
310.991
311.079
311.183
311.278
311.229
311.209
311.013
310.786
310.612
310.392
310.265
310.255
310.346
310.492
303.815
303.719
303.663
303.634
303.601
303.634
303.696
303.713
303.736
303.794
303.755
303.762
303.694
303.62
303.566
303.48
303.458
303.438
303.466
303.517
357.969
356.52
355.683
355.02
354.812
355.306
355.806
356.271
356.83
357.185
357.339
356.925
356.21
355.07
353.907
352.987
352.391
352.372
352.751
353.549
350.316
349.09
348.374
347.835
347.621
348.053
348.505
348.878
349.383
349.673
349.788
349.443
348.831
347.85
346.828
346.053
345.534
345.49
345.82
346.489
342.622
341.619
341.01
340.576
340.391
340.768
341.148
341.462
341.883
342.121
342.191
341.911
341.407
340.577
339.714
339.056
338.627
338.574
338.848
339.378
334.9
334.115
333.611
333.274
333.113
333.423
333.75
334.003
334.342
334.533
334.583
334.349
333.941
333.251
332.546
332.014
331.678
331.645
331.841
332.253
327.19
326.57
326.183
325.919
325.803
326.02
326.315
326.506
326.764
326.891
326.954
326.728
326.455
325.883
325.345
324.949
324.69
324.667
324.812
325.12
319.456
319.005
318.723
318.547
318.443
318.602
318.829
318.97
319.149
319.23
319.285
319.096
318.928
318.511
318.127
317.855
317.676
317.662
317.749
317.938
311.694
311.42
311.246
311.126
311.076
311.182
311.326
311.392
311.503
311.562
311.577
311.482
311.361
311.126
310.883
310.714
310.615
310.612
310.672
310.781
303.917
303.831
303.758
303.731
303.709
303.745
303.797
303.805
303.851
303.879
303.881
303.85
303.805
303.737
303.642
303.591
303.557
303.555
303.584
303.614
359.526
358.268
357.458
356.655
356.523
356.746
357.292
357.815
358.365
358.733
358.79
358.461
357.617
356.56
355.604
354.557
354.077
354.016
354.469
355.198
351.651
350.629
349.95
349.236
349.119
349.315
349.79
350.228
350.706
351.003
351.054
350.773
350.029
349.149
348.279
347.399
346.954
346.931
347.3
347.918
343.764
342.933
342.37
341.757
341.664
341.827
342.226
342.602
342.987
343.237
343.276
343.05
342.413
341.656
340.928
340.184
339.816
339.802
340.082
340.602
335.85
335.191
334.741
334.229
334.164
334.277
334.602
334.9
335.238
335.42
335.472
335.277
334.764
334.131
333.551
332.93
332.615
332.604
332.833
333.253
327.896
327.404
327.053
326.67
326.627
326.688
326.953
327.184
327.469
327.56
327.617
327.473
327.068
326.562
326.146
325.644
325.406
325.386
325.573
325.888
319.932
319.59
319.361
319.074
319.045
319.086
319.281
319.454
319.666
319.714
319.749
319.65
319.344
318.983
318.71
318.339
318.172
318.146
318.294
318.513
311.978
311.759
311.643
311.457
311.455
311.478
311.579
311.688
311.83
311.859
311.876
311.822
311.6
311.414
311.251
311.022
310.908
310.919
311.018
311.126
304.02
303.941
303.908
303.835
303.845
303.847
303.881
303.921
303.959
303.98
303.994
303.966
303.881
303.824
303.778
303.692
303.668
303.666
303.696
303.73
361.268
360.181
359.154
358.442
358.257
358.413
358.751
359.412
359.902
360.292
360.273
359.921
359.114
358.208
357.16
356.269
355.846
355.755
356.219
357.03
353.179
352.266
351.415
350.781
350.611
350.787
351.059
351.622
352.027
352.374
352.319
352.023
351.321
350.547
349.634
348.875
348.517
348.453
348.853
349.494
345.08
344.309
343.617
343.084
342.913
343.065
343.319
343.789
344.101
344.39
344.33
344.106
343.479
342.841
342.075
341.447
341.129
341.1
341.426
341.922
336.953
336.296
335.763
335.318
335.192
335.31
335.509
335.905
336.137
336.384
336.33
336.164
335.644
335.124
334.477
333.971
333.698
333.7
333.944
334.348
328.769
328.249
327.879
327.506
327.423
327.503
327.642
327.963
328.143
328.322
328.294
328.174
327.772
327.358
326.837
326.468
326.268
326.242
326.452
326.737
320.549
320.191
319.944
319.661
319.614
319.657
319.771
319.997
320.129
320.232
320.242
320.144
319.871
319.568
319.191
318.948
318.802
318.77
318.925
319.115
312.352
312.13
312.002
311.814
311.785
311.807
311.865
312.013
312.089
312.138
312.172
312.097
311.934
311.773
311.555
311.392
311.289
311.285
311.376
311.484
304.151
304.065
304.016
303.961
303.949
303.957
303.972
304.014
304.054
304.06
304.081
304.048
303.996
303.964
303.883
303.83
303.792
303.772
303.814
303.857
363.121
361.925
360.855
360.235
360.047
360.013
360.476
361.043
361.463
361.718
361.764
361.307
360.565
359.649
358.769
357.997
357.635
357.452
358.021
358.846
354.799
353.761
352.878
352.346
352.189
352.156
352.561
353.039
353.375
353.587
353.624
353.243
352.592
351.773
351.055
350.382
350.078
349.911
350.37
351.077
346.449
345.554
344.862
344.391
344.254
344.246
344.6
344.972
345.241
345.404
345.45
345.141
344.578
343.871
343.298
342.721
342.453
342.33
342.701
343.286
338.034
337.338
336.788
336.403
336.281
336.28
336.595
336.861
337.077
337.2
337.249
336.993
336.523
335.935
335.472
335.004
334.785
334.709
334.991
335.474
329.609
329.077
328.655
328.386
328.276
328.28
328.531
328.707
328.871
328.962
329.02
328.825
328.434
327.991
327.617
327.269
327.106
327.058
327.238
327.627
321.157
320.797
320.493
320.294
320.232
320.228
320.422
320.538
320.637
320.704
320.758
320.612
320.319
320.018
319.726
319.517
319.416
319.38
319.474
319.759
312.717
312.488
312.327
312.188
312.166
312.15
312.276
312.345
312.386
312.434
312.467
312.377
312.197
312.031
311.849
311.732
311.698
311.658
311.691
311.905
304.266
304.176
304.132
304.084
304.085
304.082
304.122
304.14
304.153
304.167
304.185
304.144
304.089
304.04
303.972
303.931
303.927
303.919
303.918
304
364.888
363.78
362.749
362.127
361.803
361.851
362.102
362.509
362.996
363.282
363.185
362.681
362.014
361.169
360.535
359.768
359.299
359.358
359.784
360.613
356.309
355.366
354.514
353.979
353.691
353.723
353.96
354.309
354.712
354.963
354.865
354.44
353.857
353.141
352.606
351.923
351.504
351.565
351.94
352.62
347.702
346.922
346.213
345.786
345.537
345.553
345.768
346.045
346.403
346.586
346.507
346.155
345.64
345.037
344.621
344.025
343.664
343.731
344.023
344.573
339.068
338.428
337.89
337.538
337.313
337.338
337.523
337.735
338.029
338.167
338.104
337.841
337.413
336.886
336.584
336.096
335.778
335.843
336.071
336.5
330.412
329.929
329.528
329.232
329.056
329.086
329.237
329.402
329.618
329.719
329.667
329.496
329.145
328.727
328.515
328.095
327.865
327.934
328.095
328.426
321.745
321.417
321.11
320.903
320.767
320.811
320.931
321.02
321.18
321.259
321.204
321.117
320.832
320.558
320.412
320.095
319.944
319.984
320.103
320.332
313.074
312.876
312.672
312.548
312.481
312.502
312.576
312.647
312.717
312.772
312.724
312.707
312.534
312.356
312.271
312.073
311.985
312.02
312.089
312.23
304.387
304.317
304.246
304.211
304.188
304.192
304.219
304.249
304.264
304.284
304.265
304.255
304.204
304.142
304.119
304.049
304.025
304.039
304.053
304.097
366.69
365.543
364.617
363.878
363.616
363.553
363.755
364.075
364.348
364.523
364.558
364.149
363.551
362.785
362.011
361.411
361.088
361.229
361.594
362.357
357.873
356.904
356.135
355.474
355.242
355.201
355.386
355.652
355.88
356.016
356.038
355.705
355.2
354.545
353.858
353.334
353.061
353.191
353.506
354.128
348.995
348.232
347.592
347.02
346.83
346.794
346.948
347.171
347.378
347.468
347.479
347.199
346.786
346.234
345.672
345.211
344.974
345.087
345.379
345.856
340.098
339.526
339.003
338.533
338.396
338.311
338.467
338.624
338.831
338.872
338.903
338.666
338.328
337.896
337.452
337.037
336.84
336.95
337.204
337.557
331.225
330.795
330.372
330.015
329.908
329.842
329.957
330.077
330.252
330.254
330.287
330.096
329.829
329.506
329.19
328.828
328.678
328.813
328.978
329.239
322.319
322.02
321.718
321.472
321.381
321.358
321.434
321.521
321.634
321.626
321.639
321.504
321.33
321.085
320.899
320.598
320.52
320.616
320.753
320.904
313.404
313.232
313.062
312.894
312.852
312.833
312.89
312.936
313.005
312.978
313.002
312.929
312.824
312.653
312.574
312.362
312.333
312.384
312.483
312.562
304.498
304.442
304.382
304.33
304.314
304.314
304.325
304.339
304.358
304.349
304.361
304.335
304.306
304.242
304.225
304.145
304.137
304.145
304.185
304.206
368.647
367.537
366.528
365.714
365.283
365.336
365.345
365.645
365.798
365.942
365.822
365.492
365.08
364.31
363.709
363.106
362.823
362.933
363.559
364.225
359.57
358.67
357.789
357.053
356.717
356.759
356.736
356.999
357.145
357.269
357.164
356.883
356.521
355.86
355.356
354.852
354.576
354.633
355.202
355.748
350.462
349.739
348.999
348.346
348.099
348.136
348.082
348.289
348.452
348.541
348.442
348.224
347.915
347.367
346.936
346.519
346.276
346.33
346.808
347.224
341.327
340.759
340.154
339.621
339.445
339.437
339.403
339.542
339.703
339.773
339.704
339.528
339.256
338.824
338.478
338.127
337.945
337.988
338.38
338.692
332.165
331.75
331.277
330.877
330.732
330.715
330.697
330.758
330.942
330.973
330.939
330.795
330.568
330.233
329.976
329.696
329.569
329.59
329.909
330.135
323.015
322.7
322.362
322.104
321.979
321.952
321.951
321.985
322.166
322.165
322.126
322.031
321.853
321.608
321.436
321.236
321.164
321.165
321.383
321.555
313.846
313.643
313.429
313.283
313.199
313.185
313.193
313.206
313.341
313.33
313.307
313.233
313.12
312.971
312.889
312.762
312.72
312.704
312.85
312.96
304.647
304.576
304.501
304.46
304.428
304.414
304.428
304.423
304.48
304.475
304.462
304.428
304.399
304.351
304.32
304.276
304.267
304.253
304.319
304.342
370.548
369.649
368.601
367.692
367.151
367.001
367.029
367.08
367.263
367.227
367.198
366.939
366.521
365.883
365.358
364.877
364.696
364.706
365.198
366.052
361.21
360.482
359.597
358.776
358.317
358.208
358.196
358.253
358.415
358.393
358.345
358.14
357.757
357.21
356.744
356.356
356.203
356.213
356.601
357.346
351.804
351.275
350.516
349.804
349.444
349.355
349.306
349.371
349.523
349.476
349.439
349.286
348.97
348.5
348.097
347.779
347.655
347.664
347.967
348.621
342.423
342.042
341.392
340.809
340.512
340.467
340.383
340.447
340.582
340.521
340.486
340.375
340.134
339.755
339.416
339.142
339.062
339.093
339.303
339.859
333.012
332.747
332.23
331.768
331.557
331.524
331.444
331.495
331.607
331.547
331.504
331.421
331.243
330.983
330.719
330.465
330.438
330.472
330.612
331.024
323.593
323.419
323.049
322.722
322.586
322.548
322.485
322.52
322.599
322.561
322.518
322.461
322.33
322.167
321.985
321.782
321.774
321.81
321.918
322.193
314.182
314.084
313.842
313.644
313.574
313.539
313.516
313.526
313.581
313.556
313.519
313.496
313.418
313.329
313.216
313.089
313.08
313.12
313.174
313.344
304.753
304.715
304.639
304.573
304.551
304.542
304.527
304.533
304.543
304.539
304.523
304.523
304.49
304.475
304.442
304.387
304.378
304.398
304.404
304.476
372.4
371.414
370.326
369.628
369.07
368.794
368.708
368.681
368.795
368.69
368.679
368.344
367.969
367.433
366.91
366.421
366.452
366.591
367.053
367.808
362.823
362.022
361.083
360.455
359.979
359.741
359.69
359.632
359.759
359.656
359.637
359.336
359.045
358.551
358.101
357.653
357.705
357.824
358.194
358.856
353.208
352.593
351.802
351.224
350.852
350.628
350.617
350.531
350.656
350.555
350.532
350.304
350.059
349.602
349.267
348.872
348.907
349.007
349.301
349.866
343.587
343.113
342.472
341.97
341.68
341.49
341.487
341.4
341.517
341.415
341.375
341.228
341.027
340.641
340.376
340.048
340.07
340.147
340.392
340.84
333.929
333.591
333.08
332.669
332.471
332.303
332.313
332.229
332.346
332.27
332.206
332.107
331.975
331.659
331.457
331.186
331.198
331.267
331.44
331.781
324.252
324.038
323.654
323.355
323.236
323.114
323.099
323.024
323.129
323.104
323.021
322.964
322.876
322.63
322.513
322.289
322.323
322.356
322.471
322.715
314.569
314.45
314.224
314.02
313.966
313.895
313.868
313.835
313.895
313.894
313.84
313.795
313.762
313.594
313.546
313.384
313.425
313.435
313.517
313.647
304.878
304.846
304.772
304.695
304.683
304.654
304.656
304.64
304.658
304.66
304.646
304.629
304.608
304.563
304.54
304.491
304.507
304.504
304.533
304.58
374.395
373.286
372.317
371.436
370.924
370.557
370.37
370.422
370.397
370.168
370.024
369.845
369.446
368.891
368.388
368.047
368.13
368.298
368.795
369.655
364.572
363.621
362.796
362.034
361.587
361.276
361.129
361.159
361.147
360.936
360.794
360.653
360.312
359.809
359.4
359.087
359.193
359.318
359.721
360.435
354.708
353.908
353.227
352.577
352.181
351.958
351.831
351.839
351.842
351.644
351.528
351.428
351.139
350.686
350.359
350.05
350.202
350.302
350.605
351.193
344.824
344.176
343.597
343.068
342.75
342.57
342.465
342.466
342.48
342.32
342.212
342.147
341.893
341.53
341.277
341.007
341.147
341.239
341.459
341.942
334.904
334.413
333.935
333.549
333.275
333.137
333.068
333.071
333.074
332.987
332.871
332.841
332.623
332.322
332.154
331.949
332.057
332.119
332.295
332.664
324.955
324.633
324.278
323.997
323.798
323.698
323.63
323.654
323.642
323.621
323.506
323.488
323.325
323.109
322.998
322.855
322.931
322.976
323.118
323.358
315.007
314.824
314.586
314.429
314.307
314.242
314.199
314.227
314.207
314.204
314.139
314.115
314.02
313.884
313.834
313.744
313.792
313.809
313.892
314.048
305.037
304.976
304.882
304.834
304.8
304.778
304.758
304.771
304.763
304.76
304.748
304.732
304.696
304.658
304.635
304.606
304.624
304.633
304.656
304.716
376.163
375.16
374.109
373.242
372.649
372.309
371.996
371.944
371.867
371.596
371.485
371.189
370.952
370.441
370.005
369.752
369.822
370.053
370.599
371.515
366.069
365.226
364.355
363.611
363.082
362.788
362.512
362.474
362.417
362.164
362.08
361.806
361.619
361.164
360.786
360.554
360.626
360.817
361.263
362.063
355.95
355.232
354.553
353.916
353.437
353.197
352.963
352.947
352.904
352.687
352.65
352.372
352.239
351.837
351.528
351.29
351.405
351.545
351.895
352.565
345.834
345.211
344.702
344.167
343.755
343.584
343.38
343.384
343.342
343.177
343.146
342.897
342.811
342.452
342.22
342.008
342.124
342.224
342.508
343.048
335.707
335.183
334.822
334.381
334.068
333.945
333.796
333.801
333.767
333.642
333.613
333.413
333.358
333.059
332.887
332.722
332.812
332.888
333.099
333.51
325.541
325.15
324.904
324.572
324.373
324.272
324.174
324.201
324.144
324.085
324.027
323.903
323.856
323.641
323.523
323.408
323.469
323.518
323.663
323.951
315.349
315.113
314.973
314.761
314.653
314.586
314.522
314.557
314.511
314.474
314.43
314.361
314.319
314.21
314.136
314.061
314.102
314.131
314.223
314.385
305.151
305.06
305.016
304.945
304.912
304.889
304.873
304.877
304.866
304.855
304.827
304.811
304.797
304.762
304.742
304.718
304.726
304.731
304.771
304.822
377.896
376.862
375.819
374.959
374.094
373.714
373.391
373.246
373.096
372.982
372.823
372.625
372.214
371.869
371.428
371.282
371.313
371.724
372.349
373.128
367.539
366.696
365.786
365.08
364.285
363.986
363.69
363.545
363.441
363.355
363.191
363.026
362.684
362.38
361.982
361.86
361.881
362.227
362.766
363.426
357.162
356.476
355.71
355.133
354.437
354.23
353.958
353.798
353.756
353.677
353.513
353.384
353.118
352.851
352.536
352.408
352.449
352.706
353.129
353.714
346.795
346.25
345.631
345.149
344.585
344.431
344.19
344.039
344.019
343.954
343.83
343.729
343.517
343.296
343.025
342.926
342.968
343.166
343.497
343.993
336.416
336.002
335.522
335.168
334.712
334.588
334.395
334.293
334.246
334.237
334.134
334.047
333.896
333.713
333.507
333.422
333.434
333.587
333.834
334.254
326.022
325.745
325.408
325.148
324.832
324.741
324.593
324.499
324.476
324.498
324.408
324.347
324.262
324.087
323.968
323.893
323.9
324.011
324.199
324.483
315.611
315.448
315.27
315.102
314.932
314.853
314.767
314.72
314.698
314.714
314.678
314.64
314.598
314.461
314.403
314.352
314.345
314.413
314.54
314.729
305.237
305.175
305.122
305.055
304.999
304.974
304.947
304.938
304.928
304.932
304.923
304.914
304.892
304.849
304.832
304.821
304.804
304.824
304.876
304.932
379.303
378.093
377.063
376.117
375.286
374.963
374.549
374.323
374.091
373.996
373.671
373.521
373.2
372.843
372.607
372.452
372.381
372.839
373.58
374.394
368.727
367.684
366.84
366.007
365.272
365.029
364.645
364.435
364.235
364.168
363.891
363.763
363.482
363.185
362.951
362.809
362.753
363.138
363.778
364.473
358.153
357.272
356.566
355.905
355.244
355.063
354.74
354.53
354.363
354.333
354.105
353.988
353.756
353.516
353.285
353.151
353.122
353.408
353.961
354.573
347.588
346.87
346.283
345.758
345.194
345.073
344.794
344.634
344.504
344.485
344.285
344.184
344.018
343.824
343.615
343.496
343.473
343.685
344.162
344.663
337.032
336.475
336.021
335.612
335.158
335.063
334.868
334.726
334.627
334.635
334.482
334.395
334.286
334.116
333.935
333.871
333.82
333.953
334.36
334.744
326.455
326.064
325.727
325.458
325.09
325.053
324.902
324.814
324.734
324.773
324.641
324.609
324.514
324.393
324.246
324.23
324.151
324.25
324.559
324.83
315.879
315.668
315.448
315.303
315.072
315.035
314.965
314.918
314.829
314.874
314.818
314.803
314.725
314.658
314.552
314.56
314.507
314.564
314.742
314.906
305.319
305.253
305.174
305.138
305.05
305.042
305.03
305.016
304.965
304.984
304.966
304.982
304.939
304.915
304.885
304.877
304.865
304.88
304.943
304.994
)
;

boundaryField
{
    hotSide
    {
        type            fixedGradient;
        gradient        nonuniform List<scalar> 
400
(
541.665
542.801
547.179
554.722
565.125
577.942
592.696
608.949
626.337
644.574
663.44
682.775
702.462
722.421
742.599
762.964
783.501
804.206
825.079
846.12
518.045
519.386
524.194
532.376
543.56
557.222
572.813
589.852
607.948
626.802
646.193
665.963
686.003
706.24
726.631
747.155
767.809
788.598
809.534
830.625
502.914
504.74
509.998
518.585
530.131
544.116
559.998
577.289
595.596
614.615
634.122
653.959
674.017
694.229
714.558
734.991
755.533
776.196
796.999
817.957
495.757
498.328
504.068
512.874
524.429
538.291
553.978
571.042
589.105
607.866
627.099
646.642
666.388
686.272
706.261
726.349
746.545
766.868
787.342
807.985
494.479
497.937
504.224
513.234
524.707
538.285
553.565
570.155
587.704
605.926
624.599
643.564
662.718
682.003
701.395
720.898
740.528
760.311
780.274
800.441
496.706
501.096
508.015
517.343
528.855
542.248
557.175
573.289
590.268
607.843
625.805
644.008
662.365
680.838
699.421
718.135
737.011
756.084
775.388
794.952
500.507
505.826
513.455
523.257
535.017
548.451
563.235
579.037
595.547
612.507
629.722
647.072
664.503
682.012
699.63
717.405
735.391
753.638
772.187
791.071
504.437
510.636
519.015
529.426
541.64
555.367
570.272
586.003
602.232
618.693
635.205
651.683
668.127
684.591
701.158
717.92
734.957
752.336
770.106
788.301
507.388
514.349
523.445
534.515
547.318
561.538
576.8
592.702
608.864
624.985
640.892
656.546
672.022
687.453
702.991
718.774
734.912
751.486
768.549
786.129
508.501
516.008
525.667
537.311
550.688
565.455
581.19
597.42
613.689
629.642
645.102
660.085
674.751
689.322
704.017
719.016
734.452
750.412
766.948
784.085
507.182
514.914
524.845
536.808
550.544
565.693
581.797
598.33
614.77
630.716
645.981
660.619
674.855
688.968
703.222
717.821
732.908
748.574
764.869
781.815
503.2
510.764
520.584
532.493
546.226
561.414
577.591
594.222
610.783
626.863
642.273
657.058
671.435
685.679
700.052
714.761
729.951
745.719
762.118
779.172
496.771
503.778
513.117
524.618
538.01
552.924
568.907
585.458
602.099
618.455
634.33
649.722
664.775
679.701
694.72
710.019
725.74
741.984
758.814
776.261
488.59
494.733
503.331
514.215
527.112
541.651
557.395
573.883
590.683
607.458
624.002
640.255
656.277
672.198
688.178
704.37
720.906
737.888
755.386
773.444
479.828
484.909
492.648
502.886
515.337
529.615
545.275
561.867
578.981
596.294
613.586
630.754
647.792
664.764
681.775
698.946
716.395
734.22
752.5
771.283
472.153
476.08
482.96
492.644
504.815
519.036
534.821
551.695
569.243
587.137
605.148
623.145
641.083
658.984
676.917
694.978
713.275
731.909
750.959
770.478
467.815
470.603
476.689
485.932
497.959
512.254
528.258
545.455
563.412
581.797
600.377
619.008
637.628
656.234
674.876
693.635
712.615
731.918
751.63
771.804
469.559
471.359
476.732
485.543
497.366
511.611
527.66
544.968
563.093
581.705
600.572
619.551
638.568
657.608
676.705
695.932
715.387
735.172
755.377
776.049
479.824
480.935
485.661
493.878
505.163
518.927
534.556
551.512
569.365
587.793
606.569
625.546
644.643
663.833
683.135
702.606
722.331
742.403
762.901
783.865
499.323
500.08
504.213
511.622
521.96
534.726
549.389
565.466
582.558
600.359
618.646
637.267
656.13
675.194
694.459
713.962
733.76
753.923
774.506
795.538
)
;
    }
    coldSide
    {
        type            mixed;
        refValue        uniform 300;
        refGradient     uniform 0;
        valueFraction   uniform 0.991591;
        source          uniform 0;
        value           nonuniform List<scalar> 
400
(
300.029
300.03
300.03
300.03
300.03
300.031
300.032
300.033
300.034
300.035
300.036
300.037
300.038
300.039
300.04
300.041
300.042
300.043
300.044
300.045
300.029
300.029
300.029
300.029
300.03
300.031
300.031
300.032
300.033
300.034
300.035
300.036
300.037
300.038
300.04
300.041
300.042
300.043