/*--------------------------------*- C++ -*----------------------------------*\
| =========                 |                                                 |
| \\      /  F ield         | OpenFOAM: The Open Source CFD Toolbox           |
|  \\    /   O peration     | Version:  2212                                  |
|   \\  /    A nd           | Website:  www.openfoam.com                      |
|    \\/     M anipulation  |                                                 |
\*---------------------------------------------------------------------------*/
FoamFile
{
    version     2.0;
    format      ascii;
    arch        "LSB;label=32;scalar=64";
    class       volScalarField;
    location    "./ITHACAoutput/true/9";
    object      error;
}
// * * * * * * * * * * * * * * * * * * * * * * * * * * * * * * * * * * * * * //

dimensions      [0 0 0 1 0 0 0];

internalField   nonuniform List<scalar> 
3200
(
-1.43597
-0.326039
2.53525
2.65173
2.18556
6.62981
5.51323
1.4811
3.09124
5.25985
1.18865
2.81208
5.66447
3.77478
3.39464
-0.638279
3.8686
-0.290951
-0.16093
-1.17799
-1.18109
0.509761
1.8271
4.39324
2.44743
3.62634
2.77553
4.26754
1.60875
5.60486
1.48924
1.99189
3.93697
3.17596
3.87245
2.88886
3.20531
2.37106
-1.63995
-2.664
-0.829488
-2.09716
-1.77443
0.865449
2.86787
1.44793
2.09524
1.65952
3.88959
-0.563368
1.20634
5.01175
1.4685
1.04645
3.17188
1.51186
3.10128
0.238413
0.633284
-0.491657
-1.04806
-0.181935
1.7868
-0.0742782
1.53936
3.99754
1.21604
3.16306
0.985386
1.27836
1.76193
3.29559
1.89911
2.31618
0.109024
1.33491
2.23308
0.436879
-1.29764
0.0886675
0.290417
-1.10812
1.1072
1.3296
0.269697
1.20593
0.508586
-1.56511
1.4311
0.00712012
1.967
2.91391
0.553213
1.50439
1.30774
0.845695
1.80172
1.85613
0.3611
-0.148883
0.757963
-0.86572
0.743109
-0.179236
0.955789
0.379287
0.762037
1.86067
3.07573
-0.723408
0.999446
0.675741
-1.36524
0.179516
0.718883
0.170618
1.50505
1.61954
0.481118
-1.46525
-1.08458
-1.76351
-1.183
-0.317442
0.44819
1.29914
-0.0934468
-2.00777
-0.479164
1.50957
1.27181
0.389974
-1.26208
1.98906
1.2062
0.333289
1.51505
0.39398
-0.836391
-0.0888873
-1.43905
-2.03342
1.91535
0.119828
-1.5047
0.608112
-0.562202
0.528068
-0.117361
-2.15049
-0.999392
-0.606985
0.564229
1.50631
1.22612
-0.973691
1.72389
-0.337031
-0.742059
0.576487
0.240342
0.873822
1.97238
3.5895
5.21329
3.25584
4.94405
0.351553
4.19146
2.45454
2.7338
2.94975
1.79285
2.06886
3.16826
1.29243
3.32205
1.40391
1.69067
-2.33405
0.202181
-0.83492
0.75306
0.0206247
1.0253
0.0493045
1.85098
-0.163654
1.1846
0.179981
0.317111
2.07299
0.0728179
1.98577
0.318798
2.57631
0.0127401
-0.284976
0.0828995
-0.0673975
-1.3438
0.322089
2.86408
3.19703
2.16016
1.95056
4.89725
1.9385
3.16108
0.389781
1.71331
2.52295
0.851086
2.41237
-0.260916
1.01431
0.837513
1.94348
0.318403
-4.35338
-0.487845
0.139923
2.66423
-0.200458
2.2888
2.45868
-1.18933
1.46991
1.9222
1.55764
0.870624
3.32654
2.07884
2.43523
2.46743
-0.398106
2.59403
2.33294
-0.690241
-1.53182
-2.37565
-2.0729
-1.16174
0.29573
0.591093
2.5091
0.391596
2.10572
-0.238654
-1.4111
-0.441098
1.05657
1.8818
2.39751
1.2091
2.27611
0.825732
-0.340453
3.6362
-2.78686
-1.10918
0.4448
0.250723
2.48725
0.721612
1.61778
0.996535
-0.557075
2.68304
1.57955
1.19227
0.00820878
0.898633
2.87318
0.948085
1.97741
2.91181
1.9319
0.305818
-1.36537
-1.24406
2.94927
2.43298
1.40587
3.2365
-0.905471
-0.888707
1.66451
1.33486
2.81793
0.788654
1.89926
1.86678
-0.985515
-0.152141
0.796861
-0.800467
0.18085
0.599333
-2.23212
1.05113
-1.00352
-0.539814
0.304343
0.460872
3.04809
-2.99312
2.42623
0.730608
0.125118
-1.77589
1.99671
-0.0417966
0.749376
1.47499
2.38097
-1.50451
0.50808
0.793271
-1.81396
-0.751878
-1.04229
2.7561
3.20206
4.22041
2.58042
1.29276
1.27555
1.48818
4.57256
4.0463
3.26116
2.25893
1.28825
3.00229
2.44637
-1.44749
1.7491
0.252688
-2.27816
0.969611
-1.26333
-0.00972763
2.08862
4.12757
4.18819
3.86256
0.603302
2.72327
1.89555
1.18497
0.365485
0.875084
1.99482
-0.532911
1.92783
-0.239098
4.34668
-2.12783
-1.98482
-1.52174
0.685158
-0.447299
0.32715
2.90195
1.95879
1.18249
0.8305
0.228482
0.0640992
1.20237
2.62368
2.07733
-0.0971512
1.00089
2.82225
3.32788
2.61632
-2.29645
-0.411597
-1.72258
-1.46324
-0.821992
0.751913
2.65941
1.64778
1.71056
1.68479
1.9295
0.920054
1.47066
0.34806
2.72254
2.10787
3.64588
-0.018711
1.42936
-0.170508
1.11167
-3.80306
-1.44044
-2.99419
0.968384
1.60006
0.637653
3.70607
1.76537
1.34094
0.413771
-0.0278087
0.296784
0.0875121
0.173732
1.02193
2.18513
1.06608
1.30496
0.510014
-0.841048
2.44366
-1.60748
-1.00524
0.640611
-1.20127
0.594598
0.256194
-0.568747
1.62837
0.318465
-1.00951
2.43734
-0.792191
-1.04145
2.84057
-0.543856
-0.871441
-0.819718
0.690061
-1.8263
-2.69155
-2.96063
-0.269294
-0.84208
0.266863
1.81348
2.19841
2.46986
1.2624
0.862145
2.57532
-1.87646
0.435326
1.38513
1.10454
1.51929
0.832785
3.84515
0.968976
0.532605
-1.78643
0.24321
-1.74256
3.6042
-1.07688
-0.753641
0.390199
2.14071
-1.7171
-0.918961
-1.41461
1.59586
0.439527
-0.835651
-0.283956
2.21768
0.899386
-0.855528
0.206707
0.682129
0.923257
-1.52509
3.10489
2.02288
1.77258
2.54814
3.90251
2.76964
2.96909
0.788459
2.82985
0.691458
1.21754
3.59304
1.99451
4.11072
-0.130651
3.58987
0.243811
-0.543581
0.605571
-0.37117
0.146808
-1.12364
-0.00478835
3.50799
0.760826
2.28114
0.45542
0.996589
0.226263
0.263033
2.07073
0.421259
1.60147
-0.453243
2.93843
-0.403108
1.39197
-0.000376826
-2.21229
-1.13021
0.334308
-1.39547
2.94477
2.97618
-0.0039836
2.76466
2.53784
-0.0510488
0.359453
-0.88056
0.2144
-1.35558
1.44742
1.21089
1.11846
-2.57838
1.73923
-1.86815
-2.0978
-1.77344
-0.920342
2.12064
1.783
0.782711
0.926055
2.72408
0.874327
0.117226
2.2824
3.38935
0.0953362
-1.98818
0.461701
-1.82728
3.34829
0.589373
1.40969
-0.289368
0.0883218
-3.69936
-1.61347
1.54682
-1.08366
-0.28176
0.691926
0.111136
1.31719
0.1416
0.373984
1.69123
-1.75832
0.592318
-1.82559
-0.177238
-0.146584
-0.351918
-0.878503
-0.546042
-0.506796
-2.21234
0.138908
1.89685
-0.843522
1.70781
1.80829
0.510945
-1.41332
-0.379889
-1.84549
-3.28976
0.406175
1.18837
-1.30868
-1.02315
-1.56819
0.887142
0.785756
1.06665
-1.40647
-0.0736746
1.11837
-0.54361
0.325618
-2.77175
0.221266
1.73118
-1.63206
2.6759
0.40247
1.7514
2.54801
0.584353
1.08421
-1.36951
-1.15111
-0.229625
0.246491
0.790951
1.45506
-0.640828
1.55915
-0.226484
0.38005
-0.130201
-2.28618
-1.88144
2.43634
0.0853427
-1.11312
-0.617339
-2.46467
0.154016
-0.289843
-1.7156
-0.277102
1.69087
-0.549824
-0.794286
0.457172
-1.14595
-0.30744
-0.104489
1.30736
2.07145
2.92589
1.60285
0.889835
2.45376
1.00074
-2.99073
1.47787
-2.22373
0.486358
2.84407
2.49349
-1.6665
1.21014
-1.24305
-3.09183
-0.800393
-2.30306
0.783113
0.844991
0.881623
0.0681422
-0.574592
0.554444
-0.178836
4.30791
-0.244398
1.62928
-0.939514
-1.09079
0.115735
0.503435
2.98353
-0.292789
2.2723
-2.25642
-1.85704
0.68891
-0.711604
2.16126
-0.25882
2.73241
0.194281
0.338232
1.34178
-1.31969
0.0729917
-0.523321
1.70834
0.095404
0.717301
-0.169496
-1.7779
-1.95021
-2.31849
-3.64396
-1.51774
0.614306
0.083942
2.41926
-1.09627
2.3642
0.441628
0.397347
-0.932065
-1.14933
-0.0541297
-2.99287
0.773489
-0.0849889
1.80986
2.52002
0.188843
0.293918
-2.22133
-3.91862
0.393357
2.55336
1.18199
0.242466
0.652534
1.23671
-1.27074
3.76969
-1.2922
0.402427
0.0656138
-1.61385
-0.201032
0.549556
-1.1284
1.11987
0.584249
-1.81337
-0.113571
-3.38899
-0.291952
0.886754
0.799279
-0.189163
1.75185
-0.189327
0.375125
-1.29425
1.20524
0.150604
-0.15843
2.39284
-0.209808
1.59421
1.19635
0.0405206
1.58364
-1.62489
-1.18908
-2.19035
-3.65855
-1.07599
-1.37627
1.95429
1.23005
0.322621
-1.16668
1.372
-0.513911
0.190206
-1.15813
0.216254
0.864568
-0.282551
0.295701
0.0985937
-1.12554
-0.258064
0.114917
-3.36062
0.898321
-0.292774
-0.162454
1.7443
0.475858
-0.0264503
1.64912
0.709506
-0.755715
-1.69431
-1.40185
1.25326
-0.12149
0.156915
0.358736
0.397569
0.492985
0.14899
0.754362
-0.409416
-3.0823
1.06816
1.69522
3.12979
3.76832
-0.627882
0.865905
0.551003
1.10881
0.14288
-0.526729
-0.501866
1.47034
1.59437
-0.687298
1.16875
-0.16583
0.047346
1.47084
-1.71777
-3.04727
0.016991
1.21634
0.0825025
-1.99255
-0.889109
2.26519
0.609013
-0.794799
-0.0243389
0.00196383
-1.71583
0.333132
0.00450375
-0.255256
0.577981
-0.098855
2.62904
0.224271
-0.662834
-3.31522
-1.32069
2.37022
0.138179
-0.736338
0.43183
2.952
1.47215
0.47671
0.225813
-0.25616
-0.271752
2.29249
-0.435006
2.19107
1.41778
1.80348
0.116921
-0.12097
-2.82588
-1.83666
-0.417038
0.388188
2.41083
2.27175
1.2189
-0.52117
1.88689
1.92156
-0.328992
-0.418574
-2.47563
0.537283
0.623433
-1.27821
-1.60727
-1.80507
1.51631
1.43652
-2.77748
0.34017
-1.98324
0.762643
-0.0786522
0.206769
-0.752487
-1.66909
0.107822
-0.118696
1.01457
-0.00819546
-2.96114
-0.185696
-1.39219
-0.307678
2.02621
1.39992
0.0264158
-1.72178
-2.81546
0.36498
-0.324598
-1.35654
0.475735
-2.28047
-0.125827
0.325614
-0.338921
2.01417
-2.07636
-0.0051959
0.0867072
-0.571617
0.683137
0.822148
-0.135685
-0.794693
0.18424
-3.0169
-1.27238
-1.35109
2.16391
-1.1104
-0.856178
-0.645334
-0.342699
-0.624874
-0.227535
-0.278465
-2.74674
-0.206385
-0.461883
-1.60919
-0.803391
-1.6665
-1.06845
0.359444
-1.86702
-1.54375
-0.244094
0.70759
-2.34687
-0.035347
0.267343
1.06156
-1.47356
-1.50515
0.556479
1.52249
2.1323
0.483198
-0.376022
2.10354
-0.0129256
-1.03451
-1.25933
-0.125561
-0.0284499
-0.239527
-0.235801
-2.83854
1.84395
0.661913
-1.26943
1.93174
1.82445
1.06156
-0.724289
-0.953803
-2.24978
-2.81645
-1.10406
-0.357022
-0.366805
-0.0520349
-0.0772759
1.15588
0.198662
-1.54738
-3.18976
-2.76118
-0.395046
-0.289655
0.217445
2.92649
0.364424
0.581981
-1.06195
-0.0928296
1.2766
-3.84326
-3.92931
-0.191257
-1.69536
-0.201174
1.31068
-2.31958
-0.033868
-3.71206
-2.6684
-3.08574
-1.31162
-0.123744
0.117115
-0.768348
-2.04405
-0.0294837
1.06333
-0.488067
-2.15449
-2.52028
-0.867029
-1.53316
-0.236146
0.620544
-0.0772458
-0.282448
0.867568
-1.39474
-0.416457
-4.27807
-0.347942
1.65553
-0.274347
-0.117389
-2.48499
-1.47434
1.05096
0.37106
-1.21361
0.776119
0.00744078
-1.12449
-0.392507
3.06957
-1.57742
-1.10102
-0.533764
-4.01259
-3.06954
-2.65723
-1.45383
-1.31996
0.931028
-0.119773
-0.726809
0.0486539
-1.17738
-0.930042
-0.731508
-3.25821
0.753857
-1.73693
1.60159
0.505283
0.376101
-0.596097
-1.04228
-0.62926
-0.102038
-0.377665
-0.548707
1.4325
-1.65723
2.11886
-1.12148
2.30274
-1.4496
0.867716
-0.161325
-1.44612
-0.462031
-1.20583
0.247419
0.145632
-0.417279
-2.56786
-3.22971
-1.65449
-0.631182
-2.43328
-0.00911483
1.03457
0.983012
-1.17377
1.21823
0.924953
-1.53793
1.09915
1.61362
-1.6656
-1.13159
-1.11582
0.118264
-0.811089
-1.73793
-0.807788
1.63393
-1.30889
-1.2912
1.26577
-0.876574
0.0849086
0.423596
-1.23192
0.0942568
1.30316
0.929133
-0.320285
-0.414555
0.0917223
-0.188312
-1.75525
-0.799698
-0.6672
2.36253
0.766691
-0.661845
0.690513
-0.172813
-3.36061
-1.74895
-0.719617
-0.212448
1.026
1.61103
1.31397
-0.676697
-2.21867
-2.98454
0.758363
-4.81529
-1.48891
0.133927
-0.0141006
-0.65693
-1.81782
0.483511
-4.19227
-2.50865
-1.45204
-0.313696
-0.414156
0.324655
2.38377
0.300679
-2.12311
0.495258
0.761747
-0.578282
0.56228
-0.0865044
-0.333424
-2.01116
-0.221644
-2.63337
-0.350094
-1.61318
0.308571
-1.50609
-4.61569
-2.57809
-1.05402
-1.52439
-0.199284
1.87223
-0.735279
2.07744
0.909967
0.286531
-0.802323
-2.35704
-1.26308
-1.05845
0.0315857
0.253834
-2.20208
-1.52962
-2.71535
-0.431959
-2.44736
-2.56187
-0.840636
2.2253
1.0882
-0.145425
-0.893077
0.110757
-0.657073
-1.35389
0.0542243
0.397803
-1.20145
1.03701
-1.73831
-0.150919
-3.23341
-0.43247
-2.22042
-3.08261
-3.37463
-1.56066
-1.78011
-0.790603
-1.28738
-0.203567
1.66707
-1.03171
-1.06603
-2.27234
-0.615213
0.45225
-2.17851
-2.73351
-0.429793
-0.153272
-0.576768
-2.61443
-1.88624
-3.54938
-2.11931
-2.30768
0.775223
1.40895
0.908232
1.58984
-0.755378
-0.437018
-1.84824
1.11846
1.44705
2.18817
-1.92343
-0.52901
-0.209186
-1.49934
0.579843
0.133753
-1.02724
-2.07224
-0.802896
-1.54652
0.393887
-3.69123
-0.794401
-0.724394
-0.321567
-0.581813
-1.55993
-0.415287
-2.49526
-0.651322
0.0466538
-0.413467
0.308554
1.74768
-1.83429
-0.177112
0.579707
-0.639909
-0.689834
0.0866781
-0.152326
0.563089
-0.63452
1.97564
2.06588
-0.383665
1.78871
-1.1682
-1.86215
-1.10056
1.36032
-0.859669
4.00415
-0.680584
1.29983
2.41559
0.0675806
2.10198
-3.49657
-4.24432
-0.934532
-1.22562
1.26535
1.8218
-1.50998
0.361688
-1.73736
-1.17364
-2.78903
-3.02221
-1.54879
-1.4199
0.577205
-2.54363
-1.9038
-1.90947
-3.79167
-1.53395
-1.17691
-0.741582
-0.553428
-1.60086
-0.111736
0.9902
-0.656406
-2.77693
-2.29692
-0.796335
-3.72588
-3.97769
-0.391306
-3.28144
-0.144094
-2.13591
-2.69719
-1.89659
-0.730752
-1.52643
-2.02374
-1.43129
-3.16608
1.47334
2.12129
0.365933
-1.81414
-2.25466
-2.28491
-1.79603
-1.86069
-3.45643
-0.630253
-0.225049
0.662803
-0.443471
-1.02459
-1.59443
-0.507618
-3.19114
-1.31342
-3.58909
-2.50905
-3.05659
2.02907
1.2033
-3.89971
-0.280395
-1.70918
0.0916596
-2.94233
-0.666737
-1.42143
-3.85398
-0.125242
-1.90312
-0.601163
-1.60871
-2.84254
-2.26137
-3.74681
-2.62733
-1.16707
-0.653925
0.269199
0.476925
-1.47602
0.371045
-1.72855
1.50228
-2.0553
-2.03586
-3.61101
-1.63896
1.00351
-2.03256
-0.251746
-1.70915
-1.5132
-1.68254
-2.3602
0.333418
-0.271557
0.550192
-0.168033
-1.32276
-0.643932
0.284733
-1.78518
0.952379
1.27209
-3.40449
-1.38947
-0.463937
-2.2495
-0.690607
1.18731
-0.538119
1.13558
-0.487507
-2.37936
-0.0733308
0.34572
1.41987
-0.410357
-0.989533
0.860839
-0.172784
-0.457119
0.425783
1.21744
-0.384238
-1.13801
-0.234901
-0.310286
-1.05188
0.468754
-2.25577
1.68825
-1.33342
-0.121762
0.608164
0.650938
-0.254308
0.998637
-0.488164
-2.52268
0.382503
-1.07098
-1.67014
2.63231
0.186075
-1.54241
1.99431
-1.34138
0.0505718
1.55932
-0.869148
-2.50131
-3.28511
-1.42611
-0.115313
-1.68493
0.28273
1.08231
0.587284
0.0643481
-1.96422
-3.28102
-1.88903
-2.28278
-2.54538
-4.48925
-2.35279
-1.50866
-2.16962
-3.77691
0.828607
-3.69451
-3.91571
-2.91289
-0.175962
-3.77283
0.447078
-2.83405
0.386467
-2.15963
0.0201129
0.709331
-0.555522
0.442229
-1.39066
-0.0521753
-1.32854
-0.0586224
-2.46046
-0.0224763
-1.76181
-0.677074
-2.31911
-3.01986
-1.76311
-2.74166
-1.8789
0.911656
0.0477231
-2.20497
-3.93735
-2.0853
1.514
-1.36444
-2.73759
-0.657578
-1.72961
-0.0534938
-0.309961
-0.0680854
0.985392
-2.57737
-1.18921
-2.5658
-4.12028
-2.71331
0.434531
1.13701
-1.09458
0.830825
0.0464463
-1.53008
-2.20722
-2.99076
-2.65359
-0.66341
-1.3263
-1.92367
0.360242
-0.922266
-0.661221
-2.39308
-2.41979
-0.786093
0.00690491
0.0656046
0.254836
-0.573377
0.277771
-0.270478
-0.881045
-0.309706
-1.85163
-1.73461
0.942636
0.950438
1.63208
0.15201
0.701873
-0.940302
-0.391235
-0.475497
-0.71724
-1.39028
-2.53826
-2.099
-0.862577
-1.22605
-1.08152
2.12857
-0.664403
-1.84256
1.30472
0.0264666
-0.0343219
0.206709
0.0136611
-0.405478
-2.5214
1.71753
-2.51373
-0.884124
-1.75998
-1.40965
2.76925
-0.768473
-0.851322
0.195867
-1.24913
0.609602
-0.066032
-1.49416
-1.66671
0.296179
0.610909
-2.95409
-1.89765
1.83628
-0.471511
-0.230773
1.81816
-1.62777
-0.66241
0.392247
0.000265202
-0.555895
-1.41902
-2.52711
-0.367499
0.717101
-0.0306456
-1.11225
0.220978
-2.78357
-0.545064
-1.76315
-1.30611
-2.19482
-1.15637
0.179537
1.02989
-2.76125
-2.46526
-5.39219
-1.60928
-0.52041
-1.48148
-2.87955
-0.237445
0.238314
-2.1177
0.408566
-3.02926
-4.01639
-4.68755
-2.47598
-2.59667
-2.70042
-0.54775
-0.534139
-3.06165
-4.07274
-2.49709
-2.49147
-0.834276
-0.578267
0.562091
-2.36093
-0.950786
-1.7556
-0.188118
-0.81349
0.433805
0.106886
-3.62387
0.264265
-4.30354
0.452519
0.651476
-0.0897133
-2.87615
-0.460679
-3.68162
-3.59317
-1.74881
-2.07725
-1.68391
-2.58266
-0.978277
1.27745
-0.904508
-2.50641
-1.70215
-3.25233
0.617854
-1.79183
-1.60726
1.14958
-0.709306
-0.486995
-3.32399
-1.92434
-2.44747
-5.74109
-3.34866
-2.13931
3.25226
-3.51613
-1.80009
0.473576
-2.03633
-2.06972
-0.432429
-1.6728
-1.35971
-2.37544
-2.6649
-0.85638
-1.09529
0.764757
-0.582329
-1.56624
-2.02113
-2.65041
-0.711825
-1.33719
-0.646514
-0.378923
0.0979227
-0.155949
-3.11802
-0.104138
-0.425305
-1.38501
-2.78348
-1.52419
-0.67239
1.78323
-2.62032
-1.12125
-0.782366
0.17077
-3.68862
-1.03303
-1.56575
1.31202
-2.42907
-0.776436
-0.0456742
-0.686677
0.276739
-2.38121
-3.33139
-1.38719
0.376907
-1.82167
1.75233
-0.691299
-1.84003
-3.14292
-2.08142
0.0636712
-1.4568
-1.31997
-1.75532
-0.49265
1.38769
1.5215
1.6166
-1.16663
0.473821
-2.28152
-1.11742
-2.13735
-0.420414
0.941882
-0.737844
-2.16691
-0.42132
-0.579122
-0.982118
-1.71835
-0.578305
-0.124024
0.689415
0.0195111
0.411567
-0.729552
-2.68221
-0.0861392
0.0169074
-0.496275
-1.30278
0.550945
-1.44613
-1.31008
1.70572
-1.4544
-0.132456
-1.34679
0.358592
0.721504
-1.31376
-5.97353
-2.76637
-0.89935
0.434327
-0.662316
-2.37028
-2.23025
-2.86068
-3.58493
-1.09863
-3.28157
-4.46698
-2.20628
-3.74087
-2.36087
-3.15352
-1.74706
-2.71905
-0.708325
-5.06711
-3.40788
-3.27411
-3.29256
-1.35195
-0.926375
0.172622
0.280841
-2.09029
-1.9141
-1.45977
-3.18405
-3.02605
-0.524446
-0.775441
-1.37349
1.54121
-3.68089
-0.808056
-4.09029
-4.06216
-3.77846
-2.57986
-2.21393
-0.304654
-0.339108
-2.27554
-0.229654
-2.11292
-1.97584
-3.11738
-0.572099
-1.19633
-3.55787
-1.21659
-0.792172
-4.06208
1.17875
-1.06863
-1.93607
-4.09078
-1.55569
-2.67239
-1.08698
-3.45438
-0.659184
0.595741
-1.76044
-0.143976
-0.525504
-1.12583
-1.19702
-1.21045
-0.909472
0.0334363
-0.244426
-1.22583
0.415956
-0.959047
-2.91326
-2.91365
-6.0998
-2.60023
-0.742597
0.128895
-1.95571
0.59476
-0.562591
-2.54871
-2.12725
0.864192
-1.14447
-0.561454
0.153056
-0.685148
-0.975189
-0.682041
1.03901
-0.119993
-1.3532
-0.419511
-3.17226
-2.01237
-1.42728
0.801701
-1.1864
0.0562705
-0.716004
-0.460046
1.33179
-2.26618
-0.397035
-1.51138
2.41993
-0.523787
-0.790945
0.543604
2.47987
-2.28169
0.128151
-0.695639
0.347507
-1.85508
-0.45928
0.212899
0.200088
-0.759066
-0.414832
-0.456338
-1.5119
-3.14738
0.658133
0.419041
2.94213
0.896256
1.45542
-1.06843
-0.777156
0.299069
-0.90558
0.808405
-1.42662
0.473929
-0.42329
-0.0440616
-0.204435
3.70826
0.99823
0.796072
2.0526
-1.26661
0.478839
-1.26431
0.134565
-0.511992
0.431665
2.0392
1.05807
-0.383575
0.523109
1.27476
-4.67473
-3.84798
-0.865287
0.773496
-0.351102
-0.698008
-2.12265
-3.77493
-1.14728
-0.175259
-3.11929
-4.50411
-4.5873
-0.0178488
-0.782127
-0.316908
-4.47682
-2.84783
-1.1039
-2.8119
-3.17156
-0.465835
-2.76493
0.0778407
-1.42701
-0.0192652
1.50857
0.0256468
0.111651
0.729398
0.329955
-3.41578
-0.25034
-1.9465
0.209525
0.570393
-0.429712
-1.40538
0.17533
-1.95614
-1.41025
-2.20276
-3.66183
-2.28356
-0.522154
-1.00651
-2.59625
-1.23658
0.143609
-2.53475
-2.2436
-2.6942
-2.66892
0.952934
0.421028
-0.655554
0.910343
-0.0123314
-0.690628
-2.2857
-5.06259
-2.9624
0.131351
-3.45033
-0.334143
-0.726646
1.96726
1.60627
-1.08048
-0.319999
-2.31036
-1.44966
-1.63669
-0.531999
-3.84729
-1.34303
0.653583
-0.812079
-2.78132
-1.26552
-3.07304
-4.72144
-1.82679
-0.289812
0.809235
-2.36592
-0.529823
-2.3775
-0.834719
0.482691
-0.312211
-2.4469
-1.08354
0.408821
-2.9051
0.708297
-1.49629
-0.732281
-1.10541
-0.97951
-1.93555
-0.206868
-3.06451
-1.54513
-1.15717
-1.5383
2.58382
-0.494516
-1.48317
-0.571642
-2.6098
-2.38846
-2.64213
-0.125938
-1.01217
1.26256
-1.22693
-3.27093
-1.95484
-0.725985
0.48001
-0.260569
-1.94451
1.59704
0.691662
-1.50616
-3.07964
-0.200332
0.850081
-1.88648
0.345752
-2.98127
0.0726044
-0.637132
0.476738
-1.13328
-1.71762
-3.08944
1.43338
-1.4655
0.932557
0.627193
1.04621
-0.693704
-0.217832
0.717707
-2.40295
-0.40877
0.118959
-1.5164
-1.26498
-1.75894
1.26643
-0.057402
-0.853662
-2.61592
-2.6101
-1.49902
-0.0144221
1.458
-2.28589
-2.30785
-2.18383
-1.24114
0.855934
-2.38121
-1.87977
-0.417872
-2.04852
-1.24194
-2.21644
-2.85681
-2.66293
-0.685201
-0.761773
-2.48971
-0.583602
0.36936
-1.71853
-2.61294
-1.38437
-0.374948
-0.895084
-3.53863
-0.443525
0.321403
-0.585052
-0.522338
-1.29773
0.242836
-2.06676
-0.425617
0.00611454
-0.450824
-3.76163
-1.03111
-1.04066
-1.60072
-2.21167
-2.22738
-2.06708
-2.19543
-0.6354
-1.6209
-2.00133
0.906076
-1.25651
-2.2351
0.591828
-2.00313
0.710707
-3.97903
0.308097
0.855426
0.03018
-0.223815
0.218026
-1.15278
-1.34922
-3.61489
-2.52289
-1.95508
-1.25595
-1.21512
-2.00145
-2.90121
0.413704
-0.978097
0.980461
-0.42381
0.49234
-0.457427
-1.60795
0.407293
-1.26481
1.77395
-1.35915
0.750341
-1.06046
-3.75988
-4.20441
0.716014
-2.04405
-0.169421
0.270271
2.13889
1.10995
0.187492
1.24923
0.237101
-3.79156
1.57975
-2.86268
1.26668
-0.624635
-1.38552
-0.613914
-1.09144
-1.87506
-2.51113
-1.35407
-1.52264
-2.86318
-1.80167
1.184
0.241307
-0.114283
-0.537119
1.73682
-0.439959
-2.05133
-1.5891
-0.175059
0.304197
-1.89419
0.0898175
1.5479
-0.291796
0.173744
-1.32617
-1.19704
0.366139
1.18974
-0.429401
-2.05367
-1.55234
0.826311
-0.983693
0.523362
0.143602
-0.497502
-0.551003
-0.645773
1.50456
-0.450601
-0.297605
-4.29043
-0.0953494
-1.75921
-0.784603
-0.107454
-0.868608
0.914861
2.67683
-0.499004
1.28875
-1.08047
0.364868
1.23784
-3.34447
-0.227835
-1.33822
0.817958
1.26238
-0.520539
0.340303
-1.23623
-0.277897
0.535282
-0.657761
-1.78815
-2.49662
-0.70954
-1.23435
-1.13816
3.37424
0.89192
2.17002
0.199535
-0.800596
-2.96045
-1.08603
-0.927446
-1.21619
0.253862
-1.50238
2.4329
-2.05686
-2.14438
-1.0017
-0.7015
-0.241103
0.118872
0.148631
-0.450402
-0.463966
-0.576771
0.560228
0.0893724
-0.264967
-0.269148
0.00370999
-0.430085
0.911663
-0.454977
-2.96719
-0.245277
-0.500876
0.3286
-3.3567
-2.31389
-3.39316
-0.572277
0.190447
-1.02828
0.1052
-0.218231
-2.29621
0.120852
0.722505
0.696062
-1.1497
-0.328565
0.250403
-1.39296
-1.42418
0.625271
-1.23739
-1.43137
-3.38612
-1.2858
-0.581939
-2.76301
-1.57581
-1.47422
-1.14689
0.962732
0.360949
-0.914257
-1.73732
-1.56602
-0.312577
-1.23071
-1.329
1.47403
1.10669
-0.655453
0.907646
-1.83423
-2.08346
-2.46288
-4.8368
1.53393
-1.26132
-0.894984
-0.86741
0.305979
-1.24986
-0.9619
-0.478087
0.340886
-0.56486
-2.25884
-0.960249
1.13957
-1.84943
-1.03472
-0.677559
1.22624
-1.77387
-2.17468
-1.62994
-3.50523
0.159834
0.351487
-1.83175
-0.563758
-1.55609
-0.0318015
1.40872
2.00637
-2.97963
-0.293754
0.596589
1.08671
0.973791
-0.808752
-1.82394
-2.51774
-3.3571
-1.36484
0.0408006
-0.00291605
0.717431
1.26815
0.907891
-0.236787
0.93012
-0.384222
-0.067133
-1.17142
0.0585687
-1.09668
0.708742
-2.14365
-2.9459
0.286447
1.66825
0.218953
2.39776
-0.645193
0.192606
1.17258
-0.484865
-0.2441
0.027106
-0.80429
-0.430371
-2.12931
-1.08635
-1.65423
0.85191
1.12618
-0.314892
-0.166342
0.829495
-2.47462
1.66229
-2.01405
1.272
-2.73999
-1.2986
-1.36091
-0.559605
0.0839774
0.869917
-0.594705
0.731067
1.36221
-0.0717896
1.14759
0.733083
-1.38035
2.13267
0.0593243
2.97853
0.394809
1.7323
0.573281
-2.40098
-2.44162
-0.955659
-1.79817
-1.815
1.75274
0.757581
1.11216
2.49994
-1.11043
0.8152
-1.66742
0.698338
-0.417982
2.26771
-0.936526
-1.24264
0.774345
-2.1811
-0.0414441
-1.67187
-1.93013
-2.39868
0.101424
-0.743002
-1.17176
1.51683
0.724969
0.525396
-1.15616
0.516614
1.54869
-1.05868
-0.16232
0.237238
2.9488
-0.46993
2.1772
-1.53437
-0.0353405
0.335582
-0.37696
-1.12093
-0.399092
-0.0218424
-2.30621
-2.19503
-0.756947
0.356256
1.24977
-1.70528
2.31024
-0.940876
1.2855
-1.03866
-0.598709
2.52415
1.26948
-0.0187572
-1.93279
-2.25469
-3.15885
-0.96902
-0.257888
0.491495
0.694792
2.42152
-0.618353
0.817485
1.11085
1.51176
-0.471333
-0.0959075
0.497709
0.69851
-0.955923
-1.57896
-0.0582811
0.983906
-0.0697008
-1.26566
-0.720928
-0.784929
0.451474
-2.23506
0.707053
-1.30244
-1.43259
-1.65488
1.09859
4.88057
1.88495
-0.0603405
1.28583
0.59101
0.0293947
1.64982
0.107969
-1.57316
-1.17541
-0.823547
-2.94145
0.252327
-0.841021
0.585529
1.14408
0.40689
-0.525333
1.43131
-1.58377
0.457749
-0.544209
0.623444
-2.01899
-1.63893
2.24287
0.92531
0.221554
1.02823
-1.411
1.0385
1.90638
0.739294
0.512403
0.688885
0.515853
1.46908
0.077364
3.02803
0.192421
-2.58863
-0.924788
1.88419
1.4809
-0.743104
0.36208
-1.40473
-0.464471
-0.58553
-0.666715
0.600896
-1.0549
-0.224374
-1.91065
-2.27731
0.696765
-0.564437
3.16002
1.5169
0.794542
0.31343
3.66052
1.45509
2.01245
3.45125
2.7693
1.98783
-0.450917
1.2927
1.42987
0.361557
-2.56656
-0.787471
-0.540497
0.955641
2.04168
0.938523
1.50198
0.0310544
1.68023
-0.773669
-0.0306328
2.52658
0.114615
1.63957
-0.307032
2.88702
0.261546
0.356709
0.117386
-2.32327
-2.04141
0.73617
-0.947538
2.32424
2.14823
0.724799
0.209143
0.793251
0.747498
-0.137834
1.01027
0.872659
2.98777
-0.680672
-0.174087
3.17015
0.220573
-0.249057
-0.70658
-0.804932
-0.808886
-1.39523
-2.72601
-1.05168
-0.400439
1.17918
-0.6941
0.581441
1.70973
0.446048
3.19774
0.452561
1.40804
3.04624
0.823595
0.325952
1.22195
-0.213511
-0.0984063
-1.08292
0.103133
-1.66881
-2.24406
0.30401
0.297356
2.08429
-0.255424
-0.00136557
1.59766
1.52419
1.46856
1.48217
-0.72796
0.0262873
-1.89762
-0.183237
-0.506211
-1.87217
-0.469752
-0.500017
-2.72977
-0.215756
0.625708
-2.26526
-0.376165
-0.11374
-1.6515
-1.92755
-0.364733
1.96644
1.24184
2.18814
0.183638
0.223344
-0.244036
1.38686
1.21002
-2.80972
-1.74298
3.04533
-0.765393
0.457415
-0.306133
2.44229
1.56991
1.0165
2.26472
-0.802906
0.880082
0.172493
-1.31388
-0.126399
-0.683129
-1.74116
-1.52571
-0.130439
0.0584097
-0.305406
0.0470065
0.229049
-0.735951
0.941446
-0.427774
-1.9842
1.31386
-0.571297
-0.774256
-1.14419
-0.213195
-0.64659
2.14513
-1.69866
-0.367308
0.30792
-0.133245
-1.923
0.244416
-0.820944
-1.15448
-0.738199
-1.1384
-0.248354
1.20476
0.483892
1.09099
1.77578
3.41223
2.53626
1.43129
3.18841
3.64618
1.93492
0.807804
1.95399
2.40356
4.02031
3.22812
-0.140107
-1.09489
0.0466268
-1.14249
0.488512
-1.41983
1.13096
1.34916
-0.864594
2.09408
2.20026
2.73428
0.205578
1.84059
2.71857
2.08697
0.465663
3.39898
2.77443
1.94926
1.33276
0.599134
1.05156
1.10827
1.00529
0.23061
-1.37732
2.9411
2.94677
0.675361
1.1971
3.07176
-0.628873
3.34715
2.19176
2.46346
3.27516
-0.330818
1.79775
0.266133
2.8294
0.210143
0.333265
0.149725
-1.9749
1.38129
1.00715
1.35224
1.75498
0.898805
4.04546
0.982111
1.79983
1.40507
-0.0905475
2.28619
2.96988
-0.190313
1.77839
-0.666023
0.207675
0.131235
-0.00833953
-1.49537
-0.709581
-0.147595
1.33008
1.08177
0.10921
1.29471
0.343265
0.181414
1.10243
1.7955
2.88012
1.66033
-0.193307
2.16805
2.09616
1.37829
1.70379
0.672911
-0.735419
-1.09411
-0.951049
1.10261
1.04167
1.67177
1.84191
1.23057
-0.0857226
-0.496305
-1.34917
1.17555
0.275144
0.099801
-1.50983
0.0132202
3.21965
-0.48891
0.256999
0.294323
0.338074
-1.51917
1.64165
0.644289
-0.766846
-0.640961
-0.454428
-1.51032
-2.46504
1.333
1.36781
-0.961769
0.207899
1.51949
2.96236
1.33832
-1.04635
-1.86525
1.03639
0.859545
-0.284726
-1.75605
-0.148273
1.67485
-0.786928
-0.784203
-1.30572
-1.8705
0.927819
-0.0838589
3.54857
0.0954522
-1.0455
0.355208
-1.34788
-0.365295
1.73072
1.71663
1.48902
0.758592
-0.047097
-0.676007
-0.393008
3.92173
3.16807
3.35339
4.2423
1.71797
4.41375
3.94152
5.63389
5.27528
2.24763
5.01401
4.54642
4.05638
3.38147
6.80628
3.58694
1.69595
1.31413
-1.41655
0.257322
3.13696
0.0604774
0.649375
0.328859
4.84057
-0.293567
2.43233
-0.00330605
0.463232
3.88233
0.0190021
2.44314
-0.0362774
4.80892
0.461223
2.3261
0.485943
1.00634
-1.78643
0.535723
4.5478
1.35626
0.996775
2.76983
2.35709
0.980389
2.50818
1.34037
1.51031
2.78886
3.56372
3.85948
3.49713
1.49413
1.9635
2.65119
1.19538
-0.141929
-0.362231
0.354804
1.60634
0.998048
0.763779
0.549872
1.76254
2.98719
2.26144
2.58298
2.15453
3.16957
0.143426
4.3858
3.47445
2.4537
1.86298
1.836
1.49838
0.676865
0.198598
-0.389064
0.592673
0.463082
-0.259413
0.94739
2.20051
3.18296
0.586441
1.27714
0.375387
0.405072
-1.53494
1.58555
-1.55935
2.01631
1.15298
1.45235
1.43007
1.58244
-0.9186
-0.0339288
0.0998513
0.305483
0.918421
1.92248
3.00196
0.984728
2.55357
0.266583
2.14885
2.19239
3.30337
3.08815
0.463063
1.8
2.51251
2.84101
-2.07051
0.464177
-2.06156
0.537457
-1.07132
2.8638
-0.785052
0.366905
-0.780567
1.56646
0.40346
-1.01453
0.344198
1.38576
0.345196
-0.358779
0.169015
0.966247
2.48753
0.366335
1.31986
0.34389
0.110694
-2.1895
-2.37689
-0.663506
-1.68953
-0.417948
-0.903655
1.33134
-0.0345434
0.671983
1.68762
1.02258
0.780529
-0.444347
1.20752
-1.17091
1.99928
0.41669
0.0535759
0.683173
1.46815
1.54771
3.07035
3.45193
3.86661
2.78308
4.16916
2.03705
2.63821
5.57353
4.23643
5.03746
3.71283
3.42818
1.8325
6.56176
4.56606
5.33327
2.38066
1.66875
-1.09643
-0.244858
2.99037
3.44471
1.96598
4.16546
4.52968
3.47971
6.0856
4.01977
6.35647
5.4398
2.99024
3.04015
3.3449
4.61397
0.910963
0.20131
1.96075
0.8518
1.6736
0.145534
1.91138
2.53765
0.336534
4.35729
3.02593
3.16256
3.94973
3.14508
3.20047
1.89427
5.10802
2.7265
4.12304
2.33147
4.39187
1.19049
1.35776
0.994924
0.803619
-0.870691
1.35967
1.43521
1.04246
0.770439
2.949
1.78831
4.84222
4.05832
0.810784
2.74917
3.19504
5.22364
5.17082
1.129
2.65305
3.30875
1.36511
0.773185
-0.977511
1.97612
-1.38335
1.00415
3.95594
1.28785
0.657867
4.10999
-1.02803
0.505551
3.61745
2.48346
0.513444
2.23778
0.694772
2.58319
3.73575
0.777604
0.715017
2.7361
1.04578
0.167478
0.230807
1.75929
3.59256
1.35289
-0.72332
1.70293
1.43601
-0.128543
1.01701
2.32904
-0.277677
4.77148
-0.946309
-0.442501
0.423527
0.281136
1.13126
0.865042
0.556558
-1.41491
1.89892
-0.482314
0.940006
2.15326
0.485527
0.793823
-0.119998
0.274182
2.36528
-1.09747
0.0215802
-0.354979
3.98628
2.32004
4.4013
1.8818
0.0213004
0.280192
0.428907
0.578944
1.51815
0.364727
1.52616
-1.12786
-2.88349
0.51767
0.549953
1.20964
-0.0484415
1.70939
0.83447
1.61722
0.795321
-1.496
3.5682
-1.25852
-1.899
0.858153
)
;

boundaryField
{
    hotSide
    {
        type            calculated;
        value           nonuniform List<scalar> 
400
(
-0.641511
1.03632
0.0471711
-0.721389
-0.335938
-2.26426
-2.01063
-2.52092
-2.64308
-0.556698
-4.50463
-5.06551
-3.74385
-1.32967
-0.804064
-1.72542
-0.00721381
-0.0548971
0.446028
2.63146
0.496327
1.69749
-0.215991
3.93521
0.528381
1.91106
2.69563
-0.88667
-3.36948
0.774173
-0.702939
-1.84085
-2.90085
-1.33661
-1.49866
-0.271255
0.835065
0.845934
0.738907
2.72007
3.38782
2.82599
3.61181
2.88187
0.759047
2.56471
1.5389
0.166613
-0.037171
-0.774388
0.405528