/*--------------------------------*- C++ -*----------------------------------*\
| =========                 |                                                 |
| \\      /  F ield         | OpenFOAM: The Open Source CFD Toolbox           |
|  \\    /   O peration     | Version:  2212                                  |
|   \\  /    A nd           | Website:  www.openfoam.com                      |
|    \\/     M anipulation  |                                                 |
\*---------------------------------------------------------------------------*/
FoamFile
{
    version     2.0;
    format      ascii;
    arch        "LSB;label=32;scalar=64";
    class       volScalarField;
    location    "0";
    object      relativeErrorField;
}
// * * * * * * * * * * * * * * * * * * * * * * * * * * * * * * * * * * * * * //

dimensions      [0 0 0 1 0 0 0];

internalField   nonuniform List<scalar> 
3200
(
0.00418444
0.000948678
0.00736292
0.00768538
0.00632095
0.0191348
0.0158819
0.00425975
0.00888024
0.0151007
0.00341253
0.00807829
0.0162914
0.0108739
0.00979753
0.001846
0.0112122
0.000844984
0.000468261
0.00343269
0.00349939
0.00150842
0.00539757
0.012955
0.00720369
0.0106543
0.00814093
0.0124994
0.00470713
0.0163907
0.0043551
0.00582817
0.0115312
0.00931541
0.0113773
0.00850301
0.00945195
0.00700453
0.00485275
0.00789302
0.00249985
0.00631348
0.00533432
0.00259769
0.00859432
0.0043323
0.00626008
0.00495223
0.0115968
0.0016789
0.00359504
0.0149425
0.0043822
0.00312654
0.00949049
0.00453067
0.00930865
0.000716722
0.00190649
0.00148172
0.00321411
0.000557451
0.00546832
0.000227027
0.00469871
0.0121861
0.00370253
0.00962101
0.00299503
0.00388401
0.00535322
0.0100168
0.00577649
0.0070522
0.000332349
0.00407466
0.00682528
0.00133703
0.00397599
0.000271918
0.000906644
0.00345703
0.00345093
0.00413987
0.000838852
0.00374701
0.00157875
0.00485451
0.00443627
2.20649e-05
0.00609564
0.00903284
0.0017159
0.0046699
0.00406334
0.00263041
0.00560989
0.00578521
0.00112653
0.000464793
0.00240977
0.00275099
0.00235977
0.000568749
0.00303057
0.00120172
0.00241274
0.00588775
0.00972851
0.00228762
0.00316053
0.00213737
0.00432008
0.000568379
0.00227769
0.000540986
0.00477581
0.00514291
0.00152884
0.00465843
0.00351292
0.00571027
0.00382897
0.00102699
0.0014493
0.00419908
0.00030191
0.00648442
0.00154714
0.00487349
0.0041059
0.00125916
0.00407609
0.0064263
0.00389865
0.00107775
0.00490149
0.00127518
0.00270824
0.000287904
0.00475045
0.0067118
0.00632121
0.000395405
0.00496435
0.00200599
0.00185428
0.00174148
0.000387005
0.00709102
0.00329539
0.00200156
0.00186074
0.00496819
0.00404462
0.00321244
0.00568844
0.0011123
0.00244935
0.00190304
0.00070005
0.00254147
0.00572585
0.0103992
0.015072
0.00939366
0.0142376
0.00101078
0.0120374
0.00704487
0.00784635
0.00847131
0.00515478
0.00595779
0.00914097
0.0037365
0.00962437
0.00407558
0.00491724
0.00679845
0.000598799
0.00246965
0.00222386
6.07978e-05
0.00301684
0.000144813
0.00542753
0.000479206
0.0034652
0.000526198
0.000927116
0.00606391
0.000213223
0.00582277
0.000936345
0.00758054
3.75556e-05
0.000841562
0.000245213
0.000199611
0.00404847
0.000969329
0.00860734
0.00959316
0.00647164
0.00583464
0.0146281
0.00578338
0.00942265
0.00116134
0.00510473
0.00752048
0.00253915
0.00720577
0.000780468
0.00303877
0.00251308
0.00584069
0.000958235
0.0131155
0.00149566
0.000428608
0.00815145
0.000612538
0.00698463
0.00749339
0.00362045
0.00447012
0.00584134
0.00473168
0.00264471
0.0101089
0.00632192
0.0074131
0.00752006
0.00121488
0.00792653
0.00713784
0.00211433
0.00469633
0.00741483
0.00646546
0.00362018
0.00092061
0.00183816
0.00779472
0.00121538
0.0065303
0.000739695
0.00437231
0.00136675
0.00327477
0.00583586
0.00744109
0.00375618
0.00707816
0.00257051
0.00106091
0.0113415
0.00869829
0.0035258
0.00141321
0.00079606
0.00789135
0.00228773
0.00512506
0.00315482
0.00176257
0.0084855
0.00499447
0.00376992
2.59615e-05
0.00284325
0.00909589
0.00300349
0.00626901
0.00923835
0.00613389
0.000971641
0.00434017
0.00402911
0.00954884
0.00787401
0.00454787
0.0104649
0.00292642
0.00287104
0.00537545
0.00430974
0.00909679
0.00254592
0.00613198
0.00602864
0.00318378
0.00049171
0.00257657
0.00258943
0.000585297
0.00194046
0.00722908
0.00346975
0.00331227
0.00178148
0.00100423
0.00152048
0.0100545
0.00987176
0.00800113
0.00240916
0.000412554
0.00585567
0.00658409
0.000137835
0.00247156
0.00486544
0.00785515
0.00496438
0.00167675
0.0026183
0.00598782
0.00218806
0.00302884
0.00799434
0.00926941
0.0121924
0.00743972
0.00372037
0.00366518
0.00427137
0.0131164
0.0116068
0.00936015
0.00649082
0.00370741
0.00865602
0.00706732
0.00419022
0.00507343
0.000734295
0.00662973
0.00286943
0.00373401
2.87056e-05
0.00615256
0.0121369
0.0122935
0.0113194
0.0017656
0.00796194
0.00553907
0.00346266
0.00106856
0.00256099
0.00584589
0.00156424
0.0056687
0.000704323
0.0128268
0.0062892
0.0058738
0.00458147
0.00206063
0.0013434
0.000981069
0.00868897
0.00585611
0.00353032
0.00247656
0.000680759
0.000190897
0.00358084
0.00781719
0.00619462
0.000290045
0.00299232
0.00845032
0.00997976
0.00785777
0.0069066
0.00123918
0.00527818
0.00447969
0.00251363
0.00229644
0.00811173
0.00501973
0.00520494
0.00512153
0.00586129
0.00279383
0.00446578
0.00105731
0.00827614
0.00641389
0.0111067
5.70721e-05
0.00436547
0.000521409
0.00340337
0.011653
0.00449386
0.00933494
0.00301638
0.00497898
0.0019822
0.0115091
0.0054773
0.00415723
0.00128207
8.61402e-05
0.000919318
0.000271157
0.000538609
0.00317067
0.00678588
0.00331399
0.00406073
0.00158862
0.00262212
0.00762368
0.00510813
0.00319283
0.00203336
0.00381019
0.00188454
0.000811399
0.00180009
0.0051509
0.00100697
0.00319134
0.00770509
0.00250487
0.00329436
0.00899042
0.00172246
0.00276197
0.00259998
0.00219031
0.00580066
0.008553
0.00958657
0.000871723
0.00272477
0.000863123
0.00586273
0.00710396
0.00797788
0.00407628
0.00278316
0.0083125
0.00605674
0.00140531
0.00447257
0.00356776
0.00490945
0.00269227
0.0124365
0.00313538
0.00172408
0.00578448
0.000802776
0.00575119
0.0118938
0.00355312
0.00248622
0.00128705
0.00706004
0.00566231
0.0030301
0.00466423
0.00526184
0.00144926
0.00275564
0.000936483
0.0073149
0.00296703
0.00282279
0.000682128
0.00225131
0.00304745
0.00443231
0.00901088
0.00586021
0.00512515
0.00735301
0.0112395
0.00796264
0.00852334
0.00226098
0.00811025
0.0019817
0.00349141
0.0103145
0.00573414
0.0118391
0.000377012
0.0103796
0.000706314
0.00157756
0.00175994
0.00109713
0.00043342
0.0033121
1.40904e-05
0.0103047
0.00223113
0.00667903
0.00133169
0.00291136
0.000660659
0.000768021
0.00604929
0.0012318
0.00468902
0.00132914
0.00863167
0.0011862
0.00410305
1.1125e-06
0.00653926
0.00339924
0.00100444
0.00418711
0.00882281
0.00890351
1.18999e-05
0.00824756
0.00756238
0.000151993
0.00106978
0.00262067
0.000638358
0.00403942
0.00431795
0.00361719
0.00334598
0.00772506
0.00521856
0.00561292
0.00630936
0.00542941
0.00281529
0.00647968
0.00544137
0.0023857
0.00281916
0.00828359
0.00265622
0.000355895
0.00692678
0.0102862
0.000289437
0.00604012
0.00140397
0.00556273
0.0102056
0.00179865
0.00430736
0.000885165
0.000270399
0.0115334
0.00502698
0.00481508
0.00337005
0.000875372
0.00214759
0.000344636
0.00408163
0.000438545
0.00115793
0.00523637
0.00544562
0.00183544
0.00566123
0.000550111
0.000455408
0.00109442
0.00273468
0.00170127
0.00158003
0.00702674
0.000440984
0.00601798
0.00267429
0.00541052
0.00572481
0.00161654
0.00446907
0.00120078
0.00583216
0.0103964
0.00128387
0.00375777
0.00414043
0.00323914
0.0049682
0.00281258
0.0024929
0.00338624
0.00446717
0.000238488
0.00361917
0.00175849
0.00105287
0.00895834
0.00071483
0.00559059
0.00526874
0.00863649
0.00129881
0.00565193
0.00822371
0.00188646
0.00350128
0.0044244
0.00372042
0.00074248
0.000797358
0.00255961
0.0047101
0.002115
0.00514534
0.000747316
0.00125385
0.00042949
0.00754022
0.00620449
0.00803347
0.000281382
0.00366989
0.00203533
0.00812623
0.000507846
0.000955824
0.00565835
0.000914065
0.00557846
0.00181422
0.00262122
0.00150886
0.00332447
0.000890687
0.000302195
0.00377399
0.00596832
0.0084146
0.00460187
0.00255115
0.00702769
0.00286461
0.00856099
0.00423268
0.00637542
0.00139636
0.00817928
0.00718431
0.00481072
0.00349987
0.00360126
0.00896958
0.00236213
0.00678887
0.00230493
0.00248297
0.00258628
0.000199572
0.00168034
0.0016194
0.000521866
0.012565
0.000712844
0.00475443
0.00274409
0.00318991
0.000338962
0.00147685
0.008767
0.000861764
0.00669818
0.00665919
0.00557767
0.00206711
0.00213243
0.0064674
0.00077338
0.00815326
0.000578975
0.00100688
0.00399123
0.00392391
0.000217031
0.00155666
0.00508556
0.000284312
0.00214036
0.000506472
0.00532021
0.0058441
0.00695676
0.0109447
0.00464131
0.00187706
0.000256214
0.00737554
0.00333818
0.00719064
0.00134176
0.00120615
0.00282746
0.00348537
0.000164149
0.00907899
0.00234793
0.000258214
0.00550464
0.00767353
0.000575721
0.000897116
0.00678742
0.0119833
0.00122526
0.00794834
0.00367629
0.000753427
0.00202572
0.00383566
0.00393787
0.0116736
0.00399949
0.00124522
0.000203027
0.00499504
0.000622536
0.00170301
0.00349974
0.00347652
0.00181546
0.00564001
0.000353536
0.0105563
0.000926678
0.00281334
0.00253424
0.000599365
0.00554689
0.000599063
0.00118623
0.00409059
0.00380785
0.000475727
0.000500447
0.00755996
0.000663119
0.00504125
0.00378545
0.000128301
0.00501777
0.00515196
0.00377251
0.00695235
0.0118381
0.00348065
0.00445033
0.00631678
0.00397417
0.00104193
0.00376644
0.00442788
0.00165818
0.00061364
0.00373635
0.000697762
0.00279024
0.000912172
0.000954987
0.000318547
0.00363805
0.000834481
0.000371738
0.0108741
0.00296442
0.00096605
0.000535971
0.005754
0.00156951
8.7228e-05
0.00543778
0.00233926
0.00249141
0.00558552
0.00462138
0.00413168
0.000400555
0.000517409
0.00118304
0.00131129
0.00162623
0.000491551
0.00248913
0.00135106
0.00892196
0.00308783
0.00489244
0.00901651
0.0108365
0.00180242
0.00248173
0.0015771
0.00317061
0.000408357
0.00150541
0.00143508
0.00420845
0.00456954
0.00197298
0.00336093
0.000477734
0.000136641
0.00425189
0.00497221
0.0089754
4.99888e-05
0.00357336
0.000241996
0.00583523
0.00259976
0.00661409
0.00177616
0.00231603
7.08914e-05
5.72001e-06
0.00499989
0.000971565
1.31504e-05
0.000746369
0.00169263
0.000289961
0.00772358
0.00065982
0.0019523
0.00994037
0.00395619
0.00709129
0.000412848
0.002197
0.00128673
0.00878548
0.00437685
0.00141627
0.000670619
0.000760743
0.000807357
0.00681582
0.00129463
0.00652876
0.00423022
0.00538841
0.000349809
0.000362373
0.00847312
0.0056086
0.00127252
0.00118326
0.00734034
0.00690896
0.00370287
0.00158166
0.00572153
0.00582314
0.000996665
0.00126805
0.00750218
0.00162918
0.00189201
0.00388307
0.00488811
0.00549598
0.00462196
0.00438328
0.00848161
0.00105839
0.00616682
0.00236947
0.000244149
0.000641263
0.00233167
0.00516772
0.000333608
0.000367077
0.00313685
2.53387e-05
0.00915756
0.000574558
0.00431038
0.000953375
0.00628397
0.00434557
8.20717e-05
0.00535381
0.0087599
0.00115752
0.001029
0.00429777
0.00150624
0.0072155
0.000397867
0.00102899
0.00107053
0.00635977
0.00655493
1.64031e-05
0.00027378
0.00180553
0.00215883
0.00259964
0.000429311
0.0025161
0.000583708
0.00956379
0.0040353
0.00436958
0.00699646
0.0035889
0.00276613
0.0020841
0.0011063
0.0020165
0.00073405
0.000898161
0.00885834
0.0006656
0.00148976
0.00519141
0.00259259
0.00537981
0.00345053
0.00116129
0.00603433
0.00499134
0.000789428
0.00233462
0.00774253
0.000116598
0.000881759
0.00350079
0.0048588
0.00496238
0.00183448
0.00501866
0.00702854
0.00159273
0.0012395
0.00693449
4.26149e-05
0.00341113
0.00415297
0.000414128
9.38469e-05
0.00079022
0.000778002
0.00819425
0.00531643
0.00190542
0.00364808
0.00554197
0.00522558
0.00303598
0.00206883
0.00272196
0.00641743
0.00803383
0.00315077
0.00101978
0.00104903
0.000149038
0.000221697
0.00332178
0.000571877
0.00446137
0.00920813
0.00811341
0.00115955
0.000849028
0.000636423
0.00855247
0.00106346
0.00169609
0.0030915
0.000270028
0.00371192
0.0111749
0.0114298
0.000556779
0.00494086
0.000587063
0.00383037
0.006789
9.92731e-05
0.0108957
0.00784078
0.00923332
0.00392115
0.0003695
0.000349257
0.00228838
0.00608024
8.76026e-05
0.00315641
0.0014478
0.0063888
0.00747349
0.00257195
0.00455107
0.000701641
0.00184587
0.000230062
0.000842312
0.00259055
0.00416964
0.00124614
0.0130416
0.0010599
0.00503813
0.000834005
0.000356474
0.00753827
0.0044682
0.00318258
0.00112303
0.00367196
0.00234826
2.25199e-05
0.00340526
0.00118955
0.0093116
0.00479012
0.00334705
0.00162435
0.0122232
0.00935741
0.00825637
0.00451461
0.00409572
0.00288645
0.000371013
0.00224953
0.000150474
0.00363905
0.0028733
0.00225941
0.0100636
0.00232899
0.00536853
0.00495333
0.00156389
0.00116502
0.00184807
0.00323411
0.00195405
0.000317045
0.00119657
0.00173775
0.00453414
0.00524224
0.00669831
0.00354317
0.00727124
0.00457524
0.00273779
0.000508921
0.00456199
0.00145779
0.00380585
0.000781262
0.000460107
0.00131913
0.0081228
0.0102227
0.00523975
0.00199979
0.00786473
2.94529e-05
0.00334187
0.00317413
0.00378866
0.00393067
0.00298341
0.00495917
0.00354359
0.00520165
0.0053692
0.00364816
0.00359803
0.000381459
0.00261702
0.0056096
0.00260833
0.00527792
0.00422945
0.00417337
0.00417542
0.0028913
0.00028003
0.00139685
0.00406184
0.000310741
0.00429569
0.00306247
0.0010556
0.00136625
0.00030229
0.000620643
0.00578539
0.0026361
0.00219959
0.00778965
0.00252824
0.00218278
0.0022776
0.00057006
0.00967078
0.00502699
0.00206533
0.00060877
0.00293529
0.00460197
0.0037482
0.00192812
0.00631646
0.00849318
0.00215809
0.0137089
0.00424237
0.000382039
4.0279e-05
0.00187942
0.00520896
0.00138769
0.0120498
0.00721911
0.00425479
0.000918257
0.00121075
0.000947777
0.00694922
0.000875363
0.00617342
0.00143862
0.0022111
0.00167792
0.00163149
0.000251093
0.000968523
0.0058479
0.000645268
0.00767687
0.00102204
0.00471598
0.000903256
0.00441316
0.0137781
0.00768915
0.0031401
0.00453594
0.000592265
0.00555773
0.00218038
0.00615503
0.00269435
0.00084812
0.00237485
0.00697904
0.00374223
0.0031387
9.37623e-05
0.000754387
0.00655246
0.00455697
0.0080985
0.00128943
0.00744577
0.00778865
0.00255333
0.00675232
0.00329864
0.000440393
0.00270215
0.000334868
0.00198559
0.00409016
0.000163814
0.00120211
0.00363253
0.00313766
0.00526415
0.000457477
0.00981126
0.00131357
0.00675055
0.00937841
0.0104687
0.00483879
0.00551513
0.00244749
0.0039822
0.000629195
0.00514908
0.0031848
0.00328939
0.00701009
0.00189791
0.00139548
0.00672487
0.00844299
0.00132843
0.000474107
0.00178551
0.00810001
0.00584823
0.0110109
0.00670686
0.00730009
0.00245102
0.00445209
0.00286821
0.00501789
0.00238293
0.00137805
0.00582628
0.00352519
0.00456086
0.00689786
0.00606516
0.00166883
0.000660238
0.00473494
0.00183222
0.000422887
0.00324956
0.0065579
0.00259323
0.0049938
0.00127147
0.0119111
0.0025625
0.00233587
0.0010366
0.00187503
0.00502633
0.00133799
0.00803933
0.00209865
0.000150353
0.00133284
0.000994961
0.00563749
0.00591898
0.000571717
0.00187191
0.00206681
0.00227501
0.000285832
0.000502258
0.00185642
0.00209166
0.00651184
0.00680852
0.00126433
0.00589418
0.00384934
0.00613596
0.00362658
0.00448283
0.00283322
0.0131979
0.00224351
0.00428537
0.00796483
0.000222856
0.00693213
0.0100257
0.0121563
0.0026729
0.00350026
0.0036084
0.00518786
0.00429442
0.00102757
0.00493218
0.00333051
0.0079146
0.00857969
0.00440017
0.00403822
0.00164368
0.00725364
0.00543709
0.00546134
0.0108598
0.00439831
0.00343758
0.00216398
0.00161296
0.00465962
0.000324803
0.0028748
0.00190357
0.0080456
0.00665042
0.00230488
0.010784
0.0115169
0.00113373
0.00951612
0.000418342
0.00620886
0.00785068
0.0055276
0.00213237
0.0044585
0.00602435
0.00425728
0.00940741
0.00437283
0.00628881
0.00108368
0.00536722
0.0066652
0.00675074
0.00530475
0.00549572
0.010212
0.00186314
0.000665818
0.00196284
0.00131473
0.00304096
0.00473753
0.00150987
0.00949952
0.00398669
0.0108869
0.00760414
0.00925492
0.00613795
0.00363672
0.0117765
0.00084618
0.0051555
0.000276409
0.00887291
0.00201112
0.0042896
0.0116384
0.000378518
0.00575695
0.00182023
0.00487549
0.00862239
0.00686405
0.0116021
0.00813134
0.00360946
0.00202093
0.000831328
0.00147176
0.00455201
0.00114368
0.00532593
0.00462785
0.00633143
0.0062728
0.0111303
0.00505451
0.00309678
0.00627685
0.000778012
0.005286
0.00468321
0.00521
0.00745925
0.00105335
0.000857479
0.00173637
0.000530011
0.00417009
0.00202909
0.000896872
0.0056215
0.0029986
0.00400523
0.0107207
0.00437663
0.0014619
0.00709169
0.00217832
0.00374707
0.00169919
0.00358757
0.00154073
0.00767868
0.000236599
0.00111511
0.0045782
0.00132271
0.00318855
0.00277307
0.000556467
0.00147194
0.00137092
0.00391985
0.00123726
0.00366505
0.0007567
0.00099983
0.00339056
0.00151145
0.0072759
0.00544708
0.00430323
0.000401445
0.00200494
0.00214573
0.000838198
0.00329113
0.00160862
0.00831204
0.00126022
0.00352832
0.00550208
0.00867182
0.00061302
0.00508172
0.00657109
0.00442017
0.000166666
0.00513949
0.00286503
0.00824612
0.0108309
0.00407247
0.00032895
0.00480031
0.000804388
0.00307504
0.00166641
0.000182374
0.00556165
0.00928376
0.00534317
0.0064569
0.00720224
0.0127112
0.00666824
0.00428081
0.0061643
0.0107456
0.00236068
0.0105392
0.0111819
0.00847752
0.000511649
0.0109579
0.00129693
0.00821137
0.00111847
0.0062437
5.80991e-05
0.00204777
0.00160323
0.00127627
0.0040147
0.000150716
0.00384094
0.000169658
0.00712893
6.52017e-05
0.00511703
0.00196875
0.00674942
0.00896167
0.00522819
0.00812194
0.00556028
0.00269508
0.000140942
0.00650621
0.0116094
0.00614539
0.00446055
0.00401992
0.00806767
0.0019389
0.00510356
0.000157984
0.000916322
0.000201487
0.00291914
0.00764273
0.00352907
0.00776788
0.0124662
0.00820263
0.00131249
0.00343134
0.00330055
0.00250337
0.000139863
0.00460549
0.00664214
0.00900006
0.00798724
0.00199771
0.00399629
0.00580056
0.00108716
0.00278569
0.00199894
0.00724046
0.00732585
0.00242912
2.13265e-05
0.000202496
0.000786036
0.00176735
0.000855626
0.000832668
0.00271099
0.00095264
0.00569449
0.00533461
0.0028995
0.00292451
0.00502438
0.000468239
0.00216342
0.00290034
0.00120759
0.00146862
0.00221636
0.00438726
0.00800706
0.00661827
0.00271839
0.00386189
0.00340503
0.00669863
0.00209015
0.00579502
0.00410295
8.32291e-05
0.000107946
0.000650287
4.29915e-05
0.00127659
0.0079421
0.00541274
0.00792595
0.00278901
0.00555389
0.004545
0.00892672
0.00247648
0.00274261
0.000630809
0.00402177
0.00196219
0.000212497
0.00480762
0.00536237
0.000952909
0.00196566
0.00950655
0.00610815
0.00591217
0.00151854
0.000743456
0.00585919
0.00524716
0.00213575
0.00129282
8.74021e-07
0.00183188
0.00467569
0.00832598
0.00121066
0.00236215
0.00010094
0.00366333
0.000727795
0.00916771
0.00179523
0.00580743
0.00430234
0.00723046
0.00380985
0.000591576
0.00339387
0.00910021
0.0081253
0.0153284
0.00457027
0.00147616
0.00419697
0.00814742
0.000671031
0.000672774
0.0059732
0.00115169
0.00853634
0.011318
0.0132136
0.00698378
0.00733055
0.00763152
0.00154981
0.00151319
0.00868447
0.0115664
0.00709849
0.00722194
0.00241626
0.00167303
0.00162442
0.00681542
0.00274181
0.00505793
0.000541558
0.00234062
0.00124781
0.00030745
0.0104268
0.000760772
0.0123986
0.00130494
0.00188065
0.000259268
0.00832124
0.00133424
0.0106718
0.010626
0.00516808
0.00613311
0.00496697
0.0076107
0.00288022
0.00375799
0.00265912
0.00736499
0.00500047
0.00955452
0.00181554
0.00526772
0.00472823
0.00338457
0.00209022
0.00143648
0.00981412
0.00568681
0.00723788
0.0173305
0.0101027
0.00644927
0.00979653
0.0105829
0.00541384
0.00142334
0.00611682
0.00621465
0.00129817
0.00502183
0.00408275
0.00713544
0.00800938
0.0025756
0.00329663
0.00230362
0.00175552
0.00472524
0.00610114
0.00817119
0.00219355
0.00411819
0.00198982
0.0011655
0.000301011
0.000479125
0.00957532
0.000319704
0.00130547
0.00425129
0.00854529
0.00468073
0.00206579
0.00548157
0.00805961
0.00345093
0.00240948
0.000526243
0.011372
0.0032544
0.00493103
0.00413015
0.00764295
0.00244188
0.000143582
0.0021578
0.000869338
0.00747853
0.0104615
0.00435618
0.00118373
0.00572253
0.00550648
0.00217317
0.00578687
0.00988907
0.00655214
0.00020052
0.00458942
0.00425144
0.00565255
0.00158602
0.00446619
0.00489547
0.00520004
0.00375175
0.00152345
0.00733463
0.00359201
0.00687063
0.00135154
0.00302838
0.00237282
0.00697019
0.00135561
0.00186387
0.0031618
0.00553348
0.00186265
0.000408628
0.0022713
6.4274e-05
0.00135566
0.00240284
0.00883324
0.000283657
5.56725e-05
0.00163405
0.00428945
0.00181401
0.00476158
0.00431379
0.00561693
0.00478975
0.000436253
0.0044362
0.00118128
0.00237702
0.00432851
0.0168962
0.00781768
0.00253872
0.00122462
0.00186531
0.00666835
0.00626839
0.00803402
0.0100624
0.00308282
0.00920829
0.0125383
0.00619617
0.0105142
0.00664185
0.00888141
0.00492597
0.00767546
0.0020017
0.0143324
0.00983463
0.00944128
0.00948522
0.00389071
0.00266327
0.000495806
0.000805948
0.0059945
0.00548653
0.0041832
0.00912439
0.0086738
0.001504
0.00222534
0.00394494
0.00443089
0.0105931
0.00232785
0.0117948
0.0117228
0.0111312
0.00759523
0.00651244
0.000895371
0.000995756
0.00667638
0.000673307
0.00619103
0.00578694
0.00912834
0.00167522
0.00350386
0.0104249
0.00356684
0.00232422
0.0119279
0.0034643
0.00314344
0.00569987
0.0120513
0.00468112
0.00803696
0.00326672
0.0103738
0.00197814
0.00178652
0.00527599
0.000431279
0.00157358
0.00337058
0.00358372
0.00362459
0.00272431
0.000100208
0.000732988
0.00367856
0.00124915
0.00288223
0.00876133
0.00876727
0.0187577
0.00799269
0.00228135
0.000395751
0.00600116
0.00182404
0.00172455
0.00780964
0.00651638
0.00264689
0.00350532
0.00171989
0.000468985
0.00210023
0.00299076
0.00209287
0.00319009
0.000368634
0.00415952
0.00129005
0.00997507
0.0063259
0.00448483
0.00251805
0.00372476
0.000176593
0.00224623
0.00144282
0.00417598
0.00710514
0.00124482
0.00473911
0.00758955
0.00164321
0.00248221
0.00170667
0.00778901
0.00716961
0.000402842
0.00218741
0.00111799
0.00596703
0.00147695
0.000684458
0.000643103
0.00243911
0.00133269
0.00146577
0.00485567
0.0101075
0.00211353
0.0013458
0.0094502
0.00287932
0.00467671
0.00343404
0.00249851
0.000961743
0.00291287
0.00260079
0.00469853
0.00156077
0.00139388
0.00014508
0.000673078
0.012208
0.00328603
0.00262039
0.00675614
0.00416895
0.00157607
0.00416148
0.000442942
0.00168541
0.00142108
0.00671381
0.00348388
0.0012631
0.00172273
0.00419838
0.0131505
0.0108158
0.00242965
0.00216961
0.000983796
0.00195393
0.0059368
0.0105506
0.00320499
0.000489467
0.00871165
0.0125824
0.0128212
4.99209e-05
0.0021894
0.000887984
0.0125572
0.00799646
0.00310283
0.00791016
0.00910846
0.00133688
0.00792786
0.000222983
0.00408406
5.50888e-05
0.00431047
7.32357e-05
0.000318687
0.00208145
0.000941578
0.00974969
0.000714858
0.00556177
0.000599135
0.00163245
0.00123096
0.00402964
0.000503173
0.00561789
0.0041372
0.00645826
0.0107278
0.00668455
0.00152726
0.00294178
0.00758318
0.00360989
0.000419072
0.00739532
0.00654586
0.00786207
0.00779125
0.00278335
0.00123055
0.00191745
0.00266481
3.61262e-05
0.00202484
0.00670549
0.0151801
0.00887831
0.000393405
0.010327
0.000999439
0.00217208
0.00587725
0.00479665
0.00322551
0.000955121
0.00689589
0.00432759
0.00488749
0.00158937
0.0115003
0.00401707
0.0019562
0.00243223
0.00833561
0.00379466
0.00942369
0.0144729
0.00559692
0.000887447
0.00247669
0.00723737
0.00162002
0.00726701
0.00255074
0.00147482
0.00095393
0.00747724
0.00331193
0.00125004
0.00888674
0.00216776
0.00458186
0.00224356
0.00338848
0.00300374
0.00607386
0.000648979
0.00961028
0.00484363
0.00362606
0.0048186
0.00809097
0.00154813
0.00464234
0.00178907
0.0081679
0.00747591
0.0082714
0.000394361
0.00317053
0.0039563
0.00384615
0.0102576
0.00613267
0.00227819
0.00154235
0.000837102
0.00624549
0.00512822
0.00222045
0.00483417
0.00988246
0.000642755
0.00272713
0.00605162
0.00110914
0.00956414
0.000232947
0.00204453
0.00153013
0.00363817
0.0055154
0.00992284
0.00460488
0.00470887
0.00307002
0.00206462
0.00344369
0.0022832
0.000716893
0.00236183
0.00790706
0.00134501
0.000391406
0.00498926
0.00416202
0.00578736
0.00416703
0.000188885
0.00280923
0.00860912
0.00859066
0.00493416
4.74752e-05
0.00479981
0.00639249
0.00644902
0.00609677
0.00346165
0.00238503
0.00662933
0.00522927
0.00116174
0.00569263
0.00345046
0.00615787
0.0079388
0.00740329
0.00190614
0.00212079
0.00693749
0.00162772
0.00103117
0.00480223
0.0073071
0.00395501
0.00107048
0.00255338
0.0100859
0.0012631
0.000914598
0.00166371
0.00148455
0.00368688
0.000689763
0.00587053
0.00120919
1.73783e-05
0.00128201
0.0107043
0.00293647
0.00296614
0.00456634
0.00631437
0.00636341
0.00603665
0.00640793
0.00185326
0.00472416
0.00582874
0.00263711
0.00365486
0.00649821
0.00172007
0.0058208
0.00206522
0.0115645
0.000895744
0.00248822
8.78381e-05
0.000651846
0.000635444
0.0033623
0.00393803
0.0105568
0.00753618
0.00583737
0.00374773
0.00362367
0.005965
0.00864169
0.00123167
0.0029108
0.00291702
0.00126071
0.00146457
0.00136091
0.00478524
0.00121258
0.00376743
0.00528695
0.00405317
0.00223901
0.00316626
0.0112312
0.0128541
0.00218828
0.00624408
0.000517286
0.000824809
0.0065245
0.00338446
0.000571519
0.00380709
0.000722493
0.0115536
0.00481437
0.00872612
0.00386238
0.0019054
0.00422832
0.00187444
0.00333409
0.00573056
0.00767727
0.00423973
0.00476632
0.00895951
0.00563578
0.00370236
0.000754315
0.00035714
0.00167814
0.00542548
0.00137423
0.0064074
0.00496404
0.000546943
0.000950633
0.00592116
0.000280859
0.00484197
0.000913093
0.000543871
0.00415239
0.00384104
0.00117467
0.00381621
0.00137703
0.00658442
0.00497605
0.00264829
0.00315224
0.00167694
0.0004601
0.00159399
0.0017655
0.00206937
0.00482204
0.00144441
0.000954176
0.0137588
0.000305841
0.005644
0.00251761
0.000353579
0.002858
0.00300996
0.00880631
0.00164151
0.00423917
0.00355383
0.00120005
0.00407109
0.0109994
0.000749306
0.00440123
0.00269025
0.00415214
0.00171224
0.00111945
0.00406697
0.000914303
0.00176125
0.00216437
0.00496894
0.00693279
0.00196863
0.00342173
0.00315239
0.00933837
0.00246672
0.00599815
0.000551318
0.00221161
0.00817811
0.0030007
0.00256355
0.00336354
0.000702574
0.00416118
0.00674418
0.00570679
0.00595465
0.00278353
0.00199286
0.000684525
0.000337241
0.00042134
0.00127584
0.00131335
0.00163167
0.00158409
0.000252619
0.000748817
0.000760634
1.04866e-05
0.0012161
0.00257906
0.0012879
0.00840508
0.000695316
0.00142099
0.000932943
0.00953591
0.00672457
0.00985603
0.00166121
0.000552459
0.00298094
0.000304787
0.000631925
0.00664622
0.000349693
0.00209029
0.00201379
0.00332674
0.000951009
0.000725084
0.0040357
0.00412865
0.00181382
0.00359191
0.00415766
0.00984066
0.00382516
0.0017305
0.00821187
0.00468079
0.00437662
0.00340313
0.00285542
0.00107017
0.00270999
0.005149
0.00464131
0.000926521
0.00364891
0.00394176
0.00437384
0.00328552
0.00194696
0.0026976
0.00545441
0.00619815
0.00750528
0.0147346
0.00467089
0.00383905
0.00272285
0.00263789
0.000930187
0.00379853
0.00292279
0.00145254
0.00103569
0.00171636
0.00686498
0.00291919
0.00346556
0.00562659
0.00314936
0.00206319
0.00373555
0.00540561
0.00679296
0.00509014
0.010943
0.000498824
0.0010966
0.00571318
0.00175789
0.00485114
9.91266e-05
0.00439072
0.00625346
0.00928763
0.000915781
0.00186026
0.0033894
0.00303812
0.00252403
0.00569418
0.00786264
0.0104864
0.00437305
0.000130708
9.33999e-06
0.00229744
0.00406023
0.00290625
0.000757857
0.00297655
0.00122947
0.000214808
0.00374824
0.000187413
0.00350955
0.00226839
0.00686203
0.00943186
0.000917295
0.00534335
0.000701435
0.00768258
0.00212193
0.000633418
0.00385598
0.00159434
0.000802601
8.9119e-05
0.00264419
0.00141483
0.00699983
0.00357117
0.00543797
0.00280054
0.00370227
0.00103524
0.000546899
0.00272738
0.0081371
0.00546638
0.00662357
0.00418338
0.00756269
0.003582
0.00375097
0.00154117
0.0002311
0.00239226
0.00163443
0.00200819
0.00374059
0.000197097
0.00315069
0.00201303
0.00379174
0.00586122
0.000163141
0.0081967
0.00108732
0.0047746
0.00158131
0.00662699
0.0068949
0.0026972
0.00507159
0.00511547
0.00493662
0.00213241
0.00312874
0.00702979
0.00312154
0.00229126
0.00468657
0.00196311
0.00117536
0.00637955
0.0026361
0.00349992
0.00218245
0.00615161
0.00011697
0.00472122
0.00558029
0.00693169
0.00029292
0.00214455
0.00338009
0.00437311
0.00208914
0.00151345
0.00332954
0.00148755
0.00445934
0.0030488
0.000467577
0.000683649
0.00850156
0.00135557
0.00628411
0.00443139
0.000102127
0.00097022
0.00111657
0.00331897
0.00118109
6.46082e-05
0.00681821
0.00648656
0.00223598
0.00105202
0.00368972
0.00503397
0.00681978
0.00277778
0.00379605
0.00306814
0.00176925
0.00746256
0.00375502
5.55108e-05
0.00572279
0.00667849
0.00959286
0.00294184
0.000782615
0.00149093
0.0021068
0.00734002
0.00187374
0.00247651
0.00336466
0.00457853
0.00142748
0.000290493
0.00150778
0.00211663
0.00289756
0.00478784
0.000176794
0.00298587
0.000211604
0.00384358
0.00224622
0.00244509
0.00140596
0.00695824
0.00220057
0.00405253
0.00445643
0.00514698
0.00341635
0.0151764
0.00586135
0.000187645
0.00399915
0.00183849
9.14612e-05
0.00513475
0.00033613
0.00489906
0.00366146
0.00256595
0.00940984
0.000807098
0.00268962
0.00187221
0.00365751
0.00130057
0.00167891
0.00457379
0.00506057
0.00146257
0.00173882
0.00199208
0.00645175
0.00523786
0.00716902
0.00295811
0.000708412
0.00328832
0.00451324
0.00332222
0.00626639
0.00242999
0.00168412
0.00226402
0.00169525
0.00482756
0.000254214
0.00994956
0.000632245
0.0085054
0.00303856
0.00619096
0.00486599
0.0024418
0.00118984
0.00461638
0.00152648
0.00192447
0.00219143
0.00197518
0.00289116
0.00061458
0.00522976
0.0062289
0.00190448
0.00154181
0.00862712
0.00413943
0.00216754
0.000854914
0.00998449
0.00396954
0.00549174
0.0094222
0.00756459
0.00543336
0.00123335
0.00353832
0.00391654
0.000990916
0.00720253
0.00220876
0.00151508
0.00267708
0.00571596
0.00262604
0.00420056
8.68158e-05
0.00469597
0.00216197
8.56014e-05
0.00706137
0.000320418
0.00458537
0.000859091
0.00808258
0.000732682
0.000999901
0.000329253
0.00651977
0.00587015
0.00211597
0.00272204
0.00667328
0.00616464
0.0020789
0.000599619
0.0022735
0.00214186
0.000394898
0.00289444
0.00250049
0.0085631
0.0019515
0.000499324
0.00909719
0.000633301
0.00071548
0.00203092
0.0023146
0.00238511
0.00411258
0.00803155
0.00309709
0.00117873
0.0034696
0.00204157
0.00170972
0.00502644
0.0013112
0.00940008
0.00133049
0.00414031
0.00895996
0.00242333
0.000959466
0.00359854
0.000629059
0.000290062
0.00319314
0.000312065