/*--------------------------------*- C++ -*----------------------------------*\
| =========                 |                                                 |
| \\      /  F ield         | OpenFOAM: The Open Source CFD Toolbox           |
|  \\    /   O peration     | Version:  2212                                  |
|   \\  /    A nd           | Website:  www.openfoam.com                      |
|    \\/     M anipulation  |                                                 |
\*---------------------------------------------------------------------------*/
FoamFile
{
    version     2.0;
    format      ascii;
    arch        "LSB;label=32;scalar=64";
    class       volScalarField;
    location    "./ITHACAoutput/true/9";
    object      trueState;
}
// * * * * * * * * * * * * * * * * * * * * * * * * * * * * * * * * * * * * * //

dimensions      [0 0 0 1 0 0 0];

internalField   nonuniform List<scalar> 
3200
(
343.169
343.677
344.327
345.035
345.764
346.479
347.14
347.697
348.103
348.318
348.318
348.103
347.697
347.14
346.479
345.764
345.035
344.327
343.677
343.169
337.513
337.943
338.503
339.116
339.746
340.365
340.936
341.418
341.769
341.954
341.954
341.769
341.418
340.936
340.365
339.746
339.116
338.503
337.943
337.513
331.815
332.172
332.644
333.161
333.694
334.217
334.699
335.106
335.402
335.558
335.558
335.402
335.106
334.699
334.217
333.694
333.161
332.644
332.172
331.815
326.082
326.37
326.754
327.177
327.613
328.04
328.434
328.766
329.007
329.135
329.135
329.007
328.766
328.434
328.04
327.613
327.177
326.754
326.37
326.082
320.321
320.542
320.84
321.169
321.507
321.839
322.145
322.403
322.591
322.69
322.69
322.591
322.403
322.145
321.839
321.507
321.169
320.84
320.542
320.321
314.538
314.694
314.907
315.141
315.383
315.62
315.839
316.023
316.156
316.227
316.227
316.156
316.023
315.839
315.62
315.383
315.141
314.907
314.694
314.538
308.739
308.832
308.96
309.1
309.246
309.388
309.519
309.629
309.71
309.752
309.752
309.71
309.629
309.519
309.388
309.246
309.1
308.96
308.832
308.739
302.93
302.962
303.004
303.051
303.1
303.148
303.192
303.229
303.256
303.27
303.27
303.256
303.229
303.192
303.148
303.1
303.051
303.004
302.962
302.93
343.321
343.826
344.47
345.171
345.892
346.6
347.253
347.803
348.204
348.416
348.416
348.204
347.803
347.253
346.6
345.892
345.171
344.47
343.826
343.321
337.645
338.072
338.627
339.234
339.858
340.471
341.035
341.511
341.857
342.04
342.04
341.857
341.511
341.035
340.471
339.858
339.234
338.627
338.072
337.645
331.927
332.281
332.749
333.262
333.789
334.307
334.783
335.185
335.477
335.631
335.631
335.477
335.185
334.783
334.307
333.789
333.262
332.749
332.281
331.927
326.174
326.459
326.841
327.259
327.691
328.113
328.503
328.831
329.069
329.195
329.195
329.069
328.831
328.503
328.113
327.691
327.259
326.841
326.459
326.174
320.392
320.611
320.907
321.233
321.568
321.897
322.199
322.454
322.639
322.736
322.736
322.639
322.454
322.199
321.897
321.568
321.233
320.907
320.611
320.392
314.589
314.744
314.955
315.187
315.427
315.661
315.877
316.059
316.191
316.26
316.26
316.191
316.059
315.877
315.661
315.427
315.187
314.955
314.744
314.589
308.769
308.862
308.988
309.128
309.272
309.413
309.542
309.651
309.73
309.772
309.772
309.73
309.651
309.542
309.413
309.272
309.128
308.988
308.862
308.769
302.941
302.972
303.014
303.061
303.109
303.156
303.2
303.236
303.263
303.277
303.277
303.263
303.236
303.2
303.156
303.109
303.061
303.014
302.972
302.941
343.627
344.123
344.756
345.444
346.152
346.844
347.481
348.019
348.409
348.615
348.615
348.409
348.019
347.481
346.844
346.152
345.444
344.756
344.123
343.627
337.91
338.331
338.876
339.472
340.084
340.683
341.234
341.698
342.036
342.214
342.214
342.036
341.698
341.234
340.683
340.084
339.472
338.876
338.331
337.91
332.152
332.5
332.96
333.463
333.981
334.487
334.952
335.344
335.629
335.779
335.779
335.629
335.344
334.952
334.487
333.981
333.463
332.96
332.5
332.152
326.358
326.639
327.014
327.425
327.848
328.261
328.642
328.962
329.194
329.317
329.317
329.194
328.962
328.642
328.261
327.848
327.425
327.014
326.639
326.358
320.536
320.751
321.042
321.362
321.69
322.012
322.307
322.556
322.736
322.831
322.831
322.736
322.556
322.307
322.012
321.69
321.362
321.042
320.751
320.536
314.691
314.844
315.051
315.279
315.514
315.744
315.955
316.132
316.261
316.329
316.329
316.261
316.132
315.955
315.744
315.514
315.279
315.051
314.844
314.691
308.831
308.922
309.046
309.183
309.324
309.462
309.589
309.695
309.772
309.813
309.813
309.772
309.695
309.589
309.462
309.324
309.183
309.046
308.922
308.831
302.961
302.992
303.033
303.079
303.127
303.173
303.215
303.251
303.277
303.29
303.29
303.277
303.251
303.215
303.173
303.127
303.079
303.033
302.992
302.961
344.086
344.571
345.188
345.858
346.544
347.214
347.83
348.348
348.724
348.922
348.922
348.724
348.348
347.83
347.214
346.544
345.858
345.188
344.571
344.086
338.309
338.72
339.252
339.831
340.425
341.005
341.537
341.985
342.31
342.481
342.481
342.31
341.985
341.537
341.005
340.425
339.831
339.252
338.72
338.309
332.49
332.83
333.279
333.768
334.27
334.76
335.21
335.588
335.862
336.006
336.006
335.862
335.588
335.21
334.76
334.27
333.768
333.279
332.83
332.49
326.635
326.909
327.275
327.675
328.085
328.486
328.853
329.162
329.385
329.503
329.503
329.385
329.162
328.853
328.486
328.085
327.675
327.275
326.909
326.635
320.751
320.962
321.245
321.556
321.875
322.187
322.472
322.712
322.886
322.977
322.977
322.886
322.712
322.472
322.187
321.875
321.556
321.245
320.962
320.751
314.846
314.995
315.197
315.419
315.646
315.869
316.073
316.244
316.368
316.433
316.433
316.368
316.244
316.073
315.869
315.646
315.419
315.197
314.995
314.846
308.924
309.013
309.134
309.267
309.404
309.537
309.66
309.762
309.837
309.876
309.876
309.837
309.762
309.66
309.537
309.404
309.267
309.134
309.013
308.924
302.992
303.022
303.063
303.107
303.153
303.198
303.239
303.273
303.298
303.311
303.311
303.298
303.273
303.239
303.198
303.153
303.107
303.063
303.022
302.992
344.702
345.172
345.768
346.414
347.074
347.716
348.304
348.798
349.156
349.344
349.344
349.156
348.798
348.304
347.716
347.074
346.414
345.768
345.172
344.702
338.843
339.241
339.756
340.314
340.885
341.441
341.95
342.377
342.686
342.849
342.849
342.686
342.377
341.95
341.441
340.885
340.314
339.756
339.241
338.843
332.942
333.272
333.706
334.178
334.661
335.131
335.561
335.921
336.182
336.319
336.319
336.182
335.921
335.561
335.131
334.661
334.178
333.706
333.272
332.942
327.006
327.271
327.625
328.011
328.405
328.789
329.141
329.435
329.648
329.76
329.76
329.648
329.435
329.141
328.789
328.405
328.011
327.625
327.271
327.006
321.04
321.244
321.518
321.818
322.125
322.423
322.696
322.925
323.091
323.178
323.178
323.091
322.925
322.696
322.423
322.125
321.818
321.518
321.244
321.04
315.052
315.196
315.392
315.606
315.825
316.038
316.233
316.396
316.515
316.577
316.577
316.515
316.396
316.233
316.038
315.825
315.606
315.392
315.196
315.052
309.048
309.134
309.251
309.38
309.511
309.639
309.756
309.854
309.925
309.963
309.963
309.925
309.854
309.756
309.639
309.511
309.38
309.251
309.134
309.048
303.034
303.063
303.102
303.145
303.189
303.232
303.271
303.304
303.328
303.34
303.34
303.328
303.304
303.271
303.232
303.189
303.145
303.102
303.063
303.034
345.474
345.927
346.499
347.117
347.745
348.355
348.912
349.378
349.714
349.891
349.891
349.714
349.378
348.912
348.355
347.745
347.117
346.499
345.927
345.474
339.514
339.897
340.391
340.925
341.469
341.997
342.479
342.882
343.173
343.326
343.326
343.173
342.882
342.479
341.997
341.469
340.925
340.391
339.897
339.514
333.511
333.828
334.244
334.696
335.156
335.602
336.009
336.349
336.595
336.724
336.724
336.595
336.349
336.009
335.602
335.156
334.696
334.244
333.828
333.511
327.471
327.727
328.066
328.435
328.812
329.176
329.509
329.787
329.988
330.093
330.093
329.988
329.787
329.509
329.176
328.812
328.435
328.066
327.727
327.471
321.403
321.599
321.862
322.149
322.441
322.725
322.984
323.199
323.355
323.437
323.437
323.355
323.199
322.984
322.725
322.441
322.149
321.862
321.599
321.403
315.311
315.45
315.638
315.843
316.052
316.254
316.439
316.593
316.704
316.763
316.763
316.704
316.593
316.439
316.254
316.052
315.843
315.638
315.45
315.311
309.204
309.286
309.399
309.522
309.647
309.769
309.88
309.972
310.039
310.074
310.074
310.039
309.972
309.88
309.769
309.647
309.522
309.399
309.286
309.204
303.086
303.114
303.152
303.193
303.235
303.276
303.313
303.344
303.366
303.378
303.378
303.366
303.344
303.313
303.276
303.235
303.193
303.152
303.114
303.086
346.407
346.839
347.385
347.971
348.565
349.139
349.661
350.096
350.41
350.574
350.574
350.41
350.096
349.661
349.139
348.565
347.971
347.385
346.839
346.407
340.323
340.689
341.16
341.667
342.181
342.678
343.13
343.507
343.778
343.92
343.92
343.778
343.507
343.13
342.678
342.181
341.667
341.16
340.689
340.323
334.196
334.5
334.897
335.325
335.76
336.18
336.562
336.88
337.109
337.229
337.229
337.109
336.88
336.562
336.18
335.76
335.325
334.897
334.5
334.196
328.033
328.277
328.601
328.951
329.307
329.65
329.962
330.222
330.409
330.508
330.508
330.409
330.222
329.962
329.65
329.307
328.951
328.601
328.277
328.033
321.84
322.028
322.278
322.551
322.827
323.094
323.337
323.539
323.684
323.761
323.761
323.684
323.539
323.337
323.094
322.827
322.551
322.278
322.028
321.84
315.624
315.757
315.936
316.13
316.328
316.518
316.692
316.836
316.94
316.994
316.994
316.94
316.836
316.692
316.518
316.328
316.13
315.936
315.757
315.624
309.391
309.471
309.578
309.695
309.813
309.928
310.032
310.119
310.181
310.214
310.214
310.181
310.119
310.032
309.928
309.813
309.695
309.578
309.471
309.391
303.149
303.176
303.212
303.251
303.291
303.329
303.364
303.393
303.414
303.425
303.425
303.414
303.393
303.364
303.329
303.291
303.251
303.212
303.176
303.149
347.501
347.912
348.428
348.98
349.538
350.074
350.559
350.962
351.252
351.404
351.404
351.252
350.962
350.559
350.074
349.538
348.98
348.428
347.912
347.501
341.273
341.621
342.066
342.544
343.027
343.491
343.911
344.26
344.511
344.642
344.642
344.511
344.26
343.911
343.491
343.027
342.544
342.066
341.621
341.273
335.001
335.29
335.665
336.069
336.477
336.87
337.225
337.52
337.731
337.842
337.842
337.731
337.52
337.225
336.87
336.477
336.069
335.665
335.29
335.001
328.692
328.924
329.231
329.561
329.895
330.216
330.506
330.747
330.92
331.011
331.011
330.92
330.747
330.506
330.216
329.895
329.561
329.231
328.924
328.692
322.353
322.532
322.769
323.026
323.285
323.535
323.761
323.948
324.082
324.153
324.153
324.082
323.948
323.761
323.535
323.285
323.026
322.769
322.532
322.353
315.991
316.117
316.286
316.47
316.655
316.834
316.995
317.128
317.225
317.275
317.275
317.225
317.128
316.995
316.834
316.655
316.47
316.286
316.117
315.991
309.612
309.687
309.789
309.899
310.01
310.117
310.214
310.295
310.352
310.382
310.382
310.352
310.295
310.214
310.117
310.01
309.899
309.789
309.687
309.612
303.223
303.248
303.282
303.319
303.357
303.392
303.425
303.452
303.471
303.481
303.481
303.471
303.452
303.425
303.392
303.357
303.319
303.282
303.248
303.223
348.759
349.147
349.633
350.15
350.669
351.166
351.615
351.985
352.251
352.39
352.39
352.251
351.985
351.615
351.166
350.669
350.15
349.633
349.147
348.759
342.365
342.694
343.113
343.561
344.01
344.441
344.829
345.149
345.379
345.5
345.5
345.379
345.149
344.829
344.441
344.01
343.561
343.113
342.694
342.365
335.927
336.199
336.552
336.931
337.311
337.675
338.003
338.274
338.469
338.57
338.57
338.469
338.274
338.003
337.675
337.311
336.931
336.552
336.199
335.927
329.451
329.67
329.958
330.267
330.578
330.876
331.144
331.366
331.525
331.608
331.608
331.525
331.366
331.144
330.876
330.578
330.267
329.958
329.67
329.451
322.944
323.112
323.336
323.576
323.818
324.05
324.258
324.43
324.554
324.618
324.618
324.554
324.43
324.258
324.05
323.818
323.576
323.336
323.112
322.944
316.413
316.532
316.692
316.864
317.036
317.202
317.351
317.474
317.562
317.608
317.608
317.562
317.474
317.351
317.202
317.036
316.864
316.692
316.532
316.413
309.866
309.937
310.033
310.136
310.239
310.339
310.428
310.502
310.555
310.583
310.583
310.555
310.502
310.428
310.339
310.239
310.136
310.033
309.937
309.866
303.308
303.332
303.364
303.399
303.433
303.467
303.497
303.521
303.539
303.548
303.548
303.539
303.521
303.497
303.467
303.433
303.399
303.364
303.332
303.308
350.184
350.549
351.004
351.485
351.966
352.424
352.835
353.173
353.415
353.541
353.541
353.415
353.173
352.835
352.424
351.966
351.485
351.004
350.549
350.184
343.602
343.911
344.303
344.72
345.137
345.533
345.889
346.182
346.392
346.501
346.501
346.392
346.182
345.889
345.533
345.137
344.72
344.303
343.911
343.602
336.975
337.231
337.562
337.914
338.266
338.602
338.903
339.151
339.328
339.42
339.42
339.328
339.151
338.903
338.602
338.266
337.914
337.562
337.231
336.975
330.309
330.515
330.785
331.073
331.361
331.636
331.882
332.085
332.229
332.305
332.305
332.229
332.085
331.882
331.636
331.361
331.073
330.785
330.515
330.309
323.612
323.771
323.98
324.204
324.428
324.641
324.833
324.99
325.103
325.162
325.162
325.103
324.99
324.833
324.641
324.428
324.204
323.98
323.771
323.612
316.891
317.003
317.152
317.312
317.473
317.625
317.762
317.874
317.955
317.997
317.997
317.955
317.874
317.762
317.625
317.473
317.312
317.152
317.003
316.891
310.153
310.22
310.309
310.406
310.502
310.593
310.675
310.743
310.791
310.816
310.816
310.791
310.743
310.675
310.593
310.502
310.406
310.309
310.22
310.153
303.405
303.427
303.457
303.489
303.521
303.552
303.58
303.602
303.618
303.627
303.627
303.618
303.602
303.58
303.552
303.521
303.489
303.457
303.427
303.405
351.778
352.119
352.543
352.988
353.431
353.851
354.226
354.533
354.752
354.866
354.866
354.752
354.533
354.226
353.851
353.431
352.988
352.543
352.119
351.778
344.986
345.275
345.64
346.026
346.41
346.773
347.098
347.364
347.554
347.653
347.653
347.554
347.364
347.098
346.773
346.41
346.026
345.64
345.275
344.986
338.148
338.387
338.695
339.021
339.346
339.654
339.928
340.153
340.314
340.397
340.397
340.314
340.153
339.928
339.654
339.346
339.021
338.695
338.387
338.148
331.27
331.463
331.714
331.981
332.246
332.498
332.722
332.907
333.038
333.106
333.106
333.038
332.907
332.722
332.498
332.246
331.981
331.714
331.463
331.27
324.36
324.508
324.703
324.911
325.117
325.313
325.488
325.631
325.733
325.786
325.786
325.733
325.631
325.488
325.313
325.117
324.911
324.703
324.508
324.36
317.426
317.531
317.67
317.818
317.966
318.106
318.23
318.333
318.406
318.443
318.443
318.406
318.333
318.23
318.106
317.966
317.818
317.67
317.531
317.426
310.475
310.537
310.62
310.709
310.798
310.882
310.957
311.018
311.062
311.085
311.085
311.062
311.018
310.957
310.882
310.798
310.709
310.62
310.537
310.475
303.512
303.533
303.561
303.591
303.621
303.649
303.674
303.695
303.709
303.717
303.717
303.709
303.695
303.674
303.649
303.621
303.591
303.561
303.533
303.512
353.543
353.861
354.253
354.664
355.07
355.453
355.793
356.071
356.268
356.371
356.371
356.268
356.071
355.793
355.453
355.07
354.664
354.253
353.861
353.543
346.518
346.787
347.125
347.481
347.834
348.165
348.46
348.701
348.872
348.96
348.96
348.872
348.701
348.46
348.165
347.834
347.481
347.125
346.787
346.518
339.446
339.669
339.954
340.255
340.553
340.834
341.083
341.287
341.431
341.506
341.506
341.431
341.287
341.083
340.834
340.553
340.255
339.954
339.669
339.446
332.333
332.513
332.745
332.992
333.235
333.465
333.669
333.836
333.954
334.015
334.015
333.954
333.836
333.669
333.465
333.235
332.992
332.745
332.513
332.333
325.189
325.326
325.507
325.698
325.888
326.067
326.225
326.355
326.447
326.494
326.494
326.447
326.355
326.225
326.067
325.888
325.698
325.507
325.326
325.189
318.019
318.116
318.245
318.381
318.517
318.645
318.758
318.851
318.916
318.95
318.95
318.916
318.851
318.758
318.645
318.517
318.381
318.245
318.116
318.019
310.831
310.889
310.966
311.048
311.129
311.206
311.274
311.33
311.369
311.39
311.39
311.369
311.33
311.274
311.206
311.129
311.048
310.966
310.889
310.831
303.632
303.651
303.677
303.705
303.732
303.758
303.78
303.799
303.812
303.819
303.819
303.812
303.799
303.78
303.758
303.732
303.705
303.677
303.651
303.632
355.48
355.774
356.137
356.514
356.885
357.233
357.541
357.791
357.968
358.06
358.06
357.968
357.791
357.541
357.233
356.885
356.514
356.137
355.774
355.48
348.199
348.449
348.761
349.088
349.41
349.712
349.978
350.195
350.348
350.428
350.428
350.348
350.195
349.978
349.712
349.41
349.088
348.761
348.449
348.199
340.87
341.077
341.341
341.617
341.889
342.145
342.37
342.554
342.683
342.751
342.751
342.683
342.554
342.37
342.145
341.889
341.617
341.341
341.077
340.87
333.501
333.667
333.882
334.108
334.331
334.54
334.724
334.874
334.98
335.035
335.035
334.98
334.874
334.724
334.54
334.331
334.108
333.882
333.667
333.501
326.097
326.225
326.392
326.568
326.741
326.903
327.047
327.164
327.246
327.289
327.289
327.246
327.164
327.047
326.903
326.741
326.568
326.392
326.225
326.097
318.668
318.759
318.878
319.003
319.127
319.243
319.346
319.429
319.488
319.519
319.519
319.488
319.429
319.346
319.243
319.127
319.003
318.878
318.759
318.668
311.221
311.275
311.346
311.422
311.496
311.566
311.627
311.678
311.713
311.731
311.731
311.713
311.678
311.627
311.566
311.496
311.422
311.346
311.275
311.221
303.763
303.781
303.805
303.83
303.855
303.878
303.899
303.916
303.928
303.934
303.934
303.928
303.916
303.899
303.878
303.855
303.83
303.805
303.781
303.763
357.589
357.861
358.195
358.54
358.878
359.193
359.471
359.695
359.854
359.936
359.936
359.854
359.695
359.471
359.193
358.878
358.54
358.195
357.861
357.589
350.03
350.26
350.548
350.848
351.141
351.414
351.654
351.849
351.986
352.057
352.057
351.986
351.849
351.654
351.414
351.141
350.848
350.548
350.26
350.03
342.421
342.612
342.855
343.108
343.356
343.587
343.791
343.956
344.072
344.132
344.132
344.072
343.956
343.791
343.587
343.356
343.108
342.855
342.612
342.421
334.771
334.925
335.122
335.33
335.533
335.722
335.888
336.023
336.118
336.167
336.167
336.118
336.023
335.888
335.722
335.533
335.33
335.122
334.925
334.771
327.086
327.204
327.358
327.519
327.677
327.824
327.954
328.059
328.133
328.171
328.171
328.133
328.059
327.954
327.824
327.677
327.519
327.358
327.204
327.086
319.376
319.459
319.569
319.684
319.796
319.902
319.994
320.069
320.122
320.15
320.15
320.122
320.069
319.994
319.902
319.796
319.684
319.569
319.459
319.376
311.646
311.696
311.761
311.831
311.898
311.962
312.017
312.062
312.094
312.11
312.11
312.094
312.062
312.017
311.962
311.898
311.831
311.761
311.696
311.646
303.905
303.922
303.944
303.967
303.99
304.011
304.03
304.045
304.055
304.061
304.061
304.055
304.045
304.03
304.011
303.99
303.967
303.944
303.922
303.905
359.866
360.118
360.424
360.74
361.047
361.331
361.581
361.782
361.924
361.997
361.997
361.924
361.782
361.581
361.331
361.047
360.74
360.424
360.118
359.866
352.006
352.219
352.483
352.757
353.023
353.27
353.486
353.66
353.783
353.847
353.847
353.783
353.66
353.486
353.27
353.023
352.757
352.483
352.219
352.006
344.095
344.272
344.494
344.726
344.951
345.16
345.343
345.491
345.595
345.648
345.648
345.595
345.491
345.343
345.16
344.951
344.726
344.494
344.272
344.095
336.142
336.284
336.465
336.654
336.839
337.01
337.16
337.281
337.366
337.41
337.41
337.366
337.281
337.16
337.01
336.839
336.654
336.465
336.284
336.142
328.153
328.262
328.403
328.55
328.694
328.827
328.944
329.038
329.104
329.138
329.138
329.104
329.038
328.944
328.827
328.694
328.55
328.403
328.262
328.153
320.138
320.216
320.316
320.421
320.524
320.619
320.702
320.769
320.817
320.841
320.841
320.817
320.769
320.702
320.619
320.524
320.421
320.316
320.216
320.138
312.104
312.15
312.211
312.274
312.335
312.393
312.443
312.483
312.511
312.526
312.526
312.511
312.483
312.443
312.393
312.335
312.274
312.211
312.15
312.104
304.059
304.074
304.094
304.116
304.136
304.155
304.172
304.186
304.195
304.2
304.2
304.195
304.186
304.172
304.155
304.136
304.116
304.094
304.074
304.059
362.303
362.535
362.815
363.103
363.381
363.638
363.862
364.042
364.169
364.234
364.234
364.169
364.042
363.862
363.638
363.381
363.103
362.815
362.535
362.303
354.119
354.315
354.557
354.806
355.048
355.27
355.465
355.621
355.73
355.787
355.787
355.73
355.621
355.465
355.27
355.048
354.806
354.557
354.315
354.119
345.883
346.046
346.25
346.461
346.665
346.854
347.018
347.151
347.243
347.291
347.291
347.243
347.151
347.018
346.854
346.665
346.461
346.25
346.046
345.883
337.605
337.736
337.902
338.075
338.242
338.397
338.531
338.64
338.715
338.755
338.755
338.715
338.64
338.531
338.397
338.242
338.075
337.902
337.736
337.605
329.292
329.392
329.521
329.656
329.786
329.906
330.011
330.095
330.154
330.185
330.185
330.154
330.095
330.011
329.906
329.786
329.656
329.521
329.392
329.292
320.952
321.023
321.115
321.211
321.304
321.39
321.465
321.525
321.567
321.589
321.589
321.567
321.525
321.465
321.39
321.304
321.211
321.115
321.023
320.952
312.593
312.635
312.691
312.748
312.804
312.856
312.901
312.937
312.962
312.975
312.975
312.962
312.937
312.901
312.856
312.804
312.748
312.691
312.635
312.593
304.223
304.237
304.255
304.275
304.293
304.311
304.326
304.338
304.346
304.351
304.351
304.346
304.338
304.326
304.311
304.293
304.275
304.255
304.237
304.223
364.872
365.085
365.342
365.604
365.856
366.088
366.289
366.451
366.563
366.621
366.621
366.563
366.451
366.289
366.088
365.856
365.604
365.342
365.085
364.872
356.342
356.522
356.744
356.971
357.19
357.391
357.566
357.705
357.803
357.854
357.854
357.803
357.705
357.566
357.391
357.19
356.971
356.744
356.522
356.342
347.762
347.911
348.098
348.29
348.476
348.646
348.794
348.912
348.995
349.038
349.038
348.995
348.912
348.794
348.646
348.476
348.29
348.098
347.911
347.762
339.14
339.26
339.413
339.57
339.722
339.861
339.983
340.08
340.147
340.182
340.182
340.147
340.08
339.983
339.861
339.722
339.57
339.413
339.26
339.14
330.485
330.577
330.695
330.818
330.936
331.045
331.139
331.214
331.267
331.294
331.294
331.267
331.214
331.139
331.045
330.936
330.818
330.695
330.577
330.485
321.804
321.869
321.953
322.041
322.125
322.203
322.27
322.324
322.362
322.382
322.382
322.362
322.324
322.27
322.203
322.125
322.041
321.953
321.869
321.804
313.104
313.143
313.194
313.246
313.297
313.344
313.384
313.417
313.439
313.451
313.451
313.439
313.417
313.384
313.344
313.297
313.246
313.194
313.143
313.104
304.394
304.407
304.424
304.442
304.459
304.474
304.488
304.499
304.506
304.51
304.51
304.506
304.499
304.488
304.474
304.459
304.442
304.424
304.407
304.394
367.506
367.701
367.937
368.176
368.405
368.615
368.796
368.941
369.041
369.093
369.093
369.041
368.941
368.796
368.615
368.405
368.176
367.937
367.701
367.506
358.611
358.776
358.979
359.187
359.386
359.568
359.725
359.85
359.938
359.983
359.983
359.938
359.85
359.725
359.568
359.386
359.187
358.979
358.776
358.611
349.671
349.808
349.98
350.155
350.324
350.478
350.611
350.718
350.792
350.83
350.83
350.792
350.718
350.611
350.478
350.324
350.155
349.98
349.808
349.671
340.695
340.805
340.945
341.089
341.227
341.353
341.462
341.549
341.61
341.642
341.642
341.61
341.549
341.462
341.353
341.227
341.089
340.945
340.805
340.695
331.689
331.774
331.883
331.995
332.102
332.2
332.285
332.353
332.401
332.425
332.425
332.401
332.353
332.285
332.2
332.102
331.995
331.883
331.774
331.689
322.662
322.722
322.799
322.879
322.956
323.026
323.087
323.136
323.17
323.187
323.187
323.17
323.136
323.087
323.026
322.956
322.879
322.799
322.722
322.662
313.619
313.654
313.701
313.749
313.795
313.837
313.874
313.903
313.923
313.934
313.934
313.923
313.903
313.874
313.837
313.795
313.749
313.701
313.654
313.619
304.566
304.578
304.594
304.61
304.625
304.639
304.652
304.661
304.668
304.672
304.672
304.668
304.661
304.652
304.639
304.625
304.61
304.594
304.578
304.566
370.032
370.213
370.43
370.65
370.859
371.05
371.215
371.346
371.437
371.484
371.484
371.437
371.346
371.215
371.05
370.859
370.65
370.43
370.213
370.032
360.76
360.914
361.101
361.292
361.474
361.64
361.783
361.897
361.976
362.017
362.017
361.976
361.897
361.783
361.64
361.474
361.292
361.101
360.914
360.76
351.46
351.588
351.746
351.908
352.062
352.203
352.325
352.421
352.488
352.523
352.523
352.488
352.421
352.325
352.203
352.062
351.908
351.746
351.588
351.46
342.138
342.241
342.37
342.503
342.63
342.745
342.845
342.924
342.979
343.007
343.007
342.979
342.924
342.845
342.745
342.63
342.503
342.37
342.241
342.138
332.8
332.878
332.979
333.082
333.181
333.271
333.348
333.41
333.453
333.475
333.475
333.453
333.41
333.348
333.271
333.181
333.082
332.979
332.878
332.8
323.448
323.504
323.576
323.649
323.72
323.785
323.84
323.884
323.915
323.931
323.931
323.915
323.884
323.84
323.785
323.72
323.649
323.576
323.504
323.448
314.088
314.121
314.165
314.209
314.251
314.29
314.324
314.35
314.369
314.378
314.378
314.369
314.35
314.324
314.29
314.251
314.209
314.165
314.121
314.088
304.723
304.734
304.749
304.764
304.778
304.791
304.802
304.811
304.817
304.82
304.82
304.817
304.811
304.802
304.791
304.778
304.764
304.749
304.734
304.723
372.006
372.176
372.38
372.586
372.782
372.96
373.113
373.235
373.319
373.363
373.363
373.319
373.235
373.113
372.96
372.782
372.586
372.38
372.176
372.006
362.376
362.521
362.698
362.877
363.048
363.204
363.337
363.443
363.517
363.555
363.555
363.517
363.443
363.337
363.204
363.048
362.877
362.698
362.521
362.376
352.764
352.885
353.034
353.187
353.332
353.465
353.578
353.668
353.731
353.763
353.763
353.731
353.668
353.578
353.465
353.332
353.187
353.034
352.885
352.764
343.165
343.262
343.384
343.51
343.629
343.738
343.831
343.905
343.957
343.984
343.984
343.957
343.905
343.831
343.738
343.629
343.51
343.384
343.262
343.165
333.574
333.649
333.744
333.842
333.935
334.02
334.093
334.151
334.191
334.212
334.212
334.191
334.151
334.093
334.02
333.935
333.842
333.744
333.649
333.574
323.989
324.042
324.11
324.18
324.247
324.308
324.36
324.402
324.431
324.445
324.445
324.431
324.402
324.36
324.308
324.247
324.18
324.11
324.042
323.989
314.409
314.44
314.481
314.523
314.563
314.6
314.631
314.656
314.674
314.683
314.683
314.674
314.656
314.631
314.6
314.563
314.523
314.481
314.44
314.409
304.83
304.84
304.854
304.868
304.882
304.894
304.904
304.913
304.919
304.922
304.922
304.919
304.913
304.904
304.894
304.882
304.868
304.854
304.84
304.83
)
;

boundaryField
{
    hotSide
    {
        type            fixedGradient;
        gradient        nonuniform List<scalar> 
400
(
448.624
450.227
453.439
458.27
464.735
472.853
482.647
494.138
507.352
522.314
539.046
557.572
577.911
600.082
624.101
649.981
677.735
707.372
738.898
772.32
455.317
456.867
459.975
464.654
470.925
478.813
488.347
499.556
512.473
527.128
543.551
561.77
581.809
603.689
627.43
653.047
680.553
709.958
741.268
774.491
462.56
464.047
467.03
471.53
477.572
485.189
494.418
505.3
517.874
532.178
548.251
566.124
585.828
607.387
630.824
656.155
683.393
712.55
743.632
776.645
470.233
471.646
474.486
478.777
484.554
491.86
500.743
511.254
523.442
537.356
553.041
570.536
589.876
611.09
634.202
659.23
686.189
715.088
745.934
778.731
478.122
479.453
482.131
486.188
491.67
498.632
507.134
517.238
529.009
542.503
557.775
574.87
593.83
614.685
637.463
662.182
688.857
717.498
748.109
780.694
485.898
487.14
489.645
493.454
498.624
505.222
513.324
523.007
534.345
547.41
562.262
578.956
597.535
618.036
640.486
664.904
691.306
719.698
750.086
782.47
493.116
494.269
496.602
500.164
505.024
511.264
518.975
528.248
539.171
551.824
566.277
582.592
600.816
620.988
643.135
667.279
693.432
721.601
751.788
783.993
499.242
500.315
502.493
505.833
510.416
516.338
523.702
532.614
543.173
555.468
569.578
585.567
603.489
623.382
645.276
669.19
695.136
723.12
753.142
785.201
503.725
504.737
506.796
509.966
514.338
520.019
527.122
535.763
546.049
558.078
571.933
587.683
605.383
625.073
646.783
670.531
696.329
724.18
754.085
786.04
506.101
507.079
509.073
512.151
516.409
521.959
528.921
537.415
547.555
559.442
573.161
588.784
606.366
625.949
647.562
671.223
696.943
724.726
754.57
786.47
506.101
507.079
509.073
512.151
516.409
521.959
528.921
537.415
547.555
559.442
573.161
588.784
606.366
625.949
647.562
671.223
696.943
724.726
754.57
786.47
503.725
504.737
506.796
509.966
514.338
520.019
527.122
535.763
546.049
558.078
571.933
587.683
605.383
625.073
646.783
670.531
696.329
724.18
754.085
786.04
499.242
500.315
502.493
505.833
510.416
516.338
523.702
532.614
543.173
555.468
569.578
585.567
603.489
623.382
645.276
669.19
695.136
723.12
753.142
785.201
493.116
494.269
496.602
500.164
505.024
511.264
518.975
528.248
539.171
551.824
566.277
582.592
600.816
620.988
643.135
667.279
693.432
721.601
751.788
783.993
485.898
487.14
489.645
493.454
498.624
505.222
513.324
523.007
534.345
547.41
562.262
578.956
597.535
618.036
640.486
664.904
691.306
719.698
750.086
782.47
478.122
479.453
482.131
486.188
491.67
498.632
507.134
517.238
529.009
542.503
557.775
574.87
593.83
614.685
637.463
662.182
688.857
717.498
748.109
780.694
470.233
471.646
474.486
478.777
484.554
491.86
500.743
511.254
523.442
537.356
553.041
570.536
589.876
611.09
634.202
659.23
686.189
715.088
745.934
778.731
462.56
464.047
467.03
471.53
477.572
485.189
494.418
505.3
517.874
532.178
548.251
566.124
585.828
607.387
630.824
656.155
683.393
712.55
743.632
776.645
455.317
456.867
459.975
464.654
470.925
478.813
488.347
499.556
512.473
527.128
543.551
561.77
581.809
603.689
627.43
653.047
680.553
709.958
741.268
774.491
448.624
450.227
453.439
458.27
464.735
472.853
482.647
494.138
507.352
522.314
539.046
557.572
577.911
600.082
624.101
649.981
677.735
707.372
738.898
772.32
)
;
    }
    coldSide
    {
        type            mixed;
        refValue        uniform 300;
        refGradient     uniform 0;
        valueFraction   uniform 0.991591;
        source          uniform 0;
        value           nonuniform List<scalar> 
400
(
300.025
300.025
300.025
300.025
300.026
300.026
300.026
300.027
300.028
300.029
300.03
300.031
300.032
300.033
300.034
300.036
300.037
300.038
300.04
300.041
300.025
300.025
300.025
300.025
300.026
300.026
300.027
300.027
300.028
300.029
300.03
300.031
300.032
300.033