/*--------------------------------*- C++ -*----------------------------------*\
| =========                 |                                                 |
| \\      /  F ield         | OpenFOAM: The Open Source CFD Toolbox           |
|  \\    /   O peration     | Version:  2212                                  |
|   \\  /    A nd           | Website:  www.openfoam.com                      |
|    \\/     M anipulation  |                                                 |
\*---------------------------------------------------------------------------*/
FoamFile
{
    version     2.0;
    format      ascii;
    arch        "LSB;label=32;scalar=64";
    class       volScalarField;
    location    "0";
    object      T;
}
// * * * * * * * * * * * * * * * * * * * * * * * * * * * * * * * * * * * * * //

dimensions      [0 0 0 1 0 0 0];

internalField   nonuniform List<scalar> 
3200
(
313.82
314.116
314.052
314.27
314.29
314.405
314.513
314.959
314.967
314.871
315.022
315.123
315.19
315.211
315.132
314.965
314.969
314.856
315.08
314.962
312.118
312.365
312.311
312.467
312.491
312.624
312.699
313.131
313.116
313.005
313.149
313.278
313.314
313.26
313.245
313.097
313.093
312.998
313.169
313.099
310.394
310.57
310.531
310.624
310.634
310.768
310.813
311.234
311.182
311.111
311.209
311.361
311.332
311.273
311.294
311.173
311.155
311.117
311.189
311.215
308.584
308.714
308.705
308.748
308.764
308.869
308.888
309.333
309.189
309.209
309.2
309.391
309.28
309.28
309.312
309.218
309.195
309.162
309.215
309.246
306.702
306.811
306.834
306.866
306.851
306.929
306.974
307.306
307.193
307.186
307.211
307.318
307.238
307.271
307.303
307.234
307.179
307.158
307.193
307.228
304.808
304.873
304.899
304.91
304.905
305.018
305.041
305.216
305.154
305.115
305.176
305.258
305.191
305.253
305.257
305.194
305.14
305.141
305.182
305.163
302.87
302.909
302.958
302.922
302.93
303.062
303.045
303.132
303.106
303.055
303.111
303.158
303.111
303.183
303.143
303.14
303.081
303.102
303.087
303.092
300.967
300.982
301.013
300.967
300.983
301.029
301.013
301.043
301.052
301.016
301.02
301.055
301.06
301.056
301.039
301.057
301.033
301.045
301.033
301.027
314.316
314.58
314.619
314.869
315.226
315.069
315.181
315.493
315.467
315.535
315.615
315.554
315.691
315.678
315.67
315.591
315.606
315.422
315.436
315.145
312.465
312.764
312.729
312.98
313.258
313.202
313.288
313.556
313.528
313.63
313.655
313.64
313.715
313.68
313.704
313.596
313.607
313.463
313.442
313.232
310.589
310.846
310.8
311.037
311.225
311.264
311.353
311.535
311.541
311.639
311.642
311.638
311.718
311.665
311.684
311.599
311.525
311.445
311.473
311.303
308.672
308.907
308.892
309.044
309.199
309.29
309.382
309.486
309.5
309.558
309.596
309.562
309.647
309.603
309.62
309.598
309.436
309.38
309.434
309.346
306.763
306.957
306.932
307.073
307.151
307.268
307.367
307.411
307.407
307.472
307.53
307.434
307.535
307.496
307.504
307.525
307.348
307.332
307.385
307.32
304.874
304.972
304.964
305.106
305.122
305.24
305.289
305.298
305.305
305.412
305.404
305.3
305.397
305.321
305.391
305.365
305.256
305.267
305.339
305.257
302.934
303.011
303.029
303.077
303.059
303.131
303.198
303.21
303.189
303.285
303.259
303.197
303.27
303.217
303.29
303.193
303.17
303.176
303.199
303.182
301.001
301.003
301.01
301.015
301.025
301.06
301.072
301.083
301.069
301.098
301.095
301.074
301.093
301.081
301.135
301.047
301.057
301.064
301.051
301.051
314.867
315.222
315.239
315.592
315.764
315.827
316.244
316.128
316.247
316.325
316.567
316.572
316.355
316.52
316.401
316.404
316.593
316.362
316.148
315.82
312.965
313.273
313.268
313.607
313.762
313.799
314.149
314.085
314.178
314.253
314.465
314.473
314.303
314.419
314.331
314.317
314.491
314.253
314.063
313.834
311.027
311.318
311.314
311.523
311.703
311.774
312.035
312.004
312.103
312.12
312.313
312.308
312.156
312.274
312.229
312.215
312.303
312.098
311.978
311.792
309.076
309.334
309.297
309.459
309.618
309.632
309.923
309.902
309.99
309.912
310.127
310.122
309.971
310.049
310.077
310.042
310.05
309.918
309.884
309.727
307.112
307.307
307.281
307.388
307.487
307.518
307.768
307.76
307.837
307.687
307.888
307.896
307.789
307.851
307.9
307.828
307.801
307.73
307.75
307.624
305.079
305.221
305.24
305.288
305.358
305.415
305.548
305.586
305.642
305.474
305.637
305.66
305.583
305.663
305.682
305.599
305.565
305.559
305.54
305.462
303.057
303.13
303.154
303.178
303.23
303.274
303.322
303.378
303.396
303.297
303.405
303.406
303.358
303.428
303.439
303.351
303.332
303.382
303.326
303.278
301.022
301.042
301.039
301.073
301.099
301.099
301.112
301.137
301.133
301.092
301.159
301.138
301.13
301.137
301.175
301.116
301.12
301.145
301.119
301.08
315.823
315.918
315.94
316.432
316.776
316.67
316.865
317.059
316.974
317.277
317.536
317.398
317.319
317.536
317.313
317.463
317.226
317.255
317.137
316.742
313.817
313.915
313.928
314.298
314.633
314.578
314.713
314.896
314.785
315.059
315.284
315.142
315.102
315.262
315.098
315.227
314.998
315.076
314.933
314.623
311.739
311.835
311.881
312.135
312.419
312.423
312.558
312.659
312.546
312.812
312.961
312.873
312.855
312.965
312.846
312.932
312.794
312.88
312.708
312.407
309.607
309.759
309.767
309.97
310.149
310.193
310.34
310.378
310.289
310.541
310.636
310.553
310.561
310.68
310.574
310.565
310.541
310.626
310.481
310.156
307.466
307.619
307.62
307.804
307.87
307.944
308.115
308.097
308.033
308.223
308.293
308.197
308.236
308.305
308.251
308.205
308.284
308.326
308.204
307.861
305.319
305.491
305.45
305.618
305.651
305.68
305.821
305.785
305.743
305.9
305.963
305.873
305.875
305.928
305.914
305.842
305.912
305.979
305.902
305.596
303.166
303.321
303.296
303.375
303.402
303.408
303.495
303.474
303.437
303.535
303.579
303.521
303.561
303.533
303.562
303.484
303.582
303.599
303.564
303.377
301.048
301.125
301.112
301.116
301.141
301.138
301.168
301.179
301.157
301.164
301.214
301.165
301.199
301.184
301.206
301.16
301.21
301.213
301.193
301.141
316.471
316.662
317.064
317.347
317.575
317.821
317.889
317.924
317.976
318.172
318.425
318.406
318.444
318.356
318.212
318.461
318.127
317.988
318.18
317.906
314.344
314.541
314.861
315.178
315.353
315.553
315.583
315.64
315.627
315.837
316.1
316.059
316.06
316.011
315.883
316.107
315.85
315.673
315.846
315.603
312.189
312.355
312.601
312.948
313.092
313.238
313.251
313.254
313.283
313.477
313.696
313.663
313.662
313.601
313.519
313.642
313.469
313.337
313.435
313.226
309.996
310.152
310.403
310.677
310.759
310.848
310.874
310.869
310.919
311.064
311.243
311.241
311.28
311.194
311.128
311.195
311.051
310.962
311.043
310.848
307.791
307.936
308.132
308.361
308.406
308.442
308.475
308.478
308.561
308.646
308.744
308.77
308.843
308.704
308.657
308.729
308.645
308.533
308.61
308.418
305.561
305.677
305.858
306.016
306.05
306.063
306.05
306.058
306.146
306.202
306.244
306.293
306.32
306.222
306.2
306.205
306.19
306.082
306.147
306.027
303.355
303.416
303.543
303.656
303.66
303.65
303.604
303.617
303.669
303.723
303.737
303.794
303.818
303.72
303.733
303.722
303.737
303.641
303.677
303.634
301.116
301.15
301.197
301.26
301.22
301.222
301.206
301.215
301.221
301.229
301.269
301.283
301.286
301.244
301.253
301.253
301.271
301.218
301.219
301.209
317.096
317.551
317.959
318.02
318.476
318.66
318.686
318.791
318.953
319.151
319.473
319.309
319.303
319.249
319.116
319.357
319.228
319.084
318.936
318.758
314.884
315.247
315.643
315.727
316.112
316.259
316.303
316.43
316.475
316.722
316.966
316.848
316.82
316.786
316.664
316.844
316.754
316.651
316.539
316.347
312.676
312.92
313.276
313.361
313.693
313.798
313.898
314.018
313.984
314.213
314.435
314.374
314.316
314.297
314.133
314.288
314.258
314.151
314.084
313.913
310.421
310.569
310.891
310.965
311.238
311.34
311.433
311.543
311.481
311.698
311.893
311.861
311.794
311.72
311.593
311.728
311.707
311.637
311.563
311.463
308.15
308.244
308.491
308.57
308.768
308.796
308.951
308.999
308.951
309.167
309.282
309.291
309.203
309.129
309.085
309.11
309.115
309.087
309.004
308.952
305.827
305.872
306.083
306.169
306.288
306.295
306.427
306.41
306.377
306.572
306.636
306.658
306.604
306.534
306.493
306.519
306.512
306.503
306.439
306.379
303.504
303.544
303.649
303.711
303.806
303.774
303.865
303.86
303.831
303.978
303.985
304.011
303.998
303.952
303.884
303.889
303.886
303.917
303.882
303.822
301.177
301.182
301.232
301.259
301.272
301.273
301.287
301.29
301.277
301.329
301.347
301.344
301.345
301.337
301.305
301.302
301.289
301.315
301.289
301.266
318.057
318.473
318.784
319.002
319.47
319.411
319.57
319.803
319.922
320.239
320.246
320.291
320.076
320.383
320.196
320.036
320.09
319.818
319.743
319.628
315.731
316.121
316.373
316.551
316.966
316.923
317.085
317.21
317.336
317.705
317.619
317.721
317.521
317.772
317.62
317.47
317.542
317.276
317.179
317.128
313.386
313.673
313.899
314.048
314.442
314.388
314.517
314.613
314.771
315.102
314.935
315.065
314.89
315.088
314.962
314.807
314.892
314.691
314.586
314.534
310.973
311.217
311.347
311.538
311.924
311.826
311.93
312.007
312.126
312.461
312.227
312.36
312.244
312.341
312.287
312.114
312.198
312.08
311.947
311.96
308.557
308.777
308.775
308.981
309.333
309.198
309.324
309.385
309.477
309.741
309.505
309.62
309.521
309.59
309.593
309.438
309.486
309.46
309.275
309.338
306.112
306.271
306.214
306.438
306.685
306.595
306.706
306.738
306.795
306.985
306.78
306.883
306.776
306.863
306.889
306.757
306.761
306.762
306.615
306.674
303.676
303.779
303.732
303.894
304.054
303.993
304.038
304.047
304.082
304.224
304.081
304.124
304.056
304.144
304.133
304.067
304.04
304.04
303.96
304.027
301.235
301.252
301.262
301.314
301.361
301.343
301.357
301.379
301.37
301.419
301.379
301.394
301.354
301.405
301.386
301.363
301.359
301.332
301.32
301.364
319.03
319.253
319.636
319.965
320.365
320.173
320.708
320.689
320.794
321.032
321.213
321.189
321.085
321.217
320.992
320.936
320.912
320.488
320.596
320.449
316.618
316.796
317.121
317.395
317.778
317.594
318.066
318.002
318.128
318.384
318.485
318.472
318.337
318.51
318.296
318.236
318.251
317.875
317.937
317.843
314.137
314.247
314.519
314.819
315.139
315.004
315.354
315.267
315.415
315.666
315.639
315.769
315.539
315.703
315.539
315.494
315.501
315.225
315.194
315.13
311.66
311.72
311.871
312.173
312.439
312.359
312.626
312.505
312.659
312.855
312.836
312.981
312.765
312.865
312.762
312.727
312.735
312.537
312.415
312.372
309.114
309.129
309.202
309.522
309.675
309.687
309.85
309.758
309.854
309.983
309.974
310.129
309.97
310.018
309.966
309.953
309.938
309.758
309.663
309.639
306.531
306.496
306.553
306.809
306.957
306.976
307.069
306.988
307.032
307.119
307.131
307.235
307.113
307.179
307.123
307.122
307.096
306.977
306.923
306.935
303.916
303.913
303.945
304.101
304.215
304.214
304.246
304.198
304.201
304.265
304.284
304.315
304.256
304.323
304.212
304.278
304.258
304.195
304.192
304.166
301.304
301.326
301.319
301.377
301.403
301.412
301.41
301.407
301.404
301.435
301.423
301.444
301.43
301.441
301.412
301.432
301.433
301.414
301.406
301.41
319.867
319.864
320.249
320.764
320.867
321.049
321.434
321.583
321.69
321.654
321.836
322.257
322.108
322.222
321.87
321.869
321.644
321.525
321.361
321.193
317.337
317.324
317.625
318.088
318.173
318.338
318.695
318.778
318.927
318.856
319.033
319.427
319.277
319.37
319.027
319.039
318.886
318.773
318.574
318.497
314.748
314.723
314.91
315.342
315.488
315.635
315.93
315.943
316.095
316.062
316.176
316.547
316.377
316.451
316.162
316.156
316.096
315.983
315.763
315.751
312.069
312.125
312.223
312.619
312.759
312.869
313.13
313.108
313.232
313.211
313.333
313.633
313.484
313.502
313.321
313.276
313.197
313.144
312.952
312.997
309.38
309.485
309.522
309.85
309.993
310.088
310.281
310.238
310.346
310.315
310.406
310.67
310.502
310.515
310.417
310.375
310.321
310.244
310.117
310.175
306.696
306.836
306.796
307.058
307.194
307.247
307.405
307.354
307.393
307.401
307.435
307.62
307.524
307.531
307.447
307.454
307.394
307.323
307.211
307.297
304.031
304.131
304.053
304.272
304.346
304.418
304.468
304.433
304.452
304.466
304.478
304.533
304.527
304.519
304.467
304.495
304.488
304.358
304.312
304.402
301.348
301.39
301.351
301.444
301.474
301.495
301.499
301.482
301.489
301.487
301.518
301.526
301.536
301.531
301.477
301.52
301.494
301.466
301.457
301.462
320.571
320.777
321.007
321.476
321.784
321.847
322.139
322.469
322.686
322.748
322.923
323.122
322.903
322.837
322.475
322.459
322.586
322.612
322.119
321.914
317.939
318.087
318.306
318.723
318.977
319.02
319.277
319.537
319.759
319.804
320.019
320.163
319.94
319.878
319.543
319.55
319.659
319.722
319.261
319.103
315.247
315.367
315.531
315.929
316.109
316.161
316.402
316.583
316.783
316.824
317.025
317.142
316.922
316.916
316.536
316.627
316.68
316.786
316.346
316.267
312.55
312.622
312.755
313.096
313.263
313.288
313.529
313.651
313.787
313.833
313.947
314.074
313.885
313.912
313.572
313.648
313.672
313.772
313.375
313.361
309.831
309.833
309.969
310.212
310.317
310.347
310.605
310.663
310.759
310.757
310.852
310.947
310.817
310.832
310.599
310.696
310.673
310.734
310.418
310.451
307.02
307.021
307.126
307.33
307.394
307.418
307.619
307.636
307.694
307.723
307.754
307.856
307.748
307.738
307.584
307.692
307.63
307.684
307.427
307.493
304.192
304.202
304.255
304.413
304.472
304.471
304.614
304.552
304.603
304.63
304.678
304.685
304.656
304.627
304.596
304.643
304.582
304.624
304.458
304.503
301.425
301.389
301.417
301.489
301.511
301.492
301.539
301.502
301.533
301.545
301.561
301.575
301.56
301.552
301.549
301.559
301.545
301.568
301.489
301.514
321.044
321.374
321.695
322.17
322.611
322.657
323.031
323.239
323.397
323.738
323.829
323.785
323.785
323.689
323.463
323.548
323.229
323.317
322.806
322.637
318.378
318.626
318.89
319.264
319.68
319.684
320.056
320.257
320.405
320.694
320.773
320.738
320.693
320.644
320.394
320.472
320.19
320.295
319.84
319.722
315.62
315.826
316.036
316.363
316.718
316.698
317.037
317.198
317.374
317.583
317.673
317.619
317.595
317.574
317.282
317.35
317.108
317.281
316.805
316.766
312.866
313.032
313.2
313.401
313.702
313.754
314.03
314.091
314.336
314.441
314.491
314.467
314.494
314.468
314.17
314.202
314.018
314.163
313.774
313.733
310.029
310.227
310.377
310.439
310.698
310.738
310.976
310.959
311.228
311.288
311.286
311.289
311.314
311.313
311.019
311.027
310.895
311.011
310.719
310.714
307.151
307.351
307.471
307.456
307.694
307.696
307.862
307.848
308.047
308.07
308.043
308.071
308.103
308.086
307.847
307.871
307.779
307.869
307.685
307.682
304.308
304.451
304.505
304.469
304.631
304.612
304.761
304.724
304.85
304.84
304.821
304.847
304.85
304.867
304.728
304.719
304.661
304.737
304.609
304.628
301.45
301.492
301.517
301.505
301.559
301.541
301.592
301.598
301.635
301.632
301.607
301.612
301.637
301.63
301.576
301.596
301.545
301.581
301.535
301.562
321.618
322.047
322.47
323.037
323.212
323.339
323.799
324.199
324.235
324.369
324.68
324.493
324.637
324.506
324.39
324.407
323.994
323.944
323.537
323.483
318.856
319.193
319.554
320.068
320.213
320.366
320.705
321.083
321.102
321.233
321.511
321.32
321.46
321.307
321.212
321.214
320.862
320.863
320.433
320.431
316.021
316.332
316.623
317.068
317.173
317.312
317.595
317.927
317.947
318.073
318.303
318.083
318.237
318.095
317.998
318.005
317.711
317.71
317.327
317.345
313.149
313.42
313.661
314.027
314.079
314.227
314.452
314.715
314.719
314.838
315.048
314.81
314.94
314.855
314.743
314.719
314.55
314.484
314.212
314.217
310.226
310.483
310.696
310.943
310.985
311.102
311.291
311.5
311.48
311.543
311.741
311.527
311.627
311.61
311.483
311.457
311.325
311.215
311.078
311.121
307.321
307.517
307.648
307.818
307.842
307.985
308.099
308.239
308.201
308.297
308.444
308.267
308.338
308.323
308.181
308.216
308.093
307.968
307.933
307.947
304.387
304.546
304.581
304.688
304.701
304.814
304.881
304.945
304.907
304.973
305.127
304.97
304.998
305.021
304.925
304.9
304.849
304.8
304.785
304.781
301.462
301.534
301.532
301.582
301.577
301.62
301.654
301.653
301.642
301.656
301.719
301.679
301.686
301.689
301.652
301.626
301.628
301.61
301.61
301.589
322.426
322.621
323.105
323.582
323.999
324.264
324.549
324.949
325.069
324.987
325.439
325.303
325.369
325.451
325.078
324.851
324.636
324.635
324.392
323.961
319.527
319.728
320.05
320.55
320.91
321.178
321.384
321.729
321.81
321.761
322.145
322.014
322.068
322.153
321.785
321.584
321.457
321.409
321.176
320.872
316.578
316.765
316.973
317.481
317.758
318
318.156
318.489
318.558
318.525
318.815
318.696
318.743
318.804
318.497
318.307
318.229
318.133
317.882
317.73
313.58
313.72
313.906
314.374
314.592
314.805
314.89
315.206
315.222
315.242
315.464
315.295
315.382
315.415
315.224
315.005
314.938
314.851
314.611
314.573
310.538
310.725
310.843
311.221
311.424
311.554
311.61
311.867
311.858
311.9
312.051
311.931
311.946
311.998
311.876
311.69
311.607
311.531
311.371
311.362
307.553
307.692
307.764
308.015
308.231
308.245
308.296
308.518
308.484
308.491
308.666
308.562
308.558
308.575
308.513
308.393
308.29
308.226
308.137
308.135
304.548
304.655
304.656
304.812
304.939
304.95
304.971
305.116
305.132
305.09
305.242
305.173
305.147
305.168
305.14
305.056
304.962
304.969
304.876
304.902
301.541
301.565
301.571
301.609
301.648
301.679
301.665
301.699
301.715
301.712
301.765
301.747
301.723
301.747
301.736
301.692
301.666
301.689
301.644
301.647
323.054
323.269
323.804
324.132
324.551
325.021
325.223
325.637
325.741
325.838
326.149
326.246
326.027
326.106
325.706
325.509
325.498
325.262
325.034
324.602
320.091
320.216
320.741
321.013
321.404
321.796
321.921
322.341
322.419
322.495
322.778
322.796
322.655
322.751
322.389
322.208
322.205
322.001
321.765
321.386
317.086
317.147
317.595
317.838
318.211
318.518
318.62
318.974
319.017
319.095
319.316
319.363
319.206
319.308
319
318.867
318.891
318.691
318.441
318.163
314.005
314.063
314.451
314.575
314.994
315.243
315.278
315.573
315.654
315.656
315.831
315.865
315.769
315.873
315.589
315.468
315.492
315.323
315.046
314.921
310.904
311.007
311.293
311.343
311.708
311.913
311.94
312.13
312.245
312.16
312.372
312.382
312.298
312.343
312.143
312.068
312.056
311.881
311.679
311.623
307.811
307.917
308.101
308.068
308.406
308.535
308.547
308.665
308.779
308.66
308.887
308.868
308.836
308.814
308.676
308.612
308.651
308.486
308.272
308.328
304.686
304.766
304.843
304.816
305.044
305.16
305.119
305.163
305.323
305.174
305.351
305.319
305.35
305.309
305.232
305.124
305.191
305.104
304.927
304.992
301.573
301.586
301.618
301.632
301.69
301.741
301.707
301.722
301.789
301.734
301.797
301.783
301.774
301.795
301.754
301.714
301.751
301.694
301.654
301.687
323.42
323.785
324.364
324.83
325.216
325.537
325.947
326.203
326.485
326.535
326.517
326.745
326.661
326.685
326.669
326.269
326.054
325.849
325.535
325.197
320.45
320.688
321.22
321.639
321.99
322.234
322.575
322.829
323.093
323.079
323.057
323.274
323.202
323.196
323.183
322.84
322.65
322.461
322.206
321.869
317.446
317.544
318.002
318.387
318.663
318.887
319.205
319.44
319.67
319.579
319.569
319.76
319.701
319.697
319.664
319.399
319.175
319.044
318.85
318.531
314.342
314.399
314.775
315.065
315.366
315.527
315.789
316.004
316.212
316.064
316.065
316.202
316.156
316.138
316.114
315.886
315.724
315.602
315.453
315.216
311.209
311.263
311.514
311.732
311.973
312.079
312.35
312.466
312.671
312.594
312.515
312.626
312.584
312.581
312.559
312.362
312.284
312.176
311.997
311.841
308.032
308.07
308.274
308.371
308.58
308.627
308.833
308.916
309.079
309.065
308.973
309.044
309.023
308.99
308.936
308.791
308.804
308.745
308.57
308.494
304.857
304.846
304.998
305.011
305.151
305.179
305.307
305.353
305.458
305.423
305.392
305.425
305.419
305.398
305.344
305.291
305.292
305.293
305.121
305.107
301.613
301.619
301.687
301.68
301.733
301.735
301.775
301.795
301.849
301.831
301.799
301.817
301.816
301.812
301.787
301.789
301.765
301.787
301.714
301.728
324.077
324.459
325.176
325.451
325.785
326.131
326.601
326.748
326.994
327.135
327.413
327.386
327.433
327.327
327.154
326.911
326.866
326.443
326.102
325.856
321.004
321.311
321.88
322.136
322.434
322.688
323.141
323.26
323.545
323.596
323.813
323.824
323.882
323.815
323.598
323.445
323.372
322.99
322.714
322.48
317.881
318.127
318.558
318.789
319.067
319.275
319.638
319.796
320.053
320.017
320.188
320.194
320.293
320.249
320.057
319.947
319.832
319.485
319.293
319.08
314.685
314.921
315.247
315.439
315.609
315.813
316.102
316.232
316.48
316.427
316.566
316.564
316.662
316.632
316.428
316.363
316.205
315.958
315.862
315.69
311.429
311.636
311.912
312.008
312.162
312.352
312.545
312.655
312.847
312.836
312.888
312.929
312.991
313.039
312.777
312.754
312.619
312.393
312.408
312.254
308.173
308.347
308.518
308.626
308.72
308.876
308.982
309.041
309.204
309.214
309.219
309.265
309.325
309.34
309.155
309.13
309.037
308.847
308.862
308.793
304.886
305.014
305.11
305.198
305.244
305.35
305.394
305.453
305.553
305.512
305.561
305.571
305.605
305.631
305.488
305.5
305.411
305.34
305.303
305.284
301.647
301.653
301.705
301.742
301.763
301.796
301.805
301.822
301.845
301.815
301.884
301.867
301.878
301.911
301.832
301.852
301.808
301.78
301.772
301.774
324.4
324.793
325.376
325.853
326.489
326.659
327.236
327.533
327.815
327.905
328.017
327.938
327.802
327.856
327.754
327.527
327.22
326.857
326.904
326.427
321.263
321.597
322.083
322.492
323.049
323.197
323.683
323.944
324.204
324.252
324.35
324.3
324.201
324.253
324.171
323.988
323.602
323.379
323.44
322.963
318.086
318.37
318.735
319.094
319.551
319.73
320.086
320.326
320.56
320.551
320.642
320.628
320.557
320.557
320.497
320.421
319.994
319.895
319.916
319.455
314.84
315.052
315.35
315.671
316.032
316.244
316.421
316.668
316.873
316.879
316.939
316.91
316.841
316.86
316.777
316.745
316.378
316.356
316.331
315.951
311.523
311.733
311.959
312.218
312.499
312.675
312.79
312.996
313.189
313.157
313.222
313.156
313.107
313.132
313.086
313.086
312.763
312.792
312.718
312.45
308.253
308.395
308.583
308.719
308.952
309.075
309.137
309.313
309.449
309.352
309.46
309.392
309.37
309.39
309.342
309.375
309.107
309.182
309.089
308.904
304.967
305.069
305.185
305.264
305.399
305.461
305.487
305.58
305.689
305.589
305.694
305.643
305.643
305.614
305.593
305.625
305.452
305.497
305.446
305.326
301.653
301.708
301.735
301.747
301.836
301.826
301.828
301.878
301.912
301.872
301.895
301.881
301.897
301.88
301.874
301.889
301.817
301.831
301.843
301.772
324.729
325.341
325.719
326.404
327.02
327.066
327.508
327.874
328.041
328.483
328.511
328.559
328.662
328.414
328.282
328.009
327.688
327.525
327.174
326.789
321.513
322.056
322.397
322.999
323.521
323.547
323.945
324.262
324.442
324.843
324.805
324.863
324.981
324.763
324.64
324.362
324.024
323.947
323.633
323.293
318.231
318.719
319.013
319.497
319.964
320
320.319
320.652
320.782
321.145
321.05
321.107
321.217
320.993
320.926
320.716
320.37
320.3
320.013
319.747
314.933
315.355
315.602
315.998
316.388
316.453
316.7
317.015
317.069
317.366
317.298
317.326
317.432
317.175
317.172
316.986
316.684
316.701
316.377
316.192
311.649
311.994
312.2
312.477
312.799
312.865
313.044
313.29
313.355
313.578
313.51
313.543
313.603
313.405
313.371
313.216
313
313
312.783
312.625
308.355
308.574
308.711
308.919
309.164
309.273
309.355
309.506
309.571
309.733
309.661
309.691
309.731
309.609
309.572
309.438
309.363
309.333
309.155
309.043
305.046
305.173
305.242
305.343
305.528
305.619
305.639
305.689
305.761
305.874
305.769
305.845
305.864
305.743
305.779
305.648
305.666
305.614
305.478
305.447
301.7
301.739
301.776
301.8
301.842
301.88
301.881
301.911
301.943
301.976
301.917
301.953
301.964
301.909
301.939
301.875
301.907
301.884
301.842
301.844
325.309
325.811
326.16
326.498
327.223
327.516
328.009
328.17
328.296
328.67
328.952
328.898
329.066
328.82
328.781
328.431
328.117
327.734
327.379
327.139
322.029
322.461
322.757
323.042
323.694
323.894
324.361
324.533
324.598
324.91
325.168
325.123
325.259
325.069
325.045
324.698
324.414
324.071
323.802
323.585
318.709
319.064
319.358
319.569
320.146
320.247
320.645
320.858
320.88
321.152
321.357
321.321
321.413
321.326
321.266
321.003
320.685
320.359
320.16
320.005
315.346
315.653
315.906
316.067
316.557
316.636
316.934
317.112
317.107
317.388
317.497
317.475
317.536
317.466
317.459
317.21
316.95
316.684
316.545
316.367
311.908
312.205
312.359
312.521
312.914
313.006
313.221
313.339
313.359
313.591
313.647
313.588
313.687
313.544
313.609
313.389
313.223
313
312.913
312.732
308.516
308.799
308.834
308.96
309.246
309.341
309.476
309.582
309.553
309.786
309.777
309.698
309.81
309.644
309.755
309.553
309.454
309.313
309.218
309.082
305.1
305.278
305.285
305.412
305.573
305.657
305.774
305.801
305.736
305.908
305.887
305.829
305.936
305.757
305.909
305.734
305.691
305.577
305.515
305.427
301.711
301.767
301.771
301.824
301.87
301.917
301.959
301.959
301.935
301.992
301.982
301.949
301.988
301.929
301.981
301.918
301.899
301.883
301.846
301.829
325.582
326.005
326.547
326.825
327.364
327.811
328.343
328.485
328.762
329.076
329.247
329.164
329.187
329.106
328.988
328.876
328.551
328.082
327.65
327.446
322.273
322.593
323.096
323.291
323.759
324.211
324.624
324.739
325.034
325.261
325.424
325.348
325.325
325.283
325.215
325.13
324.861
324.451
324.011
323.84
318.921
319.164
319.614
319.735
320.091
320.59
320.824
321.021
321.238
321.47
321.556
321.511
321.485
321.411
321.353
321.333
321.12
320.796
320.34
320.212
315.516
315.741
316.121
316.214
316.465
316.87
317.014
317.286
317.423
317.657
317.666
317.618
317.57
317.526
317.505
317.514
317.331
317.039
316.668
316.546
312.129
312.27
312.621
312.613
312.855
313.113
313.218
313.481
313.559
313.792
313.768
313.706
313.671
313.644
313.638
313.675
313.532
313.27
312.962
312.885
308.666
308.825
309.053
309.018
309.227
309.384
309.444
309.688
309.716
309.892
309.809
309.816
309.777
309.775
309.753
309.785
309.719
309.503
309.25
309.229
305.214
305.325
305.431
305.408
305.55
305.659
305.693
305.805
305.838
305.987
305.888
305.901
305.898
305.856
305.87
305.883
305.817
305.706
305.539
305.578
301.746
301.779
301.805
301.825
301.866
301.923
301.905
301.943
301.922
302.02
301.966
301.982
301.986
301.974
301.956
301.964
301.951
301.883
301.852
301.868
)
;

boundaryField
{
    hotSide
    {
        type            fixedGradient;
        gradient        nonuniform List<scalar> 
400
(
131.369
139.688
148.049
156.417
164.753
173.02
181.178
189.187
197.008
204.602
211.928
218.95
225.631
231.935
237.83
243.284
248.268
252.757
256.727
260.159
133.273
141.847
150.469
159.102
167.708
176.247
184.678
192.96
201.053
208.915
216.506
223.787
230.72
237.269
243.398
249.075
254.271
258.959
263.114
266.715
134.952
143.761
152.625
161.506
170.362
179.153
187.839
196.375
204.721
212.834
220.672
228.195
235.364
242.141
248.489
254.376
259.771
264.646
268.975
272.736
136.43
145.456
154.542
163.648
172.734
181.757
190.676
199.446
208.025
216.368
224.433
232.179
239.565
246.552
253.103
259.184
264.763
269.81
274.299
278.209
137.734
146.955
156.24
165.551
174.844
184.077
193.206
202.187
210.976
219.528
227.799
235.746
243.329
250.506
257.24
263.497
269.241
274.445
279.081
283.125
138.888
148.281
157.744
167.235
176.711
186.13
195.445
204.614
213.588
222.324
230.777
238.903
246.659
254.005
260.902
267.313
273.205
278.547
283.312
287.475
139.914
149.456
159.071
168.718
178.353
187.931
197.408
206.737
215.872
224.767
233.377
241.656
249.562
257.052
264.089
270.633
276.652
282.112
286.988
291.253
140.829
150.496
160.239
170.016
179.782
189.494
199.105
208.567
217.836
226.862
235.602
244.008
252.038
259.648
266.799
273.454
279.576
285.135
290.101
294.449
141.646
151.413
161.257
171.137
181.008
190.826
200.542
210.11
219.483
228.613
237.454
245.96
254.086
261.79
269.03
275.77
281.973
287.606
292.642
297.054
142.373
152.212
162.131
172.087
182.035
191.928
201.721
211.365
220.813
230.018
238.931
247.508
255.702
263.472
270.775
277.574
283.832
289.517
294.601
299.056
143.008
152.895
162.861
172.863
182.858
192.798
202.638
212.328
221.821
231.069
240.025
248.643
256.877
264.683
272.022
278.853
285.142
290.855
295.963
300.44
143.547
153.452
163.437
173.457
183.469
193.427
203.282
212.987
222.494
231.756
240.724
249.352
257.596
265.411
272.756
279.594
285.887
291.603
296.713
301.19
143.974
153.871
163.845
173.854
183.854
193.797
203.637
213.326
222.817
232.06
241.009
249.618
257.841
265.636
272.96
279.777
286.048
291.743
296.831
301.287
144.272
154.131
164.066
174.034
183.99
193.889
203.683
213.325
222.767
231.961
240.86
249.419
257.593
265.337
272.613
279.381
285.605
291.254
296.298
300.712
144.413
154.207
164.074
173.971
183.854
193.677
203.393
212.956
222.319
231.433
240.252
248.731
256.825
264.492
271.691
278.384
284.536
290.115
295.092
299.443
144.37
154.07
163.839
173.635
183.414
193.131
202.74
212.193
221.445
230.449
239.158
247.527
255.513
263.074
270.169
276.762
282.817
288.304
293.193
297.46
144.109
153.687
163.329
172.995
182.641
192.221
201.692
211.006
220.118
228.981
237.55
245.782
253.632
261.06
268.026
274.493
280.429
285.8
290.581
294.747
143.595
153.023
162.511
172.018
181.501
190.916
200.219
209.364
218.306
227.001
235.403
243.469
251.157
258.426
265.238
271.558
277.351
282.588
287.241
291.289
142.795
152.046
161.352
170.671
179.963
189.184
198.291
207.24
215.985
224.484
232.691
240.566
248.066
255.153
261.789
267.938
273.569
278.652
283.162
287.075
141.676
150.723
159.82
168.925
177.999
187
195.884
204.609
213.131
221.408
229.396
237.056
244.345
251.227
257.665
263.625
269.075
273.988
278.337
282.102
)
;
    }
    coldSide
    {
        type            mixed;
        refValue        uniform 300;
        refGradient     uniform 0;
        valueFraction   uniform 0.991591;
        source          uniform 0;
        value           nonuniform List<scalar> 
400
(
300.008
300.008
300.009
300.009
300.009
300.01
300.01
300.011
300.011
300.012
300.012
300.012
300.013
300.013
300.014
300.014
300.014
300.014
300.014
300.015
300.008
300.008
300.009
300.009
300.01
300.01
300.011
300.011
300.012
300.012
300.013
300.013
300.013
300.013
300.014
300.014