/*--------------------------------*- C++ -*----------------------------------*\
| =========                 |                                                 |
| \\      /  F ield         | OpenFOAM: The Open Source CFD Toolbox           |
|  \\    /   O peration     | Version:  2212                                  |
|   \\  /    A nd           | Website:  www.openfoam.com                      |
|    \\/     M anipulation  |                                                 |
\*---------------------------------------------------------------------------*/
FoamFile
{
    version     2.0;
    format      ascii;
    arch        "LSB;label=32;scalar=64";
    class       volScalarField;
    location    "0";
    object      T;
}
// * * * * * * * * * * * * * * * * * * * * * * * * * * * * * * * * * * * * * //

dimensions      [0 0 0 1 0 0 0];

internalField   nonuniform List<scalar> 
3200
(
341.327
342.041
342.776
343.424
344.038
344.661
344.998
345.077
345.647
345.753
345.741
345.374
344.971
344.701
343.84
343.045
342.357
341.397
340.711
339.943
335.898
336.516
337.159
337.679
338.237
338.81
339.05
339.125
339.684
339.755
339.696
339.416
339.113
338.792
338.041
337.368
336.733
335.91
335.337
334.692
330.422
330.948
331.506
331.895
332.416
332.891
333.079
333.175
333.683
333.759
333.652
333.398
333.183
332.872
332.216
331.663
331.135
330.417
329.95
329.425
324.913
325.323
325.839
326.101
326.547
326.939
327.075
327.195
327.634
327.685
327.556
327.381
327.176
326.94
326.35
325.934
325.507
324.915
324.509
324.092
319.4
319.681
320.125
320.31
320.679
320.985
321.073
321.169
321.535
321.595
321.498
321.358
321.143
321.001
320.491
320.16
319.897
319.393
319.09
318.772
313.905
314.032
314.423
314.547
314.831
314.986
315.072
315.142
315.401
315.509
315.421
315.296
315.088
315.042
314.659
314.431
314.219
313.881
313.659
313.426
308.37
308.418
308.681
308.741
308.948
309.023
309.008
309.098
309.245
309.358
309.322
309.18
309.04
309.007
308.81
308.687
308.491
308.328
308.221
308.064
302.8
302.831
302.91
302.937
303.02
303.029
303.022
303.038
303.101
303.146
303.136
303.083
303.052
303.036
302.948
302.928
302.806
302.787
302.746
302.701
342.193
343.07
343.822
344.576
345.118
345.974
346.318
346.48
346.676
346.902
346.755
346.753
346.393
345.57
345.133
344.451
343.65
342.488
341.65
340.821
336.613
337.407
338.029
338.697
339.142
339.891
340.198
340.311
340.533
340.668
340.539
340.567
340.234
339.5
339.129
338.534
337.873
336.805
336.106
335.425
331.055
331.685
332.24
332.762
333.169
333.748
334.061
334.164
334.349
334.428
334.363
334.379
334.064
333.457
333.101
332.646
332.068
331.137
330.548
330.003
325.493
325.927
326.458
326.833
327.176
327.624
327.842
327.993
328.207
328.213
328.143
328.205
327.867
327.372
327.077
326.739
326.258
325.504
324.952
324.603
319.877
320.154
320.643
320.894
321.173
321.477
321.689
321.794
322.028
321.951
321.91
322.004
321.686
321.31
321.071
320.834
320.421
319.843
319.406
319.166
314.237
314.379
314.809
314.933
315.127
315.352
315.506
315.637
315.776
315.688
315.687
315.732
315.482
315.239
315.056
314.889
314.567
314.213
313.882
313.714
308.544
308.615
308.907
308.958
309.078
309.197
309.275
309.404
309.538
309.433
309.44
309.462
309.289
309.14
309.051
308.966
308.725
308.54
308.365
308.251
302.854
302.899
302.996
302.985
303.031
303.081
303.095
303.147
303.216
303.145
303.161
303.184
303.11
303.041
303.01
303.005
302.914
302.858
302.808
302.759
343.444
344.372
345.36
346.139
346.747
347.767
347.945
348.229
348.403
348.384
348.287
348.172
347.685
347.059
346.65
345.923
344.947
343.94
343.186
342.15
337.707
338.482
339.337
340.005
340.536
341.406
341.596
341.828
341.972
341.938
341.873
341.803
341.311
340.766
340.4
339.771
338.917
338.068
337.4
336.504
331.966
332.581
333.305
333.864
334.329
335.007
335.195
335.442
335.489
335.532
335.441
335.396
334.922
334.545
334.204
333.659
332.919
332.187
331.667
330.932
326.206
326.64
327.254
327.713
328.126
328.626
328.818
329.046
329.01
329.067
328.983
328.988
328.596
328.297
328.042
327.575
326.933
326.302
325.922
325.35
320.389
320.678
321.208
321.571
321.903
322.229
322.401
322.587
322.537
322.597
322.52
322.592
322.251
322.018
321.82
321.478
320.998
320.48
320.207
319.747
314.584
314.735
315.183
315.405
315.647
315.867
315.98
316.113
316.084
316.114
316.105
316.173
315.919
315.711
315.613
315.34
315.028
314.669
314.44
314.099
308.748
308.813
309.106
309.249
309.378
309.517
309.593
309.647
309.622
309.668
309.668
309.735
309.548
309.413
309.396
309.19
309.03
308.791
308.672
308.446
302.932
302.969
303.042
303.087
303.128
303.186
303.22
303.213
303.214
303.212
303.23
303.285
303.204
303.16
303.135
303.067
303.031
302.936
302.92
302.823
344.847
345.89
346.959
347.595
348.417
349.414
349.551
349.967
350.042
350.02
349.907
349.767
349.166
348.815
348.278
347.433
346.488
345.622
344.593
343.455
338.906
339.776
340.745
341.268
341.966
342.835
342.979
343.337
343.302
343.327
343.279
343.158
342.575
342.271
341.815
341.039
340.264
339.493
338.582
337.661
332.955
333.679
334.454
334.928
335.518
336.254
336.41
336.66
336.579
336.645
336.664
336.514
336.017
335.759
335.346
334.703
334.079
333.415
332.667
331.853
326.964
327.575
328.135
328.614
329.025
329.664
329.755
329.95
329.874
329.989
330.033
329.904
329.446
329.251
328.928
328.377
327.871
327.337
326.697
326.046
321.006
321.455
321.872
322.262
322.57
323.074
323.086
323.292
323.258
323.33
323.361
323.261
322.885
322.751
322.56
322.136
321.645
321.229
320.761
320.275
315.048
315.335
315.597
315.886
316.126
316.527
316.49
316.624
316.65
316.668
316.695
316.602
316.34
316.235
316.18
315.873
315.465
315.156
314.834
314.474
309.023
309.253
309.356
309.531
309.7
309.945
309.918
309.967
310.022
310.026
310.039
309.951
309.834
309.713
309.734
309.571
309.261
309.114
308.881
308.677
303.019
303.107
303.156
303.171
303.253
303.322
303.312
303.332
303.358
303.367
303.37
303.319
303.308
303.253
303.252
303.219
303.099
303.061
302.976
302.901
346.349
347.56
348.422
349.316
349.989
350.771
351.218
351.527
351.524
351.755
351.593
351.394
350.808
350.544
349.94
349.086
348.386
347.223
345.854
344.781
340.215
341.231
341.976
342.718
343.28
344.001
344.384
344.66
344.593
344.804
344.657
344.489
343.981
343.814
343.227
342.503
341.904
340.892
339.683
338.766
334.064
334.934
335.519
336.124
336.615
337.198
337.515
337.759
337.672
337.856
337.79
337.617
337.19
337.083
336.589
335.984
335.402
334.585
333.548
332.768
327.906
328.631
329.085
329.548
329.986
330.409
330.672
330.862
330.813
330.941
330.955
330.774
330.415
330.36
329.941
329.485
328.908
328.336
327.451
326.745
321.756
322.297
322.618
322.973
323.334
323.645
323.848
323.995
323.952
324.074
324.092
323.936
323.693
323.615
323.318
322.962
322.455
322.042
321.393
320.794
315.536
315.955
316.174
316.437
316.677
316.886
317.011
317.138
317.118
317.176
317.217
317.105
316.94
316.879
316.664
316.436
316.031
315.723
315.287
314.846
309.291
309.599
309.711
309.87
310.007
310.134
310.194
310.265
310.269
310.321
310.337
310.3
310.166
310.129
310.01
309.887
309.594
309.452
309.17
308.913
303.102
303.227
303.245
303.305
303.354
303.385
303.412
303.432
303.446
303.47
303.451
303.45
303.409
303.393
303.344
303.323
303.204
303.161
303.075
302.981
347.883
348.971
349.77
350.894
351.627
352.415
353.081
353.168
353.264
353.323
353.08
352.852
352.276
352.044
351.3
350.735
349.759
348.736
347.306
346.148
341.571
342.462
343.157
344.112
344.688
345.392
345.986
346.101
346.106
346.228
345.964
345.755
345.241
345.072
344.385
343.905
343.13
342.215
340.94
339.916
335.224
335.945
336.523
337.36
337.802
338.393
338.926
339
338.992
339.113
338.861
338.702
338.214
338.126
337.546
337.149
336.49
335.724
334.632
333.756
328.858
329.394
329.875
330.613
330.923
331.377
331.838
331.952
331.91
331.993
331.813
331.689
331.209
331.186
330.732
330.396
329.878
329.273
328.35
327.615
322.455
322.881
323.21
323.811
324.073
324.377
324.735
324.848
324.824
324.917
324.725
324.645
324.269
324.261
323.908
323.662
323.234
322.761
322.034
321.498
316.053
316.344
316.569
317.002
317.238
317.4
317.654
317.762
317.75
317.818
317.668
317.57
317.304
317.346
317.119
316.918
316.581
316.205
315.752
315.36
309.657
309.817
309.939
310.204
310.398
310.442
310.624
310.658
310.66
310.704
310.585
310.537
310.383
310.415
310.279
310.132
309.961
309.689
309.442
309.219
303.233
303.297
303.317
303.415
303.489
303.484
303.575
303.577
303.574
303.59
303.546
303.546
303.46
303.492
303.448
303.419
303.342
303.245
303.126
303.085
349.534
350.25
351.318
352.279
353.166
353.64
354.55
354.767
354.927
354.974
354.55
354.505
354.036
353.615
352.726
352.188
351.15
350.029
348.842
347.964
342.95
343.574
344.455
345.36
346.042
346.504
347.265
347.479
347.571
347.58
347.212
347.186
346.807
346.401
345.599
345.217
344.294
343.301
342.284
341.549
336.361
336.906
337.659
338.425
338.948
339.403
340.009
340.161
340.238
340.195
339.888
339.93
339.623
339.254
338.545
338.27
337.422
336.574
335.763
335.142
329.739
330.228
330.873
331.471
331.844
332.313
332.754
332.89
332.93
332.848
332.657
332.682
332.393
332.103
331.5
331.335
330.594
329.912
329.228
328.774
323.125
323.518
324.063
324.479
324.79
325.151
325.494
325.598
325.57
325.544
325.375
325.415
325.189
324.94
324.495
324.384
323.781
323.289
322.742
322.402
316.515
316.81
317.213
317.499
317.739
317.995
318.27
318.286
318.249
318.232
318.116
318.177
317.961
317.827
317.545
317.44
317.022
316.633
316.223
316.021
309.924
310.081
310.349
310.534
310.691
310.796
310.987
310.991
310.945
310.937
310.852
310.913
310.78
310.732
310.56
310.488
310.242
310.006
309.753
309.639
303.327
303.371
303.463
303.529
303.585
303.632
303.696
303.695
303.669
303.666
303.657
303.655
303.605
303.613
303.557
303.536
303.447
303.347
303.279
303.228
350.751
351.583
352.677
353.858
354.654
355.23
355.925
356.532
356.441
356.56
356.315
355.99
355.675
355.148
354.389
353.7
352.735
351.498
350.304
349.336
343.975
344.714
345.641
346.649
347.329
347.753
348.433
348.984
348.919
348.989
348.761
348.505
348.2
347.733
347.071
346.487
345.692
344.626
343.516
342.751
337.211
337.868
338.607
339.461
340.047
340.411
340.949
341.418
341.408
341.463
341.242
340.98
340.757
340.342
339.777
339.3
338.688
337.701
336.744
336.183
330.463
330.968
331.582
332.294
332.777
333.086
333.488
333.905
333.933
333.928
333.729
333.473
333.359
332.989
332.537
332.104
331.674
330.798
330.04
329.635
323.709
324.058
324.536
325.106
325.478
325.71
326.046
326.382
326.436
326.401
326.212
326.006
325.943
325.636
325.324
324.955
324.673
323.9
323.361
323.093
316.95
317.181
317.498
317.891
318.193
318.36
318.611
318.858
318.916
318.892
318.749
318.583
318.53
318.303
318.072
317.868
317.662
317.022
316.728
316.538
310.168
310.339
310.493
310.728
310.926
311.037
311.182
311.326
311.383
311.349
311.301
311.184
311.121
310.992
310.84
310.77
310.604
310.23
310.06
309.948
303.394
303.465
303.513
303.602
303.664
303.711
303.743
303.8
303.824
303.792
303.788
303.755
303.721
303.666
303.621
303.616
303.538
303.424
303.364
303.322
352.003
353.009
354.038
355.169
356.073
356.765
357.323
357.762
358.054
358.011
357.842
357.533
357.228
356.635
355.737
355.02
354.119
352.85
351.719
350.533
345.142
345.963
346.793
347.806
348.534
349.182
349.648
350.019
350.281
350.229
350.094
349.803
349.546
349.016
348.223
347.64
346.821
345.796
344.781
343.784
338.226
338.922
339.593
340.476
341.035
341.583
342.031
342.298
342.503
342.482
342.348
342.094
341.871
341.46
340.773
340.251
339.569
338.685
337.867
337.041
331.323
331.851
332.37
333.114
333.557
334.007
334.431
334.58
334.753
334.734
334.64
334.432
334.24
333.935
333.317
332.895
332.371
331.595
330.962
330.318
324.318
324.739
325.169
325.777
326.106
326.431
326.796
326.854
327.016
327.011
326.991
326.776
326.613
326.399
325.926
325.524
325.185
324.556
324.06
323.564
317.372
317.674
317.982
318.414
318.696
318.904
319.132
319.168
319.258
319.262
319.319
319.149
318.956
318.853
318.537
318.251
318.002
317.523
317.175
316.831
310.464
310.622
310.778
311.062
311.272
311.376
311.486
311.504
311.553
311.558
311.623
311.538
311.357
311.319
311.125
310.995
310.796
310.535
310.35
310.101
303.526
303.553
303.602
303.732
303.784
303.812
303.856
303.864
303.864
303.879
303.888
303.868
303.804
303.776
303.727
303.689
303.613
303.523
303.465
303.365
353.409
354.405
355.457
356.542
357.364
358.25
358.643
359.169
359.307
359.28
359.399
359.024
358.687
357.937
357.113
356.416
355.293
354.043
352.669
351.518
346.368
347.193
348.097
349.001
349.711
350.463
350.795
351.21
351.341
351.321
351.411
351.119
350.822
350.198
349.395
348.826
347.927
346.834
345.598
344.614
339.293
339.949
340.715
341.496
342.045
342.697
342.957
343.301
343.414
343.405
343.467
343.193
343.029
342.488
341.783
341.254
340.611
339.616
338.558
337.76
332.216
332.672
333.33
333.953
334.406
334.934
335.113
335.415
335.493
335.485
335.555
335.29
335.174
334.785
334.166
333.755
333.251
332.411
331.545
330.873
325.068
325.429
325.931
326.396
326.749
327.186
327.3
327.576
327.588
327.583
327.66
327.399
327.324
327.021
326.571
326.237
325.901
325.205
324.553
323.978
317.894
318.207
318.51
318.872
319.115
319.419
319.49
319.666
319.714
319.656
319.786
319.571
319.486
319.252
318.967
318.738
318.524
318.015
317.558
317.156
310.761
310.954
311.124
311.371
311.497
311.665
311.699
311.782
311.824
311.79
311.902
311.742
311.659
311.525
311.37
311.239
311.12
310.82
310.544
310.336
303.617
303.683
303.706
303.82
303.845
303.9
303.935
303.938
303.961
303.954
303.997
303.929
303.897
303.856
303.817
303.743
303.712
303.627
303.539
303.482
354.71
355.649
356.539
357.795
358.804
359.376
359.972
360.677
360.504
360.635
360.677
360.405
359.782
359.183
358.56
357.603
356.75
355.218
353.973
352.705
347.43
348.251
348.955
350.077
350.94
351.455
351.964
352.544
352.361
352.515
352.559
352.345
351.781
351.249
350.642
349.899
349.137
347.79
346.729
345.673
340.174
340.874
341.434
342.385
343.078
343.539
343.968
344.483
344.259
344.441
344.468
344.239
343.829
343.326
342.79
342.214
341.582
340.435
339.548
338.644
332.909
333.451
333.903
334.692
335.282
335.602
335.968
336.46
336.257
336.385
336.36
336.105
335.835
335.417
335.025
334.54
334.018
333.076
332.38
331.577
325.591
326.019
326.355
326.988
327.486
327.685
328.004
328.397
328.198
328.288
328.278
328.026
327.889
327.561
327.255
326.895
326.497
325.754
325.205
324.502
318.284
318.577
318.821
319.301
319.649
319.775
320.022
320.297
320.083
320.21
320.192
319.999
319.9
319.699
319.51
319.229
318.957
318.405
318.022
317.467
310.993
311.182
311.334
311.581
311.802
311.866
312.027
312.193
312.076
312.118
312.135
311.994
311.968
311.82
311.741
311.534
311.371
311.034
310.81
310.477
303.684
303.767
303.809
303.882
303.958
303.984
304.036
304.079
304.048
304.088
304.061
304.004
304.018
303.964
303.947
303.876
303.819
303.692
303.608
303.513
355.901
356.617
357.504
359.021
359.981
360.699
361.186
361.755
361.486
361.811
361.957
361.447
360.864
360.244
359.801
358.933
357.563
356.422
355.086
353.985
348.489
349.043
349.816
351.173
351.912
352.576
353.054
353.527
353.208
353.534
353.621
353.229
352.689
352.135
351.771
351.029
349.844
348.89
347.674
346.771
341.037
341.517
342.134
343.305
343.878
344.506
344.905
345.323
345.048
345.284
345.341
345.002
344.568
344.098
343.82
343.16
342.156
341.346
340.296
339.581
333.623
333.989
334.497
335.449
335.89
336.447
336.775
337.088
336.874
337.062
337.072
336.8
336.482
336.063
335.854
335.296
334.495
333.805
332.932
332.383
326.18
326.484
326.847
327.576
327.96
328.352
328.61
328.85
328.666
328.864
328.841
328.591
328.38
328.084
327.898
327.452
326.853
326.266
325.558
325.189
318.741
318.952
319.191
319.669
319.964
320.286
320.431
320.619
320.469
320.654
320.611
320.433
320.322
320.086
319.913
319.662
319.179
318.727
318.24
317.998
311.28
311.387
311.524
311.784
311.969
312.208
312.281
312.393
312.272
312.425
312.372
312.244
312.254
312.048
311.955
311.836
311.515
311.223
310.919
310.815
303.791
303.829
303.868
303.95
304.009
304.088
304.115
304.152
304.113
304.181
304.165
304.101
304.122
304.033
304.011
303.963
303.852
303.769
303.659
303.606
356.6
357.502
358.703
360.001
361.096
361.804
362.443
362.707
362.897
363.118
363.035
362.689
362.128
361.621
360.656
359.861
358.666
357.305
356.171
354.972
349.088
349.868
350.805
352.008
352.882
353.554
354.087
354.312
354.477
354.679
354.586
354.284
353.788
353.369
352.561
351.819
350.761
349.544
348.634
347.617
341.572
342.187
342.984
344.017
344.721
345.318
345.71
345.932
346.066
346.254
346.191
345.868
345.497
345.176
344.516
343.789
342.882
341.812
341.1
340.288
334.059
334.526
335.191
336.026
336.583
337.12
337.357
337.561
337.634
337.822
337.791
337.504
337.193
336.973
336.448
335.797
335.03
334.147
333.588
332.969
326.505
326.877
327.409
328.024
328.43
328.852
329.031
329.179
329.244
329.419
329.41
329.136
328.926
328.761
328.399
327.834
327.236
326.541
326.118
325.641
318.948
319.187
319.603
320.05
320.299
320.589
320.759
320.874
320.883
321.01
320.994
320.803
320.708
320.546
320.262
319.914
319.426
318.942
318.641
318.274
311.382
311.521
311.786
312.045
312.177
312.358
312.454
312.559
312.531
312.604
312.605
312.511
312.461
312.348
312.158
311.944
311.68
311.342
311.181
310.968
303.82
303.862
303.949
304.051
304.075
304.121
304.186
304.21
304.193
304.229
304.248
304.196
304.183
304.143
304.072
304.001
303.917
303.787
303.724
303.663
357.416
358.586
359.791
360.896
362.043
362.841
363.458
363.83
363.968
364.26
364.005
363.788
363.235
362.655
361.52
360.62
359.415
358.225
357.046
355.829
349.777
350.745
351.796
352.75
353.742
354.454
354.933
355.256
355.37
355.647
355.427
355.216
354.747
354.275
353.272
352.406
351.395
350.383
349.363
348.353
342.135
342.913
343.831
344.654
345.46
346.077
346.442
346.734
346.829
347.078
346.877
346.68
346.281
345.909
345.069
344.258
343.442
342.569
341.723
340.896
334.453
335.141
335.869
336.52
337.173
337.681
337.965
338.242
338.3
338.512
338.344
338.172
337.816
337.542
336.854
336.186
335.558
334.847
334.132
333.454
326.765
327.334
327.881
328.448
328.926
329.274
329.514
329.748
329.756
329.883
329.81
329.673
329.406
329.198
328.654
328.141
327.717
327.106
326.535
325.968
319.123
319.518
319.933
320.321
320.711
320.891
321.07
321.279
321.252
321.309
321.275
321.173
321.027
320.892
320.467
320.139
319.789
319.339
318.956
318.561
311.511
311.696
311.972
312.21
312.434
312.55
312.682
312.848
312.786
312.8
312.801
312.735
312.658
312.56
312.302
312.108
311.882
311.614
311.394
311.18
303.874
303.912
303.998
304.098
304.153
304.194
304.26
304.316
304.289
304.287
304.3
304.267
304.245
304.214
304.125
304.053
303.98
303.888
303.821
303.776
358.114
359.181
360.647
361.659
362.762
363.557
364.27
364.689
364.9
365.033
364.757
364.486
363.97
363.453
362.552
361.424
360.499
359.145
357.768
356.498
350.425
351.277
352.52
353.391
354.351
355.045
355.634
356.017
356.173
356.346
356.077
355.83
355.405
354.883
354.158
353.15
352.381
351.183
350.014
348.939
342.736
343.382
344.425
345.184
345.94
346.531
347.035
347.368
347.525
347.638
347.422
347.249
346.844
346.371
345.761
344.908
344.291
343.288
342.296
341.415
335.017
335.479
336.323
337.007
337.543
338.035
338.481
338.757
338.915
338.951
338.807
338.641
338.293
337.927
337.398
336.674
336.23
335.437
334.554
333.907
327.255
327.583
328.239
328.831
329.207
329.549
329.89
330.171
330.278
330.251
330.2
330.039
329.76
329.494
329.072
328.476
328.195
327.584
326.853
326.377
319.514
319.704
320.157
320.625
320.863
321.104
321.359
321.564
321.643
321.622
321.593
321.483
321.278
321.102
320.783
320.323
320.12
319.685
319.157
318.836
311.748
311.839
312.106
312.394
312.514
312.705
312.816
312.955
312.987
312.993
312.98
312.874
312.786
312.697
312.487
312.222
312.066
311.796
311.509
311.334
303.948
303.978
304.059
304.162
304.192
304.288
304.292
304.33
304.35
304.36
304.339
304.306
304.278
304.273
304.176
304.103
304.043
303.948
303.859
303.828
358.773
359.771
361.128
362.53
363.365
364.378
365.052
365.528
365.782
365.754
365.497
365.298
364.986
364.301
363.278
362.155
361.312
359.923
358.611
357.399
350.996
351.799
352.955
354.191
354.886
355.777
356.355
356.797
356.955
356.909
356.673
356.526
356.241
355.664
354.748
353.759
353.087
351.84
350.72
349.748
343.208
343.81
344.809
345.835
346.465
347.169
347.638
348.063
348.189
348.115
347.948
347.781
347.519
347.058
346.297
345.424
344.885
343.798
342.899
342.105
335.377
335.853
336.64
337.488
337.995
338.544
338.921
339.335
339.427
339.383
339.238
339.092
338.9
338.517
337.861
337.1
336.693
335.767
335.097
334.424
327.524
327.876
328.463
329.115
329.565
329.946
330.257
330.595
330.694
330.635
330.573
330.388
330.249
329.971
329.456
328.872
328.515
327.774
327.293
326.785
319.645
319.88
320.316
320.795
321.114
321.384
321.632
321.879
321.924
321.911
321.859
321.688
321.603
321.412
321.058
320.637
320.355
319.79
319.51
319.186
311.774
311.953
312.196
312.472
312.687
312.867
313.002
313.128
313.157
313.147
313.167
313.009
312.934
312.858
312.652
312.384
312.221
311.864
311.732
311.545
303.944
304.007
304.091
304.18
304.262
304.319
304.377
304.395
304.425
304.424
304.408
304.339
304.336
304.308
304.236
304.138
304.092
303.978
303.938
303.877
359.414
360.504
361.787
363.155
364.147
365.096
365.574
365.996
366.283
366.396
366.291
365.844
365.594
364.998
363.916
362.953
361.846
360.456
359.032
357.763
351.49
352.427
353.544
354.687
355.581
356.334
356.791
357.17
357.382
357.468
357.37
357
356.775
356.284
355.295
354.49
353.561
352.305
351.079
350.041
343.601
344.345
345.29
346.247
347.007
347.612
348.023
348.339
348.47
348.582
348.497
348.199
347.948
347.595
346.72
346.046
345.251
344.212
343.197
342.37
335.691
336.271
337.074
337.862
338.456
338.895
339.279
339.531
339.613
339.76
339.619
339.363
339.135
338.929
338.163
337.661
336.993
336.119
335.348
334.701
327.764
328.159
328.84
329.453
329.896
330.187
330.57
330.739
330.837
330.923
330.764
330.549
330.397
330.256
329.682
329.303
328.8
328.072
327.474
327.012
319.837
320.119
320.587
321.029
321.337
321.54
321.85
321.94
322.046
322.111
321.937
321.758
321.697
321.588
321.191
320.954
320.588
320.007
319.64
319.292
311.915
312.068
312.372
312.619
312.804
312.922
313.105
313.167
313.248
313.32
313.175
313.043
313.028
312.927
312.704
312.584
312.358
312.015
311.844
311.566
304.002
304.043
304.142
304.218
304.279
304.343
304.407
304.409
304.439
304.476
304.404
304.375
304.338
304.33
304.253
304.231
304.14
304.028
303.979
303.872
359.706
361.014
362.356
363.772
364.413
365.599
366.291
366.758
366.909
367.212
366.955
366.619
366.128
365.598
364.563
363.416
362.375
361.096
359.461
358.376
351.811
352.89
354.008
355.251
355.799
356.866
357.42
357.855
357.917
358.221
357.965
357.703
357.233
356.773
355.875
354.89
353.992
352.873
351.467
350.588
343.91
344.799
345.678
346.725
347.2
348.097
348.513
348.917
348.945
349.238
348.983
348.797
348.345
347.968
347.226
346.4
345.67
344.661
343.511
342.801
335.991
336.7
337.335
338.205
338.649
339.309
339.679
340.033
340.027
340.273
340.044
339.884
339.501
339.203
338.612
337.932
337.313
336.524
335.55
335.053
328.041
328.542
329.051
329.734
330.054
330.574
330.849
331.152
331.141
331.333
331.12
330.988
330.697
330.449
330.028
329.485
329.004
328.421
327.676
327.267
320.059
320.39
320.754
321.264
321.494
321.834
322.04
322.236
322.251
322.39
322.22
322.13
321.967
321.686
321.465
321.094
320.712
320.317
319.775
319.478
312.055
312.238
312.457
312.773
312.93
313.101
313.216
313.298
313.359
313.437
313.36
313.275
313.209
313.004
312.849
312.692
312.412
312.207
311.881
311.692
304.047
304.095
304.177
304.291
304.339
304.396
304.441
304.458
304.474
304.497
304.492
304.458
304.414
304.373
304.284
304.261
304.124
304.105
303.971
303.915
360.257
361.421
362.788
364.049
365.014
365.943
366.624
367.127
367.255
367.661
367.245
367.145
366.587
365.966
365.013
364.102
362.798
361.369
359.958
358.699
352.227
353.223
354.428
355.512
356.277
357.095
357.716
358.154
358.232
358.593
358.238
358.14
357.637
357.098
356.301
355.474
354.36
353.106
351.886
350.827
344.159
345.052
346.083
346.98
347.578
348.26
348.814
349.16
349.262
349.577
349.22
349.151
348.676
348.275
347.62
346.946
345.991
344.85
343.859
343.027
336.126
336.896
337.745
338.46
338.903
339.488
339.896
340.235
340.308
340.553
340.24
340.211
339.739
339.48
338.938
338.42
337.628
336.684
335.877
335.193
328.112
328.733
329.385
329.945
330.255
330.739
331.037
331.317
331.351
331.551
331.289
331.264
330.845
330.692
330.302
329.873
329.219
328.549
327.885
327.35
320.086
320.549
321.007
321.439
321.625
321.96
322.199
322.38
322.402
322.557
322.351
322.314
322.045
321.901
321.655
321.279
320.816
320.405
319.921
319.548
312.06
312.378
312.644
312.889
312.991
313.198
313.345
313.452
313.455
313.55
313.401
313.392
313.252
313.173
312.992
312.764
312.476
312.235
311.986
311.716
304.037
304.157
304.242
304.316
304.366
304.423
304.461
304.5
304.525
304.537
304.498
304.485
304.446
304.423
304.336
304.261
304.175
304.1
304.018
303.939
360.475
361.591
363.071
364.421
365.447
366.102
366.9
367.362
367.697
367.802
367.446
367.479
366.703
366.041
365.224
364.189
363.032
361.512
360.23
359.035
352.471
353.372
354.588
355.826
356.725
357.277
357.921
358.316
358.693
358.739
358.374
358.386
357.711
357.17
356.46
355.569
354.506
353.26
352.099
351.097
344.441
345.168
346.184
347.224
348.007
348.481
349.041
349.279
349.639
349.681
349.366
349.365
348.788
348.311
347.779
346.977
346.088
345.012
343.988
343.21
336.396
336.966
337.812
338.632
339.232
339.608
340.139
340.325
340.61
340.651
340.386
340.377
339.865
339.503
339.116
338.471
337.654
336.788
335.92
335.352
328.303
328.754
329.432
330.031
330.514
330.748
331.196
331.364
331.585
331.656
331.418
331.455
330.977
330.769
330.433
329.91
329.283
328.556
327.903
327.476
320.221
320.547
321.03
321.465
321.781
321.939
322.242
322.401
322.581
322.634
322.464
322.52
322.137
322.025
321.773
321.399
320.907
320.391
319.873
319.618
312.145
312.37
312.633
312.915
313.092
313.196
313.347
313.444
313.577
313.63
313.506
313.52
313.286
313.243
313.091
312.842
312.527
312.254
311.916
311.815
304.071
304.13
304.214
304.318
304.398
304.447
304.472
304.491
304.563
304.576
304.524
304.525
304.462
304.461
304.393
304.295
304.197
304.094
304.009
303.962
)
;

boundaryField
{
    hotSide
    {
        type            fixedGradient;
        gradient        nonuniform List<scalar> 
400
(
425.712
442.952
459.946
476.618
492.892
508.692
523.943
538.569
552.497
565.659
577.985
589.412
599.882
609.338
617.73
625.015
631.154
636.114
639.871
642.405
436.366
454.102
471.589
488.748
505.502
521.772
537.48
552.548
566.903
580.471
593.184
604.975
615.783
625.55
634.227
641.765
648.127
653.278
657.191
659.849
445.879
464.064
481.997
499.598
516.787
533.483
549.606
565.077
579.82
593.759
606.824
618.946
630.063
640.116
649.053
656.825
663.391
668.719
672.779
675.551
454.203
472.787
491.117
509.111
526.687
543.762
560.255
576.085
591.174
605.444
618.824
631.243
642.638
652.948
662.118
670.1
676.853
682.34
686.534
689.413
461.3
480.23
498.904
517.239
535.15
552.556
569.371
585.513
600.903
615.463
629.118
641.797
653.435
663.97
673.346
681.514
688.431
694.06
698.373
701.348
467.142
486.362
505.324
523.945
542.14
559.823
576.909
593.315
608.96
623.764
637.652
650.552
662.396
673.123
682.675
691.002
698.06
703.812
708.228
711.287
471.708
491.159
510.353
529.204
547.626
565.532
582.837
599.456
615.307
630.309
644.386
657.465
669.478
680.36
690.056
698.513
705.688
711.542
716.045
719.175
474.984
494.608
513.975
532.998
551.589
569.663
587.133
603.912
619.918
635.07
649.29
662.505
674.646
685.648
695.455
704.013
711.278
717.211
721.783
724.969
476.964
496.701
516.18
535.315
554.019
572.203
589.781
606.667
622.777
638.029
652.346
665.652
677.88
688.965
698.847
707.475
714.803
720.794
725.415
728.643
477.647
497.435
516.967
536.155
554.911
573.148
590.778
607.716
623.877
639.179
653.544
666.898
679.171
690.298
700.222
708.888
716.252
722.275
726.926
730.181
477.038
496.817
516.339
535.519
554.269
572.5
590.126
607.061
623.219
638.521
652.886
666.242
678.518
689.65
699.578
708.251
715.623
721.655
726.315
729.581
475.147
494.854
514.307
533.419
552.103
570.27
587.835
604.712
620.815
636.065
650.383
663.696
675.932
687.029
696.927
705.574
712.925
718.941
723.591
726.852
471.987
491.563
510.886
529.87
548.429
566.476
583.923
600.687
616.683
631.832
646.054
659.278
671.433
682.456
692.288
700.878
708.18
714.156
718.776
722.015
467.579
486.963
506.097
524.895
543.271
561.139
578.415
595.012
610.849
625.847
639.927
653.017
665.05
675.961
685.692
694.194
701.42
707.332
711.901
715.103
461.944
481.079
499.965
518.52
536.657
554.292
571.341
587.72
603.348
618.146
632.038
644.953
656.822
667.584
677.181
685.563
692.686
698.512
703.012
706.162
455.111
473.94
492.524
510.779
528.623
545.971
562.742
578.852
594.222
608.774
622.434
635.131
646.799
657.375
666.806
675.04
682.034
687.751
692.163
695.246
447.116
465.584
483.811
501.714
519.212
536.222
552.664
568.457
583.523
597.785
611.17
623.61
635.039
645.397
654.629
662.687
669.528
675.116
679.423
682.426
437.996
456.053
473.872
491.372
508.474
525.098
541.164
556.594
571.311
585.241
598.312
610.457
621.612
631.719
640.724
648.58
655.246
660.685
664.871
667.782
427.801
445.397
462.759
479.809
496.469
512.66
528.306
543.33
557.657
571.215
583.935
595.75
606.6
616.426
625.177
632.807
639.276
644.549
648.599
651.407
416.582
433.673
450.534
467.089
483.263
498.98
514.164
528.742
542.642
555.792
568.126
579.58
590.093
599.612
608.084
615.467
621.72
626.81
630.713
633.407
)
;
    }
    coldSide
    {
        type            mixed;
        refValue        uniform 300;
        refGradient     uniform 0;
        valueFraction   uniform 0.991591;
        source          uniform 0;
        value           nonuniform List<scalar> 
400
(
300.024
300.024
300.025
300.025
300.026
300.027
300.028
300.029
300.03
300.03
300.031
300.032
300.032
300.033
300.033
300.033
300.034
300.034
300.034
300.034
300.024
300.024
300.025
300.026
300.027
300.028
300.028
300.029
300.03
300.031
300.032
300.032
300.032
300.033
300.033
300.034
300.034
300.034
300.035
300.035