/*--------------------------------*- C++ -*----------------------------------*\
| =========                 |                                                 |
| \\      /  F ield         | OpenFOAM: The Open Source CFD Toolbox           |
|  \\    /   O peration     | Version:  2212                                  |
|   \\  /    A nd           | Website:  www.openfoam.com                      |
|    \\/     M anipulation  |                                                 |
\*---------------------------------------------------------------------------*/
FoamFile
{
    version     2.0;
    format      ascii;
    arch        "LSB;label=32;scalar=64";
    class       volScalarField;
    location    "0";
    object      Tdirect;
}
// * * * * * * * * * * * * * * * * * * * * * * * * * * * * * * * * * * * * * //

dimensions      [0 0 0 1 0 0 0];

internalField   nonuniform List<scalar> 
3200
(
342.49
342.993
343.636
344.337
345.059
345.767
346.421
346.973
347.375
347.587
347.587
347.375
346.973
346.421
345.767
345.059
344.337
343.636
342.993
342.49
336.929
337.356
337.91
338.516
339.141
339.753
340.319
340.796
341.143
341.326
341.326
341.143
340.796
340.319
339.753
339.141
338.516
337.91
337.356
336.929
331.325
331.678
332.146
332.658
333.186
333.703
334.18
334.583
334.876
335.031
335.031
334.876
334.583
334.18
333.703
333.186
332.658
332.146
331.678
331.325
325.684
325.968
326.349
326.768
327.199
327.622
328.012
328.34
328.58
328.706
328.706
328.58
328.34
328.012
327.622
327.199
326.768
326.349
325.968
325.684
320.012
320.231
320.526
320.852
321.187
321.516
321.818
322.074
322.259
322.357
322.357
322.259
322.074
321.818
321.516
321.187
320.852
320.526
320.231
320.012
314.318
314.473
314.683
314.916
315.155
315.39
315.606
315.788
315.92
315.99
315.99
315.92
315.788
315.606
315.39
315.155
314.916
314.683
314.473
314.318
308.607
308.699
308.826
308.965
309.109
309.25
309.38
309.489
309.568
309.61
309.61
309.568
309.489
309.38
309.25
309.109
308.965
308.826
308.699
308.607
302.886
302.917
302.959
303.006
303.054
303.102
303.145
303.182
303.208
303.222
303.222
303.208
303.182
303.145
303.102
303.054
303.006
302.959
302.917
302.886
342.64
343.139
343.777
344.471
345.185
345.886
346.532
347.077
347.474
347.683
347.683
347.474
347.077
346.532
345.886
345.185
344.471
343.777
343.139
342.64
337.059
337.482
338.032
338.632
339.251
339.857
340.415
340.886
341.229
341.41
341.41
341.229
340.886
340.415
339.857
339.251
338.632
338.032
337.482
337.059
331.435
331.786
332.249
332.756
333.279
333.791
334.263
334.66
334.949
335.102
335.102
334.949
334.66
334.263
333.791
333.279
332.756
332.249
331.786
331.435
325.774
326.056
326.434
326.848
327.276
327.694
328.079
328.404
328.64
328.764
328.764
328.64
328.404
328.079
327.694
327.276
326.848
326.434
326.056
325.774
320.083
320.3
320.592
320.915
321.247
321.572
321.871
322.123
322.306
322.403
322.403
322.306
322.123
321.871
321.572
321.247
320.915
320.592
320.3
320.083
314.368
314.522
314.731
314.961
315.198
315.43
315.644
315.823
315.954
316.023
316.023
315.954
315.823
315.644
315.43
315.198
314.961
314.731
314.522
314.368
308.637
308.729
308.854
308.992
309.135
309.274
309.402
309.51
309.589
309.63
309.63
309.589
309.51
309.402
309.274
309.135
308.992
308.854
308.729
308.637
302.896
302.927
302.969
303.015
303.063
303.11
303.153
303.189
303.215
303.229
303.229
303.215
303.189
303.153
303.11
303.063
303.015
302.969
302.927
302.896
342.94
343.432
344.058
344.739
345.439
346.125
346.756
347.288
347.674
347.879
347.879
347.674
347.288
346.756
346.125
345.439
344.739
344.058
343.432
342.94
337.32
337.736
338.276
338.866
339.472
340.065
340.61
341.07
341.404
341.58
341.58
341.404
341.07
340.61
340.065
339.472
338.866
338.276
337.736
337.32
331.656
332.001
332.456
332.954
333.466
333.967
334.428
334.816
335.098
335.247
335.247
335.098
334.816
334.428
333.967
333.466
332.954
332.456
332.001
331.656
325.955
326.233
326.604
327.011
327.429
327.839
328.215
328.532
328.762
328.884
328.884
328.762
328.532
328.215
327.839
327.429
327.011
326.604
326.233
325.955
320.224
320.437
320.725
321.041
321.367
321.685
321.977
322.223
322.402
322.496
322.496
322.402
322.223
321.977
321.685
321.367
321.041
320.725
320.437
320.224
314.469
314.62
314.825
315.051
315.284
315.511
315.72
315.895
316.023
316.09
316.09
316.023
315.895
315.72
315.511
315.284
315.051
314.825
314.62
314.469
308.698
308.788
308.911
309.047
309.186
309.323
309.448
309.553
309.63
309.67
309.67
309.63
309.553
309.448
309.323
309.186
309.047
308.911
308.788
308.698
302.917
302.947
302.988
303.034
303.08
303.126
303.168
303.203
303.229
303.242
303.242
303.229
303.203
303.168
303.126
303.08
303.034
302.988
302.947
302.917
343.391
343.872
344.482
345.145
345.824
346.488
347.097
347.61
347.982
348.179
348.179
347.982
347.61
347.097
346.488
345.824
345.145
344.482
343.872
343.391
337.712
338.118
338.645
339.219
339.806
340.381
340.908
341.351
341.673
341.842
341.842
341.673
341.351
340.908
340.381
339.806
339.219
338.645
338.118
337.712
331.988
332.325
332.769
333.254
333.751
334.236
334.681
335.055
335.326
335.47
335.47
335.326
335.055
334.681
334.236
333.751
333.254
332.769
332.325
331.988
326.227
326.498
326.86
327.256
327.662
328.059
328.423
328.728
328.95
329.067
329.067
328.95
328.728
328.423
328.059
327.662
327.256
326.86
326.498
326.227
320.436
320.644
320.925
321.232
321.548
321.856
322.139
322.376
322.548
322.639
322.639
322.548
322.376
322.139
321.856
321.548
321.232
320.925
320.644
320.436
314.621
314.768
314.968
315.188
315.414
315.634
315.835
316.005
316.128
316.192
316.192
316.128
316.005
315.835
315.634
315.414
315.188
314.968
314.768
314.621
308.789
308.877
308.997
309.129
309.264
309.397
309.518
309.619
309.693
309.732
309.732
309.693
309.619
309.518
309.397
309.264
309.129
308.997
308.877
308.789
302.947
302.977
303.017
303.061
303.107
303.151
303.191
303.225
303.25
303.263
303.263
303.25
303.225
303.191
303.151
303.107
303.061
303.017
302.977
302.947
343.996
344.461
345.052
345.691
346.344
346.98
347.562
348.051
348.405
348.592
348.592
348.405
348.051
347.562
346.98
346.344
345.691
345.052
344.461
343.996
338.237
338.631
339.14
339.693
340.258
340.809
341.313
341.735
342.041
342.202
342.202
342.041
341.735
341.313
340.809
340.258
339.693
339.14
338.631
338.237
332.433
332.76
333.189
333.656
334.134
334.599
335.025
335.382
335.64
335.776
335.776
335.64
335.382
335.025
334.599
334.134
333.656
333.189
332.76
332.433
326.591
326.854
327.204
327.586
327.977
328.357
328.705
328.996
329.207
329.318
329.318
329.207
328.996
328.705
328.357
327.977
327.586
327.204
326.854
326.591
320.719
320.921
321.193
321.49
321.793
322.089
322.359
322.585
322.749
322.836
322.836
322.749
322.585
322.359
322.089
321.793
321.49
321.193
320.921
320.719
314.824
314.967
315.16
315.372
315.589
315.8
315.993
316.155
316.272
316.333
316.333
316.272
316.155
315.993
315.8
315.589
315.372
315.16
314.967
314.824
308.911
308.996
309.112
309.24
309.37
309.497
309.612
309.709
309.78
309.817
309.817
309.78
309.709
309.612
309.497
309.37
309.24
309.112
308.996
308.911
302.988
303.017
303.056
303.098
303.142
303.184
303.223
303.256
303.279
303.292
303.292
303.279
303.256
303.223
303.184
303.142
303.098
303.056
303.017
302.988
344.755
345.203
345.77
346.381
347.003
347.607
348.158
348.619
348.952
349.128
349.128
348.952
348.619
348.158
347.607
347.003
346.381
345.77
345.203
344.755
338.896
339.275
339.764
340.293
340.831
341.354
341.831
342.23
342.518
342.669
342.669
342.518
342.23
341.831
341.354
340.831
340.293
339.764
339.275
338.896
332.991
333.306
333.718
334.165
334.62
335.062
335.465
335.802
336.045
336.173
336.173
336.045
335.802
335.465
335.062
334.62
334.165
333.718
333.306
332.991
327.049
327.302
327.638
328.003
328.376
328.737
329.066
329.341
329.54
329.644
329.644
329.54
329.341
329.066
328.737
328.376
328.003
327.638
327.302
327.049
321.076
321.27
321.531
321.815
322.104
322.385
322.641
322.855
323.009
323.09
323.09
323.009
322.855
322.641
322.385
322.104
321.815
321.531
321.27
321.076
315.078
315.216
315.402
315.605
315.811
316.012
316.195
316.347
316.457
316.515
316.515
316.457
316.347
316.195
316.012
315.811
315.605
315.402
315.216
315.078
309.064
309.146
309.258
309.379
309.504
309.624
309.734
309.825
309.891
309.926
309.926
309.891
309.825
309.734
309.624
309.504
309.379
309.258
309.146
309.064
303.04
303.067
303.104
303.145
303.187
303.227
303.264
303.295
303.317
303.328
303.328
303.317
303.295
303.264
303.227
303.187
303.145
303.104
303.067
303.04
345.671
346.099
346.639
347.219
347.807
348.375
348.892
349.323
349.634
349.797
349.797
349.634
349.323
348.892
348.375
347.807
347.219
346.639
346.099
345.671
339.691
340.053
340.519
341.021
341.531
342.023
342.47
342.842
343.111
343.252
343.252
343.111
342.842
342.47
342.023
341.531
341.021
340.519
340.053
339.691
333.665
333.966
334.358
334.783
335.213
335.629
336.007
336.322
336.549
336.668
336.668
336.549
336.322
336.007
335.629
335.213
334.783
334.358
333.966
333.665
327.601
327.843
328.163
328.51
328.862
329.202
329.511
329.768
329.954
330.051
330.051
329.954
329.768
329.511
329.202
328.862
328.51
328.163
327.843
327.601
321.506
321.691
321.94
322.209
322.483
322.748
322.988
323.188
323.332
323.407
323.407
323.332
323.188
322.988
322.748
322.483
322.209
321.94
321.691
321.506
315.386
315.517
315.694
315.887
316.083
316.271
316.443
316.586
316.688
316.742
316.742
316.688
316.586
316.443
316.271
316.083
315.887
315.694
315.517
315.386
309.249
309.327
309.434
309.549
309.667
309.78
309.883
309.969
310.03
310.063
310.063
310.03
309.969
309.883
309.78
309.667
309.549
309.434
309.327
309.249
303.102
303.128
303.163
303.202
303.241
303.279
303.314
303.343
303.363
303.374
303.374
303.363
303.343
303.314
303.279
303.241
303.202
303.163
303.128
303.102
346.746
347.152
347.664
348.21
348.762
349.293
349.773
350.172
350.459
350.609
350.609
350.459
350.172
349.773
349.293
348.762
348.21
347.664
347.152
346.746
340.624
340.968
341.41
341.883
342.361
342.82
343.236
343.581
343.829
343.959
343.959
343.829
343.581
343.236
342.82
342.361
341.883
341.41
340.968
340.624
334.456
334.742
335.113
335.513
335.918
336.306
336.658
336.949
337.159
337.269
337.269
337.159
336.949
336.658
336.306
335.918
335.513
335.113
334.742
334.456
328.249
328.479
328.782
329.109
329.44
329.757
330.045
330.283
330.455
330.544
330.544
330.455
330.283
330.045
329.757
329.44
329.109
328.782
328.479
328.249
322.01
322.187
322.422
322.676
322.933
323.18
323.404
323.589
323.722
323.792
323.792
323.722
323.589
323.404
323.18
322.933
322.676
322.422
322.187
322.01
315.747
315.872
316.039
316.221
316.405
316.581
316.741
316.873
316.968
317.018
317.018
316.968
316.873
316.741
316.581
316.405
316.221
316.039
315.872
315.747
309.466
309.54
309.641
309.75
309.86
309.966
310.062
310.141
310.199
310.228
310.228
310.199
310.141
310.062
309.966
309.86
309.75
309.641
309.54
309.466
303.174
303.199
303.233
303.269
303.306
303.342
303.374
303.401
303.42
303.43
303.43
303.42
303.401
303.374
303.342
303.306
303.269
303.233
303.199
303.174
347.982
348.366
348.847
349.359
349.873
350.365
350.809
351.176
351.438
351.576
351.576
351.438
351.176
350.809
350.365
349.873
349.359
348.847
348.366
347.982
341.698
342.023
342.438
342.881
343.326
343.752
344.136
344.454
344.681
344.8
344.8
344.681
344.454
344.136
343.752
343.326
342.881
342.438
342.023
341.698
335.366
335.636
335.986
336.36
336.737
337.097
337.422
337.69
337.882
337.983
337.983
337.882
337.69
337.422
337.097
336.737
336.36
335.986
335.636
335.366
328.995
329.212
329.497
329.803
330.111
330.406
330.672
330.891
331.048
331.13
331.13
331.048
330.891
330.672
330.406
330.111
329.803
329.497
329.212
328.995
322.591
322.758
322.979
323.217
323.457
323.686
323.892
324.063
324.185
324.249
324.249
324.185
324.063
323.892
323.686
323.457
323.217
322.979
322.758
322.591
316.162
316.28
316.438
316.608
316.779
316.943
317.09
317.212
317.299
317.345
317.345
317.299
317.212
317.09
316.943
316.779
316.608
316.438
316.28
316.162
309.715
309.786
309.88
309.982
310.085
310.184
310.272
310.345
310.398
310.425
310.425
310.398
310.345
310.272
310.184
310.085
309.982
309.88
309.786
309.715
303.258
303.281
303.313
303.347
303.382
303.415
303.444
303.469
303.487
303.496
303.496
303.487
303.469
303.444
303.415
303.382
303.347
303.313
303.281
303.258
349.382
349.743
350.193
350.67
351.146
351.599
352.006
352.341
352.58
352.705
352.705
352.58
352.341
352.006
351.599
351.146
350.67
350.193
349.743
349.382
342.913
343.219
343.607
344.02
344.432
344.825
345.177
345.467
345.675
345.783
345.783
345.675
345.467
345.177
344.825
344.432
344.02
343.607
343.219
342.913
336.396
336.65
336.977
337.326
337.675
338.007
338.305
338.55
338.725
338.817
338.817
338.725
338.55
338.305
338.007
337.675
337.326
336.977
336.65
336.396
329.839
330.043
330.31
330.595
330.88
331.152
331.396
331.596
331.74
331.814
331.814
331.74
331.596
331.396
331.152
330.88
330.595
330.31
330.043
329.839
323.248
323.405
323.612
323.834
324.056
324.267
324.457
324.613
324.724
324.782
324.782
324.724
324.613
324.457
324.267
324.056
323.834
323.612
323.405
323.248
316.632
316.743
316.891
317.049
317.208
317.359
317.494
317.605
317.685
317.726
317.726
317.685
317.605
317.494
317.359
317.208
317.049
316.891
316.743
316.632
309.998
310.064
310.153
310.248
310.343
310.434
310.515
310.582
310.63
310.655
310.655
310.63
310.582
310.515
310.434
310.343
310.248
310.153
310.064
309.998
303.353
303.375
303.404
303.436
303.468
303.499
303.526
303.548
303.564
303.573
303.573
303.564
303.548
303.526
303.499
303.468
303.436
303.404
303.375
303.353
350.948
351.286
351.705
352.146
352.585
353
353.371
353.676
353.892
354.005
354.005
353.892
353.676
353.371
353
352.585
352.146
351.705
351.286
350.948
344.273
344.559
344.921
345.303
345.683
346.043
346.364
346.628
346.815
346.913
346.913
346.815
346.628
346.364
346.043
345.683
345.303
344.921
344.559
344.273
337.549
337.786
338.091
338.414
338.735
339.04
339.312
339.535
339.693
339.776
339.776
339.693
339.535
339.312
339.04
338.735
338.414
338.091
337.786
337.549
330.783
330.974
331.223
331.487
331.75
331.999
332.221
332.404
332.533
332.601
332.601
332.533
332.404
332.221
331.999
331.75
331.487
331.223
330.974
330.783
323.984
324.13
324.323
324.529
324.733
324.927
325.1
325.242
325.343
325.395
325.395
325.343
325.242
325.1
324.927
324.733
324.529
324.323
324.13
323.984
317.158
317.262
317.399
317.546
317.692
317.831
317.954
318.056
318.128
318.165
318.165
318.128
318.056
317.954
317.831
317.692
317.546
317.399
317.262
317.158
310.314
310.376
310.458
310.546
310.634
310.717
310.792
310.852
310.896
310.918
310.918
310.896
310.852
310.792
310.717
310.634
310.546
310.458
310.376
310.314
303.459
303.479
303.507
303.536
303.566
303.594
303.619
303.639
303.654
303.661
303.661
303.654
303.639
303.619
303.594
303.566
303.536
303.507
303.479
303.459
352.682
352.997
353.385
353.792
354.194
354.573
354.91
355.185
355.38
355.482
355.482
355.38
355.185
354.91
354.573
354.194
353.792
353.385
352.997
352.682
345.779
346.045
346.38
346.733
347.081
347.41
347.701
347.94
348.109
348.197
348.197
348.109
347.94
347.701
347.41
347.081
346.733
346.38
346.045
345.779
338.825
339.046
339.328
339.626
339.921
340.199
340.446
340.648
340.791
340.865
340.865
340.791
340.648
340.446
340.199
339.921
339.626
339.328
339.046
338.825
331.829
332.007
332.237
332.481
332.722
332.949
333.151
333.316
333.433
333.494
333.494
333.433
333.316
333.151
332.949
332.722
332.481
332.237
332.007
331.829
324.798
324.935
325.113
325.303
325.491
325.667
325.825
325.953
326.044
326.091
326.091
326.044
325.953
325.825
325.667
325.491
325.303
325.113
324.935
324.798
317.741
317.837
317.965
318.1
318.234
318.361
318.473
318.564
318.629
318.663
318.663
318.629
318.564
318.473
318.361
318.234
318.1
317.965
317.837
317.741
310.664
310.722
310.798
310.879
310.96
311.036
311.103
311.158
311.197
311.218
311.218
311.197
311.158
311.103
311.036
310.96
310.879
310.798
310.722
310.664
303.576
303.595
303.621
303.648
303.675
303.701
303.723
303.742
303.755
303.761
303.761
303.755
303.742
303.723
303.701
303.675
303.648
303.621
303.595
303.576
354.586
354.878
355.236
355.61
355.977
356.322
356.626
356.874
357.049
357.14
357.14
357.049
356.874
356.626
356.322
355.977
355.61
355.236
354.878
354.586
347.432
347.678
347.988
348.312
348.63
348.929
349.193
349.407
349.559
349.638
349.638
349.559
349.407
349.193
348.929
348.63
348.312
347.988
347.678
347.432
340.226
340.43
340.691
340.965
341.235
341.487
341.711
341.892
342.021
342.087
342.087
342.021
341.892
341.711
341.487
341.235
340.965
340.691
340.43
340.226
332.977
333.141
333.354
333.578
333.798
334.005
334.188
334.336
334.442
334.496
334.496
334.442
334.336
334.188
334.005
333.798
333.578
333.354
333.141
332.977
325.692
325.818
325.983
326.157
326.329
326.49
326.632
326.748
326.829
326.872
326.872
326.829
326.748
326.632
326.49
326.329
326.157
325.983
325.818
325.692
318.38
318.469
318.587
318.711
318.834
318.949
319.05
319.133
319.191
319.222
319.222
319.191
319.133
319.05
318.949
318.834
318.711
318.587
318.469
318.38
311.048
311.102
311.172
311.247
311.32
311.39
311.451
311.5
311.535
311.553
311.553
311.535
311.5
311.451
311.39
311.32
311.247
311.172
311.102
311.048
303.705
303.723
303.746
303.771
303.796
303.819
303.84
303.856
303.868
303.874
303.874
303.868
303.856
303.84
303.819
303.796
303.771
303.746
303.723
303.705
356.658
356.928
357.258
357.6
357.935
358.247
358.521
358.744
358.901
358.982
358.982
358.901
358.744
358.521
358.247
357.935
357.6
357.258
356.928
356.658
349.231
349.459
349.744
350.04
350.33
350.601
350.839
351.032
351.168
351.238
351.238
351.168
351.032
350.839
350.601
350.33
350.04
349.744
349.459
349.231
341.75
341.94
342.18
342.431
342.676
342.905
343.106
343.269
343.385
343.444
343.444
343.385
343.269
343.106
342.905
342.676
342.431
342.18
341.94
341.75
334.226
334.378
334.574
334.779
334.98
335.167
335.332
335.465
335.56
335.608
335.608
335.56
335.465
335.332
335.167
334.98
334.779
334.574
334.378
334.226
326.664
326.781
326.933
327.093
327.249
327.395
327.523
327.627
327.7
327.738
327.738
327.7
327.627
327.523
327.395
327.249
327.093
326.933
326.781
326.664
319.075
319.158
319.266
319.38
319.492
319.596
319.688
319.762
319.814
319.842
319.842
319.814
319.762
319.688
319.596
319.492
319.38
319.266
319.158
319.075
311.466
311.515
311.58
311.649
311.716
311.779
311.834
311.878
311.91
311.926
311.926
311.91
311.878
311.834
311.779
311.716
311.649
311.58
311.515
311.466
303.845
303.861
303.883
303.906
303.929
303.95
303.968
303.983
303.994
303.999
303.999
303.994
303.983
303.968
303.95
303.929
303.906
303.883
303.861
303.845
358.897
359.145
359.449
359.761
360.065
360.347
360.594
360.793
360.933
361.006
361.006
360.933
360.793
360.594
360.347
360.065
359.761
359.449
359.145
358.897
351.173
351.384
351.645
351.916
352.18
352.424
352.638
352.811
352.933
352.995
352.995
352.933
352.811
352.638
352.424
352.18
351.916
351.645
351.384
351.173
343.396
343.571
343.791
344.02
344.243
344.45
344.631
344.778
344.881
344.934
344.934
344.881
344.778
344.631
344.45
344.243
344.02
343.791
343.571
343.396
335.574
335.714
335.894
336.081
336.264
336.433
336.581
336.701
336.785
336.829
336.829
336.785
336.701
336.581
336.433
336.264
336.081
335.894
335.714
335.574
327.714
327.822
327.961
328.107
328.249
328.381
328.496
328.589
328.655
328.689
328.689
328.655
328.589
328.496
328.381
328.249
328.107
327.961
327.822
327.714
319.826
319.902
320.001
320.105
320.207
320.301
320.384
320.45
320.497
320.521
320.521
320.497
320.45
320.384
320.301
320.207
320.105
320.001
319.902
319.826
311.917
311.962
312.022
312.085
312.146
312.202
312.252
312.292
312.32
312.334
312.334
312.32
312.292
312.252
312.202
312.146
312.085
312.022
311.962
311.917
303.996
304.011
304.031
304.052
304.073
304.092
304.108
304.122
304.131
304.136
304.136
304.131
304.122
304.108
304.092
304.073
304.052
304.031
304.011
303.996
361.291
361.521
361.798
362.083
362.359
362.613
362.835
363.013
363.138
363.203
363.203
363.138
363.013
362.835
362.613
362.359
362.083
361.798
361.521
361.291
353.25
353.444
353.684
353.931
354.17
354.39
354.583
354.737
354.846
354.902
354.902
354.846
354.737
354.583
354.39
354.17
353.931
353.684
353.444
353.25
345.154
345.315
345.517
345.726
345.928
346.115
346.278
346.409
346.501
346.548
346.548
346.501
346.409
346.278
346.115
345.928
345.726
345.517
345.315
345.154
337.013
337.142
337.307
337.477
337.643
337.796
337.929
338.037
338.112
338.15
338.15
338.112
338.037
337.929
337.796
337.643
337.477
337.307
337.142
337.013
328.834
328.933
329.061
329.194
329.323
329.442
329.545
329.629
329.687
329.717
329.717
329.687
329.629
329.545
329.442
329.323
329.194
329.061
328.933
328.834
320.626
320.696
320.787
320.882
320.974
321.059
321.134
321.193
321.235
321.257
321.257
321.235
321.193
321.134
321.059
320.974
320.882
320.787
320.696
320.626
312.398
312.44
312.494
312.551
312.607
312.658
312.702
312.738
312.763
312.776
312.776
312.763
312.738
312.702
312.658
312.607
312.551
312.494
312.44
312.398
304.157
304.171
304.19
304.209
304.227
304.244
304.259
304.271
304.28
304.284
304.284
304.28
304.271
304.259
304.244
304.227
304.209
304.19
304.171
304.157
363.816
364.027
364.281
364.541
364.79
365.02
365.219
365.379
365.49
365.548
365.548
365.49
365.379
365.219
365.02
364.79
364.541
364.281
364.027
363.816
355.436
355.614
355.833
356.058
356.275
356.474
356.647
356.785
356.882
356.932
356.932
356.882
356.785
356.647
356.474
356.275
356.058
355.833
355.614
355.436
347.001
347.149
347.334
347.524
347.708
347.876
348.023
348.14
348.222
348.264
348.264
348.222
348.14
348.023
347.876
347.708
347.524
347.334
347.149
347.001
338.522
338.641
338.792
338.948
339.098
339.236
339.356
339.452
339.519
339.554
339.554
339.519
339.452
339.356
339.236
339.098
338.948
338.792
338.641
338.522
330.007
330.098
330.215
330.336
330.453
330.561
330.654
330.729
330.781
330.808
330.808
330.781
330.729
330.654
330.561
330.453
330.336
330.215
330.098
330.007
321.464
321.528
321.612
321.698
321.782
321.859
321.925
321.979
322.016
322.035
322.035
322.016
321.979
321.925
321.859
321.782
321.698
321.612
321.528
321.464
312.901
312.939
312.989
313.041
313.091
313.138
313.178
313.21
313.232
313.244
313.244
313.232
313.21
313.178
313.138
313.091
313.041
312.989
312.939
312.901
304.326
304.339
304.355
304.373
304.39
304.405
304.419
304.429
304.437
304.441
304.441
304.437
304.429
304.419
304.405
304.39
304.373
304.355
304.339
304.326
366.404
366.598
366.831
367.067
367.294
367.502
367.681
367.824
367.924
367.976
367.976
367.924
367.824
367.681
367.502
367.294
367.067
366.831
366.598
366.404
357.665
357.829
358.03
358.235
358.432
358.612
358.768
358.892
358.979
359.024
359.024
358.979
358.892
358.768
358.612
358.432
358.235
358.03
357.829
357.665
348.878
349.013
349.183
349.357
349.524
349.676
349.808
349.914
349.987
350.025
350.025
349.987
349.914
349.808
349.676
349.524
349.357
349.183
349.013
348.878
340.05
340.16
340.298
340.44
340.577
340.702
340.81
340.896
340.957
340.988
340.988
340.957
340.896
340.81
340.702
340.577
340.44
340.298
340.16
340.05
331.191
331.275
331.382
331.493
331.599
331.697
331.781
331.848
331.895
331.919
331.919
331.895
331.848
331.781
331.697
331.599
331.493
331.382
331.275
331.191
322.307
322.367
322.443
322.522
322.598
322.668
322.728
322.776
322.81
322.827
322.827
322.81
322.776
322.728
322.668
322.598
322.522
322.443
322.367
322.307
313.406
313.442
313.488
313.535
313.581
313.623
313.659
313.688
313.708
313.718
313.718
313.708
313.688
313.659
313.623
313.581
313.535
313.488
313.442
313.406
304.495
304.507
304.522
304.538
304.554
304.568
304.58
304.589
304.596
304.6
304.6
304.596
304.589
304.58
304.568
304.554
304.538
304.522
304.507
304.495
368.886
369.065
369.28
369.498
369.705
369.894
370.057
370.187
370.277
370.323
370.323
370.277
370.187
370.057
369.894
369.705
369.498
369.28
369.065
368.886
359.778
359.929
360.115
360.304
360.484
360.649
360.79
360.903
360.981
361.022
361.022
360.981
360.903
360.79
360.649
360.484
360.304
360.115
359.929
359.778
350.636
350.762
350.919
351.079
351.232
351.372
351.492
351.588
351.654
351.688
351.688
351.654
351.588
351.492
351.372
351.232
351.079
350.919
350.762
350.636
341.469
341.571
341.699
341.83
341.956
342.07
342.169
342.247
342.302
342.33
342.33
342.302
342.247
342.169
342.07
341.956
341.83
341.699
341.571
341.469
332.282
332.36
332.46
332.562
332.66
332.749
332.826
332.887
332.929
332.951
332.951
332.929
332.887
332.826
332.749
332.66
332.562
332.46
332.36
332.282
323.08
323.136
323.207
323.28
323.35
323.413
323.468
323.512
323.543
323.558
323.558
323.543
323.512
323.468
323.413
323.35
323.28
323.207
323.136
323.08
313.868
313.901
313.944
313.987
314.03
314.068
314.101
314.127
314.146
314.155
314.155
314.146
314.127
314.101
314.068
314.03
313.987
313.944
313.901
313.868
304.649
304.66
304.675
304.689
304.704
304.716
304.727
304.736
304.742
304.746
304.746
304.742
304.736
304.727
304.716
304.704
304.689
304.675
304.66
304.649
370.825
370.993
371.195
371.399
371.593
371.77
371.921
372.041
372.125
372.168
372.168
372.125
372.041
371.921
371.77
371.593
371.399
371.195
370.993
370.825
361.365
361.508
361.683
361.861
362.03
362.184
362.316
362.421
362.494
362.532
362.532
362.494
362.421
362.316
362.184
362.03
361.861
361.683
361.508
361.365
351.918
352.037
352.185
352.336
352.48
352.611
352.723
352.813
352.875
352.907
352.907
352.875
352.813
352.723
352.611
352.48
352.336
352.185
352.037
351.918
342.478
342.574
342.696
342.82
342.938
343.046
343.138
343.211
343.262
343.289
343.289
343.262
343.211
343.138
343.046
342.938
342.82
342.696
342.574
342.478
333.044
333.118
333.212
333.309
333.401
333.485
333.557
333.615
333.655
333.675
333.675
333.655
333.615
333.557
333.485
333.401
333.309
333.212
333.118
333.044
323.612
323.665
323.732
323.802
323.868
323.928
323.98
324.021
324.049
324.064
324.064
324.049
324.021
323.98
323.928
323.868
323.802
323.732
323.665
323.612
314.183
314.214
314.255
314.296
314.336
314.372
314.403
314.428
314.445
314.454
314.454
314.445
314.428
314.403
314.372
314.336
314.296
314.255
314.214
314.183
304.754
304.765
304.778
304.792
304.806
304.818
304.828
304.836
304.842
304.845
304.845
304.842
304.836
304.828
304.818
304.806
304.792
304.778
304.765
304.754
)
;

boundaryField
{
    hotSide
    {
        type            fixedGradient;
        gradient        nonuniform List<scalar> 
400
(
440.795
442.366
445.513
450.248
456.584
464.541
474.14
485.404
498.358
513.025
529.43
547.593
567.536
589.277
612.831
638.212
665.431
694.498
725.42
758.203
447.421
448.94
451.984
456.569
462.713
470.442
479.784
490.769
503.428
517.792
533.89
551.75
571.395
592.848
616.127
641.247
668.221
697.059
727.767
760.353
454.592
456.048
458.97
463.376
469.293
476.754
485.795
496.455
508.775
522.792
538.543
556.061
575.375
596.51
619.487
644.324
671.033
699.625
730.107
762.485
462.189
463.572
466.351
470.551
476.206
483.359
492.057
502.35
514.287
527.918
543.285
560.428
579.382
600.176
622.832
647.368
673.8
702.137
732.386
764.551
470
471.301
473.92
477.889
483.252
490.063
498.384
508.275
519.799
533.013
547.972
564.72
583.297
603.735
626.06
650.291
676.443
704.524
734.54
766.494
477.699
478.912
481.36
485.082
490.136
496.588
504.512
513.986
525.083
537.872
552.415
568.764
586.965
607.052
629.053
652.986
678.867
706.702
736.497
768.252
484.844
485.97
488.247
491.725
496.472
502.57
510.107
519.175
529.86
542.241
556.39
572.365
590.214
609.975
631.676
655.338
680.972
708.586
738.182
769.76
490.91
491.956
494.079
497.338
501.81
507.593
514.787
523.498
533.822
545.849
559.657
575.31
592.86
612.345
633.795
657.229
682.659
710.09
739.523
770.956
495.348
496.334
498.34
501.43
505.694
511.237
518.173
526.615
536.669
548.433
561.989
577.405
594.735
614.019
635.287
658.557
683.84
711.14
740.457
771.787
497.7
498.653
500.594
503.594
507.744
513.158
519.954
528.251
538.161
549.784
563.205
578.495
595.709
614.887
636.059
659.242
684.448
711.68
740.936
772.213
497.7
498.653
500.594
503.594
507.744
513.158
519.954
528.251
538.161
549.784
563.205
578.495
595.709
614.887
636.059
659.242
684.448
711.68
740.936
772.213
495.348
496.334
498.34
501.43
505.694
511.237
518.173
526.615
536.669
548.433
561.989
577.405
594.735
614.019
635.287
658.557
683.84
711.14
740.457
771.787
490.91
491.956
494.079
497.338
501.81
507.593
514.787
523.498
533.822
545.849
559.657
575.31
592.86
612.345
633.795
657.229
682.659
710.09
739.523
770.956
484.844
485.97
488.247
491.725
496.472
502.57
510.107
519.175
529.86
542.241
556.39
572.365
590.214
609.975
631.676
655.338
680.972
708.586
738.182
769.76
477.699
478.912
481.36
485.082
490.136
496.588
504.512
513.986
525.083
537.872
552.415
568.764
586.965
607.052
629.053
652.986
678.867
706.702
736.497
768.252
470
471.301
473.92
477.889
483.252
490.063
498.384
508.275
519.799
533.013
547.972
564.72
583.297
603.735
626.06
650.291
676.443
704.524
734.54
766.494
462.189
463.572
466.351
470.551
476.206
483.359
492.057
502.35
514.287
527.918
543.285
560.428
579.382
600.176
622.832
647.368
673.8
702.137
732.386
764.551
454.592
456.048
458.97
463.376
469.293
476.754
485.795
496.455
508.775
522.792
538.543
556.061
575.375
596.51
619.487
644.324
671.033
699.625
730.107
762.485
447.421
448.94
451.984
456.569
462.713
470.442
479.784
490.769
503.428
517.792
533.89
551.75
571.395
592.848
616.127
641.247
668.221
697.059
727.767
760.353
440.795
442.366
445.513
450.248
456.584
464.541
474.14
485.404
498.358
513.025
529.43
547.593
567.536
589.277
612.831
638.212
665.431
694.498
725.42
758.203
)
;
    }
    coldSide
    {
        type            mixed;
        refValue        uniform 300;
        refGradient     uniform 0;
        valueFraction   uniform 0.991591;
        source          uniform 0;
        value           nonuniform List<scalar> 
400
(
300.024
300.024
300.025
300.025
300.025
300.026
300.026
300.027
300.027
300.028
300.029
300.03
300.031
300.032
300.034
300.035
300.036
300.038
300.039
300.04
300.025
300.025
300.025
300.025
300.025
300.026
300.026
300.027
300.028
300.028
300.029
300.03
300.031
300.032
300.034
300.035
300.036
300.038
300.039
300.04
300.025