/*--------------------------------*- C++ -*----------------------------------*\
| =========                 |                                                 |
| \\      /  F ield         | OpenFOAM: The Open Source CFD Toolbox           |
|  \\    /   O peration     | Version:  2212                                  |
|   \\  /    A nd           | Website:  www.openfoam.com                      |
|    \\/     M anipulation  |                                                 |
\*---------------------------------------------------------------------------*/
FoamFile
{
    version     2.0;
    format      ascii;
    arch        "LSB;label=32;scalar=64";
    class       volScalarField;
    location    "0";
    object      T;
}
// * * * * * * * * * * * * * * * * * * * * * * * * * * * * * * * * * * * * * //

dimensions      [0 0 0 1 0 0 0];

internalField   nonuniform List<scalar> 
3200
(
344.562
345.451
346.504
347.641
348.502
349.502
350.443
350.36
350.851
351.397
351.389
351.253
350.829
350.491
349.741
349.108
348.262
347.39
346.171
345.558
338.607
339.354
340.249
341.244
342.013
342.85
343.707
343.613
344.031
344.483
344.47
344.334
344.011
343.692
343.002
342.503
341.794
340.999
339.899
339.44
332.696
333.233
334.037
334.844
335.525
336.209
336.929
336.931
337.278
337.609
337.586
337.474
337.258
336.927
336.35
335.922
335.355
334.662
333.72
333.344
326.794
327.166
327.848
328.459
329.041
329.598
330.181
330.241
330.556
330.704
330.685
330.625
330.482
330.175
329.712
329.357
328.933
328.334
327.559
327.265
320.864
321.167
321.635
322.165
322.549
322.995
323.466
323.541
323.814
323.843
323.841
323.748
323.704
323.454
323.088
322.811
322.465
322.02
321.409
321.166
314.904
315.148
315.445
315.82
316.068
316.44
316.768
316.839
317.059
317.004
317.028
316.955
316.932
316.71
316.471
316.325
316.013
315.735
315.264
315.071
308.951
309.127
309.253
309.502
309.628
309.891
310.077
310.113
310.231
310.176
310.25
310.19
310.163
310.005
309.876
309.813
309.594
309.47
309.169
309.016
303.011
303.072
303.085
303.161
303.229
303.329
303.375
303.387
303.407
303.387
303.44
303.425
303.415
303.332
303.306
303.286
303.212
303.181
303.084
303.036
345.444
346.374
347.723
348.6
349.402
350.488
351.382
351.468
351.931
352.226
352.247
352.016
351.706
351.376
350.904
350.23
349.396
348.334
347.651
346.272
339.38
340.143
341.248
342.007
342.703
343.627
344.459
344.433
344.901
345.105
345.137
344.918
344.7
344.379
343.961
343.362
342.663
341.813
341.212
340.015
333.29
333.9
334.867
335.472
336.045
336.822
337.563
337.475
337.937
338.077
338.095
337.92
337.754
337.5
337.113
336.594
335.953
335.356
334.789
333.817
327.214
327.668
328.472
328.976
329.456
330.06
330.693
330.621
331.03
331.116
331.112
330.951
330.861
330.623
330.342
329.921
329.354
328.908
328.403
327.651
321.167
321.488
322.137
322.523
322.855
323.339
323.834
323.776
324.136
324.147
324.186
324.05
324.012
323.818
323.603
323.305
322.79
322.421
322.023
321.554
315.118
315.327
315.764
316.132
316.343
316.693
316.979
316.971
317.199
317.196
317.284
317.18
317.155
316.994
316.846
316.639
316.257
316.015
315.709
315.441
309.096
309.192
309.435
309.716
309.828
310
310.145
310.184
310.302
310.322
310.403
310.315
310.32
310.176
310.102
309.994
309.72
309.638
309.414
309.233
303.031
303.082
303.164
303.269
303.29
303.349
303.397
303.419
303.433
303.471
303.479
303.459
303.467
303.391
303.36
303.359
303.252
303.241
303.136
303.096
346.576
347.758
349.187
350.164
351.007
351.805
352.57
352.967
353.428
353.574
353.775
353.491
353.186
352.794
352.26
351.765
350.791
349.681
348.566
347.459
340.3
341.264
342.494
343.375
344.047
344.771
345.439
345.777
346.165
346.295
346.427
346.176
345.902
345.582
345.146
344.665
343.866
342.928
341.925
341.052
334.076
334.841
335.837
336.626
337.195
337.802
338.383
338.591
338.943
339.074
339.184
338.951
338.712
338.464
338.107
337.693
337.044
336.227
335.374
334.662
327.875
328.452
329.23
329.917
330.361
330.876
331.327
331.467
331.772
331.907
331.988
331.734
331.627
331.389
331.122
330.82
330.227
329.611
328.915
328.318
321.672
322.109
322.746
323.249
323.581
323.975
324.273
324.418
324.656
324.759
324.876
324.623
324.576
324.37
324.178
323.965
323.467
323.021
322.463
322.02
315.495
315.816
316.245
316.597
316.869
317.107
317.315
317.438
317.612
317.63
317.765
317.533
317.544
317.383
317.239
317.126
316.71
316.437
316.04
315.681
309.304
309.527
309.779
309.969
310.147
310.261
310.358
310.456
310.607
310.614
310.674
310.49
310.512
310.413
310.302
310.309
309.992
309.833
309.635
309.391
303.116
303.202
303.279
303.323
303.398
303.433
303.475
303.494
303.561
303.56
303.609
303.508
303.495
303.488
303.429
303.458
303.348
303.287
303.22
303.153
347.933
349.188
350.38
351.565
352.434
353.287
353.941
354.567
355.075
355.147
355.201
355.044
354.74
354.233
353.831
352.967
352.193
350.997
349.893
348.893
341.489
342.465
343.564
344.588
345.3
346.098
346.587
347.156
347.554
347.631
347.681
347.524
347.219
346.824
346.463
345.769
345.096
344.018
343.071
342.239
335.048
335.818
336.74
337.666
338.204
338.942
339.336
339.794
340.099
340.181
340.258
340.101
339.826
339.487
339.15
338.622
338.096
337.166
336.358
335.631
328.632
329.208
329.975
330.782
331.197
331.85
332.12
332.524
332.732
332.79
332.899
332.752
332.496
332.243
331.953
331.527
331.109
330.369
329.688
329.121
322.279
322.64
323.256
323.917
324.232
324.769
324.915
325.29
325.446
325.477
325.571
325.433
325.24
325.035
324.82
324.434
324.149
323.573
323.057
322.674
315.935
316.16
316.6
317.076
317.288
317.694
317.775
318.023
318.159
318.18
318.258
318.143
318.033
317.859
317.732
317.411
317.256
316.813
316.443
316.218
309.614
309.72
309.958
310.245
310.389
310.638
310.651
310.802
310.873
310.897
310.964
310.866
310.836
310.729
310.671
310.433
310.357
310.096
309.875
309.761
303.225
303.256
303.317
303.431
303.48
303.571
303.569
303.611
303.63
303.643
303.679
303.641
303.637
303.596
303.59
303.483
303.469
303.394
303.308
303.288
349.271
350.617
351.724
352.941
353.859
354.718
355.341
356.15
356.479
356.725
356.722
356.55
356.274
355.809
355.144
354.546
353.508
352.337
351.208
350.212
342.61
343.742
344.699
345.762
346.556
347.315
347.791
348.535
348.805
349.02
349.024
348.825
348.588
348.179
347.611
347.047
346.202
345.193
344.191
343.344
336.024
336.955
337.721
338.649
339.296
339.954
340.293
340.969
341.213
341.394
341.368
341.211
341.012
340.651
340.16
339.679
338.948
338.142
337.277
336.565
329.442
330.172
330.81
331.594
332.096
332.678
332.903
333.43
333.722
333.827
333.802
333.68
333.525
333.199
332.78
332.363
331.794
331.115
330.399
329.865
322.874
323.465
323.952
324.552
324.933
325.404
325.556
325.916
326.233
326.267
326.233
326.167
326.067
325.778
325.442
325.105
324.669
324.145
323.589
323.21
316.324
316.741
317.13
317.551
317.78
318.15
318.263
318.477
318.772
318.761
318.721
318.667
318.643
318.402
318.154
317.904
317.618
317.19
316.818
316.573
309.805
310.076
310.267
310.562
310.671
310.889
310.975
311.098
311.259
311.259
311.236
311.193
311.198
310.995
310.886
310.724
310.59
310.313
310.057
309.928
303.273
303.391
303.455
303.537
303.591
303.65
303.666
303.717
303.751
303.782
303.78
303.747
303.76
303.69
303.665
303.579
303.544
303.461
303.381
303.319
350.533
351.774
353.037
354.308
355.303
356.288
356.85
357.611
357.811
358.21
358.227
357.967
357.613
357.344
356.791
355.736
354.712
353.75
352.556
351.386
343.7
344.754
345.791
346.951
347.809
348.6
349.09
349.73
349.958
350.274
350.294
350.064
349.715
349.51
348.99
348.147
347.245
346.431
345.365
344.406
336.917
337.791
338.685
339.672
340.366
341.039
341.428
341.9
342.187
342.446
342.46
342.216
341.922
341.766
341.295
340.643
339.872
339.211
338.259
337.495
330.179
330.902
331.621
332.394
332.959
333.545
333.82
334.169
334.464
334.653
334.712
334.452
334.196
334.087
333.692
333.13
332.553
332.006
331.236
330.646
323.459
324.035
324.583
325.147
325.572
326.076
326.279
326.525
326.817
326.885
326.964
326.746
326.538
326.494
326.179
325.717
325.281
324.836
324.29
323.834
316.727
317.183
317.563
317.929
318.202
318.61
318.741
318.929
319.139
319.159
319.244
319.098
318.965
318.942
318.644
318.329
318.073
317.724
317.339
317.042
310.063
310.333
310.542
310.733
310.882
311.172
311.259
311.375
311.484
311.485
311.539
311.458
311.381
311.358
311.16
311.015
310.842
310.627
310.428
310.24
303.381
303.453
303.537
303.588
303.642
303.735
303.767
303.809
303.839
303.844
303.855
303.838
303.82
303.816
303.73
303.698
303.639
303.559
303.5
303.428
351.923
353.006
354.501
355.69
356.653
357.568
358.308
358.947
359.354
359.809
359.558
359.337
359.081
358.651
358.021
357.218
356.297
355.123
353.759
352.712
344.917
345.824
347.084
348.112
348.974
349.724
350.341
350.952
351.244
351.654
351.394
351.231
351.037
350.671
350.051
349.449
348.601
347.616
346.389
345.536
337.935
338.677
339.722
340.611
341.343
341.978
342.501
343.014
343.234
343.576
343.377
343.206
343.05
342.78
342.23
341.731
340.962
340.149
339.127
338.432
330.983
331.592
332.449
333.176
333.765
334.291
334.719
335.125
335.315
335.607
335.456
335.268
335.175
334.969
334.451
334.066
333.41
332.729
331.98
331.366
324.094
324.556
325.19
325.807
326.236
326.636
326.996
327.27
327.474
327.646
327.567
327.376
327.363
327.187
326.75
326.447
325.929
325.424
324.852
324.348
317.229
317.528
317.966
318.434
318.755
319.029
319.255
319.459
319.616
319.745
319.628
319.494
319.553
319.398
319.085
318.858
318.48
318.204
317.712
317.392
310.387
310.514
310.754
311.04
311.289
311.415
311.528
311.666
311.767
311.867
311.746
311.683
311.741
311.664
311.448
311.301
311.023
310.936
310.597
310.428
303.483
303.518
303.605
303.7
303.777
303.814
303.859
303.911
303.936
303.981
303.934
303.925
303.929
303.904
303.844
303.801
303.684
303.679
303.548
303.48
352.996
354.146
355.675
356.949
358.018
358.794
359.782
360.294
360.623
361.01
360.867
360.814
360.565
360.042
359.363
358.46
357.404
356.227
354.975
353.781
345.827
346.775
348.068
349.191
350.164
350.793
351.643
352.081
352.369
352.687
352.542
352.465
352.308
351.847
351.216
350.472
349.583
348.554
347.481
346.453
338.689
339.471
340.542
341.491
342.352
342.872
343.548
343.935
344.186
344.447
344.345
344.256
344.149
343.768
343.152
342.582
341.796
340.963
340.079
339.23
331.61
332.216
333.072
333.857
334.573
335.043
335.569
335.883
336.1
336.275
336.189
336.169
336.05
335.685
335.175
334.723
334.085
333.432
332.747
332.049
324.589
325.04
325.703
326.31
326.845
327.219
327.616
327.874
328.068
328.175
328.087
328.085
327.989
327.673
327.266
326.928
326.474
325.942
325.439
324.92
317.57
317.89
318.361
318.816
319.183
319.41
319.733
319.88
320.063
320.121
320.004
320.047
320.035
319.732
319.468
319.207
318.905
318.522
318.152
317.811
310.568
310.77
311.019
311.3
311.518
311.627
311.869
311.937
312.07
312.088
311.987
312.067
312.039
311.813
311.672
311.517
311.38
311.107
310.917
310.688
303.565
303.62
303.69
303.775
303.851
303.914
303.986
303.997
304.05
304.058
304.027
304.044
304.022
303.957
303.908
303.847
303.811
303.734
303.673
303.566
354.069
355.295
356.678
358.053
359.2
360.133
360.805
361.411
362.017
362.234
362.19
362.079
361.779
361.285
360.591
359.682
358.772
357.371
356.113
354.752
346.764
347.802
348.961
350.158
351.117
351.941
352.565
353.06
353.614
353.78
353.759
353.595
353.338
352.933
352.326
351.525
350.707
349.531
348.41
347.361
339.479
340.368
341.389
342.376
343.118
343.815
344.391
344.77
345.296
345.369
345.352
345.197
345.029
344.668
344.1
343.477
342.766
341.808
340.795
340.031
332.229
332.995
333.801
334.678
335.242
335.774
336.276
336.595
336.992
336.98
337.038
336.89
336.77
336.433
335.958
335.533
334.905
334.121
333.233
332.745
325.033
325.635
326.265
326.95
327.369
327.764
328.22
328.419
328.735
328.678
328.786
328.627
328.599
328.234
327.879
327.613
327.113
326.529
325.804
325.45
317.878
318.36
318.742
319.217
319.54
319.805
320.195
320.253
320.527
320.45
320.564
320.442
320.457
320.123
319.867
319.706
319.382
318.946
318.399
318.17
310.753
311.03
311.242
311.506
311.7
311.897
312.127
312.136
312.313
312.275
312.344
312.293
312.291
312.066
311.896
311.846
311.663
311.396
311.065
310.905
303.611
303.675
303.76
303.853
303.926
303.985
304.053
304.055
304.112
304.111
304.147
304.109
304.115
304.021
304.004
303.973
303.919
303.836
303.709
303.66
355.062
356.413
357.923
359.157
360.354
361.467
362.029
362.898
363.219
363.187
363.285
363.125
363.009
362.32
361.767
360.658
359.804
358.437
357.095
355.822
347.591
348.801
350.091
351.117
352.135
353.078
353.61
354.295
354.626
354.561
354.653
354.506
354.441
353.815
353.328
352.373
351.633
350.45
349.277
348.24
340.181
341.233
342.292
343.155
343.98
344.804
345.27
345.793
346.077
346.031
346.117
345.984
345.938
345.394
345.024
344.226
343.554
342.558
341.555
340.756
332.809
333.691
334.557
335.22
335.883
336.571
336.955
337.34
337.637
337.573
337.705
337.545
337.509
337.001
336.79
336.177
335.579
334.742
333.94
333.336
325.459
326.183
326.815
327.304
327.833
328.416
328.706
328.969
329.253
329.204
329.287
329.147
329.135
328.732
328.62
328.128
327.628
326.976
326.378
325.941
318.18
318.677
319.114
319.405
319.867
320.292
320.477
320.645
320.877
320.9
320.896
320.754
320.82
320.487
320.425
320.098
319.738
319.221
318.82
318.546
310.908
311.201
311.426
311.627
311.904
312.173
312.293
312.392
312.514
312.552
312.528
312.465
312.5
312.265
312.27
312.049
311.844
311.522
311.321
311.168
303.648
303.745
303.821
303.9
304.003
304.076
304.123
304.147
304.191
304.198
304.216
304.173
304.192
304.115
304.09
304.034
303.975
303.85
303.805
303.758
355.967
357.481
358.972
360.123
361.333
362.273
362.992
363.88
364.246
364.49
364.385
364.246
363.95
363.611
362.72
361.88
360.789
359.603
358.021
356.785
348.398
349.706
350.965
351.969
352.942
353.777
354.399
355.178
355.511
355.7
355.599
355.513
355.242
354.927
354.212
353.47
352.469
351.472
350.079
349.091
340.865
341.988
343.024
343.891
344.668
345.34
345.928
346.508
346.828
347.044
346.886
346.81
346.617
346.346
345.789
345.134
344.283
343.478
342.25
341.46
333.364
334.308
335.13
335.814
336.468
337.001
337.53
337.974
338.251
338.454
338.249
338.208
338.086
337.823
337.436
336.851
336.185
335.529
334.553
333.865
325.912
326.672
327.271
327.825
328.314
328.736
329.165
329.53
329.706
329.879
329.722
329.663
329.561
329.413
329.077
328.633
328.119
327.61
326.853
326.368
318.514
319.029
319.483
319.852
320.166
320.519
320.817
321.104
321.187
321.307
321.192
321.223
321.101
321.003
320.75
320.442
320.062
319.722
319.173
318.867
311.109
311.425
311.708
311.928
312.05
312.327
312.509
312.661
312.671
312.773
312.723
312.787
312.649
312.61
312.469
312.287
312.039
311.857
311.54
311.366
303.716
303.859
303.93
304.006
304.03
304.146
304.205
304.238
304.257
304.272
304.261
304.305
304.247
304.203
304.166
304.122
304.05
303.969
303.861
303.821
356.983
358.39
359.707
361.132
362.314
363.079
363.632
364.804
365.166
365.517
365.363
365.261
364.905
364.704
363.79
362.766
361.722
360.472
358.99
357.597
349.3
350.43
351.604
352.805
353.867
354.475
354.947
355.982
356.276
356.619
356.432
356.354
356.071
355.892
355.111
354.208
353.301
352.224
350.907
349.747
341.66
342.592
343.601
344.597
345.48
345.983
346.406
347.244
347.502
347.77
347.607
347.548
347.357
347.155
346.521
345.789
344.948
344.015
342.939
341.984
334.081
334.81
335.627
336.456
337.101
337.557
337.937
338.553
338.726
339.015
338.848
338.818
338.674
338.481
337.998
337.395
336.713
335.911
335.044
334.242
326.463
327.067
327.68
328.319
328.792
329.169
329.485
329.933
330.029
330.296
330.151
330.151
330.047
329.886
329.516
329.031
328.49
327.853
327.175
326.537
318.873
319.329
319.786
320.162
320.545
320.792
321.097
321.386
321.39
321.675
321.468
321.529
321.421
321.353
321.093
320.707
320.316
319.927
319.392
318.897
311.302
311.612
311.887
312.118
312.342
312.464
312.652
312.869
312.854
313.018
312.849
312.901
312.863
312.841
312.677
312.42
312.194
311.967
311.651
311.334
303.789
303.894
304.003
304.076
304.157
304.154
304.226
304.328
304.309
304.384
304.294
304.316
304.298
304.303
304.224
304.155
304.089
304.015
303.873
303.782
357.721
359.137
360.412
362.111
363.126
363.809
364.841
365.59
366.127
366.307
366.498
366.254
365.679
365.421
364.555
363.423
362.34
361.249
359.779
358.322
349.967
351.098
352.201
353.623
354.507
355.082
355.979
356.651
357.123
357.296
357.459
357.216
356.736
356.499
355.68
354.805
353.825
352.866
351.638
350.422
342.292
343.125
344.073
345.261
345.985
346.488
347.197
347.791
348.179
348.364
348.476
348.276
347.891
347.682
346.949
346.263
345.437
344.529
343.549
342.572
334.597
335.216
335.986
336.964
337.532
337.948
338.536
339.044
339.354
339.504
339.642
339.391
339.08
338.913
338.317
337.792
337.144
336.351
335.566
334.812
326.896
327.366
327.958
328.671
329.188
329.51
329.937
330.34
330.6
330.705
330.801
330.614
330.35
330.261
329.79
329.316
328.866
328.231
327.627
327.05
319.209
319.526
319.948
320.429
320.839
321.04
321.334
321.665
321.874
321.893
321.998
321.854
321.672
321.645
321.288
320.887
320.585
320.132
319.702
319.28
311.52
311.711
311.976
312.241
312.482
312.6
312.805
313.015
313.151
313.142
313.183
313.159
313.029
313.012
312.772
312.517
312.33
312.106
311.81
311.578
303.869
303.93
304.019
304.074
304.184
304.237
304.309
304.357
304.409
304.41
304.421
304.418
304.387
304.348
304.276
304.186
304.113
304.07
303.949
303.874
358.46
359.862
360.962
362.716
363.915
364.634
365.689
366.373
367.008
367.005
367.141
366.906
366.658
366.116
365.107
364.119
363.094
361.886
360.439
359.207
350.557
351.751
352.695
354.195
355.21
355.842
356.763
357.29
357.874
357.883
357.997
357.787
357.604
357.058
356.258
355.353
354.47
353.442
352.199
351.167
342.68
343.746
344.477
345.779
346.565
347.181
347.904
348.341
348.834
348.867
348.952
348.765
348.63
348.163
347.464
346.687
345.951
345.145
344.067
343.179
334.859
335.758
336.292
337.42
338.028
338.54
339.127
339.474
339.862
339.924
339.961
339.816
339.78
339.358
338.76
338.082
337.568
336.871
335.962
335.26
327.098
327.831
328.181
329.123
329.548
329.904
330.403
330.685
330.978
330.968
331.069
330.925
330.926
330.605
330.155
329.554
329.185
328.627
327.895
327.378
319.381
319.925
320.089
320.819
321.116
321.312
321.693
321.889
322.107
322.085
322.207
322.066
322.113
321.862
321.552
321.113
320.839
320.41
319.879
319.547
311.608
311.966
312.086
312.501
312.657
312.761
313.015
313.117
313.296
313.268
313.364
313.23
313.291
313.14
312.939
312.666
312.48
312.237
311.94
311.72
303.878
304.009
304.065
304.163
304.238
304.257
304.349
304.39
304.455
304.442
304.461
304.444
304.459
304.407
304.341
304.239
304.189
304.097
304.008
303.911
358.852
360.291
361.625
363.198
364.314
365.164
366.446
366.984
367.639
367.848
367.658
367.358
367.4
366.533
365.915
364.815
363.837
362.386
361.082
359.676
350.89
352.146
353.261
354.593
355.59
356.272
357.373
357.845
358.462
358.614
358.437
358.158
358.203
357.437
356.922
355.951
355.116
353.897
352.799
351.583
343.008
344.037
344.974
346.104
346.941
347.498
348.401
348.822
349.369
349.433
349.347
349.096
349.096
348.428
348.046
347.219
346.464
345.467
344.577
343.556
335.153
335.967
336.736
337.685
338.351
338.765
339.556
339.883
340.375
340.346
340.338
340.119
340.096
339.544
339.223
338.526
337.909
337.109
336.384
335.588
327.31
327.936
328.556
329.277
329.791
330.095
330.746
330.958
331.412
331.382
331.317
331.179
331.132
330.753
330.475
329.903
329.448
328.831
328.212
327.65
319.505
319.956
320.379
320.928
321.288
321.473
321.945
322.098
322.41
322.411
322.367
322.237
322.259
321.956
321.768
321.356
321.016
320.599
320.087
319.726
311.723
311.999
312.23
312.581
312.798
312.89
313.167
313.248
313.499
313.441
313.444
313.32
313.401
313.188
313.092
312.848
312.635
312.375
312.027
311.846
303.938
304.02
304.084
304.232
304.289
304.326
304.4
304.421
304.546
304.489
304.499
304.444
304.501
304.413
304.387
304.293
304.233
304.174
304.022
303.949
359.597
360.923
362.112
363.659
364.966
365.697
366.906
367.471
368.094
368.413
368.433
367.896
367.783
367.328
366.35
365.389
364.279
362.739
361.469
360.229
351.575
352.637
353.684
354.979
356.121
356.76
357.76
358.291
358.846
359.115
359.099
358.653
358.524
358.169
357.314
356.472
355.48
354.154
353.1
352.049
343.508
344.477
345.344
346.433
347.35
347.891
348.723
349.188
349.624
349.889
349.838
349.528
349.34
349.109
348.376
347.682
346.77
345.654
344.804
343.926
335.521
336.351
337.02
337.911
338.644
339.092
339.801
340.159
340.488
340.709
340.704
340.454
340.251
340.115
339.498
338.929
338.163
337.286
336.533
335.887
327.632
328.293
328.794
329.43
330.038
330.358
330.882
331.201
331.473
331.589
331.603
331.465
331.273
331.164
330.666
330.207
329.618
328.956
328.371
327.869
319.754
320.237
320.575
320.982
321.472
321.685
322.013
322.282
322.471
322.53
322.563
322.495
322.333
322.239
321.912
321.531
321.112
320.635
320.227
319.896
311.848
312.123
312.346
312.591
312.913
313.004
313.21
313.377
313.493
313.515
313.531
313.511
313.446
313.365
313.165
312.939
312.647
312.35
312.119
311.928
303.947
304.042
304.162
304.219
304.342
304.347
304.443
304.474
304.526
304.508
304.537
304.52
304.5
304.487
304.403
304.345
304.245
304.118
304.07
304.01
359.902
361.17
362.588
363.874
365.354
366.323
367.197
367.92
368.614
368.631
368.815
368.374
367.926
367.542
366.513
365.735
364.592
363.061
361.618
360.478
351.791
352.854
354.065
355.205
356.477
357.291
358.041
358.677
359.312
359.258
359.458
359.006
358.662
358.364
357.411
356.759
355.749
354.459
353.164
352.295
343.75
344.65
345.634
346.589
347.638
348.387
348.914
349.498
350.056
349.984
350.159
349.765
349.486
349.234
348.411
347.918
347.021
345.976
344.856
344.155
335.771
336.507
337.269
338.056
338.879
339.54
339.942
340.372
340.85
340.768
340.94
340.615
340.403
340.195
339.533
339.104
338.366
337.558
336.599
336.051
327.803
328.362
328.976
329.577
330.223
330.707
331.023
331.362
331.731
331.655
331.817
331.535
331.413
331.206
330.714
330.353
329.778
329.18
328.413
328.007
319.878
320.27
320.693
321.147
321.625
321.897
322.13
322.43
322.65
322.561
322.739
322.509
322.444
322.231
321.905
321.715
321.228
320.803
320.277
319.962
311.938
312.178
312.441
312.673
313.019
313.154
313.258
313.468
313.579
313.529
313.641
313.528
313.512
313.342
313.167
313.055
312.71
312.484
312.187
311.979
303.99
304.083
304.161
304.241
304.369
304.385
304.45
304.484
304.541
304.531
304.575
304.524
304.53
304.468
304.397
304.378
304.257
304.178
304.086
304.017
360.069
361.368
362.749
364.214
365.53
366.708
367.412
368.123
368.711
368.983
369.074
368.849
368.301
367.767
366.882
366.078
364.725
363.468
361.893
360.776
351.948
353.02
354.214
355.48
356.575
357.608
358.237
358.828
359.325
359.584
359.69
359.512
358.967
358.56
357.748
357.08
355.898
354.834
353.465
352.519
343.88
344.761
345.807
346.801
347.777
348.597
349.142
349.637
350.091
350.282
350.39
350.225
349.78
349.424
348.717
348.134
347.157
346.307
345.152
344.339
335.838
336.561
337.411
338.2
339.088
339.635
340.118
340.514
340.95
341.085
341.122
340.982
340.661
340.391
339.776
339.277
338.524
337.815
336.903
336.217
327.833
328.43
329.057
329.674
330.389
330.712
331.162
331.462
331.817
331.904
331.948
331.808
331.587
331.378
330.872
330.489
329.961
329.352
328.635
328.094
319.884
320.307
320.789
321.159
321.676
321.885
322.259
322.463
322.716
322.764
322.792
322.688
322.547
322.408
322.044
321.772
321.378
320.945
320.463
320.017
311.932
312.21
312.512
312.698
312.991
313.136
313.363
313.493
313.638
313.685
313.679
313.597
313.516
313.427
313.216
313.096
312.835
312.558
312.297
312.009
304.005
304.083
304.196
304.269
304.362
304.39
304.476
304.52
304.557
304.597
304.599
304.561
304.541
304.507
304.449
304.398
304.315
304.215
304.122
304.03
360.083
361.55
362.988
364.5
365.84
366.825
367.791
368.384
368.871
369.092
369.161
369.237
368.563
367.987
366.999
366.178
364.942
363.678
362.011
360.989
351.98
353.192
354.416
355.711
356.861
357.765
358.534
359.058
359.488
359.712
359.723
359.856
359.222
358.735
357.837
357.158
356.091
355.004
353.583
352.734
343.877
344.956
345.917
347.028
347.984
348.779
349.419
349.862
350.234
350.39
350.418
350.507
349.997
349.588
348.82
348.187
347.369
346.377
345.266
344.52
335.859
336.725
337.47
338.416
339.22
339.865
340.381
340.721
341.029
341.129
341.254
341.243
340.808
340.526
339.897
339.337
338.687
337.902
336.988
336.392
327.839
328.548
329.149
329.877
330.491
330.976
331.375
331.681
331.865
331.96
332.128
332.037
331.705
331.486
331.027
330.546
330.037
329.466
328.769
328.281
319.902
320.357
320.816
321.355
321.745
322.111
322.402
322.61
322.729
322.827
322.999
322.884
322.629
322.51
322.148
321.809
321.407
321.027
320.542
320.202
311.929
312.237
312.483
312.812
313.024
313.25
313.463
313.551
313.642
313.684
313.836
313.722
313.563
313.502
313.283
313.064
312.856
312.589
312.329
312.118
303.998
304.092
304.165
304.285
304.362
304.437
304.518
304.557
304.561
304.581
304.65
304.621
304.541
304.539
304.448
304.366
304.324
304.227
304.134
304.069
360.05
361.531
363.015
364.73
366.137
367.102
368.041
368.596
368.943
369.272
369.344
369.255
368.722
367.914
367.042
366.083
364.842
363.841
362.146
360.7
351.939
353.142
354.428
355.936
357.145
358.001
358.793
359.264
359.601
359.847
359.889
359.781
359.397
358.635
357.903
357.054
355.992
355.103
353.721
352.444
343.907
344.835
345.911
347.233
348.25
349.013
349.605
350.061
350.329
350.545
350.554
350.437
350.19
349.495
348.844
348.128
347.234
346.521
345.368
344.305
335.85
336.607
337.479
338.563
339.408
340.082
340.522
340.908
341.093
341.287
341.305
341.181
341.036
340.424
339.887
339.265
338.543
337.984
337.091
336.184
327.867
328.443
329.131
329.934
330.595
331.192
331.465
331.791
331.924
332.091
332.126
331.942
331.922
331.396
331.017
330.478
329.936
329.489
328.778
328.094
319.885
320.347
320.825
321.345
321.816
322.278
322.446
322.669
322.802
322.908
322.917
322.797
322.772
322.43
322.133
321.755
321.36
321.039
320.529
320.018
311.956
312.227
312.506
312.816
313.079
313.348
313.465
313.601
313.681
313.736
313.766
313.718
313.675
313.465
313.29
313.049
312.822
312.651
312.308
312.011
304.01
304.084
304.199
304.302
304.371
304.46
304.513
304.554
304.584
304.6
304.611
304.614
304.574
304.511
304.461
304.393
304.31
304.222
304.107
304.034
)
;

boundaryField
{
    hotSide
    {
        type            fixedGradient;
        gradient        nonuniform List<scalar> 
400
(
477.172
493.344
509.13
524.461
539.265
553.472
567.016
579.828
591.847
603.011
613.263
622.55
630.824
638.041
644.163
649.156
652.994
655.657
657.13
657.406
491.426
508.083
524.344
540.135
555.384
570.02
583.972
597.172
609.554
621.057
631.621
641.192
649.719
657.158
663.469
668.619
672.579
675.328
676.852
677.143
504.458
521.556
538.248
554.458
570.112
585.137
599.46
613.011
625.724
637.534
648.381
658.209
666.965
674.605
681.088
686.378
690.447
693.275
694.844
695.147
516.178
533.67
550.746
567.33
583.345
598.716
613.37
627.235
640.241
652.325
663.423
673.479
682.439
690.257
696.891
702.305
706.471
709.365
710.973
711.286
526.506
544.341
561.752
578.661
594.99
610.663
625.604
639.741
653.003
665.324
676.64
686.893
696.029
704
710.764
716.285
720.532
723.484
725.123
725.442
535.369
553.495
571.189
588.373
604.967
620.894
636.078
650.443
663.92
676.439
687.938
698.356
707.638
715.737
722.609
728.217
732.531
735.528
737.191
737.513
542.708
561.068
578.992
596.398
613.206
629.338
644.716
659.266
672.914
685.593
697.237
707.786
717.185
725.384
732.34
738.016
742.381
745.411
747.09
747.41
548.471
567.01
585.107
602.68
619.649
635.935
651.459
666.146
679.923
692.719
704.471
715.116
724.6
732.872
739.888
745.611
750.01
753.062
754.749
755.062
552.618
571.276
589.489
607.175
624.251
640.639
656.259
671.036
684.895
697.768
709.588
720.294
729.83
738.146
745.198
750.948
755.364
758.424
760.11
760.414
555.117
573.837
592.108
609.849
626.977
643.414
659.079
673.898
687.795
700.701
712.55
723.28
732.837
741.168
748.23
753.986
758.403
761.458
763.135
763.425
555.949
574.67
592.941
610.68
627.806
644.238
659.898
674.709
688.598
701.495
713.333
724.052
733.596
741.913
748.961
754.701
759.102
762.14
763.799
764.071
555.103
573.766
591.978
609.658
626.726
643.101
658.704
673.46
687.295
700.14
711.928
722.599
732.098
740.373
747.381
753.084
757.452
760.461
762.095
762.344
552.58
571.125
589.22
606.786
623.741
640.006
655.502
670.155
683.891
696.641
708.34
718.928
728.349
736.553
743.497
749.144
753.463
756.43
758.03
758.254
548.39
566.759
584.681
602.077
618.865
634.968
650.308
664.81
678.402
691.017
702.589
713.058
722.371
730.476
737.333
742.903
747.156
750.071
751.63
751.825
542.557
560.693
578.386
595.556
612.126
628.016
643.151
657.457
670.863
683.302
694.709
705.026
714.2
722.18
728.926
734.4
738.574
741.424
742.936
743.1
535.113
552.961
570.371
587.264
603.564
619.193
634.076
648.142
661.32
673.544
684.751
694.884
703.889
711.719
718.332
723.692
727.772
730.548
732.006
732.137
526.104
543.611
560.686
577.252
593.233
608.554
623.141
636.924
649.835
661.807
672.78
682.697
691.506
699.161
705.621
710.851
714.824
717.516
718.915
719.011
515.587
532.703
549.394
565.584
581.2
596.169
610.418
623.879
636.484
648.17
658.876
668.549
677.137
684.594
690.882
695.966
699.819
702.42
703.754
703.815
503.632
520.309
536.569
552.34
567.548
582.123
595.994
609.095
621.359
632.726
643.137
652.539
660.881
668.12
674.218
679.142
682.865
685.366
686.633
686.658
490.32
506.514
522.301
537.609
552.369
566.512
579.969
592.676
604.568
615.586
625.674
634.779
642.854
649.856
655.749
660.499
664.082
666.479
667.675
667.665
)
;
    }
    coldSide
    {
        type            mixed;
        refValue        uniform 300;
        refGradient     uniform 0;
        valueFraction   uniform 0.991591;
        source          uniform 0;
        value           nonuniform List<scalar> 
400
(
300.025
300.025
300.026
300.027
300.028
300.028
300.029
300.03
300.03
300.031
300.031
300.032
300.033
300.033
300.033
300.033
300.034
300.034
300.034
300.034
300.026
300.026
300.027
300.027
300.029
300.029
300.03
300.03
300.031
300.031
300.032
300.033
300.033
300.034
300.034
300.034
300.034
300.034
300.034
300.034
300.026
300.027