/*--------------------------------*- C++ -*----------------------------------*\
| =========                 |                                                 |
| \\      /  F ield         | OpenFOAM: The Open Source CFD Toolbox           |
|  \\    /   O peration     | Version:  2212                                  |
|   \\  /    A nd           | Website:  www.openfoam.com                      |
|    \\/     M anipulation  |                                                 |
\*---------------------------------------------------------------------------*/
FoamFile
{
    version     2.0;
    format      ascii;
    arch        "LSB;label=32;scalar=64";
    class       volScalarField;
    location    "./ITHACAoutput/true/15.7";
    object      trueState;
}
// * * * * * * * * * * * * * * * * * * * * * * * * * * * * * * * * * * * * * //

dimensions      [0 0 0 1 0 0 0];

internalField   nonuniform List<scalar> 
3200
(
345.085
345.345
345.677
346.04
346.413
346.779
347.117
347.402
347.61
347.719
347.719
347.61
347.402
347.117
346.779
346.413
346.04
345.677
345.345
345.085
339.063
339.283
339.57
339.883
340.206
340.523
340.815
341.061
341.241
341.336
341.336
341.241
341.061
340.815
340.523
340.206
339.883
339.57
339.283
339.063
333.047
333.229
333.471
333.736
334.008
334.276
334.523
334.731
334.882
334.962
334.962
334.882
334.731
334.523
334.276
334.008
333.736
333.471
333.229
333.047
327.035
327.182
327.379
327.595
327.818
328.037
328.238
328.408
328.532
328.597
328.597
328.532
328.408
328.238
328.037
327.818
327.595
327.379
327.182
327.035
321.028
321.141
321.294
321.462
321.635
321.805
321.961
322.093
322.189
322.24
322.24
322.189
322.093
321.961
321.805
321.635
321.462
321.294
321.141
321.028
315.024
315.104
315.213
315.333
315.457
315.578
315.69
315.784
315.853
315.889
315.889
315.853
315.784
315.69
315.578
315.457
315.333
315.213
315.104
315.024
309.024
309.071
309.137
309.209
309.283
309.356
309.423
309.479
309.521
309.542
309.542
309.521
309.479
309.423
309.356
309.283
309.209
309.137
309.071
309.024
303.025
303.041
303.062
303.087
303.112
303.136
303.158
303.177
303.191
303.198
303.198
303.191
303.177
303.158
303.136
303.112
303.087
303.062
303.041
303.025
345.273
345.531
345.86
346.219
346.588
346.95
347.284
347.566
347.771
347.88
347.88
347.771
347.566
347.284
346.95
346.588
346.219
345.86
345.531
345.273
339.226
339.444
339.728
340.039
340.358
340.672
340.96
341.204
341.381
341.474
341.474
341.381
341.204
340.96
340.672
340.358
340.039
339.728
339.444
339.226
333.184
333.365
333.605
333.867
334.137
334.402
334.645
334.851
335
335.079
335.079
335
334.851
334.645
334.402
334.137
333.867
333.605
333.365
333.184
327.147
327.293
327.488
327.703
327.923
328.14
328.339
328.507
328.629
328.693
328.693
328.629
328.507
328.339
328.14
327.923
327.703
327.488
327.293
327.147
321.115
321.227
321.379
321.545
321.717
321.885
322.039
322.17
322.265
322.314
322.314
322.265
322.17
322.039
321.885
321.717
321.545
321.379
321.227
321.115
315.087
315.166
315.274
315.393
315.515
315.635
315.746
315.839
315.906
315.942
315.942
315.906
315.839
315.746
315.635
315.515
315.393
315.274
315.166
315.087
309.061
309.108
309.173
309.245
309.318
309.39
309.456
309.512
309.553
309.574
309.574
309.553
309.512
309.456
309.39
309.318
309.245
309.173
309.108
309.061
303.037
303.053
303.075
303.099
303.123
303.147
303.17
303.188
303.202
303.209
303.209
303.202
303.188
303.17
303.147
303.123
303.099
303.075
303.053
303.037
345.649
345.903
346.227
346.579
346.941
347.295
347.621
347.896
348.096
348.201
348.201
348.096
347.896
347.621
347.295
346.941
346.579
346.227
345.903
345.649
339.551
339.766
340.046
340.35
340.663
340.97
341.252
341.489
341.662
341.753
341.753
341.662
341.489
341.252
340.97
340.663
340.35
340.046
339.766
339.551
333.459
333.637
333.873
334.13
334.395
334.654
334.892
335.092
335.238
335.315
335.315
335.238
335.092
334.892
334.654
334.395
334.13
333.873
333.637
333.459
327.372
327.516
327.708
327.918
328.134
328.346
328.541
328.704
328.823
328.886
328.886
328.823
328.704
328.541
328.346
328.134
327.918
327.708
327.516
327.372
321.29
321.4
321.549
321.712
321.881
322.045
322.196
322.323
322.416
322.464
322.464
322.416
322.323
322.196
322.045
321.881
321.712
321.549
321.4
321.29
315.212
315.29
315.396
315.512
315.632
315.75
315.858
315.949
316.015
316.049
316.049
316.015
315.949
315.858
315.75
315.632
315.512
315.396
315.29
315.212
309.136
309.183
309.246
309.316
309.388
309.459
309.524
309.578
309.618
309.639
309.639
309.618
309.578
309.524
309.459
309.388
309.316
309.246
309.183
309.136
303.062
303.078
303.099
303.123
303.147
303.17
303.192
303.21
303.224
303.231
303.231
303.224
303.21
303.192
303.17
303.147
303.123
303.099
303.078
303.062
346.213
346.462
346.777
347.12
347.471
347.814
348.129
348.394
348.586
348.688
348.688
348.586
348.394
348.129
347.814
347.471
347.12
346.777
346.462
346.213
340.04
340.25
340.522
340.819
341.122
341.419
341.692
341.921
342.087
342.174
342.174
342.087
341.921
341.692
341.419
341.122
340.819
340.522
340.25
340.04
333.872
334.046
334.276
334.526
334.783
335.034
335.264
335.457
335.597
335.671
335.671
335.597
335.457
335.264
335.034
334.783
334.526
334.276
334.046
333.872
327.71
327.85
328.037
328.242
328.452
328.657
328.845
329.003
329.117
329.177
329.177
329.117
329.003
328.845
328.657
328.452
328.242
328.037
327.85
327.71
321.552
321.66
321.805
321.964
322.127
322.287
322.433
322.555
322.644
322.691
322.691
322.644
322.555
322.433
322.287
322.127
321.964
321.805
321.66
321.552
315.399
315.475
315.579
315.692
315.809
315.922
316.027
316.114
316.178
316.211
316.211
316.178
316.114
316.027
315.922
315.809
315.692
315.579
315.475
315.399
309.249
309.294
309.356
309.424
309.494
309.563
309.625
309.678
309.716
309.736
309.736
309.716
309.678
309.625
309.563
309.494
309.424
309.356
309.294
309.249
303.1
303.115
303.136
303.159
303.182
303.205
303.226
303.244
303.257
303.263
303.263
303.257
303.244
303.226
303.205
303.182
303.159
303.136
303.115
303.1
346.967
347.208
347.513
347.844
348.181
348.51
348.811
349.063
349.247
349.343
349.343
349.247
349.063
348.811
348.51
348.181
347.844
347.513
347.208
346.967
340.692
340.896
341.159
341.445
341.737
342.022
342.282
342.501
342.659
342.742
342.742
342.659
342.501
342.282
342.022
341.737
341.445
341.159
340.896
340.692
334.424
334.592
334.814
335.056
335.303
335.543
335.763
335.948
336.081
336.151
336.151
336.081
335.948
335.763
335.543
335.303
335.056
334.814
334.592
334.424
328.161
328.297
328.477
328.675
328.877
329.073
329.253
329.404
329.513
329.57
329.57
329.513
329.404
329.253
329.073
328.877
328.675
328.477
328.297
328.161
321.903
322.007
322.147
322.301
322.458
322.611
322.75
322.867
322.952
322.997
322.997
322.952
322.867
322.75
322.611
322.458
322.301
322.147
322.007
321.903
315.649
315.723
315.823
315.933
316.045
316.154
316.254
316.337
316.398
316.429
316.429
316.398
316.337
316.254
316.154
316.045
315.933
315.823
315.723
315.649
309.399
309.443
309.503
309.569
309.636
309.701
309.761
309.811
309.848
309.867
309.867
309.848
309.811
309.761
309.701
309.636
309.569
309.503
309.443
309.399
303.15
303.165
303.185
303.207
303.23
303.252
303.272
303.289
303.301
303.307
303.307
303.301
303.289
303.272
303.252
303.23
303.207
303.185
303.165
303.15
347.912
348.143
348.436
348.752
349.074
349.386
349.671
349.909
350.081
350.172
350.172
350.081
349.909
349.671
349.386
349.074
348.752
348.436
348.143
347.912
341.51
341.706
341.959
342.232
342.51
342.78
343.027
343.233
343.382
343.46
343.46
343.382
343.233
343.027
342.78
342.51
342.232
341.959
341.706
341.51
335.114
335.277
335.49
335.721
335.956
336.185
336.393
336.567
336.693
336.759
336.759
336.693
336.567
336.393
336.185
335.956
335.721
335.49
335.277
335.114
328.725
328.856
329.03
329.219
329.411
329.598
329.768
329.91
330.013
330.067
330.067
330.013
329.91
329.768
329.598
329.411
329.219
329.03
328.856
328.725
322.342
322.442
322.577
322.724
322.873
323.018
323.151
323.261
323.341
323.383
323.383
323.341
323.261
323.151
323.018
322.873
322.724
322.577
322.442
322.342
315.963
316.034
316.13
316.235
316.341
316.445
316.54
316.618
316.675
316.705
316.705
316.675
316.618
316.54
316.445
316.341
316.235
316.13
316.034
315.963
309.587
309.629
309.687
309.75
309.814
309.876
309.933
309.98
310.015
310.033
310.033
310.015
309.98
309.933
309.876
309.814
309.75
309.687
309.629
309.587
303.213
303.228
303.247
303.268
303.29
303.31
303.329
303.345
303.357
303.363
303.363
303.357
303.345
303.329
303.31
303.29
303.268
303.247
303.228
303.213
349.048
349.269
349.548
349.848
350.152
350.446
350.713
350.936
351.096
351.18
351.18
351.096
350.936
350.713
350.446
350.152
349.848
349.548
349.269
349.048
342.493
342.68
342.921
343.181
343.444
343.698
343.929
344.122
344.261
344.333
344.333
344.261
344.122
343.929
343.698
343.444
343.181
342.921
342.68
342.493
335.945
336.101
336.304
336.523
336.746
336.96
337.156
337.319
337.436
337.497
337.497
337.436
337.319
337.156
336.96
336.746
336.523
336.304
336.101
335.945
329.404
329.53
329.695
329.874
330.056
330.232
330.392
330.525
330.62
330.671
330.671
330.62
330.525
330.392
330.232
330.056
329.874
329.695
329.53
329.404
322.87
322.966
323.094
323.233
323.375
323.512
323.636
323.739
323.813
323.852
323.852
323.813
323.739
323.636
323.512
323.375
323.233
323.094
322.966
322.87
316.34
316.408
316.499
316.599
316.7
316.797
316.886
316.96
317.013
317.041
317.041
317.013
316.96
316.886
316.797
316.7
316.599
316.499
316.408
316.34
309.813
309.854
309.909
309.969
310.029
310.088
310.141
310.185
310.217
310.234
310.234
310.217
310.185
310.141
310.088
310.029
309.969
309.909
309.854
309.813
303.289
303.303
303.321
303.341
303.362
303.381
303.399
303.414
303.425
303.43
303.43
303.425
303.414
303.399
303.381
303.362
303.341
303.321
303.303
303.289
350.376
350.587
350.851
351.134
351.419
351.693
351.941
352.148
352.296
352.374
352.374
352.296
352.148
351.941
351.693
351.419
351.134
350.851
350.587
350.376
343.643
343.821
344.049
344.293
344.54
344.778
344.993
345.171
345.299
345.367
345.367
345.299
345.171
344.993
344.778
344.54
344.293
344.049
343.821
343.643
336.917
337.065
337.257
337.464
337.672
337.873
338.055
338.206
338.314
338.371
338.371
338.314
338.206
338.055
337.873
337.672
337.464
337.257
337.065
336.917
330.199
330.318
330.474
330.643
330.814
330.978
331.127
331.25
331.339
331.385
331.385
331.339
331.25
331.127
330.978
330.814
330.643
330.474
330.318
330.199
323.487
323.578
323.7
323.831
323.964
324.092
324.207
324.303
324.372
324.408
324.408
324.372
324.303
324.207
324.092
323.964
323.831
323.7
323.578
323.487
316.781
316.845
316.932
317.026
317.121
317.212
317.294
317.363
317.412
317.438
317.438
317.412
317.363
317.294
317.212
317.121
317.026
316.932
316.845
316.781
310.078
310.117
310.169
310.225
310.282
310.337
310.386
310.427
310.457
310.472
310.472
310.457
310.427
310.386
310.337
310.282
310.225
310.169
310.117
310.078
303.378
303.391
303.408
303.427
303.446
303.465
303.481
303.495
303.505
303.51
303.51
303.505
303.495
303.481
303.465
303.446
303.427
303.408
303.391
303.378
351.899
352.098
352.346
352.611
352.876
353.131
353.36
353.55
353.686
353.757
353.757
353.686
353.55
353.36
353.131
352.876
352.611
352.346
352.098
351.899
344.96
345.129
345.343
345.572
345.802
346.022
346.221
346.385
346.503
346.564
346.564
346.503
346.385
346.221
346.022
345.802
345.572
345.343
345.129
344.96
338.031
338.17
338.351
338.545
338.739
338.926
339.093
339.232
339.331
339.383
339.383
339.331
339.232
339.093
338.926
338.739
338.545
338.351
338.17
338.031
331.109
331.221
331.369
331.527
331.686
331.839
331.976
332.089
332.171
332.213
332.213
332.171
332.089
331.976
331.839
331.686
331.527
331.369
331.221
331.109
324.195
324.281
324.395
324.518
324.642
324.761
324.867
324.955
325.019
325.052
325.052
325.019
324.955
324.867
324.761
324.642
324.518
324.395
324.281
324.195
317.286
317.347
317.429
317.516
317.605
317.69
317.766
317.829
317.874
317.897
317.897
317.874
317.829
317.766
317.69
317.605
317.516
317.429
317.347
317.286
310.382
310.418
310.467
310.52
310.573
310.624
310.669
310.707
310.734
310.748
310.748
310.734
310.707
310.669
310.624
310.573
310.52
310.467
310.418
310.382
303.48
303.492
303.508
303.526
303.544
303.561
303.576
303.589
303.598
303.603
303.603
303.598
303.589
303.576
303.561
303.544
303.526
303.508
303.492
303.48
353.617
353.803
354.036
354.282
354.528
354.762
354.973
355.146
355.27
355.334
355.334
355.27
355.146
354.973
354.762
354.528
354.282
354.036
353.803
353.617
346.447
346.605
346.806
347.019
347.232
347.435
347.617
347.767
347.874
347.93
347.93
347.874
347.767
347.617
347.435
347.232
347.019
346.806
346.605
346.447
339.287
339.418
339.587
339.768
339.948
340.12
340.274
340.4
340.491
340.538
340.538
340.491
340.4
340.274
340.12
339.948
339.768
339.587
339.418
339.287
332.136
332.242
332.38
332.527
332.675
332.815
332.941
333.045
333.119
333.157
333.157
333.119
333.045
332.941
332.815
332.675
332.527
332.38
332.242
332.136
324.993
325.074
325.181
325.296
325.41
325.52
325.618
325.698
325.756
325.786
325.786
325.756
325.698
325.618
325.52
325.41
325.296
325.181
325.074
324.993
317.856
317.914
317.99
318.072
318.154
318.232
318.302
318.359
318.4
318.422
318.422
318.4
318.359
318.302
318.232
318.154
318.072
317.99
317.914
317.856
310.724
310.758
310.804
310.853
310.902
310.949
310.991
311.026
311.05
311.063
311.063
311.05
311.026
310.991
310.949
310.902
310.853
310.804
310.758
310.724
303.594
303.606
303.621
303.638
303.654
303.67
303.684
303.696
303.704
303.708
303.708
303.704
303.696
303.684
303.67
303.654
303.638
303.621
303.606
303.594
355.53
355.705
355.921
356.149
356.376
356.591
356.783
356.94
357.052
357.11
357.11
357.052
356.94
356.783
356.591
356.376
356.149
355.921
355.705
355.53
348.103
348.251
348.438
348.635
348.832
349.018
349.184
349.32
349.417
349.468
349.468
349.417
349.32
349.184
349.018
348.832
348.635
348.438
348.251
348.103
340.687
340.81
340.967
341.134
341.3
341.458
341.598
341.713
341.795
341.838
341.838
341.795
341.713
341.598
341.458
341.3
341.134
340.967
340.81
340.687
333.281
333.379
333.508
333.644
333.78
333.909
334.024
334.118
334.185
334.22
334.22
334.185
334.118
334.024
333.909
333.78
333.644
333.508
333.379
333.281
325.883
325.958
326.058
326.164
326.27
326.37
326.459
326.533
326.585
326.612
326.612
326.585
326.533
326.459
326.37
326.27
326.164
326.058
325.958
325.883
318.492
318.545
318.616
318.692
318.768
318.839
318.903
318.955
318.993
319.012
319.012
318.993
318.955
318.903
318.839
318.768
318.692
318.616
318.545
318.492
311.105
311.137
311.18
311.225
311.271
311.314
311.352
311.384
311.406
311.418
311.418
311.406
311.384
311.352
311.314
311.271
311.225
311.18
311.137
311.105
303.722
303.733
303.747
303.763
303.778
303.792
303.805
303.816
303.823
303.827
303.827
303.823
303.816
303.805
303.792
303.778
303.763
303.747
303.733
303.722
357.641
357.803
358.004
358.214
358.422
358.618
358.792
358.934
359.035
359.088
359.088
359.035
358.934
358.792
358.618
358.422
358.214
358.004
357.803
357.641
349.93
350.068
350.241
350.423
350.603
350.773
350.924
351.047
351.134
351.18
351.18
351.134
351.047
350.924
350.773
350.603
350.423
350.241
350.068
349.93
342.231
342.345
342.491
342.645
342.798
342.941
343.069
343.173
343.247
343.285
343.285
343.247
343.173
343.069
342.941
342.798
342.645
342.491
342.345
342.231
334.543
334.635
334.754
334.88
335.004
335.122
335.226
335.311
335.372
335.403
335.403
335.372
335.311
335.226
335.122
335.004
334.88
334.754
334.635
334.543
326.864
326.934
327.027
327.125
327.222
327.313
327.394
327.46
327.507
327.532
327.532
327.507
327.46
327.394
327.313
327.222
327.125
327.027
326.934
326.864
319.192
319.242
319.308
319.378
319.447
319.513
319.571
319.618
319.651
319.669
319.669
319.651
319.618
319.571
319.513
319.447
319.378
319.308
319.242
319.192
311.526
311.556
311.595
311.637
311.679
311.718
311.753
311.781
311.802
311.812
311.812
311.802
311.781
311.753
311.718
311.679
311.637
311.595
311.556
311.526
303.863
303.873
303.886
303.901
303.915
303.928
303.939
303.949
303.956
303.959
303.959
303.956
303.949
303.939
303.928
303.915
303.901
303.886
303.873
303.863
359.949
360.1
360.285
360.478
360.668
360.846
361.003
361.131
361.222
361.269
361.269
361.222
361.131
361.003
360.846
360.668
360.478
360.285
360.1
359.949
351.927
352.055
352.215
352.382
352.547
352.701
352.838
352.948
353.027
353.068
353.068
353.027
352.948
352.838
352.701
352.547
352.382
352.215
352.055
351.927
343.919
344.025
344.16
344.301
344.441
344.571
344.687
344.78
344.847
344.881
344.881
344.847
344.78
344.687
344.571
344.441
344.301
344.16
344.025
343.919
335.923
336.008
336.118
336.234
336.348
336.454
336.549
336.626
336.68
336.708
336.708
336.68
336.626
336.549
336.454
336.348
336.234
336.118
336.008
335.923
327.936
328.002
328.087
328.177
328.266
328.349
328.422
328.482
328.524
328.546
328.546
328.524
328.482
328.422
328.349
328.266
328.177
328.087
328.002
327.936
319.958
320.004
320.065
320.13
320.193
320.252
320.305
320.347
320.378
320.393
320.393
320.378
320.347
320.305
320.252
320.193
320.13
320.065
320.004
319.958
311.986
312.014
312.05
312.089
312.127
312.162
312.194
312.22
312.238
312.247
312.247
312.238
312.22
312.194
312.162
312.127
312.089
312.05
312.014
311.986
304.017
304.027
304.039
304.052
304.065
304.077
304.087
304.096
304.102
304.105
304.105
304.102
304.096
304.087
304.077
304.065
304.052
304.039
304.027
304.017
362.453
362.592
362.763
362.94
363.113
363.274
363.416
363.531
363.612
363.654
363.654
363.612
363.531
363.416
363.274
363.113
362.94
362.763
362.592
362.453
354.094
354.212
354.36
354.513
354.663
354.802
354.925
355.025
355.095
355.132
355.132
355.095
355.025
354.925
354.802
354.663
354.513
354.36
354.212
354.094
345.75
345.848
345.972
346.102
346.229
346.347
346.451
346.535
346.595
346.626
346.626
346.595
346.535
346.451
346.347
346.229
346.102
345.972
345.848
345.75
337.419
337.498
337.599
337.705
337.809
337.906
337.991
338.06
338.109
338.134
338.134
338.109
338.06
337.991
337.906
337.809
337.705
337.599
337.498
337.419
329.1
329.16
329.239
329.321
329.402
329.477
329.543
329.597
329.635
329.655
329.655
329.635
329.597
329.543
329.477
329.402
329.321
329.239
329.16
329.1
320.789
320.832
320.888
320.947
321.004
321.058
321.105
321.144
321.171
321.185
321.185
321.171
321.144
321.105
321.058
321.004
320.947
320.888
320.832
320.789
312.485
312.51
312.544
312.579
312.614
312.646
312.675
312.698
312.714
312.722
312.722
312.714
312.698
312.675
312.646
312.614
312.579
312.544
312.51
312.485
304.185
304.193
304.204
304.216
304.228
304.239
304.248
304.256
304.261
304.264
304.264
304.261
304.256
304.248
304.239
304.228
304.216
304.204
304.193
304.185
365.149
365.277
365.434
365.596
365.753
365.898
366.026
366.129
366.201
366.239
366.239
366.201
366.129
366.026
365.898
365.753
365.596
365.434
365.277
365.149
356.427
356.535
356.671
356.811
356.947
357.073
357.184
357.273
357.336
357.368
357.368
357.336
357.273
357.184
357.073
356.947
356.811
356.671
356.535
356.427
347.721
347.811
347.925
348.043
348.159
348.266
348.359
348.435
348.488
348.515
348.515
348.488
348.435
348.359
348.266
348.159
348.043
347.925
347.811
347.721
339.03
339.102
339.195
339.292
339.386
339.474
339.551
339.612
339.656
339.678
339.678
339.656
339.612
339.551
339.474
339.386
339.292
339.195
339.102
339.03
330.351
330.407
330.479
330.554
330.627
330.696
330.755
330.803
330.837
330.855
330.855
330.837
330.803
330.755
330.696
330.627
330.554
330.479
330.407
330.351
321.682
321.722
321.773
321.827
321.879
321.928
321.971
322.005
322.029
322.042
322.042
322.029
322.005
321.971
321.928
321.879
321.827
321.773
321.722
321.682
313.021
313.045
313.075
313.108
313.139
313.168
313.194
313.215
313.229
313.237
313.237
313.229
313.215
313.194
313.168
313.139
313.108
313.075
313.045
313.021
304.364
304.372
304.382
304.393
304.404
304.414
304.422
304.429
304.434
304.437
304.437
304.434
304.429
304.422
304.414
304.404
304.393
304.382
304.372
304.364
368.025
368.144
368.287
368.434
368.577
368.708
368.823
368.915
368.98
369.013
369.013
368.98
368.915
368.823
368.708
368.577
368.434
368.287
368.144
368.025
358.913
359.013
359.137
359.265
359.388
359.502
359.602
359.682
359.738
359.767
359.767
359.738
359.682
359.602
359.502
359.388
359.265
359.137
359.013
358.913
349.82
349.903
350.008
350.116
350.22
350.317
350.401
350.469
350.516
350.54
350.54
350.516
350.469
350.401
350.317
350.22
350.116
350.008
349.903
349.82
340.744
340.811
340.896
340.984
341.07
341.149
341.218
341.273
341.312
341.332
341.332
341.312
341.273
341.218
341.149
341.07
340.984
340.896
340.811
340.744
331.683
331.734
331.8
331.869
331.935
331.997
332.05
332.093
332.124
332.139
332.139
332.124
332.093
332.05
331.997
331.935
331.869
331.8
331.734
331.683
322.633
322.669
322.716
322.765
322.813
322.857
322.895
322.926
322.947
322.959
322.959
322.947
322.926
322.895
322.857
322.813
322.765
322.716
322.669
322.633
313.591
313.613
313.641
313.671
313.699
313.726
313.749
313.767
313.78
313.787
313.787
313.78
313.767
313.749
313.726
313.699
313.671
313.641
313.613
313.591
304.555
304.563
304.572
304.582
304.592
304.6
304.608
304.614
304.619
304.621
304.621
304.619
304.614
304.608
304.6
304.592
304.582
304.572
304.563
304.555
371.052
371.16
371.292
371.426
371.555
371.674
371.777
371.859
371.917
371.947
371.947
371.917
371.859
371.777
371.674
371.555
371.426
371.292
371.16
371.052
361.525
361.617
361.73
361.846
361.958
362.061
362.151
362.222
362.272
362.298
362.298
362.272
362.222
362.151
362.061
361.958
361.846
361.73
361.617
361.525
352.021
352.098
352.193
352.292
352.387
352.474
352.549
352.61
352.652
352.674
352.674
352.652
352.61
352.549
352.474
352.387
352.292
352.193
352.098
352.021
342.539
342.601
342.679
342.759
342.837
342.908
342.97
343.02
343.054
343.072
343.072
343.054
343.02
342.97
342.908
342.837
342.759
342.679
342.601
342.539
333.075
333.122
333.183
333.245
333.306
333.361
333.41
333.448
333.475
333.489
333.489
333.475
333.448
333.41
333.361
333.306
333.245
333.183
333.122
333.075
323.626
323.659
323.702
323.747
323.79
323.83
323.864
323.892
323.911
323.921
323.921
323.911
323.892
323.864
323.83
323.79
323.747
323.702
323.659
323.626
314.187
314.207
314.233
314.26
314.286
314.31
314.33
314.347
314.358
314.364
314.364
314.358
314.347
314.33
314.31
314.286
314.26
314.233
314.207
314.187
304.755
304.762
304.77
304.779
304.788
304.796
304.803
304.808
304.812
304.814
304.814
304.812
304.808
304.803
304.796
304.788
304.779
304.77
304.762
304.755
374.15
374.251
374.371
374.493
374.611
374.718
374.811
374.885
374.936
374.963
374.963
374.936
374.885
374.811
374.718
374.611
374.493
374.371
374.251
374.15
364.187
364.271
364.375
364.481
364.583
364.676
364.757
364.821
364.866
364.889
364.889
364.866
364.821
364.757
364.676
364.583
364.481
364.375
364.271
364.187
354.256
354.326
354.414
354.504
354.59
354.669
354.737
354.791
354.829
354.849
354.849
354.829
354.791
354.737
354.669
354.59
354.504
354.414
354.326
354.256
344.355
344.411
344.483
344.557
344.627
344.692
344.748
344.792
344.823
344.839
344.839
344.823
344.792
344.748
344.692
344.627
344.557
344.483
344.411
344.355
334.48
334.523
334.579
334.636
334.691
334.741
334.785
334.819
334.844
334.856
334.856
334.844
334.819
334.785
334.741
334.691
334.636
334.579
334.523
334.48
324.625
324.656
324.695
324.736
324.776
324.811
324.843
324.867
324.885
324.894
324.894
324.885
324.867
324.843
324.811
324.776
324.736
324.695
324.656
324.625
314.785
314.804
314.828
314.852
314.876
314.897
314.916
314.931
314.941
314.947
314.947
314.941
314.931
314.916
314.897
314.876
314.852
314.828
314.804
314.785
304.955
304.961
304.969
304.978
304.985
304.993
304.999
305.004
305.007
305.009
305.009
305.007
305.004
304.999
304.993
304.985
304.978
304.969
304.961
304.955
377.125
377.217
377.328
377.441
377.548
377.646
377.73
377.797
377.844
377.868
377.868
377.844
377.797
377.73
377.646
377.548
377.441
377.328
377.217
377.125
366.711
366.789
366.885
366.983
367.076
367.161
367.234
367.292
367.333
367.354
367.354
367.333
367.292
367.234
367.161
367.076
366.983
366.885
366.789
366.711
356.352
356.417
356.498
356.581
356.66
356.732
356.794
356.844
356.878
356.896
356.896
356.878
356.844
356.794
356.732
356.66
356.581
356.498
356.417
356.352
346.043
346.095
346.161
346.229
346.294
346.353
346.404
346.445
346.473
346.487
346.487
346.473
346.445
346.404
346.353
346.294
346.229
346.161
346.095
346.043
335.775
335.816
335.867
335.92
335.97
336.017
336.056
336.088
336.11
336.121
336.121
336.11
336.088
336.056
336.017
335.97
335.92
335.867
335.816
335.775
325.542
325.57
325.607
325.645
325.681
325.714
325.742
325.765
325.781
325.789
325.789
325.781
325.765
325.742
325.714
325.681
325.645
325.607
325.57
325.542
315.332
315.349
315.371
315.394
315.416
315.436
315.453
315.466
315.476
315.481
315.481
315.476
315.466
315.453
315.436
315.416
315.394
315.371
315.349
315.332
305.138
305.144
305.151
305.159
305.166
305.173
305.178
305.183
305.186
305.188
305.188
305.186
305.183
305.178
305.173
305.166
305.159
305.151
305.144
305.138
379.454
379.541
379.645
379.751
379.851
379.942
380.021
380.083
380.126
380.148
380.148
380.126
380.083
380.021
379.942
379.851
379.751
379.645
379.541
379.454
368.613
368.686
368.777
368.869
368.956
369.036
369.104
369.159
369.196
369.216
369.216
369.196
369.159
369.104
369.036
368.956
368.869
368.777
368.686
368.613
357.883
357.944
358.021
358.099
358.173
358.241
358.299
358.345
358.378
358.394
358.394
358.378
358.345
358.299
358.241
358.173
358.099
358.021
357.944
357.883
347.245
347.295
347.358
347.422
347.483
347.538
347.586
347.624
347.651
347.664
347.664
347.651
347.624
347.586
347.538
347.483
347.422
347.358
347.295
347.245
336.681
336.719
336.768
336.818
336.866
336.909
336.947
336.976
336.997
337.007
337.007
336.997
336.976
336.947
336.909
336.866
336.818
336.768
336.719
336.681
326.174
326.201
326.236
326.271
326.306
326.337
326.363
326.385
326.399
326.407
326.407
326.399
326.385
326.363
326.337
326.306
326.271
326.236
326.201
326.174
315.706
315.722
315.743
315.765
315.785
315.804
315.82
315.833
315.842
315.846
315.846
315.842
315.833
315.82
315.804
315.785
315.765
315.743
315.722
315.706
305.262
305.268
305.275
305.282
305.289
305.295
305.3
305.305
305.308
305.309
305.309
305.308
305.305
305.3
305.295
305.289
305.282
305.275
305.268
305.262
)
;

boundaryField
{
    hotSide
    {
        type            fixedGradient;
        gradient        nonuniform List<scalar> 
400
(
482.149
484.181
488.248
494.355
502.51
512.723
525.004
539.366
555.821
574.382
595.061
617.869
642.817
669.914
699.168
730.587
764.176
799.939
837.882
878.006
485.574
487.579
491.592
497.622
505.678
515.773
527.921
542.139
558.442
576.846
597.367
620.018
644.812
671.76
700.872
732.156
765.618
801.263
839.095
879.117
489.28
491.253
495.203
501.14
509.079
519.035
531.028
545.078
561.205
579.43
599.771
622.246
646.868
673.652
702.609
733.746
767.071
802.589
840.304
880.219
493.207
495.142
499.018
504.849
512.652
522.449
534.264
548.124
564.055
582.08
602.222
624.503
648.94
675.547
704.337
735.319
768.501
803.888
841.482
881.287
497.244
499.136
502.93
508.641
516.293
525.914
537.534
551.187
566.903
584.713
604.645
626.721
650.963
677.387
706.006
736.83
769.867
805.121
842.595
882.291
501.223
503.07
506.775
512.359
519.851
529.286
540.702
554.138
569.634
587.224
606.941
628.812
652.859
679.101
707.553
738.223
771.12
806.247
843.607
883.2
504.916
506.718
510.335
515.793
523.126
532.378
543.594
556.821
572.103
589.483
608.996
630.672
654.538
680.612
708.909
739.438
772.208
807.22
844.478
883.979
508.051
509.812
513.349
518.693
525.885
534.974
546.013
559.055
574.151
591.348
610.684
632.195
655.906
681.837
710.004
740.416
773.08
807.998
845.171
884.597
510.345
512.074
515.551
520.809
527.893
536.858
547.763
560.666
575.623
592.683
611.89
633.278
656.875
682.702
710.775
741.102
773.69
808.54
845.653
885.027
511.56
513.273
516.717
521.927
528.952
537.85
548.683
561.511
576.394
593.381
612.518
633.841
657.378
683.151
711.174
741.456
774.004
808.819
845.901
885.247
511.56
513.273
516.717
521.927
528.952
537.85
548.683
561.511
576.394
593.381
612.518
633.841
657.378
683.151
711.174
741.456
774.004
808.819
845.901
885.247
510.345
512.074
515.551
520.809
527.893
536.858
547.763
560.666
575.623
592.683
611.89
633.278
656.875
682.702
710.775
741.102
773.69
808.54
845.653
885.027
508.051
509.812
513.349
518.693
525.885
534.974
546.013
559.055
574.151
591.348
610.684
632.195
655.906
681.837
710.004
740.416
773.08
807.998
845.171
884.597
504.916
506.718
510.335
515.793
523.126
532.378
543.594
556.821
572.103
589.483
608.996
630.672
654.538
680.612
708.909
739.438
772.208
807.22
844.478
883.979
501.223
503.07
506.775
512.359
519.851
529.286
540.702
554.138
569.634
587.224
606.941
628.812
652.859
679.101
707.553
738.223
771.12
806.247
843.607
883.2
497.244
499.136
502.93
508.641
516.293
525.914
537.534
551.187
566.903
584.713
604.645
626.721
650.963
677.387
706.006
736.83
769.867
805.121
842.595
882.291
493.207
495.142
499.018
504.849
512.652
522.449
534.264
548.124
564.055
582.08
602.222
624.503
648.94
675.547
704.337
735.319
768.501
803.888
841.482
881.287
489.28
491.253
495.203
501.14
509.079
519.035
531.028
545.078
561.205
579.43
599.771
622.246
646.868
673.652
702.609
733.746
767.071
802.589
840.304
880.219
485.574
487.579
491.592
497.622
505.678
515.773
527.921
542.139
558.442
576.846
597.367
620.018
644.812
671.76
700.872
732.156
765.618
801.263
839.095
879.117
482.149
484.181
488.248
494.355
502.51
512.723
525.004
539.366
555.821
574.382
595.061
617.869
642.817
669.914
699.168
730.587
764.176
799.939
837.882
878.006
)
;
    }
    coldSide
    {
        type            mixed;
        refValue        uniform 300;
        refGradient     uniform 0;
        valueFraction   uniform 0.991591;
        source          uniform 0;
        value           nonuniform List<scalar> 
400
(
300.025
300.026
300.026
300.026
300.026
300.027
300.028
300.028
300.029
300.03
300.031
300.032
300.034
300.035
300.037
300.038
300.04
300.042
300.043
300.044
300.026
300.026
300.026
300.026
300.027
300.027
300.028
300.029
300.029