/*--------------------------------*- C++ -*----------------------------------*\
| =========                 |                                                 |
| \\      /  F ield         | OpenFOAM: The Open Source CFD Toolbox           |
|  \\    /   O peration     | Version:  2212                                  |
|   \\  /    A nd           | Website:  www.openfoam.com                      |
|    \\/     M anipulation  |                                                 |
\*---------------------------------------------------------------------------*/
FoamFile
{
    version     2.0;
    format      ascii;
    arch        "LSB;label=32;scalar=64";
    class       volScalarField;
    location    "0";
    object      T;
}
// * * * * * * * * * * * * * * * * * * * * * * * * * * * * * * * * * * * * * //

dimensions      [0 0 0 1 0 0 0];

internalField   nonuniform List<scalar> 
3200
(
354.5
352.901
351.453
351.062
351.039
351.448
352.026
352.623
353.281
353.495
353.763
353.571
353.358
352.739
352.213
351.755
351.595
352.034
353.117
354.629
347.113
345.782
344.555
344.244
344.222
344.558
345.054
345.564
346.149
346.322
346.555
346.393
346.217
345.686
345.227
344.834
344.681
345.083
345.993
347.249
339.794
338.685
337.677
337.418
337.418
337.692
338.106
338.533
339.022
339.155
339.353
339.252
339.091
338.65
338.235
337.92
337.784
338.137
338.885
339.927
332.504
331.637
330.814
330.612
330.639
330.837
331.171
331.504
331.908
332.002
332.176
332.127
331.977
331.634
331.265
331.005
330.894
331.21
331.792
332.64
325.248
324.595
323.961
323.806
323.88
323.982
324.254
324.515
324.8
324.873
325.012
324.973
324.884
324.625
324.308
324.103
324.02
324.276
324.706
325.353
318.024
317.575
317.106
316.997
317.084
317.152
317.353
317.531
317.7
317.747
317.868
317.835
317.779
317.591
317.374
317.205
317.145
317.355
317.62
318.103
310.805
310.543
310.265
310.202
310.257
310.313
310.432
310.535
310.637
310.625
310.727
310.711
310.683
310.556
310.443
310.323
310.281
310.406
310.568
310.874
303.617
303.536
303.439
303.422
303.443
303.462
303.503
303.531
303.57
303.563
303.598
303.58
303.587
303.55
303.498
303.457
303.436
303.479
303.539
303.644
354.752
353.089
351.763
351.392
351.322
351.876
352.483
353.02
353.616
354.062
354.302
354.152
353.815
353.198
352.476
352.031
351.839
352.194
353.365
354.88
347.355
345.954
344.832
344.511
344.446
344.939
345.451
345.906
346.433
346.802
346.998
346.87
346.589
346.054
345.446
345.081
344.887
345.201
346.246
347.477
340.02
338.859
337.92
337.639
337.576
338.001
338.449
338.79
339.244
339.579
339.73
339.608
339.362
338.923
338.424
338.137
337.946
338.234
339.134
340.12
332.726
331.757
330.991
330.785
330.753
331.085
331.465
331.712
332.08
332.37
332.483
332.372
332.169
331.829
331.418
331.191
331.016
331.293
332.029
332.816
325.443
324.705
324.079
323.929
323.942
324.165
324.475
324.658
324.924
325.171
325.257
325.159
324.979
324.748
324.429
324.248
324.104
324.364
324.901
325.519
318.189
317.667
317.192
317.088
317.125
317.289
317.482
317.598
317.782
317.977
318.041
317.955
317.83
317.669
317.471
317.316
317.219
317.428
317.773
318.227
310.916
310.62
310.311
310.265
310.288
310.393
310.509
310.552
310.662
310.8
310.825
310.763
310.698
310.61
310.501
310.395
310.347
310.485
310.669
310.926
303.651
303.564
303.451
303.44
303.444
303.484
303.525
303.525
303.575
303.616
303.63
303.596
303.587
303.558
303.51
303.479
303.461
303.516
303.57
303.663
355.228
353.535
352.271
351.924
351.898
352.305
353.182
353.84
354.402
354.971
355.134
354.861
354.601
354.018
353.157
352.712
352.36
352.585
353.774
355.287
347.783
346.34
345.268
344.975
344.937
345.275
346.052
346.617
347.108
347.61
347.724
347.493
347.273
346.767
346.03
345.687
345.361
345.555
346.577
347.857
340.385
339.175
338.303
338.06
338.004
338.291
338.944
339.404
339.83
340.232
340.354
340.15
339.956
339.536
338.919
338.671
338.359
338.544
339.394
340.422
333.013
332.02
331.328
331.147
331.078
331.347
331.836
332.219
332.562
332.884
333.004
332.813
332.677
332.341
331.833
331.65
331.39
331.523
332.23
333.039
325.647
324.883
324.354
324.247
324.171
324.419
324.772
325.042
325.32
325.565
325.655
325.502
325.422
325.156
324.739
324.61
324.437
324.507
325.081
325.685
318.308
317.756
317.36
317.334
317.294
317.463
317.691
317.876
318.06
318.266
318.317
318.239
318.163
317.977
317.682
317.569
317.461
317.531
317.945
318.357
310.99
310.664
310.395
310.396
310.386
310.491
310.615
310.732
310.835
310.979
311
310.953
310.911
310.798
310.605
310.563
310.468
310.534
310.796
311.038
303.672
303.581
303.47
303.486
303.482
303.521
303.558
303.59
303.631
303.688
303.694
303.679
303.662
303.629
303.548
303.543
303.512
303.527
303.614
303.702
356.04
354.288
353.121
352.616
352.9
353.169
354.078
354.868
355.584
356.176
356.35
356.146
355.653
355.003
354.243
353.65
353.252
353.356
354.378
355.956
348.478
346.989
346.025
345.58
345.821
346.04
346.824
347.526
348.121
348.62
348.755
348.597
348.178
347.631
347.003
346.479
346.118
346.211
347.105
348.412
340.958
339.719
338.936
338.556
338.764
338.935
339.597
340.191
340.688
341.076
341.2
341.084
340.71
340.303
339.776
339.311
338.994
339.06
339.849
340.902
333.457
332.467
331.855
331.52
331.707
331.877
332.386
332.875
333.275
333.565
333.692
333.612
333.297
332.977
332.56
332.159
331.883
331.941
332.605
333.405
325.975
325.235
324.783
324.504
324.66
324.801
325.166
325.581
325.87
326.088
326.179
326.139
325.899
325.658
325.314
325.003
324.805
324.836
325.375
325.943
318.53
318.022
317.698
317.493
317.623
317.715
317.969
318.264
318.478
318.619
318.707
318.677
318.516
318.354
318.058
317.855
317.735
317.756
318.128
318.503
311.12
310.831
310.625
310.498
310.595
310.639
310.785
310.958
311.086
311.195
311.233
311.196
311.127
311.014
310.831
310.716
310.662
310.668
310.897
311.105
303.737
303.636
303.553
303.521
303.543
303.56
303.614
303.669
303.73
303.756
303.765
303.743
303.731
303.689
303.634
303.592
303.57
303.582
303.659
303.725
356.869
355.375
354.278
353.871
353.958
354.252
355.197
355.927
356.787
357.471
357.631
357.559
357.025
356.238
355.589
354.785
354.467
354.588
355.534
356.932
349.2
347.936
347.012
346.667
346.731
346.953
347.829
348.405
349.164
349.752
349.892
349.842
349.381
348.687
348.164
347.451
347.175
347.285
348.102
349.253
341.58
340.515
339.759
339.465
339.534
339.707
340.45
340.916
341.579
342.059
342.187
342.126
341.754
341.161
340.747
340.122
339.888
339.98
340.677
341.617
333.98
333.12
332.526
332.293
332.332
332.464
333.094
333.472
334.025
334.374
334.487
334.439
334.143
333.675
333.317
332.798
332.631
332.688
333.25
334.004
326.413
325.744
325.286
325.113
325.139
325.237
325.72
326.032
326.462
326.707
326.818
326.787
326.531
326.204
325.898
325.506
325.396
325.4
325.86
326.423
318.888
318.41
318.073
317.933
317.952
318.027
318.374
318.604
318.905
319.056
319.146
319.137
318.945
318.716
318.51
318.213
318.155
318.116
318.466
318.857
311.365
311.056
310.854
310.773
310.798
310.815
311.025
311.177
311.341
311.429
311.502
311.51
311.388
311.22
311.109
310.946
310.917
310.886
311.089
311.32
303.806
303.713
303.638
303.626
303.627
303.626
303.704
303.753
303.785
303.826
303.858
303.861
303.825
303.752
303.724
303.667
303.661
303.653
303.708
303.8
358.22
356.692
355.531
355.194
355.307
355.599
356.503
357.331
358.216
358.905
359.123
359.02
358.613
357.647
356.89
356.209
355.797
356.118
356.918
358.237
350.359
349.099
348.092
347.817
347.912
348.147
348.947
349.628
350.375
350.986
351.184
351.102
350.751
349.907
349.273
348.689
348.329
348.606
349.309
350.39
342.544
341.513
340.645
340.465
340.521
340.721
341.39
341.967
342.589
343.091
343.257
343.203
342.934
342.187
341.666
341.174
340.887
341.132
341.712
342.584
334.78
333.946
333.227
333.103
333.148
333.318
333.845
334.318
334.812
335.232
335.38
335.309
335.128
334.491
334.045
333.664
333.451
333.675
334.118
334.798
327.036
326.4
325.835
325.754
325.798
325.911
326.316
326.698
327.058
327.398
327.507
327.452
327.301
326.823
326.467
326.185
325.994
326.214
326.522
327.032
319.307
318.869
318.468
318.418
318.427
318.513
318.811
319.071
319.315
319.579
319.637
319.632
319.514
319.159
318.893
318.702
318.553
318.745
318.923
319.283
311.599
311.33
311.101
311.06
311.066
311.118
311.31
311.437
311.603
311.758
311.788
311.79
311.735
311.498
311.341
311.223
311.136
311.277
311.354
311.574
303.889
303.798
303.725
303.714
303.701
303.721
303.793
303.831
303.897
303.944
303.942
303.959
303.935
303.857
303.802
303.763
303.733
303.772
303.799
303.871
359.572
358.263
357.08
356.642
356.877
357.142
358.016
358.789
359.706
360.445
360.66
360.607
360.212
359.205
358.361
357.655
357.362
357.674
358.476
359.686
351.535
350.444
349.42
349.063
349.268
349.476
350.247
350.907
351.682
352.328
352.512
352.474
352.133
351.244
350.541
349.942
349.691
349.981
350.641
351.636
343.54
342.631
341.776
341.491
341.659
341.829
342.494
343.054
343.707
344.245
344.4
344.382
344.085
343.309
342.738
342.262
341.973
342.257
342.829
343.618
335.591
334.852
334.158
333.956
334.074
334.215
334.765
335.221
335.744
336.181
336.306
336.308
336.041
335.4
334.952
334.589
334.312
334.551
335.014
335.661
327.678
327.09
326.568
326.417
326.509
326.615
327.041
327.397
327.806
328.129
328.233
328.257
328.006
327.534
327.169
326.914
326.709
326.864
327.236
327.741
319.747
319.346
318.977
318.867
318.947
319.024
319.318
319.598
319.87
320.093
320.164
320.194
320.003
319.675
319.414
319.241
319.09
319.196
319.446
319.814
311.851
311.612
311.392
311.321
311.378
311.414
311.605
311.786
311.939
312.08
312.109
312.117
312.013
311.819
311.643
311.564
311.467
311.533
311.663
311.903
303.975
303.885
303.818
303.787
303.812
303.831
303.885
303.947
303.994
304.056
304.063
304.068
304.03
303.958
303.9
303.886
303.847
303.872
303.904
303.987
361.244
359.924
358.885
358.343
358.494
358.848
359.559
360.396
361.335
361.98
362.43
362.239
361.719
360.803
359.936
359.375
359.016
359.334
360.203
361.376
352.98
351.873
350.974
350.524
350.68
350.955
351.578
352.297
353.128
353.66
354.052
353.911
353.455
352.642
351.889
351.416
351.123
351.415
352.145
353.12
344.747
343.871
343.072
342.733
342.863
343.099
343.614
344.223
344.923
345.38
345.698
345.611
345.207
344.525
343.87
343.479
343.244
343.508
344.089
344.873
336.57
335.873
335.178
334.962
335.062
335.226
335.675
336.169
336.716
337.119
337.38
337.308
336.974
336.411
335.865
335.554
335.395
335.587
336.037
336.665
328.429
327.882
327.344
327.184
327.273
327.391
327.735
328.128
328.558
328.861
329.071
329.026
328.731
328.326
327.891
327.649
327.559
327.666
327.997
328.491
320.303
319.93
319.533
319.426
319.474
319.565
319.804
320.104
320.421
320.612
320.771
320.735
320.503
320.234
319.938
319.765
319.688
319.738
319.982
320.377
312.195
311.973
311.738
311.686
311.688
311.752
311.898
312.075
312.258
312.391
312.483
312.442
312.311
312.146
311.963
311.884
311.831
311.836
311.994
312.229
304.088
304.013
303.936
303.918
303.918
303.934
303.998
304.052
304.109
304.155
304.187
304.17
304.125
304.064
304.011
303.989
303.967
303.973
304.006
304.097
363.146
361.829
360.71
360.218
360.1
360.433
361.089
361.907
362.822
363.614
363.997
363.811
363.392
362.452
361.729
361.209
360.823
361.204
362.002
363.156
354.64
353.543
352.565
352.142
352.046
352.341
352.875
353.592
354.376
355.058
355.406
355.24
354.87
354.052
353.462
353.01
352.682
353.004
353.685
354.663
346.183
345.257
344.42
344.098
344.028
344.264
344.707
345.314
345.975
346.573
346.848
346.708
346.361
345.68
345.215
344.83
344.561
344.83
345.378
346.201
337.741
337.014
336.328
336.083
336.024
336.207
336.55
337.058
337.59
338.095
338.3
338.193
337.896
337.346
336.999
336.65
336.452
336.671
337.088
337.746
329.338
328.774
328.258
328.091
328.024
328.161
328.433
328.812
329.236
329.646
329.776
329.697
329.47
329.032
328.769
328.509
328.337
328.511
328.828
329.323
320.952
320.554
320.203
320.065
320.024
320.116
320.311
320.576
320.894
321.188
321.262
321.207
321.054
320.748
320.577
320.362
320.245
320.351
320.601
320.927
312.585
312.346
312.143
312.05
312.032
312.084
312.209
312.35
312.539
312.742
312.751
312.734
312.645
312.464
312.367
312.247
312.163
312.214
312.379
312.555
304.22
304.152
304.073
304.044
304.032
304.055
304.102
304.137
304.198
304.276
304.263
304.267
304.241
304.171
304.158
304.127
304.079
304.081
304.145
304.197
364.942
363.71
362.644
362.076
361.935
362.309
362.869
363.763
364.518
365.118
365.506
365.521
364.959
364.214
363.45
362.816
362.68
363.011
363.692
364.893
356.181
355.169
354.24
353.756
353.633
353.964
354.424
355.207
355.841
356.387
356.73
356.717
356.257
355.64
354.936
354.396
354.245
354.582
355.165
356.161
347.481
346.646
345.865
345.447
345.373
345.658
346.016
346.682
347.199
347.67
347.979
347.941
347.579
347.068
346.463
345.996
345.863
346.163
346.646
347.475
338.83
338.131
337.492
337.172
337.131
337.359
337.63
338.172
338.6
338.98
339.236
339.193
338.931
338.507
338.026
337.643
337.489
337.746
338.134
338.811
330.196
329.65
329.151
328.917
328.894
329.059
329.287
329.673
329.991
330.322
330.512
330.447
330.306
329.955
329.596
329.294
329.153
329.352
329.65
330.168
321.578
321.178
320.831
320.678
320.644
320.775
320.936
321.182
321.401
321.661
321.809
321.724
321.655
321.426
321.17
320.921
320.836
320.966
321.197
321.539
312.94
312.712
312.516
312.442
312.394
312.486
312.582
312.718
312.827
313.021
313.1
313.039
312.991
312.897
312.713
312.556
312.527
312.611
312.741
312.924
304.34
304.258
304.189
304.166
304.148
304.184
304.227
304.269
304.294
304.373
304.392
304.372
304.352
304.327
304.272
304.199
304.192
304.227
304.281
304.319
366.999
365.769
364.645
364.005
363.855
364.105
364.673
365.422
366.193
366.693
367.122
367.108
366.491
365.924
365.175
364.667
364.503
364.884
365.525
366.667
357.974
356.937
355.986
355.439
355.292
355.505
356.004
356.649
357.308
357.756
358.106
358.088
357.576
357.093
356.445
356.013
355.88
356.2
356.741
357.696
348.985
348.128
347.341
346.899
346.768
346.961
347.333
347.904
348.452
348.857
349.135
349.099
348.692
348.264
347.722
347.37
347.252
347.547
347.979
348.762
340.045
339.352
338.718
338.362
338.256
338.429
338.695
339.164
339.612
339.945
340.189
340.133
339.816
339.466
339.031
338.715
338.66
338.886
339.255
339.866
331.13
330.598
330.09
329.831
329.764
329.918
330.097
330.44
330.793
331.07
331.269
331.19
330.959
330.718
330.347
330.096
330.069
330.215
330.526
330.985
322.246
321.872
321.498
321.301
321.254
321.386
321.501
321.745
321.995
322.205
322.345
322.277
322.126
321.957
321.69
321.502
321.484
321.565
321.807
322.128
313.372
313.135
312.92
312.79
312.756
312.832
312.912
313.045
313.199
313.324
313.411
313.394
313.311
313.183
313.032
312.904
312.893
312.941
313.106
313.29
304.481
304.4
304.333
304.288
304.274
304.3
304.325
304.365
304.426
304.46
304.493
304.5
304.457
304.415
304.364
304.313
304.317
304.332
304.389
304.458
368.965
367.716
366.642
365.984
365.819
365.939
366.511
367.251
367.853
368.338
368.58
368.509
368.064
367.586
366.916
366.522
366.371
366.689
367.4
368.488
359.69
358.63
357.713
357.141
357.013
357.106
357.592
358.255
358.758
359.184
359.363
359.303
358.947
358.538
357.974
357.609
357.476
357.758
358.346
359.26
350.462
349.578
348.797
348.327
348.219
348.295
348.694
349.273
349.69
350.054
350.185
350.131
349.847
349.483
349.069
348.7
348.602
348.841
349.326
350.096
341.256
340.562
339.902
339.543
339.455
339.49
339.807
340.28
340.632
340.921
341.029
340.99
340.775
340.474
340.163
339.786
339.729
339.937
340.331
340.962
332.083
331.542
331.028
330.757
330.703
330.72
330.929
331.31
331.596
331.835
331.899
331.858
331.696
331.466
331.241
330.909
330.88
331.037
331.36
331.858
322.916
322.544
322.168
321.97
321.949
321.967
322.101
322.348
322.58
322.755
322.794
322.754
322.616
322.473
322.323
322.077
322.039
322.174
322.411
322.764
313.752
313.538
313.311
313.202
313.178
313.181
313.291
313.414
313.561
313.67
313.678
313.67
313.58
313.508
313.412
313.251
313.217
313.304
313.456
313.674
304.6
304.536
304.461
304.435
304.413
304.415
304.455
304.488
304.54
304.579
304.584
304.587
304.553
304.529
304.491
304.441
304.427
304.466
304.512
304.58
371.018
369.806
368.741
368.12
367.772
367.809
368.314
368.912
369.407
369.911
370.109
370.073
369.616
369.201
368.63
368.229
368.208
368.669
369.461
370.507
361.435
360.452
359.518
359.036
358.677
358.727
359.166
359.697
360.089
360.526
360.691
360.676
360.279
359.924
359.446
359.092
359.078
359.47
360.144
361.046
351.913
351.125
350.317
349.962
349.637
349.657
350.025
350.493
350.793
351.178
351.299
351.297
350.953
350.645
350.287
349.974
349.962
350.279
350.863
351.611
342.415
341.825
341.157
340.875
340.612
340.623
340.914
341.268
341.524
341.83
341.945
341.969
341.654
341.4
341.138
340.859
340.864
341.123
341.604
342.195
332.948
332.515
332.009
331.812
331.607
331.606
331.797
332.081
332.27
332.51
332.62
332.657
332.384
332.199
331.997
331.756
331.77
331.963
332.371
332.813
323.541
323.238
322.858
322.738
322.61
322.583
322.72
322.917
323.054
323.208
323.277
323.34
323.134
322.998
322.855
322.683
322.694
322.842
323.114
323.449
314.122
313.969
313.718
313.673
313.567
313.559
313.643
313.758
313.854
313.928
313.965
314.019
313.892
313.8
313.723
313.621
313.618
313.712
313.868
314.095
304.728
304.67
304.595
304.58
304.544
304.542
304.577
304.612
304.643
304.662
304.678
304.701
304.664
304.624
304.587
304.562
304.566
304.604
304.643
304.725
372.936
371.8
370.766
370.154
369.785
369.788
370.175
370.597
371.058
371.492
371.618
371.517
371.227
370.836
370.389
370.132
370.157
370.586
371.365
372.455
363.108
362.16
361.266
360.758
360.419
360.423
360.788
361.148
361.519
361.902
362.026
361.925
361.714
361.344
360.981
360.756
360.768
361.12
361.831
362.734
353.342
352.544
351.792
351.376
351.085
351.083
351.415
351.714
352.01
352.341
352.459
352.358
352.206
351.874
351.581
351.387
351.375
351.675
352.311
353.038
343.597
342.953
342.341
342.013
341.786
341.766
342.054
342.301
342.567
342.799
342.886
342.81
342.705
342.427
342.21
342.037
342.022
342.255
342.789
343.347
333.92
333.404
332.916
332.67
332.496
332.475
332.686
332.89
333.134
333.275
333.328
333.294
333.209
332.97
332.82
332.688
332.694
332.846
333.266
333.684
324.242
323.869
323.518
323.339
323.219
323.215
323.343
323.499
323.688
323.758
323.801
323.776
323.724
323.524
323.431
323.345
323.351
323.465
323.741
324.058
314.568
314.337
314.131
314.007
313.948
313.935
314.005
314.114
314.224
314.261
314.293
314.281
314.252
314.115
314.089
314.006
314.015
314.095
314.256
314.445
304.88
304.818
304.746
304.686
304.676
304.676
304.692
304.74
304.773
304.767
304.802
304.79
304.783
304.729
304.714
304.691
304.693
304.736
304.781
304.843
375.169
373.882
372.787
372.128
371.752
371.739
371.817
372.293
372.702
372.943
373.02
372.989
372.727
372.355
371.995
371.9
372.012
372.399
373.399
374.323
365.068
363.972
363.034
362.478
362.138
362.139
362.216
362.607
362.944
363.152
363.218
363.206
362.995
362.651
362.354
362.271
362.363
362.705
363.574
364.37
355.009
354.102
353.298
352.838
352.554
352.566
352.645
352.964
353.226
353.397
353.487
353.446
353.262
352.97
352.726
352.664
352.734
353.026
353.746
354.419
344.985
344.255
343.586
343.235
342.967
342.984
343.073
343.331
343.532
343.682
343.75
343.691
343.55
343.319
343.139
343.079
343.132
343.369
343.962
344.504
334.964
334.432
333.872
333.62
333.41
333.424
333.519
333.714
333.841
333.968
334.019
333.973
333.856
333.661
333.55
333.498
333.519
333.721
334.185
334.605
324.981
324.604
324.182
324.032
323.857
323.884
323.937
324.103
324.182
324.279
324.293
324.266
324.179
324.041
323.983
323.92
323.932
324.073
324.431
324.713
314.989
314.769
314.514
314.437
314.329
314.35
314.368
314.488
314.523
314.575
314.595
314.562
314.496
314.429
314.401
314.351
314.354
314.454
314.672
314.837
305.023
304.939
304.862
304.842
304.797
304.811
304.823
304.86
304.865
304.884
304.89
304.877
304.872
304.833
304.827
304.81
304.803
304.854
304.916
304.96
377.304
376.036
374.903
374.151
373.784
373.64
373.69
374.136
374.257
374.462
374.623
374.615
374.45
374.15
373.836
373.787
373.887
374.36
375.131
376.224
366.892
365.844
364.878
364.217
363.89
363.768
363.807
364.213
364.312
364.49
364.628
364.605
364.49
364.202
363.959
363.905
364.038
364.398
365.069
365.994
356.565
355.693
354.881
354.305
354.015
353.928
353.969
354.31
354.384
354.508
354.656
354.647
354.535
354.315
354.1
354.064
354.169
354.462
355.033
355.781
346.244
345.559
344.9
344.433
344.175
344.107
344.15
344.434
344.475
344.55
344.706
344.694
344.592
344.434
344.265
344.239
344.311
344.534
344.988
345.598
335.95
335.442
334.908
334.57
334.34
334.28
334.345
334.565
334.576
334.641
334.754
334.768
334.657
334.547
334.436
334.404
334.45
334.635
334.966
335.428
325.691
325.313
324.906
324.716
324.526
324.476
324.541
324.682
324.675
324.746
324.838
324.835
324.774
324.669
324.578
324.586
324.598
324.734
324.979
325.282
315.43
315.205
314.949
314.857
314.707
314.699
314.745
314.814
314.802
314.861
314.92
314.913
314.871
314.817
314.743
314.781
314.771
314.85
315.004
315.168
305.171
305.098
305.021
304.977
304.921
304.927
304.947
304.963
304.951
304.987
305.002
304.999
304.979
304.972
304.949
304.959
304.964
304.977
305.022
305.086
379.323
378.233
377.075
376.268
375.824
375.561
375.613
375.864
375.975
376.097
376.072
376.13
376.004
375.786
375.726
375.691
375.77
376.304
377.168
378.299
368.644
367.765
366.745
366.036
365.65
365.432
365.457
365.7
365.794
365.916
365.869
365.913
365.821
365.644
365.59
365.577
365.657
366.097
366.831
367.799
358.046
357.321
356.436
355.815
355.503
355.324
355.344
355.575
355.65
355.747
355.712
355.72
355.672
355.498
355.481
355.486
355.552
355.883
356.504
357.328
347.467
346.888
346.153
345.625
345.39
345.245
345.256
345.441
345.533
345.585
345.573
345.559
345.538
345.407
345.414
345.405
345.455
345.69
346.208
346.866
336.91
336.464
335.897
335.461
335.304
335.191
335.176
335.328
335.387
335.458
335.446
335.432
335.415
335.317
335.332
335.31
335.356
335.524
335.924
336.429
326.363
326.047
325.644
325.318
325.222
325.155
325.108
325.233
325.277
325.334
325.318
325.314
325.314
325.226
325.239
325.24
325.259
325.393
325.665
326.03
315.839
315.641
315.404
315.189
315.145
315.125
315.074
315.142
315.175
315.202
315.214
315.209
315.22
315.146
315.157
315.165
315.16
315.248
315.391
315.612
305.31
305.242
305.166
305.083
305.079
305.073
305.045
305.066
305.091
305.097
305.11
305.098
305.098
305.078
305.073
305.085
305.077
305.111
305.157
305.23
381.287
380.235
379.079
378.203
377.617
377.48
377.406
377.519
377.756
377.659
377.642
377.763
377.673
377.49
377.507
377.442
377.714
378.222
379.094
380.315
370.338
369.459
368.457
367.723
367.193
367.082
367.01
367.102
367.337
367.243
367.208
367.324
367.27
367.096
367.15
367.061
367.293
367.72
368.495
369.542
359.459
358.705
357.877
357.272
356.804
356.715
356.665
356.729
356.935
356.858
356.833
356.918
356.881
356.729
356.808
356.706
356.925
357.272
357.907
358.791
348.639
347.974
347.322
346.828
346.426
346.376
346.352
346.374
346.564
346.499
346.482
346.557
346.534
346.422
346.497
346.372
346.561
346.861
347.373
348.076
337.819
337.295
336.795
336.406
336.071
336.06
336.056
336.071
336.216
336.151
336.121
336.211
336.186
336.115
336.184
336.051
336.206
336.444
336.848
337.374
327.016
326.626
326.286
326.012
325.744
325.756
325.739
325.78
325.877
325.804
325.785
325.875
325.864
325.824
325.873
325.749
325.877
326.045
326.312
326.699
316.226
315.997
315.806
315.623
315.438
315.464
315.453
315.477
315.549
315.492
315.464
315.539
315.545
315.518
315.553
315.458
315.546
315.647
315.792
316.033
305.441
305.368
305.301
305.231
305.176
305.193
305.173
305.185
305.218
305.194
305.179
305.207
305.212
305.202
305.216
305.186
305.207
305.251
305.287
305.376
383.23
382.087
380.844
380.126
379.415
379.221
379.1
379.031
379.256
379.287
379.125
379.222
379.174
378.896
379.072
379.154
379.382
380.029
380.923
382.057
371.993
371.029
369.974
369.333
368.712
368.57
368.478
368.417
368.615
368.638
368.504
368.589
368.56
368.312
368.449
368.526
368.725
369.299
370.035
371.008
360.828
360.005
359.146
358.586
358.076
357.974
357.897
357.839
358.03
358.023
357.884
358.007
357.96
357.76
357.9
357.936
358.088
358.597
359.206
359.996
349.703
349.023
348.345
347.878
347.474
347.408
347.349
347.309
347.457
347.425
347.307
347.432
347.384
347.223
347.359
347.356
347.489
347.928
348.41
349.036
338.634
338.087
337.57
337.21
336.9
336.858
336.816
336.803
336.91
336.872
336.75
336.891
336.823
336.708
336.823
336.82
336.907
337.276
337.637
338.115
327.587
327.179
326.832
326.575
326.353
326.329
326.302
326.302
326.368
326.322
326.23
326.343
326.292
326.224
326.318
326.307
326.364
326.624
326.885
327.222
316.581
316.314
316.102
315.959
315.821
315.806
315.796
315.796
315.846
315.809
315.73
315.815
315.781
315.752
315.796
315.805
315.822
315.993
316.152
316.359
305.568
305.455
305.393
305.357
305.299
305.295
305.297
305.281
305.318
305.305
305.271
305.303
305.293
305.287
305.301
305.297
305.309
305.353
305.421
305.496
384.698
383.492
382.162
381.517
380.831
380.591
380.353
380.247
380.342
380.399
380.312
380.38
380.323
380.224
380.346
380.481
380.799
381.431
382.392
383.318
373.218
372.172
371.048
370.504
369.881
369.705
369.513
369.401
369.499
369.547
369.474
369.544
369.498
369.392
369.516
369.636
369.905
370.441
371.233
372.044
361.805
360.935
359.997
359.587
359.006
358.895
358.733
358.628
358.725
358.758
358.688
358.77
358.727
358.616
358.711
358.83
359.069
359.508
360.152
360.861
350.486
349.758
348.986
348.708
348.217
348.124
347.989
347.912
348
348.024
347.969
348.041
347.988
347.895
347.99
348.07
348.275
348.63
349.149
349.736
339.216
338.644
338.068
337.862
337.478
337.386
337.284
337.24
337.297
337.339
337.273
337.345
337.276
337.209
337.297
337.362
337.499
337.816
338.206
338.643
327.992
327.579
327.166
327.039
326.762
326.685
326.625
326.593
326.625
326.663
326.606
326.662
326.618
326.55
326.637
326.68
326.781
327.035
327.294
327.581
316.777
316.552
316.315
316.242
316.076
316.016
315.988
315.983
315.981
316.005
315.98
316.018
315.978
315.928
315.999
316.01
316.069
316.249
316.395
316.566
305.616
305.542
305.468
305.449
305.386
305.383
305.358
305.364
305.347
305.366
305.362
305.364
305.35
305.341
305.372
305.355
305.381
305.44
305.487
305.556
)
;

boundaryField
{
    hotSide
    {
        type            fixedGradient;
        gradient        nonuniform List<scalar> 
400
(
596.017
596.425
600.514
608.201
619.138
632.825
648.719
666.326
685.237
705.128
725.756
746.943
768.564
790.534
812.804
835.352
858.172
881.274
904.667
928.352
570.45
571.061
575.61
583.991
595.785
610.4
627.215
645.686
665.371
685.935
707.133
728.789
750.785
773.047
795.537
818.245
841.181
864.368
887.829
911.574
554.674
555.81
560.84
569.651
581.827
596.781
613.898
632.63
652.533
673.266
694.58
716.3
738.308
760.537
782.955
805.559
828.369
851.413
874.722
898.315
548.112
550.069
555.62
564.65
576.808
591.593
608.463
626.916
646.525
666.954
687.952
709.34
731.002
752.87
774.919
797.149
819.583
842.253
865.192
888.421
548.39
551.33
557.474
566.707
578.741
593.175
609.558
627.451
646.464
666.275
686.64
707.382
728.39
749.603
771.003
792.597
814.413
836.486
858.85
881.531
552.815
556.79
563.623
573.186
585.232
599.424
615.379
632.711
651.063
670.136
689.699
709.591
729.718
750.038
770.551
791.281
812.267
833.552
855.173
877.161
559.205
564.211
571.82
581.889
594.179
608.382
624.143
641.094
658.897
677.265
695.986
714.926
734.027
753.284
772.732
792.426
812.426
832.787
853.555
874.764
565.932
571.916
580.349
591.071
603.837
618.332
634.189
651.027
668.487
686.279
704.204
722.17
740.173
758.271
776.556
795.126
814.068
833.454
853.338
873.754
571.758
578.59
587.812
599.248
612.64
627.647
643.863
660.854
678.206
695.595
712.831
729.872
746.796
763.745
780.884
798.36
816.292
834.767
853.84
873.542
575.722
583.172
593.017
605.077
619.083
634.666
651.371
668.688
686.124
703.298
720.016
736.295
752.307
768.29
784.48
801.069
818.2
835.966
854.421
873.592
577.166
584.884
595.039
607.451
621.843
637.826
654.91
672.529
690.121
707.253
723.725
739.595
755.104
770.553
786.223
802.336
819.044
836.444
854.589
873.501
575.818
583.382
593.435
605.797
620.184
636.202
653.348
671.051
688.744
705.989
722.582
738.571
754.19
769.737
785.491
801.676
818.447
835.908
854.114
873.09
571.895
578.887
588.439
600.37
614.389
630.104
647.026
664.621
682.373
699.883
716.94
733.544
749.85
766.087
782.492
799.265
816.56
834.485
853.105
872.455
566.13
572.218
580.988
592.263
605.749
621.05
637.699
655.202
673.099
691.028
708.77
726.263
743.571
760.836
778.231
795.92
814.046
832.718
852.012
871.971
559.765
564.734
572.596
583.181
596.185
611.194
627.735
645.328
663.536
682.012
700.526
718.966
737.329
755.684
774.146
792.846
811.91
831.446
851.536
872.231
554.572
558.323
565.275
575.269
587.966
602.903
619.562
637.436
656.084
675.157
694.412
713.71
733.005
752.322
771.737
791.355
811.292
831.656
852.534
873.982
552.94
555.489
561.601
571.124
583.663
598.668
615.546
633.748
652.815
672.391
692.231
712.183
732.18
752.224
772.367
792.7
813.334
834.383
855.937
878.052
557.783
559.291
564.649
573.714
586.033
600.978
617.896
636.204
655.436
675.239
695.369
715.672
736.073
756.558
777.164
797.97
819.085
840.62
862.672
885.292
571.694
572.478
577.153
585.589
597.336
611.767
628.233
646.161
665.095
684.693
704.714
725.004
745.476
766.104
786.91
807.958
829.339
851.158
873.498
896.403
595.426
595.843
599.895
607.477
618.219
631.592
647.03
664.021
682.142
701.068
720.563
740.466
760.681
781.164
801.92
822.987
844.432
866.329
888.739
911.692
)
;
    }
    coldSide
    {
        type            mixed;
        refValue        uniform 300;
        refGradient     uniform 0;
        valueFraction   uniform 0.991591;
        source          uniform 0;
        value           nonuniform List<scalar> 
400
(
300.03
300.031
300.031
300.031
300.032
300.033
300.033
300.034
300.035
300.036
300.038
300.039
300.04
300.041
300.042
300.043
300.045
300.046
300.047
300.047
300.03
300.03
300.03
300.031
300.031
300.032
300.033
300.034
300.035
300.036
300.037
300.038
300.039
300.041
300.042
300.043
300.044
300.045
300.046
300.047