/*--------------------------------*- C++ -*----------------------------------*\
| =========                 |                                                 |
| \\      /  F ield         | OpenFOAM: The Open Source CFD Toolbox           |
|  \\    /   O peration     | Version:  2212                                  |
|   \\  /    A nd           | Website:  www.openfoam.com                      |
|    \\/     M anipulation  |                                                 |
\*---------------------------------------------------------------------------*/
FoamFile
{
    version     2.0;
    format      ascii;
    arch        "LSB;label=32;scalar=64";
    class       volScalarField;
    location    "0";
    object      Ttrue;
}
// * * * * * * * * * * * * * * * * * * * * * * * * * * * * * * * * * * * * * //

dimensions      [0 0 0 1 0 0 0];

internalField   nonuniform List<scalar> 
3200
(
339.386
339.87
340.488
341.161
341.854
342.535
343.163
343.693
344.079
344.284
344.284
344.079
343.693
343.163
342.535
341.854
341.161
340.488
339.87
339.386
334.25
334.659
335.192
335.775
336.375
336.963
337.507
337.965
338.298
338.474
338.474
338.298
337.965
337.507
336.963
336.375
335.775
335.192
334.659
334.25
329.065
329.405
329.854
330.346
330.853
331.351
331.809
332.196
332.477
332.626
332.626
332.477
332.196
331.809
331.351
330.853
330.346
329.854
329.405
329.065
323.84
324.114
324.48
324.882
325.296
325.703
326.077
326.393
326.623
326.744
326.744
326.623
326.393
326.077
325.703
325.296
324.882
324.48
324.114
323.84
318.582
318.792
319.076
319.388
319.71
320.026
320.317
320.562
320.741
320.835
320.835
320.741
320.562
320.317
320.026
319.71
319.388
319.076
318.792
318.582
313.297
313.446
313.648
313.872
314.102
314.327
314.535
314.71
314.837
314.904
314.904
314.837
314.71
314.535
314.327
314.102
313.872
313.648
313.446
313.297
307.995
308.084
308.205
308.339
308.477
308.612
308.737
308.842
308.918
308.959
308.959
308.918
308.842
308.737
308.612
308.477
308.339
308.205
308.084
307.995
302.681
302.711
302.751
302.796
302.843
302.888
302.93
302.965
302.991
303.004
303.004
302.991
302.965
302.93
302.888
302.843
302.796
302.751
302.711
302.681
339.523
340.003
340.615
341.282
341.969
342.642
343.263
343.786
344.168
344.369
344.369
344.168
343.786
343.263
342.642
341.969
341.282
340.615
340.003
339.523
334.369
334.775
335.303
335.88
336.474
337.057
337.593
338.046
338.375
338.549
338.549
338.375
338.046
337.593
337.057
336.474
335.88
335.303
334.775
334.369
329.166
329.503
329.948
330.436
330.938
331.43
331.883
332.265
332.543
332.69
332.69
332.543
332.265
331.883
331.43
330.938
330.436
329.948
329.503
329.166
323.923
324.194
324.557
324.955
325.366
325.768
326.138
326.45
326.677
326.796
326.796
326.677
326.45
326.138
325.768
325.366
324.955
324.557
324.194
323.923
318.646
318.855
319.136
319.446
319.764
320.077
320.364
320.607
320.783
320.876
320.876
320.783
320.607
320.364
320.077
319.764
319.446
319.136
318.855
318.646
313.344
313.491
313.692
313.913
314.14
314.364
314.569
314.742
314.867
314.934
314.934
314.867
314.742
314.569
314.364
314.14
313.913
313.692
313.491
313.344
308.023
308.111
308.231
308.364
308.5
308.634
308.757
308.861
308.937
308.976
308.976
308.937
308.861
308.757
308.634
308.5
308.364
308.231
308.111
308.023
302.691
302.72
302.76
302.805
302.851
302.895
302.937
302.971
302.997
303.01
303.01
302.997
302.971
302.937
302.895
302.851
302.805
302.76
302.72
302.691
339.798
340.27
340.872
341.527
342.199
342.858
343.464
343.975
344.347
344.543
344.543
344.347
343.975
343.464
342.858
342.199
341.527
340.872
340.27
339.798
334.608
335.007
335.527
336.093
336.675
337.245
337.769
338.211
338.532
338.701
338.701
338.532
338.211
337.769
337.245
336.675
336.093
335.527
335.007
334.608
329.369
329.7
330.138
330.616
331.108
331.59
332.033
332.405
332.676
332.819
332.819
332.676
332.405
332.033
331.59
331.108
330.616
330.138
329.7
329.369
324.089
324.356
324.712
325.104
325.506
325.899
326.261
326.565
326.786
326.903
326.903
326.786
326.565
326.261
325.899
325.506
325.104
324.712
324.356
324.089
318.775
318.98
319.257
319.561
319.874
320.179
320.46
320.697
320.868
320.959
320.959
320.868
320.697
320.46
320.179
319.874
319.561
319.257
318.98
318.775
313.436
313.581
313.778
313.995
314.219
314.437
314.638
314.806
314.929
314.993
314.993
314.929
314.806
314.638
314.437
314.219
313.995
313.778
313.581
313.436
308.078
308.165
308.283
308.413
308.547
308.678
308.799
308.9
308.974
309.012
309.012
308.974
308.9
308.799
308.678
308.547
308.413
308.283
308.165
308.078
302.709
302.738
302.778
302.821
302.866
302.91
302.951
302.984
303.009
303.022
303.022
303.009
302.984
302.951
302.91
302.866
302.821
302.778
302.738
302.709
340.211
340.672
341.259
341.896
342.548
343.186
343.772
344.264
344.622
344.81
344.81
344.622
344.264
343.772
343.186
342.548
341.896
341.259
340.672
340.211
334.967
335.357
335.863
336.414
336.979
337.531
338.037
338.463
338.772
338.935
338.935
338.772
338.463
338.037
337.531
336.979
336.414
335.863
335.357
334.967
329.673
329.997
330.424
330.889
331.367
331.833
332.261
332.62
332.881
333.018
333.018
332.881
332.62
332.261
331.833
331.367
330.889
330.424
329.997
329.673
324.338
324.599
324.947
325.327
325.718
326.099
326.448
326.742
326.955
327.067
327.067
326.955
326.742
326.448
326.099
325.718
325.327
324.947
324.599
324.338
318.97
319.17
319.44
319.735
320.039
320.335
320.606
320.834
321
321.087
321.087
321
320.834
320.606
320.335
320.039
319.735
319.44
319.17
318.97
313.575
313.717
313.909
314.12
314.337
314.548
314.742
314.905
315.023
315.085
315.085
315.023
314.905
314.742
314.548
314.337
314.12
313.909
313.717
313.575
308.162
308.246
308.362
308.488
308.618
308.745
308.862
308.959
309.03
309.068
309.068
309.03
308.959
308.862
308.745
308.618
308.488
308.362
308.246
308.162
302.737
302.765
302.804
302.847
302.89
302.933
302.972
303.004
303.028
303.041
303.041
303.028
303.004
302.972
302.933
302.89
302.847
302.804
302.765
302.737
340.764
341.211
341.779
342.393
343.02
343.631
344.191
344.66
345.001
345.18
345.18
345.001
344.66
344.191
343.631
343.02
342.393
341.779
341.211
340.764
335.447
335.826
336.315
336.847
337.39
337.918
338.403
338.808
339.103
339.257
339.257
339.103
338.808
338.403
337.918
337.39
336.847
336.315
335.826
335.447
330.081
330.395
330.807
331.256
331.715
332.162
332.571
332.914
333.162
333.293
333.293
333.162
332.914
332.571
332.162
331.715
331.256
330.807
330.395
330.081
324.672
324.925
325.261
325.628
326.004
326.369
326.703
326.983
327.186
327.293
327.293
327.186
326.983
326.703
326.369
326.004
325.628
325.261
324.925
324.672
319.23
319.424
319.685
319.97
320.262
320.546
320.806
321.023
321.181
321.263
321.263
321.181
321.023
320.806
320.546
320.262
319.97
319.685
319.424
319.23
313.761
313.899
314.085
314.288
314.497
314.699
314.885
315.04
315.152
315.212
315.212
315.152
315.04
314.885
314.699
314.497
314.288
314.085
313.899
313.761
308.274
308.356
308.467
308.589
308.715
308.836
308.948
309.041
309.108
309.144
309.144
309.108
309.041
308.948
308.836
308.715
308.589
308.467
308.356
308.274
302.775
302.802
302.839
302.88
302.922
302.963
303
303.032
303.054
303.066
303.066
303.054
303.032
303
302.963
302.922
302.88
302.839
302.802
302.775
341.459
341.889
342.434
343.021
343.619
344.199
344.729
345.172
345.492
345.66
345.66
345.492
345.172
344.729
344.199
343.619
343.021
342.434
341.889
341.459
336.051
336.415
336.885
337.393
337.911
338.413
338.871
339.254
339.531
339.677
339.677
339.531
339.254
338.871
338.413
337.911
337.393
336.885
336.415
336.051
330.593
330.895
331.291
331.72
332.158
332.582
332.969
333.293
333.527
333.65
333.65
333.527
333.293
332.969
332.582
332.158
331.72
331.291
330.895
330.593
325.092
325.335
325.658
326.009
326.367
326.714
327.03
327.295
327.486
327.586
327.586
327.486
327.295
327.03
326.714
326.367
326.009
325.658
325.335
325.092
319.557
319.744
319.994
320.267
320.545
320.815
321.061
321.266
321.414
321.492
321.492
321.414
321.266
321.061
320.815
320.545
320.267
319.994
319.744
319.557
313.995
314.127
314.306
314.501
314.699
314.892
315.068
315.214
315.32
315.376
315.376
315.32
315.214
315.068
314.892
314.699
314.501
314.306
314.127
313.995
308.414
308.493
308.6
308.717
308.836
308.952
309.058
309.146
309.209
309.242
309.242
309.209
309.146
309.058
308.952
308.836
308.717
308.6
308.493
308.414
302.822
302.848
302.884
302.923
302.963
303.002
303.037
303.067
303.088
303.099
303.099
303.088
303.067
303.037
303.002
302.963
302.923
302.884
302.848
302.822
342.298
342.709
343.228
343.785
344.35
344.896
345.393
345.807
346.105
346.262
346.262
346.105
345.807
345.393
344.896
344.35
343.785
343.228
342.709
342.298
336.78
337.128
337.576
338.058
338.547
339.02
339.45
339.808
340.066
340.201
340.201
340.066
339.808
339.45
339.02
338.547
338.058
337.576
337.128
336.78
331.211
331.5
331.877
332.284
332.698
333.098
333.461
333.763
333.981
334.096
334.096
333.981
333.763
333.461
333.098
332.698
332.284
331.877
331.5
331.211
325.599
325.831
326.139
326.472
326.81
327.137
327.434
327.681
327.859
327.953
327.953
327.859
327.681
327.434
327.137
326.81
326.472
326.139
325.831
325.599
319.952
320.13
320.369
320.628
320.891
321.145
321.376
321.568
321.706
321.779
321.779
321.706
321.568
321.376
321.145
320.891
320.628
320.369
320.13
319.952
314.277
314.404
314.574
314.759
314.947
315.128
315.293
315.43
315.529
315.581
315.581
315.529
315.43
315.293
315.128
314.947
314.759
314.574
314.404
314.277
308.584
308.659
308.761
308.872
308.985
309.094
309.193
309.275
309.335
309.366
309.366
309.335
309.275
309.193
309.094
308.985
308.872
308.761
308.659
308.584
302.879
302.904
302.938
302.975
303.013
303.05
303.083
303.11
303.13
303.141
303.141
303.13
303.11
303.083
303.05
303.013
302.975
302.938
302.904
302.879
343.282
343.673
344.164
344.69
345.22
345.73
346.191
346.575
346.85
346.995
346.995
346.85
346.575
346.191
345.73
345.22
344.69
344.164
343.673
343.282
337.635
337.966
338.39
338.844
339.304
339.745
340.145
340.476
340.715
340.84
340.84
340.715
340.476
340.145
339.745
339.304
338.844
338.39
337.966
337.635
331.936
332.211
332.568
332.952
333.34
333.714
334.051
334.332
334.533
334.639
334.639
334.533
334.332
334.051
333.714
333.34
332.952
332.568
332.211
331.936
326.193
326.414
326.706
327.02
327.337
327.642
327.919
328.148
328.312
328.399
328.399
328.312
328.148
327.919
327.642
327.337
327.02
326.706
326.414
326.193
320.415
320.585
320.811
321.055
321.302
321.539
321.754
321.932
322.06
322.127
322.127
322.06
321.932
321.754
321.539
321.302
321.055
320.811
320.585
320.415
314.609
314.729
314.89
315.064
315.241
315.41
315.564
315.691
315.782
315.83
315.83
315.782
315.691
315.564
315.41
315.241
315.064
314.89
314.729
314.609
308.783
308.855
308.951
309.056
309.162
309.264
309.356
309.432
309.487
309.516
309.516
309.487
309.432
309.356
309.264
309.162
309.056
308.951
308.855
308.783
302.946
302.969
303.002
303.037
303.072
303.107
303.137
303.163
303.181
303.191
303.191
303.181
303.163
303.137
303.107
303.072
303.037
303.002
302.969
302.946
344.415
344.785
345.247
345.738
346.232
346.705
347.131
347.484
347.736
347.868
347.868
347.736
347.484
347.131
346.705
346.232
345.738
345.247
344.785
344.415
338.62
338.932
339.331
339.757
340.184
340.594
340.963
341.268
341.486
341.601
341.601
341.486
341.268
340.963
340.594
340.184
339.757
339.331
338.932
338.62
332.771
333.03
333.366
333.726
334.088
334.434
334.746
335.004
335.189
335.285
335.285
335.189
335.004
334.746
334.434
334.088
333.726
333.366
333.03
332.771
326.878
327.086
327.36
327.655
327.951
328.234
328.489
328.7
328.851
328.93
328.93
328.851
328.7
328.489
328.234
327.951
327.655
327.36
327.086
326.878
320.948
321.108
321.321
321.55
321.78
322
322.198
322.362
322.48
322.541
322.541
322.48
322.362
322.198
322
321.78
321.55
321.321
321.108
320.948
314.99
315.104
315.255
315.419
315.583
315.74
315.882
315.999
316.083
316.127
316.127
316.083
315.999
315.882
315.74
315.583
315.419
315.255
315.104
314.99
309.012
309.08
309.171
309.269
309.368
309.462
309.547
309.618
309.668
309.694
309.694
309.668
309.618
309.547
309.462
309.368
309.269
309.171
309.08
309.012
303.022
303.045
303.075
303.108
303.141
303.173
303.202
303.225
303.242
303.251
303.251
303.242
303.225
303.202
303.173
303.141
303.108
303.075
303.045
303.022
345.699
346.046
346.478
346.936
347.393
347.829
348.22
348.542
348.772
348.892
348.892
348.772
348.542
348.22
347.829
347.393
346.936
346.478
346.046
345.699
339.735
340.028
340.401
340.798
341.194
341.571
341.91
342.189
342.388
342.492
342.492
342.388
342.189
341.91
341.571
341.194
340.798
340.401
340.028
339.735
333.717
333.96
334.275
334.61
334.945
335.264
335.55
335.786
335.954
336.042
336.042
335.954
335.786
335.55
335.264
334.945
334.61
334.275
333.96
333.717
327.653
327.849
328.105
328.379
328.654
328.915
329.149
329.342
329.479
329.551
329.551
329.479
329.342
329.149
328.915
328.654
328.379
328.105
327.849
327.653
321.552
321.703
321.902
322.115
322.328
322.531
322.713
322.863
322.97
323.026
323.026
322.97
322.863
322.713
322.531
322.328
322.115
321.902
321.703
321.552
315.422
315.529
315.671
315.823
315.975
316.12
316.25
316.357
316.434
316.474
316.474
316.434
316.357
316.25
316.12
315.975
315.823
315.671
315.529
315.422
309.272
309.336
309.421
309.512
309.604
309.691
309.769
309.833
309.879
309.903
309.903
309.879
309.833
309.769
309.691
309.604
309.512
309.421
309.336
309.272
303.11
303.131
303.159
303.19
303.221
303.25
303.276
303.297
303.313
303.321
303.321
303.313
303.297
303.276
303.25
303.221
303.19
303.159
303.131
303.11
347.135
347.459
347.862
348.286
348.707
349.106
349.463
349.755
349.963
350.072
350.072
349.963
349.755
349.463
349.106
348.707
348.286
347.862
347.459
347.135
340.983
341.257
341.605
341.972
342.337
342.683
342.991
343.245
343.425
343.519
343.519
343.425
343.245
342.991
342.683
342.337
341.972
341.605
341.257
340.983
334.775
335.003
335.295
335.606
335.915
336.207
336.469
336.683
336.835
336.914
336.914
336.835
336.683
336.469
336.207
335.915
335.606
335.295
335.003
334.775
328.521
328.704
328.942
329.196
329.449
329.689
329.902
330.077
330.202
330.267
330.267
330.202
330.077
329.902
329.689
329.449
329.196
328.942
328.704
328.521
322.228
322.369
322.554
322.751
322.948
323.134
323.3
323.436
323.533
323.584
323.584
323.533
323.436
323.3
323.134
322.948
322.751
322.554
322.369
322.228
315.906
316.006
316.138
316.279
316.419
316.552
316.671
316.768
316.837
316.873
316.873
316.837
316.768
316.671
316.552
316.419
316.279
316.138
316.006
315.906
309.563
309.622
309.701
309.786
309.87
309.95
310.022
310.08
310.122
310.143
310.143
310.122
310.08
310.022
309.95
309.87
309.786
309.701
309.622
309.563
303.207
303.227
303.253
303.282
303.31
303.337
303.361
303.38
303.394
303.401
303.401
303.394
303.38
303.361
303.337
303.31
303.282
303.253
303.227
303.207
348.725
349.028
349.401
349.792
350.178
350.542
350.866
351.13
351.318
351.415
351.415
351.318
351.13
350.866
350.542
350.178
349.792
349.401
349.028
348.725
342.365
342.62
342.942
343.281
343.616
343.931
344.212
344.441
344.603
344.688
344.688
344.603
344.441
344.212
343.931
343.616
343.281
342.942
342.62
342.365
335.947
336.159
336.43
336.717
337
337.267
337.504
337.698
337.835
337.907
337.907
337.835
337.698
337.504
337.267
337
336.717
336.43
336.159
335.947
329.481
329.652
329.873
330.107
330.339
330.558
330.752
330.91
331.023
331.081
331.081
331.023
330.91
330.752
330.558
330.339
330.107
329.873
329.652
329.481
322.977
323.108
323.279
323.461
323.642
323.812
323.963
324.086
324.173
324.219
324.219
324.173
324.086
323.963
323.812
323.642
323.461
323.279
323.108
322.977
316.441
316.534
316.657
316.787
316.915
317.037
317.145
317.233
317.295
317.328
317.328
317.295
317.233
317.145
317.037
316.915
316.787
316.657
316.534
316.441
309.885
309.94
310.013
310.091
310.169
310.242
310.307
310.36
310.397
310.417
310.417
310.397
310.36
310.307
310.242
310.169
310.091
310.013
309.94
309.885
303.315
303.333
303.358
303.384
303.41
303.435
303.456
303.474
303.487
303.493
303.493
303.487
303.474
303.456
303.435
303.41
303.384
303.358
303.333
303.315
350.472
350.752
351.097
351.456
351.809
352.14
352.432
352.67
352.838
352.926
352.926
352.838
352.67
352.432
352.14
351.809
351.456
351.097
350.752
350.472
343.882
344.119
344.416
344.727
345.033
345.32
345.574
345.78
345.926
346.002
346.002
345.926
345.78
345.574
345.32
345.033
344.727
344.416
344.119
343.882
337.233
337.43
337.681
337.944
338.203
338.446
338.66
338.835
338.958
339.022
339.022
338.958
338.835
338.66
338.446
338.203
337.944
337.681
337.43
337.233
330.536
330.694
330.899
331.114
331.326
331.524
331.7
331.843
331.944
331.996
331.996
331.944
331.843
331.7
331.524
331.326
331.114
330.899
330.694
330.536
323.798
323.92
324.078
324.245
324.41
324.565
324.701
324.812
324.891
324.932
324.932
324.891
324.812
324.701
324.565
324.41
324.245
324.078
323.92
323.798
317.029
317.115
317.228
317.348
317.466
317.576
317.674
317.753
317.809
317.838
317.838
317.809
317.753
317.674
317.576
317.466
317.348
317.228
317.115
317.029
310.238
310.289
310.357
310.429
310.5
310.566
310.625
310.672
310.706
310.723
310.723
310.706
310.672
310.625
310.566
310.5
310.429
310.357
310.289
310.238
303.433
303.451
303.473
303.497
303.521
303.543
303.563
303.579
303.59
303.596
303.596
303.59
303.579
303.563
303.543
303.521
303.497
303.473
303.451
303.433
352.373
352.633
352.95
353.279
353.6
353.9
354.164
354.377
354.528
354.606
354.606
354.528
354.377
354.164
353.9
353.6
353.279
352.95
352.633
352.373
345.534
345.753
346.027
346.312
346.591
346.85
347.079
347.264
347.395
347.463
347.463
347.395
347.264
347.079
346.85
346.591
346.312
346.027
345.753
345.534
338.634
338.816
339.047
339.288
339.524
339.744
339.937
340.094
340.205
340.262
340.262
340.205
340.094
339.937
339.744
339.524
339.288
339.047
338.816
338.634
331.684
331.83
332.019
332.216
332.409
332.589
332.747
332.875
332.966
333.013
333.013
332.966
332.875
332.747
332.589
332.409
332.216
332.019
331.83
331.684
324.693
324.805
324.951
325.104
325.254
325.394
325.518
325.617
325.688
325.724
325.724
325.688
325.617
325.518
325.394
325.254
325.104
324.951
324.805
324.693
317.669
317.748
317.853
317.962
318.069
318.169
318.258
318.329
318.379
318.405
318.405
318.379
318.329
318.258
318.169
318.069
317.962
317.853
317.748
317.669
310.623
310.67
310.732
310.798
310.863
310.923
310.976
311.018
311.049
311.064
311.064
311.049
311.018
310.976
310.923
310.863
310.798
310.732
310.67
310.623
303.562
303.578
303.599
303.621
303.643
303.663
303.681
303.695
303.705
303.71
303.71
303.705
303.695
303.681
303.663
303.643
303.621
303.599
303.578
303.562
354.428
354.667
354.959
355.259
355.551
355.822
356.059
356.251
356.385
356.455
356.455
356.385
356.251
356.059
355.822
355.551
355.259
354.959
354.667
354.428
347.319
347.521
347.772
348.032
348.285
348.52
348.726
348.892
349.009
349.069
349.069
349.009
348.892
348.726
348.52
348.285
348.032
347.772
347.521
347.319
340.147
340.315
340.527
340.747
340.961
341.16
341.334
341.474
341.573
341.624
341.624
341.573
341.474
341.334
341.16
340.961
340.747
340.527
340.315
340.147
332.924
333.059
333.231
333.411
333.587
333.75
333.892
334.007
334.088
334.13
334.13
334.088
334.007
333.892
333.75
333.587
333.411
333.231
333.059
332.924
325.658
325.761
325.895
326.036
326.172
326.299
326.41
326.499
326.562
326.594
326.594
326.562
326.499
326.41
326.299
326.172
326.036
325.895
325.761
325.658
318.359
318.433
318.528
318.628
318.726
318.816
318.896
318.96
319.004
319.028
319.028
319.004
318.96
318.896
318.816
318.726
318.628
318.528
318.433
318.359
311.037
311.081
311.138
311.199
311.257
311.312
311.359
311.398
311.425
311.439
311.439
311.425
311.398
311.359
311.312
311.257
311.199
311.138
311.081
311.037
303.701
303.716
303.735
303.755
303.775
303.793
303.809
303.822
303.831
303.836
303.836
303.831
303.822
303.809
303.793
303.775
303.755
303.735
303.716
303.701
356.627
356.847
357.114
357.388
357.653
357.897
358.11
358.281
358.402
358.464
358.464
358.402
358.281
358.11
357.897
357.653
357.388
357.114
356.847
356.627
349.226
349.413
349.643
349.88
350.11
350.322
350.507
350.655
350.759
350.813
350.813
350.759
350.655
350.507
350.322
350.11
349.88
349.643
349.413
349.226
341.763
341.918
342.112
342.312
342.507
342.686
342.843
342.968
343.057
343.102
343.102
343.057
342.968
342.843
342.686
342.507
342.312
342.112
341.918
341.763
334.247
334.371
334.53
334.694
334.853
335
335.128
335.231
335.303
335.34
335.34
335.303
335.231
335.128
335
334.853
334.694
334.53
334.371
334.247
326.688
326.783
326.906
327.034
327.158
327.272
327.372
327.452
327.508
327.537
327.537
327.508
327.452
327.372
327.272
327.158
327.034
326.906
326.783
326.688
319.096
319.163
319.251
319.342
319.431
319.512
319.584
319.641
319.681
319.702
319.702
319.681
319.641
319.584
319.512
319.431
319.342
319.251
319.163
319.096
311.48
311.52
311.573
311.627
311.681
311.73
311.773
311.807
311.831
311.844
311.844
311.831
311.807
311.773
311.73
311.681
311.627
311.573
311.52
311.48
303.85
303.863
303.881
303.899
303.917
303.934
303.948
303.959
303.967
303.972
303.972
303.967
303.959
303.948
303.934
303.917
303.899
303.881
303.863
303.85
358.945
359.148
359.392
359.641
359.881
360.102
360.293
360.446
360.554
360.609
360.609
360.554
360.446
360.293
360.102
359.881
359.641
359.392
359.148
358.945
351.234
351.405
351.616
351.832
352.041
352.232
352.398
352.531
352.624
352.672
352.672
352.624
352.531
352.398
352.232
352.041
351.832
351.616
351.405
351.234
343.461
343.603
343.781
343.963
344.14
344.302
344.442
344.555
344.634
344.674
344.674
344.634
344.555
344.442
344.302
344.14
343.963
343.781
343.603
343.461
335.635
335.749
335.894
336.044
336.189
336.321
336.436
336.529
336.593
336.626
336.626
336.593
336.529
336.436
336.321
336.189
336.044
335.894
335.749
335.635
327.767
327.855
327.968
328.084
328.196
328.3
328.389
328.461
328.511
328.537
328.537
328.511
328.461
328.389
328.3
328.196
328.084
327.968
327.855
327.767
319.867
319.929
320.009
320.092
320.172
320.246
320.31
320.362
320.398
320.416
320.416
320.398
320.362
320.31
320.246
320.172
320.092
320.009
319.929
319.867
311.943
311.98
312.028
312.078
312.126
312.17
312.209
312.24
312.261
312.273
312.273
312.261
312.24
312.209
312.17
312.126
312.078
312.028
311.98
311.943
304.005
304.017
304.033
304.05
304.066
304.081
304.094
304.104
304.112
304.115
304.115
304.112
304.104
304.094
304.081
304.066
304.05
304.033
304.017
304.005
361.321
361.507
361.731
361.958
362.176
362.376
362.548
362.686
362.782
362.831
362.831
362.782
362.686
362.548
362.376
362.176
361.958
361.731
361.507
361.321
353.282
353.44
353.633
353.83
354.02
354.193
354.342
354.462
354.545
354.588
354.588
354.545
354.462
354.342
354.193
354.02
353.83
353.633
353.44
353.282
345.186
345.316
345.479
345.646
345.806
345.953
346.08
346.181
346.252
346.288
346.288
346.252
346.181
346.08
345.953
345.806
345.646
345.479
345.316
345.186
337.04
337.146
337.279
337.415
337.547
337.667
337.771
337.854
337.911
337.941
337.941
337.911
337.854
337.771
337.667
337.547
337.415
337.279
337.146
337.04
328.857
328.937
329.04
329.147
329.249
329.343
329.424
329.488
329.533
329.556
329.556
329.533
329.488
329.424
329.343
329.249
329.147
329.04
328.937
328.857
320.643
320.7
320.774
320.85
320.923
320.99
321.048
321.094
321.126
321.142
321.142
321.126
321.094
321.048
320.99
320.923
320.85
320.774
320.7
320.643
312.408
312.442
312.486
312.532
312.576
312.616
312.651
312.679
312.698
312.708
312.708
312.698
312.679
312.651
312.616
312.576
312.532
312.486
312.442
312.408
304.161
304.172
304.187
304.202
304.217
304.23
304.242
304.251
304.258
304.261
304.261
304.258
304.251
304.242
304.23
304.217
304.202
304.187
304.172
304.161
363.599
363.771
363.977
364.186
364.386
364.567
364.724
364.848
364.935
364.979
364.979
364.935
364.848
364.724
364.567
364.386
364.186
363.977
363.771
363.599
355.222
355.368
355.546
355.728
355.901
356.059
356.195
356.303
356.379
356.418
356.418
356.379
356.303
356.195
356.059
355.901
355.728
355.546
355.368
355.222
346.801
346.922
347.073
347.227
347.374
347.508
347.623
347.715
347.779
347.812
347.812
347.779
347.715
347.623
347.508
347.374
347.227
347.073
346.922
346.801
338.345
338.442
338.565
338.691
338.812
338.922
339.017
339.092
339.145
339.171
339.171
339.145
339.092
339.017
338.922
338.812
338.691
338.565
338.442
338.345
329.86
329.935
330.031
330.129
330.223
330.308
330.382
330.441
330.482
330.503
330.503
330.482
330.441
330.382
330.308
330.223
330.129
330.031
329.935
329.86
321.354
321.407
321.475
321.545
321.613
321.674
321.727
321.769
321.798
321.813
321.813
321.798
321.769
321.727
321.674
321.613
321.545
321.475
321.407
321.354
312.833
312.865
312.905
312.948
312.988
313.025
313.057
313.082
313.1
313.109
313.109
313.1
313.082
313.057
313.025
312.988
312.948
312.905
312.865
312.833
304.303
304.313
304.327
304.341
304.355
304.367
304.378
304.386
304.392
304.395
304.395
304.392
304.386
304.378
304.367
304.355
304.341
304.327
304.313
304.303
365.376
365.538
365.732
365.928
366.115
366.284
366.43
366.545
366.626
366.667
366.667
366.626
366.545
366.43
366.284
366.115
365.928
365.732
365.538
365.376
356.679
356.816
356.984
357.155
357.318
357.466
357.593
357.694
357.764
357.8
357.8
357.764
357.694
357.593
357.466
357.318
357.155
356.984
356.816
356.679
347.978
348.092
348.234
348.38
348.518
348.644
348.752
348.838
348.897
348.928
348.928
348.897
348.838
348.752
348.644
348.518
348.38
348.234
348.092
347.978
339.272
339.364
339.48
339.6
339.713
339.817
339.905
339.976
340.025
340.05
340.05
340.025
339.976
339.905
339.817
339.713
339.6
339.48
339.364
339.272
330.56
330.631
330.722
330.814
330.903
330.984
331.053
331.108
331.147
331.166
331.166
331.147
331.108
331.053
330.984
330.903
330.814
330.722
330.631
330.56
321.843
321.893
321.958
322.025
322.088
322.146
322.196
322.235
322.263
322.277
322.277
322.263
322.235
322.196
322.146
322.088
322.025
321.958
321.893
321.843
313.122
313.152
313.191
313.231
313.27
313.304
313.334
313.358
313.375
313.383
313.383
313.375
313.358
313.334
313.304
313.27
313.231
313.191
313.152
313.122
304.399
304.409
304.422
304.436
304.448
304.46
304.47
304.478
304.484
304.486
304.486
304.484
304.478
304.47
304.46
304.448
304.436
304.422
304.409
304.399
)
;

boundaryField
{
    hotSide
    {
        type            fixedGradient;
        gradient        nonuniform List<scalar> 
400
(
406.393
407.821
410.68
414.983
420.742
427.977
436.707
446.954
458.743
472.096
487.036
503.584
521.76
541.581
563.061
586.215
611.054
637.585
665.817
695.754
412.76
414.137
416.898
421.056
426.631
433.646
442.129
452.108
463.614
476.676
491.322
507.578
525.468
545.012
566.229
589.132
613.734
640.045
668.072
697.819
419.649
420.966
423.609
427.597
432.953
439.711
447.904
457.572
468.751
481.48
495.792
511.72
529.291
548.53
569.457
592.088
616.436
642.511
670.32
699.867
426.949
428.195
430.701
434.49
439.595
446.057
453.921
463.235
474.048
486.405
500.348
515.916
533.142
552.052
572.67
595.013
619.095
644.925
672.509
701.852
434.453
435.621
437.973
441.54
446.364
452.498
459.999
468.928
479.343
491.301
504.851
520.039
536.903
555.472
575.772
597.821
621.633
647.217
674.579
703.719
441.85
442.934
445.121
448.451
452.978
458.767
465.888
474.415
484.42
495.968
509.12
523.925
540.427
558.659
578.647
600.411
623.962
649.31
676.459
705.409
448.716
449.715
451.739
454.834
459.066
464.514
471.264
479.401
489.01
500.167
512.939
527.384
543.548
561.467
581.168
602.67
625.985
651.12
678.078
706.857
454.543
455.466
457.342
460.226
464.195
469.34
475.76
483.554
492.817
503.633
516.079
530.215
546.091
563.744
583.204
604.487
627.606
652.565
679.366
708.007
458.807
459.672
461.435
464.158
467.927
472.842
479.013
486.549
495.552
506.116
518.319
532.227
547.892
565.353
584.637
605.763
628.74
653.574
680.263
708.805
461.067
461.9
463.602
466.237
469.896
474.687
480.724
488.121
496.985
507.413
519.487
533.275
548.828
566.187
585.378
606.421
629.325
654.093
680.724
709.214
461.067
461.9
463.602
466.237
469.896
474.687
480.724
488.121
496.985
507.413
519.487
533.275
548.828
566.187
585.378
606.421
629.325
654.093
680.724
709.214
458.807
459.672
461.435
464.158
467.927
472.842
479.013
486.549
495.552
506.116
518.319
532.227
547.892
565.353
584.637
605.763
628.74
653.574
680.263
708.805
454.543
455.466
457.342
460.226
464.195
469.34
475.76
483.554
492.817
503.633
516.079
530.215
546.091
563.744
583.204
604.487
627.606
652.565
679.366
708.007
448.716
449.715
451.739
454.834
459.066
464.514
471.264
479.401
489.01
500.167
512.939
527.384
543.548
561.467
581.168
602.67
625.985
651.12
678.078
706.857
441.85
442.934
445.121
448.451
452.978
458.767
465.888
474.415
484.42
495.968
509.12
523.925
540.427
558.659
578.647
600.411
623.962
649.31
676.459
705.409
434.453
435.621
437.973
441.54
446.364
452.498
459.999
468.928
479.343
491.301
504.851
520.039
536.903
555.472
575.772
597.821
621.633
647.217
674.579
703.719
426.949
428.195
430.701
434.49
439.595
446.057
453.921
463.235
474.048
486.405
500.348
515.916
533.142
552.052
572.67
595.013
619.095
644.925
672.509
701.852
419.649
420.966
423.609
427.597
432.953
439.711
447.904
457.572
468.751
481.48
495.792
511.72
529.291
548.53
569.457
592.088
616.436
642.511
670.32
699.867
412.76
414.137
416.898
421.056
426.631
433.646
442.129
452.108
463.614
476.676
491.322
507.578
525.468
545.012
566.229
589.132
613.734
640.045
668.072
697.819
406.393
407.821
410.68
414.983
420.742
427.977
436.707
446.954
458.743
472.096
487.036
503.584
521.76
541.581
563.061
586.215
611.054
637.585
665.817
695.754
)
;
    }
    coldSide
    {
        type            mixed;
        refValue        uniform 300;
        refGradient     uniform 0;
        valueFraction   uniform 0.991591;
        source          uniform 0;
        value           nonuniform List<scalar> 
400
(
300.023
300.023
300.023
300.023
300.023
300.024
300.024
300.025
300.025
300.026
300.027
300.028
300.029
300.03
300.031
300.032
300.034
300.035
300.036
300.037
300.023
300.023
300.023
300.023
300.024
300.024
300.024
300.025
300.026
300.026
300.027
300.028
300.029
300.03
300.031
300.032
300.034
300.035
300.036
300.037
300.023
300.023
300.023
300.024