/*--------------------------------*- C++ -*----------------------------------*\
| =========                 |                                                 |
| \\      /  F ield         | OpenFOAM: The Open Source CFD Toolbox           |
|  \\    /   O peration     | Version:  2212                                  |
|   \\  /    A nd           | Website:  www.openfoam.com                      |
|    \\/     M anipulation  |                                                 |
\*---------------------------------------------------------------------------*/
FoamFile
{
    version     2.0;
    format      ascii;
    arch        "LSB;label=32;scalar=64";
    class       volScalarField;
    location    "0";
    object      stateMean;
}
// * * * * * * * * * * * * * * * * * * * * * * * * * * * * * * * * * * * * * //

dimensions      [0 0 0 1 0 0 0];

internalField   nonuniform List<scalar> 
3200
(
320.417
320.55
320.751
320.905
320.889
320.987
321.033
321.061
320.918
320.846
320.817
320.697
320.526
320.431
320.198
319.973
319.753
319.598
319.29
319.1
317.89
318.047
318.135
318.234
318.309
318.334
318.368
318.409
318.35
318.199
318.267
318.152
318.033
317.857
317.69
317.596
317.388
317.174
316.91
316.771
315.272
315.442
315.523
315.554
315.686
315.687
315.77
315.739
315.653
315.708
315.593
315.524
315.439
315.265
315.175
315.026
314.86
314.713
314.512
314.263
312.591
312.674
312.796
312.832
312.902
312.926
312.925
312.992
312.942
312.897
312.879
312.85
312.744
312.608
312.477
312.41
312.247
312.121
311.891
311.85
309.818
309.864
310.032
310.097
310.115
310.061
310.205
310.112
310.144
310.132
310.027
310.021
309.976
309.847
309.757
309.768
309.596
309.443
309.341
309.224
307.095
307.108
307.167
307.219
307.22
307.236
307.267
307.274
307.314
307.339
307.182
307.198
307.089
307.082
307.058
306.943
306.862
306.759
306.755
306.665
304.217
304.335
304.332
304.332
304.408
304.369
304.392
304.393
304.385
304.383
304.421
304.305
304.332
304.26
304.284
304.245
304.199
304.092
304.077
303.971
301.377
301.452
301.498
301.471
301.468
301.49
301.506
301.548
301.494
301.434
301.46
301.493
301.482
301.464
301.383
301.399
301.436
301.349
301.406
301.354
321.122
321.231
321.529
321.635
321.725
321.886
321.88
321.859
321.872
321.754
321.701
321.532
321.447
321.27
321.06
320.877
320.69
320.409
320.067
319.841
318.487
318.661
318.834
318.949
318.993
319.104
319.084
319.118
319.12
319.019
318.962
318.92
318.745
318.622
318.449
318.26
318.008
317.829
317.571
317.407
315.863
315.846
316.006
316.198
316.151
316.313
316.294
316.372
316.273
316.196
316.094
316.058
316.037
315.904
315.696
315.636
315.435
315.197
315.03
314.863
313.026
313.136
313.172
313.254
313.368
313.409
313.446
313.421
313.385
313.375
313.24
313.279
313.245
313.125
313.013
312.865
312.701
312.479
312.367
312.239
310.16
310.218
310.343
310.401
310.473
310.479
310.514
310.553
310.444
310.412
310.427
310.339
310.334
310.268
310.1
309.997
309.995
309.8
309.665
309.54
307.302
307.345
307.407
307.445
307.549
307.529
307.529
307.543
307.579
307.523
307.547
307.474
307.327
307.386
307.284
307.176
307.187
307.014
306.943
306.802
304.397
304.397
304.448
304.587
304.536
304.563
304.571
304.509
304.463
304.521
304.574
304.469
304.508
304.467
304.339
304.317
304.258
304.268
304.162
304.182
301.422
301.446
301.533
301.48
301.436
301.468
301.477
301.496
301.613
301.513
301.535
301.48
301.483
301.51
301.497
301.472
301.442
301.431
301.402
301.392
322.25
322.383
322.583
322.719
322.935
323.034
323.099
323.031
323.017
323.02
322.858
322.837
322.643
322.562
322.258
321.977
321.841
321.517
321.219
320.966
319.362
319.623
319.712
319.816
319.979
320.026
320.098
320.078
320.134
320.063
320.072
319.866
319.739
319.583
319.488
319.277
319.053
318.745
318.538
318.349
316.55
316.647
316.831
316.884
317.093
317.156
317.122
317.12
317.108
317.019
317.003
316.974
316.9
316.767
316.613
316.386
316.132
316.018
315.732
315.653
313.589
313.715
313.825
313.954
314.025
314.114
314.144
314.083
314.085
314.071
313.978
313.888
313.912
313.792
313.651
313.537
313.326
313.193
312.982
312.915
310.645
310.665
310.766
310.873
310.945
311.027
310.997
311.054
311.057
310.931
311
310.944
310.789
310.765
310.722
310.528
310.422
310.339
310.211
310.028
307.6
307.666
307.67
307.766
307.903
307.827
307.957
308.01
307.918
307.948
307.821
307.863
307.76
307.695
307.622
307.664
307.46
307.381
307.336
307.276
304.587
304.63
304.638
304.691
304.697
304.685
304.722
304.81
304.816
304.742
304.773
304.711
304.645
304.707
304.602
304.6
304.521
304.423
304.404
304.308
301.576
301.5
301.55
301.611
301.632
301.584
301.555
301.573
301.643
301.629
301.61
301.615
301.575
301.525
301.561
301.487
301.582
301.451
301.483
301.459
323.418
323.579
323.763
324.042
324.113
324.284
324.344
324.329
324.323
324.249
324.124
324.062
324.033
323.764
323.572
323.348
323.08
322.771
322.459
322.173
320.391
320.559
320.796
320.926
321.052
321.158
321.213
321.236
321.238
321.172
321.134
321.06
320.947
320.729
320.525
320.356
320.091
319.829
319.568
319.362
317.366
317.476
317.639
317.762
317.958
318.048
318.07
318.144
318.124
318.007
318.032
317.874
317.832
317.723
317.512
317.329
317.116
316.918
316.775
316.509
314.283
314.402
314.507
314.669
314.755
314.844
314.897
314.95
314.881
314.76
314.797
314.724
314.638
314.492
314.388
314.296
314.153
313.953
313.682
313.605
311.059
311.242
311.289
311.427
311.565
311.622
311.66
311.588
311.633
311.57
311.643
311.562
311.468
311.405
311.263
311.182
311.023
310.875
310.766
310.643
307.993
308.1
308.104
308.175
308.243
308.273
308.344
308.317
308.31
308.33
308.288
308.301
308.198
308.119
308.093
308
307.873
307.805
307.671
307.626
304.789
304.79
304.91
304.959
304.951
305.043
305.06
305.015
305.022
305.015
304.971
304.983
304.91
304.901
304.814
304.864
304.74
304.625
304.617
304.613
301.599
301.624
301.581
301.684
301.682
301.658
301.68
301.667
301.769
301.682
301.671
301.696
301.637
301.574
301.643
301.562
301.605
301.563
301.494
301.581
324.558
324.765
325.134
325.306
325.364
325.6
325.643
325.674
325.635
325.666
325.592
325.412
325.302
325.213
324.92
324.654
324.391
324.063
323.678
323.396
321.298
321.571
321.84
322.047
322.2
322.297
322.388
322.396
322.501
322.416
322.383
322.24
322.105
321.931
321.816
321.497
321.203
321.026
320.701
320.401
318.208
318.275
318.643
318.73
318.905
319.021
319.097
319.007
319.105
319.107
319.033
318.936
318.759
318.669
318.515
318.285
318.043
317.879
317.615
317.403
314.928
315.125
315.311
315.374
315.522
315.587
315.689
315.706
315.691
315.7
315.635
315.548
315.413
315.306
315.197
315.102
314.925
314.755
314.537
314.349
311.722
311.761
311.931
312.069
312.201
312.18
312.256
312.249
312.314
312.246
312.207
312.12
312.052
312.004
311.835
311.767
311.633
311.483
311.371
311.163
308.434
308.434
308.525
308.669
308.738
308.665
308.738
308.762
308.761
308.821
308.742
308.729
308.685
308.622
308.561
308.436
308.337
308.239
308.071
308.031
305.015
305.114
305.092
305.179
305.155
305.248
305.321
305.269
305.365
305.286
305.284
305.255
305.296
305.252
305.094
305.001
304.972
304.934
304.925
304.839
301.708
301.781
301.701
301.769
301.718
301.778
301.782
301.779
301.78
301.796
301.788
301.763
301.757
301.734
301.69
301.735
301.696
301.713
301.624
301.594
325.665
325.959
326.254
326.507
326.756
326.862
327.076
327.052
327.054
327.026
326.922
326.802
326.719
326.458
326.255
326.026
325.709
325.338
324.946
324.582
322.398
322.627
322.851
323.133
323.311
323.457
323.536
323.65
323.599
323.606
323.577
323.42
323.238
323.084
322.879
322.717
322.462
322.083
321.741
321.497
318.987
319.271
319.486
319.697
319.835
319.963
320.038
320.084
320.074
320.08
320.031
319.94
319.825
319.66
319.566
319.343
319.097
318.802
318.552
318.277
315.668
315.86
316.033
316.233
316.313
316.425
316.464
316.473
316.551
316.489
316.481
316.403
316.343
316.209
316.044
315.816
315.666
315.431
315.185
314.993
312.219
312.352
312.523
312.668
312.751
312.846
312.913
312.891
312.911
312.855
312.84
312.778
312.772
312.621
312.587
312.376
312.314
312.066
311.876
311.729
308.771
308.896
308.924
309.109
309.132
309.23
309.193
309.247
309.24
309.255
309.171
309.148
309.094
308.998
309.003
308.892
308.771
308.617
308.546
308.426
305.277
305.362
305.368
305.485
305.442
305.548
305.553
305.613
305.544
305.584
305.583
305.586
305.491
305.415
305.442
305.356
305.299
305.187
305.149
305.068
301.753
301.709
301.848
301.799
301.872
301.815
301.848
301.897
301.856
301.836
301.895
301.834
301.86
301.887
301.831
301.76
301.727
301.718
301.722
301.667
326.865
327.209
327.469
327.765
327.993
328.194
328.254
328.392
328.414
328.394
328.316
328.182
328.044
327.862
327.62
327.363
327.01
326.603
326.206
325.854
323.424
323.71
324.01
324.228
324.469
324.548
324.69
324.79
324.806
324.777
324.675
324.649
324.495
324.289
324.169
323.837
323.573
323.166
322.839
322.51
319.93
320.1
320.415
320.56
320.776
320.938
321.011
321.035
321.08
321.045
321.019
320.924
320.845
320.58
320.464
320.293
320.031
319.806
319.404
319.217
316.379
316.546
316.761
316.95
317.095
317.161
317.254
317.34
317.319
317.368
317.289
317.241
317.179
317.009
316.87
316.621
316.504
316.254
316.072
315.803
312.793
312.909
313.103
313.161
313.328
313.473
313.492
313.433
313.536
313.499
313.504
313.421
313.33
313.277
313.174
313.001
312.85
312.648
312.408
312.311
309.152
309.29
309.386
309.484
309.597
309.616
309.672
309.747
309.775
309.711
309.662
309.638
309.618
309.565
309.42
309.304
309.199
309.101
308.983
308.9
305.528
305.632
305.656
305.645
305.825
305.886
305.823
305.818
305.823
305.853
305.821
305.831
305.763
305.757
305.667
305.598
305.544
305.453
305.374
305.365
301.856
301.9
301.938
301.931
301.888
301.943
301.949
302.005
301.949
301.937
301.957
301.941
301.967
301.945
301.947
301.908
301.921
301.868
301.834
301.738
328.086
328.372
328.734
329.121
329.294
329.454
329.586
329.731
329.804
329.765
329.731
329.585
329.501
329.156
329.001
328.638
328.287
327.886
327.468
327.087
324.433
324.737
324.987
325.256
325.553
325.739
325.868
325.932
325.967
325.91
325.938
325.793
325.626
325.394
325.248
324.958
324.673
324.256
323.973
323.56
320.749
321.084
321.277
321.532
321.747
321.861
322.022
322.151
322.074
322.105
321.977
321.888
321.818
321.656
321.518
321.181
321.017
320.673
320.32
320.12
317.083
317.234
317.427
317.762
317.841
317.993
318.104
318.151
318.231
318.195
318.133
317.971
317.912
317.805
317.596
317.515
317.189
317.024
316.689
316.546
313.31
313.478
313.662
313.798
313.976
314.05
314.109
314.181
314.227
314.164
314.164
314.081
314.028
313.933
313.742
313.598
313.531
313.277
313.161
312.951
309.527
309.673
309.788
309.943
310.001
310.057
310.119
310.175
310.164
310.195
310.134
310.045
310.082
309.983
309.9
309.767
309.724
309.409
309.412
309.249
305.774
305.886
305.907
305.929
306.036
306.018
306.096
306.1
306.115
306.143
306.133
306.059
306.017
305.946
305.962
305.835
305.756
305.723
305.658
305.609
301.955
301.957
301.979
301.939
302.052
302.009
302.02
302.047
302.017
302.061
302.02
302.015
301.994
302.037
302.008
301.945
301.991
301.941
301.89
301.895
329.129
329.564
329.954
330.234
330.579
330.759
330.823
331.14
331.126
331.086
331.056
330.901
330.733
330.493
330.274
329.924
329.505
329.059
328.611
328.237
325.381
325.647
326.044
326.323
326.574
326.806
326.968
327.111
327.169
327.09
327.096
326.961
326.738
326.625
326.389
326.165
325.746
325.408
324.976
324.595
321.632
321.853
322.093
322.415
322.623
322.766
322.96
323.073
323.068
323.038
323.056
322.96
322.833
322.65
322.416
322.248
321.873
321.548
321.215
320.97
317.757
317.974
318.193
318.428
318.591
318.698
318.872
318.931
318.997
318.882
318.914
318.806
318.729
318.591
318.446
318.241
318.016
317.723
317.502
317.25
313.87
314.08
314.157
314.356
314.527
314.628
314.709
314.753
314.785
314.768
314.797
314.617
314.662
314.52
314.269
314.296
314.121
313.808
313.718
313.385
309.961
310.047
310.203
310.318
310.447
310.456
310.552
310.55
310.566
310.619
310.602
310.518
310.531
310.412
310.33
310.223
310.15
309.974
309.694
309.65
305.979
306.051
306.145
306.196
306.253
306.287
306.361
306.34
306.368
306.345
306.38
306.391
306.314
306.234
306.232
306.121
305.991
306.029
305.936
305.798
302.014
302.063
302.068
302.149
302.057
302.124
302.123
302.134
302.148
302.128
302.19
302.165
302.141
302.107
302.12
302.07
302.051
301.98
301.956
302.028
330.198
330.664
331.155
331.382
331.7
332.064
332.146
332.37
332.402
332.324
332.29
332.15
331.993
331.761
331.506
331.148
330.736
330.381
329.813
329.398
326.356
326.682
327.104
327.43
327.694
327.959
328.084
328.16
328.198
328.237
328.158
328.118
327.906
327.678
327.515
327.145
326.841
326.422
325.998
325.632
322.382
322.657
323.032
323.29
323.524
323.754
323.768
323.959
324.044
323.991
324
323.86
323.706
323.599
323.4
323.1
322.754
322.471
322.123
321.862
318.4
318.662
318.927
319.128
319.358
319.561
319.591
319.706
319.742
319.746
319.676
319.66
319.558
319.417
319.182
318.999
318.793
318.506
318.189
317.957
314.333
314.532
314.756
314.955
315.056
315.195
315.387
315.315
315.385
315.376
315.304
315.281
315.284
315.1
314.902
314.803
314.594
314.493
314.157
313.985
310.359
310.421
310.557
310.727
310.841
310.85
310.983
310.974
310.952
311.081
311.013
310.941
310.86
310.85
310.7
310.611
310.534
310.299
310.276
310.015
306.197
306.298
306.431
306.407
306.5
306.491
306.632
306.623
306.63
306.677
306.634
306.576
306.623
306.516
306.526
306.373
306.304
306.211
306.173
306.117
302.061
302.125
302.147
302.118
302.238
302.136
302.274
302.241
302.229
302.261
302.207
302.169
302.208
302.237
302.128
302.143
302.102
302.105
302
302.083
331.294
331.709
332.147
332.538
332.842
333.221
333.408
333.484
333.663
333.591
333.589
333.426
333.285
333.039
332.747
332.358
331.94
331.434
331.005
330.457
327.252
327.595
327.969
328.369
328.718
328.902
329.02
329.157
329.277
329.232
329.243
329.184
328.985
328.79
328.603
328.167
327.85
327.467
327.018
326.663
323.197
323.544
323.774
324.117
324.367
324.598
324.751
324.812
324.888
324.918
324.88
324.781
324.63
324.512
324.206
323.991
323.646
323.376
322.953
322.63
319.018
319.27
319.498
319.815
320.011
320.286
320.352
320.411
320.467
320.476
320.423
320.399
320.265
320.105
319.959
319.667
319.449
319.156
318.87
318.668
314.826
315.015
315.235
315.477
315.668
315.801
315.884
315.926
316.02
315.944
315.959
315.87
315.799
315.698
315.617
315.349
315.162
314.947
314.745
314.533
310.677
310.791
310.943
311.094
311.193
311.363
311.406
311.421
311.43
311.425
311.472
311.357
311.341
311.218
311.172
311.038
310.947
310.658
310.555
310.433
306.37
306.523
306.603
306.755
306.791
306.796
306.854
306.872
306.869
306.871
306.833
306.867
306.787
306.781
306.752
306.591
306.588
306.494
306.357
306.295
302.184
302.27
302.198
302.164
302.298
302.27
302.337
302.32
302.295
302.345
302.309
302.301
302.336
302.255
302.226
302.208
302.2
302.213
302.101
302.104
332.283
332.678
333.215
333.639
334.053
334.325
334.575
334.663
334.827
334.777
334.78
334.707
334.538
334.291
333.92
333.565
333.046
332.655
332.121
331.609
328.159
328.512
328.926
329.286
329.665
329.906
330.116
330.186
330.34
330.35
330.313
330.195
330.037
329.818
329.517
329.172
328.815
328.444
327.95
327.526
323.879
324.254
324.655
324.898
325.215
325.505
325.626
325.789
325.776
325.793
325.816
325.672
325.573
325.388
325.174
324.895
324.517
324.119
323.799
323.395
319.606
319.9
320.175
320.495
320.813
320.786
321.031
321.104
321.215
321.184
321.195
321.138
320.962
320.845
320.688
320.441
320.111
319.851
319.49
319.256
315.359
315.494
315.698
315.967
316.225
316.283
316.446
316.405
316.465
316.534
316.49
316.42
316.407
316.346
316.119
315.981
315.698
315.53
315.23
315.048
311.045
311.152
311.291
311.425
311.618
311.66
311.728
311.78
311.828
311.846
311.826
311.837
311.735
311.667
311.568
311.469
311.239
311.118
310.901
310.798
306.599
306.71
306.787
306.845
306.952
306.999
307.065
307.116
307.12
307.175
307.156
307.128
307.041
306.988
306.992
306.951
306.753
306.699
306.566
306.502
302.214
302.236
302.264
302.347
302.341
302.382
302.334
302.398
302.416
302.421
302.384
302.354
302.37
302.393
302.323
302.33
302.36
302.191
302.162
302.188
333.182
333.73
334.213
334.705
335.066
335.461
335.71
335.846
335.906
335.998
335.917
335.753
335.592
335.358
335.095
334.698
334.173
333.691
333.122
332.556
328.975
329.366
329.795
330.18
330.635
330.875
331.048
331.185
331.304
331.376
331.321
331.198
331.054
330.853
330.524
330.167
329.813
329.372
328.871
328.444
324.599
324.994
325.347
325.731
325.974
326.252
326.447
326.532
326.586
326.605
326.587
326.488
326.363
326.224
325.989
325.698
325.361
324.956
324.627
324.15
320.284
320.539
320.84
321.126
321.388
321.531
321.689
321.802
321.84
321.933
321.769
321.785
321.706
321.618
321.341
321.151
320.815
320.517
320.107
319.873
315.743
316.034
316.271
316.419
316.72
316.779
316.9
316.969
317.027
317.125
317.055
316.997
316.883
316.827
316.67
316.455
316.234
316.019
315.749
315.489
311.303
311.477
311.665
311.803
311.903
312.056
312.063
312.172
312.244
312.288
312.27
312.244
312.16
312.075
311.921
311.823
311.694
311.475
311.227
311.18
306.786
306.938
307.012
307.08
307.145
307.216
307.271
307.383
307.382
307.285
307.351
307.306
307.31
307.266
307.244
307.105
307.015
306.867
306.689
306.663
302.269
302.252
302.302
302.445
302.466
302.465
302.418
302.452
302.395
302.498
302.447
302.472
302.447
302.446
302.424
302.377
302.343
302.305
302.322
302.215
334.109
334.596
335.191
335.713
336.157
336.489
336.74
336.852
337.012
337.092
337.003
336.923
336.772
336.472
336.143
335.805
335.254
334.745
334.084
333.605
329.721
330.186
330.688
330.985
331.447
331.779
331.943
332.172
332.262
332.241
332.292
332.101
331.995
331.807
331.399
331.139
330.715
330.253
329.701
329.267
325.276
325.668
326.005
326.39
326.697
326.958
327.112
327.338
327.389
327.404
327.465
327.292
327.227
326.924
326.743
326.431
326.143
325.733
325.239
324.838
320.726
321.033
321.406
321.728
321.976
322.135
322.262
322.461
322.537
322.543
322.529
322.426
322.348
322.121
321.941
321.652
321.399
321.118
320.776
320.501
316.152
316.397
316.741
316.922
317.129
317.274
317.371
317.511
317.618
317.633
317.544
317.489
317.399
317.292
317.207
316.933
316.767
316.472
316.212
315.972
311.684
311.735
311.966
312.136
312.18
312.375
312.52
312.526
312.599
312.637
312.579
312.557
312.526
312.454
312.33
312.177
311.932
311.814
311.626
311.434
306.937
307.09
307.196
307.228
307.459
307.405
307.502
307.526
307.547
307.569
307.547
307.583
307.584
307.413
307.423
307.331
307.224
307.078
306.967
306.9
302.353
302.365
302.42
302.486
302.526
302.516
302.527
302.529
302.616
302.598
302.583
302.527
302.488
302.473
302.521
302.428
302.373
302.427
302.313
302.288
334.931
335.504
336.04
336.61
337.064
337.429
337.638
337.921
338.066
338.049
338.027
337.964
337.721
337.506
337.086
336.723
336.259
335.73
335.085
334.507
330.437
330.876
331.373
331.808
332.352
332.659
332.796
332.981
333.083
333.213
333.099
333.037
332.868
332.643
332.285
331.943
331.508
331.051
330.559
330.06
325.821
326.239
326.664
327.084
327.447
327.721
327.819
328.084
328.153
328.189
328.119
328.053
327.942
327.713
327.477
327.243
326.78
326.433
326.001
325.575
321.219
321.55
321.97
322.191
322.471
322.737
322.96
323.057
323.174
323.193
323.172
323.045
322.97
322.793
322.575
322.299
322.026
321.73
321.277
321.001
316.616
316.832
317.066
317.384
317.555
317.746
317.927
317.977
318.049
318.102
318.064
317.972
317.94
317.784
317.615
317.382
317.13
316.853
316.57
316.388
311.905
312.105
312.229
312.438
312.606
312.673
312.838
312.917
312.935
312.93
312.938
312.899
312.805
312.738
312.617
312.493
312.31
312.122
311.909
311.717
307.127
307.261
307.306
307.489
307.508
307.686
307.753
307.742
307.806
307.741
307.8
307.732
307.755
307.682
307.589
307.518
307.362
307.255
307.184
307.038
302.451
302.444
302.504
302.466
302.546
302.522
302.533
302.552
302.631
302.61
302.623
302.649
302.586
302.566
302.566
302.521
302.42
302.435
302.421
302.34
335.742
336.276
336.958
337.39
337.882
338.309
338.632
338.843
338.98
339.026
338.948
338.876
338.655
338.425
338.034
337.606
337.144
336.551
335.904
335.386
331.097
331.52
332.087
332.524
332.989
333.393
333.562
333.81
333.911
334.02
333.972
333.857
333.697
333.477
333.215
332.761
332.332
331.789
331.259
330.885
326.44
326.84
327.238
327.7
328.063
328.338
328.582
328.726
328.809
328.891
328.865
328.73
328.653
328.368
328.223
327.816
327.471
327.036
326.586
326.161
321.654
322.019
322.42
322.743
323.051
323.258
323.446
323.644
323.677
323.733
323.672
323.671
323.56
323.331
323.175
322.919
322.576
322.196
321.84
321.533
316.97
317.149
317.534
317.759
317.935
318.103
318.246
318.416
318.472
318.577
318.461
318.467
318.345
318.28
318.039
317.922
317.688
317.337
317.033
316.708
312.193
312.286
312.488
312.682
312.909
312.99
313.086
313.222
313.237
313.192
313.221
313.202
313.132
313.019
312.924
312.816
312.609
312.361
312.189
311.985
307.279
307.419
307.525
307.669
307.708
307.781
307.886
307.917
307.967
308.027
307.932
307.89
307.864
307.871
307.788
307.674
307.556
307.545
307.293
307.125
302.432
302.486
302.541
302.589
302.616
302.604
302.646
302.659
302.679
302.67
302.733
302.658
302.623
302.615
302.617
302.56
302.56
302.494
302.451
302.388
336.404
336.958
337.622
338.158
338.748
339.161
339.419
339.616
339.751
339.907
339.809
339.731
339.515
339.314
338.934
338.456
337.988
337.363
336.73
336.147
331.63
332.225
332.767
333.342
333.657
334.081
334.328
334.531
334.678
334.749
334.712
334.63
334.443
334.175
333.902
333.507
333.094
332.508
331.973
331.492
326.965
327.357
327.865
328.252
328.646
328.904
329.191
329.404
329.44
329.476
329.529
329.366
329.259
329.071
328.846
328.531
328.106
327.622
327.128
326.815
322.142
322.459
322.778
323.153
323.445
323.809
323.92
324.092
324.193
324.219
324.146
324.189
323.971
323.812
323.614
323.372
323.054
322.703
322.258
321.987
317.265
317.633
317.836
318.119
318.328
318.539
318.661
318.843
318.871
318.909
318.846
318.802
318.703
318.588
318.464
318.214
317.979
317.717
317.48
317.146
312.353
312.59
312.803
313.036
313.193
313.24
313.401
313.378
313.569
313.478
313.505
313.466
313.423
313.292
313.213
313.085
312.877
312.685
312.445
312.31
307.446
307.602
307.671
307.761
308.008
307.956
308.038
308.116
308.094
308.201
308.122
308.115
308.11
308.007
307.986
307.851
307.729
307.707
307.512
307.443
302.456
302.535
302.635
302.671
302.669
302.683
302.675
302.704
302.822
302.728
302.696
302.724
302.689
302.701
302.604
302.6
302.633
302.57
302.616
302.516
336.965
337.619
338.251
338.868
339.451
339.841
340.09
340.38
340.583
340.628
340.618
340.503
340.35
340.055
339.67
339.2
338.666
338.049
337.402
336.766
332.184
332.664
333.311
333.822
334.276
334.674
334.997
335.263
335.29
335.366
335.376
335.293
335.106
334.853
334.529
334.087
333.716
333.141
332.554
332.087
327.325
327.872
328.361
328.669
329.074
329.419
329.677
329.883
330.058
330.125
330.052
329.953
329.755
329.637
329.342
329.067
328.567
328.178
327.616
327.215
322.495
322.852
323.188
323.536
323.901
324.248
324.411
324.501
324.632
324.657
324.653
324.608
324.48
324.334
324.075
323.882
323.51
323.167
322.779
322.32
317.564
317.816
318.103
318.455
318.636
318.898
318.99
319.127
319.194
319.271
319.211
319.2
319.151
318.943
318.827
318.572
318.34
318.036
317.804
317.481
312.596
312.728
313.007
313.258
313.399
313.566
313.599
313.736
313.788
313.791
313.755
313.7
313.646
313.623
313.493
313.386
313.107
312.934
312.688
312.449
307.479
307.714
307.84
307.904
308.006
308.131
308.203
308.26
308.252
308.304
308.253
308.333
308.204
308.126
308.163
307.974
307.896
307.771
307.686
307.53
302.525
302.535
302.639
302.643
302.716
302.698
302.8
302.76
302.781
302.784
302.761
302.768
302.788
302.75
302.733
302.662
302.694
302.609
302.625
302.56
337.519
338.098
338.816
339.497
339.961
340.4
340.778
340.999
341.194
341.238
341.276
341.14
340.922
340.73
340.357
339.879
339.312
338.667
337.921
337.275
332.647
333.207
333.819
334.302
334.753
335.082
335.519
335.68
335.869
335.972
335.885
335.789
335.625
335.404
335.082
334.69
334.18
333.649
333.017
332.539
327.801
328.139
328.621
329.135
329.564
329.856
330.182
330.366
330.369
330.512
330.486
330.415
330.311
329.998
329.79
329.507
329.071
328.617
328.089
327.636
322.826
323.053
323.491
324.001
324.271
324.515
324.708
324.963
325.026
325.074
324.97
324.956
324.785
324.663
324.438
324.149
323.836
323.452
323.027
322.743
317.793
318.044
318.355
318.696
318.966
319.06
319.338
319.473
319.499
319.535
319.582
319.483
319.398
319.24
319.011
318.851
318.589
318.281
317.951
317.765
312.696
312.904
313.174
313.286
313.581
313.691
313.814
313.931
314.022
313.989
313.973
313.956
313.918
313.808
313.667
313.537
313.353
313.165
312.839
312.718
307.662
307.718
307.834
308.041
308.208
308.254
308.284
308.336
308.45
308.387
308.44
308.383
308.352
308.316
308.285
308.084
308.019
307.89
307.737
307.627
302.514
302.718
302.711
302.703
302.723
302.764
302.815
302.855
302.835
302.849
302.797
302.816
302.855
302.766
302.786
302.654
302.708
302.676
302.563
302.591
337.862
338.489
339.169
339.738
340.38
340.861
341.235
341.485
341.717
341.705
341.59
341.603
341.364
341.141
340.733
340.221
339.685
339.089
338.3
337.675
332.916
333.5
334.053
334.546
335.127
335.472
335.818
336.079
336.236
336.342
336.24
336.171
336.006
335.784
335.411
334.975
334.53
333.974
333.339
332.902
327.997
328.416
328.925
329.397
329.79
330.089
330.43
330.679
330.722
330.792
330.759
330.745
330.56
330.372
330.097
329.676
329.314
328.847
328.312
327.859
322.968
323.281
323.755
324.13
324.4
324.708
324.93
325.105
325.169
325.253
325.337
325.201
325.105
324.879
324.699
324.39
324.089
323.701
323.262
322.884
317.941
318.216
318.509
318.79
319.053
319.346
319.491
319.62
319.69
319.732
319.682
319.658
319.55
319.449
319.259
319.02
318.76
318.444
318.164
317.844
312.832
312.983
313.183
313.488
313.586
313.868
313.934
313.98
314.071
314.14
314.085
314.085
314.007
313.959
313.756
313.604
313.417
313.177
313.069
312.77
307.744
307.88
308.015
308.012
308.212
308.338
308.394
308.505
308.508
308.424
308.473
308.471
308.337
308.404
308.328
308.238
308.142
307.903
307.785
307.74
302.586
302.64
302.721
302.7
302.765
302.783
302.816
302.842
302.897
302.853
302.845
302.774
302.796
302.849
302.834
302.773
302.741
302.664
302.625
302.581
)
;

boundaryField
{
    hotSide
    {
        type            fixedGradient;
        gradient        nonuniform List<scalar> 
400
(
321.511
322.87
325.591
329.677
335.133
341.965
350.181
359.788
370.794
383.208
397.037
412.289
428.971
447.088
466.647
487.651
510.105
534.011
559.372
586.191
323.738
325.08
327.767
331.802
337.194
343.949
352.078
361.591
372.498
384.81
398.537
413.687
430.268
448.289
467.755
488.672
511.043
534.872
560.161
586.913
326.149
327.47
330.116
334.091
339.406
346.071
354.099
363.503
374.296
386.491
400.101
415.136
431.606
449.52
468.885
489.706
511.988
535.735
560.948
587.63
328.704
330
332.597
336.503
341.73
348.292
356.205
365.485
376.15
388.215
401.695
416.604
432.954
450.753
470.009
490.73
512.919
536.579
561.714
588.325
331.33
332.599
335.142
338.97
344.099
350.546
358.332
367.477
378.003
389.928
403.271
418.047
434.27
451.949
471.095
491.712
513.807
537.382
562.439
588.978
333.918
335.158
337.643
341.389
346.414
352.74
360.392
369.397
379.779
391.562
404.765
419.407
435.503
453.065
472.101
492.618
514.622
538.114
563.096
589.569
336.321
337.531
339.959
343.622
348.544
354.751
362.274
371.142
381.385
393.031
406.101
420.618
436.595
454.047
472.983
493.409
515.33
538.747
563.663
590.076
338.36
339.543
341.92
345.509
350.339
356.44
363.847
372.595
382.718
394.244
407.2
421.608
437.485
454.844
473.695
494.045
515.897
539.253
564.114
590.478
339.852
341.015
343.352
346.885
351.645
357.665
364.985
373.643
383.675
395.113
407.984
422.312
438.116
455.407
474.197
494.491
516.294
539.606
564.428
590.758
340.643
341.795
344.11
347.613
352.334
358.311
365.584
374.193
384.176
395.567
408.393
422.679
438.443
455.699
474.456
494.722
516.498
539.788
564.589
590.901
340.643
341.795
344.11
347.613
352.334
358.311
365.584
374.193
384.176
395.567
408.393
422.679
438.443
455.699
474.456
494.722
516.498
539.788
564.589
590.901
339.852
341.015
343.352
346.885
351.645
357.665
364.985
373.643
383.675
395.113
407.984
422.312
438.116
455.407
474.197
494.491
516.294
539.606
564.428
590.758
338.36
339.543
341.92
345.509
350.339
356.44
363.847
372.595
382.718
394.244
407.2
421.608
437.485
454.844
473.695
494.045
515.897
539.253
564.114
590.478
336.321
337.531
339.959
343.622
348.544
354.751
362.274
371.142
381.385
393.031
406.101
420.618
436.595
454.047
472.983
493.409
515.33
538.747
563.663
590.076
333.918
335.158
337.643
341.389
346.414
352.74
360.392
369.397
379.779
391.562
404.765
419.407
435.503
453.065
472.101
492.618
514.622
538.114
563.096
589.569
331.33
332.599
335.142
338.97
344.099
350.546
358.332
367.477
378.003
389.928
403.271
418.047
434.27
451.949
471.095
491.712
513.807
537.382
562.439
588.978
328.704
330
332.597
336.503
341.73
348.292
356.205
365.485
376.15
388.215
401.695
416.604
432.954
450.753
470.009
490.73
512.919
536.579
561.714
588.325
326.149
327.47
330.116
334.091
339.406
346.071
354.099
363.503
374.296
386.491
400.101
415.136
431.606
449.52
468.885
489.706
511.988
535.735
560.948
587.63
323.738
325.08
327.767
331.802
337.194
343.949
352.078
361.591
372.498
384.81
398.537
413.687
430.268
448.289
467.755
488.672
511.043
534.872
560.161
586.913
321.511
322.87
325.591
329.677
335.133
341.965
350.181
359.788
370.794
383.208
397.037
412.289
428.971
447.088
466.647
487.651
510.105
534.011
559.372
586.191
)
;
    }
    coldSide
    {
        type            mixed;
        refValue        uniform 300;
        refGradient     uniform 0;
        valueFraction   uniform 0.991591;
        source          uniform 0;
        value           nonuniform List<scalar> 
400
(
300.012
300.012
300.013
300.013
300.014
300.015
300.016
300.016
300.017
300.017
300.018
300.019
300.019
300.02
300.021
300.02
300.021
300.021
300.021
300.022
300.012
300.012
300.013
300.014
300.015
300.014
300.016
300.016
300.017
300.018
300.019
300.019
300.019
300.02
300.021
300.021
300.021
300.021
300.023
300.022
300.013