/*--------------------------------*- C++ -*----------------------------------*\
| =========                 |                                                 |
| \\      /  F ield         | OpenFOAM: The Open Source CFD Toolbox           |
|  \\    /   O peration     | Version:  2212                                  |
|   \\  /    A nd           | Website:  www.openfoam.com                      |
|    \\/     M anipulation  |                                                 |
\*---------------------------------------------------------------------------*/
FoamFile
{
    version     2.0;
    format      ascii;
    arch        "LSB;label=32;scalar=64";
    class       volScalarField;
    location    "0";
    object      T;
}
// * * * * * * * * * * * * * * * * * * * * * * * * * * * * * * * * * * * * * //

dimensions      [0 0 0 1 0 0 0];

internalField   nonuniform List<scalar> 
3200
(
349.493
348.623
347.733
347.574
347.734
348.237
349.014
349.727
350.08
350.445
350.289
350.03
349.289
348.669
347.671
346.789
346.125
345.954
346.36
347.11
342.836
342.136
341.381
341.231
341.336
341.795
342.485
343.069
343.386
343.679
343.538
343.311
342.649
342.122
341.226
340.462
339.877
339.722
340.047
340.681
336.198
335.665
335.018
334.896
334.942
335.374
335.958
336.4
336.707
336.942
336.812
336.603
336.022
335.599
334.836
334.199
333.669
333.537
333.777
334.323
329.573
329.196
328.643
328.554
328.574
328.944
329.424
329.75
330.008
330.204
330.104
329.915
329.424
329.083
328.485
327.938
327.526
327.393
327.589
328.03
322.994
322.722
322.268
322.211
322.24
322.503
322.889
323.132
323.327
323.481
323.413
323.256
322.855
322.589
322.129
321.716
321.397
321.284
321.427
321.791
316.438
316.224
315.917
315.885
315.899
316.068
316.356
316.501
316.666
316.765
316.729
316.617
316.331
316.145
315.794
315.516
315.285
315.194
315.275
315.574
309.873
309.743
309.582
309.549
309.559
309.638
309.81
309.909
310.004
310.071
310.058
309.994
309.816
309.695
309.469
309.324
309.174
309.125
309.174
309.359
303.312
303.267
303.205
303.201
303.196
303.229
303.279
303.327
303.34
303.377
303.364
303.351
303.287
303.252
303.172
303.125
303.08
303.059
303.073
303.14
349.495
348.584
347.82
347.635
347.792
348.4
349.227
349.798
350.337
350.717
350.631
350.398
349.794
348.844
347.877
346.886
346.158
345.917
346.339
347.054
342.868
342.1
341.473
341.326
341.387
341.941
342.663
343.123
343.589
343.925
343.82
343.608
343.07
342.254
341.43
340.557
339.898
339.704
340.084
340.641
336.236
335.622
335.112
334.982
335.02
335.51
336.071
336.468
336.871
337.14
337.063
336.871
336.39
335.701
335.002
334.28
333.678
333.55
333.839
334.29
329.619
329.163
328.732
328.622
328.652
329.067
329.484
329.827
330.151
330.367
330.32
330.159
329.737
329.165
328.593
328.017
327.513
327.432
327.633
327.971
323.007
322.705
322.359
322.259
322.273
322.615
322.932
323.193
323.441
323.599
323.583
323.453
323.134
322.657
322.185
321.759
321.385
321.327
321.468
321.688
316.434
316.237
315.982
315.91
315.911
316.147
316.375
316.58
316.732
316.846
316.863
316.77
316.552
316.183
315.851
315.543
315.279
315.219
315.31
315.461
309.865
309.756
309.588
309.553
309.555
309.692
309.837
309.96
310.038
310.104
310.143
310.078
309.947
309.721
309.504
309.315
309.176
309.137
309.175
309.276
303.307
303.272
303.211
303.208
303.203
303.257
303.296
303.347
303.36
303.396
303.398
303.377
303.332
303.257
303.185
303.117
303.077
303.066
303.067
303.107
349.385
348.518
347.887
347.799
347.901
348.638
349.416
350.165
350.711
351.221
351.322
350.982
350.186
349.366
348.26
347.101
346.39
346.143
346.471
347.293
342.766
342.064
341.528
341.472
341.51
342.112
342.819
343.41
343.894
344.33
344.408
344.112
343.434
342.695
341.727
340.705
340.114
339.908
340.186
340.856
336.164
335.604
335.149
335.137
335.109
335.619
336.231
336.683
337.103
337.479
337.523
337.284
336.697
336.076
335.236
334.375
333.881
333.723
333.934
334.471
329.593
329.14
328.767
328.762
328.692
329.121
329.625
329.974
330.338
330.646
330.645
330.454
330
329.471
328.783
328.07
327.692
327.551
327.721
328.119
323.012
322.696
322.384
322.37
322.305
322.637
323.045
323.303
323.605
323.83
323.806
323.665
323.331
322.9
322.368
321.817
321.534
321.405
321.54
321.806
316.459
316.238
315.996
315.986
315.908
316.162
316.47
316.659
316.877
317.022
317.014
316.92
316.675
316.363
315.981
315.587
315.384
315.293
315.362
315.565
309.886
309.763
309.601
309.606
309.556
309.709
309.891
310.003
310.135
310.23
310.23
310.155
310.015
309.832
309.589
309.369
309.234
309.179
309.227
309.325
303.306
303.269
303.218
303.222
303.201
303.253
303.316
303.343
303.402
303.436
303.431
303.395
303.357
303.296
303.212
303.135
303.096
303.073
303.091
303.12
349.631
348.686
348.18
348.025
348.337
348.982
349.843
350.634
351.393
351.815
352.03
351.668
350.934
349.906
348.754
347.602
346.841
346.566
346.78
347.521
342.993
342.182
341.802
341.648
341.876
342.417
343.152
343.812
344.474
344.849
345.022
344.707
344.069
343.185
342.179
341.152
340.507
340.279
340.443
341.068
336.361
335.678
335.382
335.245
335.422
335.867
336.494
337.01
337.593
337.91
338.036
337.783
337.233
336.496
335.661
334.743
334.216
334.029
334.165
334.662
329.745
329.174
328.963
328.841
328.989
329.313
329.875
330.236
330.739
331.001
331.087
330.868
330.451
329.848
329.15
328.382
327.951
327.799
327.92
328.296
323.131
322.699
322.536
322.431
322.552
322.801
323.23
323.509
323.905
324.119
324.154
323.999
323.691
323.213
322.658
322.041
321.709
321.6
321.689
321.966
316.533
316.23
316.118
316.031
316.117
316.285
316.589
316.797
317.067
317.243
317.239
317.134
316.931
316.589
316.162
315.75
315.484
315.423
315.475
315.645
309.92
309.748
309.703
309.643
309.673
309.788
309.963
310.097
310.235
310.37
310.348
310.278
310.17
309.968
309.699
309.476
309.308
309.259
309.289
309.363
303.322
303.269
303.253
303.226
303.238
303.279
303.334
303.385
303.441
303.487
303.468
303.446
303.409
303.331
303.245
303.183
303.121
303.098
303.12
303.126
349.959
349.019
348.499
348.474
348.767
349.395
350.333
351.199
352.109
352.607
352.812
352.353
351.695
350.639
349.513
348.36
347.438
347.132
347.192
348.035
343.26
342.505
342.045
342.026
342.242
342.79
343.592
344.314
345.108
345.527
345.694
345.266
344.719
343.793
342.839
341.836
341.034
340.772
340.837
341.495
336.608
335.972
335.587
335.546
335.723
336.206
336.885
337.464
338.131
338.472
338.617
338.246
337.792
337.001
336.187
335.339
334.687
334.437
334.536
335.01
329.96
329.438
329.144
329.058
329.218
329.642
330.172
330.638
331.18
331.444
331.583
331.26
330.88
330.254
329.556
328.884
328.369
328.13
328.23
328.585
323.309
322.905
322.678
322.59
322.717
323.068
323.451
323.818
324.235
324.451
324.529
324.283
323.994
323.506
322.972
322.44
322.052
321.87
321.942
322.185
316.65
316.363
316.23
316.147
316.22
316.477
316.727
316.988
317.3
317.466
317.505
317.331
317.127
316.781
316.413
316.025
315.749
315.62
315.67
315.83
310.006
309.814
309.754
309.702
309.725
309.876
310.027
310.189
310.383
310.496
310.498
310.407
310.286
310.079
309.857
309.63
309.439
309.375
309.408
309.498
303.359
303.296
303.276
303.265
303.258
303.301
303.369
303.405
303.473
303.512
303.518
303.492
303.443
303.371
303.3
303.229
303.162
303.145
303.146
303.173
350.436
349.488
349.033
349.112
349.369
350.095
351.065
351.889
352.908
353.528
353.614
353.321
352.531
351.489
350.223
349.225
348.203
347.903
347.949
348.535
343.709
342.901
342.495
342.572
342.793
343.353
344.226
344.911
345.785
346.321
346.409
346.122
345.442
344.517
343.446
342.587
341.68
341.46
341.436
341.942
336.97
336.296
335.978
336.037
336.21
336.657
337.398
337.95
338.687
339.133
339.229
338.966
338.395
337.591
336.705
335.96
335.208
335.032
334.997
335.385
330.243
329.702
329.445
329.466
329.631
329.971
330.58
331.024
331.638
331.967
332.062
331.834
331.381
330.718
329.985
329.378
328.774
328.613
328.604
328.891
323.554
323.096
322.915
322.909
323.069
323.318
323.778
324.086
324.594
324.851
324.899
324.73
324.386
323.876
323.294
322.847
322.375
322.223
322.233
322.441
316.836
316.488
316.375
316.352
316.494
316.64
316.967
317.182
317.557
317.759
317.784
317.652
317.417
317.066
316.622
316.321
315.986
315.865
315.879
316.027
310.12
309.903
309.842
309.814
309.896
309.991
310.175
310.301
310.528
310.675
310.686
310.584
310.438
310.253
309.98
309.8
309.59
309.522
309.534
309.622
303.391
303.318
303.296
303.288
303.31
303.354
303.409
303.457
303.516
303.571
303.591
303.539
303.495
303.436
303.333
303.29
303.222
303.184
303.189
303.221
351.142
350.301
349.655
349.779
350.157
350.829
351.776
352.694
353.576
354.359
354.552
354.255
353.344
352.333
351.141
350.023
348.985
348.586
348.699
349.314
344.323
343.602
343.031
343.161
343.477
344.021
344.861
345.604
346.363
347.022
347.194
346.93
346.112
345.255
344.242
343.251
342.365
342.036
342.101
342.608
337.504
336.916
336.428
336.52
336.786
337.235
337.936
338.54
339.192
339.729
339.873
339.639
338.953
338.232
337.378
336.544
335.81
335.523
335.563
335.932
330.698
330.189
329.825
329.879
330.08
330.441
331.046
331.498
332.054
332.471
332.584
332.405
331.808
331.232
330.542
329.867
329.263
329.017
329.054
329.322
323.909
323.471
323.192
323.269
323.38
323.669
324.155
324.498
324.944
325.249
325.317
325.199
324.694
324.247
323.729
323.198
322.75
322.534
322.592
322.774
317.085
316.78
316.568
316.615
316.689
316.892
317.272
317.5
317.823
318.039
318.078
317.987
317.613
317.315
316.936
316.553
316.252
316.104
316.139
316.234
310.261
310.078
309.946
309.972
310.012
310.129
310.369
310.517
310.695
310.835
310.859
310.806
310.569
310.401
310.161
309.93
309.744
309.661
309.689
309.736
303.439
303.373
303.335
303.341
303.36
303.389
303.474
303.531
303.584
303.627
303.639
303.62
303.544
303.481
303.418
303.321
303.266
303.243
303.255
303.255
351.861
350.992
350.588
350.541
350.971
351.593
352.507
353.626
354.473
355.249
355.345
355.172
354.345
353.227
352.166
350.751
349.908
349.485
349.736
350.058
344.912
344.195
343.837
343.827
344.146
344.682
345.489
346.42
347.158
347.804
347.882
347.706
347.003
346.025
345.118
343.89
343.163
342.795
342.994
343.247
337.973
337.405
337.095
337.101
337.315
337.798
338.469
339.24
339.842
340.384
340.464
340.271
339.678
338.866
338.091
337.088
336.48
336.149
336.306
336.49
331.056
330.588
330.341
330.377
330.523
330.916
331.483
332.07
332.58
332.998
333.071
332.88
332.408
331.75
331.111
330.285
329.826
329.526
329.658
329.794
324.145
323.791
323.587
323.645
323.714
324.057
324.476
324.923
325.336
325.651
325.713
325.541
325.156
324.666
324.138
323.533
323.205
322.936
323.034
323.13
317.239
317
316.845
316.883
316.927
317.182
317.472
317.791
318.093
318.315
318.38
318.244
317.946
317.619
317.227
316.785
316.599
316.371
316.431
316.509
310.361
310.21
310.107
310.14
310.148
310.31
310.472
310.678
310.853
310.993
311.04
310.956
310.771
310.574
310.344
310.068
309.966
309.828
309.864
309.915
303.487
303.42
303.389
303.402
303.396
303.45
303.507
303.574
303.645
303.681
303.701
303.672
303.596
303.544
303.469
303.364
303.344
303.289
303.311
303.33
352.607
351.967
351.364
351.422
351.759
352.444
353.292
354.312
355.159
356.119
356.29
356.142
355.267
354.135
352.889
351.501
350.706
350.335
350.512
350.877
345.564
345.046
344.525
344.576
344.849
345.44
346.122
347.013
347.743
348.531
348.704
348.539
347.8
346.834
345.742
344.545
343.846
343.513
343.68
343.954
338.532
338.108
337.692
337.724
337.954
338.439
339.004
339.748
340.358
340.97
341.187
341.006
340.368
339.551
338.626
337.641
337.036
336.762
336.877
337.102
331.521
331.185
330.87
330.886
331.052
331.426
331.889
332.503
332.975
333.472
333.662
333.508
332.989
332.32
331.557
330.749
330.275
330.061
330.138
330.298
324.524
324.265
324.038
324.05
324.154
324.437
324.774
325.265
325.61
325.998
326.167
326.043
325.635
325.11
324.512
323.885
323.535
323.361
323.392
323.529
317.532
317.341
317.189
317.185
317.259
317.465
317.684
318.033
318.288
318.553
318.693
318.601
318.311
317.927
317.506
317.065
316.792
316.665
316.693
316.813
310.535
310.421
310.342
310.326
310.365
310.483
310.611
310.825
310.963
311.145
311.226
311.177
310.984
310.748
310.513
310.243
310.076
310.002
310.02
310.079
303.539
303.498
303.478
303.473
303.477
303.508
303.55
303.632
303.67
303.731
303.777
303.751
303.681
303.608
303.524
303.43
303.378
303.356
303.366
303.382
353.503
352.77
352.329
352.224
352.619
353.286
354.061
355.179
356.026
356.808
357.127
356.879
356.001
354.975
353.826
352.397
351.729
351.334
351.463
351.824
346.349
345.754
345.359
345.28
345.62
346.158
346.801
347.775
348.473
349.162
349.413
349.193
348.454
347.566
346.544
345.318
344.722
344.39
344.492
344.783
339.191
338.713
338.368
338.323
338.614
339.038
339.553
340.382
340.95
341.53
341.727
341.561
340.939
340.179
339.31
338.279
337.778
337.49
337.581
337.784
332.03
331.661
331.391
331.367
331.607
331.925
332.337
332.994
333.471
333.951
334.086
333.948
333.48
332.832
332.127
331.285
330.833
330.625
330.715
330.847
324.91
324.608
324.414
324.422
324.578
324.838
325.127
325.646
325.991
326.387
326.502
326.39
326.052
325.53
324.966
324.325
323.963
323.781
323.857
323.952
317.814
317.577
317.436
317.453
317.557
317.754
317.927
318.307
318.543
318.846
318.945
318.854
318.62
318.244
317.818
317.386
317.117
316.967
317.028
317.089
310.712
310.544
310.478
310.471
310.535
310.658
310.755
310.99
311.126
311.322
311.379
311.332
311.178
310.968
310.687
310.43
310.292
310.176
310.214
310.254
303.589
303.538
303.508
303.51
303.539
303.562
303.605
303.691
303.731
303.797
303.814
303.799
303.742
303.674
303.585
303.498
303.449
303.397
303.422
303.43
354.241
353.673
353.081
353.093
353.38
354.053
354.851
355.855
356.713
357.466
357.731
357.516
356.786
355.617
354.511
353.345
352.556
352.279
352.265
352.794
346.982
346.529
346.024
346.032
346.247
346.82
347.501
348.377
349.076
349.718
349.964
349.753
349.108
348.118
347.155
346.135
345.461
345.187
345.198
345.632
339.753
339.375
338.957
338.974
339.114
339.632
340.168
340.916
341.463
342.017
342.191
342.034
341.479
340.658
339.834
338.978
338.419
338.147
338.162
338.504
332.531
332.224
331.905
331.88
331.985
332.439
332.856
333.451
333.87
334.319
334.465
334.382
333.903
333.228
332.549
331.86
331.411
331.147
331.183
331.429
325.307
325.075
324.839
324.791
324.878
325.234
325.537
326.016
326.306
326.659
326.763
326.741
326.371
325.835
325.307
324.788
324.413
324.199
324.225
324.38
318.074
317.919
317.762
317.701
317.762
318.033
318.236
318.588
318.767
319.033
319.117
319.123
318.846
318.455
318.09
317.717
317.421
317.284
317.285
317.399
310.84
310.758
310.679
310.635
310.675
310.829
310.95
311.182
311.26
311.417
311.482
311.485
311.315
311.1
310.868
310.632
310.459
310.384
310.362
310.432
303.618
303.625
303.589
303.569
303.58
303.619
303.671
303.745
303.776
303.824
303.855
303.838
303.804
303.724
303.649
303.566
303.504
303.478
303.468
303.488
355.191
354.588
354.102
353.926
354.248
354.859
355.535
356.644
357.453
358.085
358.3
358.056
357.436
356.381
355.3
354.256
353.553
353.118
353.161
353.697
347.799
347.308
346.889
346.744
347.018
347.51
348.078
349.037
349.711
350.251
350.417
350.215
349.691
348.75
347.818
346.924
346.317
345.93
345.971
346.389
340.414
340.024
339.669
339.587
339.794
340.18
340.61
341.447
342.018
342.476
342.593
342.422
342.006
341.173
340.382
339.639
339.113
338.797
338.836
339.162
333.063
332.755
332.436
332.43
332.569
332.875
333.185
333.894
334.337
334.711
334.794
334.657
334.332
333.624
332.976
332.364
331.949
331.697
331.738
331.976
325.723
325.474
325.232
325.233
325.33
325.584
325.808
326.357
326.688
326.997
327.041
326.96
326.675
326.117
325.619
325.129
324.811
324.612
324.664
324.838
318.387
318.187
318.037
318.043
318.094
318.279
318.448
318.847
319.065
319.292
319.307
319.259
319.043
318.65
318.292
317.956
317.736
317.566
317.605
317.721
311.049
310.916
310.837
310.833
310.869
310.982
311.077
311.308
311.446
311.596
311.582
311.559
311.441
311.196
310.975
310.764
310.637
310.54
310.572
310.64
303.696
303.65
303.637
303.628
303.65
303.681
303.713
303.795
303.836
303.885
303.878
303.878
303.837
303.752
303.678
303.59
303.569
303.541
303.543
303.571
356.2
355.567
354.903
354.739
355.144
355.58
356.316
357.353
357.965
358.736
358.874
358.619
357.931
357.017
356.017
355.073
354.396
354.082
354.184
354.593
348.719
348.182
347.609
347.425
347.783
348.127
348.77
349.681
350.162
350.85
350.947
350.708
350.129
349.332
348.438
347.64
347.009
346.762
346.847
347.179
341.228
340.812
340.3
340.132
340.436
340.711
341.218
342.016
342.389
342.989
343.038
342.818
342.363
341.7
340.895
340.237
339.698
339.489
339.569
339.834
333.729
333.413
332.984
332.819
333.07
333.304
333.697
334.361
334.626
335.133
335.157
334.981
334.617
334.102
333.386
332.842
332.439
332.269
332.331
332.517
326.217
325.987
325.673
325.524
325.711
325.903
326.201
326.707
326.897
327.311
327.338
327.195
326.922
326.525
325.954
325.5
325.214
325.093
325.125
325.261
318.721
318.566
318.341
318.232
318.378
318.502
318.733
319.078
319.193
319.505
319.517
319.441
319.23
318.95
318.543
318.191
318.007
317.931
317.93
318.042
311.242
311.132
311.025
310.946
311.025
311.117
311.257
311.474
311.491
311.7
311.715
311.689
311.534
311.387
311.141
310.904
310.809
310.794
310.755
310.845
303.763
303.741
303.693
303.678
303.695
303.725
303.783
303.851
303.856
303.922
303.923
303.915
303.87
303.819
303.733
303.653
303.63
303.621
303.589
303.641
357.155
356.509
355.88
355.631
355.913
356.378
357.051
357.886
358.52
359.142
359.211
359.14
358.526
357.661
356.647
355.848
355.138
354.955
355.104
355.562
349.528
349.008
348.425
348.178
348.436
348.853
349.407
350.129
350.647
351.193
351.245
351.192
350.631
349.891
349.005
348.287
347.688
347.532
347.649
347.99
341.917
341.475
340.979
340.748
340.956
341.349
341.785
342.398
342.815
343.279
343.321
343.259
342.762
342.137
341.397
340.794
340.272
340.139
340.236
340.498
334.297
333.922
333.524
333.348
333.494
333.813
334.167
334.671
334.999
335.393
335.415
335.368
334.942
334.432
333.827
333.327
332.907
332.792
332.865
333.073
326.664
326.389
326.082
325.933
326.059
326.303
326.562
326.964
327.194
327.529
327.54
327.492
327.151
326.737
326.308
325.91
325.57
325.492
325.535
325.685
319.048
318.856
318.625
318.516
318.628
318.793
318.977
319.258
319.421
319.669
319.684
319.617
319.362
319.114
318.811
318.512
318.259
318.215
318.218
318.325
311.438
311.325
311.17
311.111
311.201
311.285
311.403
311.58
311.659
311.803
311.812
311.774
311.614
311.478
311.299
311.114
310.953
310.947
310.922
310.992
303.84
303.796
303.734
303.722
303.761
303.781
303.835
303.883
303.91
303.946
303.953
303.941
303.887
303.843
303.795
303.722
303.674
303.676
303.65
303.68
357.999
357.383
356.751
356.561
356.78
357.352
357.833
358.525
359.145
359.593
359.786
359.641
359.018
358.284
357.365
356.601
356.056
355.799
355.966
356.426
350.258
349.738
349.15
349.018
349.177
349.696
350.086
350.688
351.198
351.577
351.737
351.611
351.052
350.419
349.633
348.941
348.472
348.256
348.387
348.767
342.549
342.09
341.572
341.485
341.582
342.043
342.33
342.871
343.259
343.599
343.72
343.622
343.13
342.612
341.941
341.335
340.941
340.757
340.879
341.199
334.824
334.433
334.023
333.953
334.017
334.391
334.595
335.057
335.354
335.648
335.738
335.677
335.259
334.824
334.286
333.762
333.441
333.294
333.397
333.664
327.076
326.772
326.445
326.409
326.446
326.753
326.904
327.269
327.459
327.71
327.766
327.741
327.385
327.048
326.667
326.226
325.98
325.866
325.924
326.162
319.334
319.121
318.892
318.856
318.895
319.131
319.237
319.477
319.619
319.776
319.831
319.835
319.558
319.332
319.058
318.725
318.548
318.464
318.492
318.696
311.62
311.468
311.335
311.334
311.336
311.51
311.56
311.703
311.789
311.847
311.922
311.918
311.75
311.585
311.441
311.236
311.135
311.087
311.092
311.234
303.893
303.847
303.808
303.805
303.797
303.862
303.873
303.922
303.956
303.963
303.997
303.991
303.937
303.869
303.838
303.764
303.725
303.711
303.721
303.758
359.173
358.389
357.734
357.621
357.721
358.123
358.558
359.149
359.644
360.085
360.217
360.099
359.428
358.904
358.145
357.429
356.978
356.819
356.918
357.554
351.26
350.59
350.022
349.943
350.018
350.337
350.706
351.226
351.645
352.023
352.149
352.003
351.41
350.964
350.304
349.668
349.228
349.133
349.199
349.728
343.356
342.82
342.332
342.264
342.295
342.57
342.881
343.325
343.679
343.973
344.079
343.962
343.441
343.066
342.511
341.955
341.563
341.503
341.545
341.965
335.459
335.033
334.646
334.577
334.571
334.84
335.083
335.429
335.714
335.938
336.06
335.948
335.521
335.223
334.727
334.273
333.985
333.921
333.942
334.272
327.552
327.233
326.945
326.903
326.87
327.113
327.274
327.53
327.761
327.904
328.055
327.961
327.627
327.386
326.994
326.621
326.419
326.374
326.362
326.615
319.666
319.444
319.248
319.206
319.173
319.372
319.487
319.642
319.818
319.935
320.025
319.971
319.734
319.553
319.279
319.02
318.87
318.835
318.824
318.994
311.811
311.678
311.569
311.529
311.509
311.638
311.699
311.797
311.889
311.977
312.038
311.986
311.838
311.747
311.571
311.423
311.348
311.305
311.289
311.394
303.955
303.912
303.868
303.876
303.846
303.902
303.922
303.953
303.969
304.013
304.04
304.019
303.962
303.93
303.884
303.826
303.801
303.786
303.783
303.819
360.258
359.465
358.767
358.745
358.626
358.801
359.374
359.831
360.209
360.615
360.736
360.553
360.145
359.578
358.746
358.207
357.841
357.779
358.005
358.501
352.199
351.529
350.935
350.887
350.806
350.922
351.415
351.803
352.099
352.486
352.592
352.424
352.026
351.575
350.815
350.353
350.04
349.967
350.169
350.57
344.159
343.604
343.103
343.029
342.966
343.05
343.457
343.796
344.026
344.364
344.468
344.33
343.966
343.594
342.931
342.546
342.284
342.18
342.368
342.697
336.12
335.685
335.261
335.192
335.129
335.214
335.509
335.809
335.981
336.253
336.368
336.273
335.933
335.635
335.09
334.772
334.559
334.463
334.595
334.876
328.09
327.78
327.435
327.35
327.298
327.391
327.597
327.844
327.978
328.166
328.293
328.21
327.938
327.688
327.254
327.028
326.865
326.782
326.881
327.097
320.053
319.851
319.616
319.517
319.497
319.561
319.703
319.902
319.975
320.105
320.216
320.162
319.972
319.758
319.453
319.291
319.204
319.122
319.19
319.339
312.044
311.929
311.791
311.696
311.706
311.744
311.832
311.955
311.994
312.069
312.156
312.106
312.018
311.854
311.679
311.572
311.537
311.493
311.536
311.614
304.038
304.007
303.958
303.915
303.919
303.939
303.962
304.011
304.02
304.046
304.075
304.055
304.027
303.979
303.918
303.889
303.864
303.846
303.866
303.894
361.398
360.519
359.839
359.627
359.575
359.759
360.131
360.533
360.879
361.285
361.282
361.063
360.771
360.228
359.608
359.15
358.93
358.831
359.16
359.623
353.176
352.431
351.842
351.657
351.601
351.774
352.086
352.413
352.717
353.038
353.032
352.83
352.572
352.074
351.556
351.148
350.978
350.876
351.152
351.519
344.969
344.331
343.845
343.696
343.634
343.812
344.048
344.298
344.574
344.81
344.806
344.628
344.429
343.977
343.54
343.209
343.075
342.973
343.196
343.474
336.782
336.246
335.875
335.744
335.696
335.852
336.035
336.199
336.439
336.617
336.631
336.464
336.301
335.937
335.566
335.305
335.203
335.085
335.282
335.508
328.588
328.175
327.902
327.803
327.745
327.9
328.006
328.142
328.341
328.45
328.503
328.371
328.222
327.93
327.644
327.447
327.368
327.26
327.42
327.612
320.398
320.116
319.942
319.863
319.819
319.898
319.997
320.087
320.25
320.303
320.357
320.269
320.15
319.948
319.737
319.595
319.541
319.469
319.57
319.735
312.239
312.085
311.975
311.939
311.912
311.94
312.003
312.062
312.154
312.174
312.218
312.162
312.104
311.977
311.851
311.76
311.734
311.678
311.745
311.86
304.097
304.055
304.013
303.999
303.993
304.001
304.02
304.044
304.078
304.085
304.089
304.079
304.053
304.017
303.965
303.938
303.934
303.915
303.931
303.981
362.333
361.442
360.852
360.56
360.462
360.679
360.993
361.224
361.566
361.776
361.834
361.661
361.287
360.82
360.29
360.001
359.847
359.76
360.1
360.642
353.956
353.224
352.709
352.453
352.338
352.546
352.815
353.001
353.282
353.45
353.507
353.365
353.006
352.616
352.138
351.888
351.747
351.654
351.945
352.392
345.62
344.998
344.556
344.341
344.265
344.445
344.644
344.808
345.028
345.169
345.209
345.105
344.769
344.464
344.053
343.823
343.713
343.63
343.851
344.238
337.301
336.808
336.431
336.254
336.179
336.351
336.492
336.628
336.797
336.923
336.943
336.861
336.57
336.356
335.994
335.792
335.717
335.658
335.797
336.159
328.989
328.596
328.33
328.167
328.117
328.269
328.364
328.467
328.608
328.69
328.711
328.653
328.416
328.254
327.965
327.785
327.744
327.711
327.797
328.098
320.715
320.43
320.247
320.122
320.089
320.18
320.241
320.317
320.432
320.487
320.499
320.475
320.3
320.15
319.948
319.834
319.788
319.768
319.844
320.064
312.444
312.263
312.163
312.09
312.051
312.124
312.143
312.181
312.275
312.312
312.316
312.274
312.194
312.101
311.979
311.895
311.872
311.864
311.922
312.037
304.17
304.108
304.08
304.057
304.043
304.056
304.061
304.076
304.119
304.129
304.134
304.116
304.087
304.058
304.017
303.981
303.982
303.976
304
304.037
363.109
362.076
361.552
361.325
361.16
361.397
361.671
361.948
362.049
362.166
362.234
362.131
361.801
361.464
360.897
360.586
360.451
360.526
360.765
361.522
354.613
353.694
353.277
353.104
352.911
353.124
353.365
353.584
353.66
353.764
353.847
353.75
353.437
353.146
352.618
352.342
352.25
352.304
352.468
353.125
346.155
345.351
345.027
344.912
344.698
344.885
345.1
345.287
345.346
345.418
345.524
345.411
345.128
344.865
344.415
344.176
344.13
344.149
344.26
344.811
337.733
337.074
336.799
336.732
336.535
336.688
336.857
337.025
337.079
337.108
337.201
337.119
336.853
336.645
336.254
336.063
336.063
336.059
336.138
336.584
329.348
328.826
328.596
328.563
328.391
328.51
328.637
328.786
328.823
328.817
328.917
328.838
328.6
328.477
328.167
328.024
328.026
328.018
328.045
328.39
320.95
320.591
320.41
320.417
320.262
320.355
320.441
320.579
320.6
320.583
320.661
320.602
320.413
320.335
320.101
320.026
320.003
320.008
319.985
320.249
312.584
312.357
312.268
312.25
312.152
312.21
312.278
312.364
312.367
312.371
312.406
312.368
312.257
312.23
312.045
312.044
311.99
312.018
311.986
312.129
304.217
304.147
304.117
304.113
304.065
304.076
304.12
304.146
304.138
304.154
304.141
304.154
304.117
304.101
304.025
304.041
304.005
304.019
304.021
304.063
)
;

boundaryField
{
    hotSide
    {
        type            fixedGradient;
        gradient        nonuniform List<scalar> 
400
(
534.067
531.003
530.31
531.919
535.586
540.959
547.668
555.379
563.82
572.791
582.154
591.831
601.791
612.054
622.681
633.772
645.453
657.852
671.069
685.146
518.435
515.638
515.372
517.551
521.875
527.927
535.278
543.554
552.46
561.785
571.388
581.193
591.177
601.371
611.852
622.742
634.194
646.371
659.399
673.335
509.986
507.739
507.984
510.624
515.355
521.761
529.409
537.921
546.997
556.421
566.049
575.806
585.677
595.697
605.954
616.579
627.733
639.585
652.268
665.846
508.249
506.82
507.673
510.705
515.65
522.144
529.799
538.263
547.244
556.529
565.974
575.506
585.113
594.838
604.771
615.042
625.805
637.213
649.39
662.401
511.475
511.039
512.622
516.111
521.279
527.819
535.398
543.7
552.453
561.451
570.557
579.702
588.883
598.151
607.602
617.363
627.578
638.384
649.891
662.169
517.656
518.305
520.748
524.855
530.415
537.155
544.775
552.981
561.518
570.187
578.861
587.486
596.076
604.7
613.472
622.525
632.001
642.033
652.727
664.156
525.083
526.856
530.27
535.177
541.357
548.541
556.428
564.721
573.156
581.535
589.74
597.741
605.586
613.384
621.281
629.435
638.004
647.125
656.908
667.43
532.383
535.257
539.701
545.545
552.554
560.429
568.839
577.445
585.945
594.119
601.854
609.157
616.135
622.96
629.834
636.961
644.524
652.672
661.522
671.152
538.41
542.269
547.701
554.519
562.465
571.204
580.343
589.468
598.203
606.275
613.572
620.152
626.206
632.001
637.815
643.905
650.484
657.714
665.715
674.561
542.21
546.812
553.034
560.688
569.496
579.087
589.003
598.74
607.818
615.892
622.841
628.784
634.016
638.907
643.817
649.05
654.842
661.363
668.729
677.009
543.084
548.045
554.69
562.828
572.173
582.331
592.801
603.009
612.396
620.556
627.356
632.96
637.74
642.139
646.565
651.351
656.746
662.922
669.992
678.02
540.717
545.568
552.151
560.273
569.644
579.863
590.421
600.74
610.258
618.567
625.526
631.294
636.233
640.778
645.34
650.251
655.763
662.054
669.241
677.39
535.294
539.573
545.624
553.254
562.169
571.977
582.194
592.295
601.785
610.305
617.717
624.12
629.79
635.087
640.368
645.944
652.063
658.909
666.607
675.236
527.521
530.867
536.054
542.895
551.099
560.286
570.011
579.812
589.272
598.086
606.112
613.384
620.077
626.449
632.786
639.36
646.407
654.115
662.619
672.008
518.574
520.767
524.94
530.917
538.408
547.036
556.376
566.004
575.548
584.735
593.415
601.571
609.3
616.778
624.227
631.882
639.964
648.661
658.121
668.436
510.063
511.017
514.174
519.371
526.304
534.571
543.733
553.367
563.116
572.713
582.003
590.935
599.557
607.993
616.423
625.053
634.099
643.757
654.182
665.47
504.058
503.809
506.036
510.588
517.128
525.201
534.324
544.054
554.029
563.988
573.768
583.304
592.615
601.794
610.993
620.407
630.253
640.74
652.036
664.238
502.992
501.707
503.121
507.098
513.264
521.115
530.13
539.85
549.914
560.066
570.143
580.072
589.856
599.568
609.34
619.357
629.833
640.99
653.005
665.972
509.007
506.98
507.694
511.029
516.622
523.974
532.575
541.982
551.847
561.92
572.045
582.14
592.198
602.273
612.478
622.976
633.967
645.659
658.219
671.728
522.788
520.346
520.465
523.049
527.8
534.303
542.118
550.851
560.186
569.889
579.804
589.847
599.996
610.288
620.81
631.694
643.104
655.205
668.129
681.939
)
;
    }
    coldSide
    {
        type            mixed;
        refValue        uniform 300;
        refGradient     uniform 0;
        valueFraction   uniform 0.991591;
        source          uniform 0;
        value           nonuniform List<scalar> 
400
(
300.028
300.028
300.028
300.028
300.028
300.029
300.029
300.029
300.03
300.03
300.03
300.031
300.032
300.032
300.033
300.033
300.034
300.034
300.035
300.035
300.027
300.028
300.027
300.027
300.028
300.028
300.028
300.029
300.029
300.03
300.03
300.031
300.031
300.032
300.032
300.033
300.034