/*--------------------------------*- C++ -*----------------------------------*\
| =========                 |                                                 |
| \\      /  F ield         | OpenFOAM: The Open Source CFD Toolbox           |
|  \\    /   O peration     | Version:  2212                                  |
|   \\  /    A nd           | Website:  www.openfoam.com                      |
|    \\/     M anipulation  |                                                 |
\*---------------------------------------------------------------------------*/
FoamFile
{
    version     2.0;
    format      ascii;
    arch        "LSB;label=32;scalar=64";
    class       volScalarField;
    location    "0";
    object      T;
}
// * * * * * * * * * * * * * * * * * * * * * * * * * * * * * * * * * * * * * //

dimensions      [0 0 0 1 0 0 0];

internalField   nonuniform List<scalar> 
3200
(
347.06
348.09
348.866
349.737
350.906
351.719
352.04
352.105
352.56
352.609
352.433
352.088
351.659
351.332
350.524
349.522
348.631
347.216
345.861
345.053
340.795
341.614
342.321
343.09
344.082
344.81
345.113
345.149
345.527
345.606
345.455
345.154
344.77
344.502
343.819
342.939
342.175
340.943
339.772
339.068
334.565
335.177
335.781
336.457
337.314
337.936
338.158
338.161
338.532
338.641
338.54
338.229
337.866
337.686
337.093
336.358
335.702
334.671
333.674
333.044
328.306
328.789
329.278
329.841
330.497
331.065
331.235
331.209
331.508
331.618
331.548
331.279
331.031
330.845
330.374
329.748
329.244
328.402
327.598
327.046
322.049
322.41
322.805
323.249
323.721
324.195
324.283
324.263
324.516
324.59
324.531
324.322
324.199
324.049
323.642
323.173
322.809
322.102
321.47
321.064
315.778
316.026
316.284
316.596
316.908
317.307
317.339
317.326
317.556
317.561
317.524
317.38
317.317
317.193
316.894
316.547
316.317
315.813
315.334
315.088
309.474
309.663
309.793
309.977
310.154
310.414
310.423
310.411
310.566
310.524
310.533
310.449
310.415
310.306
310.119
309.924
309.825
309.495
309.165
309.1
303.168
303.222
303.281
303.357
303.422
303.478
303.51
303.489
303.569
303.54
303.541
303.509
303.475
303.445
303.394
303.318
303.302
303.17
303.063
303.059
348.258
349.039
349.898
350.642
351.823
352.756
353.253
353.271
353.676
353.755
353.67
353.317
352.724
352.152
351.457
350.409
349.628
348.161
346.902
346.137
341.775
342.445
343.172
343.8
344.891
345.665
346.066
346.056
346.518
346.591
346.461
346.126
345.606
345.142
344.616
343.673
342.973
341.701
340.625
339.959
335.331
335.888
336.462
336.981
337.977
338.588
338.95
338.886
339.379
339.448
339.278
338.986
338.526
338.151
337.741
336.953
336.318
335.246
334.392
333.843
328.884
329.328
329.795
330.181
331.077
331.556
331.866
331.771
332.214
332.277
332.127
331.866
331.517
331.201
330.887
330.252
329.669
328.873
328.147
327.728
322.481
322.799
323.139
323.473
324.205
324.5
324.764
324.695
325.041
325.103
324.987
324.768
324.536
324.257
324.043
323.52
323.085
322.487
321.873
321.571
316.089
316.302
316.566
316.792
317.287
317.511
317.68
317.655
317.87
317.924
317.887
317.704
317.508
317.352
317.161
316.798
316.467
316.06
315.595
315.406
309.677
309.778
309.96
310.066
310.361
310.513
310.597
310.583
310.744
310.774
310.729
310.637
310.498
310.435
310.317
310.088
309.867
309.672
309.345
309.267
303.225
303.296
303.346
303.353
303.485
303.52
303.538
303.536
303.611
303.62
303.588
303.558
303.515
303.495
303.467
303.381
303.295
303.23
303.131
303.12
349.289
350.092
351.146
352.322
353.167
354.053
354.327
354.566
354.999
355.117
354.712
354.748
353.928
353.446
352.811
351.757
350.773
349.572
348.279
347.068
342.668
343.292
344.216
345.202
345.971
346.752
347.004
347.213
347.579
347.695
347.316
347.367
346.683
346.238
345.733
344.794
343.979
342.926
341.825
340.797
336.026
336.553
337.378
338.141
338.842
339.486
339.708
339.897
340.25
340.322
339.973
340.051
339.45
339.094
338.649
337.85
337.205
336.334
335.341
334.502
329.468
329.859
330.553
331.119
331.741
332.271
332.442
332.602
332.923
332.975
332.685
332.766
332.251
331.942
331.618
330.957
330.406
329.768
328.891
328.236
322.888
323.183
323.746
324.158
324.697
325.121
325.22
325.329
325.644
325.694
325.383
325.445
325.052
324.757
324.544
324.055
323.607
323.21
322.438
321.939
316.351
316.57
316.95
317.237
317.612
317.915
317.998
318.116
318.326
318.373
318.101
318.165
317.89
317.658
317.517
317.201
316.834
316.592
316.059
315.697
309.833
309.954
310.172
310.375
310.586
310.747
310.803
310.872
311.01
311.065
310.848
310.884
310.738
310.568
310.495
310.313
310.074
309.991
309.652
309.392
303.297
303.355
303.408
303.507
303.559
303.594
303.617
303.664
303.695
303.713
303.635
303.632
303.593
303.524
303.516
303.445
303.347
303.337
303.238
303.146
350.501
351.44
352.532
353.654
354.669
355.359
355.849
356.191
356.463
356.63
356.157
355.923
355.378
354.903
354.28
353.126
352.016
350.83
349.575
348.422
343.655
344.45
345.379
346.397
347.298
347.912
348.291
348.628
348.815
348.97
348.569
348.346
347.875
347.48
346.958
345.967
345.017
344.008
342.91
341.932
336.845
337.517
338.342
339.149
339.961
340.472
340.793
341.122
341.215
341.327
341.079
340.836
340.419
340.077
339.717
338.869
338.079
337.229
336.246
335.464
330.08
330.645
331.339
331.97
332.658
333.048
333.327
333.622
333.627
333.733
333.582
333.341
332.994
332.704
332.48
331.782
331.167
330.421
329.638
329.028
323.357
323.803
324.361
324.846
325.389
325.722
325.873
326.122
326.117
326.193
326.109
325.838
325.648
325.395
325.242
324.709
324.248
323.645
323.066
322.611
316.676
317.004
317.423
317.738
318.121
318.418
318.443
318.612
318.644
318.676
318.637
318.451
318.325
318.114
318.054
317.645
317.369
316.91
316.502
316.187
310.013
310.221
310.482
310.648
310.88
311.073
311.026
311.164
311.192
311.223
311.159
311.094
311.003
310.874
310.855
310.611
310.477
310.175
309.915
309.713
303.354
303.421
303.521
303.568
303.643
303.711
303.675
303.733
303.747
303.762
303.73
303.696
303.692
303.662
303.633
303.586
303.524
303.407
303.314
303.238
351.775
352.85
353.939
354.868
356.058
356.618
357.219
357.477
357.861
357.946
357.748
357.284
356.712
356.241
355.499
354.571
353.349
352.162
350.793
349.813
344.789
345.689
346.588
347.416
348.474
348.9
349.471
349.714
350.027
350.071
349.909
349.498
349.059
348.636
348.02
347.214
346.175
345.109
343.949
343.174
337.839
338.61
339.311
340.033
340.905
341.249
341.757
342.009
342.215
342.216
342.14
341.789
341.405
341.065
340.564
339.929
339.043
338.111
337.187
336.502
330.892
331.582
332.107
332.723
333.388
333.706
334.068
334.325
334.454
334.448
334.451
334.116
333.839
333.527
333.158
332.635
331.957
331.126
330.41
329.876
323.989
324.568
324.935
325.464
325.908
326.221
326.433
326.673
326.779
326.725
326.783
326.508
326.317
326.006
325.763
325.351
324.889
324.165
323.678
323.252
317.148
317.555
317.782
318.219
318.47
318.713
318.846
319.028
319.131
319.031
319.107
318.988
318.777
318.542
318.364
318.099
317.793
317.278
316.92
316.63
310.307
310.535
310.673
310.943
311.079
311.254
311.299
311.425
311.479
311.408
311.431
311.426
311.261
311.095
311.004
310.852
310.709
310.358
310.141
310.015
303.464
303.525
303.574
303.663
303.716
303.767
303.795
303.826
303.837
303.83
303.833
303.826
303.764
303.695
303.681
303.653
303.589
303.469
303.385
303.368
352.972
354.158
355.348
356.32
357.181
357.988
358.696
358.992
359.429
359.397
359.104
358.655
358.216
357.594
356.95
355.847
354.456
353.343
352.198
350.931
345.856
346.761
347.815
348.677
349.452
350.121
350.745
351.036
351.354
351.365
351.121
350.669
350.353
349.81
349.301
348.333
347.113
346.12
345.153
344.11
338.76
339.471
340.359
341.073
341.734
342.279
342.876
343.077
343.346
343.373
343.201
342.778
342.541
342.072
341.654
340.864
339.826
338.93
338.169
337.294
331.697
332.227
332.969
333.543
334.106
334.548
335.037
335.139
335.357
335.407
335.338
334.968
334.788
334.346
334.046
333.437
332.578
331.805
331.226
330.486
324.681
325.034
325.607
326.109
326.491
326.833
327.239
327.333
327.482
327.504
327.472
327.201
327.067
326.657
326.489
326.034
325.331
324.71
324.291
323.703
317.6
317.888
318.283
318.693
318.899
319.177
319.476
319.504
319.607
319.641
319.611
319.477
319.335
319.012
318.943
318.617
318.084
317.665
317.366
316.97
310.569
310.744
311
311.223
311.324
311.54
311.671
311.706
311.765
311.812
311.806
311.728
311.624
311.406
311.373
311.202
310.887
310.587
310.387
310.198
303.534
303.595
303.695
303.75
303.787
303.87
303.9
303.914
303.923
303.972
303.94
303.941
303.89
303.803
303.811
303.749
303.656
303.545
303.469
303.429
354.086
355.198
356.647
357.528
358.478
359.193
359.98
360.46
360.635
360.638
360.363
359.804
359.7
358.892
358.024
357.117
355.776
354.644
353.186
351.873
346.788
347.7
348.924
349.729
350.602
351.145
351.871
352.25
352.384
352.427
352.176
351.675
351.63
350.954
350.235
349.391
348.259
347.273
346.061
344.918
339.537
340.288
341.253
341.997
342.767
343.174
343.795
344.117
344.199
344.27
344.067
343.619
343.601
343.011
342.474
341.726
340.799
339.973
338.94
337.991
332.279
332.922
333.671
334.265
334.969
335.276
335.759
336.038
336.098
336.167
336.021
335.665
335.618
335.137
334.741
334.131
333.363
332.641
331.813
331.081
325.087
325.579
326.178
326.637
327.172
327.437
327.769
327.991
328.034
328.093
327.971
327.754
327.665
327.293
327.001
326.565
325.897
325.341
324.734
324.182
317.936
318.216
318.689
319.039
319.406
319.638
319.852
319.98
320.037
320.068
319.955
319.827
319.75
319.485
319.259
319.019
318.463
318.097
317.704
317.281
310.81
310.93
311.259
311.437
311.646
311.798
311.923
311.973
312.041
312.045
311.978
311.91
311.874
311.701
311.597
311.442
311.077
310.877
310.631
310.379
303.611
303.659
303.783
303.841
303.907
303.94
303.979
303.985
304.03
304.035
304.011
303.993
303.983
303.907
303.891
303.827
303.709
303.65
303.575
303.484
355.24
356.514
357.665
358.856
359.714
360.558
361.207
361.66
361.707
361.82
361.79
361.365
361.101
360.275
359.173
358.207
357.228
355.742
354.309
353.029
347.787
348.835
349.816
350.837
351.642
352.298
352.913
353.251
353.32
353.422
353.432
353.07
352.833
352.142
351.16
350.319
349.483
348.237
346.997
345.943
340.363
341.249
342.038
342.912
343.626
344.16
344.69
344.944
345.014
345.148
345.151
344.838
344.602
344.065
343.246
342.513
341.771
340.776
339.762
338.812
332.999
333.679
334.312
335.045
335.641
336.075
336.499
336.662
336.769
336.915
336.919
336.681
336.423
335.996
335.341
334.77
334.118
333.348
332.537
331.728
325.643
326.141
326.621
327.222
327.711
328.032
328.345
328.455
328.572
328.703
328.695
328.517
328.317
327.996
327.437
327.02
326.513
325.965
325.353
324.68
318.293
318.651
318.957
319.444
319.786
320.036
320.273
320.293
320.431
320.517
320.489
320.382
320.247
319.998
319.593
319.294
318.925
318.515
318.144
317.672
310.952
311.224
311.377
311.684
311.862
312.015
312.187
312.191
312.287
312.338
312.312
312.244
312.146
311.985
311.759
311.582
311.352
311.092
310.911
310.618
303.661
303.762
303.802
303.93
303.997
304.026
304.091
304.077
304.128
304.134
304.138
304.119
304.058
304.03
303.95
303.864
303.803
303.733
303.666
303.548
356.17
357.607
358.757
359.971
360.661
361.614
362.342
362.754
363.042
363.119
362.999
362.785
362.253
361.37
360.481
359.332
358.261
356.753
355.232
354.094
348.557
349.786
350.741
351.766
352.431
353.231
353.91
354.278
354.493
354.573
354.491
354.335
353.846
353.097
352.306
351.286
350.381
349.066
347.778
346.867
341.018
341.985
342.85
343.649
344.289
344.941
345.552
345.829
345.99
346.081
346.097
345.925
345.478
344.887
344.163
343.304
342.546
341.425
340.415
339.585
333.506
334.281
335.045
335.608
336.19
336.688
337.201
337.452
337.528
337.663
337.682
337.534
337.131
336.676
336.058
335.383
334.763
333.807
333.072
332.382
326.005
326.651
327.256
327.598
328.121
328.474
328.902
329.092
329.126
329.275
329.294
329.177
328.828
328.538
328.023
327.521
327.048
326.287
325.752
325.192
318.54
319.089
319.472
319.686
320.095
320.296
320.616
320.759
320.762
320.879
320.934
320.859
320.579
320.385
320.007
319.643
319.342
318.749
318.388
317.989
311.133
311.491
311.667
311.834
312.081
312.145
312.373
312.49
312.455
312.523
312.534
312.55
312.345
312.253
312.005
311.8
311.592
311.282
311.044
310.786
303.73
303.836
303.908
303.978
304.051
304.078
304.16
304.188
304.166
304.202
304.187
304.214
304.139
304.127
304.023
303.952
303.882
303.786
303.693
303.603
357.112
358.308
359.749
360.915
361.879
362.898
363.536
363.861
364.184
364.341
364.326
363.829
363.37
362.536
361.585
360.237
359.154
357.815
356.297
354.948
349.355
350.379
351.579
352.62
353.473
354.327
354.921
355.188
355.528
355.67
355.655
355.213
354.816
354.127
353.215
352.096
351.15
350.041
348.746
347.616
341.698
342.519
343.546
344.417
345.108
345.852
346.392
346.618
346.898
347.081
346.998
346.668
346.313
345.731
344.936
344.008
343.196
342.325
341.237
340.255
334.032
334.715
335.521
336.276
336.832
337.403
337.84
338.079
338.323
338.485
338.395
338.159
337.821
337.371
336.684
335.956
335.262
334.606
333.731
332.94
326.412
326.979
327.572
328.185
328.605
329.044
329.43
329.596
329.751
329.866
329.825
329.644
329.385
329.002
328.496
327.96
327.379
326.919
326.214
325.641
318.889
319.275
319.681
320.109
320.425
320.742
321.026
321.161
321.237
321.329
321.289
321.143
321.009
320.713
320.351
319.972
319.558
319.236
318.683
318.324
311.359
311.543
311.835
312.082
312.234
312.432
312.615
312.733
312.72
312.808
312.761
312.681
312.595
312.465
312.181
311.985
311.754
311.535
311.209
311.01
303.797
303.885
303.96
304.048
304.094
304.168
304.217
304.249
304.267
304.297
304.283
304.236
304.218
304.171
304.083
303.987
303.93
303.866
303.757
303.705
358.252
359.307
360.789
361.95
362.952
363.833
364.42
364.884
365.064
365.315
365.063
364.581
364.264
363.475
362.479
361.311
360.04
358.605
357.308
356.014
350.403
351.227
352.525
353.59
354.399
355.176
355.673
356.087
356.25
356.435
356.255
355.848
355.603
354.859
354.019
352.991
351.969
350.689
349.607
348.543
342.544
343.213
344.341
345.312
345.943
346.536
347.039
347.387
347.524
347.671
347.502
347.162
346.987
346.328
345.61
344.721
343.928
342.793
341.901
341.149
334.742
335.241
336.231
337.04
337.551
337.97
338.435
338.744
338.859
338.935
338.765
338.528
338.367
337.883
337.229
336.517
335.876
334.978
334.214
333.7
326.965
327.346
328.112
328.752
329.173
329.473
329.9
330.134
330.247
330.271
330.084
329.958
329.801
329.427
328.943
328.399
327.898
327.189
326.572
326.226
319.256
319.5
320.024
320.5
320.831
321.024
321.356
321.509
321.63
321.594
321.479
321.363
321.281
320.996
320.677
320.288
319.914
319.42
318.967
318.779
311.574
311.663
312.037
312.31
312.522
312.616
312.833
312.923
312.99
312.946
312.859
312.806
312.797
312.6
312.406
312.211
311.954
311.667
311.353
311.301
303.876
303.91
304.015
304.131
304.196
304.228
304.291
304.321
304.35
304.323
304.303
304.282
304.287
304.215
304.141
304.109
304.009
303.934
303.791
303.793
358.942
360.284
361.675
362.85
363.928
364.717
365.214
365.977
366.041
366.184
365.794
365.585
364.963
364.219
363.35
362.092
361.082
359.464
358.202
356.864
350.94
352.08
353.297
354.327
355.232
355.901
356.346
357.047
357.095
357.215
356.9
356.676
356.194
355.518
354.763
353.712
352.813
351.44
350.357
349.276
343.016
343.966
345.004
345.874
346.629
347.148
347.565
348.163
348.21
348.299
348.047
347.845
347.489
346.841
346.262
345.388
344.581
343.48
342.548
341.678
335.183
335.927
336.746
337.457
338.087
338.481
338.837
339.355
339.375
339.471
339.277
339.053
338.82
338.287
337.793
337.071
336.407
335.527
334.763
334.102
327.304
327.901
328.525
329.101
329.583
329.925
330.172
330.612
330.56
330.658
330.526
330.336
330.194
329.757
329.371
328.811
328.278
327.605
327.033
326.55
319.46
319.92
320.333
320.774
321.115
321.362
321.549
321.87
321.779
321.878
321.772
321.659
321.596
321.26
320.948
320.546
320.114
319.729
319.321
318.995
311.654
311.962
312.201
312.456
312.646
312.825
312.929
313.098
313.064
313.115
313.018
313.003
312.986
312.744
312.582
312.313
312.055
311.843
311.607
311.404
303.908
304.011
304.089
304.16
304.235
304.286
304.332
304.375
304.365
304.396
304.339
304.376
304.339
304.283
304.211
304.124
304.06
303.982
303.89
303.813
359.73
360.934
362.256
363.666
364.462
365.257
365.954
366.713
366.771
366.88
366.491
366.368
365.73
365.094
364.069
362.663
361.631
360.143
358.893
357.403
351.668
352.64
353.756
354.986
355.711
356.385
357.003
357.669
357.722
357.857
357.478
357.365
356.893
356.372
355.446
354.185
353.333
352.08
350.995
349.738
343.708
344.435
345.348
346.343
347.049
347.641
348.144
348.713
348.744
348.887
348.562
348.393
348.073
347.684
346.856
345.791
345.063
344.02
343.115
342.13
335.722
336.321
337.027
337.817
338.455
338.937
339.344
339.831
339.846
339.926
339.676
339.489
339.26
338.978
338.301
337.429
336.807
335.976
335.295
334.495
327.768
328.248
328.756
329.366
329.83
330.262
330.573
330.973
330.969
330.992
330.829
330.697
330.48
330.286
329.777
329.105
328.593
327.986
327.483
326.862
319.824
320.145
320.508
320.955
321.261
321.64
321.824
322.151
322.123
322.105
322.046
321.911
321.784
321.582
321.265
320.764
320.395
319.991
319.634
319.254
311.887
312.094
312.296
312.553
312.772
313.035
313.107
313.304
313.272
313.254
313.231
313.146
313.093
312.921
312.769
312.46
312.264
312.01
311.805
311.552
303.981
304.061
304.122
304.201
304.282
304.384
304.38
304.462
304.453
304.45
304.42
304.398
304.391
304.328
304.297
304.184
304.113
304.029
303.955
303.864
360.62
361.527
363.014
364.275
365.005
365.945
366.598
367.248
367.4
367.557
367.263
367.011
366.43
365.848
364.735
363.467
362.233
360.892
359.536
358.184
352.451
353.165
354.438
355.554
356.153
356.978
357.539
358.132
358.247
358.365
358.15
357.937
357.475
356.963
355.996
354.932
353.86
352.703
351.503
350.411
344.323
344.884
345.918
346.882
347.405
348.09
348.552
349.127
349.217
349.253
349.123
348.931
348.539
348.098
347.341
346.4
345.545
344.547
343.513
342.655
336.246
336.679
337.49
338.277
338.708
339.294
339.698
340.116
340.19
340.204
340.157
339.982
339.638
339.297
338.688
337.914
337.227
336.361
335.58
334.871
328.091
328.514
329.148
329.753
330.081
330.541
330.88
331.147
331.156
331.209
331.229
331.075
330.764
330.524
330.075
329.463
328.986
328.267
327.726
327.12
320.04
320.335
320.81
321.236
321.503
321.8
322.046
322.25
322.213
322.229
322.288
322.166
321.95
321.772
321.479
321.02
320.722
320.225
319.857
319.382
312.02
312.172
312.481
312.73
312.926
313.107
313.209
313.342
313.337
313.343
313.364
313.278
313.196
313.065
312.891
312.595
312.457
312.145
311.975
311.642
304.025
304.077
304.188
304.274
304.342
304.395
304.413
304.481
304.447
304.478
304.47
304.42
304.421
304.381
304.337
304.221
304.19
304.063
304.029
303.913
360.741
362.016
363.486
364.81
365.609
366.585
367.169
367.819
367.948
368.197
367.987
367.545
367.054
366.503
365.428
364.174
362.784
361.383
359.812
358.702
352.557
353.579
354.849
356.002
356.647
357.521
358.085
358.587
358.71
358.983
358.759
358.349
358.018
357.484
356.607
355.528
354.312
353.119
351.806
350.868
344.387
345.188
346.283
347.266
347.781
348.534
349.068
349.405
349.529
349.822
349.615
349.218
349.019
348.547
347.844
346.935
345.864
344.899
343.849
342.995
336.255
336.886
337.774
338.578
339.001
339.602
340.085
340.327
340.456
340.708
340.514
340.208
340.048
339.654
339.13
338.394
337.496
336.695
335.898
335.154
328.137
328.677
329.343
329.962
330.261
330.769
331.126
331.324
331.41
331.633
331.468
331.241
331.093
330.805
330.45
329.837
329.17
328.502
327.948
327.38
320.107
320.463
320.993
321.385
321.571
321.992
322.216
322.376
322.38
322.537
322.443
322.343
322.193
321.992
321.766
321.307
320.832
320.363
319.992
319.56
312.095
312.272
312.629
312.83
312.951
313.221
313.318
313.433
313.402
313.496
313.464
313.426
313.286
313.212
313.076
312.806
312.497
312.232
312.033
311.748
304.055
304.102
304.224
304.277
304.349
304.432
304.43
304.506
304.492
304.523
304.498
304.5
304.455
304.427
304.387
304.289
304.195
304.128
304.027
303.945
361.139
362.476
363.936
364.996
366.098
367.015
367.75
368.206
368.391
368.742
368.298
368.02
367.533
366.757
365.709
364.59
363.207
361.666
360.114
358.998
352.852
353.973
355.238
356.167
357.131
357.853
358.529
358.914
359.095
359.409
359.017
358.836
358.407
357.729
356.812
355.857
354.671
353.365
352.03
351.056
344.631
345.583
346.621
347.447
348.231
348.784
349.409
349.705
349.883
350.176
349.866
349.684
349.336
348.764
348.014
347.171
346.198
345.134
343.98
343.163
336.449
337.28
338.105
338.729
339.408
339.808
340.349
340.564
340.7
341.002
340.773
340.575
340.346
339.817
339.273
338.539
337.799
336.883
335.938
335.297
328.316
328.96
329.622
330.1
330.625
330.915
331.331
331.503
331.564
331.837
331.706
331.528
331.311
330.906
330.546
329.936
329.425
328.66
327.896
327.447
320.217
320.68
321.14
321.499
321.858
322.101
322.391
322.491
322.524
322.728
322.656
322.525
322.351
322.053
321.818
321.362
321.062
320.456
319.907
319.618
312.13
312.41
312.696
312.924
313.094
313.258
313.451
313.488
313.493
313.652
313.609
313.516
313.434
313.238
313.124
312.833
312.653
312.297
311.971
311.763
304.03
304.163
304.259
304.319
304.384
304.434
304.513
304.505
304.518
304.569
304.573
304.531
304.526
304.429
304.384
304.29
304.24
304.112
304.014
303.928
361.627
362.744
364.155
365.381
366.579
367.511
368.154
368.602
368.797
368.94
368.798
368.152
367.932
367.111
366.022
364.743
363.609
361.916
360.384
359.145
353.258
354.15
355.492
356.471
357.528
358.329
358.867
359.268
359.445
359.559
359.504
358.89
358.706
358.019
357.105
356.014
355.006
353.58
352.29
351.25
344.957
345.684
346.876
347.648
348.546
349.227
349.683
350.086
350.138
350.28
350.251
349.726
349.608
348.948
348.221
347.311
346.452
345.23
344.216
343.3
336.712
337.262
338.315
338.89
339.634
340.195
340.577
340.919
340.911
341.061
341.053
340.629
340.527
339.961
339.443
338.626
337.982
336.926
336.188
335.409
328.496
328.9
329.787
330.19
330.833
331.21
331.518
331.801
331.768
331.926
331.898
331.547
331.498
331.02
330.645
329.999
329.519
328.663
328.119
327.523
320.339
320.611
321.255
321.539
322.035
322.278
322.543
322.738
322.686
322.791
322.776
322.493
322.491
322.153
321.902
321.44
321.086
320.449
320.068
319.646
312.212
312.355
312.733
312.909
313.248
313.375
313.575
313.644
313.607
313.734
313.675
313.497
313.528
313.292
313.15
312.867
312.64
312.259
312.035
311.769
304.102
304.15
304.264
304.316
304.455
304.49
304.559
304.584
304.569
304.601
304.591
304.524
304.546
304.434
304.408
304.307
304.227
304.107
304.043
303.95
361.703
362.849
364.384
365.556
366.678
367.757
368.399
368.731
369.165
368.993
369.093
368.55
368.113
367.235
366.286
364.915
363.761
362.091
360.585
359.171
353.324
354.322
355.623
356.651
357.637
358.549
359.124
359.364
359.76
359.6
359.746
359.332
358.859
358.128
357.343
356.115
355.163
353.715
352.424
351.231
345.026
345.845
346.977
347.854
348.671
349.434
349.951
350.109
350.47
350.333
350.457
350.117
349.673
349.076
348.427
347.389
346.61
345.399
344.278
343.306
336.8
337.409
338.363
339.064
339.752
340.365
340.821
340.927
341.208
341.164
341.264
340.97
340.58
340.093
339.588
338.701
338.101
337.137
336.178
335.438
328.594
329.037
329.802
330.32
330.894
331.317
331.717
331.829
331.977
332.012
332.074
331.848
331.535
331.128
330.803
330.065
329.595
328.875
328.161
327.567
320.434
320.718
321.262
321.644
322.065
322.351
322.677
322.766
322.812
322.881
322.9
322.729
322.521
322.245
321.998
321.462
321.12
320.632
320.151
319.662
312.275
312.388
312.774
312.997
313.276
313.428
313.628
313.673
313.697
313.758
313.777
313.612
313.517
313.377
313.175
312.855
312.67
312.401
312.093
311.813
304.11
304.154
304.28
304.367
304.45
304.499
304.566
304.6
304.58
304.606
304.632
304.558
304.531
304.492
304.425
304.309
304.222
304.166
304.057
303.973
361.787
362.924
364.673
365.715
366.928
367.797
368.484
368.898
369.272
369.228
369.25
368.716
368.039
367.222
366.452
365.18
363.84
362.245
360.568
359.262
353.36
354.345
355.921
356.789
357.806
358.58
359.198
359.522
359.864
359.864
359.893
359.398
358.824
358.124
357.488
356.328
355.205
353.816
352.389
351.324
345.009
345.847
347.231
347.943
348.809
349.418
349.982
350.252
350.532
350.575
350.602
350.168
349.753
349.107
348.571
347.566
346.625
345.473
344.232
343.383
336.745
337.41
338.547
339.161
339.863
340.36
340.854
341.028
341.287
341.306
341.382
340.988
340.646
340.134
339.73
338.857
338.059
337.177
336.16
335.473
328.54
329.057
329.962
330.463
330.952
331.322
331.731
331.804
332.107
332.1
332.182
331.856
331.567
331.205
330.873
330.202
329.577
328.883
328.093
327.527
320.351
320.716
321.411
321.774
322.066
322.34
322.647
322.692
322.942
322.939
323.009
322.765
322.527
322.274
322.03
321.559
321.116
320.644
320.087
319.634
312.205
312.437
312.852
313.036
313.251
313.411
313.58
313.661
313.766
313.792
313.832
313.653
313.536
313.344
313.234
312.958
312.676
312.391
312.051
311.775
304.079
304.182
304.302
304.365
304.441
304.495
304.542
304.595
304.625
304.624
304.646
304.576
304.542
304.469
304.444
304.348
304.262
304.156
304.061
303.946
361.532
363.016
364.675
365.823
367.019
367.774
368.696
368.872
369.262
369.341
369.187
368.609
367.959
367.072
366.393
365.284
363.586
362.19
360.506
359.304
353.185
354.449
355.869
356.86
357.933
358.552
359.436
359.514
359.855
359.906
359.803
359.304
358.775
357.98
357.444
356.474
354.974
353.775
352.338
351.394
344.902
345.948
347.142
347.969
348.917
349.439
350.178
350.22
350.561
350.589
350.503
350.091
349.695
348.979
348.601
347.695
346.44
345.436
344.278
343.484
336.705
337.529
338.453
339.146
339.939
340.336
340.995
341.014
341.327
341.275
341.272
340.924
340.647
340.024
339.783
339.006
337.961
337.127
336.208
335.603
328.537
329.133
329.809
330.425
331.056
331.285
331.834
331.844
332.121
332.042
332.069
331.822
331.611
331.06
330.981
330.306
329.52
328.899
328.2
327.64
320.379
320.815
321.247
321.726
322.21
322.298
322.729
322.728
322.966
322.872
322.865
322.738
322.524
322.199
322.173
321.583
321.103
320.668
320.187
319.69
312.223
312.504
312.762
313.043
313.361
313.394
313.656
313.625
313.801
313.75
313.741
313.66
313.483
313.351
313.307
312.917
312.702
312.423
312.123
311.805
304.081
304.207
304.274
304.341
304.485
304.5
304.574
304.554
304.613
304.591
304.603
304.579
304.514
304.478
304.453
304.32
304.267
304.14
304.062
303.957
)
;

boundaryField
{
    hotSide
    {
        type            fixedGradient;
        gradient        nonuniform List<scalar> 
400
(
502.978
519.196
534.981
550.264
564.974
579.041
592.4
604.984
616.731
627.582
637.481
646.377
654.224
660.98
666.61
671.082
674.373
676.464
677.345
677.009
515.98
532.633
548.843
564.538
579.647
594.097
607.821
620.75
632.821
643.974
654.15
663.298
671.369
678.321
684.117
688.726
692.122
694.287
695.209
694.883
527.516
544.555
561.143
577.205
592.668
607.459
621.507
634.744
647.104
658.525
668.949
678.32
686.592
693.719
699.664
704.395
707.886
710.118
711.078
710.761
537.507
554.881
571.797
588.177
603.948
619.034
633.365
646.869
659.48
671.134
681.773
691.34
699.785
707.065
713.14
717.978
721.552
723.843
724.837
724.53
545.89
563.546
580.737
597.384
613.413
628.748
643.316
657.045
669.867
681.718
692.537
702.268
710.861
718.27
724.455
729.383
733.028
735.369
736.393
736.094
552.616
570.498
587.909
604.771
621.007
636.542
651.299
665.209
678.201
690.21
701.174
711.038
719.749
727.262
733.536
738.538
742.239
744.621
745.67
745.379
557.649
575.699
593.275
610.297
626.688
642.372
657.272
671.316
684.435
696.562
707.636
717.599
726.399
733.99
740.331
745.388
749.133
751.546
752.614
752.329
560.967
579.127
596.81
613.937
630.43
646.211
661.204
675.337
688.54
700.745
711.89
721.919
730.778
738.42
744.806
749.899
753.673
756.108
757.188
756.909
562.559
580.771
598.504
615.681
632.221
648.048
663.085
677.26
690.502
702.744
713.923
723.983
732.87
740.538
746.944
752.056
755.845
758.29
759.377
759.101
562.429
580.634
598.36
615.53
632.064
647.885
662.917
677.086
690.323
702.561
713.737
723.794
732.678
740.344
746.749
751.859
755.648
758.093
759.181
758.907
560.591
578.73
596.393
613.501
629.975
645.739
660.716
674.834
688.022
700.215
711.35
721.369
730.22
737.857
744.237
749.328
753.101
755.536
756.619
756.343
557.071
575.087
592.63
609.622
625.983
641.638
656.512
670.532
683.629
695.737
706.793
716.742
725.53
733.111
739.445
744.497
748.24
750.654
751.725
751.447
551.904
569.741
587.109
603.931
620.128
635.626
650.349
664.227
677.19
689.173
700.115
709.96
718.655
726.155
732.42
737.415
741.115
743.498
744.551
744.268
545.136
562.74
579.88
596.48
612.463
627.755
642.282
655.974
668.762
680.583
691.376
701.085
709.659
717.052
723.227
728.148
731.79
734.132
735.161
734.872
536.821
554.139
571.001
587.329
603.051
618.091
632.378
645.842
658.416
670.038
680.648
690.19
698.616
705.88
711.943
716.774
720.345
722.637
723.637
723.339
527.024
544.007
560.541
576.551
591.964
606.709
620.713
633.91
646.234
657.622
668.016
677.364
685.615
692.726
698.66
703.383
706.871
709.105
710.071
709.764
515.817
532.418
548.578
564.225
579.288
593.695
607.378
620.27
632.307
643.429
653.579
662.704
670.757
677.694
683.479
688.082
691.475
693.642
694.569
694.252
503.283
519.457
535.2
550.443
565.114
579.145
592.47
605.022
616.741
627.566
637.443
646.321
654.152
660.896
666.517
670.984
674.273
676.366
677.251
676.922
489.509
505.216
520.503
535.302
549.545
563.165
576.097
588.278
599.648
610.149
619.728
628.335
635.925
642.458
647.899
652.219
655.394
657.407
658.246
657.906
474.594
489.797
504.592
518.912
532.693
545.87
558.379
570.159
581.153
591.304
600.562
608.878
616.208
622.514
627.762
631.924
634.977
636.904
637.694
637.343
)
;
    }
    coldSide
    {
        type            mixed;
        refValue        uniform 300;
        refGradient     uniform 0;
        valueFraction   uniform 0.991591;
        source          uniform 0;
        value           nonuniform List<scalar> 
400
(
300.027
300.027
300.028
300.028
300.029
300.03
300.03
300.031
300.031
300.032
300.033
300.033
300.033
300.034
300.034
300.034
300.034
300.035
300.034
300.034
300.027
300.028
300.028
300.029
300.03
300.03
300.031
300.032
300.032
300.033
300.033
300.034
300.034
300.034
300.034
300.035
300.035