/*--------------------------------*- C++ -*----------------------------------*\
| =========                 |                                                 |
| \\      /  F ield         | OpenFOAM: The Open Source CFD Toolbox           |
|  \\    /   O peration     | Version:  2212                                  |
|   \\  /    A nd           | Website:  www.openfoam.com                      |
|    \\/     M anipulation  |                                                 |
\*---------------------------------------------------------------------------*/
FoamFile
{
    version     2.0;
    format      ascii;
    arch        "LSB;label=32;scalar=64";
    class       volScalarField;
    location    "./ITHACAoutput/true/17";
    object      trueState;
}
// * * * * * * * * * * * * * * * * * * * * * * * * * * * * * * * * * * * * * //

dimensions      [0 0 0 1 0 0 0];

internalField   nonuniform List<scalar> 
3200
(
337.386
337.614
337.906
338.224
338.551
338.873
339.17
339.42
339.603
339.699
339.699
339.603
339.42
339.17
338.873
338.551
338.224
337.906
337.614
337.386
332.56
332.753
333.005
333.28
333.563
333.841
334.098
334.314
334.472
334.555
334.555
334.472
334.314
334.098
333.841
333.563
333.28
333.005
332.753
332.56
327.666
327.827
328.039
328.271
328.511
328.746
328.962
329.145
329.278
329.348
329.348
329.278
329.145
328.962
328.746
328.511
328.271
328.039
327.827
327.666
322.717
322.846
323.019
323.209
323.404
323.596
323.773
323.922
324.031
324.088
324.088
324.031
323.922
323.773
323.596
323.404
323.209
323.019
322.846
322.717
317.721
317.82
317.954
318.102
318.254
318.403
318.54
318.656
318.74
318.785
318.785
318.74
318.656
318.54
318.403
318.254
318.102
317.954
317.82
317.721
312.689
312.759
312.855
312.96
313.069
313.176
313.274
313.356
313.416
313.448
313.448
313.416
313.356
313.274
313.176
313.069
312.96
312.855
312.759
312.689
307.632
307.674
307.731
307.795
307.86
307.924
307.983
308.032
308.068
308.088
308.088
308.068
308.032
307.983
307.924
307.86
307.795
307.731
307.674
307.632
302.56
302.574
302.593
302.615
302.636
302.658
302.678
302.694
302.706
302.713
302.713
302.706
302.694
302.678
302.658
302.636
302.615
302.593
302.574
302.56
337.54
337.767
338.056
338.371
338.695
339.013
339.306
339.554
339.734
339.829
339.829
339.734
339.554
339.306
339.013
338.695
338.371
338.056
337.767
337.54
332.694
332.886
333.135
333.408
333.689
333.964
334.217
334.431
334.586
334.669
334.669
334.586
334.431
334.217
333.964
333.689
333.408
333.135
332.886
332.694
327.78
327.94
328.15
328.38
328.617
328.85
329.064
329.244
329.375
329.445
329.445
329.375
329.244
329.064
328.85
328.617
328.38
328.15
327.94
327.78
322.81
322.938
323.11
323.298
323.492
323.682
323.857
324.004
324.111
324.167
324.167
324.111
324.004
323.857
323.682
323.492
323.298
323.11
322.938
322.81
317.794
317.892
318.025
318.171
318.322
318.47
318.605
318.72
318.803
318.847
318.847
318.803
318.72
318.605
318.47
318.322
318.171
318.025
317.892
317.794
312.741
312.811
312.906
313.01
313.118
313.223
313.32
313.402
313.461
313.493
313.493
313.461
313.402
313.32
313.223
313.118
313.01
312.906
312.811
312.741
307.664
307.705
307.762
307.825
307.889
307.953
308.011
308.06
308.095
308.114
308.114
308.095
308.06
308.011
307.953
307.889
307.825
307.762
307.705
307.664
302.571
302.585
302.604
302.625
302.646
302.667
302.687
302.703
302.715
302.722
302.722
302.715
302.703
302.687
302.667
302.646
302.625
302.604
302.585
302.571
337.849
338.072
338.356
338.666
338.983
339.294
339.581
339.822
339.998
340.09
340.09
339.998
339.822
339.581
339.294
338.983
338.666
338.356
338.072
337.849
332.963
333.152
333.397
333.665
333.94
334.209
334.456
334.665
334.817
334.897
334.897
334.817
334.665
334.456
334.209
333.94
333.665
333.397
333.152
332.963
328.009
328.166
328.372
328.598
328.831
329.058
329.267
329.443
329.571
329.639
329.639
329.571
329.443
329.267
329.058
328.831
328.598
328.372
328.166
328.009
322.998
323.124
323.292
323.477
323.667
323.853
324.024
324.167
324.272
324.327
324.327
324.272
324.167
324.024
323.853
323.667
323.477
323.292
323.124
322.998
317.94
318.037
318.168
318.311
318.459
318.603
318.736
318.848
318.929
318.971
318.971
318.929
318.848
318.736
318.603
318.459
318.311
318.168
318.037
317.94
312.846
312.915
313.008
313.11
313.216
313.319
313.414
313.493
313.551
313.582
313.582
313.551
313.493
313.414
313.319
313.216
313.11
313.008
312.915
312.846
307.727
307.768
307.823
307.885
307.948
308.01
308.067
308.115
308.15
308.168
308.168
308.15
308.115
308.067
308.01
307.948
307.885
307.823
307.768
307.727
302.592
302.605
302.624
302.645
302.666
302.687
302.706
302.722
302.734
302.74
302.74
302.734
302.722
302.706
302.687
302.666
302.645
302.624
302.605
302.592
338.313
338.531
338.808
339.109
339.417
339.718
339.995
340.228
340.397
340.486
340.486
340.397
340.228
339.995
339.718
339.417
339.109
338.808
338.531
338.313
333.367
333.551
333.791
334.051
334.318
334.578
334.818
335.019
335.165
335.241
335.241
335.165
335.019
334.818
334.578
334.318
334.051
333.791
333.551
333.367
328.352
328.505
328.707
328.927
329.152
329.372
329.574
329.744
329.867
329.932
329.932
329.867
329.744
329.574
329.372
329.152
328.927
328.707
328.505
328.352
323.279
323.403
323.567
323.747
323.931
324.111
324.276
324.415
324.515
324.568
324.568
324.515
324.415
324.276
324.111
323.931
323.747
323.567
323.403
323.279
318.16
318.254
318.382
318.521
318.665
318.805
318.933
319.041
319.119
319.16
319.16
319.119
319.041
318.933
318.805
318.665
318.521
318.382
318.254
318.16
313.003
313.07
313.161
313.261
313.363
313.463
313.555
313.632
313.687
313.717
313.717
313.687
313.632
313.555
313.463
313.363
313.261
313.161
313.07
313.003
307.821
307.861
307.916
307.976
308.037
308.097
308.152
308.198
308.232
308.249
308.249
308.232
308.198
308.152
308.097
308.037
307.976
307.916
307.861
307.821
302.624
302.637
302.655
302.675
302.696
302.716
302.734
302.75
302.761
302.767
302.767
302.761
302.75
302.734
302.716
302.696
302.675
302.655
302.637
302.624
338.933
339.144
339.412
339.702
339.999
340.287
340.552
340.773
340.934
341.019
341.019
340.934
340.773
340.552
340.287
339.999
339.702
339.412
339.144
338.933
333.907
334.085
334.317
334.568
334.824
335.074
335.303
335.494
335.633
335.706
335.706
335.633
335.494
335.303
335.074
334.824
334.568
334.317
334.085
333.907
328.811
328.959
329.154
329.366
329.583
329.794
329.987
330.149
330.266
330.328
330.328
330.266
330.149
329.987
329.794
329.583
329.366
329.154
328.959
328.811
323.656
323.775
323.934
324.107
324.285
324.457
324.615
324.747
324.843
324.893
324.893
324.843
324.747
324.615
324.457
324.285
324.107
323.934
323.775
323.656
318.453
318.545
318.668
318.803
318.941
319.075
319.197
319.3
319.374
319.414
319.414
319.374
319.3
319.197
319.075
318.941
318.803
318.668
318.545
318.453
313.214
313.278
313.366
313.462
313.561
313.657
313.744
313.818
313.871
313.899
313.899
313.871
313.818
313.744
313.657
313.561
313.462
313.366
313.278
313.214
307.948
307.986
308.039
308.097
308.156
308.213
308.266
308.31
308.342
308.359
308.359
308.342
308.31
308.266
308.213
308.156
308.097
308.039
307.986
307.948
302.666
302.679
302.696
302.716
302.736
302.755
302.773
302.787
302.798
302.804
302.804
302.798
302.787
302.773
302.755
302.736
302.716
302.696
302.679
302.666
339.709
339.913
340.17
340.447
340.73
341.004
341.254
341.463
341.614
341.694
341.694
341.614
341.463
341.254
341.004
340.73
340.447
340.17
339.913
339.709
334.583
334.755
334.977
335.217
335.461
335.698
335.915
336.096
336.227
336.295
336.295
336.227
336.096
335.915
335.698
335.461
335.217
334.977
334.755
334.583
329.385
329.527
329.714
329.917
330.124
330.325
330.507
330.66
330.771
330.829
330.829
330.771
330.66
330.507
330.325
330.124
329.917
329.714
329.527
329.385
324.127
324.242
324.394
324.56
324.729
324.893
325.043
325.167
325.258
325.305
325.305
325.258
325.167
325.043
324.893
324.729
324.56
324.394
324.242
324.127
318.821
318.909
319.027
319.156
319.287
319.415
319.531
319.628
319.698
319.735
319.735
319.698
319.628
319.531
319.415
319.287
319.156
319.027
318.909
318.821
313.477
313.539
313.623
313.715
313.809
313.9
313.983
314.053
314.103
314.129
314.129
314.103
314.053
313.983
313.9
313.809
313.715
313.623
313.539
313.477
308.106
308.143
308.194
308.249
308.305
308.36
308.41
308.451
308.481
308.497
308.497
308.481
308.451
308.41
308.36
308.305
308.249
308.194
308.143
308.106
302.719
302.731
302.748
302.767
302.786
302.804
302.821
302.835
302.845
302.85
302.85
302.845
302.835
302.821
302.804
302.786
302.767
302.748
302.731
302.719
340.643
340.838
341.083
341.346
341.613
341.871
342.106
342.301
342.442
342.516
342.516
342.442
342.301
342.106
341.871
341.613
341.346
341.083
340.838
340.643
335.396
335.56
335.772
336
336.231
336.454
336.657
336.826
336.948
337.012
337.012
336.948
336.826
336.657
336.454
336.231
336
335.772
335.56
335.396
330.075
330.212
330.39
330.583
330.778
330.967
331.138
331.281
331.384
331.438
331.438
331.384
331.281
331.138
330.967
330.778
330.583
330.39
330.212
330.075
324.694
324.804
324.949
325.107
325.266
325.421
325.561
325.678
325.762
325.806
325.806
325.762
325.678
325.561
325.421
325.266
325.107
324.949
324.804
324.694
319.263
319.347
319.46
319.582
319.707
319.826
319.935
320.026
320.092
320.126
320.126
320.092
320.026
319.935
319.826
319.707
319.582
319.46
319.347
319.263
313.793
313.853
313.933
314.021
314.109
314.195
314.273
314.338
314.384
314.409
314.409
314.384
314.338
314.273
314.195
314.109
314.021
313.933
313.853
313.793
308.296
308.332
308.38
308.433
308.486
308.537
308.584
308.623
308.651
308.666
308.666
308.651
308.623
308.584
308.537
308.486
308.433
308.38
308.332
308.296
302.783
302.795
302.811
302.828
302.846
302.864
302.879
302.892
302.902
302.907
302.907
302.902
302.892
302.879
302.864
302.846
302.828
302.811
302.795
302.783
341.736
341.921
342.153
342.401
342.651
342.892
343.11
343.291
343.421
343.49
343.49
343.421
343.291
343.11
342.892
342.651
342.401
342.153
341.921
341.736
336.347
336.503
336.703
336.918
337.135
337.344
337.532
337.689
337.802
337.861
337.861
337.802
337.689
337.532
337.344
337.135
336.918
336.703
336.503
336.347
330.883
331.013
331.182
331.363
331.547
331.723
331.882
332.015
332.11
332.16
332.16
332.11
332.015
331.882
331.723
331.547
331.363
331.182
331.013
330.883
325.357
325.461
325.599
325.747
325.897
326.042
326.172
326.28
326.358
326.399
326.399
326.358
326.28
326.172
326.042
325.897
325.747
325.599
325.461
325.357
319.78
319.86
319.967
320.082
320.199
320.311
320.412
320.497
320.557
320.589
320.589
320.557
320.497
320.412
320.311
320.199
320.082
319.967
319.86
319.78
314.164
314.22
314.296
314.379
314.462
314.542
314.615
314.675
314.718
314.74
314.74
314.718
314.675
314.615
314.542
314.462
314.379
314.296
314.22
314.164
308.519
308.553
308.598
308.648
308.698
308.746
308.79
308.826
308.851
308.865
308.865
308.851
308.826
308.79
308.746
308.698
308.648
308.598
308.553
308.519
302.858
302.869
302.884
302.901
302.917
302.934
302.948
302.96
302.969
302.973
302.973
302.969
302.96
302.948
302.934
302.917
302.901
302.884
302.869
302.858
342.988
343.163
343.381
343.613
343.847
344.07
344.271
344.438
344.557
344.619
344.619
344.557
344.438
344.271
344.07
343.847
343.613
343.381
343.163
342.988
337.437
337.585
337.773
337.974
338.176
338.37
338.544
338.688
338.791
338.845
338.845
338.791
338.688
338.544
338.37
338.176
337.974
337.773
337.585
337.437
331.809
331.932
332.09
332.26
332.431
332.595
332.742
332.864
332.951
332.997
332.997
332.951
332.864
332.742
332.595
332.431
332.26
332.09
331.932
331.809
326.117
326.216
326.345
326.484
326.624
326.758
326.878
326.978
327.049
327.086
327.086
327.049
326.978
326.878
326.758
326.624
326.484
326.345
326.216
326.117
320.373
320.449
320.549
320.657
320.766
320.87
320.963
321.041
321.096
321.125
321.125
321.096
321.041
320.963
320.87
320.766
320.657
320.549
320.449
320.373
314.588
314.642
314.713
314.79
314.868
314.942
315.009
315.064
315.104
315.125
315.125
315.104
315.064
315.009
314.942
314.868
314.79
314.713
314.642
314.588
308.774
308.806
308.849
308.895
308.942
308.987
309.027
309.06
309.084
309.096
309.096
309.084
309.06
309.027
308.987
308.942
308.895
308.849
308.806
308.774
302.943
302.954
302.968
302.984
302.999
303.014
303.028
303.039
303.047
303.051
303.051
303.047
303.039
303.028
303.014
302.999
302.984
302.968
302.954
302.943
344.401
344.565
344.769
344.986
345.202
345.408
345.592
345.744
345.853
345.91
345.91
345.853
345.744
345.592
345.408
345.202
344.986
344.769
344.565
344.401
338.667
338.806
338.982
339.169
339.356
339.535
339.695
339.826
339.92
339.969
339.969
339.92
339.826
339.695
339.535
339.356
339.169
338.982
338.806
338.667
332.854
332.969
333.118
333.276
333.434
333.585
333.72
333.832
333.911
333.953
333.953
333.911
333.832
333.72
333.585
333.434
333.276
333.118
332.969
332.854
326.975
327.067
327.189
327.318
327.448
327.571
327.681
327.772
327.837
327.871
327.871
327.837
327.772
327.681
327.571
327.448
327.318
327.189
327.067
326.975
321.042
321.113
321.207
321.307
321.408
321.504
321.59
321.661
321.711
321.738
321.738
321.711
321.661
321.59
321.504
321.408
321.307
321.207
321.113
321.042
315.067
315.117
315.184
315.256
315.328
315.397
315.458
315.508
315.545
315.563
315.563
315.545
315.508
315.458
315.397
315.328
315.256
315.184
315.117
315.067
309.062
309.092
309.132
309.176
309.219
309.26
309.297
309.327
309.349
309.36
309.36
309.349
309.327
309.297
309.26
309.219
309.176
309.132
309.092
309.062
303.04
303.05
303.063
303.078
303.092
303.106
303.118
303.129
303.136
303.14
303.14
303.136
303.129
303.118
303.106
303.092
303.078
303.063
303.05
303.04
345.976
346.129
346.319
346.52
346.719
346.907
347.076
347.214
347.312
347.363
347.363
347.312
347.214
347.076
346.907
346.719
346.52
346.319
346.129
345.976
340.038
340.168
340.332
340.505
340.678
340.841
340.987
341.106
341.192
341.236
341.236
341.192
341.106
340.987
340.841
340.678
340.505
340.332
340.168
340.038
334.018
334.126
334.264
334.411
334.557
334.695
334.818
334.92
334.992
335.029
335.029
334.992
334.92
334.818
334.695
334.557
334.411
334.264
334.126
334.018
327.931
328.017
328.13
328.25
328.369
328.482
328.583
328.666
328.725
328.755
328.755
328.725
328.666
328.583
328.482
328.369
328.25
328.13
328.017
327.931
321.787
321.854
321.941
322.034
322.127
322.215
322.294
322.358
322.404
322.428
322.428
322.404
322.358
322.294
322.215
322.127
322.034
321.941
321.854
321.787
315.6
315.647
315.71
315.776
315.843
315.906
315.962
316.008
316.04
316.057
316.057
316.04
316.008
315.962
315.906
315.843
315.776
315.71
315.647
315.6
309.383
309.411
309.449
309.489
309.528
309.566
309.6
309.627
309.647
309.657
309.657
309.647
309.627
309.6
309.566
309.528
309.489
309.449
309.411
309.383
303.147
303.157
303.169
303.183
303.196
303.209
303.22
303.229
303.236
303.239
303.239
303.236
303.229
303.22
303.209
303.196
303.183
303.169
303.157
303.147
347.713
347.856
348.032
348.216
348.399
348.571
348.724
348.849
348.937
348.983
348.983
348.937
348.849
348.724
348.571
348.399
348.216
348.032
347.856
347.713
341.55
341.671
341.823
341.983
342.141
342.29
342.422
342.53
342.607
342.647
342.647
342.607
342.53
342.422
342.29
342.141
341.983
341.823
341.671
341.55
335.303
335.403
335.531
335.666
335.8
335.926
336.038
336.13
336.195
336.228
336.228
336.195
336.13
336.038
335.926
335.8
335.666
335.531
335.403
335.303
328.985
329.065
329.17
329.28
329.39
329.493
329.585
329.66
329.713
329.74
329.74
329.713
329.66
329.585
329.493
329.39
329.28
329.17
329.065
328.985
322.609
322.671
322.752
322.838
322.923
323.004
323.075
323.133
323.174
323.196
323.196
323.174
323.133
323.075
323.004
322.923
322.838
322.752
322.671
322.609
316.189
316.233
316.291
316.352
316.413
316.47
316.521
316.563
316.592
316.608
316.608
316.592
316.563
316.521
316.47
316.413
316.352
316.291
316.233
316.189
309.737
309.763
309.798
309.835
309.871
309.906
309.936
309.961
309.979
309.988
309.988
309.979
309.961
309.936
309.906
309.871
309.835
309.798
309.763
309.737
303.266
303.275
303.286
303.299
303.311
303.323
303.333
303.341
303.347
303.35
303.35
303.347
303.341
303.333
303.323
303.311
303.299
303.286
303.275
303.266
349.612
349.745
349.907
350.077
350.244
350.4
350.538
350.651
350.73
350.771
350.771
350.73
350.651
350.538
350.4
350.244
350.077
349.907
349.745
349.612
343.203
343.315
343.456
343.603
343.747
343.883
344.002
344.1
344.169
344.204
344.204
344.169
344.1
344.002
343.883
343.747
343.603
343.456
343.315
343.203
336.707
336.8
336.918
337.042
337.165
337.279
337.381
337.463
337.521
337.552
337.552
337.521
337.463
337.381
337.279
337.165
337.042
336.918
336.8
336.707
330.137
330.212
330.309
330.41
330.51
330.604
330.687
330.754
330.802
330.827
330.827
330.802
330.754
330.687
330.604
330.51
330.41
330.309
330.212
330.137
323.508
323.565
323.64
323.719
323.797
323.87
323.935
323.987
324.024
324.043
324.043
324.024
323.987
323.935
323.87
323.797
323.719
323.64
323.565
323.508
316.832
316.873
316.926
316.983
317.039
317.091
317.137
317.174
317.201
317.215
317.215
317.201
317.174
317.137
317.091
317.039
316.983
316.926
316.873
316.832
310.124
310.148
310.18
310.214
310.248
310.279
310.307
310.329
310.345
310.353
310.353
310.345
310.329
310.307
310.279
310.248
310.214
310.18
310.148
310.124
303.396
303.404
303.415
303.426
303.437
303.448
303.457
303.465
303.47
303.473
303.473
303.47
303.465
303.457
303.448
303.437
303.426
303.415
303.404
303.396
351.673
351.795
351.945
352.1
352.252
352.394
352.518
352.619
352.691
352.727
352.727
352.691
352.619
352.518
352.394
352.252
352.1
351.945
351.795
351.673
344.997
345.1
345.23
345.364
345.496
345.618
345.726
345.814
345.876
345.908
345.908
345.876
345.814
345.726
345.618
345.496
345.364
345.23
345.1
344.997
338.23
338.316
338.425
338.539
338.65
338.754
338.845
338.919
338.972
338.999
338.999
338.972
338.919
338.845
338.754
338.65
338.539
338.425
338.316
338.23
331.387
331.456
331.545
331.638
331.729
331.814
331.889
331.95
331.993
332.015
332.015
331.993
331.95
331.889
331.814
331.729
331.638
331.545
331.456
331.387
324.483
324.536
324.605
324.677
324.748
324.814
324.872
324.919
324.953
324.97
324.97
324.953
324.919
324.872
324.814
324.748
324.677
324.605
324.536
324.483
317.53
317.568
317.617
317.669
317.719
317.767
317.808
317.842
317.866
317.878
317.878
317.866
317.842
317.808
317.767
317.719
317.669
317.617
317.568
317.53
310.544
310.566
310.595
310.627
310.657
310.685
310.71
310.731
310.745
310.752
310.752
310.745
310.731
310.71
310.685
310.657
310.627
310.595
310.566
310.544
303.537
303.544
303.554
303.564
303.575
303.584
303.593
303.599
303.604
303.607
303.607
303.604
303.599
303.593
303.584
303.575
303.564
303.554
303.544
303.537
353.891
354.004
354.141
354.283
354.421
354.549
354.661
354.752
354.815
354.848
354.848
354.815
354.752
354.661
354.549
354.421
354.283
354.141
354.004
353.891
346.926
347.022
347.141
347.264
347.383
347.494
347.591
347.67
347.725
347.753
347.753
347.725
347.67
347.591
347.494
347.383
347.264
347.141
347.022
346.926
339.868
339.947
340.048
340.151
340.253
340.347
340.429
340.495
340.542
340.566
340.566
340.542
340.495
340.429
340.347
340.253
340.151
340.048
339.947
339.868
332.731
332.795
332.877
332.962
333.045
333.121
333.189
333.243
333.281
333.301
333.301
333.281
333.243
333.189
333.121
333.045
332.962
332.877
332.795
332.731
325.531
325.579
325.643
325.709
325.773
325.833
325.886
325.928
325.958
325.973
325.973
325.958
325.928
325.886
325.833
325.773
325.709
325.643
325.579
325.531
318.28
318.315
318.36
318.407
318.453
318.496
318.533
318.564
318.585
318.596
318.596
318.585
318.564
318.533
318.496
318.453
318.407
318.36
318.315
318.28
310.995
311.015
311.042
311.071
311.098
311.124
311.147
311.165
311.177
311.184
311.184
311.177
311.165
311.147
311.124
311.098
311.071
311.042
311.015
310.995
303.688
303.695
303.704
303.713
303.723
303.731
303.739
303.745
303.749
303.751
303.751
303.749
303.745
303.739
303.731
303.723
303.713
303.704
303.695
303.688
356.256
356.36
356.486
356.615
356.74
356.856
356.956
357.037
357.094
357.123
357.123
357.094
357.037
356.956
356.856
356.74
356.615
356.486
356.36
356.256
348.982
349.07
349.179
349.291
349.4
349.5
349.587
349.657
349.706
349.732
349.732
349.706
349.657
349.587
349.5
349.4
349.291
349.179
349.07
348.982
341.612
341.685
341.777
341.872
341.964
342.048
342.122
342.182
342.223
342.245
342.245
342.223
342.182
342.122
342.048
341.964
341.872
341.777
341.685
341.612
334.161
334.22
334.295
334.372
334.448
334.517
334.577
334.626
334.66
334.678
334.678
334.66
334.626
334.577
334.517
334.448
334.372
334.295
334.22
334.161
326.645
326.69
326.748
326.808
326.867
326.921
326.968
327.006
327.032
327.046
327.046
327.032
327.006
326.968
326.921
326.867
326.808
326.748
326.69
326.645
319.077
319.109
319.151
319.194
319.235
319.274
319.308
319.335
319.354
319.364
319.364
319.354
319.335
319.308
319.274
319.235
319.194
319.151
319.109
319.077
311.474
311.493
311.518
311.543
311.569
311.592
311.612
311.628
311.64
311.646
311.646
311.64
311.628
311.612
311.592
311.569
311.543
311.518
311.493
311.474
303.849
303.855
303.863
303.872
303.88
303.888
303.895
303.9
303.904
303.906
303.906
303.904
303.9
303.895
303.888
303.88
303.872
303.863
303.855
303.849
358.74
358.836
358.951
359.069
359.183
359.287
359.377
359.45
359.5
359.526
359.526
359.5
359.45
359.377
359.287
359.183
359.069
358.951
358.836
358.74
351.138
351.219
351.319
351.421
351.519
351.609
351.688
351.751
351.795
351.817
351.817
351.795
351.751
351.688
351.609
351.519
351.421
351.319
351.219
351.138
343.438
343.505
343.589
343.675
343.759
343.835
343.902
343.955
343.992
344.011
344.011
343.992
343.955
343.902
343.835
343.759
343.675
343.589
343.505
343.438
335.656
335.71
335.779
335.849
335.917
335.98
336.034
336.078
336.109
336.124
336.124
336.109
336.078
336.034
335.98
335.917
335.849
335.779
335.71
335.656
327.808
327.849
327.903
327.958
328.011
328.059
328.102
328.136
328.159
328.172
328.172
328.159
328.136
328.102
328.059
328.011
327.958
327.903
327.849
327.808
319.909
319.938
319.976
320.015
320.053
320.088
320.118
320.143
320.16
320.168
320.168
320.16
320.143
320.118
320.088
320.053
320.015
319.976
319.938
319.909
311.973
311.991
312.013
312.037
312.06
312.081
312.099
312.114
312.124
312.129
312.129
312.124
312.114
312.099
312.081
312.06
312.037
312.013
311.991
311.973
304.016
304.022
304.029
304.037
304.045
304.052
304.058
304.063
304.066
304.068
304.068
304.066
304.063
304.058
304.052
304.045
304.037
304.029
304.022
304.016
361.277
361.365
361.471
361.578
361.681
361.776
361.857
361.922
361.967
361.991
361.991
361.967
361.922
361.857
361.776
361.681
361.578
361.471
361.365
361.277
353.329
353.404
353.495
353.588
353.677
353.759
353.83
353.886
353.926
353.946
353.946
353.926
353.886
353.83
353.759
353.677
353.588
353.495
353.404
353.329
345.286
345.348
345.425
345.503
345.579
345.648
345.708
345.756
345.79
345.807
345.807
345.79
345.756
345.708
345.648
345.579
345.503
345.425
345.348
345.286
337.164
337.213
337.276
337.341
337.403
337.459
337.509
337.548
337.575
337.589
337.589
337.575
337.548
337.509
337.459
337.403
337.341
337.276
337.213
337.164
328.978
329.016
329.065
329.115
329.163
329.207
329.246
329.276
329.297
329.308
329.308
329.297
329.276
329.246
329.207
329.163
329.115
329.065
329.016
328.978
320.743
320.77
320.805
320.841
320.875
320.907
320.934
320.956
320.971
320.979
320.979
320.971
320.956
320.934
320.907
320.875
320.841
320.805
320.77
320.743
312.474
312.49
312.511
312.532
312.553
312.572
312.588
312.601
312.611
312.615
312.615
312.611
312.601
312.588
312.572
312.553
312.532
312.511
312.49
312.474
304.184
304.189
304.196
304.203
304.21
304.217
304.222
304.226
304.23
304.231
304.231
304.23
304.226
304.222
304.217
304.21
304.203
304.196
304.189
304.184
363.7
363.782
363.879
363.978
364.072
364.158
364.232
364.291
364.332
364.353
364.353
364.332
364.291
364.232
364.158
364.072
363.978
363.879
363.782
363.7
355.396
355.465
355.55
355.635
355.717
355.792
355.856
355.907
355.943
355.961
355.961
355.943
355.907
355.856
355.792
355.717
355.635
355.55
355.465
355.396
347.011
347.068
347.139
347.212
347.281
347.344
347.399
347.442
347.473
347.488
347.488
347.473
347.442
347.399
347.344
347.281
347.212
347.139
347.068
347.011
338.558
338.604
338.662
338.722
338.779
338.831
338.875
338.911
338.936
338.948
338.948
338.936
338.911
338.875
338.831
338.779
338.722
338.662
338.604
338.558
330.052
330.087
330.132
330.179
330.223
330.263
330.298
330.326
330.345
330.355
330.355
330.345
330.326
330.298
330.263
330.223
330.179
330.132
330.087
330.052
321.505
321.53
321.562
321.595
321.627
321.656
321.681
321.701
321.714
321.721
321.721
321.714
321.701
321.681
321.656
321.627
321.595
321.562
321.53
321.505
312.929
312.944
312.963
312.983
313.002
313.019
313.034
313.046
313.055
313.059
313.059
313.055
313.046
313.034
313.019
313.002
312.983
312.963
312.944
312.929
304.336
304.341
304.347
304.354
304.36
304.366
304.371
304.375
304.378
304.379
304.379
304.378
304.375
304.371
304.366
304.36
304.354
304.347
304.341
304.336
365.582
365.659
365.75
365.843
365.931
366.011
366.08
366.134
366.172
366.192
366.192
366.172
366.134
366.08
366.011
365.931
365.843
365.75
365.659
365.582
356.942
357.007
357.086
357.167
357.244
357.314
357.374
357.421
357.454
357.471
357.471
357.454
357.421
357.374
357.314
357.244
357.167
357.086
357.007
356.942
348.261
348.315
348.382
348.451
348.516
348.576
348.627
348.667
348.695
348.71
348.71
348.695
348.667
348.627
348.576
348.516
348.451
348.382
348.315
348.261
339.544
339.588
339.643
339.699
339.753
339.802
339.844
339.877
339.9
339.912
339.912
339.9
339.877
339.844
339.802
339.753
339.699
339.643
339.588
339.544
330.798
330.831
330.874
330.918
330.96
330.998
331.031
331.057
331.075
331.084
331.084
331.075
331.057
331.031
330.998
330.96
330.918
330.874
330.831
330.798
322.026
322.05
322.081
322.112
322.142
322.17
322.193
322.212
322.225
322.231
322.231
322.225
322.212
322.193
322.17
322.142
322.112
322.081
322.05
322.026
313.238
313.252
313.27
313.289
313.307
313.324
313.338
313.349
313.357
313.361
313.361
313.357
313.349
313.338
313.324
313.307
313.289
313.27
313.252
313.238
304.439
304.443
304.45
304.456
304.462
304.468
304.472
304.476
304.479
304.48
304.48
304.479
304.476
304.472
304.468
304.462
304.456
304.45
304.443
304.439
)
;

boundaryField
{
    hotSide
    {
        type            fixedGradient;
        gradient        nonuniform List<scalar> 
400
(
379.814
381.39
384.543
389.279
395.604
403.527
413.057
424.206
436.983
451.401
467.47
485.199
504.598
525.675
548.438
572.892
599.043
626.894
656.45
687.713
382.822
384.373
387.48
392.147
398.385
406.205
415.618
426.64
439.284
453.564
469.494
487.085
506.349
527.296
549.934
574.27
600.309
628.057
657.516
688.689
386.076
387.599
390.65
395.237
401.372
409.069
418.347
429.221
441.711
455.834
471.606
489.042
508.155
528.958
551.459
575.666
601.585
629.221
658.578
689.656
389.524
391.014
394
398.493
404.509
412.067
421.189
431.896
444.213
458.16
473.758
491.024
509.974
530.622
552.977
577.048
602.841
630.362
659.612
690.594
393.069
394.522
397.435
401.823
407.707
415.11
424.06
434.585
446.714
460.473
475.885
492.972
511.751
532.237
554.442
578.374
604.04
631.445
660.589
691.476
396.563
397.976
400.812
405.088
410.831
418.071
426.841
437.177
449.112
462.678
477.901
494.807
513.416
533.743
555.8
579.597
605.14
632.433
661.477
692.274
399.806
401.179
403.938
408.103
413.707
420.786
429.381
439.532
451.28
464.661
479.705
496.441
514.89
535.069
556.991
580.664
606.096
633.288
662.242
692.958
402.559
403.896
406.584
410.65
416.129
423.065
431.505
441.494
453.079
466.298
481.188
497.778
516.091
536.145
557.952
581.523
606.861
633.971
662.851
693.501
404.573
405.883
408.518
412.507
417.892
424.72
433.041
442.909
454.371
467.471
482.247
498.729
516.942
536.905
558.63
582.125
607.397
634.447
663.275
693.878
405.641
406.935
409.541
413.489
418.823
425.591
433.85
443.652
455.048
468.084
482.798
499.224
517.384
537.298
558.98
582.436
607.673
634.692
663.492
694.071
405.641
406.935
409.541
413.489
418.823
425.591
433.85
443.652
455.048
468.084
482.798
499.224
517.384
537.298
558.98
582.436
607.673
634.692
663.492
694.071
404.573
405.883
408.518
412.507
417.892
424.72
433.041
442.909
454.371
467.471
482.247
498.729
516.942
536.905
558.63
582.125
607.397
634.447
663.275
693.878
402.559
403.896
406.584
410.65
416.129
423.065
431.505
441.494
453.079
466.298
481.188
497.778
516.091
536.145
557.952
581.523
606.861
633.971
662.851
693.501
399.806
401.179
403.938
408.103
413.707
420.786
429.381
439.532
451.28
464.661
479.705
496.441
514.89
535.069
556.991
580.664
606.096
633.288
662.242
692.958
396.563
397.976
400.812
405.088
410.831
418.071
426.841
437.177
449.112
462.678
477.901
494.807
513.416
533.743
555.8
579.597
605.14
632.433
661.477
692.274
393.069
394.522
397.435
401.823
407.707
415.11
424.06
434.585
446.714
460.473
475.885
492.972
511.751
532.237
554.442
578.374
604.04
631.445
660.589
691.476
389.524
391.014
394
398.493
404.509
412.067
421.189
431.896
444.213
458.16
473.758
491.024
509.974
530.622
552.977
577.048
602.841
630.362
659.612
690.594
386.076
387.599
390.65
395.237
401.372
409.069
418.347
429.221
441.711
455.834
471.606
489.042
508.155
528.958
551.459
575.666
601.585
629.221
658.578
689.656
382.822
384.373
387.48
392.147
398.385
406.205
415.618
426.64
439.284
453.564
469.494
487.085
506.349
527.296
549.934
574.27
600.309
628.057
657.516
688.689
379.814
381.39
384.543
389.279
395.604
403.527
413.057
424.206
436.983
451.401
467.47
485.199
504.598
525.675
548.438
572.892
599.043
626.894
656.45
687.713
)
;
    }
    coldSide
    {
        type            mixed;
        refValue        uniform 300;
        refGradient     uniform 0;
        valueFraction   uniform 0.991591;
        source          uniform 0;
        value           nonuniform List<scalar> 
400
(
300.022
300.022
300.022
300.022
300.022
300.023
300.023
300.024
300.025
300.026
300.026
300.027
300.029
300.03
300.031
300.032
300.034
300.035
300.036
300.037
300.022
300.022
300.022
300.022
300.023
300.023
300.024
300.024
300.025
300.026
300.027
300.028
300.029
300.03
300.031