/*--------------------------------*- C++ -*----------------------------------*\
| =========                 |                                                 |
| \\      /  F ield         | OpenFOAM: The Open Source CFD Toolbox           |
|  \\    /   O peration     | Version:  2212                                  |
|   \\  /    A nd           | Website:  www.openfoam.com                      |
|    \\/     M anipulation  |                                                 |
\*---------------------------------------------------------------------------*/
FoamFile
{
    version     2.0;
    format      ascii;
    arch        "LSB;label=32;scalar=64";
    class       volScalarField;
    location    "./ITHACAoutput/true/9.6";
    object      error;
}
// * * * * * * * * * * * * * * * * * * * * * * * * * * * * * * * * * * * * * //

dimensions      [0 0 0 1 0 0 0];

internalField   nonuniform List<scalar> 
3200
(
3.24521
3.21075
3.14217
3.21913
3.44607
3.78395
4.02776
4.33587
4.70916
4.91279
4.99631
5.08161
4.97758
4.85821
4.68574
4.5983
4.58476
4.69129
4.89254
5.07276
2.86107
2.63706
2.64134
2.67012
2.8906
3.07195
3.41307
3.64995
3.94165
4.17063
4.174
4.21384
4.20201
4.11534
3.94301
3.99298
3.81968
3.96846
4.10052
4.31332
2.24341
2.26653
2.11805
2.19571
2.31714
2.53087
2.84652
2.95653
3.16003
3.39542
3.50998
3.55062
3.467
3.40494
3.25123
3.1815
3.15519
3.22835
3.37811
3.5683
1.83893
1.75516
1.78171
1.77413
1.83661
2.00232
2.237
2.38296
2.62412
2.7418
2.78813
2.79809
2.76793
2.66583
2.55858
2.51794
2.57008
2.60727
2.70233
2.81448
1.36475
1.26454
1.30015
1.26859
1.41877
1.55254
1.71524
1.80534
2.02987
2.08287
2.18088
2.16237
2.0843
2.11753
1.98353
1.98169
1.96909
2.02701
2.13825
2.18198
0.94244
0.930688
0.910432
0.886482
0.943027
1.04904
1.20422
1.30374
1.38371
1.43709
1.4707
1.4613
1.53933
1.4399
1.46865
1.3556
1.34781
1.3909
1.4061
1.54714
0.634203
0.583875
0.505185
0.47648
0.593743
0.669831
0.703067
0.844604
0.838355
0.839441
0.870279
0.941195
0.879916
0.826009
0.797297
0.824477
0.739522
0.778697
0.905162
0.923183
0.198496
0.208054
0.219072
0.187693
0.117374
0.234391
0.258535
0.238964
0.296929
0.36146
0.32756
0.251821
0.335012
0.295386
0.261798
0.255326
0.246328
0.267481
0.23755
0.269325
2.48558
2.3722
2.24696
2.31944
2.5159
2.79586
3.09062
3.43264
3.65221
3.95646
4.02733
4.05109
3.99011
3.92375
3.80039
3.79891
3.68861
3.8006
4.08963
4.32432
2.1256
1.98577
1.91126
1.98345
2.14462
2.37656
2.63584
2.93624
3.11647
3.34155
3.42819
3.48881
3.35181
3.31334
3.158
3.13911
3.14319
3.31409
3.38131
3.609
1.81442
1.58667
1.64796
1.6828
1.75563
1.93188
2.21888
2.41762
2.66764
2.7912
2.84081
2.85984
2.77461
2.7322
2.61707
2.62355
2.64866
2.6939
2.83111
2.99937
1.40456
1.31307
1.2542
1.26582
1.30202
1.59312
1.69395
1.88538
2.16348
2.24747
2.19505
2.28481
2.1685
2.18123
2.10069
2.1575
2.08986
2.15445
2.27915
2.41855
1.08944
0.989981
1.00856
1.00714
1.02656
1.20059
1.34746
1.46499
1.5995
1.67978
1.80301
1.75988
1.79446
1.72594
1.63794
1.59839
1.67569
1.72936
1.78398
1.92606
0.772267
0.642713
0.655425
0.729126
0.743817
0.861295
0.936711
1.04539
1.12152
1.21936
1.24847
1.30058
1.18251
1.10839
1.16801
1.12996
1.0779
1.09866
1.25982
1.3635
0.476843
0.468212
0.338305
0.409157
0.410839
0.536447
0.573573
0.646023
0.628644
0.681752
0.726436
0.746025
0.729268
0.75026
0.688041
0.675643
0.685944
0.626657
0.698326
0.752071
0.0963649
0.128622
0.101144
0.13468
0.1392
0.195992
0.189235
0.154672
0.191676
0.235407
0.194233
0.242851
0.247988
0.256233
0.205851
0.214016
0.267302
0.216234
0.230328
0.294351
1.48792
1.30316
1.20131
1.22561
1.47288
1.63819
1.83136
2.20876
2.4428
2.6855
2.77712
2.89289
2.76204
2.74189
2.60977
2.6578
2.69348
2.79872
3.07068
3.41045
1.23807
1.17068
1.0021
1.06876
1.16048
1.41112
1.65609
1.85509
2.09378
2.23628
2.41165
2.45463
2.35419
2.3044
2.26326
2.23431
2.28025
2.37938
2.61422
2.80293
1.15512
1.02886
0.909884
0.871164
0.958296
1.04258
1.30345
1.57523
1.7449
1.83659
1.98914
2.01553
1.93302
1.92618
1.87785
1.88089
1.83267
2.01945
2.10641
2.3877
0.844822
0.767967
0.654584
0.692357
0.762219
0.83137
1.00321
1.16625
1.31054
1.52111
1.61031
1.56412
1.64729
1.57019
1.48122
1.43862
1.46428
1.58705
1.72115
1.91738
0.643715
0.58214
0.561504
0.535304
0.579984
0.675338
0.804424
0.940306
1.03192
1.18961
1.17425
1.15896
1.23865
1.16555
1.13019
1.06504
1.1767
1.15434
1.3347
1.53181
0.363106
0.358042
0.317778
0.306215
0.383742
0.444645
0.574988
0.638515
0.715656
0.814349
0.781464
0.847932
0.793942
0.775622
0.804341
0.860051
0.874999
0.8419
0.988543
1.05592
0.282119
0.215013
0.234178
0.222757
0.262579
0.228181
0.320801
0.391625
0.471452
0.405799
0.516008
0.468163
0.496178
0.486208
0.440624
0.457495
0.441936
0.550176
0.572685
0.637734
0.0960957
0.0831029
0.0814324
0.0741855
0.0773269
0.161833
0.11146
0.117385
0.124356
0.0969238
0.129566
0.138494
0.155802
0.151486
0.175623
0.179364
0.148717
0.22823
0.220841
0.174254
0.509295
0.357009
0.220063
0.205773
0.22703
0.436246
0.716358
0.968469
1.20327
1.39739
1.52902
1.64688
1.58369
1.59192
1.52269
1.4901
1.61826
1.80884
2.0952
2.44637
0.429903
0.278703
0.133823
0.146743
0.21576
0.307965
0.513927
0.855087
1.07671
1.21153
1.26456
1.30752
1.30246
1.31778
1.31973
1.31017
1.39508
1.51976
1.76644
2.01638
0.429944
0.214868
0.11556
0.0778237
0.16736
0.312102
0.429718
0.668394
0.886761
0.953161
1.04789
1.03236
1.053
1.1126
1.03392
1.07449
1.1158
1.27121
1.48286
1.71163
0.360153
0.169257
0.0728445
0.0609868
0.13839
0.150793
0.319524
0.483674
0.65986
0.724939
0.757489
0.830767
0.860387
0.857995
0.869497
0.857945
0.910708
1.00199
1.2533
1.36
0.178124
0.21866
0.114114
-0.00920416
0.0490162
0.179018
0.243564
0.35824
0.545399
0.584901
0.598461
0.704202
0.676522
0.682013
0.590634
0.589173
0.648692
0.774889
0.828895
1.01606
0.213226
0.126347
0.0495811
-0.00555613
0.0481953
0.0847094
0.189184
0.227375
0.308022
0.388824
0.445434
0.42059
0.480962
0.440552
0.445561
0.435447
0.438183
0.5612
0.724003
0.680219
0.0831978
0.00286069
-0.00416244
-0.020972
0.0521526
0.114247
0.117762
0.125054
0.216705
0.21611
0.318652
0.272474
0.27801
0.235192
0.197537
0.280659
0.294722
0.341343
0.358225
0.42881
0.00574481
0.083001
0.00794927
-0.0422087
-0.00301793
0.0774891
0.0547592
0.0185582
0.0489554
0.0614977
0.0684277
0.153544
0.0997284
0.136313
0.117744
0.0867959
0.0832905
0.116347
0.170582
0.15519
-0.255415
-0.505575
-0.805626
-0.828307
-0.754774
-0.639858
-0.438594
-0.19849
0.0322656
0.254653
0.282273
0.334207
0.457972
0.416382
0.364205
0.536328
0.690993
0.936374
1.27313
1.56992
-0.218397
-0.442447
-0.670079
-0.646306
-0.682078
-0.604483
-0.439259
-0.221547
-0.00583333
0.160347
0.202995
0.36101
0.286694
0.380645
0.411473
0.424966
0.554282
0.810865
1.05494
1.34486
-0.289822
-0.427241
-0.577475
-0.565138
-0.628989
-0.584258
-0.374981
-0.187175
-0.0586589
0.0653897
0.188537
0.212369
0.203235
0.235974
0.187295
0.364975
0.394186
0.578233
0.818082
1.08336
-0.208
-0.287049
-0.482553
-0.545526
-0.54597
-0.442471
-0.360276
-0.115919
-0.0101486
0.0400124
0.189665
0.152479
0.234751
0.156072
0.167852
0.191506
0.276712
0.469912
0.666359
0.91081
-0.205648
-0.286068
-0.339054
-0.415429
-0.425264
-0.349282
-0.278958
-0.190309
-0.0575067
0.00517753
0.0955347
0.045258
0.106822
0.0825045
0.107336
0.232037
0.221878
0.384099
0.530492
0.616701
-0.108319
-0.180951
-0.296001
-0.334348
-0.28042
-0.283696
-0.129248
-0.112392
-0.025386
0.0622238
0.0185291
0.0133663
0.0995001
-0.035204
0.105799
0.138011
0.163364
0.322362
0.40056
0.47248
-0.0158563
-0.117988
-0.144961
-0.149193
-0.184186
-0.186661
-0.115739
-0.0399592
-0.0230072
-0.0296757
0.00562459
0.0909337
0.0131185
0.025738
0.0435288
0.0513601
0.10898
0.116551
0.167796
0.241981
-0.0379804
-0.119711
-0.0271253
-0.132454
-0.0758512
-0.129944
-0.00783183
-0.00168973
0.0218957
0.0185355
-0.0403218
0.0307949
0.0207208
-0.0397532
0.0413656
0.0414419
-0.0139492
0.0772507
0.0981773
0.0714757
-0.931387
-1.19081
-1.49404
-1.58406
-1.66356
-1.56954
-1.3963
-1.27322
-0.967281
-0.879151
-0.720052
-0.70545
-0.648534
-0.576199
-0.466647
-0.318334
-0.0720687
0.172034
0.529534
0.93339
-0.790542
-1.06032
-1.31742
-1.46122
-1.49697
-1.40873
-1.26712
-1.09196
-0.928856
-0.758914
-0.606837
-0.66185
-0.555821
-0.507699
-0.47661
-0.362923
-0.157984
0.120653
0.372705
0.744291
-0.691018
-0.988118
-1.16052
-1.24784
-1.32856
-1.23011
-1.0573
-0.969225
-0.893906
-0.74578
-0.554967
-0.536269
-0.508219
-0.46066
-0.481724
-0.304928
-0.183415
0.0536929
0.384032
0.63863
-0.66204
-0.751929
-0.921313
-0.97089
-1.0529
-0.973639
-0.895138
-0.815678
-0.674206
-0.597379
-0.578966
-0.481152
-0.464886
-0.335527
-0.405328
-0.233622
-0.155208
0.0210402
0.263281
0.462497
-0.479463
-0.568016
-0.736559
-0.804792
-0.717399
-0.730494
-0.724241
-0.639636
-0.60835
-0.490123
-0.410999
-0.445317
-0.383259
-0.438687
-0.339502
-0.280483
-0.174681
0.0231886
0.211909
0.337528
-0.351411
-0.444815
-0.580637
-0.56592
-0.56904
-0.533139
-0.575607
-0.464784
-0.43597
-0.331976
-0.302777
-0.293429
-0.262646
-0.249357
-0.250164
-0.198587
-0.0387004
0.020851
0.092437
0.18332
-0.231464
-0.262871
-0.309609
-0.422889
-0.314647
-0.336097
-0.330435
-0.247163
-0.227278
-0.163753
-0.228969
-0.202957
-0.117663
-0.170573
-0.197731
-0.128984
-0.10034
-0.0335118
0.00612424
0.127311
-0.0652562
-0.13713
-0.108619
-0.14983
-0.084086
-0.141479
-0.159641
-0.110304
-0.128229
-0.106998
-0.0904435
-0.0667988
-0.0979581
-0.0350499
-0.0363611
-0.00957265
-0.0210531
0.0174807
-0.00801733
0.106737
-1.48851
-1.81149
-2.17773
-2.30783
-2.41939
-2.39562
-2.28204
-2.09641
-1.92708
-1.75636
-1.6718
-1.62344
-1.50613
-1.41454
-1.2828
-1.07568
-0.859514
-0.420366
0.069858
0.488449
-1.16472
-1.62034
-1.79121
-1.91561
-2.05803
-2.10733
-2.00959
-1.89793
-1.6747
-1.53792
-1.45529
-1.35326
-1.35953
-1.24459
-1.11454
-0.977105
-0.754469
-0.381886
-0.00730777
0.375261
-1.10688
-1.30231
-1.578
-1.71038
-1.82627
-1.78426
-1.69092
-1.60595
-1.47884
-1.36435
-1.32366
-1.24911
-1.16827
-1.09594
-0.948857
-0.859436
-0.6754
-0.456831
-0.00775002
0.30233
-0.930534
-1.09465
-1.31727
-1.37034
-1.51739
-1.5349
-1.40489
-1.35621
-1.24122
-1.19114
-1.06091
-0.995743
-0.948517
-0.864488
-0.830129
-0.736064
-0.539508
-0.313953
-0.0659005
0.207277
-0.662042
-0.949823
-1.0199
-1.12117
-1.17543
-1.11631
-1.13445
-1.11904
-0.989743
-0.91671
-0.886647
-0.808977
-0.742547
-0.710293
-0.597035
-0.553328
-0.479871
-0.267253
-0.0348485
0.178475
-0.50331
-0.580899
-0.738097
-0.813274
-0.856185
-0.859124
-0.845678
-0.780732
-0.663631
-0.675623
-0.617863
-0.558174
-0.611614
-0.497244
-0.508314
-0.413567
-0.307111
-0.264687
-0.0825666
0.079518
-0.340395
-0.411811
-0.386741
-0.440819
-0.572831
-0.513
-0.398207
-0.446156
-0.432551
-0.442072
-0.321164
-0.36991
-0.343779
-0.348717
-0.288966
-0.327172
-0.191925
-0.0875862
-0.00836212
0.084475
-0.0939056
-0.0943203
-0.143708
-0.129208
-0.112603
-0.166214
-0.141861
-0.151376
-0.13609
-0.0920376
-0.125308
-0.051225
-0.100639
-0.0657514
-0.0937588
-0.112177
-0.0943916
-0.0633042
0.0405523
0.0265257
-1.76744
-2.1657
-2.51669
-2.80679
-2.89971
-3.10238
-2.85323
-2.79163
-2.6738
-2.52584
-2.3697
-2.29414
-2.13324
-2.06192
-1.83565
-1.64825
-1.18085
-0.889767
-0.318028
0.196981
-1.58426
-1.89511
-2.2268
-2.4079
-2.55928
-2.55891
-2.59491
-2.53318
-2.41892
-2.18591
-2.08406
-2.02779
-1.89798
-1.73403
-1.67891
-1.38667
-1.13055
-0.777272
-0.330181
0.117422
-1.41197
-1.59823
-1.92896
-2.16785
-2.22279
-2.16854
-2.16075
-2.16395
-1.96036
-1.87465
-1.83606
-1.74812
-1.65536
-1.58027
-1.45675
-1.23042
-1.0301
-0.624788
-0.306675
0.035
-1.11985
-1.34658
-1.58681
-1.76731
-1.84263
-1.76426
-1.8031
-1.73767
-1.7289
-1.5637
-1.56154
-1.51725
-1.38659
-1.2099
-1.17666
-1.01439
-0.83766
-0.530269
-0.273612
-0.0167598
-0.872805
-1.07714
-1.26336
-1.30514
-1.40874
-1.43768
-1.38241
-1.33366
-1.27295
-1.24367
-1.19864
-1.2245
-1.02517
-1.02726
-0.930375
-0.850588
-0.622195
-0.486751
-0.216473
-0.0310509
-0.669938
-0.708198
-0.810072
-0.914764
-1.0457
-0.992472
-1.07591
-1.05858
-0.881337
-0.922343
-0.846439
-0.865532
-0.830358
-0.721844
-0.672361
-0.59801
-0.493851
-0.377188
-0.166604
-0.0457953
-0.340858
-0.426757
-0.501317
-0.627123
-0.591897
-0.650276
-0.715548
-0.574631
-0.572735
-0.618923
-0.479739
-0.512836
-0.413882
-0.389613
-0.389802
-0.299457
-0.261008
-0.162464
-0.118842
0.0215989
-0.141958
-0.139109
-0.141336
-0.182966
-0.208642
-0.288526
-0.177699
-0.191656
-0.132655
-0.205457
-0.197945
-0.186152
-0.217718
-0.101008
-0.161619
-0.122812
-0.0893054
-0.12349
-0.0563146
-0.00368739
-1.91792
-2.29309
-2.77507
-3.12967
-3.33286
-3.39642
-3.36519
-3.27573
-3.19156
-3.06979
-2.8733
-2.79072
-2.64166
-2.43756
-2.36966
-1.91107
-1.48168
-1.02693
-0.524626
0.0830515
-1.66289
-2.08651
-2.41238
-2.68976
-2.92593
-2.89165
-2.98024
-2.8941
-2.78996
-2.66604
-2.59474
-2.44295
-2.31484
-2.15302
-1.99129
-1.67067
-1.38969
-0.98009
-0.438069
0.0422458
-1.42257
-1.71643
-2.1289
-2.25232
-2.48402
-2.54192
-2.50886
-2.43898
-2.41554
-2.30563
-2.17503
-2.14818
-2.00908
-1.8497
-1.71095
-1.45322
-1.18329
-0.838324
-0.38219
0.0103622
-1.19977
-1.46292
-1.66818
-1.83707
-1.99375
-2.09424
-2.16979
-2.06731
-1.96248
-1.93287
-1.81139
-1.72384
-1.66917
-1.55886
-1.48196
-1.26655
-0.986523
-0.686123
-0.389075
0.0164726
-0.893191
-1.13973
-1.28121
-1.45484
-1.63901
-1.57373
-1.61556
-1.64642
-1.55314
-1.55167
-1.49859
-1.33936
-1.35718
-1.18596
-1.08828
-1.01246
-0.732636
-0.574416
-0.252968
-0.0366652
-0.719626
-0.870684
-0.982792
-1.05925
-1.12888
-1.2321
-1.12716
-1.17129
-1.04249
-1.09371
-0.986374
-0.969502
-0.890564
-0.938638
-0.812957
-0.7077
-0.527024
-0.428901
-0.186816
-0.103389
-0.392026
-0.50512
-0.616141
-0.652445
-0.713771
-0.724404
-0.704827
-0.657066
-0.68865
-0.69954
-0.615069
-0.629161
-0.53928
-0.55652
-0.487614
-0.38339
-0.3604
-0.218298
-0.149142
-0.0127862
-0.105344
-0.216358
-0.2378
-0.194361
-0.221103
-0.220024
-0.249017
-0.245628
-0.232674
-0.224385
-0.205804
-0.218475
-0.182783
-0.236712
-0.152386
-0.124049
-0.134326
-0.0369791
-0.0640206
0.0521203
-1.76894
-2.2309
-2.76406
-3.18777
-3.38064
-3.55842
-3.63477
-3.59183
-3.51763
-3.39765
-3.2525
-3.15728
-2.85855
-2.68773
-2.39396
-2.07193
-1.62367
-1.06522
-0.402529
0.148438
-1.51619
-1.96338
-2.48472
-2.67258
-2.98755
-3.14433
-3.17481
-3.15846
-3.10941
-2.90007
-2.8242
-2.74844
-2.59608
-2.30758
-2.06424
-1.81432
-1.36466
-0.908825
-0.395619
0.172859
-1.31104
-1.6601
-2.08148
-2.33645
-2.56766
-2.67707
-2.66449
-2.69093
-2.57178
-2.57671
-2.45813
-2.33512
-2.23255
-2.0398
-1.82579
-1.51502
-1.21299
-0.798824
-0.396825
0.0612138
-1.13425
-1.40423
-1.70125
-1.94288
-2.06516
-2.13194
-2.18131
-2.16968
-2.14719
-2.1831
-2.00607
-1.93596
-1.79329
-1.69873
-1.57153
-1.33947
-1.03791
-0.65142
-0.286462
-0.0518248
-0.933127
-1.09153
-1.28726
-1.56071
-1.66473
-1.68698
-1.70195
-1.64125
-1.75684
-1.64091
-1.57796
-1.53769
-1.44657
-1.33348
-1.24949
-1.01665
-0.830817
-0.553104
-0.230141
0.0253589
-0.592685
-0.740318
-0.925565
-1.07238
-1.14094
-1.2846
-1.24954
-1.26178
-1.24376
-1.14264
-1.15995
-1.10857
-1.10042
-0.974111
-0.875906
-0.789344
-0.538865
-0.404268
-0.247614
-0.0226297
-0.351821
-0.496168
-0.585128
-0.606447
-0.672051
-0.775476
-0.759381
-0.776954
-0.765817
-0.706141
-0.662004
-0.631669
-0.639648
-0.63547
-0.486792
-0.492858
-0.303201
-0.253684
-0.138529
-0.0564236
-0.139621
-0.160335
-0.219894
-0.165448
-0.32238
-0.219249
-0.20977
-0.235133
-0.27574
-0.224101
-0.226443
-0.265054
-0.225181
-0.183368
-0.159962
-0.11211
-0.132702
-0.119499
-0.092319
-0.0755275
-1.58185
-1.97707
-2.64309
-3.02925
-3.33614
-3.5214
-3.62276
-3.61781
-3.57176
-3.49617
-3.38745
-3.23625
-3.0419
-2.72263
-2.45481
-1.98269
-1.45491
-0.841779
-0.147723
0.559471
-1.34132
-1.754
-2.22866
-2.63625
-2.90895
-3.08613
-3.12965
-3.16348
-3.12823
-3.00039
-2.91513
-2.80598
-2.67488
-2.3835
-2.09581
-1.71387
-1.28169
-0.737862
-0.149739
0.403621
-1.07091
-1.51901
-1.8627
-2.15045
-2.48127
-2.6088
-2.7302
-2.7558
-2.61774
-2.65453
-2.51058
-2.36667
-2.23993
-2.06197
-1.8323
-1.52011
-1.10222
-0.699451
-0.1366
0.327471
-0.986666
-1.18717
-1.61396
-1.83349
-1.96806
-2.13757
-2.25172
-2.23579
-2.22695
-2.15371
-2.08466
-2.05023
-1.82944
-1.68367
-1.49949
-1.20216
-0.895679
-0.558882
-0.234948
0.258638
-0.740292
-0.980996
-1.16536
-1.35402
-1.60196
-1.69464
-1.74836
-1.73756
-1.71806
-1.70473
-1.65183
-1.55675
-1.42722
-1.38293
-1.13942
-0.997517
-0.728348
-0.448213
-0.140987
0.0848004
-0.532013
-0.678113
-0.921803
-1.07064
-1.14367
-1.24402
-1.25059
-1.17892
-1.3154
-1.26536
-1.21628
-1.05668
-0.972505
-0.999484
-0.838464
-0.725925
-0.553272
-0.356855
-0.0746941
0.135755
-0.298839
-0.383155
-0.479902
-0.659618
-0.701515
-0.676327
-0.692154
-0.788082
-0.735238
-0.684887
-0.776426
-0.642642
-0.675237
-0.545342
-0.537632
-0.476988
-0.350077
-0.208024
-0.0244499
0.0352972
-0.151376
-0.1106
-0.176284
-0.199184
-0.201699
-0.201495
-0.284129
-0.287762
-0.304552
-0.252142
-0.258088
-0.245168
-0.207151
-0.202011
-0.156233
-0.0871797
-0.106241
-0.0533692
-0.0718319
0.000813443
-0.965362
-1.55078
-2.14947
-2.67947
-3.05323
-3.26727
-3.46271
-3.42543
-3.44821
-3.40393
-3.25587
-3.00032
-2.76295
-2.51916
-2.13718
-1.75746
-1.08586
-0.389726
0.337895
1.05017
-0.835908
-1.32173
-1.87952
-2.2451
-2.61809
-2.88721
-2.93785
-3.03613
-2.97844
-2.9331
-2.8223
-2.59088
-2.42493
-2.2593
-1.91168
-1.47976
-0.972099
-0.345952
0.280217
0.847097
-0.737406
-1.16705
-1.56484
-1.96247
-2.22641
-2.41145
-2.50517
-2.6036
-2.57479
-2.52797
-2.45908
-2.33751
-2.10366
-1.83321
-1.62937
-1.28099
-0.841946
-0.389501
0.204392
0.721191
-0.598622
-0.952085
-1.23911
-1.5484
-1.9014
-1.97603
-2.11497
-2.10161
-2.15891
-2.10093
-2.04488
-1.84837
-1.70303
-1.59441
-1.29678
-1.0867
-0.706057
-0.325735
0.0985578
0.538045
-0.463735
-0.818306
-1.05443
-1.18226
-1.46903
-1.62728
-1.6511
-1.65948
-1.64847
-1.64343
-1.56583
-1.47855
-1.40426
-1.18834
-1.04724
-0.783414
-0.54442
-0.177974
0.116967
0.435351
-0.367641
-0.560903
-0.710388
-0.876615
-1.03185
-1.16318
-1.21193
-1.2502
-1.20646
-1.14027
-1.15986
-1.07855
-1.06368
-0.965572
-0.726941
-0.620933
-0.387836
-0.166682
0.109447
0.299236
-0.244016
-0.359861
-0.427565
-0.53137
-0.584747
-0.659971
-0.722888
-0.783738
-0.618326
-0.703805
-0.692263
-0.580873
-0.653141
-0.589171
-0.462207
-0.401306
-0.233213
-0.0479174
0.0369739
0.170373
-0.0544762
-0.132055
-0.159546
-0.173822
-0.153374
-0.206846
-0.254995
-0.207693
-0.26545
-0.21721
-0.175592
-0.231422
-0.20988
-0.181972
-0.196921
-0.161119
-0.106078
-0.116745
0.0114232
-0.0209639
-0.219389
-0.834046
-1.52598
-1.95636
-2.44553
-2.78014
-2.9309
-3.11094
-3.01836
-3.01409
-2.87923
-2.61185
-2.39688
-2.09274
-1.62727
-1.15805
-0.497819
0.29316
1.07489
1.76861
-0.156258
-0.741703
-1.20828
-1.80076
-2.129
-2.39572
-2.55386
-2.63178
-2.61799
-2.63656
-2.48257
-2.33648
-2.08577
-1.80194
-1.45859
-1.05424
-0.471728
0.191184
0.902796
1.55667
-0.172814
-0.652805
-1.0949
-1.50235
-1.76434
-2.11606
-2.24603
-2.31349
-2.29338
-2.27116
-2.11257
-1.9934
-1.78938
-1.55842
-1.24604
-0.816203
-0.415199
0.13783
0.749712
1.25877
-0.142453
-0.579659
-0.883383
-1.21895
-1.51406
-1.64244
-1.77786
-1.86199
-1.92407
-1.78803
-1.8082
-1.58102
-1.44937
-1.36058
-1.03071
-0.673921
-0.33386
0.121073
0.550873
1.02221
-0.174415
-0.396293
-0.69824
-0.986984
-1.19314
-1.29127
-1.3625
-1.51312
-1.48159
-1.40927
-1.30045
-1.24792
-1.15248
-0.950044
-0.786219
-0.489936
-0.235053
0.105186
0.454004
0.80957
-0.0781339
-0.258353
-0.458138
-0.705643
-0.853651
-0.995441
-0.968514
-1.04078
-1.0566
-1.07892
-0.995642
-0.874027
-0.822415
-0.694107
-0.642311
-0.433111
-0.185327
0.052713
0.278506
0.593264
-0.0573274
-0.171579
-0.265344
-0.421475
-0.474101
-0.616338
-0.608738
-0.683927
-0.642332
-0.644604
-0.595407
-0.503831
-0.443141
-0.445553
-0.368768
-0.282122
-0.0987543
0.0699324
0.136459
0.338956
-0.0327953
-0.0457633
-0.161252
-0.184924
-0.13763
-0.277835
-0.156571
-0.283818
-0.242747
-0.218022
-0.223763
-0.172713
-0.174878
-0.152214
-0.137516
-0.0677981
-0.00772003
0.0128092
0.0428752
0.076411
0.805945
0.104478
-0.607301
-1.18435
-1.68622
-2.02996
-2.25112
-2.43116
-2.39171
-2.34456
-2.2103
-1.99286
-1.74735
-1.33709
-0.904934
-0.256877
0.411727
1.14272
2.01763
2.80528
0.664875
0.168144
-0.521231
-0.993766
-1.41109
-1.74616
-2.03128
-2.08326
-2.1174
-2.05763
-1.89744
-1.71591
-1.55416
-1.19733
-0.753895
-0.207491
0.271312
0.941294
1.69979
2.40792
0.632871
0.0842221
-0.397695
-0.923762
-1.20203
-1.47862
-1.6418
-1.76161
-1.79137
-1.74006
-1.66469
-1.44834
-1.37916
-1.02014
-0.748898
-0.224076
0.299631
0.825905
1.44788
1.97054
0.485653
0.136585
-0.332121
-0.74751
-1.0468
-1.22164
-1.33878
-1.4113
-1.53752
-1.48022
-1.35632
-1.24808
-1.06514
-0.798715
-0.540103
-0.218256
0.170658
0.628754
1.20858
1.62625
0.307653
0.0177581
-0.279216
-0.553513
-0.824473
-0.98118
-1.09091
-1.15003
-1.15007
-1.12503
-1.04903
-0.913499
-0.908635
-0.619799
-0.431706
-0.176965
0.143129
0.494518
0.917243
1.19743
0.252954
0.0578496
-0.164712
-0.416399
-0.584755
-0.707046
-0.788818
-0.743846
-0.837469
-0.865705
-0.825038
-0.650293
-0.674355
-0.524461
-0.337405
-0.146207
0.052976
0.294467
0.647757
0.835178
0.160943
0.0208431
-0.133348
-0.224779
-0.370512
-0.458218
-0.482983
-0.470477
-0.537349
-0.533395
-0.465193
-0.425019
-0.318663
-0.279362
-0.214386
-0.0666509
0.061288
0.168205
0.312247
0.520239
0.035586
-0.000713
-0.0254682
-0.0820455
-0.131528
-0.177804
-0.0969743
-0.166523
-0.117028
-0.22925
-0.137535
-0.144498
-0.137636
-0.103184
-0.0528923
-0.00186004
0.0630026
0.0948728
0.149543
0.199056
2.09268
1.38127
0.552766
-0.0954856
-0.550146
-0.934564
-1.28638
-1.47082
-1.50221
-1.4387
-1.30001
-1.14569
-0.828342
-0.411619
0.0618337
0.768176
1.53479
2.28303
3.28393
4.09306
1.80926
1.18525
0.478928
-0.0912684
-0.532345
-0.81524
-1.08403
-1.30755
-1.28949
-1.23879
-1.14372
-0.967714
-0.70997
-0.411556
0.11345
0.622572
1.28808
1.98495
2.80778
3.53208
1.45244
0.944636
0.363591
-0.0662782
-0.483838
-0.664466
-0.919833
-1.0902
-1.10396
-1.01133
-0.941549
-0.812034
-0.613082
-0.296434
0.0618566
0.581331
1.03479
1.69421
2.33589
2.91541
1.20254
0.843622
0.294164
-0.0604812
-0.40272
-0.635049
-0.726098
-0.897141
-0.979458
-0.919383
-0.852956
-0.739817
-0.525867
-0.244886
0.085283
0.434294
0.826417
1.36353
1.9281
2.34213
0.946462
0.637537
0.211965
-0.0568102
-0.302723
-0.467022
-0.652491
-0.725281
-0.773998
-0.725303
-0.62619
-0.560556
-0.423241
-0.105145
0.0524138
0.315647
0.620504
1.06857
1.43617
1.79188
0.688391
0.469995
0.172104
-0.0974366
-0.161546
-0.357661
-0.456165
-0.456542
-0.589561
-0.489604
-0.517169
-0.429374
-0.316705
-0.168166
0.0360803
0.258335
0.499961
0.769889
0.981986
1.3175
0.427342
0.19826
0.127397
-0.0740957
-0.146756
-0.229753
-0.292798
-0.331694
-0.275835
-0.309908
-0.263168
-0.25389
-0.242315
-0.0604481
0.0156683
0.139893
0.300741
0.461285
0.655426
0.768545
0.110255
0.147478
-0.00819904
0.00479193
-0.0722345
-0.0683805
-0.0813936
-0.102246
-0.0869551
-0.152448
-0.0774344
-0.0525365
-0.0792665
-0.00511504
-0.0168716
-0.0217438
0.107299
0.203495
0.218721
0.251914
3.52343
2.68623
1.96401
1.2134
0.696316
0.213542
-0.0379824
-0.30693
-0.280513
-0.251008
-0.0862474
0.0838294
0.372961
0.807405
1.38036
2.003
2.84313
3.67441
4.67295
5.54268
3.00885
2.33189
1.67586
1.09681
0.538161
0.220622
0.00970802
-0.234086
-0.300393
-0.269999
-0.123355
0.0598745
0.301023
0.754019
1.13878
1.74685
2.47712
3.22786
4.04093
4.78293
2.58843
2.02505
1.41875
0.950265
0.506659
0.168398
-0.0820208
-0.228665
-0.249168
-0.246084
-0.111277
0.028393
0.31903
0.537899
1.02144
1.45111
2.03411
2.6377
3.49666
3.99931
2.03219
1.6727
1.18506
0.760812
0.396302
0.203508
-0.0999565
-0.0753841
-0.168094
-0.150987
-0.137633
0.00223093
0.239007
0.429243
0.760045
1.19806
1.69916
2.21914
2.77576
3.28283
1.58493
1.28505
0.84293
0.62052
0.349026
0.187319
0.0256037
-0.172129
-0.169618
-0.166194
-0.109382
-0.0981051
0.13863
0.31012
0.625257
0.972858
1.26793
1.71029
2.15633
2.53374
1.16338
0.985319
0.63897
0.36027
0.221179
0.0530879
-0.041428
-0.0679227
-0.122653
-0.137367
-0.0573747
-0.00944469
0.0398037
0.254509
0.45727
0.702711
0.872735
1.18237
1.53949
1.76282
0.726913
0.558959
0.335845
0.261243
0.118829
0.0306217
-0.0921392
-0.0959289
-0.0516732
-0.0865136
-0.0644152
0.0546964
0.0169427
0.140058
0.343699
0.390237
0.523029
0.706578
0.922836
1.0753
0.236632
0.176564
0.0870831
0.130813
0.108935
0.0396462
-0.0208559
-0.0598201
0.0292368
-0.0657703
0.0283053
0.0259199
0.00634642
0.189653
0.136642
0.127707
0.200368
0.226829
0.29104
0.3807
5.13675
4.35823
3.53516
2.7697
2.17105
1.76084
1.44031
1.19636
1.16313
1.09212
1.22881
1.46933
1.78437
2.24938
2.83587
3.53957
4.30465
5.21555
6.33042
7.16973
4.51562
3.74945
3.06655
2.45043
1.91241
1.49307
1.23402
0.982439
0.958714
0.927299
1.03025
1.29422
1.64073
2.02165
2.45367
3.022
3.77746
4.59157
5.43251
6.15825
3.79012
3.23206
2.62477
2.08218
1.66778
1.30064
1.08261
0.818636
0.797766
0.886379
0.897664
1.06333
1.29211
1.64293
2.15591
2.60071
3.18365
3.88353
4.57422
5.22351
3.1473
2.64666
2.08648
1.7714
1.31466
1.01877
0.855361
0.664772
0.664234
0.699347
0.729638
0.832244
1.07558
1.36138
1.70964
2.11506
2.66749
3.15559
3.7823
4.25265
2.43041
2.04797
1.68233
1.27299
1.05142
0.780724
0.669509
0.548823
0.472103
0.506014
0.568235
0.606408
0.846526
1.04421
1.30307
1.63541
1.96915
2.4682
2.89513
3.25045
1.73501
1.49502
1.17799
0.919514
0.7294
0.535717
0.426972
0.409529
0.289723
0.343614
0.404558
0.47518
0.532856
0.675888
0.912404
1.20848
1.47322
1.74519
2.08907
2.30181
1.04941
0.933388
0.741062
0.537337
0.416361
0.33636
0.254058
0.27669
0.199839
0.195742
0.248297
0.253886
0.353169
0.456157
0.509777
0.660722
0.846154
1.05803
1.1982
1.36868
0.320715
0.279896
0.211486
0.171484
0.0915141
0.0889403
0.100067
0.136581
0.0755323
0.0969933
0.0983729
0.066975
0.135473
0.116853
0.189877
0.321881
0.292619
0.377589
0.425392
0.548004
7.03921
6.2339
5.31944
4.53336
3.95286
3.43056
3.05746
2.83219
2.7306
2.70032
2.82356
3.09143
3.4363
3.9276
4.53297
5.25003
6.10806
7.05104
8.09256
9.07964
6.14039
5.41325
4.58993
3.90551
3.40379
2.96648
2.6415
2.42794
2.38634
2.34581
2.41845
2.61767
2.86967
3.34536
3.87521
4.49306
5.31902
6.10817
6.95451
7.79925
5.15616
4.56494
3.86186
3.36462
2.82662
2.49439
2.16915
2.04478
1.92393
2.00525
2.05393
2.23872
2.43031
2.86273
3.3132
3.79835
4.44123
5.16175
5.86043
6.47384
4.2426
3.73478
3.22042
2.73047
2.35251
2.00624
1.76666
1.68377
1.58785
1.65615
1.70478
1.85536
2.06256
2.36872
2.7013
3.10167
3.65834
4.21648
4.78663
5.37212
3.24823
2.90807
2.45694
2.09595
1.73992
1.55066
1.36015
1.32565
1.26085
1.23445
1.27977
1.36758
1.57322
1.7238
2.01639
2.40175
2.79933
3.29748
3.70847
4.10945
2.34531
2.01873
1.76504
1.48789
1.33627
1.04254
1.02542
0.882021
0.866202
0.85121
0.909768
1.01177
1.13584
1.27429
1.51816
1.71569
1.97199
2.2828
2.69006
2.93359
1.44707
1.25822
1.04337
0.927677
0.772088
0.587467
0.619056
0.565251
0.526365
0.573736
0.517713
0.53215
0.736959
0.773992
0.851316
1.07355
1.20975
1.47382
1.65187
1.85044
0.474173
0.408374
0.372133
0.298212
0.242547
0.253828
0.202147
0.164516
0.212765
0.136367
0.145899
0.198242
0.258631
0.249318
0.334496
0.312036
0.471944
0.511532
0.494399
0.529476
8.90591
8.14205
7.10902
6.30214
5.6349
5.10797
4.77257
4.48669
4.39681
4.39014
4.51509
4.66657
5.16736
5.61168
6.28107
6.97137
7.89653
8.86967
9.83682
10.8055
7.62197
7.04508
6.19965
5.40687
4.90661
4.43902
4.1139
3.82699
3.74955
3.80587
3.90407
4.08748
4.42084
4.82336
5.36867
6.03856
6.77045
7.55417
8.61123
9.33237
6.48944
5.85466
5.25557
4.55887
4.18247
3.6388
3.37912
3.23129
3.20135
3.11308
3.23383
3.38774
3.7094
3.98033
4.55324
5.02661
5.72938
6.45617
7.20999
7.87357
5.27958
4.75913
4.20433
3.81081
3.30006
3.02217
2.77487
2.5985
2.53847
2.53906
2.56847
2.75017
2.95333
3.29255
3.62722
4.08969
4.64862
5.21392
5.79597
6.40105
4.07488
3.76524
3.27472
2.8512
2.58352
2.29498
2.15632
2.08019
1.9733
1.99583
2.08093
2.11132
2.26836
2.5713
2.83608
3.20318
3.58225
4.03906
4.53824
4.96327
2.90404
2.63517
2.40177
2.07733
1.79741
1.68213
1.5666
1.39241
1.32114
1.33383
1.429
1.42382
1.67297
1.77422
2.01747
2.22198
2.55526
2.87592
3.21305
3.56137
1.70855
1.57442
1.43887
1.19668
1.11774
1.02442
0.962247
0.889923
0.807219
0.867965
0.82065
0.938272
0.964387
1.12888
1.15712
1.35972
1.59715
1.7287
1.91161
2.07254
0.651978
0.550863
0.469073
0.383523
0.308804
0.355307
0.255902
0.280589
0.293419
0.293188
0.339875
0.316467
0.287818
0.290093
0.41055
0.433116
0.471095
0.601812
0.667299
0.62316
10.4523
9.53336
8.63263
7.85258
7.07209
6.55784
6.16443
5.89922
5.68133
5.78939
5.82604
6.18918
6.48693
7.0635
7.61909
8.42243
9.31116
10.3146
11.4113
12.3994
8.95488
8.19276
7.37163
6.55505
6.0564
5.58425
5.17942
4.97169
4.90428
4.90027
4.96359
5.25515
5.59003
5.93863
6.56917
7.25761
7.90391
8.78223
9.84684
10.571
7.42324
6.83736
6.11453
5.5083
5.01978
4.58299
4.39501
4.17935
4.05375
4.07527
4.10788
4.26796
4.59739
4.97767
5.37421
5.97905
6.64162
7.31827
8.16857
8.84193
6.04101
5.58405
4.97481
4.4737
3.98186
3.74197
3.52841
3.24937
3.25615
3.31551
3.26045
3.5144
3.74104
3.97737
4.38306
4.81518
5.2964
5.97202
6.57609
7.158
4.64789
4.25988
3.85769
3.34043
3.10626
2.87445
2.65946
2.55812
2.51385
2.41725
2.43238
2.69662
2.87754
3.04207
3.38296
3.71699
4.12525
4.5846
5.08104
5.54716
3.28984
3.08477
2.71183
2.51667
2.16334
2.02673
1.87369
1.8073
1.73646
1.84108
1.75756
1.82764
2.00722
2.13979
2.37309
2.64382
2.8566
3.22859
3.55842
3.8526
1.92349
1.85332
1.64207
1.37195
1.33435
1.18058
1.08159
1.14718
1.04113
1.0824
1.04417
1.08409
1.25411
1.30687
1.43423
1.55138
1.76549
1.96607
2.19111
2.33904
0.61807
0.656335
0.533677
0.506692
0.425801
0.37088
0.394495
0.351633
0.3822
0.38062
0.327226
0.382082
0.473261
0.438858
0.47055
0.483829
0.561342
0.656412
0.671775
0.748256
)
;

boundaryField
{
    hotSide
    {
        type            calculated;
        value           nonuniform List<scalar> 
400
(
3.71778
2.95834
1.96106
0.983043
0.219247
-0.455445
-1.01083
-1.28749
-1.43507
-1.28246
-1.09092
-0.469088
0.283212
1.31592
2.61114
4.05154
5.67571
7.59026
9.47032
11.0314
3.7088
2.87022
1.80117
0.855057
-0.00735443
-0.692181
-1.31212
-1.66513
-1.79076
-1.7261
-1.469
-1.03853