/*--------------------------------*- C++ -*----------------------------------*\
| =========                 |                                                 |
| \\      /  F ield         | OpenFOAM: The Open Source CFD Toolbox           |
|  \\    /   O peration     | Version:  2212                                  |
|   \\  /    A nd           | Website:  www.openfoam.com                      |
|    \\/     M anipulation  |                                                 |
\*---------------------------------------------------------------------------*/
FoamFile
{
    version     2.0;
    format      ascii;
    arch        "LSB;label=32;scalar=64";
    class       volScalarField;
    location    "./ITHACAoutput/true/9.6";
    object      trueState;
}
// * * * * * * * * * * * * * * * * * * * * * * * * * * * * * * * * * * * * * //

dimensions      [0 0 0 1 0 0 0];

internalField   nonuniform List<scalar> 
3200
(
338.542
339.021
339.632
340.299
340.985
341.659
342.281
342.806
343.189
343.391
343.391
343.189
342.806
342.281
341.659
340.985
340.299
339.632
339.021
338.542
333.52
333.926
334.453
335.03
335.624
336.207
336.745
337.198
337.529
337.703
337.703
337.529
337.198
336.745
336.207
335.624
335.03
334.453
333.926
333.52
328.45
328.786
329.231
329.718
330.22
330.712
331.166
331.549
331.828
331.975
331.975
331.828
331.549
331.166
330.712
330.22
329.718
329.231
328.786
328.45
323.338
323.608
323.971
324.369
324.779
325.181
325.552
325.865
326.092
326.212
326.212
326.092
325.865
325.552
325.181
324.779
324.369
323.971
323.608
323.338
318.191
318.399
318.68
318.99
319.309
319.621
319.909
320.152
320.329
320.422
320.422
320.329
320.152
319.909
319.621
319.309
318.99
318.68
318.399
318.191
313.019
313.166
313.366
313.587
313.815
314.038
314.244
314.417
314.543
314.61
314.61
314.543
314.417
314.244
314.038
313.815
313.587
313.366
313.166
313.019
307.828
307.916
308.036
308.168
308.305
308.439
308.562
308.666
308.742
308.782
308.782
308.742
308.666
308.562
308.439
308.305
308.168
308.036
307.916
307.828
302.625
302.655
302.695
302.739
302.785
302.83
302.871
302.906
302.931
302.945
302.945
302.931
302.906
302.871
302.83
302.785
302.739
302.695
302.655
302.625
338.675
339.15
339.757
340.417
341.097
341.763
342.378
342.896
343.274
343.473
343.473
343.274
342.896
342.378
341.763
341.097
340.417
339.757
339.15
338.675
333.636
334.039
334.562
335.133
335.721
336.297
336.829
337.277
337.603
337.775
337.775
337.603
337.277
336.829
336.297
335.721
335.133
334.562
334.039
333.636
328.548
328.882
329.322
329.805
330.302
330.789
331.238
331.616
331.891
332.036
332.036
331.891
331.616
331.238
330.789
330.302
329.805
329.322
328.882
328.548
323.418
323.687
324.046
324.44
324.847
325.245
325.611
325.92
326.144
326.263
326.263
326.144
325.92
325.611
325.245
324.847
324.44
324.046
323.687
323.418
318.254
318.461
318.739
319.046
319.361
319.671
319.955
320.195
320.369
320.461
320.461
320.369
320.195
319.955
319.671
319.361
319.046
318.739
318.461
318.254
313.064
313.21
313.408
313.627
313.853
314.074
314.277
314.448
314.572
314.638
314.638
314.572
314.448
314.277
314.074
313.853
313.627
313.408
313.21
313.064
307.855
307.942
308.061
308.192
308.328
308.46
308.582
308.685
308.76
308.799
308.799
308.76
308.685
308.582
308.46
308.328
308.192
308.061
307.942
307.855
302.634
302.663
302.703
302.747
302.793
302.837
302.878
302.912
302.937
302.951
302.951
302.937
302.912
302.878
302.837
302.793
302.747
302.703
302.663
302.634
338.943
339.41
340.007
340.655
341.32
341.972
342.573
343.079
343.446
343.641
343.641
343.446
343.079
342.573
341.972
341.32
340.655
340.007
339.41
338.943
333.869
334.265
334.779
335.34
335.916
336.48
336.999
337.436
337.754
337.922
337.922
337.754
337.436
336.999
336.48
335.916
335.34
334.779
334.265
333.869
328.745
329.074
329.507
329.981
330.468
330.944
331.383
331.752
332.02
332.161
332.161
332.02
331.752
331.383
330.944
330.468
329.981
329.507
329.074
328.745
323.58
323.844
324.197
324.585
324.983
325.372
325.73
326.032
326.25
326.366
326.366
326.25
326.032
325.73
325.372
324.983
324.585
324.197
323.844
323.58
318.38
318.583
318.857
319.158
319.467
319.77
320.048
320.282
320.452
320.542
320.542
320.452
320.282
320.048
319.77
319.467
319.158
318.857
318.583
318.38
313.154
313.298
313.493
313.708
313.929
314.145
314.344
314.511
314.632
314.696
314.696
314.632
314.511
314.344
314.145
313.929
313.708
313.493
313.298
313.154
307.909
307.995
308.112
308.241
308.373
308.503
308.622
308.723
308.795
308.834
308.834
308.795
308.723
308.622
308.503
308.373
308.241
308.112
307.995
307.909
302.652
302.681
302.72
302.764
302.808
302.851
302.891
302.925
302.949
302.962
302.962
302.949
302.925
302.891
302.851
302.808
302.764
302.72
302.681
302.652
339.345
339.802
340.383
341.014
341.66
342.291
342.871
343.358
343.712
343.899
343.899
343.712
343.358
342.871
342.291
341.66
341.014
340.383
339.802
339.345
334.219
334.605
335.107
335.652
336.211
336.757
337.259
337.68
337.986
338.148
338.148
337.986
337.68
337.259
336.757
336.211
335.652
335.107
334.605
334.219
329.042
329.363
329.785
330.246
330.719
331.18
331.604
331.96
332.218
332.354
332.354
332.218
331.96
331.604
331.18
330.719
330.246
329.785
329.363
329.042
323.823
324.081
324.426
324.802
325.189
325.566
325.912
326.202
326.413
326.524
326.524
326.413
326.202
325.912
325.566
325.189
324.802
324.426
324.081
323.823
318.57
318.768
319.035
319.328
319.628
319.921
320.19
320.416
320.58
320.666
320.666
320.58
320.416
320.19
319.921
319.628
319.328
319.035
318.768
318.57
313.29
313.43
313.62
313.829
314.044
314.253
314.445
314.606
314.723
314.785
314.785
314.723
314.606
314.445
314.253
314.044
313.829
313.62
313.43
313.29
307.99
308.074
308.188
308.314
308.443
308.568
308.684
308.78
308.85
308.887
308.887
308.85
308.78
308.684
308.568
308.443
308.314
308.188
308.074
307.99
302.68
302.708
302.746
302.788
302.831
302.873
302.912
302.944
302.968
302.98
302.98
302.968
302.944
302.912
302.873
302.831
302.788
302.746
302.708
302.68
339.884
340.327
340.889
341.497
342.118
342.723
343.277
343.742
344.079
344.256
344.256
344.079
343.742
343.277
342.723
342.118
341.497
340.889
340.327
339.884
334.687
335.062
335.547
336.073
336.61
337.134
337.613
338.015
338.306
338.46
338.46
338.306
338.015
337.613
337.134
336.61
336.073
335.547
335.062
334.687
329.439
329.75
330.159
330.603
331.058
331.5
331.905
332.244
332.49
332.619
332.619
332.49
332.244
331.905
331.5
331.058
330.603
330.159
329.75
329.439
324.149
324.399
324.732
325.095
325.467
325.829
326.159
326.437
326.637
326.743
326.743
326.637
326.437
326.159
325.829
325.467
325.095
324.732
324.399
324.149
318.823
319.016
319.274
319.556
319.845
320.126
320.383
320.599
320.755
320.837
320.837
320.755
320.599
320.383
320.126
319.845
319.556
319.274
319.016
318.823
313.471
313.607
313.791
313.993
314.199
314.4
314.584
314.737
314.848
314.907
314.907
314.848
314.737
314.584
314.4
314.199
313.993
313.791
313.607
313.471
308.1
308.181
308.291
308.412
308.536
308.657
308.767
308.859
308.926
308.961
308.961
308.926
308.859
308.767
308.657
308.536
308.412
308.291
308.181
308.1
302.716
302.743
302.78
302.821
302.863
302.903
302.94
302.971
302.993
303.005
303.005
302.993
302.971
302.94
302.903
302.863
302.821
302.78
302.743
302.716
340.562
340.988
341.527
342.108
342.7
343.275
343.799
344.237
344.555
344.721
344.721
344.555
344.237
343.799
343.275
342.7
342.108
341.527
340.988
340.562
335.276
335.636
336.102
336.605
337.117
337.614
338.068
338.447
338.721
338.865
338.865
338.721
338.447
338.068
337.614
337.117
336.605
336.102
335.636
335.276
329.938
330.238
330.63
331.055
331.488
331.908
332.292
332.612
332.843
332.965
332.965
332.843
332.612
332.292
331.908
331.488
331.055
330.63
330.238
329.938
324.558
324.799
325.118
325.466
325.82
326.164
326.477
326.739
326.928
327.027
327.027
326.928
326.739
326.477
326.164
325.82
325.466
325.118
324.799
324.558
319.142
319.327
319.575
319.845
320.121
320.388
320.631
320.834
320.981
321.058
321.058
320.981
320.834
320.631
320.388
320.121
319.845
319.575
319.327
319.142
313.699
313.83
314.007
314.2
314.396
314.587
314.761
314.906
315.011
315.066
315.066
315.011
314.906
314.761
314.587
314.396
314.2
314.007
313.83
313.699
308.237
308.315
308.421
308.537
308.655
308.769
308.874
308.961
309.024
309.057
309.057
309.024
308.961
308.874
308.769
308.655
308.537
308.421
308.315
308.237
302.762
302.788
302.824
302.863
302.902
302.941
302.976
303.005
303.026
303.037
303.037
303.026
303.005
302.976
302.941
302.902
302.863
302.824
302.788
302.762
341.379
341.786
342.3
342.852
343.411
343.952
344.444
344.853
345.149
345.304
345.304
345.149
344.853
344.444
343.952
343.411
342.852
342.3
341.786
341.379
335.986
336.331
336.774
337.252
337.736
338.204
338.63
338.984
339.239
339.374
339.374
339.239
338.984
338.63
338.204
337.736
337.252
336.774
336.331
335.986
330.541
330.827
331.2
331.604
332.014
332.409
332.769
333.068
333.284
333.397
333.397
333.284
333.068
332.769
332.409
332.014
331.604
331.2
330.827
330.541
325.052
325.282
325.587
325.917
326.252
326.575
326.869
327.114
327.29
327.382
327.382
327.29
327.114
326.869
326.575
326.252
325.917
325.587
325.282
325.052
319.527
319.704
319.94
320.197
320.457
320.709
320.937
321.127
321.264
321.336
321.336
321.264
321.127
320.937
320.709
320.457
320.197
319.94
319.704
319.527
313.975
314.1
314.268
314.451
314.637
314.817
314.98
315.116
315.214
315.265
315.265
315.214
315.116
314.98
314.817
314.637
314.451
314.268
314.1
313.975
308.402
308.477
308.578
308.688
308.799
308.907
309.005
309.087
309.145
309.176
309.176
309.145
309.087
309.005
308.907
308.799
308.688
308.578
308.477
308.402
302.818
302.843
302.877
302.913
302.951
302.987
303.02
303.047
303.067
303.077
303.077
303.067
303.047
303.02
302.987
302.951
302.913
302.877
302.843
302.818
342.339
342.726
343.212
343.732
344.257
344.762
345.219
345.598
345.871
346.014
346.014
345.871
345.598
345.219
344.762
344.257
343.732
343.212
342.726
342.339
336.82
337.148
337.567
338.017
338.472
338.909
339.305
339.633
339.869
339.993
339.993
339.869
339.633
339.305
338.909
338.472
338.017
337.567
337.148
336.82
331.248
331.52
331.874
332.254
332.638
333.008
333.343
333.62
333.82
333.924
333.924
333.82
333.62
333.343
333.008
332.638
332.254
331.874
331.52
331.248
325.632
325.851
326.139
326.45
326.764
327.067
327.34
327.567
327.73
327.815
327.815
327.73
327.567
327.34
327.067
326.764
326.45
326.139
325.851
325.632
319.979
320.147
320.371
320.612
320.857
321.092
321.304
321.481
321.607
321.674
321.674
321.607
321.481
321.304
321.092
320.857
320.612
320.371
320.147
319.979
314.298
314.417
314.576
314.749
314.923
315.091
315.243
315.369
315.459
315.507
315.507
315.459
315.369
315.243
315.091
314.923
314.749
314.576
314.417
314.298
308.596
308.667
308.763
308.867
308.972
309.072
309.164
309.239
309.293
309.322
309.322
309.293
309.239
309.164
309.072
308.972
308.867
308.763
308.667
308.596
302.883
302.907
302.939
302.973
303.009
303.042
303.073
303.098
303.116
303.126
303.126
303.116
303.098
303.073
303.042
303.009
302.973
302.939
302.907
302.883
343.443
343.809
344.266
344.753
345.242
345.71
346.132
346.481
346.731
346.862
346.862
346.731
346.481
346.132
345.71
345.242
344.753
344.266
343.809
343.443
337.78
338.089
338.484
338.906
339.329
339.734
340.1
340.402
340.618
340.731
340.731
340.618
340.402
340.1
339.734
339.329
338.906
338.484
338.089
337.78
332.062
332.319
332.652
333.008
333.366
333.709
334.018
334.273
334.456
334.552
334.552
334.456
334.273
334.018
333.709
333.366
333.008
332.652
332.319
332.062
326.299
326.506
326.777
327.068
327.361
327.642
327.894
328.103
328.253
328.331
328.331
328.253
328.103
327.894
327.642
327.361
327.068
326.777
326.506
326.299
320.499
320.658
320.868
321.095
321.322
321.54
321.737
321.899
322.015
322.076
322.076
322.015
321.899
321.737
321.54
321.322
321.095
320.868
320.658
320.499
314.67
314.782
314.932
315.094
315.257
315.412
315.553
315.669
315.752
315.795
315.795
315.752
315.669
315.553
315.412
315.257
315.094
314.932
314.782
314.67
308.82
308.887
308.977
309.074
309.172
309.266
309.35
309.419
309.469
309.495
309.495
309.469
309.419
309.35
309.266
309.172
309.074
308.977
308.887
308.82
302.958
302.98
303.011
303.043
303.076
303.107
303.135
303.159
303.175
303.184
303.184
303.175
303.159
303.135
303.107
303.076
303.043
303.011
302.98
302.958
344.694
345.038
345.466
345.919
346.372
346.803
347.19
347.509
347.737
347.856
347.856
347.737
347.509
347.19
346.803
346.372
345.919
345.466
345.038
344.694
338.867
339.158
339.527
339.92
340.312
340.686
341.021
341.297
341.494
341.597
341.597
341.494
341.297
341.021
340.686
340.312
339.92
339.527
339.158
338.867
332.985
333.226
333.537
333.869
334.201
334.517
334.8
335.033
335.2
335.287
335.287
335.2
335.033
334.8
334.517
334.201
333.869
333.537
333.226
332.985
327.055
327.25
327.503
327.775
328.046
328.305
328.536
328.727
328.863
328.934
328.934
328.863
328.727
328.536
328.305
328.046
327.775
327.503
327.25
327.055
321.088
321.237
321.434
321.645
321.856
322.057
322.237
322.386
322.492
322.547
322.547
322.492
322.386
322.237
322.057
321.856
321.645
321.434
321.237
321.088
315.091
315.197
315.337
315.488
315.639
315.782
315.911
316.017
316.093
316.132
316.132
316.093
316.017
315.911
315.782
315.639
315.488
315.337
315.197
315.091
309.073
309.136
309.221
309.311
309.402
309.488
309.565
309.629
309.674
309.698
309.698
309.674
309.629
309.565
309.488
309.402
309.311
309.221
309.136
309.073
303.043
303.064
303.092
303.123
303.153
303.182
303.208
303.229
303.244
303.252
303.252
303.244
303.229
303.208
303.182
303.153
303.123
303.092
303.064
303.043
346.095
346.416
346.814
347.234
347.651
348.047
348.399
348.689
348.895
349.002
349.002
348.895
348.689
348.399
348.047
347.651
347.234
346.814
346.416
346.095
340.084
340.356
340.7
341.063
341.425
341.767
342.073
342.324
342.502
342.595
342.595
342.502
342.324
342.073
341.767
341.425
341.063
340.7
340.356
340.084
334.017
334.242
334.532
334.839
335.145
335.435
335.694
335.906
336.056
336.135
336.135
336.056
335.906
335.694
335.435
335.145
334.839
334.532
334.242
334.017
327.902
328.083
328.319
328.571
328.821
329.058
329.27
329.443
329.566
329.631
329.631
329.566
329.443
329.27
329.058
328.821
328.571
328.319
328.083
327.902
321.747
321.887
322.07
322.266
322.46
322.645
322.809
322.944
323.04
323.09
323.09
323.04
322.944
322.809
322.645
322.46
322.266
322.07
321.887
321.747
315.563
315.662
315.792
315.932
316.071
316.203
316.32
316.417
316.485
316.521
316.521
316.485
316.417
316.32
316.203
316.071
315.932
315.792
315.662
315.563
309.357
309.416
309.494
309.578
309.662
309.741
309.811
309.869
309.91
309.932
309.932
309.91
309.869
309.811
309.741
309.662
309.578
309.494
309.416
309.357
303.138
303.158
303.184
303.212
303.24
303.267
303.29
303.31
303.323
303.331
303.331
303.323
303.31
303.29
303.267
303.24
303.212
303.184
303.158
303.138
347.646
347.945
348.314
348.701
349.084
349.444
349.765
350.026
350.212
350.309
350.309
350.212
350.026
349.765
349.444
349.084
348.701
348.314
347.945
347.646
341.432
341.685
342.004
342.339
342.671
342.983
343.261
343.487
343.648
343.732
343.732
343.648
343.487
343.261
342.983
342.671
342.339
342.004
341.685
341.432
335.16
335.37
335.639
335.922
336.203
336.467
336.702
336.893
337.03
337.1
337.1
337.03
336.893
336.702
336.467
336.203
335.922
335.639
335.37
335.16
328.839
329.008
329.227
329.459
329.688
329.905
330.097
330.254
330.365
330.423
330.423
330.365
330.254
330.097
329.905
329.688
329.459
329.227
329.008
328.839
322.478
322.607
322.777
322.958
323.136
323.305
323.454
323.576
323.663
323.707
323.707
323.663
323.576
323.454
323.305
323.136
322.958
322.777
322.607
322.478
316.086
316.177
316.298
316.427
316.555
316.675
316.782
316.869
316.931
316.963
316.963
316.931
316.869
316.782
316.675
316.555
316.427
316.298
316.177
316.086
309.671
309.726
309.799
309.876
309.953
310.025
310.089
310.141
310.178
310.198
310.198
310.178
310.141
310.089
310.025
309.953
309.876
309.799
309.726
309.671
303.243
303.262
303.286
303.312
303.338
303.362
303.383
303.401
303.413
303.42
303.42
303.413
303.401
303.383
303.362
303.338
303.312
303.286
303.262
303.243
349.349
349.626
349.967
350.323
350.672
351
351.29
351.525
351.692
351.778
351.778
351.692
351.525
351.29
351
350.672
350.323
349.967
349.626
349.349
342.912
343.147
343.441
343.749
344.052
344.336
344.587
344.791
344.935
345.01
345.01
344.935
344.791
344.587
344.336
344.052
343.749
343.441
343.147
342.912
336.415
336.61
336.858
337.118
337.375
337.615
337.827
338
338.122
338.186
338.186
338.122
338
337.827
337.615
337.375
337.118
336.858
336.61
336.415
329.868
330.025
330.227
330.44
330.65
330.846
331.02
331.162
331.262
331.313
331.313
331.262
331.162
331.02
330.846
330.65
330.44
330.227
330.025
329.868
323.279
323.4
323.557
323.722
323.886
324.039
324.174
324.284
324.362
324.402
324.402
324.362
324.284
324.174
324.039
323.886
323.722
323.557
323.4
323.279
316.659
316.744
316.856
316.974
317.091
317.2
317.297
317.376
317.431
317.46
317.46
317.431
317.376
317.297
317.2
317.091
316.974
316.856
316.744
316.659
310.016
310.067
310.134
310.205
310.275
310.341
310.399
310.446
310.479
310.497
310.497
310.479
310.446
310.399
310.341
310.275
310.205
310.134
310.067
310.016
303.359
303.376
303.398
303.422
303.446
303.468
303.487
303.503
303.514
303.52
303.52
303.514
303.503
303.487
303.468
303.446
303.422
303.398
303.376
303.359
351.203
351.46
351.774
352.1
352.418
352.715
352.976
353.187
353.337
353.414
353.414
353.337
353.187
352.976
352.715
352.418
352.1
351.774
351.46
351.203
344.523
344.741
345.012
345.294
345.57
345.827
346.053
346.237
346.366
346.433
346.433
346.366
346.237
346.053
345.827
345.57
345.294
345.012
344.741
344.523
337.782
337.962
338.19
338.429
338.662
338.88
339.072
339.227
339.336
339.393
339.393
339.336
339.227
339.072
338.88
338.662
338.429
338.19
337.962
337.782
330.988
331.133
331.319
331.515
331.706
331.884
332.041
332.168
332.257
332.304
332.304
332.257
332.168
332.041
331.884
331.706
331.515
331.319
331.133
330.988
324.152
324.264
324.408
324.56
324.708
324.847
324.969
325.068
325.138
325.174
325.174
325.138
325.068
324.969
324.847
324.708
324.56
324.408
324.264
324.152
317.283
317.362
317.465
317.574
317.68
317.779
317.866
317.937
317.987
318.012
318.012
317.987
317.937
317.866
317.779
317.68
317.574
317.465
317.362
317.283
310.391
310.438
310.5
310.565
310.629
310.688
310.741
310.783
310.813
310.829
310.829
310.813
310.783
310.741
310.688
310.629
310.565
310.5
310.438
310.391
303.485
303.501
303.521
303.543
303.564
303.584
303.602
303.616
303.626
303.631
303.631
303.626
303.616
303.602
303.584
303.564
303.543
303.521
303.501
303.485
353.208
353.444
353.733
354.03
354.319
354.587
354.822
355.012
355.145
355.214
355.214
355.145
355.012
354.822
354.587
354.319
354.03
353.733
353.444
353.208
346.264
346.465
346.713
346.971
347.222
347.454
347.658
347.822
347.938
347.997
347.997
347.938
347.822
347.658
347.454
347.222
346.971
346.713
346.465
346.264
339.258
339.424
339.633
339.851
340.064
340.26
340.433
340.572
340.67
340.72
340.72
340.67
340.572
340.433
340.26
340.064
339.851
339.633
339.424
339.258
332.198
332.331
332.502
332.681
332.854
333.015
333.157
333.27
333.35
333.392
333.392
333.35
333.27
333.157
333.015
332.854
332.681
332.502
332.331
332.198
325.094
325.197
325.33
325.468
325.603
325.729
325.839
325.927
325.989
326.022
326.022
325.989
325.927
325.839
325.729
325.603
325.468
325.33
325.197
325.094
317.957
318.03
318.124
318.223
318.32
318.41
318.488
318.551
318.596
318.619
318.619
318.596
318.551
318.488
318.41
318.32
318.223
318.124
318.03
317.957
310.796
310.839
310.896
310.956
311.014
311.068
311.115
311.153
311.179
311.193
311.193
311.179
311.153
311.115
311.068
311.014
310.956
310.896
310.839
310.796
303.621
303.635
303.654
303.674
303.693
303.712
303.727
303.74
303.749
303.754
303.754
303.749
303.74
303.727
303.712
303.693
303.674
303.654
303.635
303.621
355.352
355.57
355.835
356.106
356.368
356.61
356.821
356.99
357.109
357.171
357.171
357.109
356.99
356.821
356.61
356.368
356.106
355.835
355.57
355.352
348.126
348.31
348.538
348.773
349
349.21
349.393
349.54
349.643
349.697
349.697
349.643
349.54
349.393
349.21
349
348.773
348.538
348.31
348.126
340.835
340.987
341.18
341.378
341.571
341.748
341.903
342.028
342.115
342.16
342.16
342.115
342.028
341.903
341.748
341.571
341.378
341.18
340.987
340.835
333.489
333.612
333.769
333.931
334.089
334.235
334.361
334.463
334.535
334.572
334.572
334.535
334.463
334.361
334.235
334.089
333.931
333.769
333.612
333.489
326.1
326.194
326.316
326.442
326.565
326.678
326.777
326.856
326.912
326.94
326.94
326.912
326.856
326.777
326.678
326.565
326.442
326.316
326.194
326.1
318.676
318.743
318.83
318.92
319.008
319.088
319.159
319.216
319.256
319.276
319.276
319.256
319.216
319.159
319.088
319.008
318.92
318.83
318.743
318.676
311.228
311.268
311.32
311.374
311.427
311.475
311.518
311.552
311.576
311.588
311.588
311.576
311.552
311.518
311.475
311.427
311.374
311.32
311.268
311.228
303.765
303.779
303.796
303.814
303.832
303.848
303.863
303.874
303.882
303.886
303.886
303.882
303.874
303.863
303.848
303.832
303.814
303.796
303.779
303.765
357.614
357.814
358.056
358.303
358.54
358.759
358.948
359.1
359.206
359.261
359.261
359.206
359.1
358.948
358.759
358.54
358.303
358.056
357.814
357.614
350.085
350.254
350.463
350.677
350.883
351.072
351.237
351.368
351.461
351.508
351.508
351.461
351.368
351.237
351.072
350.883
350.677
350.463
350.254
350.085
342.491
342.632
342.808
342.989
343.163
343.324
343.463
343.575
343.653
343.693
343.693
343.653
343.575
343.463
343.324
343.163
342.989
342.808
342.632
342.491
334.844
334.957
335.101
335.249
335.392
335.523
335.637
335.728
335.792
335.825
335.825
335.792
335.728
335.637
335.523
335.392
335.249
335.101
334.957
334.844
327.153
327.24
327.351
327.467
327.578
327.68
327.769
327.84
327.89
327.915
327.915
327.89
327.84
327.769
327.68
327.578
327.467
327.351
327.24
327.153
319.429
319.49
319.569
319.652
319.731
319.804
319.868
319.919
319.954
319.972
319.972
319.954
319.919
319.868
319.804
319.731
319.652
319.569
319.49
319.429
311.68
311.716
311.764
311.814
311.861
311.905
311.943
311.974
311.995
312.006
312.006
311.995
311.974
311.943
311.905
311.861
311.814
311.764
311.716
311.68
303.917
303.929
303.945
303.962
303.978
303.992
304.005
304.015
304.023
304.026
304.026
304.023
304.015
304.005
303.992
303.978
303.962
303.945
303.929
303.917
359.931
360.115
360.337
360.562
360.778
360.975
361.146
361.282
361.377
361.426
361.426
361.377
361.282
361.146
360.975
360.778
360.562
360.337
360.115
359.931
352.083
352.239
352.43
352.625
352.813
352.984
353.132
353.25
353.333
353.375
353.375
353.333
353.25
353.132
352.984
352.813
352.625
352.43
352.239
352.083
344.174
344.303
344.465
344.63
344.789
344.934
345.06
345.16
345.23
345.266
345.266
345.23
345.16
345.06
344.934
344.789
344.63
344.465
344.303
344.174
336.215
336.319
336.451
336.586
336.716
336.835
336.938
337.02
337.078
337.107
337.107
337.078
337.02
336.938
336.835
336.716
336.586
336.451
336.319
336.215
328.216
328.296
328.398
328.504
328.605
328.697
328.778
328.841
328.886
328.909
328.909
328.886
328.841
328.778
328.697
328.605
328.504
328.398
328.296
328.216
320.186
320.243
320.315
320.391
320.463
320.529
320.587
320.632
320.664
320.681
320.681
320.664
320.632
320.587
320.529
320.463
320.391
320.315
320.243
320.186
312.134
312.168
312.212
312.257
312.3
312.34
312.374
312.402
312.421
312.431
312.431
312.421
312.402
312.374
312.34
312.3
312.257
312.212
312.168
312.134
304.069
304.08
304.095
304.11
304.125
304.138
304.15
304.159
304.165
304.168
304.168
304.165
304.159
304.15
304.138
304.125
304.11
304.095
304.08
304.069
362.153
362.323
362.527
362.734
362.932
363.112
363.267
363.39
363.476
363.52
363.52
363.476
363.39
363.267
363.112
362.932
362.734
362.527
362.323
362.153
353.975
354.119
354.296
354.476
354.647
354.804
354.938
355.046
355.12
355.159
355.159
355.12
355.046
354.938
354.804
354.647
354.476
354.296
354.119
353.975
345.751
345.87
346.02
346.172
346.317
346.45
346.564
346.655
346.719
346.751
346.751
346.719
346.655
346.564
346.45
346.317
346.172
346.02
345.87
345.751
337.488
337.585
337.706
337.831
337.951
338.059
338.153
338.228
338.28
338.306
338.306
338.28
338.228
338.153
338.059
337.951
337.831
337.706
337.585
337.488
329.196
329.27
329.364
329.462
329.555
329.639
329.712
329.771
329.811
329.832
329.832
329.811
329.771
329.712
329.639
329.555
329.462
329.364
329.27
329.196
320.88
320.933
321
321.07
321.136
321.197
321.249
321.291
321.32
321.335
321.335
321.32
321.291
321.249
321.197
321.136
321.07
321
320.933
320.88
312.549
312.58
312.62
312.662
312.702
312.739
312.77
312.795
312.813
312.822
312.822
312.813
312.795
312.77
312.739
312.702
312.662
312.62
312.58
312.549
304.208
304.218
304.232
304.246
304.259
304.271
304.282
304.29
304.296
304.299
304.299
304.296
304.29
304.282
304.271
304.259
304.246
304.232
304.218
304.208
363.886
364.046
364.238
364.433
364.617
364.785
364.929
365.044
365.123
365.164
365.164
365.123
365.044
364.929
364.785
364.617
364.433
364.238
364.046
363.886
355.396
355.532
355.698
355.868
356.029
356.175
356.301
356.401
356.47
356.506
356.506
356.47
356.401
356.301
356.175
356.029
355.868
355.698
355.532
355.396
346.898
347.011
347.152
347.296
347.433
347.557
347.664
347.749
347.809
347.839
347.839
347.809
347.749
347.664
347.557
347.433
347.296
347.152
347.011
346.898
338.392
338.484
338.599
338.717
338.829
338.932
339.02
339.09
339.138
339.163
339.163
339.138
339.09
339.02
338.932
338.829
338.717
338.599
338.484
338.392
329.878
329.949
330.038
330.13
330.218
330.298
330.367
330.421
330.459
330.479
330.479
330.459
330.421
330.367
330.298
330.218
330.13
330.038
329.949
329.878
321.357
321.407
321.471
321.537
321.6
321.657
321.707
321.746
321.773
321.787
321.787
321.773
321.746
321.707
321.657
321.6
321.537
321.471
321.407
321.357
312.831
312.861
312.899
312.939
312.977
313.011
313.041
313.064
313.081
313.089
313.089
313.081
313.064
313.041
313.011
312.977
312.939
312.899
312.861
312.831
304.302
304.312
304.324
304.338
304.35
304.362
304.372
304.38
304.385
304.388
304.388
304.385
304.38
304.372
304.362
304.35
304.338
304.324
304.312
304.302
)
;

boundaryField
{
    hotSide
    {
        type            fixedGradient;
        gradient        nonuniform List<scalar> 
400
(
397.123
398.512
401.293
405.477
411.079
418.116
426.609
436.579
448.05
461.045
475.585
491.693
509.387
528.684
549.6
572.148
596.338
622.179
649.679
678.842
403.427
404.765
407.448
411.49
416.909
423.729
431.977
441.682
452.872
465.579
479.828
495.647
513.058
532.082
552.736
575.036
598.992
624.615
651.911
680.886
410.248
411.527
414.093
417.965
423.169
429.733
437.695
447.091
457.959
470.335
484.254
499.747
516.843
535.565
555.932
577.962
601.667
627.056
654.137
682.914
417.474
418.684
421.115
424.791
429.744
436.016
443.652
452.698
463.203
475.211
488.765
503.902
520.655
539.052
559.114
580.858
604.299
629.446
656.305
684.88
424.904
426.035
428.314
431.77
436.446
442.394
449.67
458.334
468.445
480.058
493.223
507.984
524.379
542.438
562.185
583.639
606.813
631.716
658.353
686.728
432.227
433.275
435.391
438.613
442.994
448.6
455.5
463.767
473.471
484.679
497.449
511.832
527.868
545.593
565.031
586.202
609.118
633.788
660.215
688.4
439.025
439.989
441.943
444.932
449.022
454.29
460.822
468.703
478.015
488.836
501.231
515.256
530.958
548.373
567.527
588.439
611.121
635.58
661.818
689.835
444.794
445.683
447.49
450.27
454.1
459.068
465.274
472.815
481.784
492.268
504.339
518.058
533.475
550.628
569.542
590.238
612.725
637.01
663.094
690.972
449.016
449.847
451.543
454.163
457.794
462.535
468.494
475.78
484.493
494.726
506.557
520.051
535.259
552.22
570.962
591.501
613.849
638.009
663.982
691.763
451.253
452.053
453.688
456.221
459.744
464.362
470.188
477.336
485.912
496.01
507.714
521.088
536.185
553.046
571.695
592.153
614.427
638.523
664.438
692.168
451.253
452.053
453.688
456.221
459.744
464.362
470.188
477.336
485.912
496.01
507.714
521.088
536.185
553.046
571.695
592.153
614.427
638.523
664.438
692.168
449.016
449.847
451.543
454.163
457.794
462.535
468.494
475.78
484.493
494.726
506.557
520.051
535.259
552.22
570.962
591.501
613.849
638.009
663.982
691.763
444.794
445.683
447.49
450.27
454.1
459.068
465.274
472.815
481.784
492.268
504.339
518.058
533.475
550.628
569.542
590.238
612.725
637.01
663.094
690.972
439.025
439.989
441.943
444.932
449.022
454.29
460.822
468.703
478.015
488.836
501.231
515.256
530.958
548.373
567.527
588.439
611.121
635.58
661.818
689.835
432.227
433.275
435.391
438.613
442.994
448.6
455.5
463.767
473.471
484.679
497.449
511.832
527.868
545.593
565.031
586.202
609.118
633.788
660.215
688.4
424.904
426.035
428.314
431.77
436.446
442.394
449.67
458.334
468.445
480.058
493.223
507.984
524.379
542.438
562.185
583.639
606.813
631.716
658.353
686.728
417.474
418.684
421.115
424.791
429.744
436.016
443.652
452.698
463.203
475.211
488.765
503.902
520.655
539.052
559.114
580.858
604.299
629.446
656.305
684.88
410.248
411.527
414.093
417.965
423.169
429.733
437.695
447.091
457.959
470.335
484.254
499.747
516.843
535.565
555.932
577.962
601.667
627.056
654.137
682.914
403.427
404.765
407.448
411.49
416.909
423.729
431.977
441.682
452.872
465.579
479.828
495.647
513.058
532.082
552.736
575.036
598.992
624.615
651.911
680.886
397.123
398.512
401.293
405.477
411.079
418.116
426.609
436.579
448.05
461.045
475.585
491.693
509.387
528.684
549.6
572.148
596.338
622.179
649.679
678.842
)
;
    }
    coldSide
    {
        type            mixed;
        refValue        uniform 300;
        refGradient     uniform 0;
        valueFraction   uniform 0.991591;
        source          uniform 0;
        value           nonuniform List<scalar> 
400
(
300.022
300.022
300.022
300.023
300.023
300.023
300.024
300.024
300.025
300.026
300.026
300.027
300.028
300.029
300.03
300.032
300.033
300.034
300.035
300.036
300.022
300.022
300.023
300.023
300.023
300.023
300.024
300.024
300.025
300.026
300.027
300.027
300.028
300.029
300.031
300.032
300.033
300.034
300.035
300.036
300.023
300.023
300.023
300.023
300.023