/*--------------------------------*- C++ -*----------------------------------*\
| =========                 |                                                 |
| \\      /  F ield         | OpenFOAM: The Open Source CFD Toolbox           |
|  \\    /   O peration     | Version:  2212                                  |
|   \\  /    A nd           | Website:  www.openfoam.com                      |
|    \\/     M anipulation  |                                                 |
\*---------------------------------------------------------------------------*/
FoamFile
{
    version     2.0;
    format      ascii;
    arch        "LSB;label=32;scalar=64";
    class       volScalarField;
    location    "0";
    object      T;
}
// * * * * * * * * * * * * * * * * * * * * * * * * * * * * * * * * * * * * * //

dimensions      [0 0 0 1 0 0 0];

internalField   nonuniform List<scalar> 
3200
(
338.904
337.661
336.553
336.198
336.198
336.652
337.151
337.775
338.281
338.647
338.693
338.376
338.02
337.377
336.962
336.352
336.054
336.542
337.478
338.643
334.11
333.032
332.086
331.792
331.74
332.158
332.591
333.117
333.55
333.897
333.923
333.631
333.319
332.771
332.424
331.871
331.661
332.099
332.914
333.874
329.137
328.239
327.449
327.186
327.122
327.514
327.866
328.287
328.632
328.951
328.972
328.717
328.467
327.999
327.723
327.225
327.097
327.462
328.165
328.925
324.026
323.276
322.664
322.436
322.348
322.723
323.004
323.303
323.611
323.858
323.879
323.672
323.46
323.092
322.885
322.432
322.387
322.678
323.244
323.832
318.799
318.19
317.759
317.587
317.493
317.809
318.049
318.215
318.463
318.656
318.679
318.514
318.347
318.074
317.926
317.537
317.556
317.772
318.205
318.639
313.485
313.045
312.759
312.622
312.545
312.781
312.966
313.058
313.247
313.396
313.414
313.306
313.193
312.993
312.86
312.582
312.615
312.787
313.062
313.372
308.129
307.869
307.693
307.6
307.555
307.696
307.813
307.847
307.976
308.053
308.075
308.035
307.969
307.814
307.751
307.579
307.608
307.721
307.867
308.054
302.726
302.634
302.583
302.548
302.535
302.591
302.625
302.63
302.674
302.703
302.724
302.71
302.682
302.633
302.602
302.551
302.551
302.585
302.644
302.705
339.298
337.878
336.879
336.638
336.678
337.256
337.832
338.311
338.86
339.251
339.435
339.138
338.732
338.127
337.418
336.917
336.655
336.937
337.794
339.055
334.441
333.231
332.365
332.164
332.17
332.644
333.14
333.553
334.026
334.375
334.54
334.26
333.907
333.407
332.797
332.346
332.133
332.424
333.162
334.23
329.398
328.413
327.683
327.502
327.496
327.879
328.289
328.627
329.028
329.328
329.458
329.234
328.916
328.52
328.017
327.622
327.44
327.729
328.348
329.21
324.227
323.445
322.864
322.682
322.665
322.995
323.32
323.578
323.904
324.145
324.247
324.067
323.801
323.49
323.135
322.791
322.634
322.877
323.408
324.057
318.966
318.355
317.908
317.749
317.748
318.005
318.227
318.435
318.681
318.889
318.947
318.811
318.602
318.387
318.112
317.849
317.744
317.918
318.336
318.803
313.608
313.171
312.851
312.742
312.748
312.934
313.067
313.21
313.391
313.541
313.589
313.511
313.346
313.197
313.005
312.819
312.738
312.883
313.174
313.503
308.184
307.918
307.745
307.679
307.676
307.795
307.852
307.948
308.066
308.167
308.183
308.134
308.041
307.947
307.831
307.72
307.681
307.764
307.93
308.142
302.749
302.656
302.598
302.586
302.572
302.615
302.632
302.672
302.719
302.746
302.753
302.74
302.692
302.672
302.63
302.586
302.579
302.6
302.652
302.741
340.069
338.657
337.69
337.31
337.52
338.078
338.675
339.351
339.923
340.247
340.464
340.302
339.751
339.058
338.356
337.894
337.557
337.681
338.495
339.72
335.119
333.925
333.066
332.748
332.899
333.355
333.846
334.458
334.942
335.212
335.411
335.262
334.799
334.18
333.566
333.209
332.928
333.035
333.777
334.8
330.018
329.011
328.248
327.988
328.1
328.46
328.875
329.407
329.798
330.043
330.222
330.053
329.693
329.169
328.63
328.349
328.136
328.226
328.862
329.71
324.741
323.935
323.287
323.078
323.146
323.416
323.778
324.239
324.526
324.736
324.909
324.73
324.44
324.031
323.59
323.36
323.196
323.274
323.78
324.475
319.345
318.741
318.217
318.052
318.085
318.299
318.603
318.966
319.165
319.354
319.479
319.316
319.086
318.801
318.46
318.267
318.16
318.22
318.593
319.139
313.873
313.456
313.064
312.943
312.966
313.111
313.345
313.622
313.732
313.891
313.968
313.843
313.66
313.522
313.254
313.085
313.037
313.094
313.331
313.736
308.337
308.122
307.874
307.812
307.802
307.895
308.026
308.221
308.265
308.372
308.422
308.312
308.21
308.15
307.998
307.872
307.855
307.896
308.04
308.268
302.797
302.734
302.644
302.613
302.613
302.646
302.685
302.766
302.782
302.806
302.82
302.792
302.755
302.733
302.686
302.638
302.642
302.649
302.7
302.77
341.069
339.698
338.708
338.353
338.528
339.048
339.803
340.414
341.063
341.525
341.742
341.486
341.149
340.338
339.582
339.019
338.724
338.736
339.563
340.583
335.977
334.818
333.938
333.608
333.759
334.19
334.856
335.368
335.934
336.313
336.498
336.27
335.979
335.277
334.642
334.154
333.923
333.933
334.673
335.529
330.716
329.737
328.994
328.689
328.839
329.2
329.727
330.186
330.661
330.97
331.115
330.916
330.65
330.081
329.54
329.144
328.974
328.99
329.586
330.3
325.305
324.522
323.91
323.667
323.779
324.059
324.479
324.86
325.265
325.512
325.625
325.432
325.219
324.76
324.317
324.001
323.887
323.894
324.352
324.948
319.783
319.205
318.72
318.544
318.592
318.811
319.139
319.447
319.757
319.947
320.01
319.877
319.693
319.368
319.001
318.773
318.698
318.681
319.037
319.496
314.172
313.796
313.437
313.323
313.346
313.495
313.732
313.954
314.178
314.308
314.346
314.265
314.122
313.903
313.615
313.462
313.401
313.417
313.654
313.975
308.518
308.33
308.093
308.046
308.037
308.138
308.272
308.407
308.539
308.612
308.632
308.595
308.508
308.386
308.207
308.097
308.065
308.094
308.213
308.414
302.852
302.808
302.718
302.695
302.701
302.73
302.777
302.835
302.862
302.893
302.899
302.885
302.85
302.811
302.76
302.711
302.707
302.721
302.754
302.826
342.253
341.03
340.058
339.787
339.916
340.398
341.109
341.816
342.599
342.98
343.208
343.033
342.617
341.733
341.005
340.472
340.045
340.156
340.832
341.81
336.999
335.94
335.095
334.855
334.949
335.347
335.96
336.558
337.263
337.574
337.772
337.609
337.263
336.503
335.88
335.417
335.073
335.193
335.752
336.579
331.599
330.675
329.953
329.76
329.847
330.162
330.671
331.148
331.763
332.004
332.192
332.022
331.736
331.096
330.633
330.194
329.932
330.059
330.515
331.207
326.053
325.28
324.653
324.523
324.583
324.861
325.25
325.62
326.141
326.326
326.499
326.337
326.113
325.604
325.255
324.862
324.66
324.772
325.147
325.692
320.39
319.784
319.277
319.181
319.212
319.462
319.726
320.014
320.442
320.571
320.721
320.561
320.412
320.027
319.763
319.436
319.264
319.368
319.674
320.074
314.629
314.2
313.816
313.753
313.779
313.976
314.142
314.343
314.668
314.749
314.859
314.738
314.635
314.352
314.2
313.92
313.84
313.875
314.093
314.408
308.809
308.546
308.312
308.266
308.297
308.42
308.521
308.625
308.85
308.888
308.943
308.872
308.825
308.65
308.548
308.366
308.336
308.353
308.487
308.677
302.952
302.871
302.797
302.774
302.785
302.824
302.86
302.901
302.978
302.978
303.005
302.981
302.963
302.915
302.868
302.8
302.807
302.801
302.848
302.905
343.745
342.585
341.609
341.174
341.413
341.915
342.641
343.403
344.222
344.581
344.796
344.619
344.274
343.417
342.619
342.025
341.74
341.647
342.477
343.366
338.276
337.269
336.46
336.055
336.257
336.68
337.301
337.95
338.637
338.956
339.112
338.991
338.701
337.953
337.289
336.796
336.539
336.482
337.204
337.972
332.663
331.796
331.13
330.776
330.94
331.288
331.797
332.337
332.906
333.177
333.308
333.222
332.969
332.348
331.779
331.388
331.181
331.15
331.76
332.403
326.898
326.171
325.658
325.357
325.477
325.772
326.175
326.591
327.07
327.296
327.378
327.309
327.119
326.639
326.173
325.843
325.673
325.656
326.157
326.698
321.04
320.443
320.06
319.81
319.909
320.149
320.434
320.76
321.147
321.343
321.374
321.329
321.198
320.83
320.466
320.182
320.055
320.066
320.446
320.873
315.093
314.667
314.385
314.188
314.278
314.44
314.65
314.88
315.173
315.301
315.318
315.288
315.193
314.934
314.684
314.468
314.38
314.406
314.66
314.98
309.097
308.838
308.649
308.538
308.581
308.697
308.824
308.957
309.154
309.217
309.23
309.205
309.149
308.998
308.824
308.708
308.647
308.666
308.822
309.015
303.044
302.968
302.898
302.868
302.877
302.924
302.963
303.003
303.077
303.09
303.095
303.092
303.065
303.018
302.958
302.921
302.892
302.906
302.957
303.03
345.382
344.327
343.319
343.028
343.173
343.598
344.387
345.014
345.753
346.164
346.379
346.417
345.978
345.071
344.335
343.785
343.365
343.45
344.058
345.026
339.713
338.827
337.916
337.656
337.77
338.146
338.806
339.337
339.984
340.324
340.486
340.513
340.185
339.378
338.745
338.29
337.967
338.043
338.57
339.384
333.883
333.145
332.347
332.128
332.203
332.528
333.051
333.522
334.047
334.335
334.487
334.466
334.256
333.575
333.02
332.622
332.403
332.45
332.928
333.594
327.902
327.285
326.659
326.469
326.504
326.786
327.187
327.59
328.011
328.237
328.366
328.33
328.191
327.629
327.178
326.83
326.695
326.728
327.139
327.68
321.827
321.326
320.848
320.709
320.705
320.931
321.245
321.554
321.868
322.048
322.145
322.13
322.04
321.594
321.227
320.981
320.871
320.887
321.209
321.629
315.647
315.293
314.971
314.849
314.846
315.007
315.222
315.444
315.664
315.803
315.869
315.849
315.797
315.476
315.218
315.054
314.963
314.989
315.223
315.511
309.419
309.216
309.028
308.936
308.935
309.039
309.153
309.3
309.43
309.502
309.559
309.539
309.514
309.321
309.133
309.054
309.01
309.036
309.17
309.345
303.153
303.091
303.021
303.001
303.005
303.039
303.077
303.114
303.17
303.186
303.21
303.197
303.189
303.122
303.056
303.03
303.028
303.028
303.077
303.145
347.154
346.221
345.282
344.898
344.981
345.394
345.997
346.7
347.391
348.007
348.104
348.089
347.735
346.855
346.144
345.582
345.316
345.394
345.976
346.841
341.244
340.472
339.662
339.28
339.318
339.706
340.205
340.802
341.396
341.907
342.002
342.003
341.694
340.933
340.309
339.845
339.664
339.721
340.214
340.951
335.158
334.527
333.837
333.504
333.505
333.829
334.277
334.754
335.264
335.69
335.76
335.767
335.485
334.852
334.325
333.943
333.822
333.872
334.274
334.908
328.952
328.446
327.853
327.598
327.554
327.841
328.213
328.598
329.024
329.351
329.415
329.416
329.166
328.647
328.231
327.923
327.858
327.876
328.198
328.736
322.625
322.265
321.777
321.593
321.513
321.746
322.035
322.357
322.683
322.913
322.972
322.976
322.766
322.374
322.054
321.803
321.765
321.775
322.018
322.462
316.2
315.978
315.609
315.493
315.396
315.558
315.777
316.045
316.26
316.411
316.461
316.458
316.318
316.036
315.817
315.627
315.613
315.627
315.778
316.096
309.735
309.63
309.387
309.346
309.266
309.378
309.477
309.677
309.782
309.867
309.916
309.899
309.836
309.647
309.532
309.395
309.404
309.405
309.488
309.692
303.265
303.23
303.154
303.138
303.113
303.148
303.176
303.261
303.283
303.303
303.321
303.315
303.303
303.236
303.199
303.154
303.157
303.167
303.176
303.251
348.963
348.128
347.305
346.875
346.943
347.381
347.874
348.452
349.252
349.728
349.908
349.955
349.363
348.693
348.13
347.393
347.184
347.31
347.808
348.64
342.802
342.131
341.39
341.003
341.041
341.415
341.845
342.316
342.987
343.394
343.561
343.619
343.089
342.519
342.068
341.406
341.251
341.395
341.815
342.529
336.503
335.966
335.29
334.953
334.983
335.298
335.647
336.034
336.592
336.932
337.056
337.135
336.697
336.198
335.831
335.273
335.165
335.3
335.663
336.26
330.079
329.641
329.055
328.773
328.808
329.04
329.327
329.633
330.1
330.336
330.454
330.55
330.186
329.757
329.464
329.019
328.928
329.083
329.381
329.837
323.528
323.183
322.701
322.497
322.51
322.692
322.886
323.133
323.514
323.691
323.777
323.866
323.594
323.245
323.023
322.666
322.594
322.746
322.965
323.322
316.868
316.632
316.273
316.16
316.124
316.27
316.393
316.575
316.847
316.97
317.049
317.097
316.91
316.649
316.486
316.231
316.197
316.303
316.458
316.728
310.159
310.024
309.792
309.732
309.7
309.792
309.865
309.989
310.138
310.199
310.265
310.312
310.18
310.012
309.9
309.767
309.74
309.811
309.921
310.072
303.412
303.371
303.291
303.267
303.255
303.282
303.304
303.355
303.397
303.429
303.441
303.465
303.412
303.364
303.322
303.283
303.275
303.292
303.337
303.375
351.097
350.255
349.283
348.823
348.972
349.361
349.78
350.316
351.031
351.542
351.776
351.673
351.133
350.583
349.985
349.411
349.192
349.244
349.81
350.648
344.674
343.973
343.125
342.707
342.815
343.14
343.502
343.924
344.553
344.973
345.154
345.071
344.627
344.156
343.653
343.167
343.005
343.032
343.564
344.257
338.08
337.5
336.79
336.399
336.479
336.757
337.047
337.366
337.923
338.259
338.408
338.35
337.976
337.612
337.177
336.772
336.638
336.661
337.134
337.697
331.352
330.881
330.303
329.947
330.011
330.238
330.47
330.703
331.178
331.42
331.562
331.547
331.203
330.941
330.595
330.241
330.154
330.172
330.554
331.002
324.494
324.154
323.699
323.394
323.447
323.641
323.792
323.982
324.339
324.526
324.653
324.638
324.356
324.153
323.92
323.621
323.555
323.56
323.877
324.203
317.571
317.334
316.984
316.798
316.817
316.96
317.048
317.187
317.433
317.57
317.682
317.671
317.441
317.309
317.152
316.925
316.878
316.888
317.118
317.344
310.587
310.425
310.213
310.117
310.125
310.204
310.246
310.352
310.5
310.561
310.658
310.631
310.489
310.401
310.306
310.186
310.144
310.172
310.293
310.433
303.559
303.487
303.426
303.396
303.383
303.427
303.433
303.465
303.527
303.534
303.575
303.573
303.511
303.489
303.449
303.41
303.395
303.412
303.454
303.492
353.197
352.378
351.404
350.916
351.025
351.232
351.808
352.151
352.859
353.306
353.49
353.365
352.995
352.468
351.944
351.507
351.187
351.38
351.886
352.518
346.48
345.8
344.945
344.504
344.602
344.807
345.241
345.533
346.144
346.505
346.666
346.549
346.244
345.792
345.351
344.981
344.748
344.895
345.349
345.903
339.603
339.036
338.326
337.934
338.004
338.192
338.52
338.763
339.28
339.568
339.701
339.613
339.33
338.946
338.588
338.3
338.138
338.261
338.642
339.101
332.595
332.135
331.542
331.222
331.285
331.428
331.667
331.873
332.294
332.529
332.63
332.576
332.302
332.004
331.739
331.497
331.376
331.488
331.78
332.149
325.482
325.12
324.628
324.404
324.467
324.569
324.721
324.904
325.244
325.384
325.47
325.409
325.221
324.97
324.814
324.601
324.525
324.594
324.823
325.109
318.286
318.016
317.644
317.516
317.553
317.609
317.709
317.86
318.088
318.18
318.246
318.188
318.081
317.879
317.781
317.634
317.593
317.627
317.789
318.012
311.019
310.833
310.625
310.542
310.574
310.589
310.669
310.769
310.876
310.942
310.965
310.931
310.879
310.746
310.678
310.614
310.575
310.62
310.708
310.847
303.701
303.636
303.566
303.534
303.553
303.56
303.582
303.618
303.642
303.674
303.676
303.663
303.653
303.601
303.579
303.564
303.546
303.558
303.596
303.633
355.315
354.367
353.534
353.182
353.092
353.204
353.614
354.046
354.653
354.995
355.196
354.978
354.754
354.151
353.775
353.4
353.317
353.54
354.043
354.54
348.343
347.529
346.79
346.488
346.399
346.5
346.83
347.164
347.687
347.997
348.146
347.944
347.774
347.268
346.949
346.631
346.567
346.796
347.236
347.617
341.176
340.513
339.876
339.615
339.542
339.603
339.885
340.155
340.568
340.838
340.966
340.78
340.642
340.219
339.95
339.699
339.663
339.886
340.263
340.503
333.883
333.352
332.796
332.592
332.519
332.565
332.79
333.034
333.369
333.558
333.669
333.517
333.386
333.061
332.837
332.65
332.631
332.826
333.129
333.301
326.484
326.089
325.602
325.471
325.422
325.431
325.618
325.802
326.065
326.19
326.296
326.155
326.054
325.793
325.643
325.487
325.476
325.652
325.882
325.998
318.998
318.716
318.333
318.273
318.23
318.234
318.379
318.483
318.693
318.76
318.836
318.736
318.665
318.471
318.375
318.242
318.266
318.393
318.559
318.631
311.45
311.288
311.043
311.006
310.965
310.966
311.054
311.123
311.274
311.291
311.323
311.288
311.228
311.101
311.041
310.962
310.988
311.065
311.164
311.222
303.849
303.788
303.71
303.691
303.682
303.675
303.703
303.735
303.795
303.794
303.802
303.788
303.766
303.722
303.704
303.672
303.686
303.704
303.744
303.772
357.477
356.486
355.696
355.174
355.118
355.142
355.449
355.879
356.308
356.66
356.903
356.694
356.445
355.979
355.56
355.303
355.246
355.537
356.119
356.62
350.232
349.36
348.678
348.2
348.14
348.165
348.406
348.788
349.146
349.455
349.649
349.458
349.279
348.858
348.498
348.303
348.272
348.518
349.061
349.456
342.8
342.064
341.468
341.059
340.99
341.017
341.233
341.536
341.837
342.114
342.261
342.087
341.935
341.576
341.254
341.124
341.138
341.333
341.815
342.123
335.216
334.62
334.109
333.787
333.714
333.761
333.918
334.147
334.416
334.643
334.741
334.6
334.464
334.179
333.905
333.806
333.85
334.017
334.402
334.652
327.512
327.048
326.638
326.391
326.33
326.366
326.469
326.658
326.893
327.057
327.146
327.004
326.901
326.676
326.473
326.391
326.438
326.576
326.885
327.067
319.727
319.406
319.083
318.907
318.868
318.886
318.941
319.113
319.267
319.379
319.473
319.355
319.283
319.116
318.966
318.893
318.943
319.065
319.268
319.406
311.878
311.68
311.485
311.374
311.36
311.368
311.389
311.504
311.59
311.663
311.733
311.648
311.601
311.491
311.406
311.352
311.412
311.461
311.586
311.696
303.977
303.92
303.852
303.806
303.81
303.817
303.82
303.859
303.896
303.895
303.94
303.913
303.893
303.845
303.834
303.805
303.836
303.848
303.888
303.916
359.512
358.7
357.906
357.27
357.096
357.155
357.275
357.664
358.011
358.293
358.485
358.425
358.155
357.802
357.463
357.188
357.179
357.495
358.12
358.652
351.987
351.262
350.618
350.027
349.847
349.915
350.005
350.316
350.624
350.873
351.039
350.957
350.744
350.444
350.136
349.887
349.922
350.201
350.754
351.225
344.264
343.672
343.14
342.599
342.421
342.512
342.563
342.811
343.089
343.3
343.434
343.357
343.162
342.933
342.65
342.431
342.497
342.745
343.227
343.631
336.387
335.924
335.488
335.049
334.899
334.979
334.997
335.188
335.426
335.595
335.701
335.637
335.486
335.285
335.045
334.865
334.943
335.146
335.558
335.873
328.422
328.047
327.722
327.363
327.26
327.326
327.36
327.468
327.672
327.804
327.876
327.816
327.684
327.528
327.326
327.208
327.281
327.434
327.796
328.032
320.394
320.098
319.878
319.616
319.555
319.567
319.611
319.686
319.842
319.938
319.986
319.942
319.829
319.701
319.567
319.486
319.53
319.662
319.934
320.101
312.28
312.094
311.965
311.824
311.762
311.781
311.799
311.852
311.952
311.994
312.027
312.003
311.929
311.838
311.772
311.711
311.747
311.844
312.018
312.106
304.116
304.064
304.019
303.964
303.947
303.949
303.967
303.974
304.009
304.009
304.047
304.029
304.008
303.967
303.951
303.94
303.945
303.971
304.037
304.06
361.621
360.808
360.014
359.449
359.154
359.017
359.156
359.443
359.75
359.966
360.122
360.047
359.966
359.607
359.337
359.102
359.239
359.621
360.046
360.829
353.805
353.126
352.431
351.941
351.663
351.538
351.644
351.881
352.124
352.331
352.456
352.39
352.328
352.025
351.794
351.572
351.72
352.073
352.456
353.119
345.829
345.241
344.681
344.243
343.989
343.865
343.978
344.177
344.323
344.56
344.618
344.565
344.537
344.269
344.088
343.901
344.033
344.331
344.682
345.22
337.694
337.235
336.768
336.398
336.194
336.073
336.179
336.325
336.429
336.631
336.644
336.626
336.6
336.371
336.235
336.093
336.214
336.45
336.761
337.188
329.465
329.071
328.732
328.435
328.261
328.203
328.245
328.368
328.458
328.596
328.583
328.577
328.544
328.384
328.298
328.167
328.276
328.447
328.737
329.033
321.146
320.849
320.616
320.383
320.258
320.223
320.241
320.316
320.428
320.477
320.481
320.472
320.429
320.331
320.279
320.182
320.262
320.37
320.614
320.812
312.732
312.548
312.408
312.264
312.204
312.169
312.174
312.213
312.301
312.304
312.333
312.311
312.285
312.226
312.199
312.149
312.171
312.226
312.415
312.517
304.28
304.218
304.171
304.112
304.088
304.076
304.073
304.105
304.121
304.13
304.142
304.128
304.116
304.1
304.104
304.078
304.082
304.099
304.171
304.192
363.539
362.874
362.114
361.541
361.087
360.952
361.033
361.163
361.46
361.644
361.725
361.666
361.595
361.311
361.187
361.168
361.256
361.544
362.165
362.881
355.471
354.894
354.263
353.737
353.363
353.223
353.26
353.359
353.622
353.816
353.853
353.816
353.732
353.496
353.408
353.378
353.506
353.71
354.261
354.906
347.204
346.736
346.242
345.722
345.428
345.306
345.313
345.403
345.624
345.812
345.836
345.807
345.701
345.522
345.444
345.424
345.57
345.715
346.185
346.743
338.805
338.43
338.034
337.582
337.34
337.234
337.257
337.329
337.493
337.656
337.678
337.656
337.541
337.442
337.37
337.323
337.496
337.592
337.966
338.423
330.296
329.981
329.701
329.347
329.162
329.05
329.072
329.153
329.296
329.406
329.438
329.401
329.288
329.239
329.186
329.122
329.286
329.356
329.638
329.995
321.708
321.468
321.279
321
320.905
320.814
320.818
320.903
321.008
321.069
321.107
321.056
320.979
320.954
320.928
320.857
321.004
321.017
321.231
321.467
313.051
312.908
312.806
312.625
312.597
312.518
312.523
312.562
312.647
312.661
312.702
312.65
312.616
312.608
312.601
312.546
312.637
312.641
312.757
312.911
304.379
304.33
304.305
304.234
304.222
304.203
304.203
304.223
304.242
304.241
304.256
304.241
304.235
304.233
304.226
304.209
304.245
304.234
304.278
304.328
365.619
364.852
364.128
363.439
363.105
362.879
362.88
362.892
363.062
363.209
363.391
363.293
363.279
363.136
362.98
363.093
363.21
363.548
364.259
364.912
357.26
356.606
355.981
355.418
355.094
354.869
354.885
354.87
355.011
355.151
355.296
355.215
355.208
355.076
354.946
355.059
355.176
355.46
356.097
356.675
348.751
348.179
347.672
347.194
346.906
346.722
346.716
346.685
346.838
346.959
347.054
346.983
346.965
346.869
346.762
346.851
346.962
347.179
347.737
348.26
340.088
339.603
339.21
338.814
338.566
338.433
338.405
338.364
338.531
338.623
338.69
338.615
338.594
338.534
338.461
338.52
338.595
338.764
339.241
339.674
331.299
330.913
330.627
330.294
330.13
329.995
329.998
329.944
330.083
330.147
330.191
330.141
330.139
330.077
330.024
330.062
330.122
330.253
330.634
330.972
322.403
322.145
321.971
321.673
321.58
321.47
321.518
321.44
321.564
321.614
321.624
321.602
321.613
321.557
321.504
321.532
321.574
321.664
321.956
322.188
313.471
313.315
313.235
313.024
312.976
312.918
312.947
312.891
312.978
313.008
313.023
312.993
313.012
312.977
312.953
312.96
312.984
313.034
313.216
313.354
304.526
304.472
304.442
304.366
304.359
304.339
304.34
304.326
304.365
304.362
304.365
304.359
304.374
304.363
304.349
304.354
304.359
304.369
304.437
304.474
367.697
366.859
366.079
365.476
365.069
364.822
364.605
364.707
364.891
364.962
364.953
364.909
364.898
364.686
364.703
364.763
365.031
365.462
366.155
366.72
359.087
358.358
357.702
357.151
356.761
356.556
356.389
356.466
356.62
356.66
356.665
356.618
356.631
356.411
356.472
356.493
356.76
357.116
357.743
358.219
350.298
349.68
349.096
348.63
348.306
348.117
348.002
348.041
348.161
348.204
348.194
348.159
348.194
347.968
348.061
348.06
348.331
348.598
349.125
349.56
341.34
340.846
340.337
339.977
339.74
339.542
339.462
339.455
339.582
339.61
339.606
339.58
339.62
339.411
339.515
339.47
339.735
339.946
340.362
340.73
332.266
331.923
331.49
331.231
331.056
330.872
330.807
330.787
330.915
330.9
330.898
330.885
330.927
330.747
330.859
330.779
331.031
331.182
331.478
331.805
323.119
322.908
322.552
322.381
322.263
322.114
322.075
322.039
322.15
322.14
322.128
322.128
322.156
322.022
322.112
322.029
322.24
322.341
322.526
322.776
313.902
313.799
313.552
313.471
313.408
313.313
313.281
313.266
313.331
313.322
313.315
313.311
313.344
313.255
313.291
313.238
313.386
313.45
313.533
313.712
304.661
304.633
304.543
304.512
304.501
304.479
304.455
304.456
304.474
304.478
304.473
304.463
304.475
304.452
304.462
304.437
304.501
304.517
304.535
304.6
369.432
368.684
367.904
367.262
366.824
366.492
366.272
366.277
366.311
366.407
366.421
366.301
366.343
366.285
366.367
366.543
366.81
367.251
367.903
368.542
360.573
359.935
359.25
358.68
358.301
358.024
357.803
357.808
357.834
357.942
357.925
357.808
357.849
357.77
357.884
358.041
358.259
358.668
359.235
359.764
351.52
351.014
350.415
349.919
349.589
349.379
349.156
349.163
349.188
349.286
349.264
349.175
349.173
349.121
349.23
349.379
349.549
349.913
350.386
350.846
342.336
341.925
341.434
341.029
340.737
340.565
340.386
340.379
340.431
340.489
340.469
340.392
340.408
340.354
340.458
340.563
340.719
341.013
341.393
341.792
333.018
332.742
332.356
332.018
331.784
331.663
331.524
331.513
331.575
331.6
331.57
331.517
331.535
331.495
331.588
331.651
331.799
331.996
332.285
332.615
323.637
323.448
323.183
322.94
322.752
322.683
322.59
322.577
322.611
322.65
322.609
322.569
322.6
322.583
322.634
322.668
322.796
322.916
323.089
323.367
314.221
314.099
313.946
313.789
313.687
313.641
313.596
313.561
313.601
313.635
313.594
313.59
313.595
313.597
313.615
313.622
313.697
313.784
313.869
314.06
304.767
304.731
304.679
304.626
304.585
304.579
304.559
304.545
304.567
304.574
304.565
304.557
304.562
304.565
304.576
304.57
304.595
304.627
304.644
304.715
370.828
369.972
369.121
368.478
368.11
367.764
367.633
367.375
367.416
367.64
367.595
367.393
367.412
367.411
367.596
367.781
367.988
368.548
369.132
369.739
361.757
360.999
360.262
359.696
359.368
359.066
358.945
358.709
358.746
358.926
358.892
358.697
358.715
358.737
358.882
359.067
359.255
359.736
360.248
360.762
352.516
351.852
351.264
350.752
350.443
350.219
350.101
349.897
349.928
350.099
350.05
349.879
349.869
349.936
350.059
350.206
350.35
350.778
351.216
351.653
343.139
342.592
342.129
341.684
341.407
341.241
341.138
340.979
341.001
341.13
341.098
340.94
340.935
341.013
341.071
341.226
341.347
341.702
342.047
342.419
333.662
333.23
332.883
332.524
332.291
332.166
332.076
331.983
331.975
332.089
332.045
331.933
331.92
331.994
332.017
332.137
332.255
332.533
332.767
333.106
324.112
323.797
323.54
323.283
323.1
323.014
322.949
322.9
322.893
322.987
322.957
322.857
322.836
322.914
322.915
323.001
323.094
323.316
323.472
323.719
314.508
314.306
314.149
313.997
313.873
313.833
313.804
313.763
313.754
313.826
313.813
313.749
313.709
313.78
313.776
313.825
313.914
314.026
314.122
314.256
304.872
304.791
304.743
304.695
304.641
304.646
304.629
304.611
304.615
304.637
304.624
304.615
304.589
304.61
304.624
304.633
304.67
304.71
304.751
304.783
)
;

boundaryField
{
    hotSide
    {
        type            fixedGradient;
        gradient        nonuniform List<scalar> 
400
(
367.456
371.992
379.662
390.388
403.866
419.653
437.273
456.288
476.329
497.103
518.377
539.971
561.744
583.581
605.385
627.073
648.573
669.824
690.787
711.447
348.846
353.629
361.772
373.177
387.478
404.154
422.662
442.519
463.332
484.794
506.673
528.791
551.012
573.227
595.349
617.297
639.004
660.409
681.476
702.195
338.222
343.512
352.123
363.954
378.64
395.666
414.491
434.631
455.689
477.353
499.388
521.613
543.894
566.127
588.228
610.125
631.757
653.073
674.044
694.667
335.086
341.117
350.209
362.259
376.957
393.862
412.497
432.415
453.234
474.644
496.407
518.338
540.301
562.195
583.941
605.478
626.758
647.745
668.421
688.792
337.388
344.282
353.9
366.133
380.728
397.33
415.539
434.963
455.249
476.1
497.278
518.604
539.944
561.203
582.316
603.234
623.929
644.381
664.587
684.557
342.817
350.606
360.814
373.324
387.916
404.291
422.107
441.017
460.696
480.866
501.3
521.832
542.343
562.757
583.03
603.139
623.073
642.833
662.428
681.873
349.509
358.178
369.043
381.97
396.75
413.106
430.721
449.266
468.431
487.948
507.608
527.266
546.836
566.278
585.582
604.756
623.817
642.785
661.678
680.518
356.085
365.584
377.141
390.61
405.774
422.352
440.018
458.431
477.267
496.254
515.198
533.986
552.582
570.999
589.28
607.472
625.623
643.769
661.939
680.155
361.506
371.725
383.946
398.012
413.694
430.689
448.642
467.165
485.89
504.519
522.863
540.854
558.524
575.958
593.261
610.527
627.829
645.219
662.73
680.381
364.97
375.716
388.468
403.066
419.269
436.754
455.121
473.924
492.728
511.186
529.107
546.473
563.392
580.03
596.552
613.089
629.736
646.552
663.569
680.801
365.93
376.914
389.943
404.857
421.408
439.257
457.975
477.066
496.04
514.505
532.266
549.337
565.881
582.117
598.247
614.423
630.75
647.288
664.068
681.101
364.161
375.033
388.003
402.91
419.502
437.433
456.264
475.493
494.624
513.262
531.203
548.453
565.169
581.563
597.831
614.129
630.559
647.184
664.039
681.135
359.843
370.255
382.839
397.432
413.779
431.531
450.261
469.497
488.782
507.75
526.192
544.069
561.471
578.548
595.458
612.332
629.268
646.329
663.553
680.961
353.593
363.263
375.228
389.327
405.301
422.799
441.407
460.686
480.22
499.673
518.828
537.59
555.971
574.045
591.91
609.662
627.379
645.122
662.932
680.838
346.46
355.202
366.437
380.014
395.663
413.015
431.649
451.131
471.066
491.127
511.084
530.801
550.229
569.378
588.29
607.022
625.63
644.164
662.663
681.162
339.962
347.679
358.173
371.302
386.767
404.152
422.994
442.835
463.273
483.978
504.709
525.307
545.686
565.813
585.691
605.344
624.805
644.108
663.289
682.379
336.171
342.857
352.651
365.416
380.801
398.314
417.424
437.635
458.526
479.765
501.108
522.387
543.497
564.385
585.027
605.424
625.589
645.54
665.303
684.906
337.633
343.407
352.549
364.93
380.145
397.634
416.81
437.149
458.221
479.699
501.342
522.982
544.507
565.849
586.971
607.857
628.5
648.907
669.09
689.073
346.623
351.739
360.26
372.069
386.763
403.78
422.537
442.518
463.303
484.573
506.091
527.687
549.244
570.684
591.956
613.029
633.884
654.513
674.92
695.118
363.801
368.547
376.469
387.469
401.216
417.233
435.011
454.084
474.063
494.643
515.588
536.726
557.93
579.108
600.199
621.155
641.948
662.559
682.981
703.221
)
;
    }
    coldSide
    {
        type            mixed;
        refValue        uniform 300;
        refGradient     uniform 0;
        valueFraction   uniform 0.991591;
        source          uniform 0;
        value           nonuniform List<scalar> 
400
(
300.023
300.023
300.024
300.024
300.025
300.026
300.027
300.027
300.029
300.03
300.031
300.032
300.033
300.035
300.036
300.037
300.038
300.039
300.04
300.041
300.022
300.022
300.023
300.024
300.024
300.025
300.026
300.027
300.028
300.029
300.031
300.032
300.033
300.034
300.035
300.036
300.038
300.039
300.04