/*--------------------------------*- C++ -*----------------------------------*\
| =========                 |                                                 |
| \\      /  F ield         | OpenFOAM: The Open Source CFD Toolbox           |
|  \\    /   O peration     | Version:  2212                                  |
|   \\  /    A nd           | Website:  www.openfoam.com                      |
|    \\/     M anipulation  |                                                 |
\*---------------------------------------------------------------------------*/
FoamFile
{
    version     2.0;
    format      ascii;
    arch        "LSB;label=32;scalar=64";
    class       volScalarField;
    location    "./ITHACAoutput/true/11.8";
    object      error;
}
// * * * * * * * * * * * * * * * * * * * * * * * * * * * * * * * * * * * * * //

dimensions      [0 0 0 1 0 0 0];

internalField   nonuniform List<scalar> 
3200
(
2.23335
2.37641
2.61118
2.93537
3.23573
3.59474
3.98512
4.34656
4.54376
4.62808
4.60138
4.53963
4.2604
3.89589
3.54894
3.09317
2.85715
2.52304
2.25086
2.09905
1.9118
1.96618
2.12274
2.44306
2.75144
3.00286
3.27889
3.66559
3.87561
3.97435
3.92559
3.83021
3.59922
3.44886
3.02299
2.69025
2.35038
2.16648
1.89422
1.83343
1.58361
1.63628
1.77145
2.05249
2.22529
2.53599
2.63962
3.05705
3.10786
3.23138
3.33804
3.21794
3.05306
2.79483
2.54725
2.27518
1.98869
1.80439
1.67617
1.52625
1.24245
1.29832
1.4427
1.53577
1.83583
2.05822
2.2185
2.44947
2.58528
2.61814
2.6339
2.60871
2.43319
2.2544
2.02966
1.86602
1.6469
1.4215
1.33053
1.26141
0.923539
1.01737
1.13206
1.23461
1.37545
1.52217
1.68544
1.9015
1.92236
2.03723
2.02506
1.96356
1.9471
1.78765
1.56351
1.416
1.32101
1.08998
1.06356
0.99242
0.643699
0.678631
0.738829
0.849768
0.999732
1.05697
1.28258
1.38581
1.45355
1.47419
1.50322
1.42413
1.34739
1.17506
1.07316
0.98098
0.867474
0.793644
0.769863
0.672577
0.402701
0.365556
0.4219
0.534318
0.57877
0.632393
0.750718
0.789162
0.869483
0.908457
0.881003
0.836576
0.8107
0.752597
0.701242
0.641072
0.530021
0.567035
0.500768
0.444302
0.114346
0.0830135
0.114895
0.172336
0.223185
0.240536
0.261112
0.258164
0.288048
0.322474
0.28141
0.277192
0.254167
0.242707
0.25384
0.224164
0.266643
0.169667
0.0996954
0.112816
1.67744
1.83687
2.03141
2.21761
2.64421
3.02442
3.33904
3.56921
3.84259
3.9445
3.91732
3.77812
3.51832
3.26103
2.90356
2.53111
2.20598
1.8944
1.67357
1.45538
1.41627
1.55695
1.64236
1.90885
2.25391
2.53109
2.79972
3.03759
3.24823
3.40171
3.3649
3.26786
2.99577
2.8007
2.48807
2.10324
1.91622
1.65502
1.47215
1.33187
1.14059
1.29054
1.44605
1.55763
1.82792
2.05735
2.33105
2.5527
2.74975
2.85474
2.80483
2.69079
2.53153
2.38187
2.05285
1.84331
1.53063
1.42365
1.25842
1.19975
0.912705
1.05865
1.13912
1.27579
1.45367
1.70583
1.91053
2.09301
2.18038
2.34544
2.25869
2.29052
2.03167
1.97937
1.64457
1.518
1.30722
1.10283
0.92373
0.988728
0.71402
0.803804
0.813033
1.06542
1.08378
1.29917
1.45887
1.61546
1.56599
1.74726
1.81684
1.75104
1.64263
1.53451
1.36234
1.17892
1.00355
1.01313
0.849479
0.741577
0.546897
0.51486
0.541065
0.659096
0.835932
0.883264
1.07718
1.10056
1.19763
1.27311
1.29198
1.19074
1.19184
1.08108
0.92858
0.787869
0.669659
0.701895
0.575224
0.478263
0.342589
0.332667
0.388273
0.452192
0.543
0.567823
0.602886
0.64414
0.689812
0.70086
0.769491
0.805948
0.615612
0.620694
0.546922
0.496088
0.446491
0.409185
0.32307
0.302462
0.094753
0.0941547
0.128363
0.164551
0.0980279
0.160023
0.176354
0.162164
0.254812
0.270689
0.237098
0.205121
0.234226
0.194095
0.14543
0.146631
0.167474
0.202828
0.116334
0.157204
1.08344
1.08808
1.27278
1.52011
1.81002
2.10986
2.53739
2.68737
2.91421
3.0305
3.01136
2.87446
2.69684
2.3641
1.99139
1.6437
1.3615
1.15852
0.914745
0.79117
0.874248
0.9322
1.05444
1.27726
1.47476
1.75465
2.06883
2.29924
2.43451
2.60454
2.63867
2.43033
2.32548
2.07353
1.71782
1.42619
1.15797
0.92273
0.750493
0.776155
0.670883
0.697904
0.87893
1.02335
1.20892
1.52863
1.67043
1.90802
2.1093
2.16023
2.16356
2.09707
1.92388
1.6812
1.45408
1.23058
1.02696
0.854351
0.679262
0.661315
0.518498
0.591499
0.632157
0.828486
0.995353
1.21348
1.30225
1.60583
1.64259
1.75262
1.70901
1.66524
1.60975
1.38857
1.16595
1.04719
0.791767
0.633733
0.539959
0.540125
0.3232
0.392108
0.56058
0.629679
0.705211
0.918898
1.08034
1.27705
1.26667
1.4142
1.35958
1.38006
1.24824
1.1017
0.92666
0.78469
0.624952
0.528863
0.446294
0.465467
0.286271
0.289062
0.388384
0.440494
0.557325
0.588875
0.773392
0.856468
0.925755
0.925651
0.968827
0.915229
0.922779
0.737631
0.681044
0.519464
0.484039
0.378106
0.353702
0.316579
0.125941
0.223747
0.223002
0.241944
0.356209
0.44919
0.503186
0.456836
0.540128
0.570427
0.578472
0.552077
0.507629
0.453833
0.408616
0.402738
0.277632
0.225081
0.199534
0.162315
0.0859032
0.0524859
0.0727759
0.0734349
0.197519
0.0864097
0.139999
0.217313
0.196032
0.205398
0.198812
0.122411
0.202864
0.106242
0.162992
0.140786
0.06589
0.0767677
0.0525127
0.0616077
0.287392
0.330264
0.471225
0.629547
0.931561
1.25773
1.44335
1.70433
1.89846
2.07907
2.00255
1.91772
1.68128
1.42473
1.10545
0.78291
0.498072
0.25045
0.109195
0.0840969
0.112751
0.249377
0.407919
0.581279
0.740596
1.02961
1.25993
1.57025
1.62561
1.73607
1.71475
1.64342
1.43883
1.15452
0.974385
0.716469
0.431768
0.282462
0.0937805
0.0675485
0.192914
0.180373
0.249064
0.459688
0.609321
0.815166
1.03447
1.24284
1.35501
1.43568
1.495
1.39033
1.28525
1.07887
0.804929
0.593417
0.448857
0.293081
0.145811
0.0178316
0.0713267
0.133048
0.227272
0.280748
0.433614
0.657296
0.893537
0.997276
1.1307
1.19227
1.20723
1.0956
1.00957
0.873332
0.695644
0.497595
0.324006
0.24968
0.105226
0.0545074
0.0465369
0.0547316
0.152344
0.298824
0.363336
0.450676
0.666863
0.725474
0.844588
0.915636
0.934669
0.874604
0.819572
0.694067
0.521967
0.37455
0.258006
0.190347
0.100174
0.0833594
0.0596702
0.0173129
0.145447
0.16685
0.272537
0.428922
0.471119
0.505865
0.644857
0.66176
0.650669
0.646457
0.563405
0.44403
0.404516
0.277114
0.198883
0.107032
0.133403
0.06764
0.0230725
0.0376687
0.0494591
0.0574661
0.113333
0.294298
0.275492
0.308755
0.368569
0.342538
0.329528
0.378152
0.302247
0.258891
0.184235
0.174028
0.135908
0.109935
0.0102133
0.0565574
-0.039369
-0.00426201
0.0323565
0.0551316
0.165736
0.0287969
0.104871
0.177984
0.187701
0.0952962
0.153428
0.12955
0.0285191
0.0895711
0.0174885
0.029574
0.067298
0.00433236
0.051961
-0.00423529
-0.356155
-0.471384
-0.314089
-0.154292
0.0990077
0.362883
0.640934
0.821508
1.00994
1.08492
1.03701
0.939769
0.688284
0.450837
0.128386
-0.107545
-0.3634
-0.544438
-0.58716
-0.706455
-0.426859
-0.477973
-0.269105
-0.154672
0.0266166
0.264499
0.432593
0.610955
0.842828
0.920213
0.875309
0.823577
0.580949
0.408986
0.1461
-0.0414078
-0.21933
-0.438488
-0.532554
-0.4956
-0.391758
-0.349833
-0.30423
-0.156739
0.0517087
0.184106
0.297803
0.514768
0.618828
0.777564
0.793848
0.671201
0.5816
0.327393
0.104228
-0.13347
-0.240514
-0.284254
-0.415429
-0.486339
-0.373958
-0.289786
-0.168164
-0.109095
0.00906924
0.0786047
0.294191
0.38057
0.530907
0.628712
0.594876
0.53064
0.463768
0.227933
0.115882
-0.0133566
-0.153244
-0.290039
-0.399117
-0.346795
-0.271514
-0.235958
-0.240542
-0.0900743
-0.00932107
0.171823
0.237704
0.403943
0.363303
0.427491
0.491576
0.411709
0.390858
0.232272
0.0433818
-0.0182739
-0.153774
-0.17715
-0.267014
-0.280148
-0.253422
-0.18168
-0.164061
-0.123591
-0.0595535
0.126123
0.117045
0.221889
0.286019
0.336267
0.387402
0.264056
0.302853
0.187685
0.0583196
-0.110475
-0.0924573
-0.134727
-0.168837
-0.166476
-0.155075
-0.153958
-0.0544663
-0.0671021
-0.00879021
0.0593027
0.0627894
0.223984
0.194352
0.280098
0.247991
0.201418
0.114968
0.128528
0.0284297
-0.0406456
-0.057767
-0.121359
-0.0879402
-0.125524
-0.0137514
-0.0441728
-0.0604968
-0.0494038
-0.00813925
-0.0206255
0.0273302
0.0373771
0.0379401
0.0499114
0.0962611
0.0631693
0.0400611
0.103209
-0.00896925
-0.0381143
-0.0127437
-0.0176999
-0.0581443
-0.032904
-0.99362
-1.08802
-1.02295
-0.943319
-0.687652
-0.503609
-0.2685
-0.0875826
0.0436698
0.165115
0.0929394
-0.0134508
-0.328993
-0.463055
-0.729956
-0.872416
-1.13537
-1.22562
-1.37017
-1.27747
-0.895213
-0.959928
-0.896334
-0.826896
-0.673386
-0.537495
-0.292854
-0.17271
0.0882889
0.0619204
0.0325594
-0.0318445
-0.205264
-0.375157
-0.564047
-0.785488
-0.878222
-1.11227
-1.17251
-1.13799
-0.86408
-0.786894
-0.832304
-0.775325
-0.63846
-0.414085
-0.247303
-0.199827
-0.0255264
0.0406785
0.133169
-0.0315044
-0.18556
-0.273126
-0.467393
-0.672133
-0.770415
-0.838986
-0.888987
-0.829376
-0.744475
-0.735546
-0.640436
-0.654867
-0.488479
-0.370247
-0.228999
-0.142979
0.0186203
0.0646291
-0.0271649
-0.00666285
-0.229507
-0.32151
-0.377885
-0.478378
-0.649528
-0.676994
-0.818352
-0.746741
-0.597916
-0.529625
-0.490797
-0.559194
-0.358135
-0.259038
-0.149703
-0.13702
-0.0389441
0.00555972
0.0313011
-0.0369246
-0.0909812
-0.170351
-0.319238
-0.398097
-0.493916
-0.578214
-0.586986
-0.52452
-0.458965
-0.434555
-0.378011
-0.352512
-0.35524
-0.174074
-0.0997234
-0.0605574
-0.016746
0.0178453
0.00842147
-0.00710277
-0.134182
-0.177986
-0.297136
-0.271751
-0.342976
-0.33269
-0.417772
-0.394658
-0.322633
-0.173719
-0.212564
-0.243621
-0.219277
-0.159937
-0.116662
-0.00367451
0.0616968
-0.0258573
-0.0295996
-0.0281476
-0.059857
-0.0525411
-0.14539
-0.15447
-0.204782
-0.215439
-0.236418
-0.237322
-0.0950666
-0.0403766
-0.126304
-0.019938
-0.0282766
-0.0857375
-0.0711622
0.0958193
0.0454992
0.10568
-0.0315576
-0.0562705
0.00853462
0.0016151
-0.0573911
-0.118557
-0.0984132
-0.0619386
-0.0278432
-0.043558
-1.60886
-1.66617
-1.63045
-1.58163
-1.43454
-1.31696
-1.12358
-0.987997
-0.848645
-0.846908
-0.842649
-0.91323
-1.06214
-1.27665
-1.44645
-1.73434
-1.85471
-1.95699
-2.03008
-1.95452
-1.41473
-1.57408
-1.49289
-1.40999
-1.28256
-1.07177
-1.05424
-0.867407
-0.754722
-0.703953
-0.74394
-0.791943
-0.942583
-1.09184
-1.29621
-1.41706
-1.53407
-1.60728
-1.63104
-1.70065
-1.25723
-1.28653
-1.27394
-1.1752
-1.19219
-1.00811
-0.855769
-0.778446
-0.723881
-0.604617
-0.606486
-0.66232
-0.79335
-0.93024
-1.06722
-1.20845
-1.35617
-1.40193
-1.35851
-1.36872
-1.05231
-1.03146
-1.05425
-1.05457
-0.961923
-0.844194
-0.800957
-0.622049
-0.567555
-0.488726
-0.536466
-0.485087
-0.591736
-0.733831
-0.858382
-0.976355
-1.02811
-1.08184
-1.17488
-1.12005
-0.823261
-0.785804
-0.901226
-0.86552
-0.739122
-0.680804
-0.633546
-0.536117
-0.496744
-0.356001
-0.48325
-0.39585
-0.440558
-0.624769
-0.692323
-0.719028
-0.828082
-0.728455
-0.913666
-0.920326
-0.63866
-0.649284
-0.575192
-0.638163
-0.529482
-0.450056
-0.41966
-0.388104
-0.304488
-0.340961
-0.253575
-0.200574
-0.38667
-0.394218
-0.517294
-0.453595
-0.581645
-0.593734
-0.636741
-0.559724
-0.378536
-0.339396
-0.331346
-0.371441
-0.283225
-0.252091
-0.248356
-0.244053
-0.23554
-0.181602
-0.183337
-0.214556
-0.204991
-0.228662
-0.253779
-0.31404
-0.361659
-0.369145
-0.393171
-0.423292
-0.0607642
-0.217267
-0.148906
-0.14921
-0.123886
-0.123689
-0.0981474
-0.0999426
-0.0915743
-0.0724589
-0.0277606
-0.0518003
-0.0161223
-0.145279
-0.127602
-0.0863601
-0.0847408
-0.145221
-0.114399
-0.13032
-2.08875
-2.16712
-2.23797
-2.19928
-2.11743
-2.03032
-1.8933
-1.76373
-1.62024
-1.70339
-1.68072
-1.7555
-1.89357
-2.00928
-2.23678
-2.32181
-2.49305
-2.50588
-2.5273
-2.44067
-1.94444
-2.0409
-2.03332
-1.91032
-1.83506
-1.7933
-1.65276
-1.54542
-1.50804
-1.47889
-1.44461
-1.50403
-1.60574
-1.7152
-1.90625
-1.95302
-2.15848
-2.17826
-2.11478
-2.12731
-1.59171
-1.64711
-1.73807
-1.68705
-1.62606
-1.50955
-1.38877
-1.38148
-1.26391
-1.23707
-1.25551
-1.35803
-1.32884
-1.50179
-1.58691
-1.67574
-1.78069
-1.86858
-1.84077
-1.79393
-1.3326
-1.35681
-1.44291
-1.38344
-1.34247
-1.2239
-1.21203
-1.08567
-1.03137
-1.05033
-0.934318
-1.05856
-1.11948
-1.15314
-1.29322
-1.34497
-1.5123
-1.44324
-1.46482
-1.45604
-1.10224
-1.15105
-1.08413
-1.05262
-1.05003
-0.979534
-0.914641
-0.793295
-0.791485
-0.835759
-0.752932
-0.843125
-0.908544
-0.914343
-1.03768
-1.09563
-1.13361
-1.13727
-1.09823
-1.08377
-0.74102
-0.858407
-0.77986
-0.833804
-0.78368
-0.700667
-0.689818
-0.604691
-0.524951
-0.497172
-0.46822
-0.600987
-0.612867
-0.630978
-0.674572
-0.70877
-0.820723
-0.815222
-0.827463
-0.86449
-0.472095
-0.554113
-0.477229
-0.476565
-0.486258
-0.461764
-0.392551
-0.377194
-0.349018
-0.40404
-0.331029
-0.333098
-0.326797
-0.372349
-0.430034
-0.49323
-0.456883
-0.424818
-0.529138
-0.46572
-0.152793
-0.0906591
-0.177652
-0.108263
-0.147789
-0.138865
-0.14581
-0.0907721
-0.159171
-0.137714
-0.0871477
-0.148768
-0.148196
-0.12407
-0.131807
-0.183331
-0.17924
-0.159001
-0.123796
-0.165833
-2.47507
-2.56982
-2.66317
-2.70674
-2.6743
-2.60474
-2.49244
-2.42615
-2.45781
-2.34431
-2.36793
-2.51221
-2.54543
-2.72419
-2.80943
-3.03676
-2.97418
-3.09154
-3.0451
-2.92091
-2.27718
-2.23338
-2.41955
-2.3707
-2.29299
-2.25642
-2.23934
-2.18439
-2.12581
-2.11208
-2.15379
-2.10609
-2.16685
-2.25645
-2.4829
-2.57834
-2.58754
-2.52852
-2.54099
-2.46691
-1.91642
-1.98498
-2.0127
-2.08406
-2.02439
-2.02893
-1.85251
-1.85458
-1.75204
-1.77648
-1.7526
-1.81778
-1.94462
-1.96888
-2.05532
-2.08283
-2.19581
-2.21355
-2.18752
-2.05538
-1.57734
-1.63009
-1.67935
-1.68212
-1.65347
-1.68964
-1.49028
-1.59042
-1.46285
-1.51236
-1.53399
-1.47953
-1.58191
-1.58873
-1.70867
-1.79729
-1.73787
-1.77397
-1.80235
-1.64441
-1.26369
-1.3084
-1.40259
-1.32446
-1.32393
-1.19323
-1.23574
-1.2982
-1.15152
-1.14851
-1.12499
-1.18549
-1.24472
-1.29251
-1.31998
-1.37815
-1.44377
-1.33768
-1.3962
-1.31536
-0.919557
-0.947491
-1.01426
-0.986849
-0.948184
-0.977938
-0.888891
-0.86918
-0.864174
-0.848164
-0.837877
-0.918439
-0.860651
-0.889461
-0.929869
-0.970521
-1.00746
-0.932148
-0.954592
-0.898009
-0.603144
-0.500694
-0.600749
-0.51715
-0.566647
-0.55664
-0.597642
-0.495765
-0.509034
-0.489021
-0.456142
-0.536561
-0.556344
-0.529707
-0.587051
-0.565641
-0.586431
-0.562078
-0.493237
-0.542364
-0.228695
-0.196069
-0.2113
-0.228007
-0.192111
-0.131372
-0.128644
-0.196869
-0.173015
-0.221685
-0.140515
-0.178871
-0.188403
-0.239741
-0.223738
-0.236984
-0.22426
-0.209349
-0.232551
-0.202159
-2.74975
-2.92315
-3.00842
-3.16646
-3.22701
-3.12816
-3.18036
-3.13769
-2.9897
-2.98882
-3.04762
-3.12673
-3.19379
-3.32058
-3.39826
-3.47587
-3.4841
-3.426
-3.3418
-3.17023
-2.45121
-2.60807
-2.75069
-2.80509
-2.78789
-2.74491
-2.74524
-2.74935
-2.6399
-2.59657
-2.65896
-2.65901
-2.74083
-2.86706
-2.92982
-2.95274
-2.95112
-3.00254
-2.86557
-2.68402
-2.07811
-2.21277
-2.33911
-2.4104
-2.40292
-2.37093
-2.34442
-2.24772
-2.27026
-2.23449
-2.28489
-2.29842
-2.3604
-2.39602
-2.46462
-2.53787
-2.50837
-2.5433
-2.41296
-2.34826
-1.7571
-1.84322
-1.874
-1.98877
-1.97649
-1.96856
-1.91154
-1.89667
-1.80763
-1.90437
-1.77929
-1.89257
-1.88115
-2.0475
-1.96906
-2.03442
-2.08093
-2.08019
-1.89276
-1.87608
-1.44233
-1.45204
-1.44937
-1.53434
-1.52136
-1.5822
-1.517
-1.51619
-1.39232
-1.4846
-1.4339
-1.46525
-1.45753
-1.45732
-1.54222
-1.62614
-1.58247
-1.58698
-1.52648
-1.48413
-1.01772
-1.0602
-1.04848
-1.10101
-1.10819
-1.11785
-1.07184
-1.09262
-1.05482
-1.01921
-0.962147
-1.01187
-1.07505
-1.12553
-1.08452
-1.12916
-1.08341
-1.15856
-1.1188
-1.02053
-0.662595
-0.635089
-0.610895
-0.672997
-0.654992
-0.610683
-0.656446
-0.613733
-0.574282
-0.539233
-0.649983
-0.573611
-0.60983
-0.672127
-0.681363
-0.619909
-0.698613
-0.682676
-0.576435
-0.628718
-0.213165
-0.225963
-0.2204
-0.17067
-0.217918
-0.223311
-0.270437
-0.211553
-0.183103
-0.264114
-0.180911
-0.228934
-0.224177
-0.238687
-0.177029
-0.238111
-0.193749
-0.264153
-0.213084
-0.18439
-3.02601
-3.14054
-3.3833
-3.3863
-3.48912
-3.60954
-3.55292
-3.55388
-3.5946
-3.49664
-3.61411
-3.61152
-3.65685
-3.74376
-3.7756
-3.87306
-3.81381
-3.72278
-3.54649
-3.46901
-2.66146
-2.75721
-2.89754
-3.08901
-3.09258
-3.11281
-3.14808
-3.15565
-3.08839
-3.12753
-3.14955
-3.14206
-3.25075
-3.21345
-3.23058
-3.36544
-3.2076
-3.19375
-3.06604
-3.01028
-2.32477
-2.34951
-2.5588
-2.62386
-2.63811
-2.67319
-2.7097
-2.69545
-2.63547
-2.61255
-2.59562
-2.65706
-2.7194
-2.73442
-2.78082
-2.73812
-2.71441
-2.74921
-2.58151
-2.49237
-1.8475
-2.0239
-2.11812
-2.09443
-2.21755
-2.16193
-2.24742
-2.20207
-2.18863
-2.16805
-2.08205
-2.16109
-2.22291
-2.34569
-2.22843
-2.30167
-2.28216
-2.18473
-2.09695
-2.00484
-1.43166
-1.49465
-1.64729
-1.66806
-1.74273
-1.7033
-1.78532
-1.73762
-1.67596
-1.73727
-1.7059
-1.71537
-1.75139
-1.77053
-1.77335
-1.7868
-1.75983
-1.69925
-1.69353
-1.62379
-1.0558
-1.07241
-1.15185
-1.18687
-1.19295
-1.27096
-1.17698
-1.22929
-1.18076
-1.17321
-1.17637
-1.23176
-1.25043
-1.20701
-1.30544
-1.28793
-1.24111
-1.17829
-1.13231
-1.09365
-0.637784
-0.636009
-0.647687
-0.780945
-0.753804
-0.733959
-0.731606
-0.711146
-0.730109
-0.720563
-0.785734
-0.746214
-0.73809
-0.734918
-0.755323
-0.788614
-0.755184
-0.711489
-0.697907
-0.653063
-0.225625
-0.228771
-0.260893
-0.3125
-0.190243
-0.361523
-0.240917
-0.232091
-0.168025
-0.198995
-0.31868
-0.178004
-0.247553
-0.270741
-0.226083
-0.244022
-0.226998
-0.29029
-0.257245
-0.256756
-3.074
-3.24437
-3.48638
-3.65448
-3.7283
-3.91568
-3.93807
-3.89659
-4.00334
-3.96872
-4.01243
-4.03152
-4.1127
-4.13147
-4.13531
-4.13259
-4.10354
-3.91698
-3.7334
-3.53802
-2.70813
-2.91628
-3.13175
-3.226
-3.34464
-3.42716
-3.46137
-3.42904
-3.45153
-3.4585
-3.44263
-3.55328
-3.50536
-3.54963
-3.61417
-3.57496
-3.48771
-3.42141
-3.20194
-3.0148
-2.31417
-2.47304
-2.58677
-2.73468
-2.87748
-2.90587
-2.92697
-2.99913
-2.86964
-2.98
-2.97557
-2.97247
-2.96128
-3.02083
-3.04827
-3.02343
-3.00177
-2.86341
-2.72312
-2.50022
-1.99911
-2.04352
-2.21331
-2.27002
-2.25914
-2.36706
-2.41135
-2.36084
-2.42015
-2.42361
-2.5445
-2.40863
-2.43923
-2.52882
-2.44451
-2.43816
-2.40261
-2.3673
-2.13296
-2.09493
-1.55573
-1.64326
-1.78713
-1.84721
-1.8849
-1.91739
-1.89062
-1.90379
-1.85881
-1.92317
-1.86423
-1.87152
-1.84577
-1.90637
-1.98084
-1.84418
-1.89254
-1.74028
-1.67902
-1.61692
-1.04302
-1.16239
-1.13885
-1.2746
-1.33676
-1.32663
-1.43281
-1.40741
-1.40747
-1.30383
-1.34415
-1.34843
-1.43038
-1.28215
-1.40779
-1.33556
-1.34034
-1.27288
-1.24425
-1.13354
-0.62464
-0.65578
-0.740883
-0.777954
-0.812806
-0.828999
-0.815203
-0.802569
-0.83817
-0.783394
-0.814436
-0.8358
-0.824503
-0.840841
-0.744334
-0.751568
-0.812284
-0.731568
-0.73082
-0.646441
-0.223018
-0.22554
-0.257461
-0.27369
-0.270883
-0.244102
-0.298525
-0.28004
-0.334206
-0.236964
-0.255324
-0.239919
-0.323313
-0.204093
-0.246325
-0.303675
-0.271897
-0.208803
-0.245297
-0.264898
-3.0543
-3.23862
-3.50958
-3.78702
-3.98253
-4.1164
-4.12441
-4.19333
-4.30267
-4.28417
-4.31479
-4.31911
-4.29217
-4.30486
-4.38521
-4.28121
-4.1837
-3.97486
-3.74899
-3.55846
-2.62441
-2.94186
-3.07779
-3.3337
-3.47841
-3.58492
-3.62867
-3.60694
-3.65528
-3.72264
-3.79392
-3.76341
-3.77636
-3.75581
-3.72447
-3.70065
-3.57443
-3.45643
-3.2851
-2.98518
-2.3392
-2.54394
-2.66841
-2.86683
-2.99881
-2.97066
-3.05516
-3.17062
-3.0011
-3.11218
-3.18867
-3.16585
-3.15211
-3.18561
-3.15027
-3.07547
-2.99535
-2.91803
-2.7555
-2.48696
-1.92836
-2.04149
-2.12838
-2.26887
-2.46686
-2.46833
-2.5687
-2.59124
-2.52648
-2.62976
-2.5952
-2.57172
-2.57814
-2.62682
-2.54212
-2.50817
-2.42035
-2.36327
-2.23711
-2.07003
-1.60047
-1.6337
-1.77309
-1.8571
-1.92599
-1.96744
-1.98692
-2.00621
-2.00984
-1.99127
-2.01542
-2.02791
-1.98895
-2.00979
-1.99531
-1.86561
-1.89105
-1.84154
-1.66455
-1.63346
-1.05617
-1.15375
-1.20241
-1.24691
-1.33381
-1.4038
-1.43897
-1.45188
-1.51245
-1.44073
-1.42051
-1.47366
-1.40624
-1.39304
-1.4446
-1.36666
-1.29835
-1.34001
-1.20722
-1.12164
-0.649058
-0.74122
-0.694272
-0.784298
-0.867981
-0.831712
-0.897691
-0.890586
-0.907744
-0.848682
-0.860921
-0.938816
-0.887926
-0.859818
-0.888155
-0.877102
-0.842514
-0.737206
-0.666653
-0.65507
-0.238622
-0.196071
-0.234797
-0.251601
-0.301459
-0.273264
-0.307722
-0.309617
-0.252219
-0.298818
-0.266223
-0.276365
-0.290167
-0.351514
-0.314682
-0.252405
-0.292782
-0.299095
-0.225302
-0.247529
-2.82548
-3.17129
-3.44146
-3.7709
-3.91204
-4.14396
-4.19644
-4.30845
-4.36674
-4.41265
-4.48538
-4.45358
-4.46709
-4.52094
-4.40177
-4.25568
-4.20686
-3.97873
-3.61181
-3.46421
-2.55486
-2.73152
-3.02689
-3.31757
-3.51193
-3.55189
-3.71276
-3.67253
-3.75276
-3.83041
-3.91354
-3.88141
-3.88906
-3.89238
-3.79651
-3.65493
-3.66997
-3.4021
-3.17967
-2.97737
-2.22046
-2.44171
-2.6102
-2.78213
-2.96059
-3.08911
-3.11176
-3.21426
-3.16653
-3.27772
-3.36041
-3.3157
-3.2899
-3.23573
-3.23606
-3.19229
-2.96964
-2.87093
-2.71745
-2.38706
-1.83215
-1.99918
-2.18331
-2.31367
-2.39987
-2.55476
-2.59118
-2.58709
-2.66032
-2.65575
-2.72317
-2.73085
-2.67766
-2.67534
-2.58835
-2.5668
-2.43903
-2.27551
-2.20043
-2.02611
-1.43026
-1.55745
-1.6817
-1.81557
-1.88665
-1.97359
-2.03683
-1.95672
-2.05642
-2.0585
-2.07574
-2.10782
-1.99976
-2.07737
-2.00734
-1.92224
-1.92387
-1.85295
-1.71142
-1.49904
-1.06235
-1.15284
-1.15083
-1.27274
-1.33555
-1.39755
-1.43506
-1.51067
-1.47193
-1.466
-1.50795
-1.52705
-1.51747
-1.40912
-1.47361
-1.42071
-1.35952
-1.25998
-1.21189
-1.12574
-0.563255
-0.682474
-0.717145
-0.784014
-0.805842
-0.877089
-0.885422
-0.870308
-0.945059
-0.877901
-0.911252
-0.893218
-0.919843
-0.892053
-0.865492
-0.828945
-0.828753
-0.752065
-0.665909
-0.670196
-0.261444
-0.244262
-0.14991
-0.329558
-0.270585
-0.29644
-0.26896
-0.33679
-0.303593
-0.327311
-0.311835
-0.332787
-0.27066
-0.322573
-0.233209
-0.233072
-0.331213
-0.258283
-0.224774
-0.233221
-2.57094
-2.87212
-3.27088
-3.64329
-3.85274
-4.00741
-4.18905
-4.25882
-4.37404
-4.4523
-4.43389
-4.46477
-4.42615
-4.46029
-4.39668
-4.23452
-4.02017
-3.7719
-3.52869
-3.22362
-2.28949
-2.55775
-2.93655
-3.15317
-3.40438
-3.5166
-3.72119
-3.70674
-3.80367
-3.80936
-3.90406
-3.87346
-3.84882
-3.82814
-3.75129
-3.67579
-3.47395
-3.20294
-2.96684
-2.74579
-2.0434
-2.16346
-2.43812
-2.70581
-2.87665
-2.9719
-3.06979
-3.21724
-3.21169
-3.2788
-3.236
-3.27553
-3.31449
-3.19984
-3.13594
-3.05075
-2.89308
-2.67036
-2.53074
-2.29126
-1.7108
-1.76707
-1.96978
-2.20706
-2.35267
-2.41383
-2.51632
-2.62766
-2.63385
-2.6404
-2.67675
-2.68727
-2.65589
-2.63907
-2.60976
-2.56995
-2.36985
-2.22373
-2.02514
-1.86237
-1.311
-1.54366
-1.611
-1.72746
-1.80086
-1.96538
-2.01441
-2.02695
-2.07809
-2.06748
-2.1402
-2.09925
-2.11333
-2.05555
-1.97296
-1.90928
-1.84524
-1.75288
-1.52535
-1.48994
-0.962694
-1.05074
-1.18611
-1.2441
-1.29301
-1.41792
-1.42816
-1.43704
-1.44764
-1.55738
-1.49575
-1.44949
-1.46034
-1.43662
-1.39675
-1.40212
-1.30624
-1.22684
-1.13945
-0.927954
-0.541084
-0.641733
-0.704354
-0.817224
-0.787966
-0.898201
-0.888336
-0.88628
-0.797044
-0.950146
-0.966991
-0.89235
-0.903762
-0.921391
-0.817126
-0.810005
-0.773927
-0.686791
-0.658796
-0.640669
-0.226249
-0.259915
-0.269523
-0.231544
-0.312253
-0.325345
-0.267708
-0.341318
-0.368308
-0.293626
-0.308196
-0.257576
-0.307676
-0.250472
-0.358983
-0.252407
-0.240982
-0.23172
-0.276895
-0.158189
-2.12517
-2.51905
-2.94778
-3.29466
-3.5289
-3.79019
-3.98832
-4.10157
-4.31098
-4.34907
-4.27587
-4.37833
-4.33599
-4.19976
-4.16099
-3.91831
-3.7839
-3.44296
-3.18902
-2.83379
-1.86401
-2.29172
-2.60952
-2.86427
-3.18813
-3.30472
-3.4574
-3.61048
-3.69188
-3.76319
-3.77728
-3.76347
-3.66887
-3.66434
-3.60424
-3.39281
-3.26189
-2.9998
-2.66427
-2.48567
-1.71354
-1.99915
-2.20647
-2.45703
-2.66064
-2.82593
-2.99027
-3.01135
-3.10527
-3.16191
-3.18838
-3.2195
-3.13511
-3.0934
-2.94975
-2.85079
-2.73456
-2.58395
-2.28958
-2.02429
-1.44255
-1.63733
-1.88663
-2.02714
-2.22528
-2.31508
-2.44402
-2.54687
-2.5481
-2.55155
-2.60841
-2.603
-2.58983
-2.58036
-2.42277
-2.34625
-2.25262
-2.03489
-1.83093
-1.59072
-1.13597
-1.25044
-1.52705
-1.57538
-1.75907
-1.76568
-1.90877
-1.95485
-1.95982
-1.98972
-2.03988
-2.02206
-1.98172
-1.97662
-1.92799
-1.80018
-1.70415
-1.55207
-1.45077
-1.25094
-0.757861
-0.889228
-1.01169
-1.19933
-1.29073
-1.32035
-1.40112
-1.38864
-1.35541
-1.42377
-1.44132
-1.43296
-1.42798
-1.39617
-1.40778
-1.31613
-1.15737
-1.11637
-1.04024
-0.800099
-0.397003
-0.608975
-0.658857
-0.671933
-0.67657
-0.746619
-0.756361
-0.874428
-0.83481
-0.866527
-0.923061
-0.924367
-0.913026
-0.819011
-0.813137
-0.802176
-0.717586
-0.657072
-0.612786
-0.488658
-0.152238
-0.176714
-0.227185
-0.21884
-0.265419
-0.27137
-0.269052
-0.292183
-0.319494
-0.305608
-0.319236
-0.275273
-0.292598
-0.264891
-0.21595
-0.281762
-0.223997
-0.248326
-0.210624
-0.191176
-1.64261
-2.08494
-2.53243
-2.98025
-3.15087
-3.48872
-3.69914
-3.84395
-3.92764
-3.9547
-4.05015
-4.12393
-4.04969
-4.00166
-3.84641
-3.63577
-3.40727
-2.98053
-2.72148
-2.3639
-1.53918
-1.92048
-2.20388
-2.53006
-2.82188
-3.05988
-3.19268
-3.36855
-3.447
-3.49655
-3.48173
-3.54524
-3.46478
-3.41588
-3.31626
-3.12541
-2.89589
-2.60283
-2.2362
-2.06354
-1.31916
-1.558
-1.86452
-2.12056
-2.4572
-2.59238
-2.73
-2.87574
-2.90345
-2.89828
-2.94339
-2.94018
-2.92902
-2.85404
-2.76719
-2.65989
-2.46339
-2.19272
-1.87657
-1.60612
-1.11435
-1.34878
-1.61345
-1.82891
-2.00358
-2.10009
-2.25001
-2.29049
-2.46194
-2.43168
-2.4666
-2.38617
-2.34439
-2.32244
-2.2407
-2.1526
-1.95167
-1.82632
-1.61146
-1.37198
-0.881192
-1.03542
-1.1936
-1.41212
-1.53583
-1.61908
-1.74066
-1.82735
-1.85242
-1.91764
-1.87699
-1.83643
-1.82421
-1.804
-1.79408
-1.69805
-1.54629
-1.3591
-1.219
-1.04419
-0.632994
-0.748246
-0.896235
-1.01198
-1.12122
-1.16503
-1.29805
-1.32937
-1.33641
-1.34704
-1.34513
-1.32436
-1.30378
-1.28039
-1.25994
-1.16836
-1.02819
-0.967416
-0.853923
-0.73964
-0.355539
-0.402818
-0.545725
-0.534515
-0.676046
-0.812
-0.76041
-0.684946
-0.755828
-0.768789
-0.77228
-0.742152
-0.874207
-0.805581
-0.766595
-0.664443
-0.653984
-0.564949
-0.496322
-0.458517
-0.215609
-0.183444
-0.117558
-0.23064
-0.277369
-0.210049
-0.262337
-0.273153
-0.256314
-0.285409
-0.261843
-0.294207
-0.268236
-0.314639
-0.239311
-0.203001
-0.23467
-0.122044
-0.19821
-0.189366
-1.01288
-1.46424
-1.97773
-2.35043
-2.70198
-2.92611
-3.28287
-3.43722
-3.52404
-3.60126
-3.63431
-3.69174
-3.64323
-3.49739
-3.31598
-3.15042
-2.88609
-2.49408
-2.16202
-1.78644
-0.911695
-1.28542
-1.72386
-2.09336
-2.36158
-2.57572
-2.83024
-2.89594
-3.14643
-3.14677
-3.19299
-3.19385
-3.04617
-3.07122
-2.93769
-2.77258
-2.50145
-2.09941
-1.85159
-1.48683
-0.892907
-1.20832
-1.49566
-1.77604
-2.04589
-2.27701
-2.36018
-2.51133
-2.54565
-2.69412
-2.66961
-2.70809
-2.59673
-2.56803
-2.46017
-2.27261
-2.03959
-1.87493
-1.4523
-1.25446
-0.725954
-0.933256
-1.19308
-1.5292
-1.67152
-1.84083
-1.9779
-2.08878
-2.15275
-2.20759
-2.14913
-2.28406
-2.14573
-2.10994
-1.9956
-1.88915
-1.68256
-1.42286
-1.23626
-1.09049
-0.558466
-0.748562
-0.98078
-1.16877
-1.26657
-1.47902
-1.49676
-1.63006
-1.731
-1.70332
-1.74032
-1.65339
-1.68301
-1.67729
-1.61688
-1.48234
-1.28024
-1.13701
-0.901197
-0.773006
-0.393876
-0.527019
-0.673403
-0.830728
-1.02607
-1.02542
-1.07448
-1.14815
-1.18144
-1.23141
-1.22858
-1.19814
-1.22018
-1.18422
-1.06803
-1.00065
-0.889753
-0.812311
-0.648152
-0.558846
-0.304964
-0.274078
-0.39443
-0.511728
-0.522278
-0.657051
-0.643875
-0.713405
-0.745031
-0.813774
-0.72289
-0.712742
-0.676735
-0.714675
-0.727061
-0.634004
-0.553596
-0.507358
-0.371129
-0.387987
-0.0948002
-0.0798405
-0.138713
-0.195981
-0.212188
-0.183207
-0.183566
-0.139498
-0.280887
-0.178381
-0.17344
-0.230565
-0.200312
-0.210022
-0.171789
-0.16957
-0.135383
-0.134695
-0.14514
-0.129508
-0.379598
-0.925786
-1.3212
-1.80313
-2.20521
-2.39499
-2.65629
-2.96294
-3.03915
-3.20945
-3.23246
-3.18394
-3.16308
-3.10578
-2.8852
-2.64563
-2.28842
-1.95513
-1.49058
-1.10719
-0.437274
-0.843198
-1.25444
-1.60471
-1.91851
-2.23561
-2.42331
-2.55822
-2.69047
-2.70448
-2.7577
-2.77206
-2.77259
-2.67112
-2.43744
-2.24024
-1.97158
-1.66754
-1.26559
-0.873885
-0.419783
-0.702097
-1.02707
-1.42156
-1.6787
-1.8681
-2.12983
-2.20632
-2.21886
-2.29082
-2.34318
-2.38852
-2.32651
-2.18451
-2.07057
-1.86274
-1.61823
-1.45129
-1.01965
-0.857712
-0.391159
-0.549604
-0.881376
-1.15201
-1.32046
-1.56302
-1.71081
-1.76754
-1.86727
-1.90083
-1.94645
-1.89191
-1.84111
-1.76287
-1.69459
-1.60296
-1.32549
-1.15124
-0.829611
-0.567933
-0.331799
-0.513046
-0.668264
-0.963706
-1.04706
-1.27285
-1.28662
-1.42417
-1.45097
-1.51183
-1.54546
-1.46104
-1.5181
-1.3361
-1.36234
-1.19751
-0.936283
-0.78714
-0.5715
-0.542334
-0.191389
-0.432725
-0.491904
-0.624885
-0.746016
-0.908803
-1.01857
-0.989956
-1.11629
-1.10074
-1.10875
-1.06273
-1.06027
-1.0023
-0.955423
-0.860906
-0.772299
-0.594227
-0.470961
-0.307249
-0.146638
-0.21557
-0.299764
-0.4014
-0.494193
-0.531817
-0.545543
-0.554413
-0.610192
-0.684823
-0.64379
-0.623051
-0.552933
-0.601622
-0.544221
-0.500979
-0.487099
-0.405965
-0.312563
-0.278725
-0.065687
-0.0462791
-0.10636
-0.108423
-0.162911
-0.225726
-0.157954
-0.189477
-0.177483
-0.207978
-0.24984
-0.219366
-0.190759
-0.177887
-0.161575
-0.144212
-0.191546
-0.113005
-0.0727101
-0.0685223
0.176436
-0.362167
-0.845051
-1.19859
-1.69847
-1.99651
-2.23196
-2.51124
-2.5438
-2.74188
-2.76652
-2.7242
-2.71372
-2.57074
-2.49623
-2.15347
-1.72055
-1.41759
-0.968161
-0.606779
0.0229991
-0.367897
-0.831079
-1.20678
-1.51025
-1.86332
-2.04217
-2.1098
-2.34908
-2.35979
-2.48205
-2.36615
-2.33677
-2.27305
-2.0899
-1.83844
-1.62014
-1.26952
-0.853245
-0.506055
-0.0872479
-0.440069
-0.701856
-1.06386
-1.32492
-1.6576
-1.81371
-1.86819
-2.01355
-2.03594
-2.11152
-2.04822
-2.01201
-1.87077
-1.81355
-1.6529
-1.42257
-1.09587
-0.774949
-0.448862
-0.0553258
-0.367152
-0.596372
-0.883277
-1.09997
-1.27713
-1.45301
-1.57774
-1.69388
-1.68896
-1.77092
-1.71143
-1.68048
-1.50936
-1.43904
-1.30589
-1.10896
-0.8125
-0.63063
-0.39062
-0.0962294
-0.338912
-0.523953
-0.776749
-0.880387
-1.01619
-1.15282
-1.28729
-1.24236
-1.33277
-1.37025
-1.3668
-1.37126
-1.21104
-1.13019
-1.03346
-0.892096
-0.648071
-0.47291
-0.256855
-0.0989225
-0.202612
-0.409509
-0.600531
-0.626592
-0.766979
-0.806522
-0.920148
-0.895648
-0.961306
-1.01737
-0.981321
-0.953075
-0.894045
-0.772583
-0.728957
-0.651677
-0.438421
-0.334203
-0.253866
-0.0788453
-0.163962
-0.23879
-0.272353
-0.381549
-0.468451
-0.510858
-0.555469
-0.559868
-0.541407
-0.533482
-0.666974
-0.525901
-0.501503
-0.554098
-0.376819
-0.343098
-0.241046