/*--------------------------------*- C++ -*----------------------------------*\
| =========                 |                                                 |
| \\      /  F ield         | OpenFOAM: The Open Source CFD Toolbox           |
|  \\    /   O peration     | Version:  2212                                  |
|   \\  /    A nd           | Website:  www.openfoam.com                      |
|    \\/     M anipulation  |                                                 |
\*---------------------------------------------------------------------------*/
FoamFile
{
    version     2.0;
    format      ascii;
    arch        "LSB;label=32;scalar=64";
    class       volScalarField;
    location    "0";
    object      stateMean;
}
// * * * * * * * * * * * * * * * * * * * * * * * * * * * * * * * * * * * * * //

dimensions      [0 0 0 1 0 0 0];

internalField   nonuniform List<scalar> 
3200
(
317.978
318.219
318.475
318.686
318.936
319.118
319.227
319.286
319.396
319.474
319.501
319.4
319.373
319.316
319.164
319.079
318.764
318.563
318.344
318.112
315.677
315.948
316.215
316.357
316.526
316.742
316.897
316.874
316.929
316.971
317.019
316.975
316.941
316.727
316.722
316.587
316.45
316.172
316.02
315.756
313.352
313.57
313.792
313.902
314.132
314.216
314.476
314.367
314.539
314.534
314.427
314.429
314.371
314.321
314.205
314.082
313.965
313.759
313.53
313.41
311.016
311.177
311.323
311.55
311.579
311.68
311.818
311.837
311.884
311.947
311.931
311.86
311.853
311.782
311.708
311.549
311.439
311.344
311.144
310.997
308.635
308.709
308.819
308.964
309.08
309.184
309.253
309.231
309.352
309.312
309.324
309.31
309.185
309.15
309.142
309.039
308.878
308.861
308.662
308.567
306.199
306.282
306.383
306.449
306.482
306.604
306.543
306.579
306.612
306.646
306.617
306.642
306.618
306.651
306.588
306.501
306.432
306.328
306.191
306.17
303.712
303.82
303.86
303.854
303.919
303.974
303.954
303.999
303.98
303.973
304
304.012
303.977
303.952
303.905
303.857
303.858
303.715
303.685
303.671
301.266
301.321
301.321
301.3
301.286
301.304
301.317
301.348
301.338
301.315
301.356
301.349
301.352
301.335
301.291
301.285
301.205
301.266
301.304
301.267
318.59
318.811
319.104
319.447
319.566
319.721
319.899
320.085
320.114
320.172
320.2
320.179
320.136
319.977
319.841
319.679
319.459
319.241
318.974
318.812
316.222
316.403
316.738
316.929
317.056
317.242
317.399
317.521
317.573
317.557
317.594
317.553
317.563
317.398
317.285
317.207
316.922
316.725
316.488
316.306
313.837
313.954
314.153
314.428
314.557
314.719
314.805
314.887
314.91
314.922
314.972
314.969
314.908
314.754
314.723
314.542
314.455
314.175
313.987
313.778
311.379
311.449
311.657
311.836
311.984
312.052
312.141
312.207
312.3
312.23
312.316
312.189
312.268
312.073
312.113
311.92
311.805
311.693
311.584
311.303
308.871
308.947
309.161
309.155
309.39
309.423
309.491
309.528
309.717
309.61
309.54
309.532
309.5
309.415
309.36
309.295
309.216
308.961
308.902
308.843
306.315
306.464
306.597
306.655
306.659
306.789
306.758
306.872
306.874
306.852
306.833
306.881
306.781
306.754
306.743
306.707
306.644
306.436
306.404
306.384
303.784
303.863
303.904
303.945
303.963
304.045
304.107
304.149
304.163
304.183
304.115
304.047
304.177
304.089
304.066
304.01
303.951
303.883
303.873
303.825
301.289
301.313
301.311
301.31
301.413
301.387
301.404
301.445
301.372
301.367
301.401
301.422
301.373
301.386
301.402
301.364
301.308
301.236
301.291
301.227
319.296
319.667
319.96
320.233
320.477
320.701
320.756
321.011
321.08
321.118
321.138
321.12
321.001
320.929
320.82
320.643
320.391
320.074
319.84
319.588
316.861
317.121
317.411
317.638
317.903
318.076
318.178
318.299
318.418
318.383
318.349
318.423
318.273
318.173
318.113
317.952
317.757
317.542
317.303
316.959
314.39
314.626
314.793
315.029
315.234
315.296
315.507
315.565
315.579
315.642
315.638
315.591
315.549
315.496
315.371
315.212
315.025
314.818
314.645
314.4
311.842
311.981
312.224
312.338
312.491
312.585
312.784
312.722
312.86
312.843
312.887
312.838
312.718
312.697
312.632
312.439
312.374
312.222
312.032
311.82
309.315
309.409
309.46
309.632
309.806
309.835
309.897
309.888
310.034
309.959
310.013
309.921
309.917
309.875
309.827
309.726
309.637
309.492
309.355
309.173
306.614
306.726
306.784
306.904
306.965
307.106
307.081
307.132
307.16
307.211
307.168
307.171
307.065
307.116
307.014
307.003
306.86
306.794
306.661
306.583
304.023
303.994
304.089
304.174
304.166
304.177
304.219
304.345
304.321
304.322
304.314
304.309
304.294
304.268
304.217
304.119
304.138
304.087
304.018
303.987
301.306
301.363
301.373
301.408
301.319
301.465
301.444
301.393
301.434
301.435
301.441
301.508
301.407
301.478
301.388
301.376
301.415
301.369
301.362
301.33
320.262
320.586
320.911
321.258
321.474
321.655
321.935
322.065
322.156
322.124
322.2
322.136
322.088
321.953
321.808
321.623
321.39
321.132
320.807
320.465
317.77
317.944
318.187
318.452
318.741
318.89
319.062
319.091
319.28
319.3
319.321
319.263
319.222
319.167
318.946
318.766
318.601
318.313
318.099
317.815
314.993
315.263
315.533
315.692
315.922
316.087
316.207
316.284
316.379
316.407
316.348
316.344
316.242
316.162
316.097
315.938
315.703
315.489
315.297
315.168
312.392
312.537
312.719
312.967
313.125
313.204
313.245
313.375
313.41
313.439
313.424
313.445
313.362
313.266
313.165
313.061
312.924
312.696
312.565
312.408
309.671
309.822
309.94
310.028
310.205
310.352
310.352
310.475
310.486
310.484
310.465
310.456
310.38
310.325
310.281
310.193
310.069
309.902
309.777
309.635
306.897
307.053
307.077
307.223
307.289
307.301
307.413
307.508
307.462
307.495
307.506
307.461
307.451
307.44
307.325
307.285
307.191
307.115
306.937
306.889
304.161
304.213
304.294
304.386
304.434
304.354
304.465
304.509
304.505
304.561
304.574
304.496
304.516
304.481
304.464
304.373
304.307
304.233
304.241
304.127
301.442
301.43
301.424
301.435
301.359
301.53
301.485
301.438
301.446
301.549
301.491
301.504
301.587
301.5
301.542
301.495
301.423
301.452
301.374
301.407
321.133
321.603
321.897
322.225
322.47
322.692
322.859
323.051
323.133
323.2
323.248
323.203
323.185
323.049
322.927
322.677
322.434
322.127
321.719
321.483
318.508
318.86
319.04
319.348
319.597
319.78
319.996
320.14
320.142
320.188
320.233
320.161
320.17
320.02
319.898
319.665
319.412
319.209
318.915
318.577
315.746
315.953
316.235
316.445
316.601
316.824
317.035
317.09
317.183
317.128
317.112
317.131
317.023
317.006
316.904
316.786
316.529
316.215
316.018
315.84
312.975
313.092
313.237
313.469
313.65
313.87
313.92
314.056
314.067
314.054
314.088
314.067
313.973
313.986
313.833
313.672
313.513
313.359
313.201
312.948
310.098
310.216
310.428
310.504
310.655
310.699
310.84
310.846
311.013
311.014
310.949
310.964
310.859
310.846
310.828
310.664
310.568
310.364
310.247
310.106
307.287
307.325
307.455
307.577
307.678
307.653
307.81
307.828
307.853
307.85
307.799
307.875
307.747
307.739
307.721
307.728
307.545
307.426
307.312
307.2
304.385
304.449
304.438
304.548
304.589
304.618
304.703
304.616
304.699
304.641
304.673
304.692
304.725
304.637
304.649
304.621
304.539
304.505
304.383
304.356
301.433
301.485
301.53
301.552
301.544
301.59
301.571
301.586
301.603
301.6
301.554
301.578
301.583
301.495
301.578
301.574
301.516
301.488
301.499
301.452
322.058
322.494
322.862
323.249
323.469
323.746
323.931
324.102
324.225
324.238
324.31
324.282
324.343
324.125
323.972
323.653
323.441
323.065
322.776
322.341
319.226
319.58
319.89
320.224
320.482
320.745
320.865
321.049
321.008
321.15
321.179
321.128
321.081
320.947
320.772
320.594
320.275
320.106
319.793
319.469
316.43
316.593
316.953
317.237
317.448
317.561
317.702
317.912
317.923
317.954
317.862
317.929
317.898
317.728
317.614
317.482
317.232
316.96
316.695
316.395
313.519
313.704
313.865
314.158
314.276
314.433
314.544
314.668
314.658
314.691
314.783
314.684
314.755
314.637
314.441
314.266
314.153
313.902
313.786
313.522
310.56
310.64
310.8
311.085
311.105
311.22
311.306
311.457
311.476
311.493
311.468
311.474
311.411
311.326
311.28
311.145
311.02
310.887
310.697
310.487
307.59
307.671
307.756
307.886
308.046
308.018
308.083
308.161
308.201
308.21
308.22
308.191
308.234
308.161
308.141
307.963
307.876
307.711
307.654
307.526
304.611
304.525
304.649
304.773
304.843
304.876
304.917
304.874
304.858
304.973
304.977
304.948
304.93
304.853
304.861
304.778
304.734
304.651
304.587
304.525
301.533
301.499
301.614
301.539
301.579
301.668
301.681
301.537
301.605
301.553
301.691
301.706
301.624
301.608
301.639
301.67
301.617
301.55
301.487
301.482
323.022
323.406
323.783
324.177
324.479
324.795
324.997
325.19
325.288
325.41
325.406
325.352
325.264
325.15
324.924
324.778
324.45
324.11
323.77
323.368
320.049
320.485
320.76
321.06
321.322
321.486
321.81
321.907
322
322.057
322.097
322.037
321.983
321.848
321.71
321.456
321.184
320.874
320.542
320.335
317.081
317.34
317.627
317.852
318.198
318.331
318.468
318.63
318.749
318.721
318.722
318.687
318.645
318.542
318.39
318.214
318.033
317.755
317.412
317.193
314.038
314.202
314.469
314.735
314.911
315.052
315.245
315.263
315.35
315.345
315.392
315.267
315.233
315.178
315.066
314.925
314.708
314.497
314.346
314.106
310.949
311.054
311.359
311.529
311.611
311.755
311.892
311.946
312.017
311.934
312.061
311.916
311.851
311.883
311.766
311.591
311.491
311.186
311.182
311.046
307.888
307.998
308.06
308.27
308.31
308.375
308.476
308.553
308.547
308.626
308.539
308.444
308.552
308.45
308.442
308.235
308.214
308.079
307.986
307.809
304.738
304.758
304.831
304.96
304.961
305.017
305.091
305.153
305.192
305.163
305.164
305.171
305.114
305.072
305.019
304.992
304.951
304.869
304.812
304.782
301.523
301.699
301.658
301.688
301.693
301.722
301.722
301.746
301.754
301.742
301.698
301.714
301.662
301.769
301.726
301.655
301.624
301.654
301.596
301.592
323.914
324.303
324.764
325.142
325.482
325.8
326.03
326.205
326.28
326.478
326.456
326.416
326.335
326.146
326.007
325.687
325.436
325.032
324.663
324.266
320.937
321.297
321.625
321.863
322.153
322.462
322.64
322.795
322.948
323.018
322.984
322.944
322.856
322.702
322.575
322.271
322.111
321.77
321.371
321.12
317.72
317.993
318.368
318.622
318.869
319.05
319.197
319.412
319.455
319.512
319.531
319.549
319.36
319.31
319.127
318.919
318.716
318.499
318.187
317.922
314.569
314.768
315.085
315.275
315.486
315.611
315.818
315.874
315.95
316.038
315.922
315.978
315.907
315.759
315.68
315.489
315.404
315.085
314.876
314.692
311.423
311.606
311.719
311.882
312.075
312.194
312.299
312.319
312.418
312.517
312.434
312.47
312.435
312.298
312.252
312.121
311.963
311.772
311.553
311.405
308.129
308.342
308.392
308.584
308.674
308.726
308.837
308.853
308.845
308.855
308.826
308.921
308.861
308.778
308.7
308.599
308.571
308.427
308.311
308.252
304.915
305.054
305.054
305.137
305.23
305.287
305.291
305.336
305.351
305.429
305.356
305.335
305.286
305.27
305.255
305.237
305.117
305.002
305.029
304.909
301.643
301.6
301.713
301.671
301.739
301.757
301.789
301.754
301.837
301.823
301.772
301.827
301.811
301.767
301.75
301.774
301.742
301.694
301.633
301.656
324.777
325.166
325.626
326.06
326.42
326.726
326.952
327.166
327.399
327.39
327.414
327.453
327.285
327.184
326.93
326.783
326.327
326.055
325.641
325.223
321.684
321.889
322.392
322.682
322.944
323.232
323.508
323.695
323.811
323.888
323.93
323.791
323.678
323.525
323.459
323.229
322.899
322.501
322.197
321.874
318.396
318.671
318.966
319.323
319.55
319.83
319.902
320.109
320.153
320.254
320.231
320.219
320.199
320.018
319.856
319.609
319.435
319.167
318.874
318.535
315.101
315.32
315.587
315.824
316.03
316.292
316.294
316.562
316.555
316.667
316.689
316.572
316.554
316.393
316.311
316.174
315.88
315.682
315.492
315.168
311.81
311.981
312.245
312.348
312.531
312.575
312.775
312.967
312.915
312.96
312.936
312.948
312.914
312.832
312.702
312.585
312.468
312.18
312.069
311.861
308.469
308.586
308.774
308.877
308.968
309.123
309.147
309.22
309.281
309.3
309.29
309.335
309.212
309.147
309.075
308.991
308.897
308.692
308.594
308.447
305.143
305.095
305.267
305.261
305.389
305.454
305.563
305.517
305.57
305.571
305.538
305.598
305.577
305.495
305.484
305.388
305.33
305.228
305.087
305.082
301.752
301.737
301.776
301.819
301.809
301.773
301.794
301.881
301.87
301.926
301.845
301.876
301.872
301.905
301.866
301.854
301.815
301.774
301.774
301.725
325.596
326.044
326.473
326.995
327.419
327.666
328.029
328.242
328.277
328.372
328.431
328.414
328.298
328.17
327.936
327.668
327.313
326.891
326.463
326.016
322.331
322.721
323.161
323.53
323.828
324.084
324.353
324.579
324.628
324.668
324.73
324.647
324.571
324.475
324.269
323.993
323.676
323.413
322.979
322.564
318.959
319.288
319.663
320.001
320.26
320.482
320.682
320.773
320.929
320.963
321.014
320.957
320.885
320.734
320.576
320.395
320.099
319.867
319.488
319.229
315.61
315.852
316.087
316.42
316.624
316.825
316.954
317.092
317.112
317.265
317.14
317.197
317.076
317.089
316.825
316.682
316.512
316.293
315.902
315.729
312.244
312.374
312.529
312.783
312.94
313.162
313.242
313.36
313.321
313.458
313.407
313.394
313.302
313.182
313.122
313.045
312.831
312.667
312.448
312.286
308.751
308.878
308.978
309.152
309.28
309.405
309.463
309.569
309.592
309.587
309.53
309.549
309.551
309.517
309.372
309.301
309.134
309.089
308.937
308.754
305.313
305.336
305.379
305.514
305.569
305.594
305.701
305.71
305.706
305.691
305.802
305.706
305.706
305.717
305.664
305.534
305.54
305.451
305.277
305.279
301.773
301.803
301.819
301.795
301.866
301.894
301.962
301.921
301.904
301.992
301.909
301.95
301.933
301.931
301.848
301.886
301.818
301.863
301.79
301.744
326.484
326.857
327.418
327.758
328.196
328.634
328.86
329.094
329.3
329.288
329.405
329.317
329.197
329.051
328.8
328.58
328.186
327.758
327.262
326.927
323.073
323.388
323.804
324.287
324.581
324.876
325.156
325.366
325.441
325.555
325.577
325.495
325.461
325.221
324.994
324.853
324.406
324.1
323.697
323.422
319.658
319.864
320.305
320.617
320.876
321.144
321.388
321.544
321.605
321.646
321.629
321.627
321.568
321.412
321.252
320.976
320.707
320.495
320.096
319.825
316.071
316.394
316.677
316.855
317.18
317.314
317.569
317.663
317.749
317.78
317.694
317.721
317.684
317.668
317.38
317.264
317.043
316.744
316.467
316.229
312.523
312.698
312.997
313.175
313.406
313.514
313.728
313.789
313.804
313.906
313.875
313.843
313.802
313.714
313.584
313.45
313.267
313.049
312.897
312.715
308.996
309.091
309.276
309.423
309.54
309.724
309.724
309.854
309.861
309.881
309.884
309.912
309.875
309.754
309.758
309.635
309.477
309.302
309.151
309.034
305.413
305.458
305.533
305.733
305.773
305.817
305.871
305.897
305.949
305.957
306.022
305.965
305.924
305.874
305.838
305.808
305.707
305.596
305.52
305.428
301.827
301.846
301.899
301.973
301.873
302.067
301.965
301.971
301.918
301.955
302.075
301.928
301.987
301.995
301.931
301.927
301.888
301.928
301.874
301.858
327.214
327.624
328.162
328.641
329.022
329.499
329.778
329.947
330.202
330.246
330.289
330.231
330.163
329.971
329.718
329.427
329.091
328.593
328.113
327.678
323.713
324.125
324.596
324.959
325.345
325.677
325.934
326.084
326.236
326.309
326.294
326.337
326.16
326.023
325.864
325.575
325.221
324.885
324.411
324.02
320.15
320.478
320.807
321.183
321.55
321.791
322
322.226
322.207
322.373
322.369
322.309
322.188
322.094
321.933
321.696
321.45
321.083
320.728
320.336
316.636
316.817
317.161
317.404
317.578
317.859
318.057
318.133
318.282
318.332
318.452
318.271
318.211
318.175
317.937
317.757
317.537
317.315
316.906
316.732
312.969
313.16
313.441
313.645
313.827
313.994
314.088
314.199
314.223
314.323
314.264
314.236
314.141
314.103
314.058
313.786
313.691
313.394
313.196
313.03
309.213
309.406
309.48
309.719
309.884
309.97
310.162
310.206
310.256
310.178
310.218
310.197
310.229
310.011
310.051
309.883
309.784
309.614
309.488
309.304
305.538
305.613
305.756
305.856
305.952
306.026
306.063
306.093
306.158
306.119
306.15
306.156
306.115
306.089
305.941
305.891
305.89
305.747
305.688
305.559
301.871
301.889
301.939
301.977
301.995
301.987
302.059
302.054
302.118
302.026
302.044
302.024
302.097
301.964
301.989
302.028
301.975
301.891
301.908
301.913
327.947
328.355
328.899
329.462
329.938
330.334
330.575
330.833
331.076
331.127
331.158
331.092
330.932
330.756
330.603
330.236
329.859
329.364
328.865
328.451
324.284
324.791
325.163
325.666
326.053
326.388
326.634
326.776
326.939
327.068
327.139
327.047
326.945
326.761
326.527
326.276
325.906
325.541
325.134
324.645
320.731
321.092
321.415
321.823
322.161
322.326
322.58
322.835
322.763
322.925
323.002
322.928
322.816
322.711
322.505
322.237
321.951
321.665
321.304
320.879
317.021
317.26
317.509
317.821
318.187
318.346
318.587
318.722
318.737
318.883
318.848
318.783
318.709
318.645
318.42
318.228
317.972
317.744
317.456
317.163
313.369
313.499
313.764
313.981
314.181
314.345
314.473
314.581
314.647
314.66
314.684
314.665
314.564
314.496
314.373
314.121
314.015
313.833
313.53
313.402
309.48
309.647
309.785
309.925
310.105
310.263
310.375
310.452
310.556
310.508
310.488
310.518
310.406
310.329
310.304
310.138
309.976
309.923
309.7
309.546
305.715
305.848
305.855
306.002
306.142
306.159
306.271
306.302
306.346
306.301
306.313
306.377
306.299
306.233
306.215
306.151
306.061
305.898
305.774
305.721
301.938
301.909
301.966
302.002
302.07
302.059
302.11
302.125
302.076
302.127
302.094
302.1
302.105
302.154
302.101
302.021
302.043
302.03
301.938
301.947
328.543
329.095
329.617
330.208
330.604
331.074
331.336
331.618
331.797
331.905
331.977
331.884
331.777
331.661
331.332
330.948
330.644
330.155
329.536
329.182
324.933
325.284
325.796
326.314
326.729
326.976
327.318
327.425
327.609
327.74
327.824
327.737
327.641
327.497
327.221
326.872
326.666
326.171
325.732
325.355
321.221
321.587
321.938
322.302
322.668
322.971
323.148
323.374
323.415
323.572
323.654
323.564
323.45
323.272
323.118
322.899
322.49
322.199
321.862
321.388
317.424
317.707
318.041
318.328
318.568
318.866
319.028
319.126
319.27
319.304
319.371
319.341
319.217
319.112
318.899
318.735
318.453
318.134
317.908
317.618
313.588
313.804
314.045
314.301
314.491
314.689
314.85
314.849
315.004
315.036
315.053
315.056
314.892
314.89
314.722
314.526
314.409
314.216
313.958
313.657
309.765
309.919
310
310.209
310.357
310.499
310.606
310.738
310.739
310.754
310.796
310.794
310.744
310.58
310.575
310.442
310.296
310.109
309.978
309.829
305.797
305.953
306.038
306.157
306.23
306.349
306.399
306.418
306.517
306.463
306.496
306.465
306.468
306.406
306.337
306.253
306.202
306.073
305.937
305.904
302.016
302.012
301.935
302.132
302.09
302.131
302.118
302.198
302.173
302.2
302.185
302.202
302.132
302.172
302.068
302.052
302.133
302.043
301.993
301.988
329.184
329.675
330.306
330.916
331.358
331.728
332.098
332.32
332.542
332.675
332.657
332.633
332.487
332.369
332.118
331.74
331.293
330.807
330.332
329.837
325.445
325.875
326.454
326.876
327.328
327.628
327.995
328.113
328.303
328.356
328.451
328.372
328.255
328.102
327.862
327.6
327.197
326.72
326.284
325.902
321.704
321.957
322.401
322.844
323.185
323.438
323.674
323.933
324.006
324.114
324.071
324.07
324.03
323.804
323.602
323.359
323.031
322.633
322.325
321.952
317.845
318.008
318.348
318.728
319.014
319.204
319.419
319.623
319.693
319.732
319.769
319.746
319.651
319.542
319.4
319.231
318.891
318.602
318.266
317.996
313.891
314.206
314.38
314.607
314.789
315.054
315.191
315.275
315.376
315.391
315.464
315.397
315.361
315.233
315.062
314.897
314.725
314.522
314.187
314.07
309.968
310.114
310.325
310.463
310.589
310.786
310.859
310.919
310.965
311.093
311.032
310.966
310.942
310.868
310.765
310.698
310.525
310.366
310.202
309.933
305.956
306.092
306.199
306.36
306.378
306.531
306.559
306.587
306.52
306.684
306.701
306.615
306.605
306.592
306.45
306.4
306.317
306.182
306.109
306.056
302.042
302.088
302.113
302.091
302.187
302.214
302.17
302.253
302.287
302.217
302.231
302.177
302.22
302.152
302.248
302.127
302.1
302.075
302.105
301.974
329.701
330.27
330.911
331.476
331.92
332.375
332.743
332.993
333.297
333.384
333.311
333.364
333.227
332.955
332.746
332.309
331.965
331.406
330.94
330.41
325.856
326.432
326.933
327.376
327.882
328.168
328.467
328.738
328.902
329.016
329.03
328.973
328.797
328.674
328.467
328.087
327.774
327.323
326.804
326.478
322.084
322.492
322.853
323.263
323.622
323.929
324.218
324.339
324.503
324.596
324.622
324.617
324.463
324.321
324.053
323.812
323.541
323.231
322.783
322.394
318.158
318.45
318.826
319.097
319.421
319.628
319.859
320.043
320.102
320.135
320.191
320.157
320.086
319.995
319.736
319.542
319.323
318.974
318.644
318.306
314.168
314.358
314.733
314.882
315.164
315.262
315.485
315.594
315.644
315.697
315.747
315.706
315.621
315.553
315.424
315.205
315.011
314.758
314.559
314.283
310.087
310.271
310.464
310.723
310.886
310.979
311.117
311.151
311.149
311.234
311.251
311.227
311.19
311.112
311.067
310.911
310.681
310.568
310.422
310.129
306.007
306.251
306.342
306.399
306.446
306.555
306.598
306.743
306.724
306.766
306.822
306.813
306.782
306.661
306.621
306.571
306.445
306.34
306.255
306.099
302.033
302.069
302.133
302.14
302.2
302.219
302.228
302.261
302.294
302.284
302.297
302.25
302.262
302.224
302.164
302.217
302.145
302.154
302.103
302.072
330.239
330.841
331.482
332.129
332.49
333.004
333.366
333.632
333.802
333.873
333.968
333.998
333.838
333.669
333.361
332.975
332.556
331.931
331.477
330.96
326.415
326.932
327.384
327.881
328.339
328.729
328.994
329.275
329.427
329.515
329.5
329.525
329.371
329.217
328.985
328.642
328.247
327.783
327.248
326.94
322.437
322.789
323.237
323.638
324.114
324.378
324.628
324.863
324.953
324.98
325.025
324.99
324.916
324.752
324.553
324.317
323.98
323.565
323.108
322.724
318.441
318.766
319.145
319.48
319.77
319.971
320.213
320.326
320.549
320.546
320.581
320.473
320.38
320.285
320.112
319.919
319.603
319.358
319.028
318.699
314.389
314.613
314.861
315.172
315.385
315.55
315.743
315.886
315.951
316.038
315.997
315.935
315.883
315.806
315.725
315.547
315.306
315.026
314.797
314.552
310.302
310.466
310.678
310.86
311.032
311.135
311.319
311.391
311.426
311.452
311.45
311.414
311.366
311.301
311.23
311.079
310.876
310.749
310.572
310.409
306.17
306.246
306.427
306.456
306.635
306.807
306.785
306.735
306.823
306.845
306.848
306.809
306.924
306.831
306.762
306.623
306.575
306.446
306.339
306.273
302.166
302.143
302.091
302.217
302.276
302.22
302.283
302.302
302.291
302.323
302.3
302.329
302.297
302.336
302.249
302.202
302.221
302.095
302.158
302.139
330.657
331.256
331.947
332.5
333.025
333.408
333.902
334.165
334.328
334.444
334.477
334.496
334.371
334.116
333.798
333.473
333.036
332.463
331.954
331.43
326.692
327.19
327.783
328.309
328.728
329.08
329.452
329.613
329.929
329.965
330.011
329.977
329.763
329.693
329.442
329.139
328.717
328.158
327.757
327.267
322.773
323.191
323.609
324.022
324.419
324.767
324.95
325.182
325.273
325.45
325.426
325.435
325.268
325.158
324.95
324.646
324.286
323.988
323.435
323.134
318.674
318.964
319.33
319.774
320.022
320.286
320.506
320.683
320.793
320.871
320.812
320.924
320.74
320.638
320.441
320.239
319.928
319.56
319.267
319.038
314.548
314.803
315.117
315.389
315.569
315.855
315.937
316.122
316.258
316.249
316.286
316.18
316.175
316.117
315.993
315.784
315.5
315.273
314.955
314.763
310.406
310.584
310.789
311.007
311.26
311.312
311.407
311.518
311.577
311.64
311.638
311.594
311.59
311.517
311.355
311.235
311.066
310.928
310.705
310.571
306.325
306.321
306.476
306.63
306.675
306.842
306.857
306.948
306.995
307.072
306.981
306.963
306.912
306.928
306.912
306.787
306.672
306.589
306.418
306.408
302.114
302.108
302.179
302.248
302.276
302.257
302.267
302.23
302.377
302.277
302.272
302.327
302.291
302.293
302.246
302.234
302.187
302.175
302.173
302.149
331.031
331.714
332.273
332.921
333.481
333.816
334.201
334.607
334.752
334.957
334.98
334.897
334.807
334.651
334.306
333.922
333.406
332.907
332.279
331.758
327.076
327.597
328.15
328.645
329.097
329.54
329.835
330.056
330.248
330.292
330.346
330.33
330.271
330.083
329.741
329.418
329.012
328.564
328.02
327.513
323.015
323.393
323.838
324.355
324.729
325.024
325.378
325.527
325.591
325.689
325.741
325.761
325.648
325.433
325.227
324.913
324.551
324.262
323.711
323.453
318.916
319.153
319.582
319.953
320.217
320.547
320.77
320.887
321.028
321.083
321.128
321.053
320.96
320.822
320.679
320.5
320.126
319.852
319.433
319.093
314.767
315.007
315.238
315.612
315.77
316.064
316.136
316.32
316.38
316.457
316.49
316.39
316.414
316.185
316.153
315.921
315.584
315.357
315.065
314.977
310.518
310.802
310.915
311.104
311.279
311.49
311.642
311.647
311.796
311.793
311.801
311.743
311.717
311.625
311.536
311.394
311.251
311.017
310.84
310.634
306.355
306.449
306.566
306.7
306.825
306.893
306.932
306.96
307.03
307.112
307.071
307.043
306.959
306.988
306.905
306.832
306.786
306.672
306.546
306.487
302.148
302.136
302.207
302.22
302.286
302.359
302.299
302.337
302.33
302.363
302.405
302.372
302.339
302.319
302.295
302.267
302.304
302.214
302.163
302.151
331.262
331.929
332.566
333.076
333.723
334.157
334.507
334.878
334.975
335.206
335.231
335.155
335.081
334.846
334.656
334.178
333.598
333.139
332.535
332.045
327.261
327.761
328.358
328.87
329.302
329.772
330.052
330.2
330.495
330.535
330.657
330.512
330.427
330.283
329.999
329.63
329.283
328.797
328.246
327.79
323.203
323.647
324.022
324.5
324.871
325.304
325.546
325.668
325.861
325.907
325.983
325.895
325.812
325.603
325.46
325.199
324.859
324.416
323.982
323.565
318.991
319.377
319.698
320.08
320.387
320.646
320.893
321.074
321.229
321.244
321.326
321.246
321.176
320.949
320.808
320.593
320.306
319.914
319.641
319.327
314.841
315.14
315.397
315.724
315.898
316.098
316.29
316.468
316.453
316.56
316.597
316.578
316.552
316.348
316.212
316.051
315.839
315.521
315.274
315.002
310.643
310.787
311.046
311.29
311.366
311.552
311.631
311.776
311.774
311.85
311.906
311.859
311.809
311.718
311.558
311.468
311.341
311.074
310.918
310.798
306.416
306.524
306.63
306.695
306.835
306.949
307.016
307.079
307.097
307.085
307.077
307.204
307.05
307.007
307.035
306.83
306.766
306.632
306.624
306.486
302.159
302.122
302.197
302.257
302.272
302.27
302.381
302.386
302.386
302.393
302.369
302.401
302.367
302.345
302.325
302.339
302.313
302.208
302.161
302.167
)
;

boundaryField
{
    hotSide
    {
        type            fixedGradient;
        gradient        nonuniform List<scalar> 
400
(
321.511
322.87
325.591
329.677
335.133
341.965
350.181
359.788
370.794
383.208
397.037
412.289
428.971
447.088
466.647
487.651
510.105
534.011
559.372
586.191
323.738
325.08
327.767
331.802
337.194
343.949
352.078
361.591
372.498
384.81
398.537
413.687
430.268
448.289
467.755
488.672
511.043
534.872
560.161
586.913
326.149
327.47
330.116
334.091
339.406
346.071
354.099
363.503
374.296
386.491
400.101
415.136
431.606
449.52
468.885
489.706
511.988
535.735
560.948
587.63
328.704
330
332.597
336.503
341.73
348.292
356.205
365.485
376.15
388.215
401.695
416.604
432.954
450.753
470.009
490.73
512.919
536.579
561.714
588.325
331.33
332.599
335.142
338.97
344.099
350.546
358.332
367.477
378.003
389.928
403.271
418.047
434.27
451.949
471.095
491.712
513.807
537.382
562.439
588.978
333.918
335.158
337.643
341.389
346.414
352.74
360.392
369.397
379.779
391.562
404.765
419.407
435.503
453.065
472.101
492.618
514.622
538.114
563.096
589.569
336.321
337.531
339.959
343.622
348.544
354.751
362.274
371.142
381.385
393.031
406.101
420.618
436.595
454.047
472.983
493.409
515.33
538.747
563.663
590.076
338.36
339.543
341.92
345.509
350.339
356.44
363.847
372.595
382.718
394.244
407.2
421.608
437.485
454.844
473.695
494.045
515.897
539.253
564.114
590.478
339.852
341.015
343.352
346.885
351.645
357.665
364.985
373.643
383.675
395.113
407.984
422.312
438.116
455.407
474.197
494.491
516.294
539.606
564.428
590.758
340.643
341.795
344.11
347.613
352.334
358.311
365.584
374.193
384.176
395.567
408.393
422.679
438.443
455.699
474.456
494.722
516.498
539.788
564.589
590.901
340.643
341.795
344.11
347.613
352.334
358.311
365.584
374.193
384.176
395.567
408.393
422.679
438.443
455.699
474.456
494.722
516.498
539.788
564.589
590.901
339.852
341.015
343.352
346.885
351.645
357.665
364.985
373.643
383.675
395.113
407.984
422.312
438.116
455.407
474.197
494.491
516.294
539.606
564.428
590.758
338.36
339.543
341.92
345.509
350.339
356.44
363.847
372.595
382.718
394.244
407.2
421.608
437.485
454.844
473.695
494.045
515.897
539.253
564.114
590.478
336.321
337.531
339.959
343.622
348.544
354.751
362.274
371.142
381.385
393.031
406.101
420.618
436.595
454.047
472.983
493.409
515.33
538.747
563.663
590.076
333.918
335.158
337.643
341.389
346.414
352.74
360.392
369.397
379.779
391.562
404.765
419.407
435.503
453.065
472.101
492.618
514.622
538.114
563.096
589.569
331.33
332.599
335.142
338.97
344.099
350.546
358.332
367.477
378.003
389.928
403.271
418.047
434.27
451.949
471.095
491.712
513.807
537.382
562.439
588.978
328.704
330
332.597
336.503
341.73
348.292
356.205
365.485
376.15
388.215
401.695
416.604
432.954
450.753
470.009
490.73
512.919
536.579
561.714
588.325
326.149
327.47
330.116
334.091
339.406
346.071
354.099
363.503
374.296
386.491
400.101
415.136
431.606
449.52
468.885
489.706
511.988
535.735
560.948
587.63
323.738
325.08
327.767
331.802
337.194
343.949
352.078
361.591
372.498
384.81
398.537
413.687
430.268
448.289
467.755
488.672
511.043
534.872
560.161
586.913
321.511
322.87
325.591
329.677
335.133
341.965
350.181
359.788
370.794
383.208
397.037
412.289
428.971
447.088
466.647
487.651
510.105
534.011
559.372
586.191
)
;
    }
    coldSide
    {
        type            mixed;
        refValue        uniform 300;
        refGradient     uniform 0;
        valueFraction   uniform 0.991591;
        source          uniform 0;
        value           nonuniform List<scalar> 
400
(
300.011
300.011
300.011
300.012
300.012
300.013
300.013
300.014
300.015
300.015
300.015
300.016
300.016
300.017
300.017
300.017
300.018
300.018
300.018
300.018
300.011
300.011
300.011
300.012
300.012
300.013
300.014
300.013
300.015
300.015
300.016
300.016
300.016
300.017
300.018
300.017
300.018
300.018