/*--------------------------------*- C++ -*----------------------------------*\
| =========                 |                                                 |
| \\      /  F ield         | OpenFOAM: The Open Source CFD Toolbox           |
|  \\    /   O peration     | Version:  2212                                  |
|   \\  /    A nd           | Website:  www.openfoam.com                      |
|    \\/     M anipulation  |                                                 |
\*---------------------------------------------------------------------------*/
FoamFile
{
    version     2.0;
    format      ascii;
    arch        "LSB;label=32;scalar=64";
    class       volScalarField;
    location    "0";
    object      relativeErrorField;
}
// * * * * * * * * * * * * * * * * * * * * * * * * * * * * * * * * * * * * * //

dimensions      [0 0 0 1 0 0 0];

internalField   nonuniform List<scalar> 
3200
(
0.0026487
0.000130788
0.00462724
0.0101536
0.00863108
0.0150406
0.00798472
0.0141991
0.0113869
0.0156581
0.0119497
0.0128901
0.0136675
0.0116067
0.0141208
0.0132407
0.00916347
0.00470922
0.00422353
0.0094847
0.00725193
0.000931624
0.00172836
0.00045419
0.00842276
0.00582301
0.00540812
0.0102032
0.00403362
0.0135441
0.00572309
0.0100102
0.01318
0.0100872
0.0033728
0.0108549
0.0101961
0.00797873
0.00525225
0.0064155
0.00376291
0.000673222
0.000604356
0.00541748
0.0134747
0.00775303
0.0116948
0.00729923
0.00619945
0.0105551
0.00608858
0.00362133
0.00987376
0.00954709
0.00154589
0.000867822
0.00811284
0.0058597
0.00460432
0.00817029
0.00955097
0.00253587
0.00105074
0.00852694
0.0103506
0.00371907
0.00882398
0.0105406
0.0103805
0.0176089
0.00718378
0.00749144
0.0145809
0.00357242
0.00713441
0.0084943
0.00791053
0.00450017
0.00374194
0.00359403
0.00745935
0.000657779
0.00829253
0.00573022
0.00218348
0.000579083
0.00515615
0.0103132
0.00752709
0.00607092
0.0100998
0.00642949
0.000807855
0.00576357
0.00529764
0.00805661
0.000779524
0.00506045
0.00126921
0.0040458
0.0135208
0.00554546
0.00414187
0.00414623
0.0107386
0.00154109
0.00331296
0.000668861
0.0117692
0.00904542
0.000904696
0.00105211
0.00467479
0.00683683
0.00532861
0.00641871
0.0055368
0.00322839
0.0001028
0.00214913
0.00493099
0.00726536
0.00172859
0.00265698
0.00281863
0.00381714
0.000548697
0.00639111
0.00627437
0.00476091
0.0103466
0.000601793
0.00077629
0.00190726
0.00561274
0.0039458
0.00225857
0.000957119
0.00429301
0.000201412
0.00127442
0.00798151
0.00345479
0.00446597
0.00151227
0.00248922
0.00804311
0.00812427
0.00110786
0.00552473
0.000604661
0.00901975
0.00638031
0.00167589
0.00287187
0.00488316
0.00234758
6.96158e-05
0.00453415
0.00263186
0.00577897
0.000259552
0.00163902
0.00802761
0.00804926
0.00498493
0.00988038
0.0164258
0.019265
0.00996782
0.0109294
0.00635763
0.00933287
0.0087559
0.0120155
0.00631592
0.00680286
0.00580277
0.00619695
0.0057182
0.00530683
0.000969591
0.00283479
0.00211295
0.005788
0.00220414
0.00894304
0.000103195
0.00510351
0.000129137
0.000312702
0.00422581
0.00246608
0.014206
0.000736907
0.0157779
0.00199068
0.00050924
0.000325296
0.00737567
0.00454574
0.00226119
0.00456462
0.00693776
0.00976953
0.00619581
0.00498295
0.0117749
0.014426
0.00586267
0.00242376
0.0133016
0.00135975
0.00405839
0.00719453
0.0132694
0.000382911
0.00407341
0.00075566
0.0114237
0.00323464
0.00887176
0.00674589
0.00504162
0.00704152
0.00774608
0.0128926
0.00790055
0.00411623
0.00312519
0.00510297
0.00816158
0.010818
0.00683073
0.0122345
0.00606169
0.00910369
0.00123296
0.00114552
0.00131002
0.00942411
0.00101023
0.00271286
0.00345373
0.00152243
0.00674444
0.00819716
0.00659388
0.014359
0.000440399
0.00290856
0.0129026
0.00843981
0.00538461
0.00723902
0.00725615
0.00306907
0.00356772
0.00386217
0.00331311
0.000721913
0.0011728
0.000307887
0.00807815
0.00774464
0.012218
0.0089014
0.00315999
1.71325e-05
0.00624287
0.00383648
5.77848e-05
0.00934306
0.0041371
0.00586152
0.00384283
0.00516818
0.00284832
0.00402452
0.000876758
0.0020516
0.00344813
0.00205147
0.00419215
0.00111902
0.00822904
0.00368036
0.0086637
0.00144377
0.00363923
0.000629347
0.00632169
0.00102344
0.00139398
0.001781
0.00215823
0.00112173
0.00854805
0.00443562
0.00381035
0.00265418
0.00532016
0.00107497
0.000964492
0.00535746
0.00557929
0.00753185
0.00258305
0.00376765
0.000753327
0.000692229
0.00334424
0.0101483
0.00830487
0.00507879
0.00758877
0.00389296
0.00222803
0.000460475
0.000451139
0.00259203
0.00284546
0.00552152
0.000339064
0.00826838
0.0123985
0.0118783
0.00717865
0.00601117
0.00323399
0.00719257
0.00819031
0.00872966
0.0116706
0.0132048
0.0139429
0.00368425
0.00419537
0.000422491
0.00350617
0.00445849
0.000479762
0.00748298
0.0146432
0.00920093
0.0101107
0.00939403
0.00776263
0.00891441
0.0139857
0.00282149
0.00957001
0.00723115
0.0139603
0.00937558
0.00537033
0.00271037
0.00746166
0.00523318
0.00933695
0.00115059
0.00354074
0.00682781
0.000140166
0.00447893
0.0117791
0.0105873
0.00312772
0.00796753
0.00759558
0.00705104
0.0068748
0.00515698
0.00393735
0.00731166
0.00844236
0.00284461
0.000999604
0.00237561
0.00341013
0.000911073
0.00679354
0.00577716
0.00119617
0.0026834
0.00610195
0.00268028
0.0144687
0.00121334
0.00196648
0.00331742
0.00456489
0.00845432
0.00761782
0.005276
0.00474278
0.000909125
0.0015833
0.00118833
0.00192674
0.00247853
0.00212084
0.00442766
0.000693297
0.0111479
0.00220503
0.00851974
0.0108874
0.0053075
0.0036203
0.0059815
0.0045316
0.000514992
0.00178873
0.00549524
0.00651057
0.00148362
0.00300386
0.00949762
0.00467871
0.00269199
0.00483526
0.013112
0.00426984
0.00879387
0.00507528
0.00103126
0.00429589
0.00332133
0.00387025
0.00273587
0.000589362
0.000561099
0.0068448
0.00747222
0.00463798
0.00858104
0.00726782
0.00233938
0.00387899
0.0063646
0.00253486
0.00604991
0.00200969
0.000685849
0.00567829
0.000387121
0.00171203
0.0024959
0.00347354
0.00200165
0.00124442
0.000136344
0.00214411
0.000359291
0.00120497
0.00425903
0.000940998
0.00141253
0.00120967
0.0145847
0.00293969
0.00561499
0.00262888
0.00125642
0.00397977
0.00144519
0.00551792
0.00752577
0.00541522
0.00124358
0.00817826
0.00377395
0.000379325
0.00146736
0.000315614
0.0011574
0.00305359
5.62068e-05
0.00287356
0.00187929
0.00653163
0.00222541
0.0037605
0.00633567
0.00195583
0.013627
0.00775977
0.0103278
0.000492652
0.00272917
0.00940643
0.00958017
0.00582425
0.0125777
0.00711263
0.00751812
0.00248773
0.00606184
0.00809605
0.00530903
0.000549628
0.00466214
0.000215393
0.0122209
0.000889444
0.00805845
0.000858275
0.00590853
0.00138844
0.00145218
0.00441495
0.00111724
0.0026771
0.000455352
0.00242262
0.000863428
0.00558674
0.00134574
0.00668086
0.00787107
0.011428
0.0036343
0.0100865
0.00848362
0.0135254
0.00844008
0.0085981
0.00473211
0.00569465
0.0129386
0.00618319
0.00446941
0.00658329
0.0105219
0.00225635
0.0061625
0.000314064
0.00416787
0.00978724
0.00408
0.00159003
0.0120449
0.00399761
0.000671715
0.0129292
0.0100319
0.00407268
0.00439089
0.00174304
0.00088895
0.00389182
0.00491805
0.00211493
0.0112676
0.006862
0.0128923
0.0105776
0.00288065
0.00156885
0.0019006
0.00200032
0.000574095
0.00953285
0.00699236
0.00616874
0.00592081
0.0113545
0.00902179
0.00849731
0.00535472
0.00439289
0.00574301
0.00643593
0.000576224
0.00534247
0.00135413
0.006475
0.00514659
0.00078614
0.00174834
0.000435255
0.000333314
0.0104526
0.0123906
0.0056941
0.00754798
0.00180463
0.0116507
0.00545838
0.00379074
0.00886073
0.00565112
0.00450909
0.0042651
5.91495e-05
0.000321223
0.00637158
0.00471723
0.00992885
0.00399765
0.0030993
0.00644726
0.00737752
0.002691
5.10092e-05
0.010953
0.00448088
0.00552124
0.00216153
0.00138345
0.00253695
0.00141981
0.00239466
0.00501456
0.00257728
0.00616218
0.000433748
0.00643883
0.000260938
0.00882392
0.00298571
0.00221164
0.00438147
0.00199996
0.000721962
0.0026484
0.00535616
0.00325358
0.00614109
0.000468739
0.00487949
0.000836572
0.00479094
0.00194369
0.0046139
0.00563553
0.00343907
0.00166642
0.00478617
0.0027594
0.000863107
0.00174919
0.0028696
0.011856
0.012431
0.00287485
0.00669866
0.0043828
0.00449703
0.000409018
0.00107335
0.00101568
0.000838022
0.00417132
0.00289434
0.00537014
0.00664749
0.00580849
0.00531435
0.00412196
0.00148409
0.00170061
0.00154266
0.00567874
0.00276603
0.00512522
0.00982594
0.00895289
0.00676428
0.00637254
0.00260218
0.00644249
0.0021777
0.00676159
0.00614069
0.00320696
0.00669082
0.00589836
0.00881169
0.00652271
0.00132065
0.00287982
0.00177265
0.000748416
0.00567398
0.00844706
0.00705471
0.000371898
0.00849758
0.00261336
0.00722321
0.00338459
0.00506287
0.000620858
0.00189864
0.00705704
0.00331381
0.00142144
0.00440011
0.00696823
0.00402561
0.00193398
0.00148701
0.00525001
0.00825356
0.0117934
0.00884862
0.0049038
0.0014485
0.000577589
6.76729e-05
0.0015362
0.00117368
0.00791883
0.00457024
0.00774623
0.00283354
0.00318061
0.00728227
0.00453706
0.00429826
0.00176107
0.00318341
0.00264137
0.00991301
0.00318116
6.78348e-05
0.00389693
0.00427551
0.00513961
0.0069611
0.00500923
0.00234695
0.00470332
0.00241512
0.00125064
0.000914484
0.0026352
9.8388e-05
0.00580477
0.00863328
0.00116076
0.00589666
0.0101226
0.00397838
0.00602244
0.00407121
0.000182022
0.00358289
0.00173752
0.00431727
0.0013194
0.00615429
0.000628067
0.00395306
0.00129063
0.00366037
0.00233574
0.00040028
0.00194482
0.0020966
0.00193751
0.00691649
0.00468354
0.0023554
0.00566025
0.00587133
0.000807824
0.0038736
0.0019444
0.00400111
0.00780003
0.00187803
0.00586115
0.0093198
0.00680403
0.00170722
0.00296774
0.00620458
0.00133662
0.000336809
0.000777421
0.00529295
0.00319723
0.0085128
0.0046814
0.00461518
0.00681789
0.00944549
0.000173146
0.00252728
0.00259448
0.000835195
0.00802133
0.0013668
0.00318195
0.00690356
0.00332544
0.00176761
0.00798144
0.00368372
0.00876769
0.00250852
0.00252832
0.00532988
0.00482718
0.0066447
0.00086844
0.000296779
4.6059e-05
0.00378035
0.000182743
0.00541175
0.00209653
0.00452195
0.00106116
0.00369923
0.00125185
0.0137609
0.00727624
0.000307963
0.000882974
0.00030592
0.00322889
0.00137026
0.00479346
0.00238095
0.00237814
0.000772976
4.58149e-05
4.33447e-05
0.00204231
0.00221625
0.000417218
0.00123827
0.000328415
0.00217524
0.00216176
0.0128242
0.00394046
0.00327391
0.00297673
0.00175126
0.00235308
0.00314632
0.0127729
0.00397049
0.00147798
0.00291191
0.00454615
0.00101159
0.00998785
0.000114562
0.00518398
0.00396041
0.0029302
0.00291641
0.00644962
0.0063335
0.00820046
0.00440192
0.00125574
0.000560672
0.00345698
0.00504601
0.00255283
0.00455126
0.00477105
0.0056015
0.00422531
0.000907893
5.952e-05
0.00102799
0.00475487
0.00243392
0.000699518
0.00106315
0.0119289
0.000904768
0.00180877
0.00223456
0.00250066
0.00864108
0.00466886
0.000502888
0.00103347
0.000749576
0.0043636
0.000139377
0.000872931
0.000639517
0.00747533
0.00186401
0.00188609
0.00143382
0.0157201
0.000483156
0.00578613
0.00199171
0.00584737
0.0042868
0.00314763
0.00182326
0.0114447
0.00336065
0.00358564
0.010872
0.000456399
0.00323999
0.00345627
0.00433311
0.0031007
0.00471754
0.0010588
0.00173951
0.000315015
0.000262013
0.00433072
0.00719402
0.00681774
0.000993325
0.00111623
0.00103243
0.00705892
0.00246708
0.0020763
0.00798919
0.00103425
0.00186228
8.21258e-05
0.00332322
0.00163489
0.00507446
0.00851366
0.000122286
0.00034657
0.00108369
0.0112223
0.00154847
0.00855707
0.00396806
0.00674086
0.00306742
0.00244187
0.00996883
0.000631889
0.00131947
0.0100209
0.00317627
0.00312061
0.00496763
0.00922605
0.00133381
0.00256703
0.00253901
0.00526685
0.00442075
0.0039279
0.00269658
0.012762
0.0102767
0.00138385
0.00211672
0.00439518
0.00699698
0.000445529
0.00436481
0.00114786
0.000255333
0.00313251
0.000286695
0.00266773
0.00073234
0.00573905
0.00289035
0.000930238
0.00656076
0.00671452
0.0134244
0.0137312
0.00259509
0.00304749
0.00669504
0.00481378
0.00296243
0.00105644
0.00844509
0.00221311
0.000413201
0.00116608
0.00205843
0.000746703
0.00365936
0.00297367
0.000173646
0.00783458
0.00639026
0.00904523
0.00746643
0.00353265
0.00652834
0.00583572
0.00253608
0.000244114
0.00287278
9.01367e-05
0.00535196
0.000421158
0.00262212
0.00652485
0.000824397
0.00366399
0.00213131
0.000655715
0.0019841
0.00273694
0.00549365
0.00657041
0.00291366
0.00637637
0.000557383
0.00695195
0.00464971
0.00172206
0.00669708
0.01149
0.00229254
0.00442874
0.00230764
0.0026485
0.00500831
0.00622128
0.00163822
4.86442e-05
0.000437639
0.00102487
0.00165129
0.00469103
0.0189159
0.00227033
0.01127
0.00273156
0.00076048
0.00293356
0.00382431
0.00335026
0.00332678
0.00799644
0.00280885
9.2278e-05
0.00157107
0.00653921
0.00252834
0.00635131
0.00565158
0.00401691
0.00068654
0.00609006
0.00257414
0.00266081
0.000303127
0.000281493
0.00390394
0.00431277
0.00165264
0.00562295
0.00204995
0.00472001
0.00112735
0.00343308
0.00529277
0.000805449
0.00578793
0.00217811
0.00447298
0.00190432
0.00413939
0.0010726
0.0018163
0.0116971
0.00799243
0.00314108
0.00729164
0.000541005
0.000315702
0.0131052
0.00511456
0.00336829
0.00505875
0.00477448
0.00127437
0.00667382
0.00422269
0.00361497
0.00459878
0.00270992
0.00223311
0.000574009
0.00271855
0.0042801
0.00567787
0.000964534
0.00157576
0.00421049
0.00694588
0.00496186
0.00705625
0.00208819
0.000208576
0.00123703
0.00290078
0.00148413
0.000398938
0.00253646
0.00767309
0.00299932
0.00485169
0.00307881
0.00154328
0.0155503
0.00460765
0.00760007
0.00545138
0.00177808
0.00285771
0.00698202
0.00196743
0.00249942
0.00822491
0.009607
0.000167008
0.00508687
0.0030748
0.00270234
0.00368806
0.00724734
0.0108012
0.0104654
0.0125577
0.0100219
0.000495017
0.0042289
0.00145751
0.000770622
1.84092e-06
0.00906505
0.00016254
0.000125113
0.000777659
0.00131055
0.00682193
0.000318985
0.000426185
0.00133827
0.00988243
0.000930879
0.00629381
0.00134904
0.0107294
0.00951721
0.00587133
0.000900249
0.00124457
0.00128417
0.00379799
0.00257002
0.000320383
0.00483758
0.00353542
0.00143344
0.00326075
0.00474692
0.000922733
0.00043398
0.0030032
0.00246315
0.00677321
0.00767127
0.00577392
0.00752649
0.00794484
0.00438504
0.00997959
0.000974991
0.000242145
0.00448377
0.00213765
0.00279238
0.00140078
0.00345111
0.00131409
0.00731421
0.00588116
0.00178876
0.00525336
0.00497228
0.000603752
0.00269864
0.00258326
0.00433389
0.00970699
0.0056024
0.00489293
0.00160161
0.000930188
2.03603e-05
0.00246512
0.0040644
0.00335229
0.00449038
0.00208771
0.00443275
0.00824817
0.00313939
0.00208761
0.00496171
0.00577975
0.00626694
0.0138722
0.0110052
0.00690124
0.0038246
0.0107406
0.00416685
0.00742211
0.00130196
0.00212369
0.000255725
0.00302272
0.00378951
0.00299868
0.00166938
0.00920528
0.001491
0.00799885
0.00012958
0.00303104
0.00262682
0.000222374
0.00928487
0.00602965
0.00651256
0.0088094
0.00711202
0.00246263
0.00322733
0.00219229
0.00373732
0.00129142
0.00483863
0.00706089
0.00508286
0.000136468
0.00255062
0.000329398
0.0036805
0.0010494
0.00491513
0.00174087
0.0014752
0.00260681
0.00571426
0.00156892
0.00678676
0.00362814
0.00385719
0.00206625
0.0022504
0.00203906
0.00477931
0.0034029
0.00457772
0.0128012
0.00417085
0.00191293
0.00403155
0.000406179
0.00861615
0.00116829
0.00864915
0.0138698
0.00146509
0.0119343
0.00253969
0.00235838
0.00222422
0.000244084
0.00487318
0.000399454
0.00443056
0.00738436
0.00681151
0.00365208
0.00433218
0.00243723
0.00695659
0.00223897
0.00125954
0.00530167
0.00938132
0.00916664
0.00242157
0.00490768
0.00366702
0.001139
0.00570137
0.00584338
0.00473704
0.0118475
0.00580866
0.00039785
0.00405854
0.00557911
0.0027785
0.00393389
0.00217087
0.00225951
0.00250283
0.0156778
0.0106616
0.00633485
0.00174179
0.000723767
0.00917721
0.000564548
0.00237584
0.000886367
0.00281499
0.0044072
0.0112022
0.000474353
0.00414166
0.00809046
0.00383891
0.00815429
0.00545745
0.00378561
0.00904005
0.0123269
0.00577475
0.00456398
0.00409894
0.00371418
0.00339286
0.00215114
0.00182625
0.00213909
0.001855
0.00440414
0.00261658
0.00278246
0.0034505
0.000975177
0.00613339
0.000708774
0.00478479
0.00573033
0.00717026
0.0121485
0.00434749
0.00660256
0.00101868
0.00205053
0.00208268
0.00119796
0.00248748
0.00419076
0.00241054
0.00147825
0.00488628
0.00119622
0.00301745
0.00590581
0.000770261
0.00486815
0.00359782
5.47995e-06
0.000988347
0.0123329
0.00174617
0.00695156
0.00447944
0.000492481
0.00337484
0.0041115
0.00222268
0.00353304
0.00848205
0.00116795
0.00491562
0.00332397
0.00651868
0.000501605
0.00322163
0.00423213
0.00616874
0.00781031
0.00182206
0.00539375
0.00174487
0.00092825
0.00910589
0.00989539
0.00252429
0.0017735
0.00374446
0.00494821
0.00299282
0.00165247
0.005087
0.00265819
0.00228059
0.00438855
0.00186767
0.00196095
0.00362799
0.0031987
0.00370429
0.0045352
0.00578651
0.00127707
0.00467554
0.00104866
0.000329466
0.00454311
0.00531204
0.00462946
0.000914661
0.003091
0.00205817
0.00906746
0.00315811
0.00260569
0.00695942
0.000110442
0.0035979
0.00220879
0.000719131
0.00192817
0.00862087
0.00759904
0.00691644
0.00325472
0.00664364
2.06505e-05
0.00246932
0.0041235
0.0091023
0.00867802
0.00602268
0.00543526
0.0130242
0.00950427
0.00305065
0.00368936
0.00473781
0.00874557
0.0104998
0.0163564
0.0122953
0.000829123
0.00430169
0.000773788
0.00436791
0.00110633
0.00235862
0.00164004
0.00277182
0.00193971
0.000103122
0.00285282
0.000759086
0.00103463
0.000267347
0.00252524
0.00104186
0.00585231
0.000475453
0.00887015
0.0055879
0.00448278
0.00586075
0.00532483
0.00147073
0.00819894
0.00167032
0.000500855
0.00503694
0.00451185
0.00711763
0.00983063
0.00356071
0.000866368
0.00799152
0.00242177
0.00746775
0.00274079
0.000357026
0.0121439
0.00904232
7.53044e-05
0.00157864
0.0127375
0.00206051
0.000146996
0.00590334
0.00398413
0.000421505
0.000348268
0.00299834
0.010171
0.000529246
0.00289397
0.00640624
0.0033153
0.00224845
0.00367114
0.00221796
0.00928088
0.000744389
0.00727786
0.000383783
0.00242497
0.00202122
0.00352671
0.00579402
0.00881089
0.00337066
0.000274938
0.00807641
0.0027841
0.00470195
0.00295892
0.00205853
0.00301642
0.00324506
0.000383701
0.00433023
0.00595439
0.00423341
0.00105356
0.00140625
0.00146686
0.00198272
0.00305145
0.0016009
0.00852655
0.00712102
0.00277394
0.00800716
0.00299632
0.00569625
0.00617073
0.00380944
0.000216074
0.00141415
0.00145745
0.00291428
0.00575052
0.00980543
0.00913146
0.00839841
0.00513846
0.0082901
0.00323669
0.00400254
0.00285434
0.00204999
0.0075448
0.00093641
0.00839138
0.00255146
0.00560224
0.00422383
0.00467648
0.0109122
0.00158268
0.00370063
0.00221978
0.00681803
0.00287796
0.000945986
0.00197416
0.00373879
0.00468294
0.00136845
0.000157994
0.00780557
0.00394007
0.00789373
0.000349747
0.00865944
0.00838461
0.00109235
0.000976141
0.00159545
0.00165591
0.00217059
0.00131598
0.0119182
0.00838469
0.000942401
0.00470891
0.00735702
0.00078023
0.00366329
0.00289112
0.00344706
0.00396877
0.010455
0.00571376
0.00166205
0.00855804
0.00416064
0.00912121
0.000537429
0.00610888
0.00742296
0.0190213
0.00953596
0.00051729
0.000784918
0.00132769
0.0016145
0.000709625
0.0042459
7.41578e-05
0.0050166
0.00068769
0.000959008
0.00488158
0.000712723
0.00298699
4.10602e-05
0.00135732
0.000239169
0.0162753
2.512e-05
0.00607431
0.00818518
0.00454461
0.00770704
0.00501162
0.00146224
0.000469103
0.0015014
0.00194791
0.00968227
0.0012779
0.0047861
0.00503611
0.0048536
0.00511648
0.00425523
0.0108778
0.000742167
0.00812486
0.0093484
0.0105589
0.00605266
0.00218056
0.00881855
0.00698082
0.000932776
0.00190756
0.000607423
0.00272573
0.00433476
0.00651977
0.00182629
0.0026921
0.00278171
0.00321937
0.00515277
0.00443127
0.000446042
0.010166
0.00680783
0.00289828
0.0100874
0.0121553
0.00283624
0.00241956
0.00406776
0.00805444
0.00248479
0.0103125
0.0049551
0.00156332
0.00168759
0.00295343
0.00680359
0.00378086
0.001192
0.00252178
0.000825002
0.00376673
0.00976451
0.00572547
0.00532752
0.00534303
0.00123769
0.00175526
0.00363422
0.00332895
0.00202855
0.00171974
0.00191834
0.00422307
0.00471119
0.00694905
0.00741455
0.00166998
0.00265654
0.000915275
0.00467106
0.00127899
0.000674532
0.0108917
0.0117491
0.00194099
0.00122787
0.00908786
0.00331765
0.00381256
0.000158632
0.00391079
0.00171286
0.00530549
0.000543547
0.00322531
0.00451904
0.0054051
0.00115177
0.00413173
0.011155
0.00181274
0.000883504
0.00977598
0.00127674
0.0039092
0.00263883
0.00764754
0.00646629
0.00316866
0.00593916
0.000838419
0.000620358
0.00215047
0.000946727
0.00257051
0.00225554
0.000715125
0.00424957
0.00639057
0.00171537
0.00298156
0.00167713
0.00286031
0.0124871
0.0137858
0.0101947
0.00303883
0.0051533
0.000938268
0.00806099
0.00260906
0.00382138
0.00602893
0.00469466
0.00718514
0.00999386
0.00326145
0.000306055
0.00239342
0.00318457
0.00591172
0.00634904
0.00736007
0.0084171
0.0093188
0.0104959
0.00258846
0.00110508
0.00456467
0.00838049
0.00197018
0.00738599
0.013324
0.00342101
0.00713346
0.00386474
0.00437268
0.00492398
0.0042705
0.00196861
0.00722083
0.0108625
0.00953194
0.00588215
0.00636038
0.0139457
0.00461575
0.00402447
0.00406052
0.000289456
0.00860585
0.00879822
0.00496539
0.00353898
0.00686355
0.00231703
0.00899772
0.0008845
0.00242185
0.00762533
0.00727608
0.0025106
0.00843072
0.00877527
0.00515065
0.00634282
0.00581536
0.00361754
0.00100295
0.00929991
0.000954422
0.00305632
0.00409211
0.0095703
0.0016949
0.00842486
0.00281768
0.00379569
0.000397915
0.00685803
0.00273554
0.0065316
0.00518672
0.00474078
0.00316102
0.00316799
0.00930137
0.00451505
0.000639782
0.00364693
0.000469112
0.00246233
0.000374937
0.00254225
0.0100259
0.00741545
0.00724459
0.00728158
0.00406048
0.00733678
0.011901
0.00722136
0.0010926
0.00104291
0.00586371
0.000284535
0.00299595
0.00288136
0.00332742
0.00961497
0.00897035
0.00104848
0.00321608
0.00291187
0.00375047
0.00225425
0.00369621
0.000569361
0.000413102
0.00868997
0.00655384
0.00164594
0.00849778
0.00426369
0.0018794
0.0100162
0.00474116
0.00192252
0.00172707
0.00138118
0.00650466
0.0023632
0.00844508
0.00112798
0.00147018
4.82338e-05
0.00320978
0.00122561
0.00229082
0.00546233
0.00458424
0.00895567
0.00332952
0.00162075
0.00101028
0.000772879
0.00104922
0.00332777
0.00704498
0.00926743
0.00174625
0.00267501
0.00992581
0.00511284
0.000745247
0.00471353
0.00311371
0.00185126
0.00226857
0.00298483
0.00418401
0.0124631
0.00378688
0.0155617
0.013068
0.00945676
0.00260991
0.00383137
0.00626287
0.00389932
0.0025239
0.00415422
0.0048454
0.00587696
0.00222639
0.00777859
0.00309016
0.00620598
0.000252847
0.00432498
0.0115753
0.0125528
0.0098985
0.00300481
0.00106182
0.00654946
0.0010593
0.00493416
0.000215783
0.00116631
0.00163721
0.00109751
5.4922e-05
0.000410172
0.0100963
0.0021153
0.00924664
0.000441265
0.00943692
0.00172435
0.00583951
0.00013463
0.0197351
0.00924945
0.00352681
0.00268891
0.00137919
0.0036256
0.00352919
0.00417654
0.00120222
0.00533778
0.00182868
0.00958175
0.00355646
0.00575756
0.00462483
3.57783e-05
0.000396285
0.0023431
0.00221675
0.00672565
0.0129835
0.00978472
0.0018522
0.00240264
0.00868952
0.0020569
0.0042938
0.00433935
0.00404342
0.00432911
0.00431055
0.00268535
0.00190739
0.000346731
0.00756164
0.00478371
0.00565563
0.00519337
0.00619566
0.0104934
0.00583678
0.00487587
0.00708556
0.0018336
0.00250053
0.000952643
0.00279134
0.00962318
0.00676514
0.000518694
0.00193168
0.00874799
0.00821323
0.00335929
0.00472051
0.00275254
0.00143675
0.00627632
0.00157695
0.0014955
0.0103173
0.00215501
0.00325477
0.0139931
0.00764354
0.0025687
0.00674413
0.00457235
0.00172498
0.000377654
2.17133e-05
0.00252807
0.00114623
0.00206414
0.00601363
0.00341778
0.000377731
0.00533403
0.0116707
0.00560591
0.00923228
0.0121906
0.00415942
0.00230477
0.000596645
0.000758857
0.00534174
0.00135317
0.00293218
0.0136319
0.00166079
0.000208374
0.00694898
0.00485147
0.00150283
0.00418351
0.00171428
0.00797113
0.00156247
0.000274295
0.00303331
0.00598515
0.00137774
0.00318127
0.00164875
0.00650387
0.0149107
0.00222864
0.00515356
0.00466984
0.0061859
0.00434
0.00345598
0.00900012
0.00247953
0.00100628
0.000500137
0.00251495
0.00501306
0.00693639
0.008771
0.015849
0.012789
0.00680563
0.00193208
0.00360383
0.00779281
0.00419663
0.00553319
0.00332983
0.00948665
0.00444659
0.00066193
0.000405333
0.000170766
0.00291483
0.00476013
0.00706561
0.00919463
0.0141071
0.00960871
0.0162886
0.0133381
0.00313952
0.00468913
0.00138571
0.00982883
0.000260551
0.0031686
0.00218546
0.0104865
2.29123e-05
0.00109447
0.00534736
0.00487096
0.00262841
0.000914655
0.00185864
0.00408571
0.0114415
0.00965454
0.00982921
0.00884449
0.00248595
0.0047983
1.87547e-05
0.00324403
0.00123243
0.00783498
0.00344421
0.00513335
0.000782188
0.00435171
0.0040243
4.07785e-05
0.00536824
0.00456073
0.00257509
0.00846328
0.00761531
0.00997711
0.0135156
0.00268674
0.0034271
0.00802931
0.00258201
0.00110208
0.0134606
0.00553002
0.00369061
0.000191618
0.00304254
0.000698941
0.00834202
0.00330292
0.00084603
0.00134738
0.00347264
0.0126736
0.00510935
0.0022194
0.00401611
0.00658872
0.000908894
0.00638172
0.00310418
0.00423848
0.002944
0.000600993
0.0013682
0.00322427
0.00113377
0.00284353
0.00608577
0.00249889
0.00199507
0.00196761
0.00169426
0.00244928
9.06488e-05
0.00965988
0.00493385
0.00580942
0.00732433
0.000845006
0.0116333
0.000254495
0.00573153
8.96109e-05
0.00358665
9.0569e-05
0.00771256
0.00481853
0.00590987
0.000505346
0.00482959
0.00812089
0.0044468
0.00479057
0.0080426
0.00207837
0.00332723
0.0105187
0.000879851
0.0027023
0.00484703
0.0136414
0.00474265
0.00051011
0.00146117
0.00263252
0.00388141
0.000996478
0.00759701
0.00109141
0.00411713
0.00215137
0.00182395
0.00682717
0.00041021
0.00268649
0.0016892
0.000855323
0.00581478
0.000503215
0.00546549
0.00271831
0.000968368
0.00933739
0.00102947
0.0026143
0.00998276
0.00273961
0.00583337
0.00178428
0.009531
0.000293649
0.00180923
0.00554334
0.000512761
0.00892643
0.0130328
0.006919
0.000459147
0.00158907
0.00143316
6.98103e-05
0.00614892
0.0011992
0.000304043
8.92923e-05
0.00451509
0.0026195
0.00142806
0.00462251
0.00239145
0.00355204
0.00269833
0.00576125
0.00765455
0.0104348
0.0135272
0.000867769
0.00403024
0.000761778
0.00149795
0.00131058
0.00195133
0.00114194
0.0034708
0.000267646
0.000546007
0.000559707
0.000195745
0.00305484
0.00123945
0.00411895
0.00118739
0.000881273
0.000523566
0.00852503
0.00862459
0.00585746
0.00577228
0.00296567
0.00582562
0.00334493
5.29002e-05
0.00138986
0.00672501
0.00181214
0.00397204
0.00332791
0.00308214
0.00480799
0.0032262
0.00618582
0.00144269
0.0032068
0.00684129
0.00827153
0.00671881
0.0065714
0.00207858
0.00104908
0.00191655
0.0014703
0.00397108
0.00585451
0.000248529
0.000688482
0.00429035
0.00399727
0.0017651
0.000890266
0.000193174
0.00186836
0.000179141
0.000547195
0.0077677
0.00808004
0.00265866
0.00350247
0.00687637
0.00459469
0.00354469
0.00744399
0.00344748
0.00303449
0.00637381
0.00195827
0.00218299
0.00363696
0.00533524
0.000203474
0.000720947
0.00094074
0.00669587
0.0072442
0.00325154
0.0115555
0.0036989
0.00417764
0.00653048
0.000391745
0.00582686
0.00338968
0.00361841
0.0036762
0.00108941
0.00699077
0.00258988
0.000431941
0.00137742
0.00252941
0.00459063
0.00484966
0.00352749
0.00327464
0.00264524
0.00020974
0.00282686
0.00444484
0.00738605
0.00359004
0.00308685
0.000437506
0.000784811
0.0110131
0.00410796
0.000710851
0.00430278
0.000324831
0.00219621
0.00234742
0.00039836
0.00140078
0.000653427
0.00295356
0.00391544
0.0135853
0.00330015
0.00277287
0.00459293
0.00318286
0.00660315
6.15274e-05
0.00192443
0.00872137
0.0108422
0.000476526
0.00551211
0.000451609
0.000486218
0.00758246
0.007068
0.00167176
0.00463975
0.00280911
0.00127555
0.00667333
0.0112961
0.00281387
0.000596399
0.000634332
0.00104187
0.00407749
0.00174415
0.0023242
0.00304968
0.000193076
0.00167039
0.00355076
0.00158619
0.00645978
0.0116695
0.000917852
0.000194668
6.77318e-05
0.0066922
0.00234053
0.00973241
0.00178135
0.00404446
0.00100445
0.00428517
0.00435446
0.0047486
0.00244185
0.00424746
0.00765313
0.00757042
0.0017213
0.00064922
0.00140227
0.00212001
0.000128801
0.00290395
0.00162619
0.000937784
0.00304543
0.00237375
0.009432
0.000655333
0.0014955
0.00628505
0.00303597
0.00501097
0.00680315
0.00251452
0.0109728
0.00462874
0.00306605
0.00186633
0.00200845
0.00522191
0.00165983
0.00101576
0.00553481
0.00537966
0.00627458
0.008958
0.00412323
0.00227411
0.00248767
0.00183008
0.00167586
0.00436455
0.0073597
0.00135121
0.00670958
0.00194029
0.00792923
0.00640323
0.0042335
0.000937152
0.00163773
0.000103948
0.00141215
0.00173352
0.000987282
0.00786691
0.00188566
0.00845891
0.00114471
0.00537713
0.00568598
0.00670737
0.00192385
0.000253798
0.00106242
0.00312947
0.00175574
0.00666605
0.00293937
0.00202944
0.00141976
0.000714928
7.85428e-05
0.000433068
0.00678322
0.00146751
0.00181577
0.000926897
0.00440823
0.0023623
0.00361101
0.0056754
0.00724442
0.00321188
0.00417211
0.00147072
0.000482082
0.00373348
0.00774699
0.00243625
0.0113553
0.00316424
0.00398228
0.000957144
0.000877517
0.00319469
0.00276825
0.00493692
0.00117019
0.0105522
0.00773693
0.000700171
0.00231904
0.000721079
0.00891473
0.00975383
0.00442414
0.00602908
0.00319469
0.00397516
0.00262974
0.00276875
0.00183192
0.00149538
0.0010577
0.00344691
0.00296835
0.00461974
0.00420083
0.00504631
0.00427347
0.00212597
0.000766048
0.00204134
0.00294967
0.00878591
0.00747809
0.000814071
0.00323223
0.00333805
0.00431472
0.00670059
0.00187356
0.00162507
0.00373135
0.00329474
0.0013541
0.00787724
9.00708e-05
0.00416335
0.00516721
0.0116374
0.00864513
0.00412365
0.00396728
0.0106921
0.00555803
0.00783937
0.000369992
0.00403108
0.00785129
0.00559312
0.00182436
1.29083e-05
0.0106204
0.00634542
0.00168935
0.000325235
0.000475733
0.00635191
0.000102775
0.0100363
0.000945108
0.000630743
0.00121315
0.00258425
0.0156423
0.00144065
0.00757271
0.000749012
0.00350293
0.00012145
0.00152158
0.000737168
0.00611367
0.0079998
0.000108237
0.00669108
0.000537256
0.00700462
0.00218204
0.00496946
0.00279053
0.00608234
0.0088296
0.00473381
0.000932529
0.00590053
0.00130103
0.00910668
0.00433489
0.00448908
0.00259012
0.000973558
0.00271527
0.00693216
0.0007289
0.00186117
0.00364073
0.00389689
7.8045e-05
0.00085566
0.000953003
0.00858874
0.00393082
0.00128645
0.00378298
0.0020884
0.00189391
0.00181199
0.00104385
0.000134103
0.00479604
0.00466603
0.00166015
0.0115423
0.00406565
0.00149277
0.00224472
0.00311284
0.00602764
0.00774984
0.0101435
0.00308122
0.00387752
0.00233393
0.00328186
0.00248515