/*--------------------------------*- C++ -*----------------------------------*\
| =========                 |                                                 |
| \\      /  F ield         | OpenFOAM: The Open Source CFD Toolbox           |
|  \\    /   O peration     | Version:  2212                                  |
|   \\  /    A nd           | Website:  www.openfoam.com                      |
|    \\/     M anipulation  |                                                 |
\*---------------------------------------------------------------------------*/
FoamFile
{
    version     2.0;
    format      ascii;
    arch        "LSB;label=32;scalar=64";
    class       volScalarField;
    location    "./ITHACAoutput/true/8.2";
    object      error;
}
// * * * * * * * * * * * * * * * * * * * * * * * * * * * * * * * * * * * * * //

dimensions      [0 0 0 1 0 0 0];

internalField   nonuniform List<scalar> 
3200
(
2.2357
1.93425
1.78456
1.69249
1.73443
1.98237
2.27617
2.66047
2.92868
3.15212
3.36719
3.48119
3.38204
3.42659
3.43234
3.54259
3.67001
4.02005
4.37831
4.78075
1.64551
1.42431
1.197
1.18973
1.30829
1.50711
1.74167
2.09412
2.27714
2.53843
2.73032
2.79414
2.76107
2.7573
2.8193
2.87442
3.06077
3.31807
3.65657
4.05096
1.22749
0.952663
0.920682
0.880366
0.829945
0.991721
1.30499
1.56455
1.82014
2.00867
2.11385
2.17138
2.21642
2.24084
2.25363
2.29356
2.42876
2.70589
3.05077
3.33525
0.885584
0.695812
0.580185
0.568464
0.621836
0.764554
0.902569
1.12633
1.25551
1.53086
1.67305
1.6613
1.68558
1.77633
1.76481
1.87033
1.99695
2.10787
2.38734
2.61657
0.602166
0.521445
0.397588
0.379461
0.441481
0.525938
0.687819
0.839896
0.958977
1.10866
1.16332
1.22976
1.27311
1.3124
1.30104
1.36042
1.40241
1.56265
1.7577
2.04878
0.455929
0.28879
0.258164
0.185292
0.312503
0.308964
0.4664
0.531068
0.708602
0.769153
0.834801
0.849195
0.892615
0.874987
0.864338
0.998197
0.996096
1.17627
1.28968
1.41585
0.217589
0.155806
0.19073
0.105535
0.176102
0.201313
0.254314
0.318473
0.380729
0.459119
0.462836
0.491774
0.528038
0.563268
0.507364
0.527422
0.625833
0.631856
0.696185
0.84101
0.110002
0.0914597
0.012488
0.0264958
0.0890127
0.108581
0.0514904
0.100389
0.181013
0.18606
0.134834
0.136869
0.18984
0.177502
0.170999
0.157166
0.178208
0.239597
0.253463
0.253249
1.31342
1.01699
0.82057
0.709364
0.794702
0.953869
1.24049
1.62508
1.87804
2.14008
2.31516
2.30796
2.37008
2.45245
2.38811
2.58996
2.78091
3.06981
3.43583
3.9422
0.98689
0.657496
0.428955
0.44451
0.506706
0.614601
0.858685
1.20371
1.49669
1.62743
1.82432
1.84584
1.93256
1.92102
1.92111
2.10418
2.25433
2.50075
2.97052
3.31968
0.635427
0.450492
0.250753
0.138369
0.241531
0.337146
0.570622
0.853721
1.08274
1.26638
1.40697
1.45342
1.53913
1.54438
1.62298
1.66296
1.84008
2.08747
2.37487
2.78886
0.446047
0.268611
0.138114
0.0339545
0.0909183
0.244012
0.406121
0.608263
0.771397
0.962459
1.08721
1.13345
1.16987
1.21253
1.19423
1.29762
1.45736
1.68026
1.92526
2.29644
0.289626
0.0958092
0.0212147
0.0111916
0.0218978
0.0410903
0.212052
0.401476
0.513919
0.684562
0.780948
0.810634
0.915821
0.884019
0.941636
0.996332
1.0779
1.24382
1.43262
1.62884
0.189522
0.0517266
0.0253374
-0.030893
-0.0648777
0.0749699
0.171305
0.265986
0.338804
0.419031
0.426344
0.543491
0.617076
0.591956
0.712466
0.676669
0.80159
0.925384
0.983701
1.24685
0.0641491
0.0646749
-0.0250055
-0.0327419
0.0139372
0.0379111
0.06196
0.127548
0.203736
0.216818
0.337494
0.317495
0.359271
0.398529
0.361141
0.393414
0.406917
0.546506
0.657757
0.74022
0.0462329
0.00375261
-0.0148445
0.0216546
-0.0755837
0.0245327
0.000624972
0.0471955
0.0872434
0.0904077
0.126042
0.171964
0.0891081
0.104926
0.188692
0.100833
0.219444
0.135832
0.187295
0.220302
0.29446
-0.0719325
-0.303758
-0.530031
-0.457007
-0.271127
-0.0632219
0.275668
0.560215
0.837861
0.99568
1.087
1.18578
1.17942
1.24518
1.35897
1.66319
2.06931
2.46599
3.01094
-0.000384391
-0.253491
-0.439922
-0.5938
-0.5951
-0.433157
-0.255308
0.0205048
0.292456
0.494634
0.675946
0.807606
0.842023
0.959793
0.940694
1.05107
1.29883
1.60428
2.07019
2.55172
-0.123173
-0.317869
-0.540626
-0.632402
-0.623897
-0.527119
-0.243234
-0.137278
0.119082
0.289718
0.41699
0.49095
0.614709
0.742187
0.731976
0.776478
0.966616
1.36721
1.66656
2.0422
-0.17151
-0.342678
-0.548767
-0.572726
-0.544366
-0.489591
-0.296163
-0.0317568
0.0453462
0.189925
0.33448
0.441368
0.455245
0.483015
0.502695
0.674605
0.810579
1.07043
1.33399
1.63281
-0.187604
-0.339118
-0.42953
-0.505781
-0.493156
-0.450627
-0.36859
-0.115088
-0.0392733
0.129574
0.232389
0.248523
0.270872
0.355458
0.326297
0.500849
0.583853
0.812189
1.06637
1.28715
-0.209318
-0.256678
-0.392844
-0.389381
-0.361939
-0.282598
-0.217552
-0.137502
-0.104579
0.0434399
0.0714761
0.171596
0.161787
0.209012
0.295746
0.309108
0.479552
0.520905
0.687077
0.864899
-0.182981
-0.202252
-0.296986
-0.262892
-0.260146
-0.214094
-0.153849
-0.117
-0.023955
0.0277594
0.0238628
0.104163
0.125797
0.1606
0.162639
0.237319
0.234572
0.364939
0.486343
0.529384
-0.00349134
-0.0553935
-0.111482
-0.0200849
-0.0798453
-0.0353471
-0.049377
-0.00267831
-0.0132144
0.0582045
0.0482846
0.0511844
0.0682157
0.0346418
0.0216425
0.112794
0.0570665
0.114946
0.155657
0.273621
-0.647275
-1.06101
-1.45792
-1.5558
-1.60593
-1.52152
-1.32596
-1.07677
-0.734985
-0.534639
-0.453246
-0.233158
-0.155985
-0.0847584
0.0869593
0.233413
0.520169
0.923526
1.5564
2.02097
-0.732076
-1.17049
-1.45133
-1.60114
-1.59575
-1.49929
-1.27966
-1.06048
-0.892906
-0.643787
-0.445891
-0.343474
-0.292633
-0.168873
-0.0614442
0.117405
0.318572
0.754538
1.26109
1.70432
-0.854488
-1.14571
-1.35554
-1.38228
-1.43019
-1.43294
-1.19083
-1.06403
-0.835577
-0.639244
-0.486969
-0.370565
-0.336033
-0.21237
-0.118175
-0.0509315
0.268136
0.562564
1.04421
1.36081
-0.865974
-0.944578
-1.16013
-1.30676
-1.31501
-1.28558
-1.08863
-0.901965
-0.801643
-0.628594
-0.487963
-0.381971
-0.324707
-0.275347
-0.141931
-0.0142598
0.204967
0.450372
0.830196
1.08074
-0.704779
-0.84849
-1.03104
-1.02672
-1.08968
-0.992751
-0.875686
-0.795752
-0.609673
-0.576372
-0.441892
-0.251969
-0.226294
-0.214817
-0.195553
-0.0711685
0.108308
0.348107
0.608968
0.91248
-0.481677
-0.648468
-0.716205
-0.800463
-0.752834
-0.693411
-0.676108
-0.621448
-0.485983
-0.369694
-0.386313
-0.310813
-0.231338
-0.1913
-0.0924089
-0.0508168
0.0450512
0.181567
0.433606
0.571044
-0.362267
-0.372418
-0.394587
-0.516688
-0.467746
-0.449539
-0.424777
-0.322102
-0.329147
-0.27111
-0.152581
-0.194677
-0.0961444
-0.0777819
-0.0788942
-0.0674274
0.0573519
0.126637
0.201542
0.348423
-0.0755843
-0.117912
-0.231798
-0.183669
-0.18547
-0.155598
-0.0981899
-0.116454
-0.116745
-0.086774
-0.114558
-0.0581845
-0.0545548
0.00102481
0.00765764
0.0214894
0.0355066
0.0817767
0.0882317
0.105563
-1.41661
-1.93373
-2.30313
-2.61483
-2.67742
-2.61259
-2.47006
-2.29008
-1.89322
-1.77592
-1.62514
-1.39047
-1.31947
-1.16119
-1.01074
-0.780156
-0.395745
0.0757057
0.736315
1.2708
-1.57152
-1.83818
-2.23118
-2.42867
-2.54343
-2.44229
-2.32222
-2.13069
-1.91404
-1.69443
-1.56603
-1.45839
-1.27759
-1.17697
-0.977057
-0.739225
-0.430744
-0.0306992
0.500256
1.09736
-1.41227
-1.70619
-2.00242
-2.26671
-2.24882
-2.19421
-2.10309
-1.84196
-1.75694
-1.52272
-1.36843
-1.25645
-1.0948
-1.06186
-0.85893
-0.692023
-0.409054
-0.0799328
0.452015
0.855686
-1.24988
-1.61135
-1.71217
-1.86535
-1.95494
-1.89538
-1.85059
-1.69103
-1.44696
-1.27678
-1.17228
-1.10937
-1.02266
-0.883875
-0.889001
-0.6216
-0.376169
-0.0187159
0.345089
0.678879
-1.07619
-1.21424
-1.41769
-1.61627
-1.50293
-1.42864
-1.46194
-1.28616
-1.16335
-1.05278
-1.04173
-0.850284
-0.765647
-0.783358
-0.685891
-0.531766
-0.329304
-0.132697
0.242933
0.495992
-0.760679
-0.897962
-1.04032
-1.10308
-1.12303
-1.12375
-1.02373
-0.964686
-0.86111
-0.776588
-0.750949
-0.646975
-0.618293
-0.544059
-0.483631
-0.418706
-0.206059
-0.093389
0.172802
0.354026
-0.471276
-0.545333
-0.668
-0.709585
-0.59478
-0.725951
-0.644122
-0.679647
-0.474798
-0.530569
-0.392566
-0.50298
-0.344828
-0.368718
-0.252541
-0.284616
-0.0822753
-0.00862172
0.101534
0.183721
-0.100144
-0.222192
-0.169124
-0.204487
-0.205825
-0.217642
-0.266633
-0.189766
-0.140064
-0.159416
-0.211631
-0.104028
-0.14138
-0.0671092
-0.161291
-0.0812261
0.000647238
0.0358022
0.0472439
0.107564
-2.17981
-2.58778
-3.07435
-3.37873
-3.4528
-3.52154
-3.40734
-3.31842
-3.07605
-2.86352
-2.62705
-2.46434
-2.32375
-2.13949
-1.90858
-1.63168
-1.17282
-0.609663
0.0808026
0.776105
-2.02107
-2.53832
-2.84206
-3.2276
-3.26908
-3.19681
-3.11727
-2.9756
-2.73813
-2.59419
-2.36635
-2.31386
-2.165
-1.90995
-1.76384
-1.44741
-1.1449
-0.657946
0.0434456
0.587248
-1.89534
-2.29326
-2.51741
-2.82674
-2.88048
-2.89294
-2.81602
-2.65601
-2.51419
-2.30656
-2.1629
-2.05858
-1.9245
-1.75089
-1.57525
-1.34572
-0.95264
-0.612801
0.0431771
0.39414
-1.64044
-1.89732
-2.14512
-2.3506
-2.41052
-2.39514
-2.31678
-2.21882
-2.06974
-1.92894
-1.85423
-1.68412
-1.55038
-1.48602
-1.28622
-1.12846
-0.852641
-0.489721
-0.0511436
0.340368
-1.31681
-1.60976
-1.75039
-1.9179
-1.93064
-1.94594
-1.91443
-1.78716
-1.64705
-1.53431
-1.41075
-1.29878
-1.22769
-1.22813
-1.05518
-0.910545
-0.70046
-0.411636
-0.0151097
0.213403
-0.983027
-1.18913
-1.21382
-1.39731
-1.38991
-1.44548
-1.33893
-1.28882
-1.15714
-1.12013
-0.999997
-0.968807
-0.869616
-0.801295
-0.819366
-0.633822
-0.426789
-0.241393
-0.0614967
0.207379
-0.549566
-0.708749
-0.760796
-0.82746
-0.826656
-0.851953
-0.808922
-0.809212
-0.739015
-0.746984
-0.644649
-0.616788
-0.564997
-0.553462
-0.428393
-0.380689
-0.313044
-0.173195
-0.0620898
0.0969035
-0.184746
-0.267217
-0.274276
-0.336975
-0.352986
-0.283549
-0.29267
-0.297975
-0.291276
-0.269741
-0.234067
-0.215071
-0.224146
-0.160019
-0.155223
-0.114366
-0.134764
-0.0703434
0.00559514
0.056801
-2.56653
-3.02899
-3.61685
-3.99856
-4.18796
-4.21376
-4.20304
-4.03048
-3.88056
-3.74496
-3.51655
-3.18215
-3.09355
-2.79659
-2.59193
-2.18515
-1.63815
-1.02896
-0.36039
0.400607
-2.43424
-2.9152
-3.36031
-3.72319
-3.8337
-3.8864
-3.83191
-3.66198
-3.51686
-3.32766
-3.18941
-2.97113
-2.81987
-2.55958
-2.32943
-1.88884
-1.57438
-0.985384
-0.312014
0.279343
-2.20211
-2.61224
-2.94422
-3.21229
-3.35816
-3.46379
-3.34112
-3.16605
-3.08326
-2.96093
-2.80563
-2.63194
-2.36578
-2.25806
-2.03269
-1.79418
-1.31351
-0.894667
-0.279881
0.285193
-1.91387
-2.18663
-2.50405
-2.6339
-2.85886
-2.84474
-2.77501
-2.66195
-2.65043
-2.42657
-2.35987
-2.17957
-2.03971
-1.89823
-1.69837
-1.44687
-1.18429
-0.78025
-0.296878
0.0976614
-1.49461
-1.77697
-1.94511
-2.17407
-2.30568
-2.29945
-2.22024
-2.16076
-2.12
-1.97761
-1.80249
-1.77445
-1.59018
-1.49125
-1.3701
-1.18604
-0.926333
-0.614002
-0.211583
0.06457
-1.11072
-1.27445
-1.38328
-1.54118
-1.64554
-1.64364
-1.64464
-1.58692
-1.4799
-1.44293
-1.30509
-1.25315
-1.1601
-1.04106
-0.948983
-0.810568
-0.695417
-0.476718
-0.10677
0.0384697
-0.68842
-0.726384
-0.922769
-0.987938
-0.981834
-0.994584
-0.991886
-1.02253
-0.903766
-0.878583
-0.811948
-0.754921
-0.633686
-0.62682
-0.555876
-0.536215
-0.349512
-0.240384
-0.167517
-0.0047759
-0.279838
-0.212426
-0.326707
-0.294644
-0.365003
-0.350138
-0.304484
-0.318395
-0.306964
-0.276362
-0.291864
-0.241618
-0.222753
-0.286464
-0.251314
-0.193359
-0.148583
-0.0151095
-0.0395198
0.0130237
-2.73355
-3.28608
-3.91549
-4.31309
-4.58583
-4.69773
-4.63221
-4.63345
-4.45049
-4.24016
-4.1016
-3.78422
-3.65483
-3.40587
-2.9846
-2.61293
-1.95423
-1.27668
-0.431717
0.332922
-2.55988
-3.04118
-3.54282
-3.94692
-4.174
-4.28034
-4.27319
-4.21443
-4.08123
-3.81059
-3.70414
-3.50184
-3.28031
-2.97349
-2.74901
-2.29189
-1.85342
-1.10914
-0.468962
0.202802
-2.3526
-2.76684
-3.18162
-3.47757
-3.64941
-3.80218
-3.74251
-3.68097
-3.53364
-3.38689
-3.28995
-3.12348
-2.87669
-2.63366
-2.27793
-1.96348
-1.59585
-1.09363
-0.475918
0.120421
-1.99038
-2.33793
-2.60548
-2.92735
-3.15482
-3.14676
-3.18037
-3.12176
-2.9338
-2.87104
-2.73607
-2.49179
-2.44892
-2.21601
-1.97543
-1.72368
-1.31083
-0.854589
-0.348256
0.0109423
-1.66898
-1.834
-2.08004
-2.32151
-2.43241
-2.50177
-2.49083
-2.35482
-2.38169
-2.22373
-2.11657
-1.98706
-1.90219
-1.76005
-1.5577
-1.30093
-1.04839
-0.690217
-0.305619
0.0658104
-1.18329
-1.37426
-1.50929
-1.73004
-1.77902
-1.90941
-1.76909
-1.76254
-1.71076
-1.62545
-1.53709
-1.48106
-1.40789
-1.25783
-1.16342
-0.956894
-0.707151
-0.449128
-0.274211
-0.0729939
-0.715079
-0.856017
-0.903882
-0.98725
-1.10115
-1.14892
-1.07604
-1.10417
-1.00882
-1.0292
-0.910165
-0.857423
-0.81927
-0.747906
-0.672088
-0.560547
-0.474101
-0.302377
-0.074017
0.0141474
-0.192042
-0.366198
-0.327904
-0.351913
-0.36785
-0.369158
-0.380481
-0.344904
-0.306259
-0.36616
-0.274563
-0.347191
-0.244546
-0.246457
-0.216564
-0.22561
-0.186585
-0.0849607
-0.067613
0.0466989
-2.65185
-3.27208
-3.95718
-4.40753
-4.81932
-4.9309
-4.92836
-4.95137
-4.8982
-4.59732
-4.41666
-4.2848
-3.96457
-3.56815
-3.18142
-2.68114
-2.01035
-1.28341
-0.397213
0.430611
-2.49493
-3.10735
-3.65511
-4.10072
-4.24838
-4.48024
-4.5815
-4.47798
-4.42175
-4.19397
-4.04965
-3.83031
-3.48909
-3.29324
-2.89116
-2.44711
-1.85709
-1.11825
-0.409744
0.244885
-2.23988
-2.74022
-3.21382
-3.57055
-3.78468
-3.96326
-3.96954
-3.90538
-3.8064
-3.72835
-3.54177
-3.35053
-3.09137
-2.85884
-2.53158
-2.10239
-1.5988
-1.09525
-0.408598
0.211744
-1.93711
-2.29653
-2.6863
-2.93891
-3.23475
-3.25326
-3.2859
-3.25777
-3.17873
-3.08931
-2.90899
-2.77304
-2.557
-2.39584
-2.08711
-1.72605
-1.29948
-0.866535
-0.341218
0.191641
-1.54311
-1.86752
-2.17357
-2.35378
-2.48118
-2.55814
-2.63083
-2.55734
-2.52464
-2.45485
-2.27237
-2.21758
-2.02845
-1.93066
-1.6191
-1.40045
-1.0257
-0.683643
-0.310951
0.180912
-1.14462
-1.3525
-1.55399
-1.72213
-1.84516
-1.86575
-1.88993
-1.85548
-1.80521
-1.75294
-1.62465
-1.55411
-1.45186
-1.33661
-1.20028
-0.944002
-0.790317
-0.57187
-0.225555
0.0434645
-0.713608
-0.813133
-1.0566
-1.04568
-1.05002
-1.12668
-1.1415
-1.09474
-1.04195
-1.07157
-1.02425
-0.964767
-0.921551
-0.809151
-0.722458
-0.541222
-0.455285
-0.260961
-0.182028
0.00541036
-0.224678
-0.225763
-0.318084
-0.33732
-0.333281
-0.442923
-0.37578
-0.346299
-0.393369
-0.354501
-0.342296
-0.324131
-0.359804
-0.378755
-0.344878
-0.206547
-0.12978
-0.0816345
-0.0281351
0.0165442
-2.23442
-2.93589
-3.63766
-4.2477
-4.60696
-4.9
-5.05888
-5.04226
-4.90095
-4.80947
-4.54074
-4.3117
-4.0018
-3.62249
-3.07971
-2.54284
-1.77059
-0.907737
-0.0494938
0.935235
-2.13112
-2.76917
-3.30981
-3.86287
-4.24041
-4.44817
-4.5438
-4.52112
-4.49305
-4.24616
-4.12705
-3.90193
-3.53135
-3.2178
-2.87366
-2.25329
-1.63038
-0.902819
-0.116513
0.651923
-1.99893
-2.4574
-2.98217
-3.39617
-3.70701
-3.86572
-3.91166
-3.96275
-3.84976
-3.8165
-3.54003
-3.36532
-3.15466
-2.80456
-2.43188
-1.96099
-1.41285
-0.786904
-0.0976043
0.553752
-1.76311
-2.12593
-2.60211
-2.93099
-3.07493
-3.25274
-3.29199
-3.30715
-3.28574
-3.07529
-3.00189
-2.76193
-2.64263
-2.35586
-2.03409
-1.72169
-1.25267
-0.680383
-0.166417
0.389667
-1.37363
-1.72178
-2.00517
-2.24594
-2.4572
-2.54477
-2.60869
-2.66484
-2.56597
-2.44305
-2.40898
-2.25698
-2.07415
-1.82829
-1.5449
-1.27543
-0.925019
-0.561203
-0.0628798
0.294962
-1.04754
-1.25304
-1.48218
-1.61788
-1.8021
-1.83947
-1.91952
-1.93081
-1.83046
-1.77858
-1.67469
-1.57571
-1.47455
-1.40386
-1.21715
-0.970888
-0.726414
-0.387439
-0.0879351
0.136951
-0.600373
-0.720377
-0.828896
-0.943259
-1.12084
-1.15658
-1.1452
-1.12706
-1.08021
-1.13105
-1.04667
-1.00103
-0.929354
-0.797562
-0.643133
-0.583064
-0.453709
-0.300714
-0.0487821
0.14148
-0.171233
-0.240205
-0.287621
-0.301772
-0.351956
-0.354799
-0.40399
-0.350121
-0.351946
-0.348261
-0.37565
-0.296365
-0.296244
-0.292743
-0.272888
-0.175548
-0.0853281
-0.0608646
-0.0217356
0.000951258
-1.62905
-2.42862
-3.14305
-3.80678
-4.24771
-4.58666
-4.7062
-4.75498
-4.74371
-4.58822
-4.37179
-4.0864
-3.75828
-3.32242
-2.7743
-2.11469
-1.32984
-0.478335
0.618859
1.52425
-1.66923
-2.25096
-2.93637
-3.45949
-3.93785
-4.12369
-4.29445
-4.23931
-4.24844
-4.01237
-3.89262
-3.63605
-3.3418
-2.91215
-2.53427
-1.91427
-1.25533
-0.437527
0.522516
1.2427
-1.58434
-2.06409
-2.60169
-3.15242
-3.41539
-3.59231
-3.78928
-3.76117
-3.72762
-3.58639
-3.39903
-3.20663
-2.99021
-2.55549
-2.13762
-1.71552
-1.03817
-0.410126
0.349984
1.03258
-1.39824
-1.78868
-2.2385
-2.67854
-2.89331
-3.06691
-3.17201
-3.1632
-3.04821
-3.02066
-2.866
-2.70801
-2.35876
-2.09788
-1.73871
-1.46778
-0.982969
-0.351485
0.251603
0.849242
-1.0652
-1.41509
-1.74637
-2.02576
-2.27574
-2.36158
-2.49759
-2.59119
-2.45624
-2.3938
-2.2985
-2.10217
-1.98641
-1.77316
-1.44998
-1.15083
-0.713841
-0.241702
0.232435
0.61919
-0.823728
-1.0383
-1.30067
-1.50979
-1.67893
-1.80136
-1.85407
-1.79182
-1.79722
-1.73687
-1.68238
-1.54222
-1.47407
-1.21047
-1.07835
-0.820094
-0.539389
-0.20239
0.114758
0.396598
-0.53799
-0.702999
-0.81658
-0.929156
-0.941376
-1.05023
-1.05758
-1.13083
-0.993045
-1.02188
-1.00651
-0.949861
-0.849804
-0.735464
-0.631688
-0.511515
-0.354628
-0.176906
0.0622743
0.242278
-0.191819
-0.252917
-0.262784
-0.320951
-0.319243
-0.365103
-0.409006
-0.386382
-0.340851
-0.355915
-0.342328
-0.298888
-0.291829
-0.221841
-0.223602
-0.158671
-0.0796764
-0.0745203
0.0806709
0.100455
-0.714293
-1.55666
-2.33012
-3.14398
-3.60592
-3.94257
-4.21335
-4.31001
-4.224
-4.10576
-3.90418
-3.61167
-3.20997
-2.70149
-2.1094
-1.45403
-0.618358
0.457978
1.53669
2.46496
-0.873879
-1.54695
-2.24093
-2.87706
-3.31503
-3.62975
-3.77883
-3.86252
-3.83125
-3.67212
-3.42976
-3.25909
-2.91673
-2.50819
-1.93939
-1.28719
-0.613753
0.349734
1.23779
2.11573
-0.962425
-1.45112
-2.1162
-2.50867
-2.97633
-3.19324
-3.38264
-3.38873
-3.34747
-3.31772
-3.04509
-2.80457
-2.44228
-2.14478
-1.74569
-1.21392
-0.471855
0.181978
1.00592
1.6719
-0.858605
-1.31047
-1.72609
-2.20297
-2.49381
-2.69963
-2.75716
-2.87243
-2.75156
-2.69898
-2.55318
-2.34853
-2.06211
-1.7743
-1.39674
-1.02255
-0.477408
0.107887
0.858303
1.35637
-0.595716
-1.07123
-1.42895
-1.73896
-2.00347
-2.14014
-2.23861
-2.28744
-2.25307
-2.13452
-2.0885
-1.86989
-1.67759
-1.47099
-1.17788
-0.789772
-0.35711
0.0733338
0.606818
1.07383
-0.522556
-0.769172
-1.02556
-1.28638
-1.34772
-1.54247
-1.62021
-1.65875
-1.59078
-1.54946
-1.4823
-1.38883
-1.2121
-0.990285
-0.799682
-0.666268
-0.318474
-0.0455848
0.442677
0.727126
-0.333013
-0.440327
-0.663472
-0.778108
-0.925703
-0.909494
-0.973843
-0.992553
-0.954424
-0.930169
-0.869448
-0.805998
-0.698376
-0.610273
-0.530361
-0.351137
-0.179913
0.0125971
0.285894
0.4645
-0.0893429
-0.1743
-0.163944
-0.24271
-0.231883
-0.30217
-0.337439
-0.333895
-0.296405
-0.326241
-0.239646
-0.236928
-0.22454
-0.178745
-0.179461
-0.121452
-0.00274049
0.00354864
0.0937495
0.270887
0.43061
-0.382136
-1.39471
-2.06397
-2.64917
-3.0314
-3.29457
-3.42185
-3.40539
-3.3181
-3.05119
-2.76095
-2.30992
-1.88315
-1.15228
-0.385626
0.476407
1.57647
2.66853
3.80084
0.0332253
-0.582031
-1.33161
-1.99503
-2.52785
-2.80519
-3.08638
-3.09292
-3.0578
-3.00881
-2.79048
-2.49268
-2.15814
-1.74191
-1.08298
-0.419186
0.335771
1.29571
2.21738
3.17946
0.0377816
-0.597588
-1.30045
-1.83448
-2.19125
-2.52511
-2.65038
-2.75006
-2.72439
-2.59113
-2.49384
-2.26185
-1.9424
-1.53001
-1.05786
-0.399196
0.245779
1.01249
1.84385
2.67346
-0.177286
-0.66487
-1.09217
-1.56721
-1.8507
-2.11036
-2.30872
-2.33027
-2.28187
-2.34865
-2.01538
-1.86053
-1.59038
-1.24944
-0.900388
-0.353641
0.159234
0.861411
1.48952
2.11737
-0.165637
-0.549011
-0.939919
-1.27527
-1.54074
-1.66239
-1.8317
-1.86864
-1.77857
-1.75389
-1.64543
-1.45761
-1.21599
-1.0163
-0.686085
-0.366575
0.135609
0.668711
1.18945
1.6663
-0.101993
-0.324043
-0.618808
-0.957026
-1.10033
-1.23878
-1.32519
-1.30872
-1.28332
-1.255
-1.1339
-1.07914
-0.940117
-0.771151
-0.473035
-0.265451
0.0793465
0.426068
0.871935
1.20095
-0.148354
-0.20454
-0.44067
-0.53337
-0.696596
-0.737605
-0.779596
-0.824984
-0.8706
-0.777054
-0.749786
-0.638188
-0.575466
-0.414759
-0.307288
-0.136251
0.0214892
0.270808
0.541163
0.648967
0.0226359
-0.0852633
-0.127291
-0.195333
-0.217632
-0.260843
-0.295886
-0.254046
-0.275687
-0.324222
-0.298019
-0.228174
-0.266735
-0.105673
-0.148221
-0.0559846
0.0271346
0.00159313
0.170904
0.249368
1.94588
1.04252
0.119502
-0.692188
-1.42489
-1.79194
-2.13683
-2.29892
-2.29966
-2.16653
-1.96601
-1.65255
-1.13375
-0.580204
0.0461399
0.813836
1.82218
3.02824
4.1723
5.20236
1.48298
0.674386
-0.112264
-0.818144
-1.35533
-1.74539
-2.05574
-2.09845
-2.15084
-2.08833
-1.88722
-1.5262
-1.10317
-0.640703
-0.0651439
0.716234
1.56129
2.49094
3.57795
4.50742
1.08505
0.437852
-0.176874
-0.917112
-1.24532
-1.61898
-1.84664
-1.8974
-1.91473
-1.82594
-1.64915
-1.30699
-1.05512
-0.634743
-0.0715706
0.522361
1.24946
2.10496
2.97378
3.74611
0.76112
0.34767
-0.283366
-0.636421
-1.11122
-1.38843
-1.60859
-1.65987
-1.66111
-1.61061
-1.42228
-1.26038
-0.891984
-0.578723
-0.133487
0.352909
0.961299
1.71345
2.34786
3.05877
0.485546
0.155856
-0.253026
-0.656387
-0.952292
-1.16639
-1.21818
-1.31799
-1.2494
-1.30962
-1.11936
-1.02859
-0.767333
-0.503882
-0.13645
0.289121
0.808168
1.29973
1.8354
2.27686
0.341927
0.119551
-0.184897
-0.476768
-0.67509
-0.869754
-0.952616
-0.880996
-0.979637
-0.96327
-0.80379
-0.765587
-0.490643
-0.318206
-0.0617669
0.190688
0.541602
0.924367
1.34048
1.65351
0.170198
0.0893261
-0.119367
-0.278274
-0.43686
-0.476804
-0.532953
-0.535743
-0.589218
-0.49081
-0.492214
-0.445171
-0.351709
-0.210321
-0.0106215
0.127387
0.338582
0.590077
0.804218
1.02651
0.0721883
-0.0321528
-0.0684586
-0.0815737
-0.0702303
-0.141706
-0.174604
-0.231267
-0.17815
-0.237578
-0.233908
-0.121673
-0.150716
-0.0462555
-0.0671915
0.0172842
0.107025
0.187609
0.191494
0.376545
3.7196
2.78759
1.7622
0.848835
0.25197
-0.259996
-0.591374
-0.781529
-0.804682
-0.70881
-0.505931
-0.157104
0.347899
0.872564
1.63825
2.49165
3.51993
4.65104
5.90311
7.0707
2.94459
2.14464
1.30432
0.613711
0.0211344
-0.447692
-0.778116
-0.884242
-0.894271
-0.710519
-0.610027
-0.196474
0.112631
0.632744
1.28301
2.10975
3.01469
4.00784
5.11992
6.05316
2.38301
1.71158
1.09953
0.456255
-0.0801794
-0.481731
-0.729973
-0.869886
-0.806542
-0.739678
-0.653565
-0.403145
0.105263
0.48042
1.01544
1.72427
2.45789
3.33012
4.27004
5.04106
1.82713
1.27726
0.742735
0.221916
-0.203097
-0.491329
-0.649787
-0.80836
-0.801882
-0.644432
-0.518275
-0.351598
0.0259191
0.31648
0.842657
1.3747
1.93772
2.68614
3.47044
4.09454
1.4572
0.999344
0.590437
0.0790676
-0.154591
-0.31388
-0.490992
-0.617652
-0.65342
-0.56537
-0.426984
-0.300621
-0.012251
0.223287
0.636095
0.940009
1.54286
2.02243
2.69972
3.18617
1.00148
0.714597
0.351078
0.0652716
-0.155294
-0.323971
-0.402545
-0.453947
-0.449779
-0.433513
-0.35625
-0.266367
-0.0624686
0.127402
0.446937
0.812033
1.06366
1.44991
1.90749
2.22206
0.577853
0.363173
0.193681
0.0390292
-0.086282
-0.183577
-0.366372
-0.307598
-0.366468
-0.276868
-0.216295
-0.134574
-0.0455999
0.0748545
0.323377
0.493827
0.683212
0.931758
1.10319
1.35086
0.240486
0.0793325
0.0758465
0.00979432
-0.0066631
-0.0372118
-0.111456
-0.0616102
-0.043893
-0.081818
-0.0787808
-0.0663704
0.00531709
0.00966425
0.0760031
0.16844
0.189663
0.25006
0.336793
0.468578
5.78493
4.78205
3.80059
2.83758
2.08536
1.57599
1.24951
1.0181
0.954455
1.02404
1.1976
1.63029
2.10937
2.68029
3.50517
4.426
5.41521
6.70296
7.94469
9.13205
4.72011
3.88766
3.10435
2.25574
1.68938
1.21285
0.9011
0.650743
0.652652
0.792856
0.92768
1.23485
1.68136
2.28421
2.85373
3.73789
4.71014
5.6949
6.91871
7.79127
3.84742
3.17731
2.42101
1.79052
1.20056
0.864995
0.582839
0.497756
0.454996
0.538509
0.725904
0.950043
1.28247
1.78399
2.40709
3.09593
3.92704
4.82833
5.77801
6.61155
3.03353
2.56433
1.98959
1.37593
0.915843
0.632422
0.415015
0.251834
0.29606
0.341205
0.487962
0.736432
0.99872
1.49946
1.9451
2.53331
3.15594
3.92962
4.74203
5.35679
2.35845
1.95199
1.46933
1.02797
0.78964
0.470095
0.346534
0.132198
0.173695
0.298179
0.357037
0.536085
0.70837
1.07
1.44015
1.96716
2.42868
2.99635
3.71904
4.15342
1.63598
1.38349
0.957839
0.749055
0.418605
0.345165
0.215195
0.108821
0.0763011
0.159228
0.219523
0.388855
0.588279
0.788842
0.99802
1.36067
1.64011
2.18274
2.62258
2.9211
0.986532
0.77509
0.588122
0.394189
0.292303
0.218716
0.021002
0.0662605
0.0838979
0.0509282
0.110262
0.255983
0.343471
0.482475
0.657714
0.775543
1.01414
1.35211
1.48904
1.79969
0.314728
0.362365
0.221781
0.180265
0.11097
0.0571991
0.0058696
-0.00603476
0.0184163
0.0433244
-0.0041277
0.135229
0.0874381
0.162364
0.209617
0.20516
0.332316
0.449552
0.527519
0.559945
8.20349
7.08706
6.0852
5.0762
4.29438
3.7698
3.31308
3.09064
3.00909
3.05506
3.29142
3.67225
4.18088
4.82651
5.60758
6.62985
7.72205
8.95224
10.3066
11.5497
6.88085
5.92217
4.98372
4.19888
3.54733
3.0313
2.67691
2.51415
2.45629
2.47223
2.70818
3.098
3.45182
4.02634
4.75463
5.62496
6.64729
7.6651
8.81739
9.85973
5.5467
4.85655
4.11984
3.39672
2.89946
2.4258
2.24147
1.98394
1.94251
2.00009
2.16898
2.43575
2.78436
3.4089
3.98318
4.66739
5.59428
6.42063
7.44069
8.22843
4.44291
3.91584
3.24443
2.75509
2.18381
1.95365
1.68314
1.59301
1.53671
1.61353
1.7758
2.04116
2.33543
2.68081
3.14524
3.80591
4.46654
5.20592
6.02236
6.78105
3.42098
3.00245
2.52628
2.05369
1.6959
1.4224
1.24436
1.21226
1.16021
1.23867
1.26218
1.5104
1.77106
2.08039
2.46252
2.85591
3.45928
4.0549
4.70985
5.13583
2.44191
2.07233
1.76252
1.35571
1.18197
1.01368
0.863654
0.784136
0.794311
0.779009
0.886964
1.06949
1.21478
1.51004
1.76955
2.03193
2.46371
2.89408
3.34517
3.71111
1.35003
1.27379
1.02377
0.780868
0.703404
0.641964
0.524235
0.434412
0.497773
0.481122
0.492548
0.706731
0.725883
0.809158
1.02958
1.19593
1.47422
1.75756
1.99924
2.13209
0.416345
0.436213
0.289834
0.248758
0.221499
0.165084
0.139887
0.116534
0.121987
0.179347
0.208899
0.277908
0.278658
0.258821
0.36556
0.448261
0.470839
0.595833
0.683906
0.702372
10.601
9.6188
8.47439
7.49295
6.6278
6.03961
5.58037
5.31526
5.32413
5.3269
5.56098
5.9852
6.42187
7.16066
8.04198
9.03016
10.1895
11.4156
12.8066
13.9631
8.99404
8.06395
7.17078
6.26084
5.60201
5.03781
4.66331
4.44535
4.38404
4.46156
4.7091
5.01782
5.45138
6.05304
6.80111
7.66412
8.71261
9.77303
11.0288
12.0915
7.38101
6.77226
5.85524
5.1702
4.55732
4.09411
3.84481
3.62653
3.60173
3.60321
3.82194
4.07769
4.5188
5.07597
5.67636
6.4678
7.30226
8.19361
9.2443
10.1173
5.93766
5.43138
4.68429
4.17515
3.66576
3.25947
3.02664
2.94249
2.90469
2.97567
3.01385
3.34518
3.70157
4.06063
4.54184
5.10969
5.93435
6.65058
7.51558
8.17345
4.52504
4.10872
3.66894
3.08348
2.8104
2.47244
2.30301
2.17754
2.15707
2.26996
2.31165
2.55135
2.80142
3.08875
3.57996
4.07889
4.58648
5.19417
5.83416
6.40552
3.25412
2.9163
2.56609
2.26002
1.93571
1.71963
1.65463
1.5117
1.53278
1.60064
1.67311
1.72228
2.02656
2.22284
2.55246
2.84695
3.2783
3.72395
4.17573
4.62174
1.90259
1.77419
1.50693
1.34322
1.16191
1.05481
0.949069
0.93349
0.901014
0.9306
1.00936
1.01776
1.13277
1.26617
1.49251
1.78343
1.92275
2.19016
2.50264
2.76924
0.678004
0.565717
0.522983
0.4291
0.423172
0.362379
0.331999
0.341663
0.247886
0.368668
0.315302
0.375741
0.361532
0.400175
0.560386
0.579207
0.624646
0.776283
0.823948
0.882758
13.1034
12.0152
10.9034
9.94303
9.12225
8.45434
8.08965
7.70582
7.57368
7.64604
7.90271
8.29279
8.826
9.54971
10.3921
11.3829
12.5593
13.9112
15.3159
16.5784
11.0019
10.1405
9.22581
8.32677
7.64862
7.09331
6.69388
6.42526
6.35833
6.35312
6.59999
6.96681
7.44071
8.05567
8.82638
9.71606
10.7258
11.8883
13.1068
14.1053
9.11142
8.48568
7.61639
6.93107
6.30333
5.78775
5.48998
5.2505
5.19581
5.26156
5.4813
5.80269
6.15887
6.71219
7.36196
8.1098
9.06192
9.99688
10.9896
11.8622
7.38712
6.78956
6.07332
5.51551
5.08757
4.62974
4.40377
4.24189
4.1614
4.17397
4.40085
4.60949
4.96015
5.42315
5.94244
6.51437
7.28845
8.04236
8.92698
9.72655
5.65499
5.18864
4.67197
4.22717
3.88042
3.52421
3.31366
3.19176
3.15762
3.2263
3.38166
3.60784
3.80887
4.19629
4.62859
5.08662
5.62838
6.2495
6.88127
7.4279
3.96886
3.63006
3.35232
2.98956
2.70619
2.49005
2.35595
2.23959
2.16699
2.30939
2.40408
2.48189
2.69425
2.92695
3.29751
3.6157
4.01157
4.38239
4.97803
5.2502
2.37674
2.2574
1.95532
1.81793
1.64968
1.56095
1.35645
1.37615
1.3246
1.33149
1.40061
1.47673
1.62748
1.76919
1.94981
2.15469
2.41411
2.59833
2.89136
3.11886
0.78528
0.730966
0.598769
0.539624
0.52915
0.534687
0.490215
0.430238
0.340936
0.452709
0.37357
0.509061
0.522072
0.538695
0.624037
0.646281
0.83273
0.900779
0.965569
1.10105
15.1788
14.0859
12.965
11.9136
11.1627
10.3706
9.89705
9.66846
9.52705
9.58438
9.80843
10.1712
10.6909
11.4239
12.3424
13.3627
14.592
15.8621
17.3291
18.5251
12.8003
11.8574
10.7961
9.97217
9.19171
8.65653
8.19362
7.9781
7.91843
7.95196
8.21139
8.60558
8.95929
9.68333
10.4346
11.3538
12.3096
13.4882
14.8044
15.8169
10.4885
9.77091
8.96198
8.07794
7.51124
7.1215
6.74178
6.52967
6.39229
6.54167
6.7606
7.00284
7.42254
7.9733
8.66823
9.42209
10.3531
11.3314
12.2994
13.2206
8.39066
7.83491
7.15921
6.54851
5.9986
5.62322
5.32355
5.20606
5.13484
5.22758
5.34886
5.61758
6.02106
6.38989
6.97907
7.68229
8.39114
9.08581
9.9821
10.7421
6.42315
5.95834
5.46881
5.03326
4.65447
4.23551
4.12612
3.90349
3.83878
3.97677
4.09141
4.28432
4.55987
4.98602
5.31154
5.87921
6.36931
7.01213
7.65265
8.31427
4.57067
4.24257
3.88265
3.55494
3.27312
3.06846
2.87747
2.7773
2.736
2.76783
2.77451
2.98206
3.16962
3.44075
3.76516
4.05762
4.56017
4.95124
5.48088
5.93909
2.78035
2.5182
2.24886
2.15509
1.93533
1.78224
1.6798
1.59611
1.60225
1.70615
1.71923
1.81099
1.93537
2.01933
2.24114
2.45412
2.73482
3.0172
3.29111
3.4583
0.920054
0.850045
0.780659
0.717147
0.722326
0.548417
0.503797
0.531
0.617661
0.51827
0.564896
0.609665
0.697825
0.716904
0.771141
0.811177
0.932519
0.989019
1.16459
1.22425
)
;

boundaryField
{
    hotSide
    {
        type            calculated;
        value           nonuniform List<scalar> 
400
(
3.34006
2.4205
1.40701
0.473543
-0.284656
-1.03376
-1.40332
-1.55002
-1.44471
-1.00027
-0.364381
0.584507
1.76726
3.32416
5.14339
7.25816
9.73016
12.1852
14.7491
16.8901
3.06999
2.15521
1.07127
0.0897521
-0.772739
-1.41377
-1.83905
-2.07714
-2.04092
-1.67916
-1.14283
-0.238173
0.972787
2.43772
4.227
6.26966
8.62694
11.2151
13.672
15.8074
2.95427
1.99246
0.872533
-0.274919
-1.11097
-1.87044