/*--------------------------------*- C++ -*----------------------------------*\
| =========                 |                                                 |
| \\      /  F ield         | OpenFOAM: The Open Source CFD Toolbox           |
|  \\    /   O peration     | Version:  2212                                  |
|   \\  /    A nd           | Website:  www.openfoam.com                      |
|    \\/     M anipulation  |                                                 |
\*---------------------------------------------------------------------------*/
FoamFile
{
    version     2.0;
    format      ascii;
    arch        "LSB;label=32;scalar=64";
    class       volScalarField;
    location    "./ITHACAoutput/true/19";
    object      error;
}
// * * * * * * * * * * * * * * * * * * * * * * * * * * * * * * * * * * * * * //

dimensions      [0 0 0 1 0 0 0];

internalField   nonuniform List<scalar> 
3200
(
4.26862
4.53859
4.74457
5.03647
5.35096
5.59941
5.95411
6.15907
6.32432
6.40344
6.51175
6.49881
6.30069
6.15858
5.86697
5.62159
5.47223
5.2109
4.98481
4.86418
3.73429
3.90108
4.13748
4.26602
4.58803
4.84142
5.04785
5.30169
5.47147
5.53203
5.628
5.62903
5.51587
5.31895
5.06453
4.88179
4.68421
4.48439
4.34175
4.20286
3.09713
3.23915
3.42517
3.53722
3.77449
3.98965
4.25494
4.38987
4.63026
4.67676
4.76929
4.66384
4.54605
4.38215
4.26168
4.12847
3.93333
3.80658
3.57275
3.62738
2.49071
2.62157
2.77743
2.8945
3.07825
3.25207
3.54224
3.57994
3.78374
3.83986
3.80052
3.80839
3.72442
3.57057
3.5416
3.36244
3.27673
3.13173
3.00693
2.89358
1.85954
2.02097
2.09098
2.32121
2.36052
2.50131
2.65355
2.83844
2.84227
2.90183
2.98564
2.99654
2.90975
2.84414
2.64077
2.59788
2.49408
2.36966
2.36224
2.25337
1.35967
1.34623
1.48874
1.58054
1.69665
1.74054
1.88132
1.91588
2.06167
2.13759
2.04169
2.0814
2.08085
2.00413
1.95807
1.81315
1.81882
1.73762
1.69547
1.61792
0.836589
0.833022
0.923405
0.923461
0.962723
1.05312
1.17323
1.14406
1.25699
1.29531
1.26742
1.25484
1.24373
1.19446
1.17884
1.1446
1.07533
1.04469
1.03062
0.971207
0.267425
0.287481
0.286242
0.298126
0.344584
0.383709
0.410925
0.400299
0.406103
0.379893
0.438363
0.428319
0.344845
0.341443
0.430649
0.371556
0.347696
0.289511
0.290491
0.324207
3.81952
3.95179
4.1458
4.45413
4.7081
4.9779
5.30836
5.52046
5.68362
5.78364
5.83145
5.77244
5.64013
5.45326
5.22618
4.96146
4.76136
4.60123
4.37783
4.22251
3.27246
3.37431
3.58531
3.77176
4.0861
4.24694
4.49664
4.7209
4.89258
4.93245
5.0137
5.02403
4.92731
4.70576
4.54686
4.33401
4.22633
3.96251
3.86334
3.71426
2.76589
2.89483
3.01739
3.11005
3.35256
3.52982
3.76645
3.95849
4.11812
4.22415
4.27143
4.23875
4.17081
3.97579
3.8314
3.634
3.55743
3.43875
3.24382
3.17527
2.22008
2.30056
2.41023
2.62685
2.74624
2.91551
3.09788
3.25406
3.3806
3.48662
3.44684
3.47759
3.41767
3.27598
3.14508
2.99794
2.88168
2.71616
2.69486
2.60969
1.74009
1.70197
1.90558
2.03893
2.16084
2.25285
2.37704
2.56285
2.5761
2.66554
2.64935
2.7076
2.66759
2.56634
2.43284
2.31903
2.26006
2.1488
2.06858
2.04783
1.18563
1.2816
1.28465
1.46398
1.56392
1.64035
1.74204
1.77769
1.85623
1.86857
1.94141
1.88123
1.87763
1.80978
1.73266
1.67598
1.58268
1.52062
1.47465
1.44039
0.715038
0.721028
0.767532
0.858979
0.893346
0.933889
0.981738
1.06323
1.14393
1.1834
1.18028
1.22371
1.08185
1.08308
1.02002
1.00994
0.97661
0.95428
0.876156
0.924421
0.203963
0.271143
0.329573
0.30367
0.316823
0.271196
0.330462
0.38388
0.402454
0.414912
0.397119
0.469137
0.368179
0.337216
0.341667
0.306779
0.3276
0.305333
0.361229
0.265258
3.1033
3.25769
3.37531
3.6905
3.85899
4.18272
4.44852
4.59549
4.79161
4.86248
4.90027
4.87705
4.72442
4.51495
4.35792
4.15489
3.8757
3.68348
3.55187
3.46965
2.66813
2.73122
2.91722
3.13543
3.35987
3.57385
3.8427
3.98875
4.17818
4.24317
4.2059
4.23894
4.10449
4.01132
3.76214
3.64373
3.43396
3.265
3.13156
3.09633
2.22289
2.31017
2.4976
2.64695
2.79603
3.07463
3.15327
3.38861
3.47416
3.5289
3.61728
3.48363
3.52798
3.35557
3.17432
3.02673
2.9222
2.7687
2.65426
2.62846
1.81481
1.86023
1.9943
2.13257
2.33994
2.48696
2.54885
2.7263
2.82245
2.88694
2.95074
2.90933
2.82578
2.69391
2.66163
2.47854
2.38801
2.28007
2.20785
2.11008
1.353
1.46861
1.46118
1.64234
1.77191
1.88928
1.95834
2.15022
2.22114
2.28312
2.25426
2.31315
2.25087
2.15111
2.06859
1.97567
1.84452
1.80941
1.69694
1.67452
0.970702
1.01708
1.13569
1.115
1.24619
1.33707
1.37407
1.5241
1.52569
1.58412
1.70243
1.59077
1.54494
1.50721
1.48549
1.41621
1.35939
1.22829
1.20625
1.21729
0.586834
0.667571
0.633367
0.686148
0.800734
0.889539
0.907255
0.911003
0.903976
0.956207
0.998439
0.897949
0.938564
0.915773
0.943596
0.895501
0.788379
0.708757
0.747185
0.742589
0.179495
0.225496
0.276682
0.245445
0.217759
0.277906
0.339647
0.305848
0.284919
0.3357
0.322851
0.261258
0.28661
0.30532
0.293169
0.231974
0.33293
0.2743
0.237226
0.366316
2.39943
2.46763
2.62882
2.88874
3.01344
3.2801
3.48501
3.67116
3.7712
3.82064
3.96172
3.89759
3.70206
3.65945
3.47486
3.23234
3.01641
2.84366
2.69958
2.63018
1.99183
2.09179
2.25691
2.40845
2.59258
2.84007
3.0106
3.19755
3.3365
3.4144
3.47801
3.32264
3.30338
3.06135
2.99862
2.86678
2.65242
2.54008
2.40762
2.35069
1.64369
1.80851
1.86715
2.05357
2.18743
2.40098
2.47162
2.70628
2.75948
2.85182
2.88779
2.83719
2.83343
2.66899
2.59761
2.38823
2.32516
2.15709
2.04273
2.02679
1.35346
1.41484
1.4712
1.63554
1.72163
1.99316
2.01659
2.15875
2.37252
2.39914
2.39401
2.37062
2.24001
2.19402
2.15326
1.91491
1.85137
1.77852
1.70732
1.63521
1.05949
1.10272
1.15006
1.22806
1.38753
1.46185
1.6608
1.66963
1.74109
1.8053
1.82673
1.85407
1.80172
1.74945
1.60009
1.54761
1.46261
1.43022
1.33274
1.31891
0.712597
0.80815
0.797274
0.91102
0.958531
1.05614
1.19182
1.25211
1.2252
1.31663
1.30129
1.23
1.22706
1.23208
1.12264
1.07196
1.03459
1.06161
0.92917
0.861396
0.468194
0.456238
0.586207
0.630098
0.579771
0.671685
0.630075
0.712433
0.740409
0.791078
0.828276
0.733279
0.788856
0.775834
0.731884
0.698945
0.694122
0.637711
0.628174
0.581896
0.145375
0.223282
0.220452
0.148948
0.204485
0.268919
0.17853
0.30399
0.226274
0.288303
0.245681
0.23554
0.257139
0.245369
0.265248
0.234626
0.166403
0.236432
0.215385
0.144945
1.73587
1.75551
1.81287
2.04638
2.13368
2.38222
2.51785
2.80165
2.85808
2.96343
2.99083
2.8844
2.8391
2.6607
2.51197
2.36176
2.18551
1.97715
1.86415
1.88019
1.39325
1.47476
1.61653
1.67969
1.84439
2.08563
2.23635
2.36558
2.54907
2.55747
2.53256
2.63251
2.49291
2.35261
2.2091
2.01844
1.82145
1.79675
1.68313
1.68466
1.161
1.23182
1.25102
1.3689
1.59378
1.73874
1.92731
2.00194
2.11266
2.20417
2.21248
2.12666
2.15461
1.95678
1.86976
1.76099
1.67935
1.50519
1.51275
1.37707
0.976097
0.998566
1.0289
1.09686
1.3214
1.43693
1.52524
1.59867
1.69932
1.77107
1.79436
1.80156
1.70949
1.71309
1.57215
1.50451
1.31183
1.27525
1.22229
1.17871
0.817053
0.739722
0.788034
0.906007
0.989964
1.05414
1.2105
1.34236
1.29669
1.37313
1.37978
1.38124
1.3625
1.28029
1.21547
1.08278
1.08668
1.01044
0.973259
0.940213
0.504398
0.489952
0.530183
0.655595
0.674614
0.790765
0.832852
0.946451
0.978725
1.05003
1.06737
0.999581
1.01668
1.02139
0.881774
0.748906
0.743868
0.664024
0.643022
0.636388
0.336225
0.351581
0.339939
0.367118
0.423314
0.480644
0.547699
0.481207
0.580838
0.543072
0.569983
0.563162
0.562145
0.596673
0.582632
0.4784
0.493978
0.493771
0.365038
0.427893
0.108501
0.143516
0.111385
0.0838356
0.106774
0.144892
0.179648
0.157676
0.189312
0.259349
0.195929
0.243416
0.175423
0.184769
0.139433
0.122638
0.127079
0.124467
0.15655
0.115619
0.998755
1.01547
1.15094
1.1758
1.29491
1.56933
1.72318
1.92434
2.02521
1.98585
2.07091
2.0143
1.91993
1.81082
1.57222
1.48007
1.4191
1.22148
1.05453
1.08349
0.889695
0.863506
0.933634
1.05992
1.17063
1.32759
1.45692
1.68197
1.69366
1.77908
1.79085
1.79272
1.61085
1.64234
1.41281
1.21095
1.19897
1.08861
1.00782
1.00631
0.664674
0.714176
0.760273
0.904709
1.00086
1.1159
1.28706
1.42031
1.47291
1.45818
1.52753
1.51259
1.36395
1.34207
1.25141
1.13462
1.08973
0.934486
0.953114
0.834329
0.500052
0.616914
0.641719
0.628487
0.847162
0.889872
1.04418
1.07335
1.15925
1.19806
1.24732
1.19905
1.17267
1.12316
1.04447
0.93082
0.926811
0.760855
0.756081
0.71009
0.369341
0.414968
0.454236
0.524427
0.565949
0.71551
0.799986
0.93077
0.961346
0.968781
0.963147
0.936107
0.917486
0.92648
0.756451
0.687472
0.699741
0.59454
0.641716
0.611714
0.27476
0.264361
0.261308
0.366408
0.436628
0.499704
0.536878
0.719135
0.627457
0.655316
0.711658
0.651468
0.60615
0.656395
0.602299
0.485536
0.496429
0.414969
0.411852
0.44457
0.200682
0.261468
0.188295
0.251575
0.259404
0.299991
0.329297
0.41196
0.392251
0.415628
0.453583
0.406485
0.391897
0.373789
0.368373
0.334671
0.286806
0.308629
0.219366
0.224993
0.0628597
0.0238679
0.0813151
0.0533523
0.0333941
0.0839268
0.110195
0.15209
0.153327
0.117728
0.127121
0.152765
0.15588
0.0301225
0.120428
0.119165
0.122136
0.096678
0.0887365
0.110457
0.427939
0.424577
0.38329
0.539154
0.614338
0.806159
0.931878
0.998218
1.17702
1.21266
1.18462
1.14439
1.04891
0.932842
0.775804
0.736378
0.615439
0.468735
0.394305
0.363776
0.291813
0.283426
0.363199
0.405585
0.533842
0.691167
0.740763
0.841218
0.920585
1.08956
1.04213
1.01942
0.95598
0.841416
0.792673
0.591061
0.553205
0.467207
0.490206
0.374527
0.19562
0.274843
0.25902
0.313061
0.368671
0.520727
0.588095
0.680714
0.821597
0.781813
0.851028
0.779738
0.763306
0.765015
0.641964
0.485122
0.3893
0.425824
0.350342
0.38598
0.210088
0.187209
0.243316
0.279646
0.329761
0.449162
0.557953
0.6062
0.68725
0.695905
0.727992
0.719488
0.617721
0.591272
0.599387
0.453228
0.459255
0.347517
0.292329
0.307476
0.115382
0.110615
0.171527
0.114207
0.2746
0.301978
0.405599
0.471461
0.527442
0.553571
0.592911
0.513743
0.519057
0.501199
0.393407
0.311259
0.345313
0.215883
0.255673
0.266775
0.0849673
0.104235
0.148529
0.155056
0.156586
0.248827
0.253245
0.328924
0.4001
0.351714
0.409305
0.41912
0.3542
0.286685
0.281979
0.318278
0.213282
0.16874
0.201324
0.171141
0.057809
0.0493073
0.035836
0.0953749
0.0254906
0.18894
0.227329
0.191179
0.292566
0.221806
0.216414
0.24442
0.218757
0.172086
0.220769
0.169054
0.0633949
0.167726
0.0939622
0.0857351
0.00983417
-0.0225306
0.0287503
0.0677136
0.0122308
-0.00876652
0.0157126
0.0654232
0.0646532
0.0941055
0.140746
0.130512
0.0881315
0.0397004
0.0263871
0.103575
0.0876981
0.0373606
0.056261
0.0434099
-0.148304
-0.152573
-0.168234
-0.0527868
-0.00437117
0.0218388
0.137634
0.260097
0.344563
0.358691
0.391542
0.301595
0.253105
0.115002
0.00562707
-0.109886
-0.215092
-0.275564
-0.219705
-0.227639
-0.160404
-0.140587
-0.182449
-0.10256
-0.0304724
0.0683376
0.13333
0.141887
0.298331
0.301356
0.315247
0.278474
0.225007
0.17506
0.0894711
0.0290121
-0.136401
-0.191362
-0.126326
-0.166325
-0.155751
-0.117258
-0.186031
-0.122888
-0.0451057
-0.0394246
0.118332
0.146328
0.198196
0.288019
0.281414
0.26818
0.217871
0.119856
-0.0164236
-0.0186932
-0.0535813
-0.124126
-0.12955
-0.0675945
-0.100165
-0.216242
-0.175509
-0.105827
-0.110558
0.0350402
0.0559944
0.100737
0.187097
0.20382
0.211894
0.18767
0.125861
0.151048
0.0587381
0.0564214
-0.0144171
-0.100767
-0.0357183
-0.0872004
-0.0597125
-0.130328
-0.143908
-0.101687
-0.0242517
-0.0212118
0.106707
0.14289
0.174902
0.179101
0.11394
0.227248
0.0585858
0.0677226
0.0775187
0.0271766
-0.0360438
-0.0277798
-0.0914899
-0.0579717
-0.108413
-0.171329
-0.140695
-0.117157
-0.0171782
0.0113764
0.0196976
0.136625
0.0974429
0.137411
0.0523883
0.0984512
0.128432
0.103637
0.0657038
0.0143
-0.0646461
-0.0253053
-0.0120886
-0.0658107
-0.0717587
-0.0437025
-0.0905798
-0.105154
-0.0510122
0.0164812
-0.00816871
0.00763712
0.0116558
0.0711568
0.067543
0.0284459
0.0131405
0.0767282
0.0249221
0.0649166
0.0609567
-0.0013854
-0.00608201
0.0504797
-0.0340904
-0.0505472
-0.0229802
-0.0249023
-0.0350703
-0.0188867
-0.0464241
0.0300678
-0.0112788
0.0358099
0.00162599
0.0822706
0.0354366
-0.0404998
-0.0562807
0.064334
0.071208
0.0193382
-0.0157387
-0.00817872
-0.506271
-0.619811
-0.642254
-0.605304
-0.614997
-0.631604
-0.511928
-0.40968
-0.406502
-0.311616
-0.34943
-0.463286
-0.50482
-0.554253
-0.608346
-0.742845
-0.780923
-0.776713
-0.806174
-0.703718
-0.555515
-0.568814
-0.626167
-0.62653
-0.519968
-0.435646
-0.410958
-0.359991
-0.331087
-0.316124
-0.302761
-0.422037
-0.435547
-0.491933
-0.567156
-0.562662
-0.627884
-0.565505
-0.653404
-0.588014
-0.489231
-0.577058
-0.551021
-0.579629
-0.5562
-0.430107
-0.409108
-0.322923
-0.280293
-0.24293
-0.258504
-0.322172
-0.345288
-0.333886
-0.472145
-0.518532
-0.47346
-0.545837
-0.55966
-0.473308
-0.502102
-0.424007
-0.427542
-0.483833
-0.45033
-0.353466
-0.369784
-0.243003
-0.24929
-0.20379
-0.281325
-0.195811
-0.273176
-0.323507
-0.356762
-0.438024
-0.466481
-0.367461
-0.457474
-0.360019
-0.332173
-0.39652
-0.37878
-0.2838
-0.399207
-0.309695
-0.265975
-0.23722
-0.24262
-0.184852
-0.229432
-0.265268
-0.232688
-0.241394
-0.303504
-0.347415
-0.324321
-0.282861
-0.275664
-0.236875
-0.249933
-0.282021
-0.24393
-0.311006
-0.257258
-0.164554
-0.226178
-0.129473
-0.140112
-0.174096
-0.0907252
-0.169924
-0.209638
-0.190827
-0.131735
-0.198512
-0.26217
-0.221366
-0.197011
-0.197398
-0.215037
-0.117427
-0.131122
-0.199532
-0.146142
-0.134787
-0.106582
-0.172584
-0.0821852
-0.0147296
-0.113191
-0.0516771
-0.0692627
-0.105081
-0.0918846
-0.145581
-0.109482
-0.171976
-0.062911
-0.124773
-0.048621
-0.00511148
-0.0377382
-0.0946964
-0.0300889
-0.0670885
-0.0570834
-0.0329251
-0.0745292
-0.100722
-0.0390906
-0.0453282
-0.0808225
0.0245878
-0.0368575
-0.0706409
-0.0456613
-0.0137126
-0.0416332
0.0265443
-0.896476
-1.00676
-1.04878
-1.04917
-1.09394
-1.18807
-1.08001
-0.997781
-0.981346
-1.0544
-1.04068
-1.09776
-1.18794
-1.23554
-1.13448
-1.29897
-1.27503
-1.33095
-1.30034
-1.20914
-0.830565
-0.891613
-1.01697
-0.998137
-1.01748
-0.931933
-0.906934
-0.92187
-0.851128
-0.835645
-0.826312
-0.959845
-0.921074
-1.02331
-1.06798
-1.03054
-1.04595
-1.04604
-1.09188
-1.05811
-0.75331
-0.831051
-0.893961
-0.838239
-0.900841
-0.897233
-0.8557
-0.820125
-0.780856
-0.747547
-0.75472
-0.80335
-0.728776
-0.867656
-0.868356
-0.849139
-0.920629
-0.911963
-0.832369
-0.826679
-0.623221
-0.712927
-0.663052
-0.758691
-0.768977
-0.72558
-0.687771
-0.672221
-0.614993
-0.619064
-0.655024
-0.65788
-0.60776
-0.682986
-0.683965
-0.698668
-0.677
-0.671534
-0.634642
-0.616534
-0.49863
-0.612382
-0.591638
-0.616232
-0.571106
-0.537881
-0.53701
-0.562324
-0.516711
-0.457615
-0.506275
-0.481879
-0.51359
-0.546437
-0.602888
-0.584666
-0.506929
-0.499216
-0.545467
-0.493994
-0.308912
-0.413563
-0.461686
-0.376766
-0.390806
-0.413464
-0.374616
-0.339431
-0.355606
-0.310472
-0.339076
-0.355926
-0.425907
-0.364057
-0.347016
-0.371393
-0.422321
-0.367713
-0.44366
-0.343214
-0.240593
-0.205747
-0.287245
-0.26324
-0.29118
-0.156745
-0.173124
-0.226774
-0.213057
-0.232828
-0.200475
-0.14789
-0.292202
-0.293797
-0.225233
-0.2384
-0.17673
-0.207397
-0.194762
-0.253481
-0.0765935
-0.062721
-0.0898374
-0.129255
-0.0572378
-0.06784
-0.103534
-0.100053
-0.0769073
-0.063298
-0.127283
-0.0755807
-0.0900551
-0.0633558
-0.0523494
-0.0599405
0.00109635
-0.107146
-0.0254606
-0.0581435
-1.13446
-1.3137
-1.45346
-1.42962
-1.49046
-1.51525
-1.55633
-1.57001
-1.59053
-1.63019
-1.61366
-1.6231
-1.68482
-1.71916
-1.76062
-1.77542
-1.75544
-1.68584
-1.60704
-1.49466
-1.11174
-1.14849
-1.2519
-1.28563
-1.3832
-1.4356
-1.43398
-1.39336
-1.36934
-1.42782
-1.38517
-1.4203
-1.37106
-1.49653
-1.44283
-1.5199
-1.483
-1.44477
-1.40153
-1.31039
-0.905876
-1.0353
-1.08656
-1.10178
-1.14767
-1.24665
-1.19551
-1.14035
-1.18066
-1.16314
-1.20909
-1.17556
-1.22705
-1.23731
-1.2876
-1.26641
-1.21797
-1.19184
-1.16998
-1.05504
-0.719314
-0.842003
-0.929288
-0.998083
-0.929065
-0.90472
-0.983474
-1.00139
-1.03055
-0.913984
-0.877742
-1.03023
-1.00179
-0.998032
-1.10522
-1.00866
-0.95853
-0.983398
-0.9969
-0.862205
-0.642442
-0.553878
-0.722321
-0.750733
-0.809838
-0.73116
-0.804695
-0.770195
-0.740091
-0.763289
-0.739964
-0.682378
-0.768196
-0.832386
-0.80376
-0.737753
-0.818662
-0.760176
-0.812147
-0.639981
-0.472157
-0.452859
-0.599276
-0.561136
-0.567674
-0.624028
-0.58757
-0.557044
-0.519903
-0.540099
-0.590605
-0.51925
-0.532607
-0.544823
-0.632261
-0.565082
-0.563377
-0.551071
-0.445753
-0.474527
-0.24829
-0.337154
-0.361838
-0.319364
-0.388407
-0.376624
-0.384967
-0.311219
-0.280968
-0.350572
-0.350607
-0.363564
-0.33554
-0.390656
-0.42112
-0.276334
-0.298409
-0.31417
-0.323886
-0.300742
-0.105535
-0.127513
-0.129345
-0.0837608
-0.102566
-0.0917131
-0.125025
-0.165495
-0.127466
-0.0767938
-0.0631383
-0.109812
-0.122765
-0.17321
-0.123709
-0.130857
-0.0649828
-0.164763
-0.0681114
-0.0671328
-1.39216
-1.50488
-1.58413
-1.71227
-1.86376
-1.87603
-1.9513
-1.9125
-1.98392
-1.99999
-2.04999
-2.03448
-2.0649
-2.1832
-2.17187
-2.21201
-2.0979
-2.02893
-1.89291
-1.76659
-1.1981
-1.35833
-1.44019
-1.54705
-1.63371
-1.68363
-1.71262
-1.73128
-1.7519
-1.79608
-1.79614
-1.80372
-1.81549
-1.81164
-1.90354
-1.9229
-1.72671
-1.70944
-1.63918
-1.52312
-1.10215
-1.15397
-1.28486
-1.38827
-1.3861
-1.48953
-1.46121
-1.46356
-1.56583
-1.37441
-1.46068
-1.44947
-1.5144
-1.51143
-1.59053
-1.54598
-1.43107
-1.4459
-1.34555
-1.2377
-0.843208
-1.01263
-1.0693
-1.11006
-1.18139
-1.24182
-1.23397
-1.21517
-1.21759
-1.12078
-1.23771
-1.21832
-1.1896
-1.26263
-1.29942
-1.30807
-1.19394
-1.18175
-1.13377
-1.03254
-0.691922
-0.740101
-0.811843
-0.9563
-0.959177
-0.918477
-0.972523
-0.947091
-0.962124
-0.845825
-0.912908
-0.979684
-0.987402
-0.961888
-0.976804
-1.05731
-0.942068
-0.922733
-0.809025
-0.802843
-0.53259
-0.595119
-0.593645
-0.705879
-0.658615
-0.629335
-0.648846
-0.736536
-0.682236
-0.645704
-0.694888
-0.649709
-0.672047
-0.752372
-0.740669
-0.698715
-0.65853
-0.589854
-0.558089
-0.625618
-0.330218
-0.385445
-0.391097
-0.446865
-0.416998
-0.411333
-0.370563
-0.394436
-0.460022
-0.406426
-0.438483
-0.439936
-0.397494
-0.434124
-0.405449
-0.369323
-0.385962
-0.438946
-0.349022
-0.343525
-0.0731182
-0.0763496
-0.176337
-0.0911547
-0.0850821
-0.207023
-0.158736
-0.0845778
-0.0921193
-0.0863164
-0.178554
-0.108524
-0.0887502
-0.143215
-0.117081
-0.137574
-0.121811
-0.181164
-0.0846234
-0.111092
-1.42136
-1.68589
-1.77017
-1.96685
-2.04091
-2.18388
-2.24869
-2.24182
-2.28947
-2.25682
-2.36796
-2.42364
-2.41941
-2.4577
-2.43886
-2.38438
-2.33061
-2.2537
-2.06768
-1.92479
-1.2664
-1.41943
-1.61422
-1.76131
-1.8617
-1.93301
-1.96334
-2.02769
-1.98402
-2.04463
-2.01683
-2.08293
-2.08054
-2.13434
-2.13109
-2.09208
-2.01566
-1.92055
-1.83559
-1.63661
-1.0584
-1.27008
-1.40356
-1.48904
-1.50595
-1.67446
-1.69213
-1.68598
-1.68952
-1.70902
-1.7121
-1.81735
-1.76534
-1.78646
-1.75772
-1.77728
-1.65883
-1.59102
-1.5357
-1.33041
-0.946959
-1.10061
-1.10904
-1.27916
-1.34432
-1.29559
-1.41601
-1.46453
-1.43453
-1.45059
-1.40468
-1.46343
-1.42344
-1.4988
-1.48795
-1.46895
-1.35603
-1.25492
-1.2171
-1.08538
-0.789768
-0.777758
-0.924555
-1.07049
-1.03534
-1.07234
-1.12523
-1.11542
-1.09061
-1.21431
-1.13658
-1.11464
-1.13506
-1.12269
-1.11531
-1.09167
-1.02397
-1.00782
-0.93523
-0.827056
-0.529103
-0.533646
-0.635411
-0.679589
-0.760352
-0.781865
-0.745931
-0.797445
-0.808719
-0.781187
-0.806487
-0.851775
-0.825946
-0.803734
-0.830988
-0.748664
-0.742178
-0.692919
-0.652761
-0.586657
-0.288049
-0.349792
-0.408878
-0.459372
-0.460163
-0.495766
-0.463535
-0.489767
-0.490977
-0.464579
-0.500684
-0.535246
-0.50661
-0.467438
-0.468215
-0.476107
-0.502771
-0.467802
-0.314295
-0.344363
-0.14501
-0.112677
-0.202547
-0.150651
-0.173472
-0.12783
-0.243558
-0.142105
-0.13555
-0.225909
-0.143143
-0.17935
-0.206147
-0.196634
-0.141716
-0.173724
-0.0937076
-0.163556
-0.091069
-0.12006
-1.28366
-1.52794
-1.7862
-2.00988
-2.19862
-2.26358
-2.43521
-2.48737
-2.52572
-2.51066
-2.6147
-2.64256
-2.61658
-2.60748
-2.63937
-2.54911
-2.46852
-2.33357
-2.0691
-1.98948
-1.23224
-1.33263
-1.65032
-1.80629
-1.95837
-2.00169
-2.10923
-2.14988
-2.18708
-2.21235
-2.30068
-2.31331
-2.28539
-2.2728
-2.26356
-2.22486
-2.14418
-2.00086
-1.85184
-1.70125
-1.1206
-1.18687
-1.39139
-1.52996
-1.67625
-1.77548
-1.75194
-1.8209
-1.88012
-1.86729
-1.91765
-1.90316
-1.92112
-1.92329
-1.88484
-1.88989
-1.75158
-1.61242
-1.55238
-1.40735
-0.877578
-1.05563
-1.17334
-1.31781
-1.32794
-1.43636
-1.47296
-1.5422
-1.54444
-1.60307
-1.58345
-1.51919
-1.57699
-1.58306
-1.56505
-1.48182
-1.4503
-1.43659
-1.269
-1.21156
-0.717354
-0.864709
-0.878671
-1.04782
-1.05929
-1.10522
-1.14974
-1.14163
-1.22142
-1.22094
-1.265
-1.28153
-1.25603
-1.27434
-1.1847
-1.15822
-1.09938
-1.00044
-0.971393
-0.839817
-0.506929
-0.547786
-0.624675
-0.718979
-0.812766
-0.796049
-0.852303
-0.857176
-0.80566
-0.841002
-0.924459
-0.872767
-0.863614
-0.903873
-0.915044
-0.807174
-0.743307
-0.789721
-0.681276
-0.668193
-0.322185
-0.315868
-0.419102
-0.438571
-0.468882
-0.494387
-0.51941
-0.521591
-0.516214
-0.481883
-0.516015
-0.555895
-0.502355
-0.485567
-0.535461
-0.450844
-0.487865
-0.484314
-0.408831
-0.380719
-0.156267
-0.0670076
-0.140097
-0.193891
-0.149507
-0.107393
-0.188838
-0.195638
-0.196267
-0.174444
-0.149689
-0.175264
-0.134859
-0.19958
-0.128597
-0.138047
-0.144212
-0.212504
-0.135704
-0.143518
-1.12252
-1.49621
-1.74953
-1.96526
-2.15329
-2.29722
-2.39895
-2.47659
-2.62795
-2.63832
-2.74351
-2.77303
-2.69159
-2.68116
-2.65571
-2.56536
-2.45619
-2.40349
-2.16758
-1.89951
-1.08745
-1.29053
-1.5426
-1.69051
-1.87032
-2.09716
-2.12311
-2.20405
-2.24986
-2.34103
-2.38672
-2.35914
-2.30896
-2.38831
-2.30102
-2.33037
-2.15284
-2.00916
-1.79513
-1.66997
-0.951914
-1.12056
-1.32045
-1.47835
-1.63887
-1.85433
-1.87859
-1.88223
-1.91579
-1.96162
-2.01417
-1.99964
-2.08946
-1.97515
-1.94447
-1.93286
-1.81743
-1.69319
-1.5905
-1.40217
-0.788054
-0.92579
-1.13987
-1.27556
-1.33685
-1.38839
-1.49103
-1.5394
-1.65403
-1.58188
-1.66251
-1.62301
-1.67079
-1.57727
-1.5961
-1.54256
-1.50405
-1.36408
-1.25569
-1.09959
-0.605478
-0.69897
-0.861594
-1.03256
-1.05102
-1.07653
-1.21641
-1.17572
-1.25477
-1.33614
-1.2692
-1.2935
-1.26131
-1.34078
-1.19989
-1.23962
-1.18043
-1.01577
-0.962095
-0.907975
-0.4661
-0.533939
-0.65138
-0.745383
-0.81821
-0.869617
-0.875007
-0.915018
-0.888522
-0.928139
-0.909127
-0.945792
-0.952514
-0.856465
-0.937667
-0.881182
-0.828528
-0.811685
-0.684933
-0.612528
-0.307403
-0.363994
-0.352894
-0.440663
-0.438563
-0.473344
-0.507373
-0.530589
-0.582568
-0.515103
-0.54166
-0.628876
-0.542978
-0.541548
-0.519339
-0.458766
-0.482507
-0.408989
-0.420648
-0.331058
-0.103505
-0.121488
-0.123752
-0.128154
-0.180715
-0.160099
-0.183798
-0.193933
-0.165604
-0.112941
-0.217508
-0.201272
-0.162896
-0.136697
-0.170141
-0.17829
-0.116898
-0.145313
-0.12738
0.00324288
-0.911131
-1.14963
-1.5574
-1.74068
-1.92028
-2.15345
-2.37343
-2.47666
-2.51026
-2.60223
-2.70578
-2.76512
-2.71174
-2.7326
-2.60695
-2.45923
-2.38449
-2.17906
-1.94967
-1.66436
-0.839599
-1.02828
-1.35426
-1.59768
-1.7889
-1.94367
-2.10304
-2.18711
-2.23496
-2.33224
-2.35543
-2.37589
-2.36035
-2.32037
-2.27684
-2.18276
-2.09634
-1.92859
-1.65099
-1.41602
-0.797939
-0.960713
-1.16493
-1.36688
-1.46034
-1.65245
-1.81577
-1.84275
-1.933
-1.89844
-1.98332
-1.99702
-2.0093
-1.94398
-1.90442
-1.79748
-1.66879
-1.52809
-1.42573
-1.26829
-0.633329
-0.792142
-0.966468
-1.14314
-1.34817
-1.38854
-1.40587
-1.54423
-1.52775
-1.63001
-1.58765
-1.67663
-1.61188
-1.58143
-1.62912
-1.55362
-1.38658
-1.29032
-1.16217
-0.987146
-0.519077
-0.637624
-0.838261
-0.903687
-1.06561
-1.05205
-1.14862
-1.14644
-1.24044
-1.25228
-1.31155
-1.32493
-1.20706
-1.25078
-1.19397
-1.13258
-1.08514
-1.00417
-0.85082
-0.776757
-0.435225
-0.485388
-0.538015
-0.582549
-0.716322
-0.768381
-0.808004
-0.927825
-0.878534
-0.887977
-0.885469
-0.8479
-0.942443
-0.855168
-0.840649
-0.74554
-0.806636
-0.71071
-0.592053
-0.585585
-0.293283
-0.223312
-0.403036
-0.347496
-0.407386
-0.469841
-0.52017
-0.573814
-0.600217
-0.514938
-0.506775
-0.53043
-0.484456
-0.505277
-0.534141
-0.482633
-0.351646
-0.447655
-0.356136
-0.344835
-0.0995391
-0.0926314
-0.124999
-0.148996
-0.163159
-0.169878
-0.149893
-0.185321
-0.24343
-0.223898
-0.19567
-0.206129
-0.198382
-0.152075
-0.149407
-0.136659
-0.163633
-0.0712126
-0.113221
-0.112732
-0.530769
-0.888524
-1.11973
-1.52009
-1.80357
-1.99327
-2.08043
-2.26986
-2.37825
-2.46272
-2.54721
-2.4901
-2.61743
-2.50191
-2.42394
-2.25351
-2.17371
-2.00361
-1.62349
-1.38197
-0.532627
-0.821376
-1.02861
-1.35651
-1.56537
-1.73171
-1.83075
-2.06113
-2.06105
-2.15219
-2.18233
-2.26601
-2.23849
-2.21195
-2.11653
-2.0382
-1.81418
-1.66031
-1.4582
-1.25533
-0.488315
-0.684393
-0.927049
-1.13737
-1.33755
-1.50972
-1.64875
-1.69532
-1.74278
-1.84127
-1.91349
-1.89567
-1.93487
-1.83197
-1.76347
-1.74037
-1.55281
-1.3557
-1.17376
-1.01613
-0.462524
-0.637604
-0.819069
-0.960913
-1.05384
-1.27003
-1.38465
-1.42425
-1.48255
-1.52137
-1.57836
-1.60127
-1.53786
-1.49183
-1.42721
-1.40698
-1.2938
-1.22951
-0.959102
-0.786059
-0.331204
-0.47429
-0.672487
-0.79274
-0.882996
-0.983524
-1.11672
-1.05117
-1.17735
-1.21333
-1.17449
-1.23462
-1.16113
-1.12596
-1.12004
-1.11256
-0.986454
-0.836733
-0.783454
-0.603884
-0.315308
-0.391208
-0.518819
-0.567156
-0.709097
-0.683937
-0.765892
-0.843459
-0.823047
-0.871303
-0.86785
-0.862512
-0.844842
-0.873228
-0.77305
-0.810861
-0.659673
-0.589745
-0.572464
-0.515996
-0.152983
-0.211927
-0.290337
-0.36253
-0.393515
-0.481131
-0.468623
-0.550588
-0.487492
-0.547764
-0.536569
-0.562641
-0.521513
-0.493917
-0.525389
-0.378427
-0.428907
-0.429184
-0.331331
-0.240637
-0.049982
-0.0959439
-0.157414
-0.0592017
-0.114383
-0.0843223
-0.185541
-0.258168
-0.169025
-0.171841
-0.217879
-0.0989557
-0.191781
-0.211315
-0.174433
-0.184918
-0.154909
-0.183073
-0.0723387
-0.0679191
-0.00513848
-0.351757
-0.721056
-1.04934
-1.38757
-1.51063
-1.7726
-1.99593
-2.13522
-2.16639
-2.26688
-2.24154
-2.21405
-2.2101
-2.10934
-2.02356
-1.83997
-1.61322
-1.32788
-0.972709
-0.115195
-0.376224
-0.730228
-1.05596
-1.2624
-1.51074
-1.65398
-1.67752
-1.90863
-1.95092
-1.99585
-1.9666
-2.03499
-1.90095
-1.89475
-1.70741
-1.56588
-1.29121
-1.09075
-0.828758
-0.193587
-0.407162
-0.659153
-0.895083
-1.14878
-1.32795
-1.39146
-1.524
-1.61479
-1.6072
-1.7692
-1.67337
-1.65411
-1.67807
-1.56468
-1.45852
-1.26883
-1.0802
-0.914734
-0.750998
-0.147594
-0.362451
-0.605359
-0.79376
-0.942966
-1.03644
-1.2108
-1.28109
-1.31883
-1.38819
-1.41364
-1.44954
-1.38808
-1.36946
-1.33487
-1.19833
-1.14378
-0.94623
-0.773479
-0.625925
-0.235875
-0.30079
-0.501763
-0.576521
-0.733935
-0.831787
-0.90769
-1.05192
-1.044
-1.08974
-1.15783
-1.17613
-1.05537
-1.09822
-1.05982
-0.956295
-0.913783
-0.688213
-0.669795
-0.472743
-0.138906
-0.273736
-0.320049
-0.525621
-0.523366
-0.636157
-0.642841
-0.736268
-0.786115
-0.834568
-0.821598
-0.731802
-0.777863
-0.775846
-0.722342
-0.690755
-0.649976
-0.577445
-0.348429
-0.260914
-0.0932872
-0.0785726
-0.251934
-0.267738
-0.353578
-0.411818
-0.444469
-0.413075
-0.406298
-0.441942
-0.453224
-0.505408
-0.499775
-0.466822
-0.488851
-0.333976
-0.417049
-0.306946
-0.269086
-0.219533
-0.0272027
-0.0317009
-0.191353
-0.127181
-0.121696
-0.151152
-0.17574
-0.1777
-0.122085
-0.139541
-0.162304
-0.105865
-0.142376
-0.194127
-0.0629645
-0.140488
-0.16013
-0.0744504
-0.0727779
-0.0124954
0.526467
0.194605
-0.26701
-0.632719
-0.914589
-1.2033
-1.38066
-1.60665
-1.64925
-1.85635
-1.85926
-1.93115
-1.98861
-1.90668
-1.76002
-1.56006
-1.45885
-1.19137
-0.863287
-0.545818
0.37067
0.0867596
-0.369106
-0.658984
-0.891376
-1.09104
-1.26497
-1.45928
-1.54153
-1.62469
-1.65311
-1.71379
-1.66983
-1.63121
-1.56895
-1.36247
-1.31935
-0.988332
-0.680835
-0.501386
0.166973
-0.0681355
-0.351316
-0.651885
-0.825832
-0.999336
-1.10781
-1.27071
-1.34048
-1.42615
-1.50517
-1.4786
-1.4681
-1.3901
-1.35136
-1.205
-1.05615
-0.86072
-0.674503
-0.416505
0.142296
-0.0484277
-0.323706
-0.548005
-0.640403
-0.863918
-0.9858
-1.09955
-1.10393
-1.14615
-1.2264
-1.24441
-1.20079
-1.233
-1.11044
-1.00039
-0.826173
-0.705785
-0.472495
-0.401261
0.103585
-0.0452791
-0.301893
-0.459262
-0.529573
-0.699976
-0.740938
-0.910473
-0.921627
-0.958311
-1.00844
-0.902799
-1.00907
-0.925462
-0.832058
-0.841731
-0.73234
-0.602318
-0.458553
-0.287274
0.0756631
-0.0511161
-0.157485
-0.3333
-0.384921
-0.494884
-0.540343
-0.576598
-0.716483
-0.654929
-0.684796
-0.698349
-0.709565
-0.658887
-0.620719
-0.542315
-0.432735
-0.388046
-0.280831
-0.19536
-0.0203315
0.000597301
-0.12063
-0.202282
-0.289925
-0.284606
-0.341817
-0.416869
-0.432915
-0.2941
-0.397604
-0.459151
-0.469133
-0.385726
-0.382529
-0.33334
-0.243531
-0.178352
-0.17415
-0.117159
0.0283629
-0.0326419
-0.031046
-0.0278791
-0.0594382
-0.153593
-0.148806
-0.139881
-0.140028
-0.097201
-0.127809
-0.10552
-0.0710335
-0.119039
-0.134475
-0.089863
-0.154777
-0.0812665
-0.0618923
-0.0560614
1.02265
0.566694
0.195183
-0.200484
-0.511414
-0.84637
-0.996584
-1.22214
-1.3556
-1.44778
-1.59244
-1.6051
-1.57647
-1.44654
-1.44986
-1.25042
-1.06292
-0.783432
-0.458269
-0.091613
0.721515
0.408785
-0.0162044
-0.272669
-0.607797
-0.828049
-1.03046
-1.22393
-1.21858
-1.33289
-1.44735
-1.3759
-1.43067
-1.36179
-1.3135
-1.13171
-0.956886
-0.728845
-0.450555
-0.133714
0.482537
0.206337
0.0398175
-0.343443
-0.592681
-0.75904
-0.885954
-1.00113
-1.14061
-1.17702
-1.25875
-1.23641
-1.26269
-1.10985
-1.13883
-1.05531
-0.75021
-0.636481
-0.387014
-0.206467
0.433652
0.106758
-0.106759
-0.294647
-0.43644
-0.655639
-0.787651
-0.893045
-0.881896
-0.981304
-1.13138
-1.04667
-1.07554
-0.96796
-0.915482
-0.8426
-0.670955
-0.563919
-0.320235
-0.170594
0.275127
0.119324
-0.0812619
-0.283668
-0.392096
-0.565296
-0.646426
-0.76437
-0.754307
-0.764662
-0.837781
-0.823774
-0.806917
-0.770221
-0.74317
-0.641399
-0.524377
-0.453876
-0.246463
-0.169335
0.155096
0.0192732
-0.131054
-0.251097
-0.253047
-0.444918
-0.450017
-0.548472
-0.594749
-0.593851
-0.626348
-0.643495
-0.580872
-0.612514
-0.539726
-0.451285
-0.393843
-0.233623
-0.173205
-0.0533859
0.0712419
0.0429284
-0.0612128
-0.196502
-0.223129
-0.216301
-0.265362
-0.350474
-0.325571
-0.358574
-0.397539
-0.371649
-0.299728
-0.37011
-0.365848
-0.261777
-0.245217
-0.162185
-0.048357
-0.048575
-0.00478951
0.00619654
0.00919151
-0.0494626