/*--------------------------------*- C++ -*----------------------------------*\
| =========                 |                                                 |
| \\      /  F ield         | OpenFOAM: The Open Source CFD Toolbox           |
|  \\    /   O peration     | Version:  2212                                  |
|   \\  /    A nd           | Website:  www.openfoam.com                      |
|    \\/     M anipulation  |                                                 |
\*---------------------------------------------------------------------------*/
FoamFile
{
    version     2.0;
    format      ascii;
    arch        "LSB;label=32;scalar=64";
    class       volScalarField;
    location    "0";
    object      relativeErrorField;
}
// * * * * * * * * * * * * * * * * * * * * * * * * * * * * * * * * * * * * * //

dimensions      [0 0 0 1 0 0 0];

internalField   nonuniform List<scalar> 
3200
(
0.0134648
0.014308
0.0149461
0.0158526
0.0168283
0.0175951
0.0186954
0.0193265
0.0198357
0.0200789
0.0204185
0.020383
0.0197709
0.0193374
0.0184358
0.0176794
0.0172242
0.0164151
0.0157147
0.0153435
0.0118645
0.0123882
0.0131303
0.0135286
0.0145391
0.015331
0.0159741
0.0167679
0.0172978
0.0174855
0.0177889
0.0177959
0.0174453
0.016832
0.0160375
0.01547
0.0148548
0.0142313
0.0137876
0.0133533
0.00991169
0.0103618
0.0109508
0.0113022
0.0120528
0.012732
0.0135709
0.0139946
0.0147558
0.0149013
0.0151961
0.0148628
0.0144925
0.0139766
0.0136001
0.0131831
0.0125678
0.0121702
0.011429
0.0116086
0.00802926
0.00844823
0.00894643
0.00931883
0.00990532
0.0104594
0.0113873
0.011504
0.0121554
0.0123339
0.0122075
0.0122346
0.0119683
0.0114784
0.0113906
0.0108198
0.0105495
0.0100877
0.00969008
0.00932799
0.00603871
0.00656121
0.00678607
0.0075303
0.00765474
0.00810807
0.00859843
0.00919472
0.00920508
0.00939687
0.00966826
0.00970471
0.00942574
0.00921602
0.00856013
0.00842444
0.00809112
0.00769049
0.00766915
0.00731765
0.00444813
0.00440336
0.00486822
0.00516695
0.00554492
0.00568673
0.0061451
0.00625658
0.00673161
0.0069789
0.0066658
0.00679603
0.00679533
0.00654624
0.00639747
0.00592566
0.00594592
0.00568207
0.00554565
0.005293
0.00275732
0.00274525
0.00304264
0.0030423
0.0031711
0.00346826
0.00386319
0.00376666
0.00413805
0.004264
0.00417216
0.00413098
0.00409479
0.00393311
0.00388229
0.00377018
0.00354263
0.00344228
0.00339645
0.003201
0.000888035
0.000954602
0.000950438
0.000989839
0.00114402
0.00127384
0.00136412
0.00132879
0.00134801
0.00126098
0.00145507
0.00142175
0.00114471
0.00113346
0.00142967
0.00123357
0.00115442
0.000961292
0.000964597
0.00107659
0.0120459
0.0124557
0.0130575
0.0140172
0.0148041
0.0156397
0.0166653
0.0173202
0.0178239
0.0181331
0.018283
0.0181024
0.0176956
0.0171203
0.0164197
0.0156008
0.0149841
0.0144919
0.0137986
0.0133168
0.0103954
0.0107137
0.0113762
0.0119593
0.0129466
0.0134466
0.0142279
0.0149292
0.0154659
0.0155886
0.0158454
0.0158814
0.0155819
0.0148896
0.0143962
0.0137321
0.0134007
0.0125731
0.0122664
0.0117989
0.00885037
0.00925907
0.00964579
0.00993599
0.0107041
0.0112632
0.0120116
0.0126181
0.0131224
0.0134578
0.0136085
0.0135068
0.0132949
0.0126792
0.0122256
0.0116027
0.0113653
0.0109927
0.0103753
0.0101603
0.00715599
0.00741288
0.00776277
0.00845626
0.00883605
0.00937603
0.00995791
0.0104559
0.0108594
0.0111983
0.0110706
0.011171
0.0109816
0.0105304
0.0101143
0.0096459
0.0092766
0.00874809
0.0086834
0.00841181
0.00565027
0.00552506
0.00618385
0.00661401
0.00700666
0.00730214
0.00770191
0.00830144
0.00834251
0.00863115
0.00857871
0.00876837
0.00864071
0.00831525
0.00788554
0.0075196
0.00733133
0.00697311
0.00671516
0.00664955
0.00387852
0.00419166
0.00420059
0.00478561
0.00511086
0.00535911
0.00568985
0.00580504
0.00606053
0.00610033
0.00633813
0.00614217
0.00613139
0.0059111
0.0056607
0.00547705
0.00517363
0.00497215
0.00482309
0.0047119
0.0023566
0.00237608
0.00252894
0.00282977
0.00294247
0.00307549
0.00323256
0.00350043
0.00376576
0.00389548
0.00388522
0.00402837
0.00356172
0.00356625
0.00335914
0.0033265
0.00321729
0.00314426
0.00288729
0.00304668
0.00067729
0.000900339
0.0010943
0.00100823
0.00105184
0.000900309
0.001097
0.00127427
0.00133588
0.00137721
0.00131815
0.00155723
0.00122215
0.00111942
0.00113426
0.0010185
0.00108768
0.00101381
0.00119947
0.000880827
0.00978325
0.0102641
0.0106269
0.01161
0.0121301
0.0131372
0.0139617
0.0144141
0.0150224
0.015241
0.0153594
0.0152903
0.0148185
0.0141702
0.0136875
0.0130602
0.0121926
0.0115971
0.011191
0.0109382
0.00847284
0.00866894
0.00925341
0.00993868
0.0106425
0.0113124
0.0121556
0.0126108
0.0132045
0.0134071
0.0132893
0.0133965
0.0129767
0.0126889
0.0119084
0.0115416
0.0108849
0.0103566
0.00993964
0.0098326
0.00711083
0.00738697
0.00798199
0.00845429
0.00892503
0.0098085
0.0100539
0.0107992
0.0110682
0.0112406
0.0115221
0.0110984
0.0112434
0.0106989
0.0101265
0.00966141
0.00933343
0.00884838
0.00848723
0.00840821
0.00584831
0.00599269
0.00642173
0.00686361
0.00752727
0.00799631
0.00819162
0.00875857
0.009065
0.00927077
0.00947567
0.00934402
0.00907816
0.00865782
0.00855793
0.00797311
0.00768573
0.00734191
0.00711253
0.00679983
0.00439252
0.00476662
0.00474087
0.00532663
0.00574461
0.00612277
0.00634436
0.00696391
0.00719206
0.00739193
0.00729847
0.00748999
0.00728988
0.00696887
0.00670388
0.00640518
0.00598236
0.00587072
0.00550772
0.00543635
0.003175
0.0033261
0.00371304
0.0036444
0.00407205
0.0043678
0.00448753
0.00497645
0.00498086
0.00517119
0.00555742
0.00519335
0.0050445
0.00492236
0.00485263
0.0046276
0.00444318
0.00401579
0.00394471
0.00398154
0.00193392
0.00219974
0.00208673
0.00226024
0.00263725
0.00292925
0.00298712
0.00299908
0.00297566
0.00314744
0.00328645
0.00295582
0.00308981
0.00301517
0.00310726
0.00294936
0.002597
0.00233511
0.00246208
0.00244721
0.000596023
0.000748746
0.000918657
0.000814897
0.000722937
0.000922563
0.00112747
0.00101523
0.000945728
0.00111427
0.00107162
0.00086719
0.000951369
0.00101352
0.000973234
0.000770127
0.00110535
0.000910748
0.000787695
0.00121637
0.00755989
0.0077704
0.00827206
0.00908289
0.00946746
0.0102973
0.0109328
0.0115098
0.0118184
0.0119706
0.0124126
0.0122145
0.0116067
0.01148
0.0109087
0.0101552
0.00948431
0.00894809
0.00850078
0.0082869
0.00632199
0.00663609
0.00715545
0.00763074
0.00820846
0.00898596
0.00951961
0.0101055
0.0105407
0.0107846
0.0109855
0.0104969
0.01044
0.0096801
0.00948764
0.00907662
0.00840374
0.00805324
0.00763803
0.007461
0.00525573
0.00578043
0.0059647
0.00655647
0.0069797
0.00765674
0.00787782
0.00862194
0.00878864
0.00908117
0.0091957
0.00903614
0.00902701
0.0085069
0.00828378
0.00762045
0.00742357
0.00689094
0.00652905
0.00648069
0.00436002
0.00455628
0.00473572
0.00526222
0.00553653
0.00640669
0.00647921
0.00693343
0.00761799
0.0077024
0.00768591
0.00761187
0.00719441
0.00704928
0.0069213
0.00615811
0.00595666
0.00572496
0.00549815
0.00526766
0.00343867
0.0035781
0.00373045
0.00398198
0.00449735
0.00473648
0.00537925
0.0054063
0.00563654
0.00584377
0.00591314
0.0060023
0.00583402
0.00566638
0.00518437
0.00501619
0.0047425
0.00463919
0.00432447
0.00428065
0.00233032
0.00264232
0.00260613
0.00297714
0.00313154
0.00344954
0.00389172
0.00408775
0.00399929
0.00429742
0.00424734
0.00401497
0.00400596
0.00402318
0.00366672
0.00350211
0.00338097
0.00347019
0.003038
0.00281692
0.00154275
0.00150319
0.00193112
0.00207538
0.0019093
0.00221163
0.00207431
0.00234516
0.00243703
0.00260369
0.00272612
0.00241356
0.00259672
0.00255418
0.00240984
0.00230176
0.00228626
0.00210079
0.00206968
0.00191741
0.000482705
0.000741363
0.00073193
0.000494499
0.000678842
0.000892701
0.000592616
0.00100903
0.000751043
0.000956914
0.000815448
0.000781799
0.000853516
0.000814485
0.000880514
0.000778905
0.000552451
0.000784988
0.000715145
0.000481278
0.00546493
0.00552375
0.00570029
0.00642975
0.00669891
0.00747371
0.00789385
0.00877862
0.00895171
0.00927969
0.00936548
0.00903417
0.00889595
0.00834172
0.00788078
0.00741499
0.00686688
0.00621685
0.00586559
0.00591928
0.00441911
0.00467547
0.00512187
0.0053185
0.00583611
0.00659522
0.00706761
0.00747232
0.00804905
0.00807403
0.0079954
0.00831254
0.00787453
0.00743504
0.00698565
0.00638685
0.00576737
0.00569287
0.00533608
0.0053434
0.00371018
0.00393497
0.00399424
0.00436819
0.00508291
0.00554217
0.00614015
0.00637518
0.00672573
0.00701593
0.00704239
0.0067703
0.00686138
0.00623404
0.0059598
0.00561618
0.00535886
0.00480578
0.00483238
0.00440066
0.00314289
0.00321422
0.00331049
0.00352755
0.00424768
0.00461696
0.00489868
0.00513272
0.00545449
0.00568406
0.00575879
0.00578267
0.00548852
0.00550199
0.00505142
0.0048363
0.0042189
0.00410309
0.00393435
0.00379529
0.00265084
0.00239937
0.00255523
0.00293672
0.00320768
0.00341441
0.00391958
0.00434538
0.0041967
0.00444365
0.00446516
0.00447034
0.00441057
0.00414556
0.00393696
0.00350841
0.00352234
0.00327639
0.00315687
0.00305042
0.00164903
0.00160152
0.00173262
0.00214191
0.00220346
0.00258218
0.00271897
0.00308923
0.00319413
0.00342658
0.00348316
0.00326219
0.00331845
0.0033345
0.00287936
0.00244612
0.00243031
0.00217001
0.00210187
0.00208054
0.00110772
0.00115819
0.00111968
0.00120901
0.00139386
0.00158238
0.00180289
0.00158383
0.00191158
0.00178721
0.00187577
0.00185341
0.00185022
0.0019641
0.00191815
0.00157524
0.00162679
0.00162636
0.00120252
0.00140973
0.000360251
0.000476491
0.000369793
0.000278317
0.000354449
0.000480958
0.000596302
0.00052335
0.000628337
0.000860777
0.000650286
0.000807911
0.000582257
0.0006133
0.000462839
0.000407109
0.000421875
0.000413226
0.000519763
0.000383882
0.00314123
0.00319215
0.0036156
0.00369104
0.00406201
0.00491939
0.0053982
0.00602515
0.00633849
0.00621405
0.00648023
0.00630436
0.00601133
0.00567273
0.00492844
0.00464286
0.00445482
0.0038372
0.00331493
0.00340774
0.00281952
0.00273531
0.00295574
0.00335345
0.0037014
0.00419511
0.00460121
0.00530946
0.00534456
0.00561313
0.00565027
0.00565716
0.00508496
0.00518679
0.00446441
0.00382889
0.0037934
0.00344638
0.00319243
0.00318907
0.00212254
0.00227976
0.00242572
0.00288503
0.00318991
0.00355472
0.004098
0.00452045
0.00468653
0.00463895
0.00485957
0.0048128
0.00434109
0.00427315
0.00398638
0.00361623
0.00347504
0.00298157
0.00304249
0.0026643
0.00160913
0.00198458
0.00206356
0.00202012
0.00272179
0.00285778
0.00335202
0.00344452
0.00371932
0.00384334
0.00400136
0.003847
0.00376325
0.00360556
0.00335425
0.00299057
0.00297902
0.00244666
0.00243228
0.00228502
0.00119773
0.00134538
0.00147222
0.00169914
0.00183303
0.00231665
0.00258937
0.00301192
0.00311029
0.00313403
0.0031158
0.00302863
0.00296893
0.0029988
0.00244921
0.00222663
0.00226715
0.00192697
0.00208052
0.00198371
0.000897971
0.000863839
0.000853671
0.00119673
0.00142571
0.00163128
0.00175225
0.00234665
0.00204722
0.00213797
0.00232179
0.00212556
0.00197797
0.00214232
0.0019662
0.00158541
0.00162139
0.00135567
0.00134579
0.00145294
0.000661027
0.000861163
0.000620078
0.000828345
0.000853992
0.000987465
0.00108378
0.00135569
0.00129073
0.00136759
0.00149248
0.00133757
0.00128967
0.00123022
0.00121255
0.00110178
0.000944348
0.00101635
0.000722499
0.000741106
0.000208695
7.92391e-05
0.000269946
0.000177107
0.000110849
0.000278574
0.000365746
0.00050478
0.000508874
0.000390718
0.000421894
0.000507008
0.000517361
9.99795e-05
0.000399731
0.000395558
0.000405441
0.000320946
0.000294596
0.000366717
0.00134435
0.00133312
0.00120272
0.00169066
0.0019251
0.00252453
0.00291648
0.00312253
0.0036805
0.00379124
0.00370358
0.00357848
0.0032811
0.00291949
0.00242948
0.00230753
0.00192987
0.00147084
0.00123807
0.00114278
0.000923829
0.000896897
0.00114871
0.00128201
0.00168641
0.00218213
0.00233749
0.00265332
0.00290273
0.00343497
0.00328546
0.00321437
0.00301529
0.00265511
0.00250261
0.00186716
0.00174862
0.00147766
0.00155125
0.00118569
0.000624134
0.000876589
0.000825739
0.000997515
0.00117411
0.00165754
0.00187115
0.00216503
0.00261242
0.00248557
0.00270562
0.00247932
0.00242772
0.00243406
0.00204346
0.00154497
0.00124044
0.0013575
0.00111739
0.00123149
0.00067556
0.000601818
0.000781884
0.000898261
0.00105879
0.00144157
0.00179008
0.00194427
0.00220373
0.00223123
0.00233411
0.00230711
0.00198122
0.00189697
0.00192371
0.00145522
0.00147519
0.00111673
0.000939744
0.000988721
0.000373958
0.000358428
0.000555636
0.000369836
0.000888945
0.000977262
0.00131222
0.00152494
0.00170571
0.00179005
0.00191726
0.00166141
0.00167889
0.00162152
0.00127314
0.00100762
0.00111823
0.000699321
0.000828462
0.00086463
0.000277577
0.000340469
0.000485044
0.000506239
0.000511115
0.000812011
0.000826259
0.00107299
0.00130501
0.00114711
0.00133494
0.00136705
0.00115544
0.000935363
0.000920198
0.00103889
0.00069634
0.000551046
0.000657596
0.000559096
0.00019037
0.000162358
0.000117984
0.000313963
8.39e-05
0.000621793
0.000748033
0.000629018
0.000962529
0.000729702
0.000711963
0.000804128
0.000719755
0.000566254
0.00072654
0.000556426
0.000208689
0.000552213
0.000309397
0.000282334
3.26468e-05
7.47933e-05
9.5436e-05
0.000224763
4.05959e-05
2.90961e-05
5.21481e-05
0.000217124
0.000214562
0.0003123
0.000467081
0.000433127
0.000292487
0.00013176
8.7579e-05
0.000343783
0.000291099
0.000124018
0.000186765
0.000144109
0.000465243
0.000478409
0.000527202
0.000165315
1.36806e-05
6.83078e-05
0.000430252
0.000812706
0.00107627
0.0011202
0.0012228
0.000942055
0.000790858
0.000359503
1.76004e-05
0.000343915
0.000673614
0.000863546
0.00068891
0.000714125
0.000507201
0.000444358
0.000576373
0.000323818
9.61581e-05
0.000215528
0.000420302
0.000447095
0.000939787
0.000949174
0.000992925
0.000877236
0.000709015
0.000551851
0.000282181
9.155e-05
0.000430665
0.000604532
0.000399285
0.000525921
0.000496421
0.000373606
0.00059247
0.00039119
0.000143516
0.000125382
0.000376175
0.000465015
0.000629689
0.000914946
0.000893966
0.000852034
0.000692371
0.000381021
5.2232e-05
5.94775e-05
0.000170565
0.000395315
0.000412773
0.000215443
0.00032182
0.000694573
0.000563533
0.000339662
0.000354706
0.000112378
0.000179519
0.000322875
0.000599545
0.000653063
0.000678933
0.00060138
0.0004034
0.000484264
0.00018838
0.000181019
4.62732e-05
0.000323549
0.000114728
0.000280166
0.000193403
0.000422031
0.000465872
0.000329089
7.84617e-05
6.86063e-05
0.000345037
0.00046193
0.000565324
0.000578851
0.00036825
0.000734521
0.000189394
0.00021898
0.000250723
8.79249e-05
0.000116649
8.99317e-05
0.000296264
0.000187764
0.000354004
0.000559357
0.000459252
0.000382334
5.60473e-05
3.71099e-05
6.42412e-05
0.000445514
0.000317711
0.000447999
0.000170801
0.000320998
0.0004188
0.000338001
0.000214327
4.66569e-05
0.000210968
8.26005e-05
3.9467e-05
0.000214893
0.00023624
0.000143862
0.000298137
0.000346061
0.000167858
5.42254e-05
2.6873e-05
2.51218e-05
3.83382e-05
0.00023404
0.000222154
9.3564e-05
4.32247e-05
0.000252416
8.19969e-05
0.000213612
0.000200609
4.55995e-06
2.0021e-05
0.000166187
0.00011316
0.000167782
7.62753e-05
8.26515e-05
0.000116394
6.26799e-05
0.000154063
9.97797e-05
3.74277e-05
0.000118831
5.39563e-06
0.000273008
0.000117596
0.000134402
0.000186781
0.000213516
0.000236341
6.41868e-05
5.22417e-05
2.71485e-05
0.0015857
0.00194046
0.00200959
0.00189285
0.00192202
0.00197279
0.00159816
0.00127841
0.00126811
0.000971954
0.0010899
0.00144525
0.0015753
0.00173029
0.00190014
0.00232157
0.00244203
0.00243031
0.00252391
0.00220413
0.00175412
0.00179543
0.0019755
0.00197562
0.00163874
0.00137231
0.00129396
0.00113306
0.00104181
0.000994586
0.000952543
0.001328
0.00137087
0.00154892
0.00178657
0.0017733
0.00197989
0.00178411
0.00206243
0.00185674
0.00155748
0.00183649
0.0017529
0.00184309
0.00176781
0.00136646
0.00129925
0.00102522
0.000889673
0.000770986
0.000820413
0.0010226
0.00109622
0.00106035
0.00150001
0.00164809
0.0015055
0.00173641
0.00178112
0.00150679
0.00161164
0.00136062
0.0013715
0.0015515
0.00144354
0.00113264
0.00118456
0.000778226
0.000798212
0.000652459
0.000900699
0.000626974
0.000874859
0.00103631
0.00114321
0.00140409
0.00149586
0.00117876
0.00146801
0.00115558
0.00107506
0.00128306
0.00122532
0.00091781
0.00129067
0.00100099
0.000859466
0.000766391
0.000783724
0.000597074
0.000741068
0.000856881
0.000751751
0.000780037
0.000980981
0.00112322
0.00104886
0.000915036
0.000891992
0.000766634
0.000815662
0.00092025
0.000795804
0.00101443
0.00083894
0.00053652
0.000737307
0.000422002
0.00045663
0.000567351
0.00029566
0.000553786
0.00068329
0.000622068
0.000429514
0.000647364
0.000855135
0.000722192
0.000642859
0.000644213
0.000707698
0.000386427
0.000431445
0.000656457
0.000480742
0.000443338
0.000350528
0.000567545
0.00027025
4.84338e-05
0.000372193
0.00016993
0.000227772
0.000345591
0.000302224
0.000478897
0.000360193
0.00056587
0.000207026
0.000410635
0.000161375
1.69647e-05
0.000125246
0.000314267
9.98508e-05
0.000222626
0.000189419
0.000109252
0.000247296
0.000334204
0.000129705
0.000150404
0.000268183
8.15891e-05
0.000122308
0.000234424
0.000151535
4.55096e-05
0.000138178
8.81016e-05
0.00280284
0.00314633
0.00327593
0.00327533
0.0034132
0.00370498
0.0033664
0.00310888
0.00305683
0.00328392
0.00324119
0.00341944
0.00370139
0.00385117
0.00353786
0.00405292
0.00398043
0.0041573
0.0040638
0.00378039
0.00261853
0.00280999
0.00320361
0.00314277
0.00320211
0.00293155
0.00285173
0.00289772
0.00267471
0.00262573
0.0025964
0.00301636
0.00289522
0.00321765
0.00335949
0.00324322
0.00329332
0.00329517
0.00344116
0.00333592
0.00239499
0.00264136
0.00284021
0.00266208
0.00285971
0.00284714
0.0027144
0.0026008
0.00247576
0.00236989
0.00239263
0.00254707
0.00231111
0.00275232
0.00275551
0.00269559
0.00292374
0.0028974
0.00264555
0.00262825
0.00199821
0.00228527
0.00212473
0.00243037
0.00246248
0.00232276
0.00220109
0.00215081
0.00196737
0.00198022
0.00209525
0.00210457
0.00194456
0.00218578
0.00218954
0.00223733
0.00216868
0.0021519
0.00203433
0.00197677
0.0016124
0.00197986
0.00191232
0.00199128
0.00184497
0.0017372
0.00173399
0.00181539
0.00166791
0.00147705
0.00163411
0.00155548
0.00165806
0.00176443
0.00194715
0.00188878
0.00163808
0.00161359
0.00176352
0.00159741
0.00100752
0.00134866
0.00150532
0.0012282
0.00127373
0.00134733
0.00122054
0.00110575
0.00115833
0.00101127
0.00110444
0.00115937
0.00138746
0.00118614
0.0011308
0.00121046
0.00137671
0.00119892
0.0014468
0.00111939
0.000791509
0.000676815
0.000944804
0.000865747
0.000957527
0.000515389
0.000569187
0.000745513
0.000700377
0.000765349
0.000658998
0.000486156
0.000960607
0.000965928
0.00074058
0.000783964
0.000581232
0.000682168
0.00064068
0.000833908
0.000254185
0.000208142
0.000298117
0.000428904
0.000189924
0.000225095
0.000343516
0.000331956
0.000255159
0.000210005
0.000422288
0.000250758
0.000298786
0.000210209
0.000173697
0.000198891
3.63799e-06
0.000355554
8.44918e-05
0.000192956
0.0035398
0.00409748
0.00453118
0.00445459
0.00464182
0.00471674
0.00484253
0.0048834
0.00494599
0.00506866
0.00501725
0.00504725
0.00524049
0.00534917
0.00548053
0.00552929
0.00546983
0.00525563
0.0050124
0.00466373
0.0034989
0.00361333
0.003937
0.00404129
0.00434608
0.0045088
0.00450202
0.00437318
0.00429683
0.00447982
0.00434603
0.00445673
0.00430318
0.0046984
0.00453151
0.00477558
0.00466169
0.00454357
0.00440943
0.00412407
0.00287576
0.00328569
0.00344716
0.00349412
0.00363825
0.00395061
0.00378736
0.00361166
0.00373863
0.00368278
0.00382827
0.00372247
0.00388625
0.00391976
0.0040804
0.00401467
0.00386259
0.00378116
0.00371313
0.00334928
0.00230349
0.00269576
0.00297434
0.00319352
0.00297176
0.00289303
0.00314403
0.00320063
0.00329329
0.00292056
0.00280475
0.00329228
0.00320191
0.00319057
0.00353417
0.00322635
0.00306696
0.00314753
0.00319168
0.00276107
0.00207545
0.00178902
0.00233255
0.0024237
0.00261387
0.00235938
0.00259613
0.0024844
0.00238701
0.00246168
0.00238645
0.00220087
0.00247796
0.00268547
0.00259365
0.00238121
0.002643
0.00245479
0.00262322
0.0020675
0.00153888
0.00147579
0.00195262
0.00182803
0.00184899
0.00203221
0.00191319
0.00181357
0.00169251
0.00175818
0.00192259
0.00169038
0.00173401
0.001774
0.00205902
0.00184055
0.00183533
0.00179555
0.00145264
0.0015466
0.000816488
0.00110863
0.00118967
0.00104991
0.00127676
0.0012379
0.0012652
0.00102275
0.000923289
0.00115198
0.0011521
0.00119471
0.00110268
0.0012839
0.00138415
0.000908353
0.00098102
0.00103295
0.001065
0.000988972
0.000350182
0.000423097
0.000429161
0.000277904
0.000340284
0.000304267
0.00041477
0.000549013
0.000422849
0.00025475
0.00020945
0.000364287
0.00040726
0.000574624
0.000410416
0.000434145
0.000215602
0.000546676
0.000225999
0.000222757
0.00433432
0.00468355
0.00492797
0.0053241
0.00579245
0.00582802
0.0060595
0.00593715
0.00615744
0.00620661
0.00636176
0.00631438
0.00641024
0.00677963
0.00674707
0.00687478
0.00652316
0.00631167
0.00589118
0.00550007
0.00376341
0.00426541
0.00452069
0.00485413
0.00512395
0.0052785
0.00536756
0.00542454
0.00548807
0.00562589
0.00562607
0.00565039
0.0056884
0.00567789
0.00596795
0.00603095
0.00541782
0.00536583
0.00514732
0.00478434
0.0034931
0.00365639
0.00406976
0.00439576
0.00438738
0.00471322
0.00462226
0.00462861
0.0049512
0.00434553
0.00461832
0.00458326
0.00478937
0.00478112
0.00503281
0.00489345
0.00453127
0.00457984
0.00426342
0.0039227
0.00269658
0.0032377
0.00341795
0.00354722
0.00377407
0.00396604
0.00394005
0.00387927
0.00388643
0.00357717
0.00395039
0.00388877
0.00379762
0.00403155
0.00415001
0.00417876
0.00381527
0.0037774
0.00362504
0.00330206
0.00223292
0.00238801
0.00261893
0.00308423
0.00309282
0.00296096
0.00313459
0.00305216
0.00310027
0.00272535
0.00294151
0.00315685
0.00318207
0.00310031
0.00314899
0.00340926
0.00303833
0.00297665
0.0026104
0.00259088
0.00173451
0.00193793
0.00193283
0.00229788
0.00214367
0.00204806
0.00211126
0.00239633
0.00221949
0.00210055
0.00226055
0.00211367
0.00218651
0.00244812
0.00241037
0.00227419
0.00214374
0.00192049
0.00181735
0.00203749
0.0010854
0.00126684
0.00128529
0.00146843
0.00137014
0.0013514
0.00121735
0.0012957
0.00151107
0.00133499
0.00144028
0.00144509
0.00130574
0.00142616
0.00133207
0.0012135
0.00126829
0.00144255
0.00114712
0.00112914
0.000242579
0.000253294
0.000584987
0.00030239
0.000282236
0.000686721
0.000526533
0.00028054
0.000305551
0.0002863
0.00059224
0.000359963
0.00029438
0.000475049
0.000388372
0.000456364
0.000404086
0.000601003
0.000280743
0.000368561
0.00441454
0.00523434
0.00549376
0.00610153
0.00632859
0.00676924
0.0069677
0.00694441
0.00709057
0.00698875
0.0073329
0.0075061
0.00749453
0.00761531
0.0075596
0.00739365
0.00722996
0.00699439
0.00641974
0.0059781
0.00396957
0.00444798
0.00505654
0.00551524
0.00582742
0.00604853
0.00614156
0.00634127
0.00620359
0.00639252
0.0063056
0.00651287
0.00650655
0.00667647
0.00666834
0.00654856
0.00631169
0.00601614
0.00575206
0.00513001
0.00334841
0.00401713
0.00443795
0.00470672
0.00475867
0.00528958
0.00534398
0.00532345
0.00533379
0.00539495
0.00540466
0.00573738
0.005574
0.00564189
0.00555258
0.00561603
0.00524341
0.00503067
0.00485725
0.00420896
0.00302388
0.00351384
0.00353986
0.00408179
0.00428858
0.00413211
0.00451518
0.00466908
0.00457288
0.00462379
0.00447745
0.00466501
0.00453807
0.00477917
0.00474562
0.00468617
0.00432707
0.00400549
0.00388577
0.0034659
0.00254572
0.00250663
0.00297915
0.00344867
0.00333474
0.00345327
0.00362296
0.00359088
0.00351065
0.00390867
0.00365847
0.003588
0.00365412
0.00361479
0.00359165
0.00351617
0.00329878
0.00324745
0.00301414
0.00266591
0.00172172
0.00173631
0.00206713
0.00221051
0.00247285
0.00254246
0.00242531
0.00259255
0.00262901
0.00253942
0.00262166
0.00276898
0.00268521
0.00261325
0.0027022
0.00243484
0.0024141
0.00225422
0.00212387
0.001909
0.000946312
0.00114908
0.00134306
0.00150878
0.00151125
0.00162803
0.00152208
0.00160812
0.00161202
0.00152531
0.00164386
0.00175737
0.00166342
0.00153489
0.00153756
0.00156361
0.00165133
0.00153661
0.00103247
0.00113132
0.000481007
0.000373748
0.000671826
0.000499675
0.000575353
0.00042396
0.000807761
0.000471283
0.000449539
0.000749196
0.000474715
0.000594796
0.000683675
0.000652138
0.000470014
0.000576187
0.000310808
0.000542496
0.000302075
0.000398244
0.0039764
0.00473162
0.00552928
0.00621928
0.00680068
0.0069991
0.0075274
0.00768666
0.00780379
0.00775653
0.00807796
0.00816481
0.00808596
0.00805992
0.00816107
0.00788479
0.00763846
0.00722371
0.00640745
0.00616282
0.00385366
0.0041665
0.00515805
0.00564358
0.00611669
0.00625005
0.00658402
0.00670939
0.00682441
0.00690272
0.0071783
0.00721828
0.00713232
0.00709459
0.0070677
0.00694904
0.0066993
0.00625366
0.00578983
0.00532041
0.00353826
0.00374668
0.00439108
0.00482696
0.00528698
0.00559845
0.00552294
0.00573923
0.0059251
0.00588425
0.00604295
0.00599772
0.00605509
0.00606312
0.00594329
0.00596082
0.00552618
0.00508863
0.00490054
0.00444369
0.00279782
0.00336487
0.00373921
0.0041986
0.00422985
0.00457418
0.00468983
0.00490952
0.0049161
0.00510243
0.00503998
0.00483571
0.00502027
0.00504038
0.00498401
0.00472
0.00462071
0.00457813
0.004045
0.00386258
0.00230938
0.00278337
0.0028278
0.00337154
0.00340779
0.00355493
0.00369758
0.00367101
0.00392724
0.00392555
0.0040672
0.00412053
0.00403888
0.00409828
0.00381059
0.00372604
0.00353744
0.00321967
0.00312677
0.00270363
0.00164806
0.00178071
0.00203039
0.00233658
0.00264103
0.00258638
0.00276884
0.00278442
0.00261692
0.00273163
0.0030027
0.00283489
0.00280533
0.00293638
0.002973
0.00262286
0.00241565
0.00256684
0.00221465
0.00217234
0.00105787
0.00103707
0.0013759
0.0014397
0.00153908
0.00162267
0.00170468
0.00171175
0.00169404
0.00158134
0.00169335
0.00182426
0.00164862
0.00159361
0.00175748
0.00147987
0.00160152
0.00158999
0.00134229
0.00125007
0.00051825
0.000222222
0.000464602
0.000642978
0.000495781
0.000356118
0.000626174
0.000648714
0.00065079
0.000578423
0.000496341
0.000581147
0.000447175
0.000661793
0.000426428
0.000457776
0.000478236
0.000704724
0.000450044
0.000475968
0.00346741
0.00462043
0.00540081
0.00606459
0.0066425
0.00708425
0.00739586
0.00763346
0.00809872
0.00812999
0.00845415
0.00854582
0.00829616
0.00826589
0.00818976
0.00791367
0.00757955
0.00741958
0.00669366
0.00586751
0.00339246
0.00402501
0.00480975
0.00526927
0.00582795
0.00653293
0.00661212
0.00686283
0.00700448
0.0072878
0.00743005
0.00734471
0.0071895
0.00743807
0.00716796
0.00726146
0.00671033
0.00626444
0.00559881
0.00520972
0.00299933
0.00353
0.00415862
0.00465464
0.0051587
0.00583549
0.0059106
0.00592106
0.00602587
0.00616966
0.00633495
0.00628961
0.00657295
0.0062144
0.00611917
0.00608412
0.00572226
0.0053325
0.00501041
0.00441803
0.00250806
0.00294592
0.00362638
0.00405714
0.00425118
0.00441418
0.0047397
0.00489277
0.00525657
0.00502701
0.00528324
0.00515798
0.00531038
0.00501384
0.00507456
0.00490534
0.00478392
0.00433968
0.00399568
0.00349954
0.00194657
0.00224684
0.00276914
0.00331803
0.00337678
0.00345819
0.00390701
0.0037759
0.00402946
0.00429058
0.00407563
0.00415382
0.00405077
0.00430649
0.00385447
0.00398273
0.0037932
0.00326468
0.00309266
0.00291907
0.00151383
0.00173401
0.00211515
0.00242009
0.00265622
0.00282279
0.00284
0.00296962
0.00288347
0.00301195
0.00295025
0.00306933
0.00309131
0.00277982
0.00304368
0.00286065
0.00269004
0.00263569
0.00222437
0.00198941
0.00100874
0.00119437
0.00115786
0.00144573
0.00143873
0.00155273
0.00166425
0.00174032
0.00191075
0.00168944
0.00177654
0.00206263
0.00178096
0.00177635
0.00170361
0.00150501
0.00158301
0.00134192
0.00138027
0.00108636
0.000343199
0.000402817
0.000410316
0.0004249
0.000599154
0.000530789
0.000609348
0.000642937
0.000549015
0.000374422
0.000721082
0.000667263
0.000540042
0.000453192
0.000564082
0.000591113
0.000387581
0.000481804
0.000422355
1.07527e-05
0.00280598
0.00353954
0.0047935
0.00535585
0.0059066
0.00662189
0.0072965
0.00761227
0.00771446
0.00799649
0.00831471
0.00849767
0.00833481
0.00840067
0.0080164
0.00756437
0.00733678
0.00670687
0.00600276
0.00512567
0.00261237
0.00319874
0.00421161
0.00496719
0.00556016
0.00603967
0.00653346
0.00679341
0.00694117
0.00724283
0.00731484
0.00737887
0.00733152
0.00720862
0.00707496
0.00678436
0.00651754
0.00599773
0.00513584
0.00440589
0.00250855
0.00301972
0.00366075
0.00429431
0.00458687
0.00518915
0.00570092
0.00578475
0.00606739
0.0059586
0.00622503
0.00626835
0.00630758
0.00610345
0.00598039
0.00564578
0.00524282
0.00480195
0.00448135
0.00398725
0.0020119
0.00251602
0.00306913
0.00362944
0.00427957
0.00440692
0.00446122
0.00489964
0.00484694
0.00517111
0.00503675
0.00531927
0.0051143
0.00501834
0.00517047
0.00493172
0.00440235
0.00409755
0.00369131
0.00313588
0.00166637
0.0020467
0.00269031
0.00289983
0.00341889
0.0033749
0.00368426
0.00367689
0.0039781
0.00401591
0.00420601
0.00424905
0.00387131
0.00401193
0.00383018
0.00363377
0.00348207
0.00322278
0.00273103
0.00249359
0.00141208
0.0015747
0.00174524
0.00188948
0.00232312
0.00249169
0.00261995
0.00300825
0.0028483
0.00287884
0.00287071
0.00274898
0.00305564
0.00277288
0.00272604
0.00241788
0.00261631
0.00230543
0.00192074
0.00189992
0.000961791
0.000732294
0.00132156
0.00113936
0.00133564
0.00154031
0.00170521
0.00188099
0.00196747
0.00168791
0.00166115
0.00173872
0.00158807
0.00165639
0.0017511
0.00158234
0.00115297
0.00146786
0.00116786
0.00113085
0.000329978
0.000307073
0.000414362
0.000493898
0.000540836
0.000563097
0.000496843
0.000614265
0.000806864
0.000742118
0.000648557
0.000683228
0.000657554
0.000504075
0.00049524
0.000452992
0.000542417
0.000236065
0.000375327
0.000373713
0.00162942
0.00272704
0.00343565
0.00466272
0.00553066
0.00611079
0.00637655
0.00695589
0.00728714
0.00754544
0.00780432
0.00762985
0.00802099
0.00766837
0.00743109
0.00691043
0.00666762
0.00614766
0.00498277
0.00424255
0.00165268
0.0025481
0.0031902
0.00420606
0.00485245
0.00536687
0.00567269
0.0063855
0.00638454
0.0066665
0.00675984
0.00701945
0.00693498
0.00685386
0.00655949
0.00631818
0.00562515
0.00514938
0.00452367
0.00389514
0.00153156
0.00214617
0.00290648
0.0035651
0.00419165
0.00473029
0.00516501
0.00531018
0.00545831
0.00576649
0.00599268
0.00593715
0.00606052
0.00573898
0.00552533
0.00545402
0.00486729
0.00425037
0.00368075
0.00318699
0.00146646
0.00202128
0.00259609
0.00304511
0.00333899
0.00402334
0.00438584
0.00451073
0.00469501
0.00481775
0.00499824
0.00507099
0.00487057
0.00472531
0.00452126
0.00445789
0.00410002
0.00389701