/*--------------------------------*- C++ -*----------------------------------*\
| =========                 |                                                 |
| \\      /  F ield         | OpenFOAM: The Open Source CFD Toolbox           |
|  \\    /   O peration     | Version:  2212                                  |
|   \\  /    A nd           | Website:  www.openfoam.com                      |
|    \\/     M anipulation  |                                                 |
\*---------------------------------------------------------------------------*/
FoamFile
{
    version     2.0;
    format      ascii;
    arch        "LSB;label=32;scalar=64";
    class       volScalarField;
    location    "0";
    object      Ttrue;
}
// * * * * * * * * * * * * * * * * * * * * * * * * * * * * * * * * * * * * * //

dimensions      [0 0 0 1 0 0 0];

internalField   nonuniform List<scalar> 
3200
(
345.447
346.269
347.318
348.462
349.64
350.797
351.864
352.765
353.421
353.768
353.768
353.421
352.765
351.864
350.797
349.64
348.462
347.318
346.269
345.447
339.405
340.101
341.006
341.996
343.015
344.016
344.938
345.717
346.284
346.583
346.583
346.284
345.717
344.938
344.016
343.015
341.996
341.006
340.101
339.405
333.357
333.934
334.697
335.533
336.395
337.24
338.019
338.676
339.154
339.406
339.406
339.154
338.676
338.019
337.24
336.395
335.533
334.697
333.934
333.357
327.304
327.768
328.39
329.073
329.778
330.468
331.105
331.641
332.031
332.237
332.237
332.031
331.641
331.105
330.468
329.778
329.073
328.39
327.768
327.304
321.246
321.603
322.085
322.616
323.164
323.7
324.195
324.611
324.914
325.074
325.074
324.914
324.611
324.195
323.7
323.164
322.616
322.085
321.603
321.246
315.185
315.438
315.782
316.161
316.552
316.935
317.288
317.585
317.801
317.915
317.915
317.801
317.585
317.288
316.935
316.552
316.161
315.782
315.438
315.185
309.122
309.273
309.479
309.707
309.942
310.172
310.383
310.562
310.692
310.76
310.76
310.692
310.562
310.383
310.172
309.942
309.707
309.479
309.273
309.122
303.058
303.108
303.178
303.254
303.332
303.41
303.481
303.54
303.584
303.607
303.607
303.584
303.54
303.481
303.41
303.332
303.254
303.178
303.108
303.058
345.577
346.393
347.433
348.566
349.732
350.876
351.931
352.821
353.468
353.811
353.811
353.468
352.821
351.931
350.876
349.732
348.566
347.433
346.393
345.577
339.518
340.208
341.106
342.086
343.095
344.084
344.996
345.765
346.325
346.62
346.62
346.325
345.765
344.996
344.084
343.095
342.086
341.106
340.208
339.518
333.452
334.025
334.781
335.609
336.462
337.298
338.068
338.717
339.189
339.438
339.438
339.189
338.717
338.068
337.298
336.462
335.609
334.781
334.025
333.452
327.381
327.842
328.459
329.136
329.833
330.516
331.145
331.675
332.06
332.263
332.263
332.06
331.675
331.145
330.516
329.833
329.136
328.459
327.842
327.381
321.307
321.661
322.139
322.665
323.206
323.737
324.226
324.637
324.937
325.094
325.094
324.937
324.637
324.226
323.737
323.206
322.665
322.139
321.661
321.307
315.229
315.479
315.82
316.195
316.582
316.961
317.31
317.604
317.817
317.93
317.93
317.817
317.604
317.31
316.961
316.582
316.195
315.82
315.479
315.229
309.148
309.298
309.502
309.728
309.96
310.188
310.397
310.573
310.701
310.769
310.769
310.701
310.573
310.397
310.188
309.96
309.728
309.502
309.298
309.148
303.067
303.117
303.185
303.261
303.339
303.415
303.485
303.544
303.587
303.61
303.61
303.587
303.544
303.485
303.415
303.339
303.261
303.185
303.117
303.067
345.839
346.641
347.664
348.776
349.919
351.038
352.068
352.936
353.568
353.901
353.901
353.568
352.936
352.068
351.038
349.919
348.776
347.664
346.641
345.839
339.744
340.423
341.306
342.268
343.257
344.225
345.116
345.866
346.411
346.699
346.699
346.411
345.866
345.116
344.225
343.257
342.268
341.306
340.423
339.744
333.643
334.207
334.95
335.763
336.599
337.417
338.169
338.802
339.262
339.505
339.505
339.262
338.802
338.169
337.417
336.599
335.763
334.95
334.207
333.643
327.537
327.991
328.597
329.261
329.945
330.613
331.228
331.745
332.12
332.318
332.318
332.12
331.745
331.228
330.613
329.945
329.261
328.597
327.991
327.537
321.428
321.776
322.246
322.762
323.293
323.813
324.29
324.692
324.984
325.137
325.137
324.984
324.692
324.29
323.813
323.293
322.762
322.246
321.776
321.428
315.315
315.562
315.897
316.265
316.645
317.015
317.356
317.643
317.851
317.961
317.961
317.851
317.643
317.356
317.015
316.645
316.265
315.897
315.562
315.315
309.2
309.347
309.548
309.77
309.997
310.22
310.425
310.597
310.722
310.787
310.787
310.722
310.597
310.425
310.22
309.997
309.77
309.548
309.347
309.2
303.084
303.133
303.201
303.275
303.351
303.426
303.494
303.552
303.594
303.616
303.616
303.594
303.552
303.494
303.426
303.351
303.275
303.201
303.133
303.084
346.234
347.017
348.014
349.096
350.205
351.288
352.283
353.12
353.728
354.048
354.048
353.728
353.12
352.283
351.288
350.205
349.096
348.014
347.017
346.234
340.085
340.749
341.609
342.545
343.504
344.442
345.302
346.026
346.551
346.827
346.827
346.551
346.026
345.302
344.442
343.504
342.545
341.609
340.749
340.085
333.931
334.482
335.206
335.997
336.808
337.6
338.327
338.938
339.381
339.614
339.614
339.381
338.938
338.327
337.6
336.808
335.997
335.206
334.482
333.931
327.773
328.216
328.806
329.453
330.116
330.763
331.357
331.856
332.218
332.408
332.408
332.218
331.856
331.357
330.763
330.116
329.453
328.806
328.216
327.773
321.61
321.951
322.409
322.911
323.427
323.93
324.391
324.779
325.059
325.207
325.207
325.059
324.779
324.391
323.93
323.427
322.911
322.409
321.951
321.61
315.445
315.686
316.013
316.372
316.74
317.099
317.428
317.705
317.905
318.011
318.011
317.905
317.705
317.428
317.099
316.74
316.372
316.013
315.686
315.445
309.278
309.422
309.618
309.833
310.054
310.27
310.468
310.634
310.754
310.818
310.818
310.754
310.634
310.468
310.27
310.054
309.833
309.618
309.422
309.278
303.11
303.158
303.224
303.296
303.37
303.443
303.509
303.564
303.605
303.626
303.626
303.605
303.564
303.509
303.443
303.37
303.296
303.224
303.158
303.11
346.764
347.523
348.488
349.531
350.597
351.635
352.586
353.384
353.962
354.266
354.266
353.962
353.384
352.586
351.635
350.597
349.531
348.488
347.523
346.764
340.543
341.186
342.018
342.921
343.844
344.742
345.565
346.254
346.754
347.017
347.017
346.754
346.254
345.565
344.742
343.844
342.921
342.018
341.186
340.543
334.318
334.851
335.552
336.315
337.095
337.854
338.549
339.132
339.553
339.775
339.775
339.553
339.132
338.549
337.854
337.095
336.315
335.552
334.851
334.318
328.088
328.518
329.089
329.713
330.351
330.971
331.539
332.015
332.359
332.54
332.54
332.359
332.015
331.539
330.971
330.351
329.713
329.089
328.518
328.088
321.856
322.186
322.629
323.113
323.609
324.091
324.533
324.902
325.17
325.31
325.31
325.17
324.902
324.533
324.091
323.609
323.113
322.629
322.186
321.856
315.621
315.854
316.17
316.516
316.87
317.214
317.53
317.793
317.984
318.085
318.085
317.984
317.793
317.53
317.214
316.87
316.516
316.17
315.854
315.621
309.384
309.523
309.712
309.92
310.133
310.34
310.529
310.687
310.802
310.862
310.862
310.802
310.687
310.529
310.34
310.133
309.92
309.712
309.523
309.384
303.146
303.192
303.256
303.325
303.397
303.466
303.529
303.582
303.621
303.641
303.641
303.621
303.582
303.529
303.466
303.397
303.325
303.256
303.192
303.146
347.432
348.163
349.089
350.086
351.102
352.088
352.988
353.74
354.284
354.57
354.57
354.284
353.74
352.988
352.088
351.102
350.086
349.089
348.163
347.432
341.121
341.74
342.538
343.402
344.281
345.134
345.913
346.564
347.034
347.281
347.281
347.034
346.564
345.913
345.134
344.281
343.402
342.538
341.74
341.121
334.806
335.319
335.992
336.722
337.465
338.186
338.844
339.394
339.791
340
340
339.791
339.394
338.844
338.186
337.465
336.722
335.992
335.319
334.806
328.487
328.9
329.449
330.045
330.653
331.243
331.78
332.229
332.554
332.724
332.724
332.554
332.229
331.78
331.243
330.653
330.045
329.449
328.9
328.487
322.165
322.483
322.908
323.372
323.844
324.303
324.72
325.069
325.321
325.454
325.454
325.321
325.069
324.72
324.303
323.844
323.372
322.908
322.483
322.165
315.842
316.066
316.369
316.7
317.038
317.365
317.664
317.913
318.093
318.187
318.187
318.093
317.913
317.664
317.365
317.038
316.7
316.369
316.066
315.842
309.516
309.65
309.832
310.031
310.234
310.43
310.609
310.759
310.867
310.923
310.923
310.867
310.759
310.609
310.43
310.234
310.031
309.832
309.65
309.516
303.19
303.235
303.296
303.362
303.43
303.496
303.556
303.606
303.642
303.662
303.662
303.642
303.606
303.556
303.496
303.43
303.362
303.296
303.235
303.19
348.242
348.941
349.823
350.77
351.73
352.658
353.501
354.204
354.711
354.978
354.978
354.711
354.204
353.501
352.658
351.73
350.77
349.823
348.941
348.242
341.821
342.413
343.174
343.993
344.825
345.628
346.358
346.966
347.405
347.635
347.635
347.405
346.966
346.358
345.628
344.825
343.993
343.174
342.413
341.821
335.397
335.888
336.529
337.222
337.925
338.604
339.221
339.735
340.105
340.299
340.299
340.105
339.735
339.221
338.604
337.925
337.222
336.529
335.888
335.397
328.97
329.365
329.888
330.454
331.029
331.584
332.088
332.508
332.811
332.97
332.97
332.811
332.508
332.088
331.584
331.029
330.454
329.888
329.365
328.97
322.541
322.844
323.249
323.69
324.136
324.568
324.96
325.286
325.521
325.645
325.645
325.521
325.286
324.96
324.568
324.136
323.69
323.249
322.844
322.541
316.109
316.324
316.613
316.927
317.247
317.555
317.835
318.068
318.236
318.324
318.324
318.236
318.068
317.835
317.555
317.247
316.927
316.613
316.324
316.109
309.677
309.805
309.979
310.167
310.359
310.544
310.712
310.852
310.953
311.006
311.006
310.953
310.852
310.712
310.544
310.359
310.167
309.979
309.805
309.677
303.244
303.287
303.345
303.408
303.472
303.534
303.591
303.638
303.671
303.689
303.689
303.671
303.638
303.591
303.534
303.472
303.408
303.345
303.287
303.244
349.198
349.862
350.697
351.589
352.49
353.356
354.14
354.792
355.26
355.505
355.505
355.26
354.792
354.14
353.356
352.49
351.589
350.697
349.862
349.198
342.648
343.21
343.93
344.703
345.483
346.233
346.912
347.475
347.88
348.093
348.093
347.88
347.475
346.912
346.233
345.483
344.703
343.93
343.21
342.648
336.095
336.561
337.168
337.821
338.481
339.115
339.689
340.165
340.508
340.687
340.687
340.508
340.165
339.689
339.115
338.481
337.821
337.168
336.561
336.095
329.54
329.915
330.41
330.944
331.483
332.002
332.471
332.861
333.14
333.287
333.287
333.14
332.861
332.471
332.002
331.483
330.944
330.41
329.915
329.54
322.984
323.272
323.655
324.07
324.49
324.893
325.258
325.561
325.778
325.892
325.892
325.778
325.561
325.258
324.893
324.49
324.07
323.655
323.272
322.984
316.426
316.63
316.903
317.2
317.499
317.787
318.048
318.264
318.419
318.5
318.5
318.419
318.264
318.048
317.787
317.499
317.2
316.903
316.63
316.426
309.867
309.989
310.153
310.331
310.511
310.684
310.84
310.97
311.063
311.112
311.112
311.063
310.97
310.84
310.684
310.511
310.331
310.153
309.989
309.867
303.308
303.348
303.403
303.463
303.523
303.581
303.634
303.677
303.708
303.725
303.725
303.708
303.677
303.634
303.581
303.523
303.463
303.403
303.348
303.308
350.303
350.931
351.716
352.551
353.39
354.194
354.918
355.516
355.946
356.17
356.17
355.946
355.516
354.918
354.194
353.39
352.551
351.716
350.931
350.303
343.604
344.135
344.812
345.535
346.262
346.958
347.585
348.103
348.475
348.669
348.669
348.475
348.103
347.585
346.958
346.262
345.535
344.812
344.135
343.604
336.902
337.343
337.914
338.525
339.14
339.728
340.258
340.696
341.01
341.174
341.174
341.01
340.696
340.258
339.728
339.14
338.525
337.914
337.343
336.902
330.199
330.554
331.019
331.519
332.022
332.503
332.937
333.295
333.552
333.686
333.686
333.552
333.295
332.937
332.503
332.022
331.519
331.019
330.554
330.199
323.496
323.768
324.129
324.518
324.909
325.283
325.62
325.898
326.098
326.202
326.202
326.098
325.898
325.62
325.283
324.909
324.518
324.129
323.768
323.496
316.791
316.984
317.241
317.519
317.798
318.066
318.306
318.505
318.648
318.722
318.722
318.648
318.505
318.306
318.066
317.798
317.519
317.241
316.984
316.791
310.086
310.201
310.356
310.522
310.69
310.851
310.995
311.115
311.2
311.245
311.245
311.2
311.115
310.995
310.851
310.69
310.522
310.356
310.201
310.086
303.381
303.42
303.471
303.527
303.583
303.637
303.686
303.726
303.754
303.769
303.769
303.754
303.726
303.686
303.637
303.583
303.527
303.471
303.42
303.381
351.562
352.151
352.886
353.664
354.441
355.181
355.845
356.392
356.783
356.987
356.987
356.783
356.392
355.845
355.181
354.441
353.664
352.886
352.151
351.562
344.692
345.191
345.825
346.498
347.171
347.813
348.388
348.861
349.199
349.376
349.376
349.199
348.861
348.388
347.813
347.171
346.498
345.825
345.191
344.692
337.821
338.235
338.769
339.339
339.908
340.451
340.937
341.337
341.623
341.773
341.773
341.623
341.337
340.937
340.451
339.908
339.339
338.769
338.235
337.821
330.95
331.284
331.719
332.185
332.651
333.094
333.492
333.819
334.053
334.175
334.175
334.053
333.819
333.492
333.094
332.651
332.185
331.719
331.284
330.95
324.079
324.335
324.673
325.035
325.397
325.742
326.052
326.306
326.488
326.583
326.583
326.488
326.306
326.052
325.742
325.397
325.035
324.673
324.335
324.079
317.208
317.389
317.63
317.888
318.147
318.394
318.615
318.797
318.926
318.994
318.994
318.926
318.797
318.615
318.394
318.147
317.888
317.63
317.389
317.208
310.336
310.444
310.589
310.744
310.9
311.048
311.18
311.29
311.368
311.408
311.408
311.368
311.29
311.18
311.048
310.9
310.744
310.589
310.444
310.336
303.465
303.501
303.549
303.601
303.654
303.703
303.748
303.784
303.81
303.824
303.824
303.81
303.784
303.748
303.703
303.654
303.601
303.549
303.501
303.465
352.977
353.529
354.213
354.933
355.649
356.327
356.933
357.429
357.783
357.967
357.967
357.783
357.429
356.933
356.327
355.649
354.933
354.213
353.529
352.977
345.916
346.383
346.973
347.597
348.217
348.805
349.329
349.759
350.066
350.225
350.225
350.066
349.759
349.329
348.805
348.217
347.597
346.973
346.383
345.916
338.855
339.242
339.74
340.267
340.792
341.289
341.733
342.097
342.356
342.491
342.491
342.356
342.097
341.733
341.289
340.792
340.267
339.74
339.242
338.855
331.795
332.107
332.512
332.944
333.373
333.78
334.143
334.44
334.652
334.762
334.762
334.652
334.44
334.143
333.78
333.373
332.944
332.512
332.107
331.795
324.736
324.975
325.289
325.625
325.959
326.275
326.558
326.789
326.954
327.039
327.039
326.954
326.789
326.558
326.275
325.959
325.625
325.289
324.975
324.736
317.677
317.846
318.07
318.31
318.548
318.774
318.976
319.141
319.259
319.32
319.32
319.259
319.141
318.976
318.774
318.548
318.31
318.07
317.846
317.677
310.618
310.719
310.853
310.997
311.141
311.276
311.397
311.497
311.567
311.604
311.604
311.567
311.497
311.397
311.276
311.141
310.997
310.853
310.719
310.618
303.559
303.593
303.638
303.686
303.734
303.78
303.82
303.854
303.877
303.89
303.89
303.877
303.854
303.82
303.78
303.734
303.686
303.638
303.593
303.559
354.553
355.067
355.701
356.365
357.022
357.64
358.19
358.639
358.958
359.123
359.123
358.958
358.639
358.19
357.64
357.022
356.365
355.701
355.067
354.553
347.279
347.714
348.261
348.836
349.405
349.941
350.417
350.806
351.082
351.226
351.226
351.082
350.806
350.417
349.941
349.405
348.836
348.261
347.714
347.279
340.007
340.367
340.828
341.315
341.796
342.25
342.653
342.982
343.215
343.337
343.337
343.215
342.982
342.653
342.25
341.796
341.315
340.828
340.367
340.007
332.736
333.026
333.402
333.8
334.194
334.565
334.895
335.164
335.355
335.454
335.454
335.355
335.164
334.895
334.565
334.194
333.8
333.402
333.026
332.736
325.467
325.689
325.981
326.29
326.597
326.886
327.142
327.351
327.5
327.577
327.577
327.5
327.351
327.142
326.886
326.597
326.29
325.981
325.689
325.467
318.199
318.356
318.564
318.785
319.004
319.21
319.394
319.543
319.649
319.704
319.704
319.649
319.543
319.394
319.21
319.004
318.785
318.564
318.356
318.199
310.931
311.025
311.15
311.283
311.414
311.538
311.648
311.738
311.802
311.835
311.835
311.802
311.738
311.648
311.538
311.414
311.283
311.15
311.025
310.931
303.664
303.696
303.737
303.782
303.826
303.867
303.904
303.934
303.956
303.967
303.967
303.956
303.934
303.904
303.867
303.826
303.782
303.737
303.696
303.664
356.292
356.769
357.354
357.964
358.564
359.126
359.623
360.027
360.314
360.462
360.462
360.314
360.027
359.623
359.126
358.564
357.964
357.354
356.769
356.292
348.783
349.186
349.691
350.22
350.74
351.227
351.658
352.008
352.256
352.385
352.385
352.256
352.008
351.658
351.227
350.74
350.22
349.691
349.186
348.783
341.277
341.611
342.037
342.484
342.924
343.337
343.701
343.998
344.207
344.316
344.316
344.207
343.998
343.701
343.337
342.924
342.484
342.037
341.611
341.277
333.774
334.043
334.39
334.756
335.116
335.453
335.752
335.994
336.166
336.255
336.255
336.166
335.994
335.752
335.453
335.116
334.756
334.39
334.043
333.774
326.273
326.48
326.749
327.033
327.314
327.576
327.808
327.997
328.13
328.2
328.2
328.13
327.997
327.808
327.576
327.314
327.033
326.749
326.48
326.273
318.774
318.92
319.113
319.316
319.516
319.703
319.869
320.004
320.099
320.149
320.149
320.099
320.004
319.869
319.703
319.516
319.316
319.113
318.92
318.774
311.277
311.364
311.479
311.601
311.721
311.834
311.934
312.015
312.072
312.102
312.102
312.072
312.015
311.934
311.834
311.721
311.601
311.479
311.364
311.277
303.78
303.809
303.848
303.889
303.929
303.967
304
304.027
304.046
304.056
304.056
304.046
304.027
304
303.967
303.929
303.889
303.848
303.809
303.78
358.195
358.636
359.175
359.734
360.28
360.789
361.237
361.6
361.856
361.989
361.989
361.856
361.6
361.237
360.789
360.28
359.734
359.175
358.636
358.195
350.429
350.802
351.267
351.751
352.224
352.666
353.054
353.369
353.591
353.706
353.706
353.591
353.369
353.054
352.666
352.224
351.751
351.267
350.802
350.429
342.668
342.977
343.369
343.778
344.179
344.552
344.881
345.147
345.335
345.433
345.433
345.335
345.147
344.881
344.552
344.179
343.778
343.369
342.977
342.668
334.91
335.159
335.478
335.813
336.141
336.447
336.716
336.934
337.088
337.167
337.167
337.088
336.934
336.716
336.447
336.141
335.813
335.478
335.159
334.91
327.156
327.347
327.595
327.855
328.11
328.348
328.558
328.727
328.847
328.909
328.909
328.847
328.727
328.558
328.348
328.11
327.855
327.595
327.347
327.156
319.405
319.54
319.716
319.902
320.085
320.255
320.405
320.526
320.611
320.655
320.655
320.611
320.526
320.405
320.255
320.085
319.902
319.716
319.54
319.405
311.655
311.736
311.842
311.953
312.063
312.165
312.255
312.328
312.379
312.406
312.406
312.379
312.328
312.255
312.165
312.063
311.953
311.842
311.736
311.655
303.907
303.934
303.969
304.007
304.043
304.078
304.108
304.132
304.149
304.158
304.158
304.149
304.132
304.108
304.078
304.043
304.007
303.969
303.934
303.907
360.262
360.668
361.163
361.673
362.169
362.629
363.032
363.358
363.586
363.705
363.705
363.586
363.358
363.032
362.629
362.169
361.673
361.163
360.668
360.262
352.216
352.559
352.986
353.428
353.859
354.258
354.607
354.889
355.087
355.19
355.19
355.087
354.889
354.607
354.258
353.859
353.428
352.986
352.559
352.216
344.176
344.461
344.821
345.195
345.559
345.897
346.193
346.432
346.599
346.686
346.686
346.599
346.432
346.193
345.897
345.559
345.195
344.821
344.461
344.176
336.142
336.372
336.665
336.971
337.269
337.546
337.788
337.983
338.121
338.192
338.192
338.121
337.983
337.788
337.546
337.269
336.971
336.665
336.372
336.142
328.113
328.289
328.517
328.755
328.987
329.202
329.39
329.542
329.649
329.705
329.705
329.649
329.542
329.39
329.202
328.987
328.755
328.517
328.289
328.113
320.088
320.213
320.375
320.545
320.711
320.864
320.999
321.108
321.184
321.224
321.224
321.184
321.108
320.999
320.864
320.711
320.545
320.375
320.213
320.088
312.065
312.14
312.237
312.339
312.439
312.531
312.612
312.677
312.723
312.747
312.747
312.723
312.677
312.612
312.531
312.439
312.339
312.237
312.14
312.065
304.044
304.069
304.102
304.136
304.169
304.2
304.227
304.249
304.265
304.273
304.273
304.265
304.249
304.227
304.2
304.169
304.136
304.102
304.069
304.044
362.483
362.857
363.31
363.776
364.225
364.641
365.003
365.294
365.498
365.603
365.603
365.498
365.294
365.003
364.641
364.225
363.776
363.31
362.857
362.483
354.135
354.451
354.843
355.246
355.636
355.996
356.31
356.562
356.739
356.831
356.831
356.739
356.562
356.31
355.996
355.636
355.246
354.843
354.451
354.135
345.796
346.058
346.388
346.729
347.059
347.364
347.63
347.844
347.994
348.071
348.071
347.994
347.844
347.63
347.364
347.059
346.729
346.388
346.058
345.796
337.465
337.676
337.945
338.224
338.494
338.744
338.961
339.136
339.259
339.322
339.322
339.259
339.136
338.961
338.744
338.494
338.224
337.945
337.676
337.465
329.14
329.302
329.511
329.728
329.938
330.133
330.302
330.438
330.534
330.583
330.583
330.534
330.438
330.302
330.133
329.938
329.728
329.511
329.302
329.14
320.821
320.935
321.084
321.239
321.39
321.528
321.65
321.747
321.815
321.85
321.85
321.815
321.747
321.65
321.528
321.39
321.239
321.084
320.935
320.821
312.505
312.573
312.663
312.756
312.846
312.93
313.002
313.061
313.102
313.123
313.123
313.102
313.061
313.002
312.93
312.846
312.756
312.663
312.573
312.505
304.192
304.214
304.244
304.276
304.306
304.334
304.358
304.378
304.392
304.399
304.399
304.392
304.378
304.358
304.334
304.306
304.276
304.244
304.214
304.192
364.837
365.181
365.596
366.019
366.427
366.802
367.127
367.387
367.57
367.664
367.664
367.57
367.387
367.127
366.802
366.427
366.019
365.596
365.181
364.837
356.165
356.456
356.814
357.181
357.535
357.86
358.142
358.368
358.526
358.608
358.608
358.526
358.368
358.142
357.86
357.535
357.181
356.814
356.456
356.165
347.506
347.747
348.049
348.36
348.66
348.935
349.174
349.365
349.499
349.568
349.568
349.499
349.365
349.174
348.935
348.66
348.36
348.049
347.747
347.506
338.859
339.053
339.299
339.554
339.799
340.024
340.22
340.377
340.486
340.543
340.543
340.486
340.377
340.22
340.024
339.799
339.554
339.299
339.053
338.859
330.222
330.37
330.562
330.759
330.95
331.126
331.278
331.4
331.485
331.529
331.529
331.485
331.4
331.278
331.126
330.95
330.759
330.562
330.37
330.222
321.592
321.697
321.833
321.975
322.111
322.237
322.346
322.433
322.494
322.525
322.525
322.494
322.433
322.346
322.237
322.111
321.975
321.833
321.697
321.592
312.967
313.03
313.112
313.197
313.279
313.354
313.42
313.472
313.509
313.528
313.528
313.509
313.472
313.42
313.354
313.279
313.197
313.112
313.03
312.967
304.346
304.367
304.395
304.423
304.451
304.476
304.498
304.516
304.528
304.534
304.534
304.528
304.516
304.498
304.476
304.451
304.423
304.395
304.367
304.346
367.262
367.578
367.959
368.345
368.716
369.054
369.347
369.581
369.744
369.828
369.828
369.744
369.581
369.347
369.054
368.716
368.345
367.959
367.578
367.262
358.247
358.515
358.843
359.179
359.5
359.794
360.048
360.251
360.393
360.465
360.465
360.393
360.251
360.048
359.794
359.5
359.179
358.843
358.515
358.247
349.253
349.475
349.752
350.036
350.309
350.558
350.773
350.945
351.065
351.127
351.127
351.065
350.945
350.773
350.558
350.309
350.036
349.752
349.475
349.253
340.278
340.457
340.683
340.915
341.138
341.342
341.519
341.66
341.758
341.809
341.809
341.758
341.66
341.519
341.342
341.138
340.915
340.683
340.457
340.278
331.319
331.456
331.631
331.812
331.986
332.145
332.282
332.392
332.469
332.508
332.508
332.469
332.392
332.282
332.145
331.986
331.812
331.631
331.456
331.319
322.372
322.469
322.594
322.724
322.848
322.962
323.06
323.138
323.193
323.221
323.221
323.193
323.138
323.06
322.962
322.848
322.724
322.594
322.469
322.372
313.435
313.493
313.568
313.645
313.72
313.788
313.847
313.895
313.927
313.944
313.944
313.927
313.895
313.847
313.788
313.72
313.645
313.568
313.493
313.435
304.503
304.522
304.547
304.573
304.598
304.621
304.641
304.657
304.668
304.674
304.674
304.668
304.657
304.641
304.621
304.598
304.573
304.547
304.522
304.503
369.603
369.896
370.246
370.601
370.94
371.249
371.515
371.726
371.874
371.949
371.949
371.874
371.726
371.515
371.249
370.94
370.601
370.246
369.896
369.603
360.233
360.48
360.783
361.092
361.386
361.655
361.886
362.07
362.198
362.264
362.264
362.198
362.07
361.886
361.655
361.386
361.092
360.783
360.48
360.233
350.901
351.107
351.363
351.624
351.874
352.102
352.298
352.454
352.563
352.618
352.618
352.563
352.454
352.298
352.102
351.874
351.624
351.363
351.107
350.901
341.604
341.77
341.979
342.193
342.398
342.585
342.746
342.874
342.963
343.009
343.009
342.963
342.874
342.746
342.585
342.398
342.193
341.979
341.77
341.604
332.337
332.464
332.626
332.793
332.953
333.098
333.224
333.324
333.393
333.429
333.429
333.393
333.324
333.224
333.098
332.953
332.793
332.626
332.464
332.337
323.092
323.182
323.298
323.417
323.532
323.636
323.726
323.797
323.847
323.872
323.872
323.847
323.797
323.726
323.636
323.532
323.417
323.298
323.182
323.092
313.864
313.918
313.987
314.059
314.128
314.19
314.244
314.287
314.317
314.333
314.333
314.317
314.287
314.244
314.19
314.128
314.059
313.987
313.918
313.864
304.646
304.664
304.688
304.712
304.735
304.756
304.774
304.788
304.798
304.803
304.803
304.798
304.788
304.774
304.756
304.735
304.712
304.688
304.664
304.646
371.446
371.721
372.05
372.384
372.701
372.988
373.236
373.432
373.569
373.639
373.639
373.569
373.432
373.236
372.988
372.701
372.384
372.05
371.721
371.446
361.736
361.969
362.255
362.545
362.822
363.073
363.289
363.46
363.579
363.64
363.64
363.579
363.46
363.289
363.073
362.822
362.545
362.255
361.969
361.736
352.11
352.304
352.546
352.793
353.028
353.242
353.425
353.571
353.673
353.725
353.725
353.673
353.571
353.425
353.242
353.028
352.793
352.546
352.304
352.11
342.553
342.71
342.908
343.111
343.304
343.479
343.63
343.75
343.834
343.876
343.876
343.834
343.75
343.63
343.479
343.304
343.111
342.908
342.71
342.553
333.051
333.172
333.326
333.484
333.635
333.772
333.89
333.983
334.048
334.082
334.082
334.048
333.983
333.89
333.772
333.635
333.484
333.326
333.172
333.051
323.59
323.676
323.786
323.899
324.007
324.105
324.19
324.257
324.303
324.327
324.327
324.303
324.257
324.19
324.105
324.007
323.899
323.786
323.676
323.59
314.159
314.21
314.276
314.344
314.409
314.468
314.519
314.559
314.587
314.602
314.602
314.587
314.559
314.519
314.468
314.409
314.344
314.276
314.21
314.159
304.744
304.761
304.783
304.806
304.828
304.848
304.865
304.879
304.888
304.893
304.893
304.888
304.879
304.865
304.848
304.828
304.806
304.783
304.761
304.744
)
;

boundaryField
{
    hotSide
    {
        type            fixedGradient;
        gradient        nonuniform List<scalar> 
400
(
482.723
484.151
487.017
491.338
497.137
504.446
513.299
523.734
535.791
549.509
564.927
582.081
601.003
621.723
644.268
668.659
694.914
723.05
753.078
785.008
493.539
494.882
497.58
501.655
507.141
514.078
522.511
532.49
544.066
557.289
572.208
588.865
607.302
627.553
649.649
673.614
699.469
727.23
756.909
788.516
505.244
506.485
508.983
512.767
517.882
524.381
532.323
541.772
552.794
565.451
579.802
595.902
613.797
633.53
655.133
678.635
704.058
731.419
760.729
791.996
517.645
518.767
521.032
524.479
529.166
535.162
542.544
551.394
561.793
573.818
587.543
603.032
620.34
639.514
660.592
683.605
708.576
735.52
764.449
795.369
530.395
531.383
533.386
536.456
540.667
546.106
552.872
561.066
570.789
582.136
595.194
610.036
626.729
645.324
665.862
688.376
712.889
739.415
767.964
798.541
542.962
543.806
545.53
548.199
551.904
556.755
562.875
570.388
579.414
590.066
602.446
616.639
632.717
650.739
670.747
692.775
716.845
742.971
771.159
801.41
554.626
555.327
556.773
559.042
562.247
566.52
572.008
578.858
587.212
597.199
608.935
622.515
638.019
655.509
675.029
696.613
720.281
746.045
773.909
803.872
564.526
565.098
566.293
568.203
570.96
574.72
579.648
585.914
593.679
603.089
614.268
627.324
642.339
659.378
678.488
699.701
723.035
748.501
776.098
805.824
571.771
572.244
573.246
574.883
577.3
580.669
585.174
591.002
598.327
607.306
618.075
630.743
645.4
662.111
680.923
701.868
724.963
750.214
777.623
807.18
575.61
576.029
576.927
578.415
580.647
583.804
588.081
593.673
600.762
609.511
620.059
632.522
646.989
663.527
682.183
702.987
725.956
751.096
778.405
807.875
575.61
576.029
576.927
578.415
580.647
583.804
588.081
593.673
600.762
609.511
620.059
632.522
646.989
663.527
682.183
702.987
725.956
751.096
778.405
807.875
571.771
572.244
573.246
574.883
577.3
580.669
585.174
591.002
598.327
607.306
618.075
630.743
645.4
662.111
680.923
701.868
724.963
750.214
777.623
807.18
564.526
565.098
566.293
568.203
570.96
574.72
579.648
585.914
593.679
603.089
614.268
627.324
642.339
659.378
678.488
699.701
723.035
748.501
776.098
805.824
554.626
555.327
556.773
559.042
562.247
566.52
572.008
578.858
587.212
597.199
608.935
622.515
638.019
655.509
675.029
696.613
720.281
746.045
773.909
803.872
542.962
543.806
545.53
548.199
551.904
556.755
562.875
570.388
579.414
590.066
602.446
616.639
632.717
650.739
670.747
692.775
716.845
742.971
771.159
801.41
530.395
531.383
533.386
536.456
540.667
546.106
552.872
561.066
570.789
582.136
595.194
610.036
626.729
645.324
665.862
688.376
712.889
739.415
767.964
798.541
517.645
518.767
521.032
524.479
529.166
535.162
542.544
551.394
561.793
573.818
587.543
603.032
620.34
639.514
660.592
683.605
708.576
735.52
764.449
795.369
505.244
506.485
508.983
512.767
517.882
524.381
532.323
541.772
552.794
565.451
579.802
595.902
613.797
633.53
655.133
678.635
704.058
731.419
760.729
791.996
493.539
494.882
497.58
501.655
507.141
514.078
522.511
532.49
544.066
557.289
572.208
588.865
607.302
627.553
649.649
673.614
699.469
727.23
756.909
788.516
482.723
484.151
487.017
491.338
497.137
504.446
513.299
523.734
535.791
549.509
564.927
582.081
601.003
621.723
644.268
668.659
694.914
723.05
753.078
785.008
)
;
    }
    coldSide
    {
        type            mixed;
        refValue        uniform 300;
        refGradient     uniform 0;
        valueFraction   uniform 0.991591;
        source          uniform 0;
        value           nonuniform List<scalar> 
400
(
300.026
300.026
300.026
300.026
300.026
300.027
300.027
300.028
300.028
300.029
300.03
300.031
300.032
300.033
300.034
300.035
300.037
300.038
300.039
300.04
300.026
300.026
300.026
300.027
300.027
300.027
300.028
300.028
300.029
300.029
300.03
300.031
300.032
300.033
300.034
300.035
300.037