/*--------------------------------*- C++ -*----------------------------------*\
| =========                 |                                                 |
| \\      /  F ield         | OpenFOAM: The Open Source CFD Toolbox           |
|  \\    /   O peration     | Version:  2212                                  |
|   \\  /    A nd           | Website:  www.openfoam.com                      |
|    \\/     M anipulation  |                                                 |
\*---------------------------------------------------------------------------*/
FoamFile
{
    version     2.0;
    format      ascii;
    arch        "LSB;label=32;scalar=64";
    class       volScalarField;
    location    "0";
    object      T;
}
// * * * * * * * * * * * * * * * * * * * * * * * * * * * * * * * * * * * * * //

dimensions      [0 0 0 1 0 0 0];

internalField   nonuniform List<scalar> 
3200
(
345.893
346.952
348.04
349.019
350.052
350.897
351.595
352.4
352.565
353.036
353.085
353.093
352.634
352.093
351.685
350.91
350.183
349.294
347.934
347.017
339.832
340.714
341.628
342.505
343.373
344.112
344.749
345.484
345.604
345.988
346.069
346.024
345.626
345.161
344.819
344.154
343.517
342.733
341.572
340.74
333.742
334.495
335.201
335.95
336.679
337.332
337.926
338.522
338.625
338.99
339.028
338.989
338.603
338.233
337.988
337.382
336.847
336.12
335.197
334.489
327.636
328.218
328.767
329.379
329.989
330.51
331.068
331.563
331.619
331.908
331.959
331.962
331.536
331.286
331.11
330.614
330.182
329.555
328.832
328.19
321.557
321.931
322.353
322.825
323.303
323.689
324.158
324.57
324.622
324.857
324.907
324.894
324.509
324.345
324.209
323.815
323.525
323.014
322.404
321.89
315.455
315.725
315.971
316.281
316.614
316.834
317.236
317.555
317.634
317.797
317.846
317.812
317.517
317.4
317.309
317.044
316.83
316.459
315.968
315.618
309.286
309.457
309.605
309.75
309.982
310.069
310.311
310.55
310.578
310.718
310.758
310.668
310.513
310.446
310.411
310.234
310.117
309.88
309.565
309.381
303.102
303.172
303.207
303.269
303.349
303.387
303.457
303.531
303.54
303.593
303.63
303.58
303.52
303.502
303.502
303.43
303.392
303.309
303.213
303.132
346.939
347.895
348.91
350.104
351.066
352.061
352.864
353.412
353.834
354.022
354.226
354.127
353.903
353.252
352.652
351.943
351.179
350.235
349.105
348.003
340.683
341.497
342.331
343.442
344.244
345.097
345.791
346.283
346.655
346.789
346.967
346.923
346.68
346.142
345.639
344.974
344.33
343.51
342.562
341.593
334.47
335.127
335.776
336.764
337.448
338.137
338.717
339.166
339.463
339.61
339.735
339.7
339.465
339.039
338.639
338.038
337.477
336.753
336.004
335.197
328.217
328.741
329.229
330.117
330.643
331.177
331.662
332.019
332.33
332.423
332.524
332.444
332.214
331.904
331.679
331.119
330.702
330.012
329.497
328.815
321.973
322.362
322.735
323.418
323.823
324.234
324.6
324.912
325.152
325.216
325.284
325.212
325.037
324.821
324.708
324.19
323.94
323.313
322.964
322.39
315.729
315.989
316.24
316.749
317.043
317.304
317.584
317.812
317.962
318.046
318.097
318.007
317.919
317.74
317.698
317.313
317.129
316.625
316.418
315.956
309.484
309.612
309.781
310.049
310.219
310.389
310.55
310.707
310.777
310.836
310.879
310.8
310.751
310.664
310.636
310.399
310.286
309.996
309.871
309.621
303.202
303.232
303.274
303.385
303.414
303.458
303.533
303.607
303.604
303.641
303.653
303.612
303.615
303.586
303.567
303.493
303.441
303.356
303.311
303.247
348.117
349.019
350.44
351.743
352.647
353.485
354.266
354.86
355.2
355.401
355.691
355.613
355.38
354.922
354.324
353.666
352.726
351.57
350.416
349.399
341.705
342.448
343.706
344.813
345.575
346.327
347.017
347.519
347.785
347.998
348.207
348.136
347.954
347.557
347.037
346.436
345.594
344.64
343.653
342.784
335.278
335.9
336.957
337.894
338.494
339.174
339.762
340.175
340.402
340.6
340.79
340.681
340.527
340.196
339.809
339.237
338.512
337.714
336.931
336.142
328.832
329.364
330.212
331.013
331.43
332.029
332.501
332.877
333.026
333.268
333.391
333.222
333.096
332.848
332.594
332.052
331.475
330.837
330.225
329.584
322.391
322.844
323.458
324.102
324.41
324.888
325.257
325.577
325.659
325.893
326.041
325.788
325.699
325.569
325.345
324.892
324.445
323.956
323.514
322.983
315.987
316.334
316.74
317.209
317.451
317.808
318.029
318.273
318.306
318.504
318.648
318.423
318.336
318.254
318.091
317.794
317.435
317.097
316.811
316.404
309.632
309.8
310.051
310.319
310.488
310.717
310.818
310.956
310.967
311.074
311.198
311.046
311.025
310.943
310.832
310.706
310.479
310.267
310.089
309.85
303.238
303.266
303.377
303.466
303.514
303.587
303.626
303.637
303.674
303.701
303.747
303.695
303.702
303.652
303.614
303.572
303.503
303.438
303.378
303.296
349.445
350.535
351.926
353.122
354.016
354.974
355.834
356.289
356.698
356.998
357.435
357.421
356.877
356.321
355.828
355.107
354.03
353.138
351.895
350.759
342.873
343.757
344.988
345.986
346.766
347.608
348.304
348.759
349.059
349.339
349.698
349.725
349.271
348.705
348.332
347.704
346.828
346.003
344.951
344.021
336.312
336.981
338.056
338.847
339.498
340.235
340.782
341.24
341.471
341.741
341.983
341.992
341.646
341.171
340.874
340.308
339.645
338.906
338.054
337.239
329.753
330.195
331.139
331.723
332.28
332.886
333.353
333.725
333.909
334.141
334.341
334.349
333.998
333.667
333.403
332.918
332.476
331.815
331.129
330.474
323.193
323.452
324.234
324.663
325.1
325.546
325.948
326.241
326.364
326.54
326.698
326.694
326.371
326.205
325.973
325.578
325.297
324.711
324.22
323.727
316.56
316.735
317.314
317.588
317.93
318.265
318.541
318.717
318.84
318.982
319.089
319.049
318.836
318.727
318.602
318.244
318.1
317.625
317.315
316.976
309.968
310.087
310.41
310.544
310.766
310.968
311.134
311.254
311.302
311.402
311.478
311.439
311.302
311.247
311.177
310.956
310.875
310.585
310.408
310.186
303.334
303.386
303.495
303.535
303.615
303.658
303.73
303.772
303.781
303.828
303.86
303.855
303.787
303.782
303.754
303.67
303.646
303.557
303.495
303.424
350.734
352.114
353.416
354.494
355.708
356.699
357.252
357.943
358.232
358.471
358.779
358.612
358.594
357.706
357.417
356.618
355.812
354.406
353.219
352.087
343.992
345.149
346.243
347.186
348.257
349.094
349.551
350.141
350.37
350.619
350.902
350.749
350.735
349.961
349.725
349.055
348.324
347.105
346.046
345.127
337.236
338.213
339.075
339.852
340.808
341.496
341.872
342.408
342.6
342.835
343.022
342.937
342.908
342.246
342.022
341.486
340.852
339.83
338.889
338.142
330.502
331.315
331.938
332.58
333.382
333.869
334.253
334.673
334.83
335.035
335.122
335.067
335.092
334.525
334.323
333.892
333.4
332.509
331.775
331.226
323.76
324.36
324.863
325.339
325.958
326.26
326.619
326.951
327.071
327.28
327.254
327.243
327.259
326.849
326.663
326.356
325.968
325.185
324.663
324.283
317.007
317.438
317.765
318.134
318.543
318.702
319.022
319.225
319.309
319.503
319.425
319.461
319.474
319.186
319.016
318.797
318.56
317.967
317.64
317.373
310.195
310.477
310.655
310.896
311.096
311.18
311.428
311.526
311.582
311.738
311.678
311.685
311.718
311.533
311.414
311.281
311.151
310.795
310.608
310.459
303.424
303.508
303.559
303.652
303.71
303.746
303.843
303.855
303.854
303.948
303.92
303.933
303.941
303.87
303.816
303.789
303.744
303.614
303.574
303.516
352.145
353.352
354.91
355.864
357.102
357.843
358.914
359.35
359.882
359.969
360.071
360.095
360.072
359.406
358.574
357.918
357.075
355.958
354.503
353.452
345.166
346.169
347.498
348.383
349.435
350.07
351.003
351.35
351.792
351.868
351.965
352.016
352.016
351.443
350.671
350.11
349.37
348.411
347.193
346.298
338.24
339.05
340.138
340.886
341.803
342.329
343.112
343.426
343.749
343.837
343.907
343.928
343.956
343.475
342.804
342.358
341.678
340.892
339.858
339.183
331.306
331.922
332.84
333.397
334.203
334.646
335.256
335.489
335.716
335.824
335.911
335.861
335.958
335.532
334.983
334.632
334.069
333.42
332.57
332.095
324.355
324.828
325.558
325.959
326.617
326.969
327.395
327.572
327.762
327.824
327.919
327.856
327.951
327.612
327.15
326.963
326.492
325.97
325.279
324.978
317.425
317.738
318.265
318.53
318.979
319.245
319.562
319.679
319.826
319.888
319.931
319.903
319.983
319.724
319.352
319.253
318.962
318.542
318.031
317.838
310.462
310.641
310.976
311.117
311.364
311.56
311.753
311.842
311.91
311.959
311.958
311.934
312.009
311.85
311.615
311.561
311.402
311.134
310.814
310.715
303.521
303.577
303.675
303.729
303.782
303.874
303.937
303.986
303.985
304.023
304.02
303.997
304.02
303.966
303.887
303.883
303.842
303.727
303.627
303.588
353.541
354.665
356.064
357.372
358.554
359.308
360.298
360.889
361.254
361.648
361.662
361.522
361.367
360.881
360.032
359.285
358.29
357.233
355.815
354.771
346.396
347.313
348.532
349.626
350.673
351.342
352.159
352.671
353.013
353.383
353.343
353.267
353.12
352.667
351.891
351.308
350.418
349.544
348.33
347.474
339.281
339.969
341.02
341.935
342.826
343.432
344.066
344.51
344.8
345.117
345.061
345.011
344.88
344.462
343.823
343.364
342.572
341.85
340.876
340.162
332.193
332.639
333.528
334.25
335.03
335.492
335.985
336.348
336.602
336.859
336.804
336.783
336.635
336.29
335.807
335.454
334.789
334.23
333.43
332.853
325.054
325.339
326.064
326.618
327.223
327.619
327.966
328.232
328.38
328.631
328.558
328.594
328.404
328.208
327.87
327.567
327.071
326.606
325.964
325.519
317.962
318.089
318.607
319.019
319.459
319.746
319.982
320.197
320.238
320.423
320.379
320.394
320.267
320.149
319.873
319.662
319.335
319.002
318.53
318.236
310.807
310.862
311.198
311.406
311.676
311.862
312.009
312.142
312.114
312.252
312.224
312.202
312.183
312.097
311.906
311.799
311.589
311.403
311.152
310.955
303.621
303.633
303.765
303.827
303.924
303.98
304.029
304.07
304.088
304.088
304.094
304.084
304.09
304.062
303.987
303.966
303.879
303.814
303.741
303.66
354.67
355.612
357.234
358.566
359.783
360.53
361.454
362.204
362.591
363.017
363.045
363.057
362.711
362.204
361.304
360.672
359.754
358.57
357.108
356.048
347.361
348.175
349.568
350.697
351.772
352.401
353.18
353.836
354.17
354.526
354.577
354.581
354.3
353.873
353.069
352.513
351.706
350.744
349.489
348.585
340.055
340.753
341.929
342.876
343.773
344.325
344.936
345.501
345.818
346.033
346.131
346.142
345.914
345.575
344.857
344.31
343.696
342.85
341.848
341.1
332.745
333.337
334.237
335.121
335.805
336.21
336.76
337.181
337.437
337.588
337.693
337.739
337.52
337.259
336.656
336.206
335.74
334.996
334.214
333.611
325.469
325.919
326.547
327.384
327.841
328.157
328.583
328.887
329.061
329.203
329.294
329.315
329.127
328.948
328.462
328.145
327.809
327.181
326.614
326.163
318.212
318.512
318.936
319.582
319.862
320.073
320.437
320.59
320.739
320.821
320.897
320.933
320.808
320.647
320.319
320.134
319.898
319.392
319.041
318.704
310.94
311.128
311.359
311.771
311.93
312.023
312.297
312.342
312.445
312.462
312.546
312.583
312.543
312.378
312.201
312.105
311.951
311.621
311.429
311.245
303.671
303.729
303.826
303.943
303.998
304.019
304.122
304.135
304.169
304.172
304.201
304.228
304.214
304.125
304.084
304.067
304.004
303.888
303.801
303.761
355.732
356.847
358.473
359.86
361.083
361.997
362.64
363.521
363.971
364.418
364.503
364.112
363.968
363.341
362.875
361.9
360.715
359.499
358.236
357.253
348.268
349.207
350.645
351.815
352.867
353.667
354.207
354.943
355.348
355.716
355.831
355.54
355.363
354.814
354.448
353.619
352.566
351.502
350.414
349.607
340.837
341.61
342.833
343.812
344.676
345.388
345.824
346.392
346.769
347.043
347.189
346.962
346.761
346.308
346.006
345.337
344.438
343.537
342.618
341.997
333.403
333.999
335.014
335.811
336.525
337.125
337.455
337.891
338.233
338.462
338.579
338.452
338.226
337.831
337.581
337.062
336.321
335.577
334.843
334.392
325.965
326.433
327.22
327.838
328.379
328.846
329.107
329.406
329.7
329.921
329.966
329.91
329.725
329.423
329.222
328.817
328.21
327.663
327.075
326.794
318.579
318.897
319.451
319.934
320.238
320.613
320.795
320.96
321.19
321.367
321.377
321.379
321.264
321.006
320.892
320.585
320.103
319.723
319.338
319.167
311.176
311.365
311.646
311.967
312.147
312.368
312.491
312.56
312.721
312.86
312.835
312.855
312.786
312.604
312.577
312.388
312.062
311.795
311.605
311.489
303.746
303.806
303.925
303.989
304.073
304.158
304.172
304.201
304.259
304.322
304.311
304.306
304.275
304.225
304.227
304.152
304.027
303.96
303.881
303.854
356.733
357.916
359.652
361.098
362.252
363.321
363.998
364.698
365.076
365.52
365.66
365.506
365.144
364.782
363.962
362.965
361.754
360.679
359.169
358.223
349.143
350.128
351.635
352.9
353.874
354.845
355.409
355.969
356.28
356.683
356.841
356.731
356.383
356.093
355.35
354.506
353.476
352.527
351.224
350.48
341.524
342.387
343.675
344.663
345.533
346.358
346.855
347.315
347.54
347.875
348.098
348
347.656
347.405
346.762
346.066
345.221
344.382
343.342
342.746
333.972
334.645
335.747
336.548
337.217
337.885
338.344
338.663
338.874
339.112
339.358
339.265
338.95
338.736
338.173
337.646
336.963
336.337
335.481
334.943
326.404
326.943
327.778
328.422
328.944
329.418
329.82
329.986
330.213
330.412
330.591
330.535
330.255
330.092
329.675
329.244
328.727
328.29
327.597
327.16
318.844
319.26
319.853
320.319
320.673
320.983
321.332
321.362
321.562
321.735
321.829
321.772
321.555
321.506
321.176
320.919
320.522
320.203
319.716
319.414
311.287
311.566
311.942
312.23
312.376
312.616
312.797
312.794
312.925
313.064
313.122
313.052
312.912
312.932
312.755
312.586
312.327
312.109
311.824
311.674
303.769
303.879
304.01
304.101
304.143
304.241
304.294
304.276
304.32
304.378
304.419
304.389
304.316
304.332
304.266
304.213
304.119
304.063
303.972
303.912
357.665
358.882
360.496
361.988
363.259
364.347
365.127
365.854
366.246
366.638
366.805
366.845
366.071
365.79
364.876
364.164
362.985
361.85
360.342
359.236
349.937
350.955
352.38
353.642
354.767
355.716
356.34
356.969
357.358
357.677
357.889
357.859
357.197
356.947
356.144
355.533
354.533
353.536
352.274
351.352
342.206
343.055
344.287
345.344
346.259
347.078
347.573
348.131
348.49
348.764
348.949
348.88
348.362
348.141
347.458
346.94
346.13
345.252
344.209
343.44
334.541
335.194
336.205
337.071
337.821
338.465
338.863
339.318
339.631
339.808
340.027
339.925
339.541
339.358
338.766
338.351
337.697
336.939
336.13
335.532
326.874
327.331
328.143
328.862
329.367
329.828
330.168
330.518
330.806
330.945
331.124
331.039
330.774
330.58
330.119
329.791
329.262
328.713
328.047
327.661
319.23
319.519
320.091
320.608
320.965
321.258
321.511
321.771
322.004
322.097
322.264
322.202
322.018
321.806
321.509
321.265
320.884
320.513
320.013
319.797
311.554
311.706
312.057
312.398
312.583
312.785
312.9
313.055
313.192
313.274
313.36
313.346
313.234
313.088
312.921
312.785
312.521
312.322
312.047
311.93
303.89
303.921
304.036
304.138
304.217
304.283
304.32
304.378
304.414
304.457
304.48
304.476
304.455
304.408
304.33
304.278
304.205
304.129
304.04
304.004
358.632
360.069
361.237
362.818
364.294
365.217
365.936
366.904
367.356
367.609
367.934
367.807
367.277
366.769
366.021
365.084
363.871
362.89
361.446
360.201
350.776
351.999
352.96
354.372
355.664
356.417
357.052
357.943
358.363
358.519
358.813
358.696
358.235
357.815
357.142
356.301
355.264
354.469
353.236
352.182
342.939
343.957
344.803
345.948
347.024
347.643
348.183
349.01
349.352
349.475
349.734
349.644
349.254
348.901
348.337
347.555
346.714
346.092
345.027
344.16
335.124
335.911
336.639
337.579
338.385
338.892
339.403
340.091
340.313
340.46
340.683
340.579
340.296
339.957
339.539
338.904
338.218
337.676
336.86
336.153
327.311
327.886
328.434
329.211
329.815
330.195
330.664
331.156
331.288
331.456
331.589
331.568
331.396
331.052
330.736
330.267
329.712
329.244
328.702
328.097
319.526
319.922
320.282
320.866
321.331
321.558
321.948
322.252
322.32
322.486
322.545
322.58
322.443
322.163
321.918
321.636
321.229
320.88
320.524
320.066
311.709
311.942
312.176
312.565
312.804
312.914
313.21
313.348
313.376
313.499
313.522
313.573
313.484
313.277
313.162
312.987
312.779
312.541
312.342
312.063
303.933
304
304.096
304.211
304.299
304.327
304.452
304.49
304.474
304.53
304.543
304.552
304.532
304.438
304.4
304.354
304.275
304.203
304.158
304.024
359.423
360.824
362.093
363.617
365.003
366.059
367.032
367.815
368.268
368.549
368.643
368.656
368.199
367.527
367.058
366.049
364.653
363.541
362.073
360.999
351.485
352.669
353.654
355.029
356.271
357.144
358.024
358.751
359.096
359.359
359.419
359.47
359.07
358.473
358.05
357.192
355.909
354.972
353.787
352.886
343.528
344.511
345.323
346.516
347.548
348.306
349.025
349.692
349.954
350.178
350.2
350.285
349.954
349.439
349.042
348.313
347.256
346.486
345.518
344.735
335.569
336.403
337.026
338.013
338.884
339.424
340.09
340.663
340.877
341.036
341.06
341.134
340.902
340.435
340.063
339.482
338.644
338.012
337.258
336.569
327.643
328.343
328.76
329.543
330.209
330.666
331.171
331.624
331.754
331.886
331.925
331.97
331.838
331.444
331.094
330.66
330.022
329.53
328.948
328.439
319.689
320.295
320.527
321.11
321.58
321.912
322.26
322.599
322.64
322.783
322.811
322.812
322.737
322.453
322.179
321.886
321.43
321.119
320.672
320.295
311.809
312.204
312.285
312.68
312.98
313.185
313.371
313.572
313.61
313.695
313.742
313.713
313.629
313.48
313.309
313.139
312.876
312.705
312.411
312.165
303.946
304.087
304.133
304.275
304.348
304.42
304.476
304.546
304.541
304.596
304.619
304.587
304.563
304.518
304.451
304.407
304.31
304.258
304.183
304.066
360.155
361.698
362.97
364.389
365.607
366.945
367.58
368.585
369.127
369.262
369.545
369.353
369.196
368.388
367.622
366.805
365.44
364
362.664
361.64
352.117
353.4
354.483
355.701
356.788
357.925
358.5
359.372
359.836
359.954
360.193
360.018
359.892
359.167
358.545
357.856
356.605
355.364
354.272
353.394
344.08
345.133
346.043
347.08
347.948
348.931
349.403
350.168
350.613
350.703
350.832
350.759
350.599
350.014
349.53
348.907
347.804
346.787
345.871
345.155
336.05
336.866
337.599
338.525
339.115
339.982
340.409
341.019
341.417
341.502
341.513
341.506
341.349
340.915
340.54
339.991
339.115
338.225
337.486
336.916
328.038
328.643
329.191
329.922
330.35
331.054
331.429
331.962
332.24
332.219
332.25
332.246
332.118
331.841
331.555
331.085
330.412
329.734
329.132
328.715
320.019
320.439
320.814
321.339
321.658
322.151
322.477
322.889
323.04
322.963
323.048
323.033
322.899
322.792
322.559
322.223
321.754
321.248
320.8
320.516
312.005
312.266
312.475
312.82
312.985
313.273
313.514
313.761
313.858
313.742
313.83
313.84
313.732
313.68
313.566
313.344
313.104
312.742
312.484
312.291
304.033
304.105
304.179
304.31
304.348
304.448
304.517
304.616
304.658
304.636
304.615
304.659
304.571
304.591
304.549
304.463
304.406
304.279
304.182
304.126
360.814
362.22
363.729
365.044
366.189
367.656
368.469
369.253
369.631
370.034
370.024
370.055
369.833
369.014
368.2
367.206
366.05
364.75
363.413
361.953
352.684
353.858
355.163
356.272
357.333
358.597
359.25
359.928
360.312
360.61
360.591
360.625
360.451
359.711
359.033
358.176
357.163
356.086
354.853
353.647
344.559
345.552
346.63
347.521
348.481
349.513
350.056
350.651
351.02
351.227
351.237
351.219
351.084
350.463
349.898
349.143
348.298
347.381
346.327
345.367
336.453
337.254
338.084
338.824
339.625
340.421
340.929
341.387
341.754
341.874
341.855
341.809
341.751
341.238
340.835
340.155
339.469
338.703
337.832
337.086
328.419
328.948
329.564
330.163
330.796
331.385
331.823
332.171
332.498
332.495
332.483
332.424
332.401
332.059
331.732
331.168
330.671
330.097
329.363
328.802
320.327
320.671
321.103
321.539
321.997
322.374
322.708
322.961
323.204
323.175
323.152
323.111
323.149
322.89
322.657
322.251
321.905
321.494
320.951
320.542
312.22
312.418
312.689
312.938
313.22
313.425
313.603
313.796
313.91
313.947
313.865
313.848
313.912
313.749
313.588
313.354
313.135
312.915
312.569
312.335
304.112
304.185
304.258
304.332
304.435
304.5
304.55
304.606
304.662
304.672
304.644
304.636
304.651
304.627
304.554
304.481
304.379
304.341
304.201
304.145
361.296
362.529
364.384
365.741
366.989
368.24
368.994
369.748
370.093
370.674
370.504
370.541
370.077
369.309
368.759
367.765
366.517
365.435
363.907
362.337
353.068
354.174
355.727
356.896
358.029
359.095
359.715
360.339
360.673
361.199
361.014
361.046
360.632
360.014
359.493
358.657
357.571
356.645
355.303
353.977
344.89
345.886
347.104
348.09
349.082
349.959
350.481
350.975
351.315
351.732
351.557
351.581
351.238
350.801
350.269
349.599
348.687
347.916
346.716
345.633
336.744
337.606
338.527
339.327
340.121
340.788
341.306
341.666
341.959
342.313
342.115
342.152
341.849
341.53
341.095
340.555
339.803
339.151
338.187
337.335
328.609
329.32
329.944
330.545
331.199
331.678
332.163
332.359
332.653
332.914
332.704
332.764
332.478
332.327
331.933
331.523
330.981
330.446
329.668
329.084
320.452
320.953
321.432
321.797
322.275
322.606
322.966
323.091
323.341
323.499
323.364
323.396
323.192
323.108
322.78
322.525
322.141
321.741
321.18
320.795
312.307
312.614
312.874
313.065
313.364
313.541
313.789
313.882
314.006
314.118
314.028
314.033
313.936
313.89
313.704
313.521
313.31
313.064
312.726
312.521
304.119
304.239
304.319
304.368
304.462
304.523
304.626
304.671
304.699
304.728
304.681
304.716
304.679
304.657
304.589
304.533
304.465
304.382
304.281
304.197
361.631
362.822
364.586
366.142
367.323
368.607
369.479
370.118
370.591
370.908
370.879
371.001
370.414
369.953
369.142
368.201
366.856
365.697
364.309
362.582
353.408
354.414
355.924
357.247
358.32
359.431
360.141
360.673
361.065
361.387
361.358
361.438
360.949
360.546
359.808
359.044
357.881
356.935
355.655
354.226
345.202
346.008
347.312
348.385
349.303
350.296
350.857
351.262
351.562
351.877
351.878
351.908
351.5
351.225
350.497
349.883
348.937
348.203
347.015
345.837
336.996
337.645
338.713
339.553
340.293
341.125
341.592
341.948
342.126
342.38
342.428
342.438
342.129
341.901
341.252
340.79
340.037
339.444
338.396
337.485
328.839
329.28
330.123
330.767
331.273
331.934
332.325
332.638
332.749
332.941
332.942
333.034
332.725
332.6
332.069
331.678
331.13
330.667
329.803
329.105
320.641
320.914
321.529
322.017
322.342
322.792
323.099
323.322
323.379
323.537
323.48
323.625
323.364
323.299
322.874
322.596
322.209
321.907
321.248
320.766
312.43
312.6
312.959
313.251
313.397
313.666
313.864
314.06
314.049
314.12
314.078
314.214
314.023
314.004
313.717
313.546
313.331
313.18
312.725
312.472
304.192
304.241
304.334
304.437
304.491
304.573
304.628
304.718
304.711
304.74
304.729
304.756
304.702
304.699
304.596
304.542
304.474
304.426
304.256
304.185
361.75
363.278
364.884
366.504
367.578
368.928
369.812
370.442
370.917
371.171
371.165
371.095
370.852
370.461
369.528
368.51
367.333
365.923
364.396
362.6
353.552
354.812
356.191
357.58
358.466
359.67
360.416
360.963
361.383
361.604
361.569
361.544
361.304
360.966
360.191
359.32
358.279
357.107
355.745
354.177
345.325
346.377
347.531
348.652
349.399
350.458
351.138
351.555
351.901
352.09
352.038
352.026
351.802
351.487
350.89
350.141
349.247
348.305
347.114
345.81
337.091
337.942
338.911
339.75
340.344
341.283
341.849
342.17
342.437
342.593
342.556
342.57
342.317
342.125
341.589
340.986
340.282
339.541
338.517
337.454
328.815
329.507
330.278
330.905
331.354
332.117
332.594
332.779
333
333.122
333.072
333.111
332.851
332.758
332.34
331.868
331.325
330.769
329.957
329.15
320.545
321.079
321.628
322.075
322.41
322.927
323.284
323.439
323.572
323.637
323.643
323.669
323.426
323.392
323.086
322.784
322.357
321.958
321.389
320.83
312.344
312.667
312.993
313.262
313.438
313.745
313.976
314.077
314.161
314.183
314.178
314.249
314.031
314.027
313.833
313.714
313.419
313.161
312.861
312.493
304.134
304.247
304.364
304.457
304.502
304.615
304.665
304.709
304.753
304.759
304.738
304.778
304.682
304.713
304.631
304.602
304.496
304.405
304.327
304.198
362.071
363.348
364.908
366.616
367.836
369.197
370.139
370.819
371.06
371.578
371.467
371.277
370.927
370.272
369.705
368.592
367.343
366.016
364.541
362.833
353.784
354.847
356.198
357.696
358.741
359.92
360.714
361.318
361.52
361.982
361.856
361.686
361.367
360.833
360.353
359.401
358.286
357.172
355.844
354.434
345.501
346.363
347.495
348.772
349.629
350.672
351.331
351.906
352.028
352.423
352.306
352.122
351.884
351.421
351.051
350.257
349.308
348.329
347.192
346.04
337.225
337.887
338.804
339.881
340.572
341.425
341.978
342.479
342.575
342.908
342.801
342.626
342.383
342.022
341.694
341.114
340.313
339.519
338.613
337.644
328.959
329.423
330.123
330.992
331.572
332.187
332.621
333.009
333.13
333.341
333.253
333.156
332.933
332.623
332.4
331.963
331.328
330.719
330.062
329.278
320.678
321.023
321.497
322.124
322.542
322.995
323.288
323.501
323.707
323.808
323.738
323.667
323.541
323.279
323.138
322.822
322.406
321.92
321.503
320.926
312.446
312.593
312.898
313.269
313.533
313.831
313.964
314.052
314.262
314.276
314.228
314.198
314.154
313.982
313.855
313.689
313.484
313.157
312.924
312.556
304.183
304.225
304.325
304.448
304.539
304.632
304.669
304.695
304.782
304.782
304.77
304.766
304.758
304.694
304.633
304.588
304.521
304.417
304.324
304.205
362.124
363.534
364.914
366.567
368.045
369.015
369.88
370.885
371.391
371.695
371.436
371.422
371.234
370.405
369.74
368.587
367.285
366.14
364.612
362.99
353.886
355.032
356.193
357.602
358.946
359.695
360.5
361.376
361.831
362.046
361.847
361.814
361.662
360.954
360.38
359.377
358.247
357.216
355.984
354.556
345.615
346.572
347.476
348.699
349.801
350.452
351.135
351.903
352.223
352.451
352.263
352.246
352.129
351.546
351.065
350.199
349.226
348.358
347.391
346.16
337.321
338.107
338.781
339.823
340.701
341.247
341.789
342.423
342.64
342.94
342.721
342.695
342.61
342.153
341.775
341.089
340.237
339.501
338.814
337.772
329.033
329.636
330.135
330.954
331.618
332.059
332.445
332.994
333.09
333.427
333.191
333.169
333.122
332.79
332.468
331.96
331.277
330.655
330.233
329.409
320.732
321.174
321.547
322.141
322.581
322.877
323.201
323.56
323.612
323.935
323.739
323.666
323.673
323.486
323.194
322.825
322.343
321.838
321.615
321.059
312.403
312.736
312.938
313.342
313.555
313.719
313.931
314.14
314.188
314.418
314.261
314.15
314.246
314.15
313.924
313.72
313.422
313.093
312.985
312.656
304.147
304.286
304.34
304.491
304.547
304.577
304.672
304.748
304.763
304.828
304.795
304.73
304.76
304.75
304.664
304.613
304.498
304.4
304.371
304.249
)
;

boundaryField
{
    hotSide
    {
        type            fixedGradient;
        gradient        nonuniform List<scalar> 
400
(
480.677
497.025
512.987
528.491
543.465
557.841
571.547
584.518
596.689
607.998
618.389
627.807
636.202
643.531
649.755
654.84
658.759
661.491
663.022
663.343
495.117
511.957
528.399
544.369
559.795
574.603
588.723
602.086
614.625
626.278
636.984
646.688
655.34
662.893
669.309
674.551
678.593
681.413
682.995
683.332
508.335
525.621
542.499
558.894
574.729
589.931
604.427
618.146
631.019
642.982
653.975
663.938
672.822
680.579
687.167
692.552
696.704
699.602
701.23
701.578
520.238
537.923
555.191
571.963
588.164
603.717
618.547
632.583
645.754
657.993
669.24
679.434
688.524
696.46
703.201
708.711
712.96
715.925
717.591
717.948
530.744
548.777
566.384
583.486
600.005
615.863
630.985
645.296
658.725
671.204
682.67
693.064
702.331
710.422
717.294
722.911
727.242
730.264
731.961
732.323
539.78
558.108
576.002
593.382
610.17
626.286
641.652
656.194
669.84
682.521
694.171
704.731
714.146
722.365
729.346
735.05
739.447
742.514
744.234
744.598
547.285
565.851
583.977
601.583
618.587
634.91
650.474
665.202
679.022
691.863
703.66
714.352
723.884
732.204
739.269
745.041
749.488
752.588
754.322
754.683
553.205
571.951
590.254
608.03
625.197
641.676
657.388
672.255
686.204
699.164
711.069
721.858
731.475
739.868
746.992
752.811
757.292
760.411
762.152
762.504
557.497
576.366
594.787
612.677
629.953
646.535
662.344
677.301
691.334
704.371
716.345
727.195
736.863
745.3
752.459
758.303
762.8
765.927
767.665
768.006
560.13
579.062
597.542
615.488
632.818
649.45
665.304
680.304
694.374
707.444
719.447
730.321
740.009
748.46
755.628
761.477
765.973
769.093
770.82
771.144
561.082
580.016
598.497
616.442
633.769
650.396
666.245
681.238
695.299
708.359
720.351
731.212
740.886
749.322
756.474
762.305
766.783
769.884
771.591
771.895
560.34
579.216
597.638
615.525
632.793
649.363
665.155
680.091
694.098
707.104
719.045
729.856
739.483
747.875
754.986
760.778
765.221
768.291
769.97
770.25
557.904
576.662
594.967
612.738
629.893
646.351
662.035
676.866
690.772
703.683
715.532
726.258
735.806
744.124
751.169
756.903
761.294
764.319
765.963
766.215
553.784
572.364
590.495
608.093
625.08
641.375
656.9
671.579
685.34
698.112
709.832
720.438
729.874
738.091
745.046
750.7
755.024
757.994
759.593
759.814
547.999
566.345
584.244
601.617
618.382
634.462
649.78
664.26
677.832
690.426
701.978
712.429
721.723
729.813
736.653
742.209
746.45
749.353
750.903
751.09
540.584
558.64
576.253
593.345
609.838
625.654
640.717
654.954
668.294
680.671
692.019
702.282
711.406
719.341
726.046
731.485
735.629
738.455
739.948
740.099
531.583
549.294
566.569
583.331
599.501
615.006
629.769
643.72
656.789
668.91
680.021
690.065
698.989
706.746
713.295
718.601
722.634
725.373
726.804
726.918
521.052
538.368
555.255
571.637
587.439
602.587
617.009
630.633
643.392
655.223
666.064
675.859
684.558
692.114
698.487
703.643
707.554
710.199
711.563
711.639
509.061
525.933
542.386
558.343
573.733
588.482
602.521
615.781
628.196
639.703
650.244
659.764
668.213
675.547
681.727
686.719
690.496
693.039
694.333
694.37
495.69
512.075
528.049
543.539
558.476
572.788
586.408
599.268
611.306
622.46
632.673
641.892
650.07
657.163
663.134
667.949
671.584
674.018
675.239
675.238
)
;
    }
    coldSide
    {
        type            mixed;
        refValue        uniform 300;
        refGradient     uniform 0;
        valueFraction   uniform 0.991591;
        source          uniform 0;
        value           nonuniform List<scalar> 
400
(
300.026
300.027
300.027
300.028
300.029
300.03
300.03
300.031
300.031
300.032
300.033
300.033
300.033
300.034
300.035
300.035
300.035
300.035
300.035
300.035
300.027
300.027
300.027
300.028
300.029
300.03
300.031
300.031
300.032
300.033
300.033
300.034
300.034
300.035
300.035
300.036
300.036
300.036
300.036
300.036
300.027