/*--------------------------------*- C++ -*----------------------------------*\
| =========                 |                                                 |
| \\      /  F ield         | OpenFOAM: The Open Source CFD Toolbox           |
|  \\    /   O peration     | Version:  2212                                  |
|   \\  /    A nd           | Website:  www.openfoam.com                      |
|    \\/     M anipulation  |                                                 |
\*---------------------------------------------------------------------------*/
FoamFile
{
    version     2.0;
    format      ascii;
    arch        "LSB;label=32;scalar=64";
    class       volScalarField;
    location    "./ITHACAoutput/true/14.6";
    object      trueState;
}
// * * * * * * * * * * * * * * * * * * * * * * * * * * * * * * * * * * * * * //

dimensions      [0 0 0 1 0 0 0];

internalField   nonuniform List<scalar> 
3200
(
336.079
336.369
336.74
337.145
337.561
337.97
338.347
338.665
338.897
339.02
339.02
338.897
338.665
338.347
337.97
337.561
337.145
336.74
336.369
336.079
331.167
331.412
331.732
332.082
332.442
332.796
333.122
333.397
333.598
333.703
333.703
333.598
333.397
333.122
332.796
332.442
332.082
331.732
331.412
331.167
326.299
326.503
326.772
327.068
327.372
327.671
327.946
328.179
328.348
328.437
328.437
328.348
328.179
327.946
327.671
327.372
327.068
326.772
326.503
326.299
321.469
321.633
321.853
322.094
322.343
322.587
322.812
323.002
323.14
323.213
323.213
323.14
323.002
322.812
322.587
322.343
322.094
321.853
321.633
321.469
316.67
316.796
316.967
317.154
317.348
317.537
317.712
317.859
317.966
318.023
318.023
317.966
317.859
317.712
317.537
317.348
317.154
316.967
316.796
316.67
311.896
311.985
312.106
312.24
312.378
312.514
312.639
312.744
312.82
312.86
312.86
312.82
312.744
312.639
312.514
312.378
312.24
312.106
311.985
311.896
307.138
307.192
307.265
307.345
307.428
307.509
307.584
307.647
307.693
307.717
307.717
307.693
307.647
307.584
307.509
307.428
307.345
307.265
307.192
307.138
302.392
302.41
302.434
302.461
302.489
302.516
302.541
302.562
302.577
302.586
302.586
302.577
302.562
302.541
302.516
302.489
302.461
302.434
302.41
302.392
336.221
336.509
336.877
337.277
337.689
338.093
338.466
338.781
339.01
339.131
339.131
339.01
338.781
338.466
338.093
337.689
337.277
336.877
336.509
336.221
331.289
331.533
331.85
332.196
332.553
332.903
333.225
333.497
333.694
333.799
333.799
333.694
333.497
333.225
332.903
332.553
332.196
331.85
331.533
331.289
326.402
326.604
326.871
327.164
327.465
327.761
328.033
328.262
328.429
328.517
328.517
328.429
328.262
328.033
327.761
327.465
327.164
326.871
326.604
326.402
321.553
321.716
321.934
322.173
322.419
322.661
322.883
323.07
323.206
323.278
323.278
323.206
323.07
322.883
322.661
322.419
322.173
321.934
321.716
321.553
316.735
316.86
317.029
317.215
317.407
317.594
317.767
317.912
318.018
318.074
318.074
318.018
317.912
317.767
317.594
317.407
317.215
317.029
316.86
316.735
311.942
312.03
312.151
312.284
312.42
312.554
312.678
312.781
312.857
312.897
312.897
312.857
312.781
312.678
312.554
312.42
312.284
312.151
312.03
311.942
307.166
307.219
307.291
307.371
307.453
307.534
307.608
307.67
307.715
307.739
307.739
307.715
307.67
307.608
307.534
307.453
307.371
307.291
307.219
307.166
302.401
302.419
302.443
302.47
302.497
302.524
302.549
302.57
302.585
302.593
302.593
302.585
302.57
302.549
302.524
302.497
302.47
302.443
302.419
302.401
336.504
336.788
337.149
337.543
337.946
338.342
338.706
339.013
339.236
339.354
339.354
339.236
339.013
338.706
338.342
337.946
337.543
337.149
336.788
336.504
331.533
331.773
332.085
332.425
332.775
333.117
333.432
333.697
333.89
333.991
333.991
333.89
333.697
333.432
333.117
332.775
332.425
332.085
331.773
331.533
326.608
326.807
327.07
327.357
327.652
327.941
328.207
328.431
328.594
328.679
328.679
328.594
328.431
328.207
327.941
327.652
327.357
327.07
326.807
326.608
321.721
321.881
322.095
322.33
322.571
322.808
323.025
323.208
323.34
323.41
323.41
323.34
323.208
323.025
322.808
322.571
322.33
322.095
321.881
321.721
316.865
316.988
317.155
317.337
317.525
317.708
317.877
318.019
318.122
318.176
318.176
318.122
318.019
317.877
317.708
317.525
317.337
317.155
316.988
316.865
312.035
312.122
312.24
312.371
312.505
312.636
312.756
312.858
312.931
312.97
312.97
312.931
312.858
312.756
312.636
312.505
312.371
312.24
312.122
312.035
307.222
307.274
307.345
307.423
307.504
307.582
307.655
307.715
307.76
307.783
307.783
307.76
307.715
307.655
307.582
307.504
307.423
307.345
307.274
307.222
302.42
302.437
302.461
302.487
302.514
302.54
302.565
302.585
302.6
302.608
302.608
302.6
302.585
302.565
302.54
302.514
302.487
302.461
302.437
302.42
336.931
337.208
337.56
337.942
338.334
338.717
339.069
339.365
339.579
339.693
339.693
339.579
339.365
339.069
338.717
338.334
337.942
337.56
337.208
336.931
331.901
332.135
332.439
332.77
333.109
333.44
333.745
334
334.186
334.284
334.284
334.186
334
333.745
333.44
333.109
332.77
332.439
332.135
331.901
326.917
327.112
327.368
327.647
327.934
328.214
328.471
328.687
328.843
328.926
328.926
328.843
328.687
328.471
328.214
327.934
327.647
327.368
327.112
326.917
321.973
322.13
322.338
322.567
322.801
323.03
323.24
323.416
323.544
323.611
323.611
323.544
323.416
323.24
323.03
322.801
322.567
322.338
322.13
321.973
317.061
317.181
317.343
317.521
317.703
317.881
318.044
318.181
318.28
318.332
318.332
318.28
318.181
318.044
317.881
317.703
317.521
317.343
317.181
317.061
312.174
312.259
312.375
312.502
312.632
312.759
312.875
312.973
313.044
313.081
313.081
313.044
312.973
312.875
312.759
312.632
312.502
312.375
312.259
312.174
307.306
307.356
307.426
307.502
307.58
307.656
307.726
307.785
307.827
307.85
307.85
307.827
307.785
307.726
307.656
307.58
307.502
307.426
307.356
307.306
302.448
302.465
302.488
302.513
302.54
302.565
302.589
302.608
302.622
302.63
302.63
302.622
302.608
302.589
302.565
302.54
302.513
302.488
302.465
302.448
337.5
337.769
338.11
338.478
338.855
339.222
339.558
339.84
340.044
340.152
340.152
340.044
339.84
339.558
339.222
338.855
338.478
338.11
337.769
337.5
332.392
332.619
332.913
333.232
333.558
333.876
334.167
334.41
334.587
334.68
334.68
334.587
334.41
334.167
333.876
333.558
333.232
332.913
332.619
332.392
327.331
327.519
327.767
328.037
328.312
328.581
328.826
329.032
329.181
329.26
329.26
329.181
329.032
328.826
328.581
328.312
328.037
327.767
327.519
327.331
322.31
322.462
322.664
322.884
323.11
323.329
323.53
323.698
323.819
323.883
323.883
323.819
323.698
323.53
323.329
323.11
322.884
322.664
322.462
322.31
317.322
317.439
317.596
317.767
317.942
318.113
318.269
318.399
318.494
318.543
318.543
318.494
318.399
318.269
318.113
317.942
317.767
317.596
317.439
317.322
312.361
312.443
312.555
312.677
312.802
312.924
313.035
313.129
313.196
313.232
313.232
313.196
313.129
313.035
312.924
312.802
312.677
312.555
312.443
312.361
307.417
307.467
307.534
307.607
307.682
307.755
307.822
307.878
307.919
307.94
307.94
307.919
307.878
307.822
307.755
307.682
307.607
307.534
307.467
307.417
302.485
302.502
302.524
302.549
302.574
302.598
302.621
302.639
302.653
302.66
302.66
302.653
302.639
302.621
302.598
302.574
302.549
302.524
302.502
302.485
338.215
338.473
338.8
339.153
339.512
339.86
340.178
340.444
340.636
340.738
340.738
340.636
340.444
340.178
339.86
339.512
339.153
338.8
338.473
338.215
333.008
333.226
333.508
333.814
334.124
334.426
334.701
334.931
335.097
335.185
335.185
335.097
334.931
334.701
334.426
334.124
333.814
333.508
333.226
333.008
327.849
328.031
328.269
328.527
328.789
329.044
329.277
329.471
329.611
329.685
329.685
329.611
329.471
329.277
329.044
328.789
328.527
328.269
328.031
327.849
322.733
322.879
323.073
323.284
323.498
323.707
323.897
324.055
324.17
324.23
324.23
324.17
324.055
323.897
323.707
323.498
323.284
323.073
322.879
322.733
317.65
317.763
317.913
318.077
318.244
318.406
318.553
318.677
318.766
318.813
318.813
318.766
318.677
318.553
318.406
318.244
318.077
317.913
317.763
317.65
312.594
312.674
312.781
312.898
313.017
313.133
313.238
313.326
313.39
313.423
313.423
313.39
313.326
313.238
313.133
313.017
312.898
312.781
312.674
312.594
307.558
307.605
307.669
307.739
307.811
307.881
307.944
307.997
308.035
308.055
308.055
308.035
307.997
307.944
307.881
307.811
307.739
307.669
307.605
307.558
302.532
302.548
302.569
302.593
302.617
302.64
302.662
302.679
302.692
302.699
302.699
302.692
302.679
302.662
302.64
302.617
302.593
302.569
302.548
302.532
339.075
339.322
339.633
339.968
340.307
340.635
340.933
341.182
341.361
341.455
341.455
341.361
341.182
340.933
340.635
340.307
339.968
339.633
339.322
339.075
333.749
333.958
334.227
334.517
334.81
335.094
335.352
335.567
335.722
335.804
335.804
335.722
335.567
335.352
335.094
334.81
334.517
334.227
333.958
333.749
328.474
328.647
328.874
329.119
329.367
329.607
329.825
330.007
330.138
330.206
330.206
330.138
330.007
329.825
329.607
329.367
329.119
328.874
328.647
328.474
323.242
323.382
323.566
323.766
323.97
324.166
324.344
324.492
324.599
324.655
324.655
324.599
324.492
324.344
324.166
323.97
323.766
323.566
323.382
323.242
318.045
318.152
318.296
318.451
318.609
318.762
318.9
319.016
319.099
319.142
319.142
319.099
319.016
318.9
318.762
318.609
318.451
318.296
318.152
318.045
312.876
312.952
313.054
313.165
313.278
313.387
313.486
313.568
313.627
313.659
313.659
313.627
313.568
313.486
313.387
313.278
313.165
313.054
312.952
312.876
307.726
307.772
307.833
307.9
307.967
308.033
308.092
308.142
308.177
308.196
308.196
308.177
308.142
308.092
308.033
307.967
307.9
307.833
307.772
307.726
302.589
302.604
302.624
302.647
302.669
302.691
302.711
302.728
302.74
302.746
302.746
302.74
302.728
302.711
302.691
302.669
302.647
302.624
302.604
302.589
340.082
340.316
340.611
340.927
341.245
341.551
341.828
342.059
342.224
342.311
342.311
342.224
342.059
341.828
341.551
341.245
340.927
340.611
340.316
340.082
334.617
334.816
335.07
335.343
335.619
335.884
336.124
336.323
336.466
336.542
336.542
336.466
336.323
336.124
335.884
335.619
335.343
335.07
334.816
334.617
329.205
329.37
329.585
329.815
330.048
330.273
330.475
330.644
330.765
330.828
330.828
330.765
330.644
330.475
330.273
330.048
329.815
329.585
329.37
329.205
323.838
323.971
324.146
324.334
324.525
324.708
324.874
325.012
325.11
325.162
325.162
325.11
325.012
324.874
324.708
324.525
324.334
324.146
323.971
323.838
318.508
318.609
318.745
318.892
319.04
319.182
319.311
319.418
319.495
319.535
319.535
319.495
319.418
319.311
319.182
319.04
318.892
318.745
318.609
318.508
313.206
313.278
313.374
313.479
313.585
313.687
313.779
313.855
313.91
313.939
313.939
313.91
313.855
313.779
313.687
313.585
313.479
313.374
313.278
313.206
307.924
307.967
308.025
308.088
308.152
308.213
308.268
308.314
308.347
308.364
308.364
308.347
308.314
308.268
308.213
308.152
308.088
308.025
307.967
307.924
302.655
302.669
302.689
302.71
302.731
302.752
302.77
302.785
302.796
302.802
302.802
302.796
302.785
302.77
302.752
302.731
302.71
302.689
302.669
302.655
341.237
341.459
341.736
342.032
342.328
342.612
342.868
343.08
343.231
343.311
343.311
343.231
343.08
342.868
342.612
342.328
342.032
341.736
341.459
341.237
335.613
335.801
336.04
336.296
336.553
336.799
337.02
337.204
337.335
337.404
337.404
337.335
337.204
337.02
336.799
336.553
336.296
336.04
335.801
335.613
330.044
330.2
330.402
330.618
330.835
331.043
331.231
331.385
331.496
331.554
331.554
331.496
331.385
331.231
331.043
330.835
330.618
330.402
330.2
330.044
324.522
324.647
324.812
324.989
325.166
325.336
325.49
325.616
325.707
325.754
325.754
325.707
325.616
325.49
325.336
325.166
324.989
324.812
324.647
324.522
319.038
319.134
319.262
319.399
319.538
319.67
319.789
319.887
319.958
319.995
319.995
319.958
319.887
319.789
319.67
319.538
319.399
319.262
319.134
319.038
313.584
313.652
313.743
313.841
313.94
314.034
314.119
314.19
314.24
314.266
314.266
314.24
314.19
314.119
314.034
313.94
313.841
313.743
313.652
313.584
308.151
308.192
308.246
308.305
308.364
308.421
308.472
308.514
308.545
308.56
308.56
308.545
308.514
308.472
308.421
308.364
308.305
308.246
308.192
308.151
302.731
302.744
302.763
302.782
302.802
302.821
302.838
302.853
302.863
302.868
302.868
302.863
302.853
302.838
302.821
302.802
302.782
302.763
302.744
302.731
342.542
342.751
343.01
343.285
343.56
343.822
344.056
344.249
344.388
344.46
344.46
344.388
344.249
344.056
343.822
343.56
343.285
343.01
342.751
342.542
336.739
336.915
337.139
337.377
337.615
337.842
338.045
338.212
338.332
338.394
338.394
338.332
338.212
338.045
337.842
337.615
337.377
337.139
336.915
336.739
330.992
331.139
331.328
331.529
331.73
331.922
332.094
332.235
332.336
332.389
332.389
332.336
332.235
332.094
331.922
331.73
331.529
331.328
331.139
330.992
325.295
325.413
325.567
325.731
325.896
326.053
326.193
326.309
326.392
326.435
326.435
326.392
326.309
326.193
326.053
325.896
325.731
325.567
325.413
325.295
319.638
319.728
319.847
319.975
320.103
320.225
320.335
320.425
320.489
320.522
320.522
320.489
320.425
320.335
320.225
320.103
319.975
319.847
319.728
319.638
314.011
314.075
314.16
314.252
314.343
314.43
314.508
314.573
314.619
314.643
314.643
314.619
314.573
314.508
314.43
314.343
314.252
314.16
314.075
314.011
308.407
308.445
308.497
308.551
308.606
308.659
308.706
308.744
308.772
308.786
308.786
308.772
308.744
308.706
308.659
308.606
308.551
308.497
308.445
308.407
302.817
302.829
302.847
302.865
302.883
302.901
302.917
302.93
302.939
302.944
302.944
302.939
302.93
302.917
302.901
302.883
302.865
302.847
302.829
302.817
343.999
344.193
344.435
344.69
344.943
345.183
345.397
345.572
345.697
345.762
345.762
345.697
345.572
345.397
345.183
344.943
344.69
344.435
344.193
343.999
337.994
338.159
338.368
338.588
338.808
339.015
339.201
339.353
339.461
339.517
339.517
339.461
339.353
339.201
339.015
338.808
338.588
338.368
338.159
337.994
332.05
332.187
332.363
332.549
332.735
332.91
333.067
333.196
333.287
333.335
333.335
333.287
333.196
333.067
332.91
332.735
332.549
332.363
332.187
332.05
326.157
326.267
326.411
326.563
326.715
326.859
326.987
327.092
327.167
327.206
327.206
327.167
327.092
326.987
326.859
326.715
326.563
326.411
326.267
326.157
320.306
320.391
320.502
320.621
320.739
320.85
320.95
321.032
321.09
321.121
321.121
321.09
321.032
320.95
320.85
320.739
320.621
320.502
320.391
320.306
314.488
314.548
314.627
314.712
314.796
314.876
314.947
315.006
315.047
315.069
315.069
315.047
315.006
314.947
314.876
314.796
314.712
314.627
314.548
314.488
308.693
308.729
308.777
308.827
308.878
308.926
308.969
309.004
309.029
309.042
309.042
309.029
309.004
308.969
308.926
308.878
308.827
308.777
308.729
308.693
302.913
302.924
302.94
302.957
302.974
302.99
303.005
303.017
303.025
303.029
303.029
303.025
303.017
303.005
302.99
302.974
302.957
302.94
302.924
302.913
345.607
345.788
346.013
346.247
346.479
346.698
346.892
347.051
347.164
347.222
347.222
347.164
347.051
346.892
346.698
346.479
346.247
346.013
345.788
345.607
339.381
339.535
339.728
339.931
340.132
340.322
340.49
340.628
340.725
340.776
340.776
340.725
340.628
340.49
340.322
340.132
339.931
339.728
339.535
339.381
333.219
333.346
333.509
333.681
333.851
334.011
334.154
334.27
334.353
334.395
334.395
334.353
334.27
334.154
334.011
333.851
333.681
333.509
333.346
333.219
327.11
327.212
327.345
327.486
327.625
327.756
327.873
327.968
328.035
328.07
328.07
328.035
327.968
327.873
327.756
327.625
327.486
327.345
327.212
327.11
321.045
321.124
321.227
321.336
321.445
321.547
321.637
321.711
321.764
321.791
321.791
321.764
321.711
321.637
321.547
321.445
321.336
321.227
321.124
321.045
315.015
315.071
315.144
315.222
315.3
315.372
315.437
315.49
315.528
315.547
315.547
315.528
315.49
315.437
315.372
315.3
315.222
315.144
315.071
315.015
309.009
309.042
309.087
309.133
309.18
309.224
309.263
309.294
309.317
309.329
309.329
309.317
309.294
309.263
309.224
309.18
309.133
309.087
309.042
309.009
303.018
303.029
303.044
303.06
303.076
303.09
303.103
303.114
303.121
303.125
303.125
303.121
303.114
303.103
303.09
303.076
303.06
303.044
303.029
303.018
347.368
347.536
347.743
347.959
348.171
348.37
348.545
348.688
348.789
348.842
348.842
348.789
348.688
348.545
348.37
348.171
347.959
347.743
347.536
347.368
340.899
341.042
341.22
341.407
341.591
341.763
341.916
342.039
342.127
342.172
342.172
342.127
342.039
341.916
341.763
341.591
341.407
341.22
341.042
340.899
334.498
334.616
334.766
334.924
335.08
335.226
335.354
335.459
335.533
335.572
335.572
335.533
335.459
335.354
335.226
335.08
334.924
334.766
334.616
334.498
328.153
328.248
328.37
328.5
328.627
328.746
328.852
328.937
328.998
329.029
329.029
328.998
328.937
328.852
328.746
328.627
328.5
328.37
328.248
328.153
321.854
321.927
322.022
322.123
322.222
322.314
322.396
322.463
322.51
322.535
322.535
322.51
322.463
322.396
322.314
322.222
322.123
322.022
321.927
321.854
315.592
315.643
315.711
315.783
315.854
315.92
315.979
316.026
316.06
316.077
316.077
316.06
316.026
315.979
315.92
315.854
315.783
315.711
315.643
315.592
309.355
309.386
309.427
309.47
309.512
309.552
309.587
309.616
309.636
309.647
309.647
309.636
309.616
309.587
309.552
309.512
309.47
309.427
309.386
309.355
303.134
303.144
303.158
303.173
303.187
303.2
303.212
303.222
303.228
303.232
303.232
303.228
303.222
303.212
303.2
303.187
303.173
303.158
303.144
303.134
349.281
349.437
349.628
349.825
350.018
350.198
350.356
350.485
350.575
350.622
350.622
350.575
350.485
350.356
350.198
350.018
349.825
349.628
349.437
349.281
342.549
342.681
342.845
343.016
343.184
343.34
343.477
343.588
343.667
343.707
343.707
343.667
343.588
343.477
343.34
343.184
343.016
342.845
342.681
342.549
335.887
335.997
336.135
336.28
336.421
336.553
336.67
336.764
336.83
336.865
336.865
336.83
336.764
336.67
336.553
336.421
336.28
336.135
335.997
335.887
329.285
329.373
329.486
329.605
329.721
329.829
329.924
330.001
330.055
330.083
330.083
330.055
330.001
329.924
329.829
329.721
329.605
329.486
329.373
329.285
322.733
322.8
322.888
322.98
323.07
323.154
323.228
323.288
323.33
323.352
323.352
323.33
323.288
323.228
323.154
323.07
322.98
322.888
322.8
322.733
316.218
316.266
316.328
316.394
316.458
316.519
316.571
316.614
316.644
316.66
316.66
316.644
316.614
316.571
316.519
316.458
316.394
316.328
316.266
316.218
309.731
309.759
309.797
309.836
309.875
309.911
309.943
309.969
309.987
309.996
309.996
309.987
309.969
309.943
309.911
309.875
309.836
309.797
309.759
309.731
303.26
303.27
303.282
303.295
303.308
303.32
303.331
303.34
303.346
303.349
303.349
303.346
303.34
303.331
303.32
303.308
303.295
303.282
303.27
303.26
351.345
351.488
351.663
351.843
352.019
352.181
352.324
352.439
352.52
352.561
352.561
352.52
352.439
352.324
352.181
352.019
351.843
351.663
351.488
351.345
344.327
344.449
344.6
344.756
344.908
345.049
345.173
345.272
345.342
345.379
345.379
345.342
345.272
345.173
345.049
344.908
344.756
344.6
344.449
344.327
337.385
337.486
337.613
337.745
337.874
337.993
338.098
338.182
338.241
338.272
338.272
338.241
338.182
338.098
337.993
337.874
337.745
337.613
337.486
337.385
330.506
330.587
330.691
330.799
330.904
331.002
331.088
331.157
331.205
331.23
331.23
331.205
331.157
331.088
331.002
330.904
330.799
330.691
330.587
330.506
323.679
323.741
323.822
323.906
323.988
324.064
324.13
324.184
324.222
324.241
324.241
324.222
324.184
324.13
324.064
323.988
323.906
323.822
323.741
323.679
316.893
316.937
316.994
317.054
317.113
317.167
317.215
317.253
317.28
317.294
317.294
317.28
317.253
317.215
317.167
317.113
317.054
316.994
316.937
316.893
310.135
310.162
310.196
310.232
310.267
310.3
310.329
310.352
310.368
310.376
310.376
310.368
310.352
310.329
310.3
310.267
310.232
310.196
310.162
310.135
303.396
303.404
303.416
303.428
303.44
303.451
303.46
303.468
303.473
303.476
303.476
303.473
303.468
303.46
303.451
303.44
303.428
303.416
303.404
303.396
353.549
353.682
353.842
354.006
354.165
354.312
354.44
354.543
354.615
354.652
354.652
354.615
354.543
354.44
354.312
354.165
354.006
353.842
353.682
353.549
346.226
346.338
346.477
346.619
346.757
346.884
346.995
347.084
347.147
347.179
347.179
347.147
347.084
346.995
346.884
346.757
346.619
346.477
346.338
346.226
338.983
339.076
339.193
339.313
339.43
339.538
339.632
339.707
339.76
339.787
339.787
339.76
339.707
339.632
339.538
339.43
339.313
339.193
339.076
338.983
331.808
331.882
331.978
332.076
332.172
332.26
332.337
332.399
332.442
332.464
332.464
332.442
332.399
332.337
332.26
332.172
332.076
331.978
331.882
331.808
324.688
324.745
324.819
324.896
324.97
325.039
325.099
325.147
325.181
325.198
325.198
325.181
325.147
325.099
325.039
324.97
324.896
324.819
324.745
324.688
317.612
317.652
317.705
317.76
317.813
317.862
317.905
317.939
317.963
317.976
317.976
317.963
317.939
317.905
317.862
317.813
317.76
317.705
317.652
317.612
310.567
310.591
310.622
310.655
310.687
310.717
310.742
310.763
310.777
310.785
310.785
310.777
310.763
310.742
310.717
310.687
310.655
310.622
310.591
310.567
303.54
303.548
303.559
303.57
303.58
303.59
303.599
303.606
303.611
303.613
303.613
303.611
303.606
303.599
303.59
303.58
303.57
303.559
303.548
303.54
355.874
355.995
356.142
356.292
356.436
356.568
356.683
356.775
356.84
356.873
356.873
356.84
356.775
356.683
356.568
356.436
356.292
356.142
355.995
355.874
348.225
348.328
348.454
348.584
348.709
348.824
348.924
349.004
349.059
349.088
349.088
349.059
349.004
348.924
348.824
348.709
348.584
348.454
348.328
348.225
340.663
340.748
340.855
340.964
341.07
341.168
341.252
341.32
341.367
341.391
341.391
341.367
341.32
341.252
341.168
341.07
340.964
340.855
340.748
340.663
333.174
333.242
333.329
333.419
333.506
333.586
333.655
333.71
333.749
333.769
333.769
333.749
333.71
333.655
333.586
333.506
333.419
333.329
333.242
333.174
325.746
325.798
325.866
325.936
326.003
326.065
326.119
326.162
326.192
326.208
326.208
326.192
326.162
326.119
326.065
326.003
325.936
325.866
325.798
325.746
318.365
318.402
318.45
318.5
318.548
318.593
318.631
318.662
318.683
318.695
318.695
318.683
318.662
318.631
318.593
318.548
318.5
318.45
318.402
318.365
311.018
311.04
311.069
311.099
311.128
311.154
311.177
311.196
311.209
311.216
311.216
311.209
311.196
311.177
311.154
311.128
311.099
311.069
311.04
311.018
303.691
303.698
303.708
303.718
303.728
303.737
303.745
303.751
303.755
303.757
303.757
303.755
303.751
303.745
303.737
303.728
303.718
303.708
303.698
303.691
358.26
358.372
358.506
358.643
358.774
358.893
358.997
359.08
359.137
359.167
359.167
359.137
359.08
358.997
358.893
358.774
358.643
358.506
358.372
358.26
350.268
350.362
350.478
350.597
350.71
350.814
350.904
350.976
351.026
351.052
351.052
351.026
350.976
350.904
350.814
350.71
350.597
350.478
350.362
350.268
342.372
342.45
342.548
342.649
342.745
342.833
342.909
342.97
343.012
343.034
343.034
343.012
342.97
342.909
342.833
342.745
342.649
342.548
342.45
342.372
334.559
334.623
334.702
334.785
334.863
334.936
334.998
335.048
335.082
335.1
335.1
335.082
335.048
334.998
334.936
334.863
334.785
334.702
334.623
334.559
326.815
326.864
326.926
326.99
327.051
327.107
327.156
327.194
327.222
327.235
327.235
327.222
327.194
327.156
327.107
327.051
326.99
326.926
326.864
326.815
319.124
319.159
319.203
319.249
319.293
319.333
319.367
319.395
319.415
319.425
319.425
319.415
319.395
319.367
319.333
319.293
319.249
319.203
319.159
319.124
311.472
311.493
311.519
311.547
311.573
311.597
311.618
311.635
311.646
311.652
311.652
311.646
311.635
311.618
311.597
311.573
311.547
311.519
311.493
311.472
303.843
303.85
303.859
303.868
303.877
303.885
303.892
303.897
303.901
303.903
303.903
303.901
303.897
303.892
303.885
303.877
303.868
303.859
303.85
303.843
360.559
360.663
360.787
360.912
361.032
361.141
361.235
361.31
361.362
361.389
361.389
361.362
361.31
361.235
361.141
361.032
360.912
360.787
360.663
360.559
352.212
352.3
352.407
352.516
352.62
352.715
352.796
352.861
352.907
352.93
352.93
352.907
352.861
352.796
352.715
352.62
352.516
352.407
352.3
352.212
343.982
344.055
344.145
344.237
344.326
344.406
344.476
344.531
344.569
344.589
344.589
344.569
344.531
344.476
344.406
344.326
344.237
344.145
344.055
343.982
335.852
335.911
335.985
336.06
336.133
336.199
336.256
336.301
336.332
336.349
336.349
336.332
336.301
336.256
336.199
336.133
336.06
335.985
335.911
335.852
327.806
327.851
327.908
327.967
328.023
328.075
328.119
328.154
328.179
328.192
328.192
328.179
328.154
328.119
328.075
328.023
327.967
327.908
327.851
327.806
319.824
319.856
319.897
319.939
319.979
320.016
320.048
320.073
320.091
320.1
320.1
320.091
320.073
320.048
320.016
319.979
319.939
319.897
319.856
319.824
311.889
311.908
311.933
311.958
311.982
312.004
312.024
312.039
312.049
312.055
312.055
312.049
312.039
312.024
312.004
311.982
311.958
311.933
311.908
311.889
303.982
303.989
303.997
304.005
304.013
304.021
304.027
304.032
304.036
304.038
304.038
304.036
304.032
304.027
304.021
304.013
304.005
303.997
303.989
303.982
362.371
362.468
362.584
362.702
362.814
362.916
363.003
363.073
363.121
363.146
363.146
363.121
363.073
363.003
362.916
362.814
362.702
362.584
362.468
362.371
353.685
353.768
353.869
353.972
354.069
354.158
354.234
354.295
354.337
354.359
354.359
354.337
354.295
354.234
354.158
354.069
353.972
353.869
353.768
353.685
345.164
345.233
345.318
345.405
345.488
345.564
345.629
345.68
345.716
345.735
345.735
345.716
345.68
345.629
345.564
345.488
345.405
345.318
345.233
345.164
336.778
336.834
336.904
336.975
337.043
337.105
337.159
337.201
337.231
337.246
337.246
337.231
337.201
337.159
337.105
337.043
336.975
336.904
336.834
336.778
328.502
328.544
328.599
328.654
328.708
328.756
328.798
328.831
328.854
328.866
328.866
328.854
328.831
328.798
328.756
328.708
328.654
328.599
328.544
328.502
320.309
320.339
320.378
320.418
320.456
320.491
320.521
320.544
320.561
320.569
320.569
320.561
320.544
320.521
320.491
320.456
320.418
320.378
320.339
320.309
312.175
312.193
312.217
312.241
312.264
312.285
312.303
312.317
312.327
312.332
312.332
312.327
312.317
312.303
312.285
312.264
312.241
312.217
312.193
312.175
304.077
304.083
304.091
304.099
304.107
304.114
304.12
304.125
304.128
304.13
304.13
304.128
304.125
304.12
304.114
304.107
304.099
304.091
304.083
304.077
)
;

boundaryField
{
    hotSide
    {
        type            fixedGradient;
        gradient        nonuniform List<scalar> 
400
(
397.083
398.674
401.86
406.646
413.041
421.057
430.704
441.997
454.949
469.575
485.889
503.902
523.626
545.073
568.25
593.167
619.829
648.242
678.41
710.337
400.906
402.467
405.593
410.293
416.577
424.461
433.96
445.092
457.874
472.325
488.462
506.3
525.853
547.133
570.152
594.918
621.439
649.719
679.764
711.577
405.043
406.568
409.624
414.221
420.374
428.103
437.428
448.373
460.959
475.21
491.146
508.787
528.148
549.246
572.091
596.693
623.061
651.2
681.114
712.807
409.426
410.909
413.882
418.36
424.362
431.913
441.041
451.773
464.14
478.168
493.882
511.307
530.461
551.361
574.02
598.45
624.658
652.649
682.429
713.999
413.933
415.368
418.249
422.594
428.427
435.781
444.691
455.192
467.32
481.108
496.586
513.783
532.719
553.414
575.883
600.136
626.182
654.026
683.672
715.12
418.375
419.76
422.542
426.744
432.399
439.546
448.227
458.487
470.368
483.91
499.15
516.116
534.836
555.328
577.61
601.691
627.581
655.283
684.801
716.134
422.497
423.832
426.515
430.576
436.055
442.997
451.455
461.481
473.124
486.432
501.443
518.193
536.71
557.014
579.123
603.048
628.795
656.37
685.773
717.004
425.997
427.285
429.88
433.815
439.135
445.895
454.155
463.975
475.41
488.513
503.328
519.893
538.237
558.382
580.346
604.139
629.768
657.238
686.547
717.694
428.557
429.811
432.338
436.176
441.375
447.998
456.109
465.773
477.053
490.004
504.674
521.102
539.319
559.348
581.206
604.905
630.45
657.843
687.085
718.174
429.914
431.149
433.639
437.424
442.558
449.106
457.136
466.717
477.914
490.783
505.375
521.73
539.88
559.848
581.652
605.3
630.801
658.155
687.362
718.419
429.914
431.149
433.639
437.424
442.558
449.106
457.136
466.717
477.914
490.783
505.375
521.73
539.88
559.848
581.652
605.3
630.801
658.155
687.362
718.419
428.557
429.811
432.338
436.176
441.375
447.998
456.109
465.773
477.053
490.004
504.674
521.102
539.319
559.348
581.206
604.905
630.45
657.843
687.085
718.174
425.997
427.285
429.88
433.815
439.135
445.895
454.155
463.975
475.41
488.513
503.328
519.893
538.237
558.382
580.346
604.139
629.768
657.238
686.547
717.694
422.497
423.832
426.515
430.576
436.055
442.997
451.455
461.481
473.124
486.432
501.443
518.193
536.71
557.014
579.123
603.048
628.795
656.37
685.773
717.004
418.375
419.76
422.542
426.744
432.399
439.546
448.227
458.487
470.368
483.91
499.15
516.116
534.836
555.328
577.61
601.691
627.581
655.283
684.801
716.134
413.933
415.368
418.249
422.594
428.427
435.781
444.691
455.192
467.32
481.108
496.586
513.783
532.719
553.414
575.883
600.136
626.182
654.026
683.672
715.12
409.426
410.909
413.882
418.36
424.362
431.913
441.041
451.773
464.14
478.168
493.882
511.307
530.461
551.361
574.02
598.45
624.658
652.649
682.429
713.999
405.043
406.568
409.624
414.221
420.374
428.103
437.428
448.373
460.959
475.21
491.146
508.787
528.148
549.246
572.091
596.693
623.061
651.2
681.114
712.807
400.906
402.467
405.593
410.293
416.577
424.461
433.96
445.092
457.874
472.325
488.462
506.3
525.853
547.133
570.152
594.918
621.439
649.719
679.764
711.577
397.083
398.674
401.86
406.646
413.041
421.057
430.704
441.997
454.949
469.575
485.889
503.902
523.626
545.073
568.25
593.167
619.829
648.242
678.41
710.337
)
;
    }
    coldSide
    {
        type            mixed;
        refValue        uniform 300;
        refGradient     uniform 0;
        valueFraction   uniform 0.991591;
        source          uniform 0;
        value           nonuniform List<scalar> 
400
(
300.02
300.02
300.02
300.021
300.021
300.021
300.022
300.022
300.023
300.024
300.024
300.025
300.026
300.027
300.029
300.03
300.031
300.032
300.033
300.034
300.02
300.02
300.02
300.021
300.021
300.021
300.022
300.022
300.023
300.024
300.025
300.025
300.026
300.027
300.029
300.03
300.031
300.032
300.034
300.034