/*--------------------------------*- C++ -*----------------------------------*\
| =========                 |                                                 |
| \\      /  F ield         | OpenFOAM: The Open Source CFD Toolbox           |
|  \\    /   O peration     | Version:  2212                                  |
|   \\  /    A nd           | Website:  www.openfoam.com                      |
|    \\/     M anipulation  |                                                 |
\*---------------------------------------------------------------------------*/
FoamFile
{
    version     2.0;
    format      ascii;
    arch        "LSB;label=32;scalar=64";
    class       volScalarField;
    location    "0";
    object      T;
}
// * * * * * * * * * * * * * * * * * * * * * * * * * * * * * * * * * * * * * //

dimensions      [0 0 0 1 0 0 0];

internalField   nonuniform List<scalar> 
3200
(
346.107
347.169
348.122
348.979
350.045
350.327
351.331
351.679
351.873
351.88
351.846
351.603
351.365
350.665
350.037
349.115
348.283
347.135
346.123
345.198
339.906
340.758
341.565
342.331
343.239
343.462
344.367
344.661
344.767
344.821
344.776
344.56
344.413
343.762
343.18
342.351
341.683
340.708
339.869
339.08
333.732
334.425
335.04
335.752
336.506
336.681
337.463
337.677
337.754
337.849
337.788
337.592
337.511
336.942
336.421
335.739
335.113
334.373
333.663
332.977
327.57
328.112
328.592
329.174
329.783
329.961
330.583
330.757
330.812
330.907
330.86
330.687
330.641
330.194
329.739
329.191
328.638
328.11
327.517
326.895
321.421
321.806
322.222
322.692
323.136
323.266
323.757
323.906
323.912
323.943
324.009
323.819
323.768
323.488
323.103
322.709
322.245
321.847
321.395
320.856
315.286
315.533
315.864
316.255
316.522
316.605
316.95
317.063
317.03
317.073
317.15
316.988
316.937
316.783
316.477
316.234
315.895
315.619
315.279
314.882
309.168
309.323
309.532
309.763
309.946
309.993
310.149
310.242
310.175
310.237
310.331
310.2
310.161
310.062
309.893
309.734
309.575
309.381
309.158
308.934
303.062
303.126
303.189
303.272
303.349
303.364
303.381
303.447
303.412
303.434
303.448
303.428
303.402
303.379
303.314
303.259
303.198
303.143
303.066
302.983
346.941
348.104
349.121
350.086
351.267
351.486
352.244
352.737
353.002
352.72
352.656
352.689
352.309
351.758
351.177
350.154
349.342
348.296
347.098
345.794
340.576
341.498
342.378
343.232
344.286
344.431
345.092
345.495
345.723
345.507
345.405
345.453
345.161
344.685
344.142
343.295
342.582
341.63
340.651
339.504
334.241
335.015
335.751
336.423
337.35
337.479
338.006
338.333
338.533
338.38
338.323
338.317
338.089
337.662
337.234
336.508
335.901
335.061
334.284
333.323
327.974
328.606
329.16
329.749
330.486
330.652
330.963
331.266
331.448
331.293
331.316
331.254
331.054
330.737
330.344
329.748
329.314
328.618
328.009
327.205
321.727
322.23
322.623
323.121
323.705
323.795
324.017
324.262
324.365
324.291
324.331
324.256
324.082
323.915
323.551
323.132
322.756
322.215
321.74
321.117
315.497
315.866
316.13
316.482
316.948
316.995
317.131
317.3
317.339
317.332
317.355
317.343
317.191
317.137
316.803
316.5
316.215
315.869
315.496
315.061
309.318
309.535
309.689
309.891
310.177
310.185
310.268
310.378
310.372
310.393
310.425
310.406
310.322
310.318
310.076
309.88
309.72
309.517
309.294
309.008
303.135
303.197
303.246
303.329
303.424
303.397
303.414
303.463
303.471
303.481
303.492
303.481
303.46
303.453
303.355
303.312
303.242
303.194
303.13
303.013
348.117
348.981
350.428
351.393
352.425
353.004
353.479
354.061
354.204
354.083
354.14
353.964
353.621
353.013
352.306
351.525
350.501
349.337
348.135
346.959
341.506
342.27
343.492
344.335
345.275
345.69
346.124
346.637
346.727
346.601
346.686
346.535
346.251
345.726
345.111
344.494
343.567
342.576
341.578
340.532
335.018
335.605
336.653
337.338
338.181
338.513
338.898
339.309
339.334
339.231
339.345
339.231
338.96
338.555
338.033
337.52
336.714
335.897
335.07
334.232
328.601
329.085
329.901
330.448
331.17
331.398
331.766
332.072
332.044
331.964
332.099
331.983
331.788
331.443
331.053
330.613
329.931
329.275
328.609
327.961
322.184
322.573
323.226
323.6
324.222
324.389
324.699
324.84
324.861
324.817
324.959
324.818
324.671
324.399
324.134
323.756
323.253
322.733
322.194
321.684
315.822
316.115
316.575
316.792
317.319
317.379
317.643
317.703
317.738
317.693
317.806
317.699
317.587
317.389
317.261
316.923
316.543
316.164
315.837
315.442
309.504
309.673
309.958
310.055
310.404
310.402
310.603
310.642
310.632
310.639
310.708
310.603
310.549
310.467
310.374
310.147
309.9
309.712
309.485
309.269
303.184
303.241
303.346
303.359
303.483
303.466
303.524
303.587
303.559
303.554
303.593
303.558
303.541
303.499
303.46
303.409
303.29
303.256
303.178
303.121
349.251
350.322
351.838
352.702
353.538
354.1
354.921
355.43
355.658
355.499
355.565
355.256
354.88
354.404
353.355
352.624
351.559
350.639
349.431
348.404
342.55
343.449
344.703
345.492
346.192
346.663
347.358
347.792
347.994
347.853
347.876
347.63
347.314
346.935
345.973
345.359
344.424
343.684
342.645
341.809
335.885
336.653
337.676
338.35
338.914
339.325
339.916
340.241
340.438
340.314
340.295
340.085
339.856
339.617
338.755
338.254
337.433
336.857
335.919
335.315
329.263
329.883
330.72
331.31
331.74
332.076
332.583
332.803
332.942
332.882
332.857
332.659
332.484
332.324
331.615
331.21
330.561
330.079
329.25
328.836
322.698
323.162
323.873
324.326
324.596
324.89
325.321
325.444
325.509
325.475
325.489
325.326
325.191
325.083
324.505
324.268
323.752
323.371
322.699
322.391
316.158
316.489
317.008
317.358
317.526
317.739
318.039
318.14
318.145
318.179
318.21
318.088
317.928
317.868
317.487
317.351
316.938
316.689
316.198
316.003
309.676
309.88
310.231
310.395
310.492
310.646
310.811
310.869
310.866
310.911
310.931
310.861
310.761
310.7
310.48
310.42
310.147
310.022
309.712
309.627
303.231
303.314
303.431
303.475
303.515
303.58
303.624
303.639
303.635
303.656
303.625
303.617
303.61
303.57
303.509
303.487
303.396
303.368
303.253
303.227
350.279
351.524
352.914
354.085
354.867
355.455
356.154
356.686
356.886
356.896
356.788
356.585
356.242
355.716
354.775
353.94
352.76
351.771
350.497
349.518
343.384
344.434
345.644
346.649
347.314
347.804
348.411
348.894
349.047
349.033
348.978
348.77
348.401
348.051
347.237
346.499
345.465
344.598
343.522
342.741
336.606
337.456
338.485
339.298
339.877
340.326
340.803
341.235
341.314
341.306
341.29
341.118
340.746
340.509
339.762
339.219
338.27
337.551
336.67
336.065
329.892
330.529
331.402
332.063
332.51
332.928
333.313
333.662
333.68
333.651
333.685
333.546
333.185
333.02
332.393
331.992
331.197
330.637
329.88
329.468
323.204
323.687
324.422
324.895
325.25
325.566
325.849
326.087
326.103
326.128
326.08
326.043
325.745
325.59
325.145
324.813
324.219
323.757
323.173
322.86
316.552
316.864
317.447
317.775
318.04
318.274
318.453
318.602
318.568
318.599
318.542
318.596
318.369
318.221
317.95
317.687
317.266
316.954
316.572
316.33
309.915
310.132
310.486
310.677
310.806
310.976
311.086
311.155
311.119
311.17
311.11
311.155
311.016
310.914
310.773
310.592
310.363
310.196
309.995
309.802
303.31
303.401
303.506
303.57
303.611
303.689
303.725
303.749
303.721
303.734
303.722
303.734
303.686
303.648
303.598
303.549
303.467
303.402
303.336
303.292
351.691
352.804
354.024
355.244
356.176
356.702
357.497
358.084
358.143
358.375
358.251
357.751
357.47
357.003
356.199
355.427
354.203
352.92
351.753
350.676
344.615
345.546
346.562
347.693
348.505
348.891
349.575
350.066
350.15
350.327
350.206
349.73
349.527
349.152
348.451
347.815
346.734
345.596
344.607
343.752
337.608
338.382
339.257
340.211
340.925
341.195
341.773
342.197
342.288
342.416
342.297
341.872
341.719
341.41
340.814
340.319
339.365
338.365
337.595
336.914
330.659
331.319
332.039
332.787
333.421
333.606
334.032
334.407
334.494
334.657
334.497
334.18
334.005
333.767
333.283
332.861
332.083
331.251
330.647
330.123
323.787
324.307
324.874
325.416
325.971
326.123
326.38
326.703
326.783
326.948
326.759
326.534
326.359
326.215
325.848
325.497
324.923
324.225
323.805
323.363
316.996
317.34
317.749
318.106
318.551
318.653
318.764
319.026
319.124
319.206
319.084
318.9
318.79
318.708
318.464
318.174
317.771
317.309
316.998
316.616
310.191
310.41
310.64
310.861
311.127
311.193
311.273
311.362
311.487
311.517
311.455
311.329
311.235
311.205
311.059
310.92
310.644
310.404
310.229
309.972
303.413
303.485
303.581
303.626
303.711
303.76
303.792
303.801
303.861
303.872
303.844
303.782
303.76
303.748
303.716
303.65
303.569
303.483
303.438
303.329
352.584
353.801
355.059
356.377
357.445
358
358.667
359.077
359.281
359.554
359.548
359.096
358.963
358.177
357.352
356.489
355.337
354.112
352.687
351.471
345.381
346.393
347.509
348.687
349.584
349.984
350.603
350.945
351.107
351.347
351.355
350.906
350.787
350.14
349.437
348.675
347.714
346.643
345.425
344.396
338.254
339.05
340.059
341.021
341.808
342.113
342.637
342.953
343.077
343.3
343.264
342.853
342.712
342.209
341.687
340.988
340.216
339.273
338.213
337.428
331.236
331.829
332.67
333.458
334.077
334.362
334.762
335.05
335.132
335.331
335.272
334.918
334.801
334.422
334.026
333.388
332.818
332.026
331.143
330.566
324.259
324.678
325.35
325.956
326.443
326.657
326.97
327.172
327.297
327.42
327.4
327.112
326.973
326.729
326.421
325.879
325.447
324.85
324.129
323.739
317.304
317.573
318.093
318.521
318.818
319.009
319.208
319.378
319.43
319.586
319.536
319.353
319.241
319.098
318.861
318.443
318.115
317.781
317.18
316.957
310.37
310.548
310.886
311.113
311.302
311.402
311.508
311.61
311.642
311.755
311.69
311.622
311.548
311.451
311.333
311.051
310.891
310.655
310.317
310.18
303.453
303.507
303.643
303.727
303.79
303.821
303.851
303.897
303.9
303.934
303.918
303.893
303.868
303.844
303.817
303.716
303.671
303.582
303.458
303.421
353.494
354.698
355.907
357.226
358.519
359.201
359.755
360.46
360.477
360.75
360.627
360.255
360.107
359.325
358.503
357.499
356.49
355.129
353.695
352.364
346.166
347.15
348.216
349.38
350.432
351.036
351.551
352.101
352.077
352.39
352.247
351.87
351.816
351.126
350.423
349.529
348.656
347.527
346.307
345.185
338.94
339.775
340.66
341.639
342.477
342.99
343.424
343.911
343.898
344.125
344.045
343.691
343.655
343.046
342.456
341.69
340.997
340.088
339.065
338.113
331.74
332.472
333.181
333.973
334.648
335.022
335.437
335.813
335.831
335.98
335.916
335.629
335.557
335.106
334.612
333.965
333.428
332.698
331.92
331.138
324.617
325.195
325.753
326.398
326.906
327.156
327.49
327.805
327.834
327.934
327.904
327.622
327.557
327.295
326.851
326.344
325.911
325.383
324.773
324.15
317.554
317.922
318.36
318.821
319.205
319.375
319.582
319.845
319.832
319.927
319.935
319.691
319.639
319.464
319.15
318.828
318.441
318.118
317.708
317.24
310.544
310.724
311.002
311.299
311.53
311.624
311.731
311.886
311.919
311.986
311.977
311.854
311.783
311.668
311.498
311.282
311.064
310.857
310.62
310.375
303.541
303.604
303.677
303.765
303.844
303.899
303.925
303.965
304.001
304.015
304.009
303.972
303.943
303.922
303.878
303.77
303.694
303.629
303.574
303.479
354.303
355.755
357.082
358.294
359.508
360.225
360.789
361.466
361.643
361.603
361.74
361.299
361.098
360.236
359.589
358.315
357.471
356.108
354.749
353.586
346.855
348.103
349.191
350.273
351.277
351.918
352.374
352.982
353.14
353.055
353.218
352.827
352.683
351.887
351.393
350.283
349.518
348.345
347.225
346.218
339.562
340.543
341.435
342.402
343.193
343.714
344.105
344.646
344.749
344.654
344.846
344.514
344.426
343.691
343.298
342.397
341.714
340.718
339.768
338.983
332.336
333.097
333.784
334.6
335.241
335.7
335.993
336.443
336.529
336.425
336.563
336.293
336.246
335.631
335.293
334.583
334.049
333.208
332.442
331.791
325.171
325.732
326.252
326.852
327.354
327.694
327.927
328.305
328.369
328.289
328.402
328.171
328.122
327.658
327.386
326.848
326.413
325.762
325.191
324.666
317.993
318.387
318.762
319.129
319.527
319.771
319.897
320.195
320.311
320.225
320.313
320.082
320.068
319.714
319.511
319.138
318.839
318.371
317.969
317.602
310.834
311.052
311.24
311.483
311.718
311.836
311.902
312.11
312.195
312.156
312.231
312.034
312.048
311.816
311.669
311.496
311.351
311.011
310.787
310.583
303.612
303.704
303.766
303.848
303.945
303.958
303.991
304.05
304.078
304.079
304.103
304.045
304.045
303.967
303.907
303.833
303.813
303.688
303.617
303.542
355.323
356.734
358.156
359.35
360.413
361.203
361.761
362.332
362.613
362.518
362.365
362.326
362.16
361.482
360.489
359.543
358.455
357.177
355.645
354.369
347.736
348.899
350.129
351.204
352.048
352.767
353.24
353.752
353.972
353.925
353.754
353.719
353.575
352.99
352.166
351.305
350.435
349.301
347.964
346.896
340.245
341.202
342.195
343.182
343.825
344.422
344.872
345.288
345.486
345.444
345.315
345.245
345.113
344.629
343.98
343.191
342.485
341.549
340.419
339.542
332.84
333.597
334.352
335.217
335.729
336.216
336.554
336.973
337.127
337.046
336.979
336.939
336.768
336.412
335.865
335.231
334.588
333.912
332.975
332.274
325.545
326.081
326.627
327.3
327.72
328.102
328.354
328.714
328.84
328.766
328.701
328.647
328.516
328.241
327.832
327.325
326.809
326.308
325.568
325.032
318.235
318.604
318.974
319.463
319.759
320.07
320.196
320.504
320.59
320.503
320.459
320.41
320.318
320.116
319.876
319.47
319.111
318.737
318.224
317.869
310.91
311.161
311.391
311.676
311.844
312.023
312.076
312.307
312.39
312.297
312.272
312.256
312.204
312.056
311.929
311.672
311.467
311.223
310.93
310.71
303.668
303.745
303.822
303.901
303.955
304.025
304.026
304.129
304.158
304.109
304.117
304.108
304.085
304.038
303.997
303.902
303.816
303.749
303.663
303.588
356.219
357.403
359.018
360.123
361.232
362.02
362.59
363.332
363.571
363.504
363.658
363.359
362.707
362.241
361.492
360.379
359.178
357.95
356.453
355.127
348.498
349.491
350.936
351.826
352.816
353.438
353.966
354.604
354.808
354.705
354.893
354.679
354.025
353.643
353.011
352.024
351.004
349.943
348.632
347.542
340.871
341.712
342.92
343.647
344.497
345.03
345.466
346.011
346.201
346.077
346.261
346.073
345.543
345.207
344.677
343.793
342.967
342.065
340.929
340.083
333.316
334.044
335.006
335.584
336.273
336.797
337.08
337.53
337.713
337.517
337.728
337.579
337.199
336.871
336.405
335.686
335.028
334.291
333.377
332.689
325.86
326.41
327.171
327.58
328.151
328.592
328.768
329.15
329.319
329.103
329.226
329.167
328.94
328.621
328.245
327.658
327.207
326.604
325.899
325.386
318.44
318.816
319.403
319.674
320.1
320.411
320.519
320.806
320.92
320.77
320.806
320.803
320.653
320.454
320.128
319.734
319.44
318.975
318.513
318.108
311.039
311.278
311.657
311.787
312.071
312.269
312.315
312.536
312.569
312.462
312.484
312.494
312.417
312.314
312.054
311.863
311.719
311.378
311.161
310.882
303.705
303.795
303.902
303.955
304.052
304.119
304.123
304.229
304.216
304.181
304.175
304.181
304.171
304.126
304.034
303.975
303.916
303.806
303.756
303.644
357.022
358.103
359.572
360.679
362.165
362.861
363.437
364.258
364.38
364.411
364.536
364.322
363.645
362.99
362.235
361.141
360.155
358.588
357.17
355.883
349.192
350.091
351.342
352.313
353.635
354.178
354.697
355.42
355.425
355.514
355.633
355.462
354.842
354.299
353.614
352.65
351.8
350.509
349.233
348.173
341.463
342.223
343.279
344.024
345.184
345.637
346.111
346.679
346.626
346.745
346.83
346.726
346.171
345.745
345.124
344.305
343.597
342.551
341.488
340.557
333.785
334.441
335.323
335.857
336.825
337.227
337.627
338.034
337.987
338.116
338.144
338.087
337.65
337.265
336.752
336.086
335.492
334.697
333.846
333.049
326.23
326.72
327.398
327.796
328.55
328.907
329.24
329.479
329.46
329.556
329.57
329.54
329.234
328.915
328.502
327.966
327.498
326.918
326.242
325.628
318.726
319.062
319.543
319.807
320.368
320.634
320.851
321.038
321.008
321.087
321.052
321.108
320.847
320.626
320.317
319.942
319.567
319.181
318.709
318.228
311.234
311.466
311.685
311.836
312.22
312.387
312.491
312.652
312.597
312.63
312.595
312.655
312.47
312.417
312.189
311.973
311.763
311.511
311.227
310.928
303.762
303.849
303.914
303.976
304.08
304.142
304.161
304.242
304.216
304.225
304.232
304.232
304.143
304.156
304.073
304.021
303.942
303.844
303.753
303.649
357.749
358.891
360.156
361.226
362.76
363.534
364.246
364.974
365.048
365.023
365.114
365.11
364.373
363.61
362.733
361.665
360.546
359.211
357.811
356.324
349.832
350.765
351.853
352.758
354.108
354.829
355.383
356.024
356.087
356.036
356.09
356.171
355.421
354.86
354.089
353.098
352.163
351.022
349.791
348.594
342.042
342.781
343.674
344.439
345.599
346.277
346.659
347.158
347.247
347.184
347.265
347.374
346.629
346.255
345.597
344.716
343.938
342.946
341.894
340.985
334.336
334.912
335.601
336.201
337.158
337.8
338.094
338.455
338.509
338.456
338.558
338.646
338.014
337.713
337.182
336.442
335.812
334.994
334.095
333.43
326.676
327.072
327.603
328.037
328.788
329.364
329.611
329.825
329.831
329.862
329.955
329.98
329.475
329.255
328.848
328.279
327.795
327.14
326.42
325.928
319.061
319.312
319.687
319.953
320.48
320.942
321.145
321.295
321.264
321.321
321.394
321.41
320.994
320.865
320.543
320.144
319.802
319.35
318.845
318.522
311.426
311.571
311.805
311.925
312.268
312.517
312.674
312.79
312.723
312.8
312.856
312.849
312.579
312.53
312.346
312.088
311.917
311.595
311.296
311.11
303.805
303.892
303.957
303.99
304.113
304.189
304.241
304.298
304.268
304.282
304.322
304.308
304.221
304.207
304.147
304.037
304.001
303.872
303.779
303.727
358.402
359.541
360.709
361.888
363.16
364.032
364.702
365.407
365.468
365.687
365.719
365.509
364.907
364.331
363.34
362.17
361.17
359.875
358.14
356.921
350.401
351.371
352.311
353.383
354.47
355.212
355.746
356.36
356.456
356.636
356.64
356.456
355.952
355.421
354.564
353.594
352.723
351.586
350.093
349.08
342.477
343.303
344.075
345.001
345.971
346.561
346.948
347.457
347.579
347.713
347.698
347.573
347.192
346.682
346
345.137
344.432
343.389
342.228
341.396
334.642
335.319
335.953
336.676
337.516
337.992
338.271
338.692
338.801
338.919
338.873
338.795
338.519
338.086
337.528
336.78
336.229
335.376
334.436
333.792
326.847
327.409
327.931
328.451
329.148
329.487
329.706
330.035
330.133
330.196
330.148
330.101
329.873
329.527
329.14
328.53
328.075
327.414
326.735
326.258
319.146
319.5
319.941
320.243
320.827
321.031
321.193
321.417
321.483
321.547
321.496
321.452
321.3
321.019
320.778
320.347
320.075
319.528
319.066
318.702
311.492
311.657
311.978
312.132
312.496
312.626
312.729
312.831
312.916
312.937
312.936
312.884
312.758
312.615
312.492
312.212
312.074
311.686
311.398
311.216
303.864
303.896
304.019
304.068
304.195
304.224
304.267
304.28
304.321
304.341
304.338
304.31
304.263
304.24
304.2
304.091
304.017
303.914
303.83
303.763
358.742
359.723
360.957
362.347
363.553
364.505
365.324
365.583
366.083
366.069
365.913
365.871
365.473
364.705
363.784
362.764
361.613
360.132
358.366
357.19
350.693
351.511
352.561
353.788
354.741
355.623
356.299
356.558
356.95
356.943
356.821
356.785
356.42
355.749
354.983
354.077
353.107
351.837
350.286
349.286
342.725
343.402
344.311
345.348
346.108
346.905
347.433
347.686
347.97
347.937
347.87
347.861
347.517
346.947
346.273
345.6
344.755
343.67
342.331
341.518
334.86
335.403
336.152
336.991
337.641
338.254
338.708
338.883
339.116
339.115
339.059
339.069
338.735
338.272
337.703
337.233
336.449
335.604
334.519
333.839
327.07
327.489
328.064
328.661
329.227
329.668
330.058
330.159
330.355
330.37
330.316
330.341
330.064
329.676
329.215
328.904
328.241
327.607
326.752
326.245
319.334
319.591
320.027
320.44
320.847
321.202
321.437
321.492
321.65
321.669
321.627
321.648
321.479
321.133
320.845
320.665
320.125
319.699
319.054
318.697
311.583
311.758
311.986
312.261
312.509
312.74
312.873
312.907
313.02
312.993
313.003
312.976
312.925
312.713
312.502
312.418
312.088
311.81
311.449
311.188
303.883
303.947
304.021
304.113
304.189
304.245
304.331
304.348
304.366
304.342
304.376
304.343
304.335
304.267
304.2
304.158
304.033
303.959
303.836
303.736
358.903
360.024
361.416
362.834
363.788
364.877
365.725
366.11
366.363
366.437
366.454
366.3
365.852
365.064
364.134
362.98
361.828
360.396
359.06
357.471
350.812
351.738
352.969
354.14
355.005
355.919
356.627
356.983
357.23
357.241
357.232
357.172
356.729
356.104
355.281
354.295
353.312
352.028
350.915
349.56
342.813
343.604
344.671
345.602
346.352
347.143
347.728
348.016
348.197
348.243
348.142
348.187
347.772
347.305
346.637
345.785
344.935
343.79
342.871
341.748
334.917
335.575
336.471
337.173
337.807
338.41
338.941
339.166
339.261
339.333
339.252
339.299
338.967
338.579
338.076
337.376
336.635
335.695
334.97
334.023
327.104
327.627
328.336
328.878
329.345
329.822
330.221
330.383
330.447
330.52
330.494
330.521
330.245
329.946
329.553
329.045
328.429
327.728
327.122
326.395
319.337
319.768
320.198
320.612
320.95
321.286
321.584
321.666
321.721
321.786
321.811
321.82
321.587
321.348
321.082
320.738
320.274
319.798
319.338
318.804
311.642
311.882
312.135
312.401
312.562
312.777
312.951
312.985
313.032
313.082
313.123
313.119
312.958
312.816
312.632
312.449
312.155
311.919
311.581
311.267
303.923
303.986
304.063
304.167
304.206
304.281
304.34
304.344
304.36
304.402
304.399
304.403
304.347
304.302
304.232
304.161
304.075
303.997
303.879
303.773
359.031
360.419
361.859
363.267
364.177
365.092
365.907
366.41
366.877
366.844
366.831
366.79
366.188
365.393
364.435
363.35
362.154
360.819
359.435
357.702
350.928
352.102
353.363
354.547
355.294
356.165
356.784
357.264
357.656
357.603
357.574
357.597
357.065
356.325
355.56
354.646
353.599
352.431
351.26
349.785
342.923
343.914
344.959
345.933
346.578
347.326
347.839
348.234
348.569
348.523
348.522
348.529
348.082
347.431
346.808
346.003
345.16
344.185
343.195
341.957
335.032
335.81
336.652
337.464
337.976
338.59
338.99
339.33
339.599
339.56
339.549
339.576
339.216
338.65
338.17
337.526
336.824
336.051
335.214
334.213
327.209
327.76
328.424
329.056
329.492
329.967
330.24
330.486
330.772
330.732
330.688
330.696
330.444
329.955
329.592
329.085
328.579
328.008
327.334
326.528
319.434
319.777
320.226
320.715
321.013
321.395
321.544
321.728
321.955
321.921
321.87
321.904
321.733
321.355
321.109
320.714
320.372
319.978
319.5
318.93
311.684
311.842
312.138
312.435
312.583
312.861
312.903
313.042
313.162
313.165
313.103
313.156
313.044
312.798
312.678
312.398
312.216
311.963
311.649
311.367
303.927
303.993
304.056
304.163
304.206
304.318
304.313
304.373
304.408
304.422
304.39
304.418
304.366
304.299
304.247
304.161
304.095
304.011
303.901
303.817
359.327
360.571
362.111
363.346
364.228
365.067
365.904
366.486
366.969
367.035
366.819
366.77
366.214
365.603
364.554
363.367
362.227
361.018
359.259
358.04
351.199
352.212
353.548
354.619
355.348
356.114
356.796
357.31
357.711
357.79
357.577
357.571
357.106
356.535
355.631
354.631
353.685
352.587
351.084
350.055
343.174
343.986
345.096
346.04
346.679
347.307
347.834
348.257
348.592
348.702
348.482
348.518
348.119
347.628
346.854
346.04
345.293
344.272
343.066
342.227
335.216
335.846
336.8
337.558
338.114
338.577
338.956
339.333
339.612
339.701
339.554
339.582
339.197
338.865
338.207
337.564
336.957
336.103
335.153
334.476
327.34
327.802
328.554
329.124
329.607
329.953
330.193
330.484
330.724
330.776
330.68
330.697
330.377
330.173
329.64
329.167
328.644
328.014
327.277
326.759
319.508
319.84
320.35
320.773
321.108
321.406
321.507
321.754
321.882
321.922
321.867
321.903
321.641
321.517
321.115
320.832
320.444
319.999
319.419
319.118
311.738
311.915
312.222
312.47
312.659
312.86
312.89
313.058
313.1
313.123
313.109
313.122
312.969
312.924
312.677
312.523
312.278
312.014
311.626
311.508
303.92
303.978
304.114
304.185
304.248
304.322
304.303
304.358
304.412
304.393
304.38
304.403
304.343
304.328
304.266
304.198
304.129
304.024
303.909
303.867
359.365
360.456
362.081
363.351
364.391
365.273
366.029
366.499
366.945
367.1
366.993
366.681
366.334
365.636
364.659
363.546
362.498
361.064
359.352
358.036
351.218
352.12
353.563
354.638
355.552
356.274
356.921
357.337
357.688
357.839
357.735
357.452
357.189
356.615
355.742
354.781
353.859
352.591
351.173
350.078
343.194
343.905
345.121
346.053
346.826
347.413
347.982
348.31
348.591
348.733
348.631
348.381
348.186
347.707
346.95
346.177
345.339
344.3
343.155
342.243
335.224
335.848
336.819
337.55
338.197
338.696
339.109
339.383
339.639
339.702
339.678
339.409
339.28
338.955
338.269
337.671
336.959
336.131
335.192
334.484
327.4
327.859
328.607
329.111
329.691
330.036
330.352
330.552
330.793
330.78
330.802
330.559
330.476
330.256
329.703
329.233
328.653
328.043
327.292
326.798
319.569
319.881
320.433
320.757
321.205
321.441
321.631
321.763
321.988
321.969
321.988
321.791
321.704
321.529
321.225
320.815
320.42
319.982
319.49
319.131
311.764
311.932
312.276
312.475
312.733
312.868
312.957
313.041
313.2
313.177
313.204
313.086
313.025
312.89
312.751
312.463
312.239
312.001
311.68
311.465
303.946
304
304.108
304.168
304.261
304.337
304.334
304.384
304.414
304.414
304.417
304.373
304.364
304.302
304.269
304.176
304.084
304.02
303.908
303.844
359.428
360.445
361.938
363.404
364.248
365.204
365.707
366.51
366.992
366.92
366.991
366.565
366.142
365.439
364.452
363.55
362.181
360.769
359.495
358.184
351.298
352.125
353.42
354.733
355.39
356.176
356.618
357.299
357.753
357.655
357.748
357.372
356.994
356.395
355.548
354.817
353.561
352.379
351.303
350.221
343.242
343.967
345.04
346.106
346.69
347.254
347.682
348.234
348.645
348.558
348.651
348.278
348.008
347.51
346.774
346.175
345.072
344.17
343.279
342.358
335.295
335.939
336.774
337.619
338.053
338.504
338.895
339.295
339.666
339.584
339.639
339.33
339.148
338.694
338.103
337.612
336.725
336.041
335.298
334.549
327.395
327.939
328.557
329.174
329.504
329.879
330.18
330.459
330.84
330.709
330.703
330.509
330.38
329.974
329.499
329.167
328.52
327.987
327.395
326.816
319.585
319.958
320.397
320.797
321.008
321.306
321.475
321.694
322.027
321.896
321.861
321.768
321.636
321.371
321.017
320.739
320.372
319.924
319.518
319.123
311.799
311.964
312.204
312.448
312.562
312.779
312.881
313.009
313.237
313.127
313.113
313.066
312.991
312.832
312.593
312.429
312.22
311.937
311.67
311.446
303.97
304.002
304.1
304.168
304.216
304.277
304.328
304.353
304.417
304.387
304.385
304.37
304.377
304.316
304.232
304.178
304.095
303.998
303.918
303.833
)
;

boundaryField
{
    hotSide
    {
        type            fixedGradient;
        gradient        nonuniform List<scalar> 
400
(
503.387
518.661
533.473
547.758
561.449
574.484
586.798
598.333
609.03
618.838
627.704
635.584
642.437
648.225
652.918
656.49
658.922
660.199
660.314
659.265
517.43
533.15
548.397
563.102
577.199
590.621
603.303
615.185
626.206
636.313
645.453
653.579
660.648
666.623
671.471
675.168
677.691
679.026
679.167
678.11
530.085
546.209
561.849
576.936
591.4
605.172
618.189
630.385
641.701
652.079
661.467
669.816
677.083
683.228
688.219
692.029
694.637
696.027
696.192
695.129
541.264
557.747
573.737
589.162
603.951
618.036
631.349
643.825
655.402
666.023
675.632
684.181
691.624
697.922
703.041
706.953
709.637
711.077
711.265
710.199
550.893
567.686
583.978
599.696
614.768
629.123
642.693
655.412
667.216
678.047
687.849
696.571
704.168
710.599
715.83
719.832
722.584
724.069
724.279
723.211
558.907
575.96
592.505
608.468
623.777
638.359
652.145
665.068
677.063
688.07
698.034
706.903
714.629
721.173
726.499
730.578
733.388
734.912
735.141
734.074
565.257
582.517
599.264
615.423
630.921
645.685
659.643
672.729
684.877
696.027
706.121
715.107
722.938
729.573
734.976
739.118
741.975
743.532
743.778
742.713
569.904
587.317
604.213
620.518
636.156
651.054
665.141
678.348
690.61
701.865
712.057
721.131
729.041
735.745
741.206
745.396
748.29
749.872
750.133
749.071
572.822
590.333
607.325
623.723
639.451
654.435
668.605
681.891
694.227
705.552
715.807
724.939
732.901
739.651
745.151
749.373
752.292
753.893
754.166
753.107
573.996
591.549
608.583
625.021
640.789
655.812
670.018
683.34
695.709
707.065
717.35
726.51
734.496
741.268
746.788
751.027
753.96
755.572
755.853
754.799
573.424
590.963
607.984
624.41
640.166
655.179
669.377
682.689
695.052
706.402
716.681
725.837
733.822
740.592
746.112
750.351
753.287
754.902
755.188
754.14
571.114
588.583
605.537
621.898
637.593
652.547
666.689
679.95
692.265
703.571
713.811
722.932
730.887
737.632
743.132
747.357
750.283
751.894
752.18
751.138
567.085
584.43
601.263
617.508
633.09
647.937
661.978
675.145
687.371
698.597
708.764
717.819
725.717
732.413
737.874
742.068
744.973
746.572
746.855
745.821
561.368
578.535
595.194
611.271
626.692
641.386
655.281
668.31
680.409
691.517
701.578
710.538
718.352
724.977
730.378
734.527
737.399
738.979
739.256
738.229
554.005
570.94
587.374
603.234
618.446
632.94
646.646
659.497
671.43
682.385
692.307
701.142
708.847
715.378
720.702
724.79
727.618
729.171
729.439
728.421
545.047
561.7
577.86
593.454
608.411
622.66
636.135
648.769
660.499
671.267
681.018
689.701
697.271
703.688
708.916
712.929
715.702
717.222
717.478
716.469
534.557
550.879
566.717
582
596.657
610.621
623.824
636.202
647.694
658.243
667.794
676.297
683.709
689.99
695.106
699.03
701.739
703.219
703.46
702.461
522.609
538.554
554.025
568.953
583.269
596.906
609.8
621.887
633.108
643.406
652.728
661.027
668.259
674.385
679.373
683.195
685.831
687.265
687.489
686.5
509.286
524.81
539.873
554.405
568.34
581.614
594.163
605.926
616.843
626.862
635.93
644.001
651.032
656.986
661.83
665.54
668.093
669.477
669.681
668.705
494.682
509.746
524.36
538.459
551.978
564.854
577.025
588.432
599.019
608.732
617.521
625.342
632.153
637.919
642.607
646.193
648.657
649.985
650.168
649.205
)
;
    }
    coldSide
    {
        type            mixed;
        refValue        uniform 300;
        refGradient     uniform 0;
        valueFraction   uniform 0.991591;
        source          uniform 0;
        value           nonuniform List<scalar> 
400
(
300.026
300.026
300.027
300.027
300.028
300.029
300.029
300.03
300.03
300.031
300.031
300.032
300.032
300.032
300.033
300.033
300.033
300.033
300.033
300.033
300.026
300.027
300.027
300.028
300.029
300.029
300.029
300.03
300.031
300.031
300.032
300.032
300.033
300.033
300.033
300.034
300.034
300.033
300.034
300.034
300.027
300.027