/*--------------------------------*- C++ -*----------------------------------*\
| =========                 |                                                 |
| \\      /  F ield         | OpenFOAM: The Open Source CFD Toolbox           |
|  \\    /   O peration     | Version:  2212                                  |
|   \\  /    A nd           | Website:  www.openfoam.com                      |
|    \\/     M anipulation  |                                                 |
\*---------------------------------------------------------------------------*/
FoamFile
{
    version     2.0;
    format      ascii;
    arch        "LSB;label=32;scalar=64";
    class       volScalarField;
    location    "0";
    object      Ttrue;
}
// * * * * * * * * * * * * * * * * * * * * * * * * * * * * * * * * * * * * * //

dimensions      [0 0 0 1 0 0 0];

internalField   nonuniform List<scalar> 
3200
(
347.117
347.663
348.359
349.118
349.9
350.667
351.376
351.974
352.409
352.639
352.639
352.409
351.974
351.376
350.667
349.9
349.118
348.359
347.663
347.117
340.913
341.375
341.975
342.632
343.309
343.972
344.585
345.101
345.477
345.676
345.676
345.477
345.101
344.585
343.972
343.309
342.632
341.975
341.375
340.913
334.676
335.059
335.566
336.12
336.692
337.253
337.77
338.206
338.523
338.691
338.691
338.523
338.206
337.77
337.253
336.692
336.12
335.566
335.059
334.676
328.413
328.721
329.134
329.587
330.055
330.513
330.935
331.291
331.55
331.687
331.687
331.55
331.291
330.935
330.513
330.055
329.587
329.134
328.721
328.413
322.127
322.364
322.684
323.037
323.4
323.756
324.084
324.36
324.562
324.668
324.668
324.562
324.36
324.084
323.756
323.4
323.037
322.684
322.364
322.127
315.825
315.993
316.221
316.472
316.732
316.986
317.22
317.418
317.561
317.637
317.637
317.561
317.418
317.22
316.986
316.732
316.472
316.221
315.993
315.825
309.511
309.611
309.747
309.898
310.054
310.207
310.347
310.466
310.552
310.597
310.597
310.552
310.466
310.347
310.207
310.054
309.898
309.747
309.611
309.511
303.189
303.222
303.268
303.319
303.371
303.422
303.469
303.509
303.538
303.553
303.553
303.538
303.509
303.469
303.422
303.371
303.319
303.268
303.222
303.189
347.285
347.826
348.516
349.268
350.042
350.801
351.501
352.091
352.521
352.748
352.748
352.521
352.091
351.501
350.801
350.042
349.268
348.516
347.826
347.285
341.058
341.516
342.112
342.762
343.432
344.089
344.694
345.204
345.575
345.771
345.771
345.575
345.204
344.694
344.089
343.432
342.762
342.112
341.516
341.058
334.799
335.179
335.681
336.231
336.797
337.351
337.862
338.293
338.606
338.772
338.772
338.606
338.293
337.862
337.351
336.797
336.231
335.681
335.179
334.799
328.514
328.819
329.229
329.678
330.14
330.594
331.011
331.363
331.618
331.753
331.753
331.618
331.363
331.011
330.594
330.14
329.678
329.229
328.819
328.514
322.206
322.441
322.758
323.107
323.467
323.819
324.143
324.416
324.615
324.719
324.719
324.615
324.416
324.143
323.819
323.467
323.107
322.758
322.441
322.206
315.881
316.047
316.273
316.523
316.78
317.031
317.263
317.457
317.599
317.674
317.674
317.599
317.457
317.263
317.031
316.78
316.523
316.273
316.047
315.881
309.544
309.643
309.779
309.929
310.083
310.234
310.373
310.49
310.575
310.62
310.62
310.575
310.49
310.373
310.234
310.083
309.929
309.779
309.643
309.544
303.2
303.233
303.279
303.329
303.381
303.431
303.478
303.517
303.545
303.56
303.56
303.545
303.517
303.478
303.431
303.381
303.329
303.279
303.233
303.2
347.62
348.153
348.832
349.57
350.328
351.07
351.754
352.33
352.749
352.97
352.97
352.749
352.33
351.754
351.07
350.328
349.57
348.832
348.153
347.62
341.349
341.8
342.385
343.024
343.68
344.323
344.914
345.412
345.773
345.964
345.964
345.773
345.412
344.914
344.323
343.68
343.024
342.385
341.8
341.349
335.046
335.42
335.913
336.452
337.007
337.55
338.049
338.469
338.775
338.936
338.936
338.775
338.469
338.049
337.55
337.007
336.452
335.913
335.42
335.046
328.715
329.016
329.418
329.859
330.313
330.756
331.164
331.507
331.757
331.888
331.888
331.757
331.507
331.164
330.756
330.313
329.859
329.418
329.016
328.715
322.363
322.594
322.906
323.248
323.601
323.946
324.262
324.529
324.722
324.825
324.825
324.722
324.529
324.262
323.946
323.601
323.248
322.906
322.594
322.363
315.993
316.157
316.379
316.624
316.876
317.122
317.348
317.538
317.676
317.749
317.749
317.676
317.538
317.348
317.122
316.876
316.624
316.379
316.157
315.993
309.612
309.709
309.843
309.989
310.141
310.288
310.424
310.538
310.621
310.665
310.665
310.621
310.538
310.424
310.288
310.141
309.989
309.843
309.709
309.612
303.223
303.255
303.3
303.349
303.4
303.449
303.495
303.533
303.561
303.576
303.576
303.561
303.533
303.495
303.449
303.4
303.349
303.3
303.255
303.223
348.125
348.645
349.307
350.025
350.76
351.479
352.14
352.695
353.098
353.311
353.311
353.098
352.695
352.14
351.479
350.76
350.025
349.307
348.645
348.125
341.787
342.227
342.798
343.419
344.056
344.678
345.249
345.729
346.077
346.261
346.261
346.077
345.729
345.249
344.678
344.056
343.419
342.798
342.227
341.787
335.416
335.782
336.262
336.787
337.326
337.851
338.333
338.739
339.033
339.188
339.188
339.033
338.739
338.333
337.851
337.326
336.787
336.262
335.782
335.416
329.019
329.313
329.705
330.134
330.574
331.003
331.397
331.728
331.968
332.095
332.095
331.968
331.728
331.397
331.003
330.574
330.134
329.705
329.313
329.019
322.599
322.825
323.129
323.462
323.804
324.138
324.444
324.701
324.888
324.986
324.986
324.888
324.701
324.444
324.138
323.804
323.462
323.129
322.825
322.599
316.162
316.322
316.538
316.777
317.021
317.259
317.478
317.661
317.794
317.864
317.864
317.794
317.661
317.478
317.259
317.021
316.777
316.538
316.322
316.162
309.713
309.808
309.938
310.081
310.228
310.371
310.502
310.612
310.692
310.734
310.734
310.692
310.612
310.502
310.371
310.228
310.081
309.938
309.808
309.713
303.257
303.289
303.332
303.38
303.429
303.477
303.521
303.558
303.585
303.599
303.599
303.585
303.558
303.521
303.477
303.429
303.38
303.332
303.289
303.257
348.8
349.305
349.945
350.637
351.344
352.033
352.664
353.194
353.577
353.779
353.779
353.577
353.194
352.664
352.033
351.344
350.637
349.945
349.305
348.8
342.373
342.799
343.351
343.95
344.563
345.159
345.705
346.162
346.494
346.669
346.669
346.494
346.162
345.705
345.159
344.563
343.95
343.351
342.799
342.373
335.912
336.266
336.731
337.237
337.755
338.259
338.72
339.107
339.386
339.534
339.534
339.386
339.107
338.72
338.259
337.755
337.237
336.731
336.266
335.912
329.424
329.709
330.089
330.502
330.926
331.337
331.714
332.03
332.258
332.379
332.379
332.258
332.03
331.714
331.337
330.926
330.502
330.089
329.709
329.424
322.915
323.134
323.428
323.749
324.078
324.398
324.691
324.936
325.114
325.207
325.207
325.114
324.936
324.691
324.398
324.078
323.749
323.428
323.134
322.915
316.388
316.543
316.752
316.982
317.217
317.445
317.655
317.83
317.956
318.023
318.023
317.956
317.83
317.655
317.445
317.217
316.982
316.752
316.543
316.388
309.849
309.941
310.067
310.205
310.346
310.483
310.609
310.714
310.79
310.83
310.83
310.79
310.714
310.609
310.483
310.346
310.205
310.067
309.941
309.849
303.302
303.333
303.375
303.421
303.469
303.515
303.557
303.592
303.617
303.631
303.631
303.617
303.592
303.557
303.515
303.469
303.421
303.375
303.333
303.302
349.649
350.134
350.748
351.41
352.084
352.738
353.336
353.835
354.196
354.386
354.386
354.196
353.835
353.336
352.738
352.084
351.41
350.748
350.134
349.649
343.108
343.519
344.049
344.622
345.205
345.771
346.288
346.72
347.032
347.196
347.196
347.032
346.72
346.288
345.771
345.205
344.622
344.049
343.519
343.108
336.535
336.876
337.322
337.806
338.3
338.778
339.215
339.579
339.843
339.982
339.982
339.843
339.579
339.215
338.778
338.3
337.806
337.322
336.876
336.535
329.934
330.209
330.572
330.968
331.372
331.763
332.12
332.418
332.633
332.746
332.746
332.633
332.418
332.12
331.763
331.372
330.968
330.572
330.209
329.934
323.311
323.522
323.804
324.112
324.426
324.73
325.007
325.238
325.406
325.494
325.494
325.406
325.238
325.007
324.73
324.426
324.112
323.804
323.522
323.311
316.671
316.82
317.022
317.241
317.465
317.683
317.881
318.046
318.165
318.228
318.228
318.165
318.046
317.881
317.683
317.465
317.241
317.022
316.82
316.671
310.019
310.108
310.229
310.361
310.495
310.625
310.744
310.844
310.915
310.953
310.953
310.915
310.844
310.744
310.625
310.495
310.361
310.229
310.108
310.019
303.359
303.389
303.429
303.474
303.519
303.562
303.602
303.636
303.66
303.672
303.672
303.66
303.636
303.602
303.562
303.519
303.474
303.429
303.389
303.359
350.672
351.136
351.721
352.35
352.987
353.602
354.162
354.629
354.965
355.142
355.142
354.965
354.629
354.162
353.602
352.987
352.35
351.721
351.136
350.672
343.996
344.388
344.893
345.437
345.989
346.522
347.006
347.41
347.701
347.853
347.853
347.701
347.41
347.006
346.522
345.989
345.437
344.893
344.388
343.996
337.286
337.612
338.037
338.497
338.964
339.414
339.824
340.165
340.41
340.539
340.539
340.41
340.165
339.824
339.414
338.964
338.497
338.037
337.612
337.286
330.549
330.812
331.158
331.534
331.916
332.284
332.619
332.897
333.098
333.203
333.203
333.098
332.897
332.619
332.284
331.916
331.534
331.158
330.812
330.549
323.79
323.991
324.26
324.552
324.849
325.135
325.396
325.612
325.768
325.85
325.85
325.768
325.612
325.396
325.135
324.849
324.552
324.26
323.991
323.79
317.013
317.156
317.348
317.556
317.768
317.973
318.159
318.313
318.425
318.483
318.483
318.425
318.313
318.159
317.973
317.768
317.556
317.348
317.156
317.013
310.225
310.31
310.425
310.55
310.677
310.8
310.911
311.004
311.071
311.106
311.106
311.071
311.004
310.911
310.8
310.677
310.55
310.425
310.31
310.225
303.428
303.457
303.495
303.537
303.58
303.621
303.658
303.689
303.712
303.724
303.724
303.712
303.689
303.658
303.621
303.58
303.537
303.495
303.457
303.428
351.873
352.314
352.868
353.46
354.057
354.632
355.153
355.585
355.896
356.059
356.059
355.896
355.585
355.153
354.632
354.057
353.46
352.868
352.314
351.873
345.037
345.41
345.888
346.401
346.918
347.416
347.867
348.241
348.509
348.65
348.65
348.509
348.241
347.867
347.416
346.918
346.401
345.888
345.41
345.037
338.168
338.477
338.88
339.313
339.751
340.172
340.553
340.869
341.096
341.215
341.215
341.096
340.869
340.553
340.172
339.751
339.313
338.88
338.477
338.168
331.271
331.52
331.849
332.203
332.561
332.905
333.216
333.475
333.66
333.758
333.758
333.66
333.475
333.216
332.905
332.561
332.203
331.849
331.52
331.271
324.352
324.543
324.798
325.073
325.351
325.619
325.861
326.062
326.206
326.282
326.282
326.206
326.062
325.861
325.619
325.351
325.073
324.798
324.543
324.352
317.415
317.55
317.732
317.929
318.127
318.319
318.492
318.635
318.738
318.792
318.792
318.738
318.635
318.492
318.319
318.127
317.929
317.732
317.55
317.415
310.466
310.547
310.655
310.774
310.893
311.008
311.112
311.198
311.259
311.292
311.292
311.259
311.198
311.112
311.008
310.893
310.774
310.655
310.547
310.466
303.509
303.536
303.573
303.612
303.652
303.691
303.725
303.754
303.775
303.786
303.786
303.775
303.754
303.725
303.691
303.652
303.612
303.573
303.536
303.509
353.254
353.67
354.191
354.746
355.303
355.836
356.316
356.714
356.998
357.147
357.147
356.998
356.714
356.316
355.836
355.303
354.746
354.191
353.67
353.254
346.235
346.587
347.037
347.517
347.999
348.461
348.877
349.221
349.467
349.596
349.596
349.467
349.221
348.877
348.461
347.999
347.517
347.037
346.587
346.235
339.182
339.474
339.853
340.259
340.667
341.057
341.409
341.7
341.908
342.017
342.017
341.908
341.7
341.409
341.057
340.667
340.259
339.853
339.474
339.182
332.101
332.337
332.646
332.977
333.311
333.63
333.918
334.156
334.326
334.415
334.415
334.326
334.156
333.918
333.63
333.311
332.977
332.646
332.337
332.101
324.998
325.179
325.418
325.676
325.936
326.184
326.408
326.592
326.725
326.794
326.794
326.725
326.592
326.408
326.184
325.936
325.676
325.418
325.179
324.998
317.877
318.005
318.175
318.36
318.545
318.723
318.882
319.014
319.109
319.158
319.158
319.109
319.014
318.882
318.723
318.545
318.36
318.175
318.005
317.877
310.743
310.819
310.922
311.033
311.144
311.25
311.346
311.426
311.482
311.512
311.512
311.482
311.426
311.346
311.25
311.144
311.033
310.922
310.819
310.743
303.602
303.628
303.662
303.699
303.736
303.772
303.804
303.831
303.85
303.86
303.86
303.85
303.831
303.804
303.772
303.736
303.699
303.662
303.628
303.602
354.818
355.209
355.696
356.213
356.728
357.219
357.66
358.023
358.282
358.418
358.418
358.282
358.023
357.66
357.219
356.728
356.213
355.696
355.209
354.818
347.591
347.922
348.343
348.79
349.236
349.662
350.043
350.358
350.582
350.699
350.699
350.582
350.358
350.043
349.662
349.236
348.79
348.343
347.922
347.591
340.33
340.605
340.959
341.337
341.715
342.075
342.398
342.663
342.853
342.952
342.952
342.853
342.663
342.398
342.075
341.715
341.337
340.959
340.605
340.33
333.041
333.262
333.551
333.86
334.17
334.464
334.728
334.945
335.1
335.181
335.181
335.1
334.945
334.728
334.464
334.17
333.86
333.551
333.262
333.041
325.729
325.899
326.123
326.364
326.604
326.833
327.038
327.207
327.328
327.391
327.391
327.328
327.207
327.038
326.833
326.604
326.364
326.123
325.899
325.729
318.4
318.52
318.68
318.851
319.023
319.187
319.333
319.454
319.54
319.585
319.585
319.54
319.454
319.333
319.187
319.023
318.851
318.68
318.52
318.4
311.057
311.129
311.225
311.328
311.431
311.529
311.617
311.69
311.742
311.769
311.769
311.742
311.69
311.617
311.529
311.431
311.328
311.225
311.129
311.057
303.707
303.731
303.763
303.798
303.833
303.866
303.895
303.919
303.937
303.946
303.946
303.937
303.919
303.895
303.866
303.833
303.798
303.763
303.731
303.707
356.566
356.932
357.386
357.864
358.339
358.789
359.191
359.521
359.756
359.878
359.878
359.756
359.521
359.191
358.789
358.339
357.864
357.386
356.932
356.566
349.108
349.417
349.809
350.223
350.634
351.024
351.373
351.658
351.861
351.967
351.967
351.861
351.658
351.373
351.024
350.634
350.223
349.809
349.417
349.108
341.614
341.871
342.201
342.551
342.9
343.23
343.524
343.765
343.937
344.027
344.027
343.937
343.765
343.524
343.23
342.9
342.551
342.201
341.871
341.614
334.093
334.299
334.568
334.855
335.14
335.41
335.65
335.848
335.988
336.062
336.062
335.988
335.848
335.65
335.41
335.14
334.855
334.568
334.299
334.093
326.548
326.706
326.915
327.138
327.359
327.569
327.757
327.91
328.019
328.076
328.076
328.019
327.91
327.757
327.569
327.359
327.138
326.915
326.706
326.548
318.985
319.097
319.246
319.405
319.563
319.713
319.847
319.957
320.035
320.075
320.075
320.035
319.957
319.847
319.713
319.563
319.405
319.246
319.097
318.985
311.409
311.476
311.565
311.661
311.756
311.846
311.926
311.992
312.039
312.063
312.063
312.039
311.992
311.926
311.846
311.756
311.661
311.565
311.476
311.409
303.825
303.848
303.878
303.91
303.941
303.972
303.999
304.021
304.036
304.045
304.045
304.036
304.021
303.999
303.972
303.941
303.91
303.878
303.848
303.825
358.502
358.843
359.264
359.705
360.14
360.551
360.916
361.213
361.425
361.535
361.535
361.425
361.213
360.916
360.551
360.14
359.705
359.264
358.843
358.502
350.786
351.075
351.438
351.82
352.197
352.553
352.869
353.127
353.31
353.406
353.406
353.31
353.127
352.869
352.553
352.197
351.82
351.438
351.075
350.786
343.036
343.275
343.581
343.904
344.223
344.524
344.792
345.01
345.165
345.246
345.246
345.165
345.01
344.792
344.524
344.223
343.904
343.581
343.275
343.036
335.256
335.449
335.698
335.962
336.224
336.47
336.689
336.868
336.994
337.06
337.06
336.994
336.868
336.689
336.47
336.224
335.962
335.698
335.449
335.256
327.453
327.601
327.795
328
328.203
328.395
328.565
328.704
328.803
328.854
328.854
328.803
328.704
328.565
328.395
328.203
328
327.795
327.601
327.453
319.632
319.737
319.875
320.021
320.167
320.303
320.425
320.524
320.595
320.631
320.631
320.595
320.524
320.425
320.303
320.167
320.021
319.875
319.737
319.632
311.798
311.86
311.943
312.031
312.118
312.2
312.274
312.333
312.375
312.397
312.397
312.375
312.333
312.274
312.2
312.118
312.031
311.943
311.86
311.798
303.956
303.976
304.004
304.034
304.063
304.091
304.115
304.135
304.149
304.157
304.157
304.149
304.135
304.115
304.091
304.063
304.034
304.004
303.976
303.956
360.627
360.943
361.331
361.736
362.134
362.507
362.837
363.105
363.295
363.394
363.394
363.295
363.105
362.837
362.507
362.134
361.736
361.331
360.943
360.627
352.629
352.896
353.231
353.582
353.927
354.251
354.536
354.769
354.933
355.019
355.019
354.933
354.769
354.536
354.251
353.927
353.582
353.231
352.896
352.629
344.596
344.818
345.1
345.397
345.689
345.962
346.204
346.401
346.54
346.612
346.612
346.54
346.401
346.204
345.962
345.689
345.397
345.1
344.818
344.596
336.533
336.712
336.942
337.185
337.424
337.648
337.846
338.007
338.121
338.18
338.18
338.121
338.007
337.846
337.648
337.424
337.185
336.942
336.712
336.533
328.447
328.584
328.763
328.952
329.137
329.312
329.466
329.591
329.679
329.725
329.725
329.679
329.591
329.466
329.312
329.137
328.952
328.763
328.584
328.447
320.342
320.439
320.567
320.702
320.834
320.959
321.069
321.158
321.222
321.255
321.255
321.222
321.158
321.069
320.959
320.834
320.702
320.567
320.439
320.342
312.224
312.282
312.359
312.44
312.519
312.594
312.66
312.714
312.752
312.772
312.772
312.752
312.714
312.66
312.594
312.519
312.44
312.359
312.282
312.224
304.099
304.118
304.144
304.171
304.197
304.223
304.245
304.263
304.275
304.282
304.282
304.275
304.263
304.245
304.223
304.197
304.171
304.144
304.118
304.099
362.939
363.232
363.589
363.96
364.322
364.66
364.958
365.199
365.369
365.457
365.457
365.369
365.199
364.958
364.66
364.322
363.96
363.589
363.232
362.939
354.634
354.882
355.19
355.511
355.826
356.118
356.376
356.585
356.732
356.809
356.809
356.732
356.585
356.376
356.118
355.826
355.511
355.19
354.882
354.634
346.294
346.499
346.759
347.03
347.296
347.544
347.763
347.939
348.064
348.128
348.128
348.064
347.939
347.763
347.544
347.296
347.03
346.759
346.499
346.294
337.923
338.088
338.3
338.523
338.74
338.943
339.122
339.266
339.368
339.421
339.421
339.368
339.266
339.122
338.943
338.74
338.523
338.3
338.088
337.923
329.529
329.655
329.82
329.993
330.162
330.32
330.459
330.571
330.651
330.692
330.692
330.651
330.571
330.459
330.32
330.162
329.993
329.82
329.655
329.529
321.115
321.205
321.322
321.446
321.567
321.68
321.779
321.859
321.916
321.945
321.945
321.916
321.859
321.779
321.68
321.567
321.446
321.322
321.205
321.115
312.689
312.742
312.813
312.887
312.96
313.027
313.087
313.135
313.169
313.187
313.187
313.169
313.135
313.087
313.027
312.96
312.887
312.813
312.742
312.689
304.254
304.272
304.296
304.321
304.345
304.368
304.388
304.404
304.415
304.421
304.421
304.415
304.404
304.388
304.368
304.345
304.321
304.296
304.272
304.254
365.437
365.707
366.035
366.374
366.703
367.008
367.276
367.492
367.644
367.722
367.722
367.644
367.492
367.276
367.008
366.703
366.374
366.035
365.707
365.437
356.8
357.028
357.311
357.604
357.89
358.155
358.387
358.574
358.705
358.773
358.773
358.705
358.574
358.387
358.155
357.89
357.604
357.311
357.028
356.8
348.126
348.315
348.554
348.802
349.044
349.268
349.464
349.623
349.734
349.792
349.792
349.734
349.623
349.464
349.268
349.044
348.802
348.554
348.315
348.126
339.423
339.575
339.77
339.973
340.171
340.354
340.515
340.645
340.736
340.783
340.783
340.736
340.645
340.515
340.354
340.171
339.973
339.77
339.575
339.423
330.696
330.812
330.963
331.121
331.275
331.418
331.543
331.644
331.715
331.751
331.751
331.715
331.644
331.543
331.418
331.275
331.121
330.963
330.812
330.696
321.949
322.032
322.14
322.252
322.362
322.464
322.554
322.626
322.677
322.703
322.703
322.677
322.626
322.554
322.464
322.362
322.252
322.14
322.032
321.949
313.19
313.239
313.304
313.371
313.437
313.499
313.552
313.596
313.626
313.642
313.642
313.626
313.596
313.552
313.499
313.437
313.371
313.304
313.239
313.19
304.422
304.439
304.46
304.483
304.505
304.526
304.544
304.558
304.569
304.574
304.574
304.569
304.558
304.544
304.526
304.505
304.483
304.46
304.439
304.422
368.11
368.358
368.659
368.967
369.266
369.541
369.782
369.975
370.11
370.18
370.18
370.11
369.975
369.782
369.541
369.266
368.967
368.659
368.358
368.11
359.114
359.324
359.584
359.851
360.11
360.349
360.558
360.725
360.843
360.903
360.903
360.843
360.725
360.558
360.349
360.11
359.851
359.584
359.324
359.114
350.084
350.258
350.477
350.703
350.922
351.125
351.301
351.443
351.542
351.594
351.594
351.542
351.443
351.301
351.125
350.922
350.703
350.477
350.258
350.084
341.024
341.164
341.343
341.528
341.707
341.873
342.017
342.133
342.215
342.257
342.257
342.215
342.133
342.017
341.873
341.707
341.528
341.343
341.164
341.024
331.941
332.048
332.187
332.331
332.47
332.599
332.712
332.802
332.865
332.898
332.898
332.865
332.802
332.712
332.599
332.47
332.331
332.187
332.048
331.941
322.839
322.915
323.014
323.116
323.216
323.308
323.389
323.453
323.499
323.522
323.522
323.499
323.453
323.389
323.308
323.216
323.116
323.014
322.915
322.839
313.724
313.769
313.829
313.89
313.95
314.006
314.054
314.093
314.12
314.134
314.134
314.12
314.093
314.054
314.006
313.95
313.89
313.829
313.769
313.724
304.601
304.616
304.636
304.657
304.677
304.696
304.712
304.725
304.734
304.739
304.739
304.734
304.725
304.712
304.696
304.677
304.657
304.636
304.616
304.601
370.927
371.156
371.431
371.712
371.983
372.231
372.447
372.62
372.741
372.803
372.803
372.741
372.62
372.447
372.231
371.983
371.712
371.431
371.156
370.927
361.551
361.744
361.981
362.225
362.46
362.676
362.863
363.013
363.118
363.172
363.172
363.118
363.013
362.863
362.676
362.46
362.225
361.981
361.744
361.551
352.141
352.301
352.501
352.708
352.906
353.089
353.248
353.375
353.464
353.509
353.509
353.464
353.375
353.248
353.089
352.906
352.708
352.501
352.301
352.141
342.704
342.833
342.996
343.165
343.328
343.477
343.607
343.711
343.784
343.821
343.821
343.784
343.711
343.607
343.477
343.328
343.165
342.996
342.833
342.704
333.245
333.344
333.471
333.602
333.729
333.845
333.947
334.027
334.084
334.113
334.113
334.084
334.027
333.947
333.845
333.729
333.602
333.471
333.344
333.245
323.77
323.84
323.93
324.024
324.115
324.198
324.27
324.328
324.369
324.389
324.389
324.369
324.328
324.27
324.198
324.115
324.024
323.93
323.84
323.77
314.283
314.324
314.379
314.435
314.49
314.54
314.583
314.618
314.642
314.655
314.655
314.642
314.618
314.583
314.54
314.49
314.435
314.379
314.324
314.283
304.789
304.802
304.821
304.84
304.858
304.875
304.889
304.901
304.909
304.913
304.913
304.909
304.901
304.889
304.875
304.858
304.84
304.821
304.802
304.789
373.817
374.027
374.279
374.535
374.781
375.006
375.2
375.355
375.464
375.519
375.519
375.464
375.355
375.2
375.006
374.781
374.535
374.279
374.027
373.817
364.037
364.215
364.433
364.655
364.869
365.064
365.232
365.367
365.461
365.509
365.509
365.461
365.367
365.232
365.064
364.869
364.655
364.433
364.215
364.037
354.232
354.379
354.563
354.751
354.932
355.097
355.24
355.354
355.434
355.475
355.475
355.434
355.354
355.24
355.097
354.932
354.751
354.563
354.379
354.232
344.406
344.524
344.674
344.828
344.976
345.112
345.229
345.322
345.388
345.421
345.421
345.388
345.322
345.229
345.112
344.976
344.828
344.674
344.524
344.406
334.563
334.654
334.77
334.89
335.006
335.111
335.202
335.275
335.326
335.352
335.352
335.326
335.275
335.202
335.111
335.006
334.89
334.77
334.654
334.563
324.708
324.773
324.856
324.941
325.024
325.099
325.164
325.217
325.253
325.272
325.272
325.253
325.217
325.164
325.099
325.024
324.941
324.856
324.773
324.708
314.845
314.883
314.933
314.985
315.034
315.08
315.119
315.15
315.172
315.183
315.183
315.172
315.15
315.119
315.08
315.034
314.985
314.933
314.883
314.845
304.977
304.99
305.006
305.024
305.04
305.055
305.069
305.079
305.086
305.09
305.09
305.086
305.079
305.069
305.055
305.04
305.024
305.006
304.99
304.977
376.591
376.785
377.017
377.253
377.478
377.683
377.859
378
378.097
378.148
378.148
378.097
378
377.859
377.683
377.478
377.253
377.017
376.785
376.591
366.396
366.56
366.761
366.966
367.161
367.339
367.493
367.615
367.7
367.744
367.744
367.7
367.615
367.493
367.339
367.161
366.966
366.761
366.56
366.396
356.194
356.33
356.5
356.673
356.839
356.99
357.12
357.224
357.296
357.333
357.333
357.296
357.224
357.12
356.99
356.839
356.673
356.5
356.33
356.194
345.987
346.097
346.236
346.378
346.514
346.638
346.745
346.83
346.889
346.919
346.919
346.889
346.83
346.745
346.638
346.514
346.378
346.236
346.097
345.987
335.779
335.863
335.971
336.082
336.188
336.284
336.367
336.434
336.48
336.503
336.503
336.48
336.434
336.367
336.284
336.188
336.082
335.971
335.863
335.779
325.569
325.629
325.706
325.785
325.861
325.93
325.989
326.037
326.07
326.087
326.087
326.07
326.037
325.989
325.93
325.861
325.785
325.706
325.629
325.569
315.359
315.395
315.441
315.488
315.534
315.575
315.611
315.64
315.66
315.67
315.67
315.66
315.64
315.611
315.575
315.534
315.488
315.441
315.395
315.359
305.148
305.16
305.176
305.192
305.207
305.221
305.233
305.243
305.249
305.253
305.253
305.249
305.243
305.233
305.221
305.207
305.192
305.176
305.16
305.148
378.76
378.943
379.162
379.383
379.593
379.784
379.948
380.079
380.169
380.216
380.216
380.169
380.079
379.948
379.784
379.593
379.383
379.162
378.943
378.76
368.171
368.326
368.515
368.708
368.891
369.058
369.201
369.315
369.394
369.435
369.435
369.394
369.315
369.201
369.058
368.891
368.708
368.515
368.326
368.171
357.625
357.754
357.914
358.078
358.234
358.376
358.498
358.594
358.662
358.696
358.696
358.662
358.594
358.498
358.376
358.234
358.078
357.914
357.754
357.625
347.113
347.217
347.348
347.483
347.611
347.728
347.828
347.907
347.963
347.991
347.991
347.963
347.907
347.828
347.728
347.611
347.483
347.348
347.217
347.113
336.628
336.708
336.81
336.915
337.015
337.106
337.184
337.246
337.289
337.312
337.312
337.289
337.246
337.184
337.106
337.015
336.915
336.81
336.708
336.628
326.162
326.219
326.292
326.367
326.438
326.504
326.56
326.604
326.635
326.651
326.651
326.635
326.604
326.56
326.504
326.438
326.367
326.292
326.219
326.162
315.71
315.744
315.787
315.833
315.876
315.915
315.949
315.975
315.994
316.004
316.004
315.994
315.975
315.949
315.915
315.876
315.833
315.787
315.744
315.71
305.265
305.277
305.291
305.306
305.321
305.334
305.345
305.354
305.361
305.364
305.364
305.361
305.354
305.345
305.334
305.321
305.306
305.291
305.277
305.265
)
;

boundaryField
{
    hotSide
    {
        type            fixedGradient;
        gradient        nonuniform List<scalar> 
400
(
493.334
495.112
498.674
504.03
511.198
520.197
531.051
543.785
558.425
574.997
593.527
614.039
636.554
661.092
687.671
716.304
747.006
779.784
814.649
851.604
500.512
502.233
505.683
510.878
517.837
526.59
537.165
549.596
563.917
580.161
598.359
618.541
640.734
664.961
691.242
719.593
750.028
782.558
817.191
853.933
508.281
509.934
513.251
518.252
524.966
533.427
543.677
555.756
569.709
585.577
603.399
623.211
645.045
668.927
694.881
722.925
753.074
785.338
819.726
856.242
516.51
518.085
521.247
526.025
532.454
540.582
550.46
562.142
575.681
591.13
608.536
627.943
649.387
672.899
698.504
726.224
756.072
788.06
822.195
858.48
524.972
526.457
529.446
533.973
540.087
547.845
557.314
568.56
581.652
596.65
613.613
632.592
653.627
676.755
702.002
729.39
758.934
790.645
824.528
860.586
533.312
534.702
537.506
541.766
547.544
554.913
563.953
574.747
587.375
601.913
618.426
636.973
657.601
680.348
705.244
732.31
761.56
793.005
826.648
862.49
541.053
542.348
544.967
548.962
554.408
561.393
570.014
580.368
592.551
606.647
622.733
640.873
661.12
683.514
708.086
734.857
763.84
795.045
828.473
864.124
547.623
548.833
551.285
555.042
560.191
566.835
575.084
585.051
596.843
610.555
626.272
644.064
663.986
686.082
710.381
736.906
765.668
796.674
829.926
865.419
552.431
553.575
555.9
559.475
564.398
570.783
578.752
588.428
599.927
613.354
628.798
646.334
666.018
687.895
711.997
738.344
766.947
797.812
830.937
866.319
554.979
556.087
558.342
561.819
566.619
572.863
580.681
590.2
601.543
614.817
630.116
647.514
667.073
688.835
712.833
739.086
767.606
798.397
831.457
866.781
554.979
556.087
558.342
561.819
566.619
572.863
580.681
590.2
601.543
614.817
630.116
647.514
667.073
688.835
712.833
739.086
767.606
798.397
831.457
866.781
552.431
553.575
555.9
559.475
564.398
570.783
578.752
588.428
599.927
613.354
628.798
646.334
666.018
687.895
711.997
738.344
766.947
797.812
830.937
866.319
547.623
548.833
551.285
555.042
560.191
566.835
575.084
585.051
596.843
610.555
626.272
644.064
663.986
686.082
710.381
736.906
765.668
796.674
829.926
865.419
541.053
542.348
544.967
548.962
554.408
561.393
570.014
580.368
592.551
606.647
622.733
640.873
661.12
683.514
708.086
734.857
763.84
795.045
828.473
864.124
533.312
534.702
537.506
541.766
547.544
554.913
563.953
574.747
587.375
601.913
618.426
636.973
657.601
680.348
705.244
732.31
761.56
793.005
826.648
862.49
524.972
526.457
529.446
533.973
540.087
547.845
557.314
568.56
581.652
596.65
613.613
632.592
653.627
676.755
702.002
729.39
758.934
790.645
824.528
860.586
516.51
518.085
521.247
526.025
532.454
540.582
550.46
562.142
575.681
591.13
608.536
627.943
649.387
672.899
698.504
726.224
756.072
788.06
822.195
858.48
508.281
509.934
513.251
518.252
524.966
533.427
543.677
555.756
569.709
585.577
603.399
623.211
645.045
668.927
694.881
722.925
753.074
785.338
819.726
856.242
500.512
502.233
505.683
510.878
517.837
526.59
537.165
549.596
563.917
580.161
598.359
618.541
640.734
664.961
691.242
719.593
750.028
782.558
817.191
853.933
493.334
495.112
498.674
504.03
511.198
520.197
531.051
543.785
558.425
574.997
593.527
614.039
636.554
661.092
687.671
716.304
747.006
779.784
814.649
851.604
)
;
    }
    coldSide
    {
        type            mixed;
        refValue        uniform 300;
        refGradient     uniform 0;
        valueFraction   uniform 0.991591;
        source          uniform 0;
        value           nonuniform List<scalar> 
400
(
300.027
300.027
300.027
300.027
300.028
300.028
300.029
300.03
300.03
300.031
300.032
300.033
300.034
300.036
300.037
300.039
300.04
300.042
300.043
300.044
300.027
300.027
300.027
300.028
300.028
300.028
300.029
300.03
300.031
300.031
300.032
300.033
300.035
300.036
300.037
300.039
300.04
300.042
300.043