/*--------------------------------*- C++ -*----------------------------------*\
| =========                 |                                                 |
| \\      /  F ield         | OpenFOAM: The Open Source CFD Toolbox           |
|  \\    /   O peration     | Version:  2212                                  |
|   \\  /    A nd           | Website:  www.openfoam.com                      |
|    \\/     M anipulation  |                                                 |
\*---------------------------------------------------------------------------*/
FoamFile
{
    version     2.0;
    format      ascii;
    arch        "LSB;label=32;scalar=64";
    class       volScalarField;
    location    "0";
    object      T;
}
// * * * * * * * * * * * * * * * * * * * * * * * * * * * * * * * * * * * * * //

dimensions      [0 0 0 1 0 0 0];

internalField   nonuniform List<scalar> 
3200
(
341.965
340.868
339.898
339.639
339.919
340.664
341.336
342.183
342.937
343.444
343.827
343.855
343.613
343.187
342.561
342.158
342.133
342.465
343.236
344.402
336.646
335.758
334.897
334.652
334.905
335.535
336.095
336.841
337.471
337.895
338.236
338.234
338.042
337.632
337.085
336.762
336.731
337.044
337.711
338.66
331.199
330.474
329.736
329.536
329.753
330.261
330.739
331.383
331.893
332.245
332.533
332.513
332.364
331.975
331.519
331.217
331.243
331.504
332.06
332.844
325.67
325.053
324.468
324.334
324.484
324.888
325.275
325.829
326.21
326.513
326.742
326.713
326.59
326.264
325.912
325.61
325.666
325.876
326.361
326.945
320.049
319.557
319.146
319.02
319.134
319.423
319.725
320.167
320.458
320.681
320.876
320.869
320.762
320.498
320.234
319.974
320.03
320.202
320.58
321.002
314.372
314.029
313.753
313.641
313.726
313.901
314.129
314.468
314.646
314.803
314.959
314.966
314.875
314.692
314.503
314.288
314.349
314.46
314.752
315.023
308.65
308.446
308.286
308.21
308.261
308.368
308.508
308.712
308.807
308.905
309
309.003
308.948
308.847
308.726
308.587
308.626
308.708
308.864
309.023
302.903
302.826
302.791
302.752
302.773
302.799
302.854
302.922
302.956
302.989
303.019
303.017
303.005
302.964
302.931
302.88
302.891
302.927
302.977
303.028
342.09
340.955
340.088
339.918
340.37
341.005
341.775
342.633
343.36
343.92
344.406
344.44
344.204
343.632
343.055
342.611
342.39
342.698
343.541
344.587
336.763
335.825
335.073
334.918
335.287
335.807
336.444
337.206
337.827
338.3
338.721
338.735
338.519
338.036
337.495
337.12
336.958
337.218
337.974
338.803
331.323
330.537
329.913
329.763
330.087
330.508
331.008
331.668
332.17
332.581
332.928
332.946
332.748
332.355
331.868
331.552
331.417
331.657
332.291
332.956
325.767
325.143
324.626
324.514
324.755
325.115
325.49
326.058
326.414
326.79
327.034
327.076
326.906
326.568
326.176
325.902
325.799
326.014
326.525
327.066
320.122
319.675
319.258
319.172
319.354
319.627
319.909
320.352
320.618
320.914
321.085
321.125
321.022
320.742
320.423
320.218
320.128
320.295
320.705
321.101
314.428
314.13
313.823
313.753
313.863
314.08
314.285
314.579
314.78
314.986
315.095
315.119
315.065
314.876
314.643
314.474
314.409
314.529
314.839
315.096
308.685
308.517
308.336
308.28
308.33
308.478
308.593
308.79
308.897
309.011
309.08
309.097
309.062
308.964
308.808
308.693
308.666
308.719
308.931
309.073
302.924
302.859
302.801
302.767
302.78
302.846
302.882
302.95
302.979
303.029
303.041
303.06
303.034
303.007
302.959
302.905
302.9
302.915
302.985
303.047
342.548
341.4
340.655
340.497
340.945
341.721
342.383
343.441
344.182
344.917
345.218
345.247
345.068
344.394
343.756
343.195
342.872
343.121
343.997
345.199
337.169
336.176
335.59
335.404
335.762
336.435
336.988
337.871
338.519
339.144
339.373
339.413
339.259
338.696
338.125
337.633
337.373
337.58
338.362
339.337
331.649
330.812
330.368
330.16
330.488
331.034
331.487
332.215
332.763
333.26
333.432
333.496
333.353
332.913
332.411
331.981
331.779
331.953
332.605
333.392
326.038
325.345
325.01
324.823
325.094
325.54
325.903
326.483
326.907
327.311
327.422
327.516
327.396
327.051
326.616
326.264
326.114
326.265
326.787
327.404
320.355
319.784
319.557
319.407
319.635
319.975
320.217
320.69
320.984
321.308
321.395
321.495
321.368
321.096
320.762
320.493
320.376
320.519
320.911
321.359
314.573
314.171
314.022
313.928
314.078
314.33
314.495
314.832
315.022
315.254
315.328
315.385
315.3
315.112
314.87
314.672
314.606
314.713
314.983
315.295
308.776
308.538
308.446
308.398
308.483
308.618
308.734
308.932
309.039
309.169
309.232
309.257
309.217
309.097
308.939
308.823
308.795
308.845
309.004
309.203
302.944
302.869
302.831
302.819
302.843
302.89
302.929
303.004
303.029
303.071
303.091
303.102
303.1
303.052
302.998
302.96
302.952
302.969
303.031
303.087
343.31
342.109
341.433
341.309
341.791
342.537
343.432
344.484
345.279
345.919
346.334
346.247
346.122
345.489
344.783
344.1
343.764
343.952
344.809
345.822
337.826
336.808
336.235
336.102
336.501
337.156
337.888
338.8
339.458
339.989
340.34
340.302
340.157
339.623
338.97
338.383
338.115
338.286
339.037
339.862
332.203
331.351
330.894
330.751
331.074
331.656
332.235
333.009
333.54
333.99
334.273
334.265
334.099
333.674
333.07
332.595
332.398
332.534
333.162
333.856
326.493
325.786
325.436
325.296
325.572
326.044
326.493
327.153
327.565
327.944
328.132
328.125
327.981
327.637
327.143
326.756
326.613
326.71
327.211
327.77
320.711
320.137
319.892
319.762
319.99
320.343
320.685
321.208
321.506
321.814
321.935
321.93
321.82
321.552
321.186
320.871
320.772
320.837
321.197
321.64
314.85
314.443
314.257
314.164
314.316
314.587
314.816
315.188
315.407
315.618
315.698
315.697
315.625
315.419
315.178
314.936
314.883
314.939
315.151
315.483
308.94
308.697
308.568
308.512
308.621
308.788
308.914
309.137
309.257
309.401
309.428
309.448
309.396
309.263
309.133
308.986
308.957
308.987
309.097
309.285
303.001
302.92
302.879
302.85
302.897
302.948
302.986
303.072
303.104
303.154
303.156
303.182
303.163
303.105
303.071
303.029
303.014
303.023
303.053
303.109
344.247
343.077
342.477
342.3
342.872
343.67
344.599
345.668
346.429
347.202
347.634
347.539
347.282
346.678
346.019
345.221
344.958
345.034
345.776
346.839
338.611
337.647
337.124
336.943
337.42
338.134
338.883
339.807
340.457
341.114
341.476
341.388
341.186
340.668
340.078
339.37
339.167
339.229
339.868
340.786
332.874
332.094
331.638
331.461
331.854
332.461
333.068
333.849
334.387
334.953
335.209
335.161
334.989
334.575
334.05
333.423
333.269
333.337
333.883
334.661
327.052
326.404
326.054
325.891
326.202
326.669
327.15
327.796
328.244
328.707
328.87
328.853
328.72
328.391
327.941
327.427
327.292
327.377
327.83
328.461
321.137
320.627
320.388
320.235
320.469
320.815
321.2
321.675
322.058
322.385
322.495
322.497
322.408
322.15
321.794
321.39
321.298
321.363
321.704
322.181
315.164
314.787
314.624
314.505
314.676
314.933
315.183
315.53
315.803
316.022
316.086
316.107
316.053
315.843
315.598
315.3
315.258
315.307
315.543
315.874
309.135
308.893
308.809
308.738
308.838
308.985
309.138
309.342
309.511
309.637
309.671
309.668
309.661
309.519
309.397
309.211
309.165
309.198
309.355
309.533
303.072
302.994
302.95
302.93
302.959
303.018
303.06
303.128
303.192
303.238
303.25
303.241
303.235
303.196
303.157
303.098
303.072
303.086
303.135
303.196
345.363
344.357
343.628
343.666
344.184
344.906
345.763
346.767
347.741
348.397
348.957
348.984
348.639
348.066
347.26
346.519
346.243
346.379
347
348.022
339.572
338.755
338.111
338.13
338.582
339.163
339.879
340.752
341.6
342.156
342.624
342.622
342.352
341.881
341.145
340.505
340.242
340.401
340.926
341.816
333.648
333.029
332.447
332.45
332.855
333.308
333.879
334.651
335.361
335.82
336.213
336.212
335.984
335.576
334.959
334.411
334.186
334.337
334.754
335.507
327.634
327.194
326.689
326.679
327.03
327.373
327.817
328.468
329.047
329.399
329.737
329.702
329.551
329.192
328.687
328.261
328.051
328.175
328.536
329.138
321.561
321.256
320.851
320.831
321.116
321.381
321.703
322.215
322.666
322.925
323.189
323.13
323.055
322.765
322.4
322.061
321.879
321.975
322.256
322.708
315.436
315.244
314.952
314.92
315.143
315.326
315.529
315.918
316.219
316.415
316.584
316.545
316.511
316.29
316.038
315.8
315.66
315.745
315.928
316.263
309.277
309.174
308.966
308.974
309.107
309.239
309.327
309.598
309.748
309.859
309.966
309.933
309.931
309.794
309.658
309.511
309.431
309.462
309.594
309.774
303.108
303.08
303.004
303.011
303.049
303.106
303.127
303.223
303.27
303.301
303.342
303.321
303.324
303.286
303.239
303.192
303.159
303.18
303.227
303.281
346.733
345.729
345.14
345.14
345.507
346.136
347.198
348.246
349.223
349.924
350.409
350.478
350.129
349.455
348.597
347.939
347.617
347.829
348.326
349.189
340.755
339.932
339.407
339.43
339.736
340.232
341.163
342.041
342.869
343.47
343.895
343.925
343.604
343.047
342.283
341.771
341.447
341.668
342.103
342.812
334.655
334.014
333.566
333.598
333.848
334.215
335.003
335.749
336.424
336.945
337.301
337.296
337.002
336.541
335.902
335.484
335.208
335.403
335.785
336.348
328.472
327.973
327.626
327.629
327.847
328.101
328.745
329.37
329.931
330.333
330.626
330.597
330.35
329.991
329.479
329.118
328.915
329.057
329.381
329.828
322.231
321.854
321.59
321.599
321.755
321.934
322.426
322.925
323.373
323.644
323.876
323.85
323.663
323.389
322.99
322.708
322.551
322.678
322.92
323.265
315.928
315.671
315.489
315.479
315.598
315.703
316.066
316.412
316.736
316.931
317.083
317.067
316.936
316.743
316.455
316.245
316.145
316.247
316.41
316.642
309.591
309.448
309.325
309.322
309.403
309.436
309.66
309.874
310.079
310.188
310.263
310.262
310.18
310.075
309.908
309.758
309.707
309.78
309.877
310.009
303.234
303.167
303.134
303.122
303.148
303.162
303.23
303.313
303.385
303.423
303.448
303.437
303.411
303.378
303.315
303.271
303.26
303.286
303.312
303.365
348.361
347.283
346.737
346.712
347.091
347.592
348.599
349.657
350.646
351.43
351.932
351.949
351.428
350.905
350.027
349.444
349.159
349.316
349.773
350.565
342.18
341.26
340.803
340.785
341.084
341.519
342.351
343.286
344.108
344.77
345.198
345.192
344.731
344.273
343.531
343.032
342.793
342.932
343.348
343.997
335.876
335.113
334.756
334.729
334.983
335.32
336.008
336.821
337.457
338.027
338.367
338.379
337.982
337.57
336.945
336.542
336.344
336.497
336.82
337.349
329.47
328.861
328.588
328.577
328.773
329.017
329.591
330.261
330.741
331.236
331.479
331.495
331.153
330.812
330.307
329.999
329.844
329.962
330.217
330.644
322.997
322.537
322.329
322.341
322.46
322.64
323.091
323.617
323.986
324.369
324.545
324.549
324.277
324.029
323.631
323.39
323.289
323.368
323.569
323.874
316.478
316.158
316.004
316.02
316.085
316.218
316.524
316.917
317.178
317.454
317.565
317.58
317.386
317.202
316.915
316.761
316.678
316.736
316.868
317.064
309.924
309.718
309.625
309.627
309.675
309.754
309.923
310.159
310.32
310.507
310.56
310.574
310.465
310.346
310.188
310.085
310.02
310.063
310.119
310.253
303.325
303.268
303.237
303.228
303.233
303.274
303.316
303.409
303.477
303.524
303.539
303.545
303.513
303.468
303.415
303.377
303.368
303.378
303.386
303.438
349.979
349.047
348.455
348.378
348.638
349.264
350.107
351.178
351.992
352.901
353.434
353.36
352.932
352.263
351.521
350.996
350.748
350.804
351.364
352.064
343.577
342.804
342.285
342.229
342.424
342.939
343.655
344.592
345.257
346.045
346.491
346.434
346.04
345.466
344.815
344.402
344.17
344.26
344.703
345.297
337.056
336.445
336.005
335.938
336.082
336.519
337.114
337.907
338.431
339.109
339.454
339.429
339.09
338.587
338.04
337.7
337.508
337.621
337.96
338.457
330.439
329.969
329.584
329.528
329.684
330.018
330.509
331.132
331.544
332.101
332.381
332.368
332.094
331.641
331.183
330.945
330.798
330.89
331.146
331.541
323.754
323.409
323.075
323.054
323.197
323.447
323.82
324.293
324.607
325.05
325.232
325.262
325.04
324.66
324.295
324.125
324.016
324.091
324.261
324.566
317.017
316.776
316.517
316.511
316.617
316.819
317.048
317.386
317.627
317.963
318.056
318.087
317.923
317.645
317.394
317.263
317.177
317.259
317.346
317.542
310.248
310.095
309.937
309.918
309.99
310.133
310.245
310.453
310.607
310.825
310.855
310.87
310.777
310.613
310.45
310.375
310.326
310.368
310.433
310.542
303.435
303.382
303.33
303.323
303.343
303.404
303.433
303.516
303.543
303.623
303.643
303.633
303.611
303.562
303.502
303.476
303.47
303.485
303.501
303.539
351.657
350.767
350.055
350.051
350.174
350.892
351.688
352.576
353.475
354.332
354.851
354.815
354.472
353.803
353.102
352.535
352.358
352.499
352.914
353.59
345.069
344.287
343.677
343.654
343.747
344.368
345.043
345.792
346.534
347.292
347.729
347.689
347.399
346.809
346.198
345.725
345.591
345.688
346.046
346.632
338.351
337.688
337.154
337.156
337.216
337.734
338.262
338.916
339.503
340.163
340.514
340.484
340.235
339.712
339.233
338.836
338.74
338.809
339.096
339.601
331.538
330.994
330.527
330.549
330.601
331.017
331.411
331.972
332.421
332.95
333.242
333.209
333.011
332.574
332.194
331.854
331.798
331.876
332.096
332.473
324.64
324.199
323.83
323.86
323.913
324.234
324.513
324.952
325.305
325.688
325.918
325.887
325.725
325.381
325.092
324.818
324.803
324.864
325.039
325.317
317.688
317.321
317.062
317.1
317.13
317.365
317.555
317.853
318.113
318.382
318.542
318.52
318.404
318.16
317.939
317.731
317.745
317.803
317.926
318.117
310.65
310.439
310.268
310.285
310.306
310.463
310.568
310.743
310.893
311.059
311.142
311.142
311.072
310.928
310.783
310.644
310.669
310.683
310.768
310.896
303.571
303.508
303.443
303.456
303.466
303.508
303.552
303.598
303.662
303.703
303.741
303.737
303.72
303.662
303.622
303.569
303.584
303.577
303.616
303.656
353.448
352.599
351.843
351.791
351.873
352.538
353.342
354.036
354.997
355.746
356.128
356.156
355.885
355.3
354.652
354.019
353.893
354.035
354.47
355.106
346.627
345.916
345.22
345.162
345.245
345.799
346.475
347.075
347.86
348.524
348.82
348.832
348.603
348.112
347.562
347.003
346.932
347.031
347.399
347.913
339.686
339.069
338.477
338.414
338.494
338.942
339.506
340.012
340.631
341.217
341.429
341.431
341.266
340.854
340.402
339.917
339.887
339.939
340.238
340.667
332.612
332.108
331.633
331.557
331.639
331.978
332.433
332.865
333.336
333.829
333.963
333.985
333.862
333.52
333.161
332.762
332.761
332.785
333.013
333.351
325.463
325.099
324.714
324.62
324.695
324.957
325.313
325.653
325.996
326.382
326.469
326.513
326.385
326.13
325.858
325.539
325.534
325.552
325.746
325.983
318.227
317.989
317.697
317.652
317.691
317.869
318.133
318.384
318.618
318.872
318.947
318.992
318.876
318.682
318.502
318.269
318.273
318.284
318.416
318.587
310.961
310.828
310.65
310.631
310.647
310.735
310.913
311.07
311.195
311.322
311.408
311.42
311.34
311.229
311.132
310.963
310.99
311.007
311.077
311.165
303.68
303.637
303.582
303.576
303.57
303.599
303.656
303.72
303.758
303.793
303.825
303.828
303.809
303.77
303.741
303.671
303.7
303.701
303.712
303.75
355.257
354.392
353.731
353.553
353.689
354.126
354.906
355.482
356.471
357
357.306
357.517
357.156
356.704
356.109
355.609
355.558
355.649
356.005
356.823
348.191
347.436
346.859
346.692
346.788
347.178
347.807
348.322
349.171
349.574
349.827
350.017
349.712
349.336
348.818
348.39
348.348
348.447
348.713
349.433
340.994
340.343
339.862
339.703
339.804
340.113
340.623
341.071
341.77
342.066
342.291
342.459
342.182
341.889
341.437
341.077
341.047
341.156
341.365
341.949
333.686
333.16
332.758
332.63
332.7
332.967
333.353
333.714
334.293
334.485
334.69
334.846
334.58
334.362
333.986
333.708
333.643
333.758
333.962
334.38
326.278
325.897
325.552
325.454
325.496
325.735
326.03
326.306
326.754
326.888
327.048
327.145
326.936
326.793
326.5
326.28
326.215
326.296
326.481
326.788
318.823
318.538
318.305
318.223
318.253
318.439
318.65
318.844
319.156
319.253
319.358
319.414
319.285
319.176
318.965
318.791
318.738
318.815
318.948
319.154
311.341
311.156
311.012
310.948
310.964
311.098
311.236
311.331
311.516
311.587
311.633
311.674
311.607
311.517
311.404
311.296
311.255
311.319
311.382
311.51
303.814
303.74
303.696
303.659
303.679
303.713
303.771
303.794
303.867
303.889
303.902
303.907
303.897
303.852
303.821
303.785
303.766
303.802
303.829
303.853
357.017
356.273
355.654
355.321
355.356
355.687
356.334
357.042
357.862
358.361
358.715
358.701
358.39
358.022
357.61
357.256
357.127
357.262
357.787
358.472
349.704
349.068
348.525
348.237
348.243
348.545
349.062
349.669
350.357
350.772
351.093
351.03
350.768
350.461
350.115
349.827
349.725
349.835
350.298
350.862
342.293
341.738
341.277
341.031
341.013
341.28
341.674
342.199
342.769
343.105
343.379
343.31
343.104
342.83
342.525
342.292
342.212
342.32
342.695
343.166
334.749
334.305
333.911
333.726
333.675
333.894
334.211
334.673
335.135
335.354
335.612
335.546
335.369
335.135
334.895
334.704
334.637
334.707
335.028
335.386
327.121
326.785
326.455
326.317
326.275
326.445
326.685
327.072
327.401
327.569
327.769
327.718
327.564
327.391
327.225
327.043
326.999
327.032
327.309
327.565
319.428
319.18
318.942
318.839
318.811
318.939
319.117
319.408
319.621
319.715
319.877
319.844
319.715
319.595
319.495
319.341
319.316
319.311
319.559
319.717
311.692
311.527
311.382
311.323
311.323
311.401
311.505
311.69
311.816
311.846
311.946
311.93
311.853
311.768
311.72
311.618
311.617
311.584
311.757
311.839
303.929
303.859
303.811
303.804
303.8
303.82
303.85
303.92
303.958
303.96
303.998
303.993
303.98
303.942
303.933
303.9
303.898
303.876
303.94
303.976
358.883
358.045
357.404
357.16
357.136
357.329
357.862
358.478
359.188
359.687
360.027
360.059
359.838
359.401
359.119
358.827
358.741
358.925
359.364
360.234
351.353
350.624
350.056
349.831
349.779
349.935
350.389
350.924
351.541
351.917
352.23
352.238
352.046
351.685
351.449
351.189
351.12
351.286
351.682
352.389
343.675
343.058
342.576
342.365
342.324
342.448
342.805
343.26
343.777
344.064
344.372
344.347
344.161
343.89
343.716
343.454
343.419
343.546
343.875
344.458
335.873
335.374
334.984
334.809
334.762
334.874
335.163
335.514
335.944
336.163
336.431
336.391
336.236
336.014
335.88
335.652
335.628
335.738
335.984
336.444
328.001
327.62
327.325
327.149
327.115
327.222
327.437
327.699
328.052
328.196
328.407
328.366
328.259
328.078
327.974
327.785
327.784
327.865
328.05
328.389
320.066
319.788
319.583
319.421
319.399
319.503
319.64
319.833
320.096
320.178
320.321
320.299
320.233
320.119
320.025
319.891
319.89
319.921
320.088
320.306
312.075
311.916
311.796
311.671
311.667
311.725
311.808
311.944
312.096
312.133
312.205
312.197
312.155
312.111
312.05
311.959
311.964
311.964
312.073
312.203
304.048
303.992
303.964
303.924
303.913
303.933
303.96
304.009
304.054
304.063
304.097
304.087
304.075
304.064
304.046
304.018
304.016
304.014
304.041
304.099
360.706
359.968
359.236
358.925
358.924
359.078
359.519
359.971
360.603
360.881
361.208
361.289
361.148
360.713
360.429
360.27
360.338
360.535
361.042
361.7
352.903
352.303
351.643
351.384
351.377
351.485
351.85
352.22
352.767
352.982
353.275
353.339
353.189
352.832
352.563
352.457
352.497
352.691
353.126
353.672
344.976
344.487
343.929
343.69
343.676
343.76
344.058
344.37
344.814
344.993
345.254
345.305
345.165
344.85
344.622
344.549
344.567
344.741
345.096
345.557
336.949
336.554
336.106
335.879
335.881
335.942
336.187
336.406
336.778
336.917
337.134
337.192
337.053
336.796
336.606
336.551
336.575
336.717
336.991
337.369
328.837
328.521
328.194
327.994
328.002
328.025
328.229
328.37
328.672
328.781
328.962
328.997
328.887
328.68
328.526
328.49
328.523
328.62
328.835
329.133
320.674
320.436
320.195
320.045
320.056
320.036
320.207
320.312
320.509
320.609
320.721
320.751
320.677
320.521
320.419
320.388
320.411
320.484
320.636
320.843
312.431
312.303
312.135
312.057
312.052
312.035
312.156
312.211
312.314
312.382
312.462
312.482
312.443
312.326
312.274
312.263
312.277
312.316
312.415
312.538
304.176
304.134
304.074
304.057
304.035
304.046
304.074
304.091
304.131
304.153
304.17
304.185
304.169
304.122
304.125
304.118
304.11
304.132
304.162
304.197
362.55
361.725
361.056
360.661
360.676
360.767
360.904
361.333
361.814
362.225
362.42
362.504
362.466
362.026
361.981
361.812
361.875
362.103
362.743
363.391
354.536
353.822
353.196
352.842
352.882
352.926
353.028
353.382
353.811
354.123
354.308
354.372
354.333
353.962
353.95
353.804
353.861
354.045
354.604
355.148
346.384
345.771
345.222
344.912
344.958
344.954
345.06
345.356
345.716
345.946
346.087
346.152
346.094
345.816
345.819
345.705
345.735
345.886
346.355
346.814
338.13
337.612
337.143
336.866
336.929
336.892
336.967
337.215
337.518
337.708
337.794
337.86
337.788
337.593
337.601
337.521
337.53
337.65
338.019
338.387
329.736
329.331
328.983
328.745
328.824
328.779
328.833
329.015
329.252
329.414
329.471
329.509
329.44
329.303
329.329
329.28
329.253
329.364
329.642
329.916
321.277
321.005
320.769
320.587
320.634
320.608
320.631
320.771
320.938
321.067
321.082
321.118
321.073
320.986
320.984
320.977
320.929
321.03
321.222
321.426
312.791
312.645
312.497
312.38
312.409
312.408
312.407
312.487
312.59
312.657
312.672
312.703
312.681
312.613
312.615
312.63
312.573
312.655
312.752
312.884
304.288
304.244
304.191
304.144
304.163
304.168
304.162
304.178
304.231
304.247
304.256
304.263
304.258
304.226
304.244
304.238
304.223
304.242
304.28
304.322
364.361
363.574
362.84
362.493
362.311
362.29
362.507
362.836
363.186
363.63
363.644
363.695
363.84
363.497
363.436
363.349
363.474
363.696
364.268
365.073
356.084
355.411
354.783
354.449
354.302
354.247
354.417
354.68
354.991
355.378
355.379
355.433
355.554
355.24
355.202
355.137
355.233
355.413
355.916
356.608
347.686
347.119
346.587
346.269
346.152
346.095
346.232
346.431
346.708
347.047
347.025
347.059
347.175
346.897
346.864
346.81
346.875
347.036
347.462
348.049
339.181
338.685
338.306
337.99
337.89
337.826
337.948
338.115
338.341
338.618
338.582
338.629
338.686
338.472
338.465
338.4
338.466
338.565
338.941
339.408
330.583
330.162
329.914
329.644
329.55
329.502
329.565
329.733
329.891
330.112
330.078
330.107
330.148
329.996
329.98
329.937
329.983
330.054
330.359
330.715
321.915
321.596
321.44
321.249
321.162
321.128
321.151
321.301
321.385
321.556
321.51
321.553
321.572
321.488
321.463
321.426
321.456
321.509
321.717
321.98
313.19
312.988
312.92
312.785
312.731
312.715
312.712
312.834
312.846
312.978
312.922
312.945
312.964
312.928
312.918
312.89
312.891
312.937
313.054
313.212
304.422
304.357
304.337
304.291
304.269
304.264
304.262
304.308
304.296
304.357
304.339
304.348
304.353
304.336
304.337
304.333
304.315
304.345
304.373
304.43
366.037
365.359
364.711
364.124
363.911
363.851
363.994
364.373
364.641
364.922
364.925
365.046
365.059
364.96
364.803
364.83
364.963
365.29
365.915
366.724
357.563
356.949
356.401
355.873
355.676
355.612
355.71
356.046
356.249
356.507
356.5
356.582
356.601
356.515
356.377
356.406
356.511
356.795
357.345
358.047
348.906
348.396
347.952
347.482
347.31
347.281
347.318
347.595
347.776
347.977
347.964
348.037
348.045
347.977
347.87
347.888
347.963
348.226
348.662
349.265
340.173
339.735
339.402
339.018
338.834
338.826
338.861
339.069
339.216
339.38
339.36
339.4
339.414
339.359
339.294
339.296
339.342
339.58
339.91
340.4
331.345
330.997
330.76
330.444
330.281
330.301
330.321
330.452
330.581
330.729
330.682
330.696
330.733
330.697
330.654
330.639
330.65
330.864
331.127
331.471
322.446
322.212
322.023
321.804
321.676
321.714
321.71
321.816
321.884
322.017
321.953
321.967
322.021
321.955
321.945
321.932
321.937
322.096
322.285
322.509
313.5
313.359
313.251
313.128
313.016
313.069
313.059
313.117
313.147
313.244
313.212
313.198
313.251
313.189
313.19
313.213
313.195
313.29
313.403
313.525
304.518
304.494
304.447
304.408
304.355
304.382
304.382
304.407
304.419
304.446
304.429
304.421
304.447
304.422
304.426
304.436
304.424
304.451
304.497
304.542
367.573
366.915
366.323
365.79
365.473
365.369
365.489
365.571
366.013
366.104
366.179
366.263
366.311
366.205
366.06
366.222
366.368
366.74
367.451
368.309
358.852
358.254
357.771
357.3
357.017
356.877
356.978
357.058
357.425
357.511
357.571
357.632
357.684
357.578
357.457
357.611
357.725
358.047
358.669
359.409
349.99
349.495
349.09
348.676
348.413
348.292
348.354
348.458
348.751
348.825
348.868
348.924
348.975
348.856
348.754
348.88
348.992
349.265
349.787
350.409
341.041
340.634
340.321
339.973
339.73
339.615
339.665
339.758
340.006
340.068
340.086
340.149
340.176
340.038
339.983
340.082
340.187
340.42
340.83
341.347
332.024
331.707
331.475
331.199
330.98
330.897
330.921
330.992
331.18
331.231
331.205
331.294
331.3
331.207
331.159
331.219
331.341
331.524
331.805
332.216
322.927
322.712
322.524
322.332
322.182
322.122
322.139
322.199
322.328
322.34
322.307
322.412
322.384
322.329
322.319
322.319
322.45
322.569
322.743
323.03
313.781
313.656
313.539
313.424
313.354
313.31
313.299
313.355
313.434
313.43
313.386
313.479
313.468
313.416
313.411
313.426
313.524
313.565
313.656
313.833
304.624
304.576
304.536
304.501
304.48
304.477
304.459
304.474
304.508
304.502
304.487
304.512
304.509
304.485
304.503
304.51
304.538
304.547
304.566
304.637
368.869
368.125
367.404
366.996
366.566
366.436
366.424
366.5
366.941
366.939
367.161
367.142
367.177
367.117
367.076
367.208
367.39
367.86
368.538
369.299
359.897
359.255
358.665
358.321
357.927
357.778
357.759
357.828
358.226
358.211
358.389
358.374
358.375
358.327
358.286
358.395
358.545
358.984
359.547
360.181
350.832
350.318
349.813
349.527
349.191
349.024
349.021
349.092
349.403
349.392
349.539
349.547
349.525
349.484
349.431
349.514
349.637
350.028
350.496
350.996
341.702
341.289
340.872
340.652
340.361
340.193
340.21
340.271
340.497
340.497
340.636
340.648
340.609
340.583
340.537
340.613
340.656
341.005
341.391
341.791
332.505
332.196
331.85
331.709
331.486
331.314
331.331
331.415
331.554
331.549
331.688
331.675
331.646
331.629
331.617
331.656
331.669
331.95
332.243
332.55
323.269
323.044
322.812
322.706
322.536
322.396
322.397
322.501
322.573
322.57
322.692
322.668
322.632
322.629
322.637
322.641
322.664
322.87
323.084
323.29
314.007
313.846
313.709
313.66
313.544
313.475
313.445
313.537
313.568
313.562
313.639
313.623
313.589
313.59
313.619
313.61
313.641
313.761
313.883
313.986
304.7
304.643
304.595
304.576
304.55
304.528
304.504
304.537
304.562
304.542
304.571
304.572
304.561
304.549
304.568
304.565
304.579
304.624
304.664
304.69
)
;

boundaryField
{
    hotSide
    {
        type            fixedGradient;
        gradient        nonuniform List<scalar> 
400
(
411.427
413.351
418.371
426.41
437.161
450.18
464.99
481.156
498.314
516.18
534.537
553.223
572.124
591.16
610.278
629.447
648.651
667.885
687.152
706.453
394.399
396.561
402.038
410.734
422.277
436.144
451.788
468.73
486.579
505.038
523.89
542.976
562.189
581.456
600.736
620.008
639.267
658.521
677.78
697.056
385.752
388.434
394.388
403.508
415.426
429.621
445.552
462.734
480.775
499.372
518.305
537.416
556.598
575.786
594.944
614.06
633.137
652.191
671.241
690.305
384.966
388.428
394.893
404.253
416.194
430.27
446.003
462.945
480.72
499.028
517.647
536.415
555.229
574.025
592.773
611.469
630.122
648.755
667.393
686.059
389.943
394.329
401.372
410.958
422.83
436.628
451.949
468.401
485.636
503.37
521.382
539.517
557.676
575.802
593.876
611.903
629.905
647.909
665.948
684.051
398.306
403.665
411.371
421.299
433.224
446.839
461.8
477.758
494.394
511.439
528.689
546
563.291
580.526
597.706
614.855
632.01
649.211
666.497
683.903
408.116
414.448
422.896
433.323
445.508
459.167
473.974
489.599
505.731
522.114
538.559
554.949
571.236
587.422
603.545
619.66
635.827
652.102
668.534
685.161
417.915
425.171
434.406
445.464
458.115
472.067
486.982
502.508
518.32
534.151
549.828
565.27
580.484
595.533
610.508
625.508
640.623
655.926
671.475
687.31
426.573
434.639
444.626
456.365
469.614
484.053
499.307
514.972
530.669
546.101
561.099
575.634
589.787
603.704
617.547
631.463
645.572
659.963
674.696
689.809
433.206
441.866
452.448
464.779
478.604
493.578
509.277
525.229
540.979
556.173
570.643
584.415
597.66
610.614
623.507
636.532
649.83
663.499
677.597
692.158
437.188
446.12
457.002
469.661
483.836
499.165
515.192
531.39
547.243
562.35
576.537
589.869
602.583
614.977
627.325
639.844
652.687
665.955
679.706
693.969
438.25
447.059
457.85
470.452
484.597
499.92
515.957
532.179
548.066
563.217
577.453
590.834
603.591
616.017
628.386
640.916
653.764
667.033
680.786
695.054
436.559
444.856
455.179
467.354
481.114
496.094
511.85
527.894
543.757
559.078
573.677
587.566
600.905
613.922
626.847
639.879
653.168
666.822
680.911
695.476
432.746
440.223
449.809
461.337
474.535
489.048
504.454
520.313
536.213
551.836
566.994
581.645
595.863
609.792
623.6
637.448
651.476
665.788
680.462
695.548
427.878
434.339
443.066
453.9
466.566
480.702
495.891
511.715
527.793
543.826
559.62
575.089
590.239
605.146
619.921
634.688
649.567
664.659
680.045
695.777
423.464
428.819
436.68
446.899
459.18
473.124
488.289
504.245
520.616
537.104
553.509
569.717
585.695
601.474
617.124
632.742
648.43
664.285
680.386
696.79
421.502
425.765
432.82
442.529
454.554
468.434
483.673
499.811
516.463
533.333
550.216
566.988
583.596
600.043
616.377
632.674
649.026
665.527
682.257
699.268
424.404
427.709
434.036
443.255
454.988
468.714
483.893
500.043
516.776
533.802
550.917
567.995
584.972
601.837
618.621
635.385
652.212
669.191
686.4
703.887
434.31
436.92
442.584
451.187
462.355
475.571
490.302
506.077
522.519
539.347
556.361
573.433
590.49
607.509
624.504
641.521
658.629
675.905
693.416
711.202
451.872
454.08
459.138
466.953
477.215
489.491
503.316
518.269
534.003
550.25
566.815
583.564
600.416
617.331
634.309
651.375
668.575
685.965
703.592
721.483
)
;
    }
    coldSide
    {
        type            mixed;
        refValue        uniform 300;
        refGradient     uniform 0;
        valueFraction   uniform 0.991591;
        source          uniform 0;
        value           nonuniform List<scalar> 
400
(
300.024
300.025
300.025
300.025
300.026
300.026
300.027
300.028
300.029
300.03
300.031
300.032
300.033
300.034
300.035
300.036
300.037
300.038
300.039
300.04
300.024
300.024
300.024
300.025
300.025
300.026
300.027
300.027
300.028
300.029
300.031
300.031
300.032
300.034
300.035
300.036
300.037
300.038
300.038
300.039
300.023