/*--------------------------------*- C++ -*----------------------------------*\
| =========                 |                                                 |
| \\      /  F ield         | OpenFOAM: The Open Source CFD Toolbox           |
|  \\    /   O peration     | Version:  2212                                  |
|   \\  /    A nd           | Website:  www.openfoam.com                      |
|    \\/     M anipulation  |                                                 |
\*---------------------------------------------------------------------------*/
FoamFile
{
    version     2.0;
    format      ascii;
    arch        "LSB;label=32;scalar=64";
    class       volScalarField;
    location    "0";
    object      Tdirect;
}
// * * * * * * * * * * * * * * * * * * * * * * * * * * * * * * * * * * * * * //

dimensions      [0 0 0 1 0 0 0];

internalField   nonuniform List<scalar> 
3200
(
329.304
329.738
330.291
330.894
331.515
332.125
332.688
333.163
333.509
333.692
333.692
333.509
333.163
332.688
332.125
331.515
330.894
330.291
329.738
329.304
325.52
325.887
326.364
326.886
327.423
327.951
328.437
328.848
329.147
329.305
329.305
329.147
328.848
328.437
327.951
327.423
326.886
326.364
325.887
325.52
321.684
321.988
322.39
322.831
323.285
323.731
324.142
324.488
324.74
324.874
324.874
324.74
324.488
324.142
323.731
323.285
322.831
322.39
321.988
321.684
317.804
318.049
318.377
318.737
319.108
319.472
319.808
320.091
320.297
320.405
320.405
320.297
320.091
319.808
319.472
319.108
318.737
318.377
318.049
317.804
313.888
314.076
314.331
314.611
314.899
315.182
315.443
315.663
315.822
315.907
315.907
315.822
315.663
315.443
315.182
314.899
314.611
314.331
314.076
313.888
309.945
310.078
310.259
310.459
310.665
310.867
311.053
311.21
311.324
311.384
311.384
311.324
311.21
311.053
310.867
310.665
310.459
310.259
310.078
309.945
305.982
306.061
306.17
306.29
306.414
306.535
306.647
306.741
306.809
306.845
306.845
306.809
306.741
306.647
306.535
306.414
306.29
306.17
306.061
305.982
302.006
302.033
302.069
302.11
302.151
302.192
302.229
302.261
302.284
302.296
302.296
302.284
302.261
302.229
302.192
302.151
302.11
302.069
302.033
302.006
329.398
329.828
330.377
330.974
331.589
332.192
332.749
333.218
333.559
333.74
333.74
333.559
333.218
332.749
332.192
331.589
330.974
330.377
329.828
329.398
325.602
325.966
326.439
326.956
327.488
328.01
328.491
328.896
329.191
329.347
329.347
329.191
328.896
328.491
328.01
327.488
326.956
326.439
325.966
325.602
321.753
322.055
322.454
322.891
323.341
323.781
324.187
324.529
324.778
324.91
324.91
324.778
324.529
324.187
323.781
323.341
322.891
322.454
322.055
321.753
317.861
318.104
318.429
318.786
319.154
319.514
319.846
320.125
320.328
320.435
320.435
320.328
320.125
319.846
319.514
319.154
318.786
318.429
318.104
317.861
313.933
314.12
314.372
314.649
314.935
315.215
315.472
315.689
315.847
315.93
315.93
315.847
315.689
315.472
315.215
314.935
314.649
314.372
314.12
313.933
309.977
310.109
310.289
310.487
310.691
310.891
311.075
311.229
311.342
311.401
311.401
311.342
311.229
311.075
310.891
310.691
310.487
310.289
310.109
309.977
306.001
306.08
306.187
306.306
306.429
306.549
306.659
306.752
306.82
306.855
306.855
306.82
306.752
306.659
306.549
306.429
306.306
306.187
306.08
306.001
302.013
302.039
302.075
302.115
302.156
302.196
302.233
302.265
302.287
302.299
302.299
302.287
302.265
302.233
302.196
302.156
302.115
302.075
302.039
302.013
329.587
330.01
330.55
331.136
331.739
332.329
332.872
333.33
333.663
333.838
333.838
333.663
333.33
332.872
332.329
331.739
331.136
330.55
330.01
329.587
325.766
326.125
326.59
327.097
327.619
328.129
328.599
328.994
329.282
329.434
329.434
329.282
328.994
328.599
328.129
327.619
327.097
326.59
326.125
325.766
321.893
322.19
322.582
323.011
323.452
323.883
324.28
324.613
324.856
324.984
324.984
324.856
324.613
324.28
323.883
323.452
323.011
322.582
322.19
321.893
317.976
318.215
318.534
318.885
319.245
319.598
319.922
320.194
320.392
320.497
320.497
320.392
320.194
319.922
319.598
319.245
318.885
318.534
318.215
317.976
314.022
314.206
314.454
314.726
315.006
315.28
315.532
315.744
315.897
315.978
315.978
315.897
315.744
315.532
315.28
315.006
314.726
314.454
314.206
314.022
310.041
310.171
310.348
310.542
310.742
310.938
311.117
311.268
311.378
311.436
311.436
311.378
311.268
311.117
310.938
310.742
310.542
310.348
310.171
310.041
306.039
306.117
306.223
306.34
306.46
306.577
306.685
306.776
306.842
306.876
306.876
306.842
306.776
306.685
306.577
306.46
306.34
306.223
306.117
306.039
302.026
302.052
302.087
302.126
302.167
302.206
302.242
302.272
302.295
302.306
302.306
302.295
302.272
302.242
302.206
302.167
302.126
302.087
302.052
302.026
329.872
330.285
330.811
331.381
331.966
332.537
333.062
333.503
333.823
333.992
333.992
333.823
333.503
333.062
332.537
331.966
331.381
330.811
330.285
329.872
326.014
326.364
326.817
327.311
327.817
328.311
328.765
329.146
329.423
329.569
329.569
329.423
329.146
328.765
328.311
327.817
327.311
326.817
326.364
326.014
322.103
322.394
322.776
323.193
323.621
324.038
324.421
324.743
324.977
325.1
325.1
324.977
324.743
324.421
324.038
323.621
323.193
322.776
322.394
322.103
318.148
318.382
318.694
319.034
319.384
319.725
320.039
320.302
320.492
320.593
320.593
320.492
320.302
320.039
319.725
319.384
319.034
318.694
318.382
318.148
314.157
314.336
314.578
314.843
315.115
315.38
315.623
315.828
315.976
316.054
316.054
315.976
315.828
315.623
315.38
315.115
314.843
314.578
314.336
314.157
310.137
310.264
310.437
310.626
310.82
311.009
311.183
311.329
311.434
311.49
311.49
311.434
311.329
311.183
311.009
310.82
310.626
310.437
310.264
310.137
306.097
306.173
306.276
306.39
306.507
306.62
306.725
306.812
306.876
306.909
306.909
306.876
306.812
306.725
306.62
306.507
306.39
306.276
306.173
306.097
302.045
302.071
302.105
302.143
302.182
302.22
302.255
302.285
302.306
302.317
302.317
302.306
302.285
302.255
302.22
302.182
302.143
302.105
302.071
302.045
330.253
330.654
331.162
331.712
332.274
332.822
333.323
333.744
334.049
334.209
334.209
334.049
333.744
333.323
332.822
332.274
331.712
331.162
330.654
330.253
326.346
326.685
327.124
327.6
328.086
328.56
328.994
329.357
329.621
329.759
329.759
329.621
329.357
328.994
328.56
328.086
327.6
327.124
326.685
326.346
322.385
322.667
323.036
323.439
323.85
324.25
324.617
324.924
325.146
325.263
325.263
325.146
324.924
324.617
324.25
323.85
323.439
323.036
322.667
322.385
318.38
318.606
318.908
319.236
319.573
319.9
320.199
320.45
320.632
320.727
320.727
320.632
320.45
320.199
319.9
319.573
319.236
318.908
318.606
318.38
314.338
314.511
314.745
315.001
315.262
315.516
315.749
315.944
316.085
316.159
316.159
316.085
315.944
315.749
315.516
315.262
315.001
314.745
314.511
314.338
310.267
310.39
310.556
310.739
310.925
311.107
311.273
311.412
311.513
311.566
311.566
311.513
311.412
311.273
311.107
310.925
310.739
310.556
310.39
310.267
306.175
306.249
306.348
306.458
306.57
306.679
306.779
306.862
306.923
306.955
306.955
306.923
306.862
306.779
306.679
306.57
306.458
306.348
306.249
306.175
302.071
302.096
302.129
302.166
302.204
302.24
302.274
302.302
302.322
302.332
302.332
302.322
302.302
302.274
302.24
302.204
302.166
302.129
302.096
302.071
330.733
331.118
331.606
332.132
332.668
333.188
333.662
334.059
334.346
334.497
334.497
334.346
334.059
333.662
333.188
332.668
332.132
331.606
331.118
330.733
326.764
327.09
327.511
327.966
328.43
328.88
329.29
329.633
329.881
330.012
330.012
329.881
329.633
329.29
328.88
328.43
327.966
327.511
327.09
326.764
322.74
323.011
323.366
323.75
324.142
324.523
324.87
325.159
325.369
325.479
325.479
325.369
325.159
324.87
324.523
324.142
323.75
323.366
323.011
322.74
318.671
318.889
319.178
319.493
319.813
320.124
320.408
320.644
320.815
320.905
320.905
320.815
320.644
320.408
320.124
319.813
319.493
319.178
318.889
318.671
314.565
314.732
314.956
315.201
315.45
315.692
315.912
316.096
316.229
316.299
316.299
316.229
316.096
315.912
315.692
315.45
315.201
314.956
314.732
314.565
310.429
310.548
310.708
310.882
311.06
311.233
311.39
311.521
311.616
311.666
311.666
311.616
311.521
311.39
311.233
311.06
310.882
310.708
310.548
310.429
306.273
306.344
306.439
306.544
306.651
306.755
306.849
306.928
306.985
307.015
307.015
306.985
306.928
306.849
306.755
306.651
306.544
306.439
306.344
306.273
302.104
302.128
302.16
302.195
302.231
302.266
302.297
302.324
302.343
302.353
302.353
302.343
302.324
302.297
302.266
302.231
302.195
302.16
302.128
302.104
331.313
331.681
332.146
332.646
333.152
333.641
334.086
334.457
334.724
334.864
334.864
334.724
334.457
334.086
333.641
333.152
332.646
332.146
331.681
331.313
327.268
327.581
327.982
328.414
328.852
329.276
329.661
329.981
330.212
330.334
330.334
330.212
329.981
329.661
329.276
328.852
328.414
327.982
327.581
327.268
323.169
323.428
323.766
324.131
324.502
324.86
325.185
325.456
325.651
325.754
325.754
325.651
325.456
325.185
324.86
324.502
324.131
323.766
323.428
323.169
319.023
319.232
319.507
319.806
320.109
320.402
320.668
320.889
321.048
321.132
321.132
321.048
320.889
320.668
320.402
320.109
319.806
319.507
319.232
319.023
314.839
314.999
315.213
315.445
315.681
315.908
316.115
316.287
316.411
316.476
316.476
316.411
316.287
316.115
315.908
315.681
315.445
315.213
314.999
314.839
310.626
310.739
310.891
311.057
311.226
311.388
311.536
311.659
311.747
311.793
311.793
311.747
311.659
311.536
311.388
311.226
311.057
310.891
310.739
310.626
306.391
306.459
306.55
306.65
306.751
306.848
306.937
307.011
307.064
307.092
307.092
307.064
307.011
306.937
306.848
306.751
306.65
306.55
306.459
306.391
302.144
302.166
302.197
302.23
302.264
302.297
302.327
302.351
302.369
302.379
302.379
302.369
302.351
302.327
302.297
302.264
302.23
302.197
302.166
302.144
331.995
332.345
332.785
333.256
333.731
334.187
334.601
334.945
335.191
335.321
335.321
335.191
334.945
334.601
334.187
333.731
333.256
332.785
332.345
331.995
327.862
328.159
328.538
328.946
329.357
329.753
330.111
330.408
330.621
330.733
330.733
330.621
330.408
330.111
329.753
329.357
328.946
328.538
328.159
327.862
323.674
323.92
324.239
324.584
324.932
325.266
325.569
325.82
326
326.095
326.095
326
325.82
325.569
325.266
324.932
324.584
324.239
323.92
323.674
319.437
319.635
319.896
320.178
320.462
320.736
320.983
321.188
321.336
321.413
321.413
321.336
321.188
320.983
320.736
320.462
320.178
319.896
319.635
319.437
315.162
315.314
315.517
315.735
315.957
316.169
316.362
316.521
316.636
316.696
316.696
316.636
316.521
316.362
316.169
315.957
315.735
315.517
315.314
315.162
310.857
310.965
311.109
311.265
311.423
311.575
311.712
311.826
311.908
311.951
311.951
311.908
311.826
311.712
311.575
311.423
311.265
311.109
310.965
310.857
306.53
306.594
306.681
306.775
306.87
306.961
307.043
307.112
307.161
307.187
307.187
307.161
307.112
307.043
306.961
306.87
306.775
306.681
306.594
306.53
302.19
302.212
302.241
302.272
302.304
302.335
302.362
302.385
302.402
302.41
302.41
302.402
302.385
302.362
302.335
302.304
302.272
302.241
302.212
302.19
332.781
333.112
333.526
333.967
334.409
334.833
335.215
335.53
335.757
335.875
335.875
335.757
335.53
335.215
334.833
334.409
333.967
333.526
333.112
332.781
328.547
328.827
329.184
329.566
329.949
330.316
330.646
330.92
331.115
331.218
331.218
331.115
330.92
330.646
330.316
329.949
329.566
329.184
328.827
328.547
324.255
324.487
324.789
325.111
325.435
325.745
326.025
326.256
326.421
326.508
326.508
326.421
326.256
326.025
325.745
325.435
325.111
324.789
324.487
324.255
319.915
320.102
320.347
320.611
320.876
321.13
321.358
321.547
321.682
321.753
321.753
321.682
321.547
321.358
321.13
320.876
320.611
320.347
320.102
319.915
315.535
315.678
315.869
316.074
316.28
316.477
316.655
316.802
316.907
316.962
316.962
316.907
316.802
316.655
316.477
316.28
316.074
315.869
315.678
315.535
311.124
311.225
311.361
311.507
311.655
311.796
311.923
312.027
312.103
312.142
312.142
312.103
312.027
311.923
311.796
311.655
311.507
311.361
311.225
311.124
306.691
306.751
306.833
306.921
307.009
307.094
307.17
307.233
307.278
307.301
307.301
307.278
307.233
307.17
307.094
307.009
306.921
306.833
306.751
306.691
302.244
302.265
302.292
302.321
302.351
302.379
302.405
302.426
302.441
302.449
302.449
302.441
302.426
302.405
302.379
302.351
302.321
302.292
302.265
302.244
333.674
333.985
334.372
334.783
335.192
335.583
335.933
336.221
336.427
336.535
336.535
336.427
336.221
335.933
335.583
335.192
334.783
334.372
333.985
333.674
329.324
329.587
329.922
330.277
330.632
330.97
331.273
331.523
331.701
331.794
331.794
331.701
331.523
331.273
330.97
330.632
330.277
329.922
329.587
329.324
324.915
325.134
325.415
325.716
326.016
326.302
326.558
326.769
326.92
326.999
326.999
326.92
326.769
326.558
326.302
326.016
325.716
325.415
325.134
324.915
320.457
320.632
320.862
321.108
321.353
321.587
321.797
321.97
322.093
322.157
322.157
322.093
321.97
321.797
321.587
321.353
321.108
320.862
320.632
320.457
315.957
316.092
316.27
316.461
316.652
316.834
316.997
317.132
317.227
317.277
317.277
317.227
317.132
316.997
316.834
316.652
316.461
316.27
316.092
315.957
311.426
311.522
311.649
311.785
311.922
312.052
312.168
312.264
312.332
312.368
312.368
312.332
312.264
312.168
312.052
311.922
311.785
311.649
311.522
311.426
306.873
306.93
307.006
307.088
307.17
307.248
307.318
307.375
307.416
307.438
307.438
307.416
307.375
307.318
307.248
307.17
307.088
307.006
306.93
306.873
302.305
302.324
302.35
302.377
302.405
302.431
302.454
302.474
302.487
302.495
302.495
302.487
302.474
302.454
302.431
302.405
302.377
302.35
302.324
302.305
334.675
334.966
335.326
335.706
336.084
336.441
336.761
337.023
337.209
337.306
337.306
337.209
337.023
336.761
336.441
336.084
335.706
335.326
334.966
334.675
330.196
330.442
330.753
331.082
331.409
331.719
331.995
332.222
332.384
332.468
332.468
332.384
332.222
331.995
331.719
331.409
331.082
330.753
330.442
330.196
325.656
325.86
326.122
326.4
326.677
326.939
327.173
327.365
327.501
327.573
327.573
327.501
327.365
327.173
326.939
326.677
326.4
326.122
325.86
325.656
321.064
321.229
321.443
321.67
321.896
322.111
322.302
322.459
322.571
322.629
322.629
322.571
322.459
322.302
322.111
321.896
321.67
321.443
321.229
321.064
316.431
316.557
316.723
316.9
317.076
317.243
317.392
317.514
317.601
317.646
317.646
317.601
317.514
317.392
317.243
317.076
316.9
316.723
316.557
316.431
311.766
311.855
311.973
312.1
312.225
312.345
312.451
312.538
312.6
312.632
312.632
312.6
312.538
312.451
312.345
312.225
312.1
311.973
311.855
311.766
307.077
307.13
307.201
307.277
307.352
307.424
307.488
307.54
307.577
307.597
307.597
307.577
307.54
307.488
307.424
307.352
307.277
307.201
307.13
307.077
302.374
302.392
302.415
302.441
302.466
302.49
302.511
302.529
302.542
302.548
302.548
302.542
302.529
302.511
302.49
302.466
302.441
302.415
302.392
302.374
335.786
336.057
336.391
336.741
337.087
337.414
337.704
337.94
338.108
338.196
338.196
338.108
337.94
337.704
337.414
337.087
336.741
336.391
336.057
335.786
331.163
331.392
331.68
331.984
332.284
332.566
332.818
333.023
333.168
333.244
333.244
333.168
333.023
332.818
332.566
332.284
331.984
331.68
331.392
331.163
326.477
326.667
326.91
327.167
327.421
327.66
327.872
328.046
328.169
328.233
328.233
328.169
328.046
327.872
327.66
327.421
327.167
326.91
326.667
326.477
321.739
321.892
322.09
322.3
322.507
322.703
322.877
323.019
323.12
323.172
323.172
323.12
323.019
322.877
322.703
322.507
322.3
322.09
321.892
321.739
316.957
317.075
317.228
317.392
317.553
317.705
317.841
317.951
318.029
318.07
318.07
318.029
317.951
317.841
317.705
317.553
317.392
317.228
317.075
316.957
312.142
312.225
312.335
312.451
312.567
312.676
312.772
312.851
312.907
312.936
312.936
312.907
312.851
312.772
312.676
312.567
312.451
312.335
312.225
312.142
307.303
307.353
307.419
307.488
307.558
307.623
307.681
307.729
307.762
307.78
307.78
307.762
307.729
307.681
307.623
307.558
307.488
307.419
307.353
307.303
302.45
302.466
302.488
302.512
302.535
302.557
302.576
302.592
302.604
302.609
302.609
302.604
302.592
302.576
302.557
302.535
302.512
302.488
302.466
302.45
337.008
337.259
337.568
337.889
338.206
338.502
338.764
338.977
339.128
339.207
339.207
339.128
338.977
338.764
338.502
338.206
337.889
337.568
337.259
337.008
332.226
332.439
332.705
332.984
333.258
333.515
333.742
333.927
334.058
334.126
334.126
334.058
333.927
333.742
333.515
333.258
332.984
332.705
332.439
332.226
327.381
327.557
327.781
328.017
328.249
328.466
328.659
328.815
328.926
328.983
328.983
328.926
328.815
328.659
328.466
328.249
328.017
327.781
327.557
327.381
322.48
322.622
322.805
322.998
323.188
323.366
323.523
323.651
323.741
323.788
323.788
323.741
323.651
323.523
323.366
323.188
322.998
322.805
322.622
322.48
317.536
317.645
317.787
317.936
318.084
318.223
318.345
318.444
318.515
318.551
318.551
318.515
318.444
318.345
318.223
318.084
317.936
317.787
317.645
317.536
312.556
312.633
312.735
312.842
312.947
313.046
313.134
313.205
313.255
313.281
313.281
313.255
313.205
313.134
313.046
312.947
312.842
312.735
312.633
312.556
307.552
307.598
307.659
307.723
307.787
307.846
307.899
307.941
307.971
307.987
307.987
307.971
307.941
307.899
307.846
307.787
307.723
307.659
307.598
307.552
302.533
302.549
302.569
302.591
302.612
302.632
302.649
302.664
302.674
302.679
302.679
302.674
302.664
302.649
302.632
302.612
302.591
302.569
302.549
302.533
338.341
338.573
338.858
339.152
339.44
339.709
339.945
340.136
340.271
340.341
340.341
340.271
340.136
339.945
339.709
339.44
339.152
338.858
338.573
338.341
333.387
333.583
333.829
334.084
334.333
334.566
334.771
334.937
335.054
335.115
335.115
335.054
334.937
334.771
334.566
334.333
334.084
333.829
333.583
333.387
328.366
328.529
328.736
328.952
329.163
329.36
329.533
329.674
329.773
329.824
329.824
329.773
329.674
329.533
329.36
329.163
328.952
328.736
328.529
328.366
323.289
323.42
323.589
323.765
323.938
324.1
324.242
324.356
324.437
324.479
324.479
324.437
324.356
324.242
324.1
323.938
323.765
323.589
323.42
323.289
318.166
318.267
318.398
318.535
318.67
318.795
318.906
318.995
319.058
319.091
319.091
319.058
318.995
318.906
318.795
318.67
318.535
318.398
318.267
318.166
313.008
313.079
313.172
313.27
313.367
313.456
313.535
313.599
313.644
313.667
313.667
313.644
313.599
313.535
313.456
313.367
313.27
313.172
313.079
313.008
307.824
307.866
307.922
307.981
308.039
308.093
308.14
308.178
308.206
308.22
308.22
308.206
308.178
308.14
308.093
308.039
307.981
307.922
307.866
307.824
302.624
302.639
302.657
302.677
302.696
302.714
302.73
302.743
302.752
302.757
302.757
302.752
302.743
302.73
302.714
302.696
302.677
302.657
302.639
302.624
339.784
339.998
340.259
340.528
340.79
341.032
341.245
341.416
341.537
341.599
341.599
341.537
341.416
341.245
341.032
340.79
340.528
340.259
339.998
339.784
334.642
334.823
335.048
335.282
335.508
335.719
335.903
336.052
336.156
336.21
336.21
336.156
336.052
335.903
335.719
335.508
335.282
335.048
334.823
334.642
329.432
329.582
329.772
329.969
330.161
330.339
330.495
330.621
330.71
330.755
330.755
330.71
330.621
330.495
330.339
330.161
329.969
329.772
329.582
329.432
324.164
324.285
324.439
324.601
324.758
324.904
325.031
325.134
325.207
325.244
325.244
325.207
325.134
325.031
324.904
324.758
324.601
324.439
324.285
324.164
318.848
318.941
319.061
319.186
319.309
319.422
319.522
319.602
319.658
319.687
319.687
319.658
319.602
319.522
319.422
319.309
319.186
319.061
318.941
318.848
313.496
313.561
313.647
313.737
313.824
313.905
313.976
314.034
314.074
314.095
314.095
314.074
314.034
313.976
313.905
313.824
313.737
313.647
313.561
313.496
308.117
308.156
308.208
308.262
308.314
308.363
308.405
308.44
308.464
308.477
308.477
308.464
308.44
308.405
308.363
308.314
308.262
308.208
308.156
308.117
302.723
302.736
302.753
302.771
302.789
302.805
302.819
302.831
302.839
302.843
302.843
302.839
302.831
302.819
302.805
302.789
302.771
302.753
302.736
302.723
341.33
341.527
341.766
342.011
342.248
342.467
342.658
342.812
342.919
342.975
342.975
342.919
342.812
342.658
342.467
342.248
342.011
341.766
341.527
341.33
335.986
336.153
336.359
336.572
336.777
336.967
337.133
337.266
337.359
337.407
337.407
337.359
337.266
337.133
336.967
336.777
336.572
336.359
336.153
335.986
330.572
330.71
330.884
331.064
331.238
331.399
331.539
331.652
331.731
331.772
331.772
331.731
331.652
331.539
331.399
331.238
331.064
330.884
330.71
330.572
325.099
325.21
325.352
325.499
325.641
325.773
325.888
325.98
326.045
326.078
326.078
326.045
325.98
325.888
325.773
325.641
325.499
325.352
325.21
325.099
319.577
319.662
319.772
319.886
319.997
320.1
320.189
320.261
320.311
320.337
320.337
320.311
320.261
320.189
320.1
319.997
319.886
319.772
319.662
319.577
314.017
314.077
314.156
314.238
314.317
314.39
314.454
314.505
314.541
314.56
314.56
314.541
314.505
314.454
314.39
314.317
314.238
314.156
314.077
314.017
308.43
308.467
308.514
308.563
308.61
308.654
308.693
308.724
308.745
308.756
308.756
308.745
308.724
308.693
308.654
308.61
308.563
308.514
308.467
308.43
302.828
302.84
302.856
302.872
302.888
302.903
302.916
302.926
302.933
302.937
302.937
302.933
302.926
302.916
302.903
302.888
302.872
302.856
302.84
302.828
342.961
343.142
343.361
343.585
343.8
343.997
344.169
344.306
344.402
344.452
344.452
344.402
344.306
344.169
343.997
343.8
343.585
343.361
343.142
342.961
337.401
337.555
337.744
337.937
338.124
338.295
338.444
338.563
338.647
338.689
338.689
338.647
338.563
338.444
338.295
338.124
337.937
337.744
337.555
337.401
331.771
331.898
332.057
332.221
332.379
332.524
332.65
332.751
332.822
332.858
332.858
332.822
332.751
332.65
332.524
332.379
332.221
332.057
331.898
331.771
326.08
326.182
326.312
326.446
326.576
326.694
326.798
326.88
326.938
326.968
326.968
326.938
326.88
326.798
326.694
326.576
326.446
326.312
326.182
326.08
320.34
320.419
320.52
320.624
320.725
320.817
320.898
320.962
321.007
321.03
321.03
321.007
320.962
320.898
320.817
320.725
320.624
320.52
320.419
320.34
314.563
314.619
314.69
314.765
314.837
314.903
314.96
315.006
315.039
315.055
315.055
315.039
315.006
314.96
314.903
314.837
314.765
314.69
314.619
314.563
308.758
308.792
308.835
308.88
308.923
308.962
308.997
309.025
309.044
309.054
309.054
309.044
309.025
308.997
308.962
308.923
308.88
308.835
308.792
308.758
302.938
302.949
302.963
302.978
302.993
303.006
303.018
303.027
303.033
303.037
303.037
303.033
303.027
303.018
303.006
302.993
302.978
302.963
302.949
302.938
344.634
344.8
345.001
345.205
345.4
345.578
345.733
345.856
345.942
345.986
345.986
345.942
345.856
345.733
345.578
345.4
345.205
345.001
344.8
344.634
338.846
338.987
339.16
339.337
339.506
339.661
339.795
339.902
339.977
340.015
340.015
339.977
339.902
339.795
339.661
339.506
339.337
339.16
338.987
338.846
332.989
333.106
333.252
333.401
333.545
333.676
333.79
333.881
333.944
333.976
333.976
333.944
333.881
333.79
333.676
333.545
333.401
333.252
333.106
332.989
327.074
327.168
327.287
327.409
327.527
327.635
327.728
327.802
327.854
327.881
327.881
327.854
327.802
327.728
327.635
327.527
327.409
327.287
327.168
327.074
321.111
321.184
321.276
321.372
321.463
321.547
321.619
321.677
321.718
321.738
321.738
321.718
321.677
321.619
321.547
321.463
321.372
321.276
321.184
321.111
315.113
315.164
315.23
315.298
315.364
315.424
315.475
315.517
315.546
315.56
315.56
315.546
315.517
315.475
315.424
315.364
315.298
315.23
315.164
315.113
309.088
309.119
309.158
309.199
309.239
309.275
309.306
309.331
309.348
309.357
309.357
309.348
309.331
309.306
309.275
309.239
309.199
309.158
309.119
309.088
303.048
303.058
303.072
303.085
303.099
303.111
303.121
303.129
303.135
303.138
303.138
303.135
303.129
303.121
303.111
303.099
303.085
303.072
303.058
303.048
346.236
346.39
346.575
346.763
346.941
347.104
347.244
347.356
347.433
347.473
347.473
347.433
347.356
347.244
347.104
346.941
346.763
346.575
346.39
346.236
340.213
340.344
340.503
340.666
340.821
340.963
341.085
341.182
341.249
341.284
341.284
341.249
341.182
341.085
340.963
340.821
340.666
340.503
340.344
340.213
334.129
334.238
334.373
334.51
334.642
334.762
334.866
334.948
335.005
335.035
335.035
335.005
334.948
334.866
334.762
334.642
334.51
334.373
334.238
334.129
327.996
328.083
328.193
328.306
328.414
328.513
328.597
328.665
328.712
328.736
328.736
328.712
328.665
328.597
328.513
328.414
328.306
328.193
328.083
327.996
321.821
321.889
321.974
322.062
322.146
322.223
322.289
322.342
322.378
322.397
322.397
322.378
322.342
322.289
322.223
322.146
322.062
321.974
321.889
321.821
315.616
315.664
315.725
315.788
315.848
315.903
315.95
315.988
316.014
316.028
316.028
316.014
315.988
315.95
315.903
315.848
315.788
315.725
315.664
315.616
309.389
309.418
309.454
309.492
309.528
309.561
309.59
309.612
309.628
309.636
309.636
309.628
309.612
309.59
309.561
309.528
309.492
309.454
309.418
309.389
303.149
303.158
303.171
303.183
303.195
303.206
303.216
303.224
303.229
303.232
303.232
303.229
303.224
303.216
303.206
303.195
303.183
303.171
303.158
303.149
347.485
347.63
347.803
347.979
348.146
348.298
348.428
348.532
348.604
348.641
348.641
348.604
348.532
348.428
348.298
348.146
347.979
347.803
347.63
347.485
341.238
341.361
341.512
341.665
341.81
341.943
342.057
342.147
342.21
342.242
342.242
342.21
342.147
342.057
341.943
341.81
341.665
341.512
341.361
341.238
334.958
335.061
335.188
335.318
335.442
335.555
335.652
335.729
335.782
335.81
335.81
335.782
335.729
335.652
335.555
335.442
335.318
335.188
335.061
334.958
328.649
328.732
328.836
328.943
329.045
329.138
329.217
329.281
329.324
329.347
329.347
329.324
329.281
329.217
329.138
329.045
328.943
328.836
328.732
328.649
322.316
322.379
322.461
322.544
322.623
322.696
322.758
322.807
322.841
322.859
322.859
322.841
322.807
322.758
322.696
322.623
322.544
322.461
322.379
322.316
315.962
316.007
316.065
316.125
316.182
316.234
316.278
316.313
316.338
316.351
316.351
316.338
316.313
316.278
316.234
316.182
316.125
316.065
316.007
315.962
309.594
309.621
309.656
309.692
309.726
309.757
309.784
309.805
309.82
309.827
309.827
309.82
309.805
309.784
309.757
309.726
309.692
309.656
309.621
309.594
303.217
303.226
303.238
303.25
303.261
303.272
303.281
303.288
303.293
303.295
303.295
303.293
303.288
303.281
303.272
303.261
303.25
303.238
303.226
303.217
)
;

boundaryField
{
    hotSide
    {
        type            fixedGradient;
        gradient        nonuniform List<scalar> 
400
(
297.959
298.921
300.849
303.752
307.643
312.538
318.456
325.417
333.441
342.549
352.762
364.098
376.575
390.209
405.013
420.999
438.176
456.553
476.136
496.93
303.663
304.579
306.418
309.192
312.918
317.617
323.314
330.034
337.804
346.652
356.601
367.676
379.897
393.283
407.85
423.611
440.577
458.757
478.156
498.78
309.835
310.697
312.431
315.051
318.582
323.05
328.487
334.928
342.406
350.955
360.605
371.386
383.322
396.434
410.742
426.259
442.998
460.966
480.17
500.615
316.374
317.173
318.784
321.227
324.532
328.735
333.877
340.002
347.151
355.367
364.687
375.146
386.771
399.59
413.621
428.88
445.379
463.128
482.132
502.393
323.096
323.826
325.298
327.542
330.596
334.505
339.323
345.102
351.895
359.753
368.721
378.839
390.141
402.653
416.4
431.396
447.654
465.182
483.985
504.066
329.723
330.376
331.702
333.734
336.521
340.121
344.598
350.017
356.443
363.934
372.545
382.32
393.298
405.509
418.975
433.715
449.74
467.057
485.67
505.579
335.873
336.451
337.63
339.452
341.975
345.27
349.413
354.483
360.555
367.696
375.967
385.419
396.094
408.024
421.233
435.739
451.552
468.678
487.12
506.877
341.094
341.604
342.65
344.282
346.569
349.593
353.442
358.204
363.965
370.801
378.779
387.954
398.371
410.064
423.057
437.367
453.004
469.973
488.274
507.906
344.914
345.372
346.317
347.805
349.912
352.73
356.356
360.887
366.416
373.025
380.786
389.758
399.986
411.505
424.341
438.51
454.02
470.877
489.078
508.621
346.938
347.367
348.257
349.667
351.677
354.383
357.888
362.295
367.699
374.187
381.833
390.696
400.824
412.252
425.005
439.1
454.544
471.341
489.491
508.988
346.938
347.367
348.257
349.667
351.677
354.383
357.888
362.295
367.699
374.187
381.833
390.696
400.824
412.252
425.005
439.1
454.544
471.341
489.491
508.988
344.914
345.372
346.317
347.805
349.912
352.73
356.356
360.887
366.416
373.025
380.786
389.758
399.986
411.505
424.341
438.51
454.02
470.877
489.078
508.621
341.094
341.604
342.65
344.282
346.569
349.593
353.442
358.204
363.965
370.801
378.779
387.954
398.371
410.064
423.057
437.367
453.004
469.973
488.274
507.906
335.873
336.451
337.63
339.452
341.975
345.27
349.413
354.483
360.555
367.696
375.967
385.419
396.094
408.024
421.233
435.739
451.552
468.678
487.12
506.877
329.723
330.376
331.702
333.734
336.521
340.121
344.598
350.017
356.443
363.934
372.545
382.32
393.298
405.509
418.975
433.715
449.74
467.057
485.67
505.579
323.096
323.826
325.298
327.542
330.596
334.505
339.323
345.102
351.895
359.753
368.721
378.839
390.141
402.653
416.4
431.396
447.654
465.182
483.985
504.066
316.374
317.173
318.784
321.227
324.532
328.735
333.877
340.002
347.151
355.367
364.687
375.146
386.771
399.59
413.621
428.88
445.379
463.128
482.132
502.393
309.835
310.697
312.431
315.051
318.582
323.05
328.487
334.928
342.406
350.955
360.605
371.386
383.322
396.434
410.742
426.259
442.998
460.966
480.17
500.615
303.663
304.579
306.418
309.192
312.918
317.617
323.314
330.034
337.804
346.652
356.601
367.676
379.897
393.283
407.85
423.611
440.577
458.757
478.156
498.78
297.959
298.921
300.849
303.752
307.643
312.538
318.456
325.417
333.441
342.549
352.762
364.098
376.575
390.209
405.013
420.999
438.176
456.553
476.136
496.93
)
;
    }
    coldSide
    {
        type            mixed;
        refValue        uniform 300;
        refGradient     uniform 0;
        valueFraction   uniform 0.991591;
        source          uniform 0;
        value           nonuniform List<scalar> 
400
(
300.017
300.017
300.017
300.017
300.017
300.018
300.018
300.018
300.019
300.019
300.02
300.021
300.021
300.022
300.023
300.024
300.025
300.026
300.026
300.027
300.017
300.017
300.017
300.017
300.018
300.018
300.018
300.019
300.019
300.02
300.02
300.021
300.021