/*--------------------------------*- C++ -*----------------------------------*\
| =========                 |                                                 |
| \\      /  F ield         | OpenFOAM: The Open Source CFD Toolbox           |
|  \\    /   O peration     | Version:  2212                                  |
|   \\  /    A nd           | Website:  www.openfoam.com                      |
|    \\/     M anipulation  |                                                 |
\*---------------------------------------------------------------------------*/
FoamFile
{
    version     2.0;
    format      ascii;
    arch        "LSB;label=32;scalar=64";
    class       volScalarField;
    location    "0";
    object      T;
}
// * * * * * * * * * * * * * * * * * * * * * * * * * * * * * * * * * * * * * //

dimensions      [0 0 0 1 0 0 0];

internalField   nonuniform List<scalar> 
3200
(
341.738
342.963
343.478
344.702
345.658
345.975
346.536
347.096
347.085
347.327
347.45
347.11
346.513
345.686
345.535
344.553
344.037
342.725
341.823
340.738
336.313
337.311
337.741
338.833
339.606
339.932
340.369
340.868
340.881
341.087
341.253
340.917
340.349
339.636
339.537
338.707
338.258
337.082
336.342
335.435
330.83
331.601
331.935
332.912
333.522
333.843
334.175
334.577
334.657
334.836
334.958
334.679
334.169
333.558
333.515
332.803
332.426
331.431
330.78
330.074
325.313
325.877
326.176
326.944
327.468
327.684
327.966
328.235
328.418
328.551
328.669
328.453
327.97
327.514
327.441
326.863
326.591
325.772
325.211
324.648
319.719
320.128
320.416
320.977
321.404
321.517
321.8
321.962
322.103
322.308
322.334
322.119
321.787
321.43
321.36
320.879
320.685
320.094
319.602
319.191
314.128
314.341
314.633
315
315.312
315.374
315.591
315.715
315.796
316.029
315.944
315.792
315.592
315.347
315.323
314.91
314.783
314.393
313.966
313.686
308.522
308.621
308.81
309.004
309.208
309.214
309.403
309.432
309.468
309.656
309.558
309.491
309.378
309.232
309.22
308.939
308.908
308.637
308.402
308.206
302.869
302.885
302.943
303.009
303.063
303.116
303.154
303.168
303.149
303.244
303.205
303.194
303.157
303.098
303.081
303.005
302.999
302.901
302.815
302.738
342.801
343.714
344.492
345.404
346.343
346.792
347.45
347.815
347.972
348.223
348.38
347.68
347.393
346.718
346.226
345.669
344.652
343.664
342.475
341.619
337.162
337.915
338.616
339.409
340.241
340.547
341.139
341.463
341.628
341.807
341.959
341.384
341.109
340.491
340.071
339.595
338.716
337.884
336.856
336.125
331.504
332.133
332.724
333.377
334.092
334.37
334.847
335.117
335.26
335.415
335.519
335.078
334.818
334.254
333.897
333.491
332.797
332.085
331.212
330.636
325.841
326.333
326.806
327.32
327.91
328.103
328.535
328.775
328.887
329.036
329.004
328.762
328.523
328.05
327.733
327.398
326.867
326.253
325.515
325.144
320.136
320.504
320.826
321.266
321.702
321.826
322.228
322.4
322.515
322.642
322.574
322.4
322.223
321.85
321.55
321.273
320.938
320.427
319.855
319.601
314.401
314.648
314.884
315.232
315.505
315.599
315.9
316.034
316.094
316.237
316.149
316.014
315.855
315.62
315.362
315.147
314.956
314.584
314.193
314.038
308.633
308.78
308.922
309.193
309.297
309.354
309.588
309.621
309.665
309.755
309.699
309.647
309.514
309.381
309.2
309.072
308.999
308.75
308.542
308.452
302.887
302.949
303
303.094
303.099
303.133
303.21
303.219
303.233
303.265
303.263
303.239
303.16
303.155
303.083
303.028
303.035
302.935
302.854
302.834
344.006
344.746
345.665
346.491
347.366
347.762
348.592
348.985
349.182
349.249
349.242
348.965
348.488
347.861
347.405
346.694
345.801
344.751
343.749
342.474
338.197
338.785
339.578
340.344
341.053
341.379
342.138
342.469
342.652
342.684
342.667
342.424
342.097
341.474
341.1
340.445
339.753
338.807
337.939
336.836
332.375
332.836
333.512
334.179
334.76
334.995
335.661
335.956
336.116
336.153
336.11
335.888
335.707
335.105
334.8
334.193
333.664
332.858
332.076
331.189
326.498
326.949
327.448
328.03
328.461
328.65
329.203
329.445
329.592
329.617
329.573
329.355
329.258
328.71
328.481
327.936
327.553
326.898
326.213
325.517
320.599
321.011
321.349
321.832
322.155
322.263
322.724
322.945
323.043
323.046
323.085
322.84
322.764
322.302
322.152
321.687
321.435
320.941
320.42
319.883
314.705
315.065
315.263
315.601
315.847
315.88
316.228
316.426
316.468
316.434
316.503
316.308
316.313
315.914
315.832
315.469
315.322
314.967
314.612
314.18
308.8
309.086
309.141
309.412
309.526
309.502
309.722
309.873
309.85
309.865
309.913
309.816
309.853
309.59
309.499
309.278
309.181
309.003
308.778
308.501
302.938
303.051
303.052
303.169
303.178
303.175
303.261
303.311
303.272
303.294
303.327
303.308
303.289
303.208
303.19
303.1
303.08
303.026
302.936
302.854
345.12
346.03
346.999
347.854
348.507
349.103
349.839
350.074
350.347
350.344
350.171
350.151
349.779
349.283
348.678
347.804
346.805
345.827
344.752
343.726
339.159
339.941
340.717
341.503
342.058
342.581
343.188
343.404
343.659
343.593
343.473
343.462
343.161
342.677
342.175
341.391
340.587
339.71
338.822
337.927
333.157
333.835
334.455
335.163
335.593
336.057
336.552
336.685
336.959
336.865
336.782
336.772
336.546
336.079
335.695
335.017
334.33
333.605
332.865
332.072
327.157
327.703
328.23
328.823
329.131
329.528
329.948
330.008
330.225
330.168
330.136
330.094
329.959
329.47
329.255
328.632
328.1
327.537
326.947
326.239
321.146
321.578
322.03
322.4
322.668
322.952
323.322
323.362
323.481
323.488
323.479
323.39
323.316
322.927
322.763
322.294
321.87
321.437
321.03
320.385
315.096
315.41
315.796
315.991
316.203
316.407
316.671
316.701
316.766
316.769
316.796
316.713
316.666
316.413
316.259
315.911
315.643
315.3
315.084
314.562
309.052
309.263
309.516
309.623
309.758
309.859
309.978
310.017
310.075
310.076
310.114
310.018
310.023
309.849
309.734
309.535
309.419
309.146
309.044
308.724
303.027
303.119
303.198
303.209
303.265
303.326
303.342
303.348
303.376
303.362
303.399
303.334
303.369
303.314
303.266
303.187
303.178
303.057
303.034
302.906
346.168
346.947
348.1
349.043
349.598
350.489
351.076
351.343
351.521
351.56
351.585
351.407
351.074
350.551
349.561
348.776
347.868
346.893
345.89
344.875
340.056
340.689
341.716
342.518
342.957
343.715
344.244
344.507
344.639
344.68
344.712
344.536
344.255
343.865
342.928
342.285
341.48
340.593
339.738
338.96
333.911
334.425
335.329
335.944
336.322
336.996
337.443
337.648
337.75
337.82
337.807
337.642
337.418
337.137
336.327
335.795
335.099
334.331
333.603
333.046
327.76
328.166
328.908
329.366
329.724
330.316
330.611
330.808
330.841
330.982
330.902
330.794
330.587
330.398
329.754
329.326
328.783
328.052
327.458
327.109
321.6
321.909
322.499
322.792
323.178
323.601
323.776
323.934
323.974
324.139
324.057
323.984
323.773
323.609
323.207
322.794
322.443
321.812
321.321
321.089
315.432
315.649
316.1
316.265
316.586
316.85
316.972
317.088
317.124
317.274
317.223
317.159
316.975
316.861
316.618
316.227
316.077
315.581
315.195
315.091
309.285
309.448
309.676
309.74
309.939
310.103
310.171
310.248
310.264
310.372
310.388
310.303
310.221
310.131
310.017
309.739
309.689
309.356
309.097
309.054
303.122
303.18
303.222
303.238
303.332
303.383
303.4
303.423
303.421
303.483
303.487
303.47
303.444
303.391
303.357
303.272
303.238
303.141
303.049
303.025
347.204
348.205
349.223
350.199
350.926
351.87
352.3
352.459
352.74
352.907
352.723
352.694
352.361
351.913
350.721
350.056
349.206
348.008
346.888
345.912
340.916
341.729
342.637
343.486
344.11
344.959
345.345
345.422
345.697
345.855
345.685
345.682
345.369
345.003
343.925
343.405
342.685
341.601
340.67
339.863
334.646
335.281
336.113
336.753
337.324
338.04
338.361
338.408
338.672
338.766
338.689
338.648
338.323
338.052
337.128
336.735
336.159
335.198
334.434
333.735
328.356
328.844
329.587
330.092
330.534
331.122
331.386
331.412
331.661
331.685
331.695
331.659
331.29
331.162
330.402
330.075
329.6
328.751
328.191
327.621
322.064
322.431
323.024
323.369
323.768
324.225
324.373
324.431
324.662
324.6
324.694
324.639
324.289
324.276
323.705
323.386
323.02
322.339
321.92
321.478
315.771
316.059
316.429
316.673
316.985
317.324
317.387
317.413
317.667
317.573
317.68
317.595
317.33
317.348
316.969
316.705
316.487
315.887
315.636
315.354
309.479
309.659
309.879
310.022
310.201
310.378
310.454
310.451
310.641
310.572
310.602
310.556
310.391
310.42
310.221
310.029
309.934
309.548
309.419
309.231
303.185
303.224
303.316
303.361
303.418
303.469
303.501
303.499
303.576
303.553
303.562
303.532
303.479
303.489
303.438
303.361
303.345
303.176
303.163
303.105
348.058
349.068
350.372
351.233
351.999
352.844
353.554
353.58
354.044
354.036
354.062
353.744
353.19
352.716
351.927
351.219
350.248
348.971
347.895
346.618
341.653
342.502
343.632
344.394
345.037
345.819
346.433
346.41
346.828
346.884
346.843
346.532
346.066
345.678
345.024
344.399
343.578
342.425
341.537
340.454
335.262
336.012
336.934
337.563
338.058
338.788
339.305
339.267
339.647
339.695
339.637
339.37
338.931
338.681
338.112
337.617
336.902
335.866
335.123
334.202
328.853
329.53
330.247
330.746
331.114
331.697
332.185
332.128
332.436
332.452
332.418
332.266
331.809
331.698
331.215
330.787
330.181
329.317
328.717
327.967
322.495
323.009
323.502
323.944
324.199
324.617
325.072
325.017
325.237
325.229
325.18
325.125
324.707
324.701
324.299
323.907
323.471
322.778
322.329
321.785
316.108
316.435
316.793
317.113
317.31
317.586
317.913
317.886
318.019
318.04
317.981
317.955
317.637
317.665
317.386
317.079
316.792
316.255
315.957
315.549
309.7
309.904
310.089
310.293
310.415
310.573
310.756
310.769
310.803
310.861
310.794
310.761
310.576
310.612
310.471
310.269
310.087
309.794
309.622
309.34
303.245
303.319
303.373
303.459
303.495
303.534
303.586
303.619
303.604
303.64
303.631
303.624
303.547
303.58
303.524
303.451
303.368
303.295
303.215
303.149
348.834
350.038
351.241
352.379
353.026
353.68
354.479
354.742
355.141
355.15
355.008
354.857
354.422
353.769
353.174
352.145
351.109
349.775
348.775
347.752
342.328
343.412
344.475
345.369
345.965
346.495
347.223
347.418
347.792
347.775
347.7
347.523
347.127
346.613
346.067
345.184
344.336
343.189
342.295
341.387
335.808
336.785
337.647
338.401
338.905
339.305
339.961
340.081
340.426
340.47
340.424
340.207
339.845
339.444
338.966
338.251
337.542
336.579
335.841
335.018
329.308
330.111
330.846
331.403
331.859
332.146
332.723
332.787
333.038
333.075
333.099
332.895
332.624
332.3
331.903
331.312
330.69
329.986
329.372
328.659
322.821
323.474
324.048
324.432
324.8
325.009
325.493
325.501
325.695
325.724
325.741
325.596
325.38
325.15
324.807
324.343
323.859
323.348
322.896
322.304
316.293
316.792
317.192
317.474
317.73
317.869
318.206
318.253
318.376
318.386
318.384
318.267
318.128
317.972
317.725
317.383
317.014
316.723
316.374
315.921
309.805
310.1
310.306
310.501
310.64
310.711
310.945
310.997
311.046
311.039
311.036
310.946
310.889
310.807
310.667
310.428
310.205
310.031
309.835
309.583
303.299
303.388
303.439
303.528
303.573
303.598
303.668
303.696
303.708
303.694
303.694
303.675
303.653
303.596
303.593
303.486
303.419
303.354
303.301
303.214
349.68
350.967
352.156
353.189
354.009
354.739
355.312
355.802
355.873
356
355.921
355.888
355.556
354.75
354.192
353.082
351.942
350.797
349.575
348.4
343.033
344.147
345.178
346.125
346.808
347.404
347.904
348.323
348.423
348.509
348.458
348.435
348.17
347.471
346.972
346.035
344.994
344.057
342.954
341.952
336.378
337.361
338.23
339.027
339.607
340.109
340.525
340.915
340.992
341.001
341.005
340.979
340.749
340.217
339.729
338.954
338.035
337.302
336.364
335.49
329.727
330.59
331.307
331.912
332.356
332.789
333.164
333.497
333.52
333.544
333.585
333.476
333.346
332.934
332.471
331.899
331.137
330.538
329.748
329.064
323.08
323.81
324.366
324.817
325.139
325.476
325.847
326.059
326.062
326.106
326.127
326.033
325.921
325.608
325.229
324.76
324.188
323.802
323.147
322.616
316.404
317.062
317.415
317.735
317.954
318.222
318.465
318.655
318.59
318.663
318.675
318.573
318.495
318.303
318.004
317.669
317.277
317.008
316.536
316.186
309.821
310.296
310.464
310.667
310.796
310.959
311.08
311.227
311.156
311.222
311.203
311.122
311.105
310.994
310.808
310.617
310.345
310.221
309.926
309.72
303.294
303.455
303.517
303.575
303.637
303.675
303.703
303.767
303.74
303.736
303.739
303.728
303.7
303.666
303.62
303.554
303.447
303.431
303.33
303.251
350.698
351.65
352.879
354.11
355.108
355.773
356.287
356.677
356.757
357.052
356.888
356.607
356.299
355.734
354.764
354.006
352.778
351.882
350.327
349.269
343.94
344.725
345.85
346.919
347.766
348.359
348.783
349.096
349.192
349.423
349.269
349.044
348.845
348.312
347.486
346.81
345.685
344.969
343.637
342.713
337.18
337.861
338.845
339.715
340.441
340.937
341.271
341.535
341.652
341.799
341.685
341.479
341.356
340.922
340.185
339.635
338.607
338.085
336.955
336.136
330.423
330.944
331.764
332.465
333.114
333.473
333.793
334.017
334.141
334.213
334.144
333.917
333.825
333.508
332.91
332.428
331.539
331.159
330.247
329.584
323.682
324.046
324.691
325.26
325.756
326.03
326.288
326.502
326.56
326.614
326.608
326.347
326.283
326.08
325.645
325.215
324.467
324.216
323.522
323.009
316.892
317.175
317.657
318.06
318.412
318.604
318.765
318.958
319.006
319.009
318.996
318.813
318.777
318.61
318.331
318.031
317.415
317.319
316.79
316.424
310.129
310.303
310.595
310.843
311.041
311.164
311.25
311.378
311.438
311.361
311.411
311.316
311.25
311.151
310.991
310.832
310.459
310.408
310.078
309.857
303.375
303.465
303.527
303.63
303.691
303.732
303.765
303.815
303.849
303.805
303.831
303.782
303.772
303.748
303.677
303.632
303.498
303.496
303.359
303.301
351.269
352.265
353.799
354.723
355.84
356.556
357.159
357.598
357.761
357.843
357.671
357.413
357.104
356.609
355.483
354.542
353.726
352.423
351.152
349.916
344.448
345.302
346.616
347.387
348.377
349.004
349.525
349.907
350.022
350.115
349.94
349.74
349.497
349.048
348.105
347.291
346.514
345.427
344.342
343.276
337.635
338.371
339.426
340.059
340.925
341.456
341.91
342.2
342.266
342.398
342.22
342.056
341.888
341.544
340.735
340.026
339.33
338.421
337.568
336.608
330.775
331.404
332.239
332.781
333.488
333.893
334.331
334.497
334.597
334.677
334.508
334.331
334.276
334.044
333.324
332.781
332.171
331.435
330.768
330.022
323.94
324.423
325.039
325.503
326.08
326.362
326.702
326.815
326.907
326.995
326.859
326.688
326.679
326.519
325.931
325.486
324.982
324.459
323.934
323.384
317.118
317.441
317.892
318.237
318.632
318.882
319.083
319.182
319.24
319.331
319.198
319.055
319.109
318.946
318.516
318.179
317.856
317.495
317.122
316.708
310.283
310.475
310.723
311.007
311.175
311.332
311.425
311.52
311.56
311.613
311.556
311.438
311.498
311.413
311.127
310.917
310.699
310.544
310.31
310.03
303.438
303.499
303.589
303.691
303.736
303.796
303.818
303.872
303.84
303.885
303.87
303.846
303.851
303.826
303.73
303.658
303.583
303.539
303.479
303.38
351.918
353.137
354.502
355.573
356.476
357.227
357.845
358.258
358.364
358.568
358.442
358.199
357.882
357.347
356.305
355.376
354.415
353.238
351.926
350.656
344.992
346.054
347.219
348.17
348.92
349.59
350.11
350.474
350.546
350.733
350.679
350.419
350.174
349.695
348.783
347.947
347.165
346.137
345.043
343.931
338.104
338.956
339.903
340.808
341.402
341.985
342.358
342.65
342.82
342.888
342.881
342.624
342.476
342.074
341.298
340.529
339.921
339.018
338.125
337.187
331.236
331.877
332.649
333.411
333.915
334.357
334.647
334.878
335.036
335.035
335.098
334.883
334.761
334.429
333.8
333.155
332.685
331.85
331.213
330.454
324.338
324.8
325.366
326.004
326.41
326.725
326.937
327.114
327.212
327.237
327.308
327.126
327.035
326.781
326.322
325.786
325.467
324.747
324.3
323.69
317.443
317.725
318.092
318.608
318.879
319.081
319.233
319.388
319.418
319.448
319.537
319.374
319.298
319.086
318.766
318.407
318.203
317.659
317.387
316.903
310.483
310.665
310.854
311.199
311.352
311.423
311.548
311.65
311.663
311.68
311.734
311.633
311.579
311.444
311.242
311.077
310.904
310.592
310.455
310.154
303.537
303.577
303.643
303.75
303.808
303.835
303.878
303.907
303.905
303.905
303.911
303.902
303.897
303.816
303.764
303.724
303.655
303.565
303.505
303.4
352.494
353.843
355.125
356.169
357.049
357.818
358.263
358.666
359.152
359.096
359.324
359.062
358.416
357.917
356.928
355.929
354.968
353.563
352.399
351.155
345.511
346.705
347.741
348.688
349.43
350.092
350.442
350.856
351.257
351.186
351.443
351.151
350.582
350.173
349.371
348.436
347.641
346.408
345.404
344.392
338.518
339.57
340.4
341.252
341.839
342.369
342.69
343.046
343.385
343.326
343.555
343.22
342.789
342.432
341.797
340.994
340.314
339.276
338.413
337.601
331.572
332.413
333.058
333.756
334.231
334.703
334.957
335.251
335.509
335.465
335.62
335.338
335.033
334.739
334.228
333.529
332.978
332.136
331.432
330.766
324.594
325.234
325.722
326.258
326.638
326.984
327.196
327.437
327.597
327.573
327.723
327.457
327.218
327.071
326.662
326.094
325.646
325.004
324.452
323.923
317.596
317.994
318.373
318.777
319.058
319.269
319.43
319.604
319.721
319.694
319.854
319.576
319.46
319.345
319.038
318.648
318.346
317.878
317.475
317.072
310.584
310.835
311.024
311.268
311.452
311.565
311.681
311.745
311.829
311.834
311.936
311.756
311.687
311.635
311.422
311.198
311.001
310.727
310.494
310.247
303.561
303.642
303.692
303.777
303.834
303.878
303.921
303.929
303.954
303.976
303.99
303.952
303.928
303.912
303.836
303.742
303.679
303.587
303.514
303.412
353.041
354.194
355.37
356.549
357.345
358.296
358.916
359.167
359.508
359.529
359.692
359.357
358.977
358.406
357.5
356.515
355.267
354.296
352.843
351.483
346.024
346.958
348.03
348.978
349.722
350.537
351.044
351.281
351.539
351.557
351.724
351.444
351.133
350.587
349.843
349
347.885
347.033
345.772
344.613
338.974
339.765
340.645
341.438
342.112
342.762
343.225
343.372
343.577
343.611
343.744
343.508
343.323
342.802
342.119
341.44
340.477
339.795
338.741
337.765
331.912
332.524
333.271
333.901
334.492
334.938
335.397
335.509
335.636
335.718
335.788
335.608
335.45
335.052
334.451
333.919
333.116
332.528
331.693
330.929
324.839
325.303
325.92
326.355
326.832
327.156
327.556
327.636
327.747
327.816
327.813
327.685
327.541
327.255
326.79
326.397
325.765
325.303
324.616
324.066
317.799
318.086
318.543
318.81
319.17
319.372
319.674
319.761
319.829
319.896
319.849
319.785
319.682
319.524
319.179
318.852
318.423
318.073
317.587
317.233
310.692
310.874
311.131
311.287
311.514
311.648
311.832
311.871
311.922
311.951
311.946
311.87
311.838
311.738
311.51
311.324
311.071
310.856
310.582
310.339
303.57
303.642
303.732
303.775
303.865
303.906
303.957
303.997
303.997
304.021
304.007
303.976
303.972
303.926
303.872
303.798
303.711
303.643
303.57
303.463
353.545
354.652
355.766
356.928
357.731
358.685
359.345
359.758
360.009
360.217
360.016
359.908
359.359
358.76
358.052
356.873
355.808
354.7
353.231
351.854
346.441
347.312
348.314
349.356
350.005
350.825
351.387
351.812
351.954
352.189
351.971
351.877
351.453
350.905
350.313
349.309
348.373
347.426
346.139
344.95
339.324
340.008
340.884
341.768
342.316
342.969
343.463
343.848
343.942
344.131
343.937
343.849
343.58
343.078
342.591
341.732
340.943
340.161
339.042
338.043
332.145
332.684
333.47
334.219
334.645
335.146
335.555
335.86
335.916
336.111
335.91
335.888
335.681
335.263
334.827
334.105
333.524
332.868
331.945
331.119
324.985
325.43
326.059
326.634
326.964
327.345
327.639
327.878
327.932
328.078
327.932
327.912
327.782
327.482
327.082
326.525
326.096
325.578
324.843
324.249
317.831
318.196
318.62
319.054
319.292
319.557
319.731
319.926
319.971
320.045
319.935
319.938
319.883
319.681
319.334
318.978
318.677
318.296
317.727
317.351
310.698
310.95
311.177
311.456
311.572
311.78
311.872
311.976
312.007
312.019
311.986
311.987
311.949
311.85
311.616
311.381
311.237
310.992
310.62
310.402
303.571
303.673
303.746
303.847
303.871
303.944
303.986
304.016
304.024
304.02
304.012
304.021
303.987
303.986
303.887
303.805
303.762
303.679
303.538
303.494
353.68
354.863
356.041
357.296
358.224
359.242
359.865
360.155
360.432
360.524
360.428
360.13
359.682
359.206
358.312
357.344
356.078
355.002
353.476
352.185
346.557
347.513
348.571
349.636
350.428
351.303
351.873
352.072
352.356
352.491
352.37
352.104
351.686
351.259
350.487
349.699
348.58
347.684
346.372
345.262
339.441
340.179
341.103
341.997
342.685
343.406
343.916
344.06
344.271
344.418
344.36
344.107
343.699
343.298
342.69
342.034
341.113
340.347
339.248
338.325
332.279
332.862
333.641
334.378
334.931
335.501
335.934
336.022
336.225
336.326
336.352
336.114
335.745
335.405
334.945
334.414
333.647
333.013
332.076
331.36
325.072
325.569
326.209
326.752
327.155
327.641
327.951
327.992
328.151
328.292
328.33
328.081
327.786
327.572
327.185
326.79
326.207
325.73
324.893
324.411
317.893
318.248
318.769
319.148
319.388
319.749
319.972
319.956
320.059
320.208
320.293
320.069
319.852
319.746
319.424
319.137
318.775
318.411
317.77
317.448
310.743
310.958
311.305
311.5
311.639
311.84
312.016
311.972
312.011
312.13
312.241
312.078
311.885
311.872
311.641
311.486
311.278
311.04
310.685
310.442
303.597
303.673
303.806
303.852
303.904
303.958
304.033
304.008
303.996
304.058
304.125
304.055
303.974
303.984
303.89
303.845
303.804
303.707
303.584
303.493
353.963
355.174
356.391
357.547
358.499
359.265
359.815
360.56
360.769
360.869
360.69
360.684
360.134
359.374
358.462
357.425
356.208
355.104
353.663
352.446
346.743
347.835
348.847
349.898
350.675
351.328
351.806
352.475
352.627
352.721
352.609
352.539
352.096
351.46
350.65
349.757
348.663
347.715
346.534
345.501
339.552
340.506
341.329
342.223
342.844
343.385
343.812
344.38
344.469
344.554
344.546
344.412
344.061
343.561
342.89
342.08
341.191
340.395
339.384
338.584
332.391
333.123
333.759
334.541
335.025
335.489
335.814
336.318
336.362
336.448
336.468
336.329
336.034
335.657
335.148
334.383
333.731
333.064
332.212
331.625
325.186
325.782
326.269
326.87
327.213
327.607
327.819
328.286
328.253
328.326
328.369
328.24
328.005
327.75
327.411
326.732
326.271
325.761
325.04
324.619
318.035
318.439
318.78
319.211
319.473
319.735
319.877
320.252
320.203
320.22
320.256
320.133
320.025
319.851
319.583
319.097
318.796
318.458
317.896
317.55
310.826
311.092
311.289
311.534
311.714
311.832
311.937
312.167
312.164
312.132
312.165
312.077
312.084
311.908
311.745
311.437
311.275
311.078
310.761
310.531
303.608
303.716
303.778
303.86
303.923
303.933
303.989
304.077
304.067
304.053
304.06
304.051
304.063
303.988
303.928
303.829
303.781
303.691
303.602
303.536
354.209
355.406
356.3
357.397
358.457
359.47
360.159
360.548
360.909
360.889
360.781
360.82
360.129
359.46
358.632
357.606
356.643
355.254
353.717
352.38
347.006
347.988
348.803
349.744
350.657
351.537
352.165
352.471
352.783
352.736
352.632
352.695
352.137
351.506
350.817
349.922
349.085
347.902
346.572
345.49
339.747
340.563
341.261
342.091
342.842
343.559
344.138
344.409
344.649
344.556
344.47
344.569
344.124
343.585
343.023
342.247
341.561
340.593
339.429
338.542
332.528
333.114
333.741
334.47
335.012
335.603
336.155
336.362
336.488
336.429
336.356
336.503
336.102
335.686
335.221
334.551
334.051
333.24
332.317
331.554
325.311
325.723
326.241
326.778
327.201
327.687
328.118
328.288
328.375
328.337
328.233
328.397
328.072
327.764
327.416
326.825
326.488
325.897
325.157
324.606
318.092
318.362
318.771
319.135
319.409
319.765
320.072
320.224
320.282
320.26
320.149
320.3
320.071
319.831
319.591
319.13
318.959
318.508
318.002
317.611
310.874
311.017
311.266
311.498
311.64
311.882
312.06
312.165
312.152
312.162
312.111
312.193
312.09
311.919
311.779
311.478
311.394
311.12
310.802
310.601
303.661
303.689
303.749
303.842
303.91
303.985
304.04
304.07
304.086
304.086
304.061
304.06
304.064
303.99
303.945
303.836
303.81
303.726
303.62
303.558
354.115
355.453
356.655
357.546
358.567
359.5
360.216
360.69
360.954
360.889
360.923
361.034
360.195
359.453
358.634
357.669
356.519
355.334
353.88
352.556
346.945
348.04
349.101
349.849
350.723
351.521
352.177
352.607
352.835
352.773
352.827
352.897
352.156
351.522
350.82
350.005
348.959
347.949
346.709
345.599
339.746
340.601
341.538
342.199
342.884
343.574
344.169
344.483
344.693
344.673
344.704
344.742
344.107
343.605
342.996
342.318
341.428
340.615
339.561
338.618
332.516
333.187
333.988
334.527
335.032
335.641
336.181
336.399
336.588
336.575
336.592
336.612
336.104
335.631
335.198
334.643
333.91
333.276
332.407
331.645
325.333
325.809
326.467
326.867
327.215
327.704
328.154
328.316
328.437
328.419
328.489
328.469
328.07
327.7
327.376
326.99
326.413
325.933
325.242
324.647
318.131
318.44
318.92
319.185
319.419
319.779
320.153
320.216
320.303
320.273
320.361
320.33
320.044
319.814
319.557
319.307
318.929
318.547
318.083
317.608
310.913
311.055
311.374
311.518
311.643
311.893
312.154
312.107
312.207
312.187
312.233
312.25
312.023
311.896
311.743
311.605
311.394
311.149
310.883
310.577
303.663
303.692
303.817
303.834
303.897
304.009
304.074
304.041
304.079
304.107
304.119
304.105
304.041
303.986
303.938
303.906
303.81
303.736
303.644
303.53
354.164
355.33
356.463
357.359
358.458
359.449
360.232
360.672
360.82
360.97
361.065
360.821
360.304
359.425
358.668
357.639
356.49
355.259
353.9
352.606
346.982
347.963
348.911
349.643
350.65
351.535
352.156
352.572
352.658
352.803
352.905
352.675
352.258
351.511
350.848
349.98
348.992
347.907
346.656
345.666
339.827
340.585
341.392
341.986
342.836
343.616
344.112
344.502
344.544
344.687
344.74
344.561
344.208
343.566
343.012
342.262
341.454
340.529
339.431
338.749
332.593
333.2
333.883
334.348
335.068
335.713
336.088
336.359
336.409
336.549
336.605
336.483
336.158
335.64
335.194
334.554
333.923
333.159
332.249
331.796
325.354
325.844
326.364
326.701
327.302
327.798
328.083
328.227
328.287
328.444
328.449
328.427
328.148
327.698
327.396
326.872
326.381
325.779
325.061
324.748
318.09
318.502
318.837
319.036
319.502
319.821
320.077
320.109
320.203
320.302
320.331
320.326
320.077
319.763
319.617
319.197
318.867
318.413
317.888
317.656
310.862
311.116
311.287
311.435
311.738
311.842
312.071
312.054
312.105
312.168
312.227
312.214
312.015
311.891
311.798
311.505
311.348
311.086
310.716
310.621
303.651
303.721
303.779
303.843
303.936
303.963
304.061
304.04
304.047
304.074
304.131
304.099
304.025
303.975
303.955
303.864
303.822
303.721
303.569
303.553
)
;

boundaryField
{
    hotSide
    {
        type            fixedGradient;
        gradient        nonuniform List<scalar> 
400
(
438
451.307
464.215
476.667
488.606
499.975
510.72
520.789
530.132
538.703
546.456
553.353
559.358
564.437
568.565
571.717
573.878
575.035
575.18
574.312
449.792
463.472
476.743
489.546
501.822
513.514
524.566
534.924
544.538
553.358
561.339
568.441
574.626
579.861
584.118
587.375
589.612
590.817
590.984
590.109
460.36
474.373
487.97
501.088
513.667
525.649
536.977
547.595
557.452
566.496
574.682
581.969
588.317
593.692
598.067
601.417
603.724
604.974
605.16
604.28
469.63
483.938
497.82
511.215
524.061
536.298
547.868
558.715
568.785
578.027
586.394
593.843
600.335
605.835
610.313
613.746
616.115
617.405
617.609
616.725
477.545
492.103
506.229
519.861
532.935
545.39
557.168
568.21
578.463
587.874
596.395
603.984
610.598
616.205
620.773
624.278
626.699
628.024
628.244
627.358
484.056
498.82
513.147
526.972
540.234
552.869
564.817
576.02
586.423
595.973
604.622
612.325
619.042
624.737
629.378
632.942
635.408
636.762
636.996
636.108
489.125
504.049
518.532
532.508
545.915
558.689
570.77
582.098
592.618
602.277
611.025
618.818
625.614
631.377
636.076
639.686
642.187
643.564
643.809
642.92
492.726
507.762
522.355
536.438
549.948
562.821
574.995
586.412
597.014
606.75
615.568
623.424
630.276
636.087
640.828
644.47
646.996
648.389
648.643
647.753
494.841
509.943
524.599
538.744
552.313
565.243
577.471
588.939
599.589
609.369
618.228
626.12
633.005
638.845
643.609
647.271
649.811
651.214
651.472
650.582
495.466
510.585
525.258
539.419
553.003
565.948
578.19
589.672
600.335
610.126
618.996
626.898
633.791
639.639
644.409
648.077
650.621
652.027
652.286
651.397
494.602
509.691
524.333
538.465
552.022
564.939
577.156
588.614
599.254
609.025
617.876
625.761
632.639
638.473
643.233
646.891
649.429
650.831
651.088
650.199
492.263
507.273
521.839
535.897
549.382
562.232
574.384
585.78
596.363
606.08
614.883
622.724
629.563
635.364
640.096
643.732
646.252
647.643
647.895
647.007
488.469
503.354
517.798
531.738
545.109
557.849
569.898
581.196
591.687
601.32
610.045
617.816
624.594
630.341
635.027
638.627
641.121
642.493
642.737
641.849
483.251
497.964
512.242
526.021
539.237
551.828
563.735
574.899
585.266
594.783
603.401
611.077
617.77
623.444
628.069
631.62
634.076
635.425
635.656
634.769
476.646
491.145
505.213
518.788
531.808
544.212
555.941
566.937
577.146
586.518
595.003
602.559
609.146
614.728
619.276
622.764
625.174
626.492
626.709
625.823
468.702
482.943
496.761
510.093
522.878
535.058
546.573
557.368
567.389
576.586
584.913
592.325
598.784
604.256
608.712
612.126
614.481
615.762
615.962
615.078
459.474
473.417
486.944
499.995
512.509
524.429
535.698
546.26
556.064
565.06
573.202
580.448
586.761
592.106
596.455
599.784
602.075
603.315
603.495
602.614
449.025
462.632
475.831
488.565
500.774
512.402
523.392
533.692
543.251
552.02
559.955
567.014
573.162
578.365
582.594
585.828
588.048
589.241
589.4
588.523
437.427
450.662
463.5
475.883
487.754
499.058
509.741
519.752
529.04
537.559
545.265
552.119
558.085
563.131
567.229
570.358
572.5
573.642
573.778
572.906
424.759
437.59
450.034
462.035
473.54
484.493
494.842
504.538
513.532
521.779
529.238
535.869
541.637
546.513
550.469
553.485
555.543
556.632
556.744
555.879
)
;
    }
    coldSide
    {
        type            mixed;
        refValue        uniform 300;
        refGradient     uniform 0;
        valueFraction   uniform 0.991591;
        source          uniform 0;
        value           nonuniform List<scalar> 
400
(
300.024
300.024
300.025
300.025
300.026
300.027
300.027
300.028
300.028
300.028
300.029
300.03
300.03
300.03
300.03
300.03
300.03
300.031
300.031
300.031
300.024
300.025
300.026
300.026
300.027
300.027
300.028
300.028
300.029
300.029
300.029
300.03
300.031
300.031
300.031
300.031
300.031
300.031
300.031