/*--------------------------------*- C++ -*----------------------------------*\
| =========                 |                                                 |
| \\      /  F ield         | OpenFOAM: The Open Source CFD Toolbox           |
|  \\    /   O peration     | Version:  2212                                  |
|   \\  /    A nd           | Website:  www.openfoam.com                      |
|    \\/     M anipulation  |                                                 |
\*---------------------------------------------------------------------------*/
FoamFile
{
    version     2.0;
    format      ascii;
    arch        "LSB;label=32;scalar=64";
    class       volScalarField;
    location    "0";
    object      Tdirect;
}
// * * * * * * * * * * * * * * * * * * * * * * * * * * * * * * * * * * * * * //

dimensions      [0 0 0 1 0 0 0];

internalField   nonuniform List<scalar> 
3200
(
342.402
343.447
344.781
346.235
347.732
349.202
350.558
351.703
352.538
352.978
352.978
352.538
351.703
350.558
349.202
347.732
346.235
344.781
343.447
342.402
336.793
337.678
338.828
340.086
341.381
342.653
343.825
344.815
345.535
345.916
345.916
345.535
344.815
343.825
342.653
341.381
340.086
338.828
337.678
336.793
331.166
331.9
332.869
333.932
335.027
336.101
337.091
337.926
338.533
338.854
338.854
338.533
337.926
337.091
336.101
335.027
333.932
332.869
331.9
331.166
325.524
326.115
326.905
327.773
328.668
329.546
330.354
331.036
331.532
331.794
331.794
331.532
331.036
330.354
329.546
328.668
327.773
326.905
326.115
325.524
319.87
320.323
320.936
321.611
322.307
322.989
323.617
324.146
324.531
324.735
324.735
324.531
324.146
323.617
322.989
322.307
321.611
320.936
320.323
319.87
314.206
314.527
314.964
315.446
315.943
316.43
316.878
317.256
317.531
317.676
317.676
317.531
317.256
316.878
316.43
315.943
315.446
314.964
314.527
314.206
308.536
308.728
308.99
309.279
309.577
309.869
310.139
310.365
310.53
310.617
310.617
310.53
310.365
310.139
309.869
309.577
309.279
308.99
308.728
308.536
302.862
302.926
303.014
303.111
303.211
303.308
303.399
303.475
303.53
303.559
303.559
303.53
303.475
303.399
303.308
303.211
303.111
303.014
302.926
302.862
342.495
343.531
344.854
346.294
347.776
349.229
350.57
351.701
352.524
352.959
352.959
352.524
351.701
350.57
349.229
347.776
346.294
344.854
343.531
342.495
336.873
337.75
338.891
340.137
341.419
342.677
343.836
344.813
345.524
345.899
345.899
345.524
344.813
343.836
342.677
341.419
340.137
338.891
337.75
336.873
331.233
331.961
332.922
333.975
335.059
336.121
337.1
337.924
338.524
338.841
338.841
338.524
337.924
337.1
336.121
335.059
333.975
332.922
331.961
331.233
325.579
326.165
326.948
327.808
328.694
329.562
330.362
331.035
331.525
331.783
331.783
331.525
331.035
330.362
329.562
328.694
327.808
326.948
326.165
325.579
319.913
320.362
320.97
321.639
322.327
323.002
323.623
324.146
324.526
324.726
324.726
324.526
324.146
323.623
323.002
322.327
321.639
320.97
320.362
319.913
314.237
314.555
314.988
315.466
315.957
316.439
316.882
317.256
317.527
317.67
317.67
317.527
317.256
316.882
316.439
315.957
315.466
314.988
314.555
314.237
308.554
308.744
309.004
309.291
309.586
309.875
310.141
310.365
310.528
310.614
310.614
310.528
310.365
310.141
309.875
309.586
309.291
309.004
308.744
308.554
302.868
302.931
303.018
303.115
303.213
303.31
303.4
303.475
303.529
303.558
303.558
303.529
303.475
303.4
303.31
303.213
303.115
303.018
302.931
302.868
342.68
343.7
345
346.414
347.866
349.288
350.598
351.701
352.503
352.927
352.927
352.503
351.701
350.598
349.288
347.866
346.414
345
343.7
342.68
337.033
337.897
339.018
340.241
341.498
342.728
343.86
344.813
345.506
345.872
345.872
345.506
344.813
343.86
342.728
341.498
340.241
339.018
337.897
337.033
331.369
332.085
333.03
334.063
335.125
336.164
337.121
337.925
338.51
338.819
338.819
338.51
337.925
337.121
336.164
335.125
334.063
333.03
332.085
331.369
325.689
326.266
327.036
327.881
328.749
329.598
330.379
331.036
331.514
331.766
331.766
331.514
331.036
330.379
329.598
328.749
327.881
327.036
326.266
325.689
319.998
320.441
321.038
321.695
322.37
323.03
323.636
324.147
324.517
324.713
324.713
324.517
324.147
323.636
323.03
322.37
321.695
321.038
320.441
319.998
314.298
314.611
315.037
315.506
315.988
316.459
316.892
317.257
317.521
317.66
317.66
317.521
317.257
316.892
316.459
315.988
315.506
315.037
314.611
314.298
308.591
308.778
309.033
309.315
309.604
309.887
310.147
310.366
310.525
310.608
310.608
310.525
310.366
310.147
309.887
309.604
309.315
309.033
308.778
308.591
302.88
302.943
303.028
303.123
303.22
303.314
303.402
303.475
303.528
303.556
303.556
303.528
303.475
303.402
303.314
303.22
303.123
303.028
302.943
302.88
342.961
343.957
345.225
346.6
348.009
349.385
350.65
351.714
352.486
352.893
352.893
352.486
351.714
350.65
349.385
348.009
346.6
345.225
343.957
342.961
337.276
338.119
339.212
340.402
341.622
342.813
343.907
344.826
345.493
345.845
345.845
345.493
344.826
343.907
342.813
341.622
340.402
339.212
338.119
337.276
331.573
332.273
333.194
334.199
335.23
336.237
337.16
337.936
338.5
338.796
338.796
338.5
337.936
337.16
336.237
335.23
334.199
333.194
332.273
331.573
325.857
326.42
327.171
327.992
328.835
329.657
330.412
331.046
331.506
331.748
331.748
331.506
331.046
330.412
329.657
328.835
327.992
327.171
326.42
325.857
320.128
320.561
321.143
321.781
322.436
323.076
323.662
324.154
324.511
324.7
324.7
324.511
324.154
323.662
323.076
322.436
321.781
321.143
320.561
320.128
314.391
314.697
315.112
315.568
316.036
316.492
316.911
317.262
317.517
317.651
317.651
317.517
317.262
316.911
316.492
316.036
315.568
315.112
314.697
314.391
308.647
308.829
309.078
309.352
309.633
309.907
310.158
310.369
310.522
310.603
310.603
310.522
310.369
310.158
309.907
309.633
309.352
309.078
308.829
308.647
302.899
302.96
303.043
303.135
303.229
303.321
303.405
303.476
303.527
303.554
303.554
303.527
303.476
303.405
303.321
303.229
303.135
303.043
302.96
302.899
343.341
344.306
345.532
346.858
348.213
349.532
350.741
351.755
352.489
352.876
352.876
352.489
351.755
350.741
349.532
348.213
346.858
345.532
344.306
343.341
337.604
338.421
339.478
340.626
341.798
342.94
343.986
344.862
345.497
345.831
345.831
345.497
344.862
343.986
342.94
341.798
340.626
339.478
338.421
337.604
331.85
332.528
333.419
334.388
335.38
336.345
337.228
337.968
338.504
338.786
338.786
338.504
337.968
337.228
336.345
335.38
334.388
333.419
332.528
331.85
326.083
326.628
327.355
328.147
328.957
329.746
330.468
331.072
331.51
331.74
331.74
331.51
331.072
330.468
329.746
328.957
328.147
327.355
326.628
326.083
320.304
320.723
321.286
321.902
322.532
323.145
323.706
324.175
324.515
324.694
324.694
324.515
324.175
323.706
323.145
322.532
321.902
321.286
320.723
320.304
314.516
314.813
315.214
315.654
316.104
316.542
316.942
317.277
317.52
317.647
317.647
317.52
317.277
316.942
316.542
316.104
315.654
315.214
314.813
314.516
308.722
308.899
309.14
309.404
309.674
309.937
310.177
310.378
310.524
310.601
310.601
310.524
310.378
310.177
309.937
309.674
309.404
309.14
308.899
308.722
302.924
302.983
303.064
303.152
303.243
303.331
303.412
303.479
303.528
303.553
303.553
303.528
303.479
303.412
303.331
303.243
303.152
303.064
302.983
302.924
343.823
344.752
345.928
347.196
348.487
349.74
350.884
351.84
352.532
352.895
352.895
352.532
351.84
350.884
349.74
348.487
347.196
345.928
344.752
343.823
338.02
338.807
339.822
340.919
342.037
343.121
344.11
344.937
345.535
345.849
345.849
345.535
344.937
344.11
343.121
342.037
340.919
339.822
338.807
338.02
332.202
332.854
333.709
334.636
335.581
336.498
337.334
338.032
338.537
338.802
338.802
338.537
338.032
337.334
336.498
335.581
334.636
333.709
332.854
332.202
326.37
326.895
327.592
328.35
329.122
329.872
330.555
331.125
331.538
331.754
331.754
331.538
331.125
330.555
329.872
329.122
328.35
327.592
326.895
326.37
320.526
320.93
321.47
322.06
322.66
323.243
323.774
324.217
324.537
324.705
324.705
324.537
324.217
323.774
323.243
322.66
322.06
321.47
320.93
320.526
314.675
314.96
315.346
315.767
316.196
316.611
316.991
317.307
317.536
317.656
317.656
317.536
317.307
316.991
316.611
316.196
315.767
315.346
314.96
314.675
308.817
308.988
309.219
309.471
309.729
309.979
310.206
310.396
310.534
310.606
310.606
310.534
310.396
310.206
309.979
309.729
309.471
309.219
308.988
308.817
302.956
303.013
303.09
303.175
303.261
303.345
303.421
303.485
303.531
303.555
303.555
303.531
303.485
303.421
303.345
303.261
303.175
303.09
303.013
302.956
344.411
345.3
346.421
347.624
348.844
350.023
351.096
351.989
352.634
352.972
352.972
352.634
351.989
351.096
350.023
348.844
347.624
346.421
345.3
344.411
338.529
339.281
340.248
341.289
342.346
343.367
344.295
345.068
345.625
345.917
345.917
345.625
345.068
344.295
343.367
342.346
341.289
340.248
339.281
338.529
332.631
333.255
334.07
334.95
335.843
336.706
337.49
338.143
338.614
338.861
338.861
338.614
338.143
337.49
336.706
335.843
334.95
334.07
333.255
332.631
326.72
327.222
327.887
328.606
329.337
330.042
330.683
331.217
331.601
331.803
331.803
331.601
331.217
330.683
330.042
329.337
328.606
327.887
327.222
326.72
320.799
321.184
321.7
322.259
322.827
323.375
323.874
324.288
324.587
324.744
324.744
324.587
324.288
323.874
323.375
322.827
322.259
321.7
321.184
320.799
314.869
315.142
315.51
315.909
316.315
316.706
317.062
317.358
317.572
317.683
317.683
317.572
317.358
317.062
316.706
316.315
315.909
315.51
315.142
314.869
308.934
309.097
309.317
309.557
309.801
310.036
310.249
310.427
310.555
310.622
310.622
310.555
310.427
310.249
310.036
309.801
309.557
309.317
309.097
308.934
302.995
303.05
303.123
303.204
303.285
303.364
303.436
303.495
303.538
303.561
303.561
303.538
303.495
303.436
303.364
303.285
303.204
303.123
303.05
302.995
345.112
345.956
347.017
348.151
349.295
350.396
351.393
352.221
352.816
353.128
353.128
352.816
352.221
351.393
350.396
349.295
348.151
347.017
345.956
345.112
339.134
339.849
340.764
341.746
342.737
343.69
344.553
345.269
345.784
346.054
346.054
345.784
345.269
344.553
343.69
342.737
341.746
340.764
339.849
339.134
333.142
333.735
334.506
335.336
336.174
336.98
337.709
338.315
338.75
338.978
338.978
338.75
338.315
337.709
336.98
336.174
335.336
334.506
333.735
333.142
327.137
327.615
328.243
328.922
329.607
330.266
330.863
331.357
331.713
331.899
331.899
331.713
331.357
330.863
330.266
329.607
328.922
328.243
327.615
327.137
321.123
321.489
321.977
322.504
323.037
323.55
324.014
324.398
324.674
324.819
324.819
324.674
324.398
324.014
323.55
323.037
322.504
321.977
321.489
321.123
315.101
315.36
315.708
316.084
316.465
316.831
317.162
317.437
317.634
317.737
317.737
317.634
317.437
317.162
316.831
316.465
316.084
315.708
315.36
315.101
309.073
309.228
309.436
309.662
309.891
310.111
310.31
310.474
310.593
310.655
310.655
310.593
310.474
310.31
310.111
309.891
309.662
309.436
309.228
309.073
303.042
303.093
303.163
303.239
303.316
303.389
303.456
303.511
303.551
303.572
303.572
303.551
303.511
303.456
303.389
303.316
303.239
303.163
303.093
303.042
345.928
346.726
347.724
348.786
349.852
350.873
351.793
352.554
353.1
353.385
353.385
353.1
352.554
351.793
350.873
349.852
348.786
347.724
346.726
345.928
339.84
340.515
341.376
342.295
343.219
344.103
344.9
345.559
346.031
346.278
346.278
346.031
345.559
344.9
344.103
343.219
342.295
341.376
340.515
339.84
333.738
334.298
335.023
335.801
336.582
337.33
338.003
338.56
338.959
339.167
339.167
338.959
338.56
338.003
337.33
336.582
335.801
335.023
334.298
333.738
327.624
328.075
328.667
329.302
329.941
330.552
331.103
331.558
331.884
332.055
332.055
331.884
331.558
331.103
330.552
329.941
329.302
328.667
328.075
327.624
321.501
321.847
322.306
322.8
323.297
323.772
324.201
324.555
324.808
324.94
324.94
324.808
324.555
324.201
323.772
323.297
322.8
322.306
321.847
321.501
315.371
315.615
315.943
316.295
316.651
316.99
317.296
317.549
317.73
317.824
317.824
317.73
317.549
317.296
316.99
316.651
316.295
315.943
315.615
315.371
309.235
309.381
309.577
309.789
310.002
310.206
310.39
310.542
310.65
310.707
310.707
310.65
310.542
310.39
310.206
310.002
309.789
309.577
309.381
309.235
303.096
303.145
303.211
303.282
303.353
303.421
303.483
303.534
303.57
303.589
303.589
303.57
303.534
303.483
303.421
303.353
303.282
303.211
303.145
303.096
346.866
347.616
348.55
349.538
350.526
351.466
352.31
353.005
353.502
353.761
353.761
353.502
353.005
352.31
351.466
350.526
349.538
348.55
347.616
346.866
340.651
341.285
342.091
342.947
343.803
344.617
345.348
345.95
346.38
346.604
346.604
346.38
345.95
345.348
344.617
343.803
342.947
342.091
341.285
340.651
334.423
334.949
335.628
336.351
337.075
337.764
338.383
338.891
339.255
339.444
339.444
339.255
338.891
338.383
337.764
337.075
336.351
335.628
334.949
334.423
328.184
328.607
329.161
329.752
330.345
330.908
331.414
331.83
332.127
332.282
332.282
332.127
331.83
331.414
330.908
330.345
329.752
329.161
328.607
328.184
321.936
322.261
322.69
323.15
323.611
324.049
324.442
324.766
324.997
325.117
325.117
324.997
324.766
324.442
324.049
323.611
323.15
322.69
322.261
321.936
315.681
315.911
316.217
316.546
316.875
317.188
317.469
317.7
317.865
317.951
317.951
317.865
317.7
317.469
317.188
316.875
316.546
316.217
315.911
315.681
309.421
309.558
309.742
309.939
310.137
310.325
310.494
310.632
310.731
310.783
310.783
310.731
310.632
310.494
310.325
310.137
309.939
309.742
309.558
309.421
303.158
303.204
303.266
303.332
303.398
303.461
303.518
303.564
303.597
303.615
303.615
303.597
303.564
303.518
303.461
303.398
303.332
303.266
303.204
303.158
347.931
348.632
349.501
350.416
351.326
352.188
352.958
353.589
354.039
354.273
354.273
354.039
353.589
352.958
352.188
351.326
350.416
349.501
348.632
347.931
341.571
342.164
342.915
343.707
344.496
345.243
345.909
346.456
346.845
347.048
347.048
346.845
346.456
345.909
345.243
344.496
343.707
342.915
342.164
341.571
335.2
335.692
336.324
336.995
337.662
338.293
338.857
339.32
339.649
339.82
339.82
339.649
339.32
338.857
338.293
337.662
336.995
336.324
335.692
335.2
328.819
329.215
329.73
330.278
330.824
331.341
331.802
332.18
332.449
332.59
332.59
332.449
332.18
331.802
331.341
330.824
330.278
329.73
329.215
328.819
322.429
322.733
323.133
323.559
323.984
324.386
324.744
325.038
325.248
325.357
325.357
325.248
325.038
324.744
324.386
323.984
323.559
323.133
322.733
322.429
316.033
316.248
316.533
316.838
317.141
317.428
317.685
317.895
318.044
318.122
318.122
318.044
317.895
317.685
317.428
317.141
316.838
316.533
316.248
316.033
309.633
309.761
309.932
310.115
310.297
310.469
310.623
310.749
310.839
310.886
310.886
310.839
310.749
310.623
310.469
310.297
310.115
309.932
309.761
309.633
303.229
303.272
303.329
303.391
303.452
303.51
303.561
303.603
303.634
303.649
303.649
303.634
303.603
303.561
303.51
303.452
303.391
303.329
303.272
303.229
349.125
349.778
350.584
351.428
352.263
353.049
353.747
354.318
354.723
354.934
354.934
354.723
354.318
353.747
353.049
352.263
351.428
350.584
349.778
349.125
342.605
343.157
343.852
344.583
345.306
345.988
346.593
347.087
347.438
347.621
347.621
347.438
347.087
346.593
345.988
345.306
344.583
343.852
343.157
342.605
336.073
336.531
337.117
337.735
338.347
338.923
339.436
339.854
340.151
340.305
340.305
340.151
339.854
339.436
338.923
338.347
337.735
337.117
336.531
336.073
329.532
329.9
330.378
330.884
331.384
331.856
332.275
332.617
332.86
332.986
332.986
332.86
332.617
332.275
331.856
331.384
330.884
330.378
329.9
329.532
322.983
323.266
323.637
324.03
324.419
324.786
325.112
325.378
325.567
325.665
325.665
325.567
325.378
325.112
324.786
324.419
324.03
323.637
323.266
322.983
316.429
316.629
316.893
317.174
317.452
317.715
317.947
318.137
318.272
318.342
318.342
318.272
318.137
317.947
317.715
317.452
317.174
316.893
316.629
316.429
309.87
309.989
310.148
310.317
310.484
310.641
310.781
310.895
310.976
311.018
311.018
310.976
310.895
310.781
310.641
310.484
310.317
310.148
309.989
309.87
303.309
303.349
303.402
303.458
303.514
303.567
303.614
303.652
303.679
303.694
303.694
303.679
303.652
303.614
303.567
303.514
303.458
303.402
303.349
303.309
350.454
351.06
351.804
352.579
353.342
354.056
354.688
355.202
355.565
355.754
355.754
355.565
355.202
354.688
354.056
353.342
352.579
351.804
351.06
350.454
343.754
344.266
344.908
345.58
346.241
346.86
347.408
347.853
348.168
348.331
348.331
348.168
347.853
347.408
346.86
346.241
345.58
344.908
344.266
343.754
337.044
337.468
338.01
338.578
339.137
339.661
340.124
340.501
340.767
340.906
340.906
340.767
340.501
340.124
339.661
339.137
338.578
338.01
337.468
337.044
330.325
330.667
331.108
331.573
332.03
332.459
332.838
333.146
333.365
333.478
333.478
333.365
333.146
332.838
332.459
332.03
331.573
331.108
330.667
330.325
323.6
323.862
324.204
324.566
324.922
325.255
325.55
325.79
325.959
326.047
326.047
325.959
325.79
325.55
325.255
324.922
324.566
324.204
323.862
323.6
316.869
317.054
317.299
317.557
317.811
318.049
318.26
318.431
318.553
318.616
318.616
318.553
318.431
318.26
318.049
317.811
317.557
317.299
317.054
316.869
310.134
310.245
310.391
310.546
310.699
310.842
310.969
311.072
311.145
311.182
311.182
311.145
311.072
310.969
310.842
310.699
310.546
310.391
310.245
310.134
303.397
303.434
303.483
303.535
303.587
303.635
303.677
303.712
303.736
303.749
303.749
303.736
303.712
303.677
303.635
303.587
303.535
303.483
303.434
303.397
351.92
352.48
353.165
353.875
354.569
355.216
355.786
356.247
356.573
356.741
356.741
356.573
356.247
355.786
355.216
354.569
353.875
353.165
352.48
351.92
345.021
345.495
346.086
346.701
347.303
347.864
348.358
348.758
349.04
349.186
349.186
349.04
348.758
348.358
347.864
347.303
346.701
346.086
345.495
345.021
338.114
338.507
339.005
339.525
340.035
340.51
340.927
341.266
341.505
341.628
341.628
341.505
341.266
340.927
340.51
340.035
339.525
339.005
338.507
338.114
331.2
331.516
331.922
332.348
332.764
333.153
333.495
333.772
333.967
334.068
334.068
333.967
333.772
333.495
333.153
332.764
332.348
331.922
331.516
331.2
324.279
324.522
324.837
325.168
325.492
325.795
326.061
326.276
326.428
326.507
326.507
326.428
326.276
326.061
325.795
325.492
325.168
324.837
324.522
324.279
317.354
317.526
317.75
317.987
318.219
318.435
318.625
318.779
318.887
318.944
318.944
318.887
318.779
318.625
318.435
318.219
317.987
317.75
317.526
317.354
310.426
310.528
310.663
310.805
310.944
311.074
311.188
311.28
311.346
311.379
311.379
311.346
311.28
311.188
311.074
310.944
310.805
310.663
310.528
310.426
303.495
303.529
303.574
303.622
303.669
303.712
303.75
303.781
303.803
303.815
303.815
303.803
303.781
303.75
303.712
303.669
303.622
303.574
303.529
303.495
353.522
354.038
354.667
355.316
355.946
356.531
357.043
357.457
357.748
357.898
357.898
357.748
357.457
357.043
356.531
355.946
355.316
354.667
354.038
353.522
346.407
346.844
347.386
347.948
348.495
349.002
349.446
349.804
350.057
350.187
350.187
350.057
349.804
349.446
349.002
348.495
347.948
347.386
346.844
346.407
339.284
339.646
340.104
340.579
341.042
341.471
341.847
342.15
342.364
342.474
342.474
342.364
342.15
341.847
341.471
341.042
340.579
340.104
339.646
339.284
332.155
332.447
332.82
333.209
333.587
333.939
334.247
334.495
334.669
334.76
334.76
334.669
334.495
334.247
333.939
333.587
333.209
332.82
332.447
332.155
325.022
325.245
325.535
325.837
326.132
326.405
326.645
326.838
326.974
327.044
327.044
326.974
326.838
326.645
326.405
326.132
325.837
325.535
325.245
325.022
317.884
318.042
318.249
318.465
318.675
318.871
319.042
319.18
319.277
319.327
319.327
319.277
319.18
319.042
318.871
318.675
318.465
318.249
318.042
317.884
310.744
310.838
310.962
311.092
311.218
311.336
311.438
311.521
311.58
311.61
311.61
311.58
311.521
311.438
311.336
311.218
311.092
310.962
310.838
310.744
303.602
303.633
303.675
303.718
303.76
303.8
303.834
303.862
303.882
303.892
303.892
303.882
303.862
303.834
303.8
303.76
303.718
303.675
303.633
303.602
355.256
355.731
356.307
356.898
357.47
357.998
358.458
358.828
359.087
359.221
359.221
359.087
358.828
358.458
357.998
357.47
356.898
356.307
355.731
355.256
347.905
348.307
348.804
349.316
349.812
350.27
350.669
350.99
351.215
351.331
351.331
351.215
350.99
350.669
350.27
349.812
349.316
348.804
348.307
347.905
340.548
340.882
341.301
341.734
342.154
342.542
342.879
343.151
343.341
343.44
343.44
343.341
343.151
342.879
342.542
342.154
341.734
341.301
340.882
340.548
333.188
333.456
333.798
334.152
334.496
334.813
335.09
335.312
335.468
335.548
335.548
335.468
335.312
335.09
334.813
334.496
334.152
333.798
333.456
333.188
325.823
326.029
326.294
326.57
326.837
327.084
327.3
327.473
327.594
327.657
327.657
327.594
327.473
327.3
327.084
326.837
326.57
326.294
326.029
325.823
318.456
318.602
318.791
318.988
319.179
319.355
319.509
319.633
319.72
319.764
319.764
319.72
319.633
319.509
319.355
319.179
318.988
318.791
318.602
318.456
311.087
311.174
311.287
311.406
311.52
311.626
311.719
311.793
311.845
311.872
311.872
311.845
311.793
311.719
311.626
311.52
311.406
311.287
311.174
311.087
303.717
303.746
303.784
303.823
303.862
303.897
303.928
303.953
303.971
303.98
303.98
303.971
303.953
303.928
303.897
303.862
303.823
303.784
303.746
303.717
357.103
357.54
358.067
358.606
359.124
359.6
360.014
360.345
360.576
360.696
360.696
360.576
360.345
360.014
359.6
359.124
358.606
358.067
357.54
357.103
349.498
349.868
350.323
350.79
351.239
351.652
352.011
352.298
352.499
352.603
352.603
352.499
352.298
352.011
351.652
351.239
350.79
350.323
349.868
349.498
341.891
342.198
342.581
342.976
343.357
343.707
344.01
344.254
344.424
344.511
344.511
344.424
344.254
344.01
343.707
343.357
342.976
342.581
342.198
341.891
334.282
334.529
334.842
335.165
335.477
335.763
336.012
336.211
336.35
336.422
336.422
336.35
336.211
336.012
335.763
335.477
335.165
334.842
334.529
334.282
326.672
326.862
327.104
327.356
327.598
327.821
328.015
328.17
328.278
328.334
328.334
328.278
328.17
328.015
327.821
327.598
327.356
327.104
326.862
326.672
319.061
319.195
319.369
319.548
319.722
319.881
320.019
320.13
320.208
320.248
320.248
320.208
320.13
320.019
319.881
319.722
319.548
319.369
319.195
319.061
311.45
311.53
311.634
311.742
311.846
311.942
312.025
312.091
312.138
312.162
312.162
312.138
312.091
312.025
311.942
311.846
311.742
311.634
311.53
311.45
303.838
303.865
303.9
303.936
303.971
304.003
304.031
304.053
304.069
304.077
304.077
304.069
304.053
304.031
304.003
303.971
303.936
303.9
303.865
303.838
359.016
359.418
359.902
360.393
360.864
361.294
361.666
361.963
362.171
362.277
362.277
362.171
361.963
361.666
361.294
360.864
360.393
359.902
359.418
359.016
351.141
351.481
351.898
352.324
352.733
353.107
353.43
353.688
353.867
353.96
353.96
353.867
353.688
353.43
353.107
352.733
352.324
351.898
351.481
351.141
343.27
343.552
343.904
344.264
344.61
344.927
345.201
345.419
345.572
345.65
345.65
345.572
345.419
345.201
344.927
344.61
344.264
343.904
343.552
343.27
335.402
335.629
335.916
336.211
336.495
336.754
336.979
337.158
337.283
337.347
337.347
337.283
337.158
336.979
336.754
336.495
336.211
335.916
335.629
335.402
327.538
327.712
327.935
328.165
328.386
328.588
328.763
328.902
328.999
329.049
329.049
328.999
328.902
328.763
328.588
328.386
328.165
327.935
327.712
327.538
319.677
319.801
319.96
320.124
320.282
320.426
320.551
320.651
320.72
320.756
320.756
320.72
320.651
320.551
320.426
320.282
320.124
319.96
319.801
319.677
311.819
311.892
311.988
312.086
312.181
312.268
312.343
312.403
312.445
312.466
312.466
312.445
312.403
312.343
312.268
312.181
312.086
311.988
311.892
311.819
303.962
303.986
304.018
304.051
304.083
304.112
304.137
304.157
304.171
304.179
304.179
304.171
304.157
304.137
304.112
304.083
304.051
304.018
303.986
303.962
360.871
361.242
361.688
362.14
362.57
362.962
363.3
363.569
363.756
363.852
363.852
363.756
363.569
363.3
362.962
362.57
362.14
361.688
361.242
360.871
352.714
353.028
353.414
353.806
354.18
354.521
354.815
355.049
355.211
355.295
355.295
355.211
355.049
354.815
354.521
354.18
353.806
353.414
353.028
352.714
344.575
344.836
345.161
345.494
345.811
346.1
346.35
346.548
346.686
346.757
346.757
346.686
346.548
346.35
346.1
345.811
345.494
345.161
344.836
344.575
336.453
336.663
336.929
337.201
337.461
337.699
337.903
338.066
338.179
338.237
338.237
338.179
338.066
337.903
337.699
337.461
337.201
336.929
336.663
336.453
328.344
328.506
328.712
328.924
329.127
329.312
329.472
329.598
329.687
329.732
329.732
329.687
329.598
329.472
329.312
329.127
328.924
328.712
328.506
328.344
320.248
320.362
320.509
320.661
320.806
320.938
321.052
321.143
321.206
321.239
321.239
321.206
321.143
321.052
320.938
320.806
320.661
320.509
320.362
320.248
312.159
312.227
312.316
312.407
312.494
312.574
312.642
312.697
312.735
312.754
312.754
312.735
312.697
312.642
312.574
312.494
312.407
312.316
312.227
312.159
304.075
304.098
304.128
304.158
304.188
304.214
304.237
304.255
304.268
304.275
304.275
304.268
304.255
304.237
304.214
304.188
304.158
304.128
304.098
304.075
362.336
362.685
363.104
363.528
363.93
364.296
364.611
364.86
365.034
365.123
365.123
365.034
364.86
364.611
364.296
363.93
363.528
363.104
362.685
362.336
353.908
354.205
354.569
354.937
355.289
355.608
355.882
356.1
356.251
356.329
356.329
356.251
356.1
355.882
355.608
355.289
354.937
354.569
354.205
353.908
345.535
345.782
346.09
346.403
346.702
346.974
347.207
347.392
347.521
347.587
347.587
347.521
347.392
347.207
346.974
346.702
346.403
346.09
345.782
345.535
337.207
337.406
337.658
337.915
338.16
338.383
338.575
338.728
338.834
338.888
338.888
338.834
338.728
338.575
338.383
338.16
337.915
337.658
337.406
337.207
328.912
329.065
329.261
329.462
329.653
329.828
329.977
330.096
330.179
330.221
330.221
330.179
330.096
329.977
329.828
329.653
329.462
329.261
329.065
328.912
320.643
320.752
320.892
321.036
321.173
321.298
321.405
321.49
321.549
321.58
321.58
321.549
321.49
321.405
321.298
321.173
321.036
320.892
320.752
320.643
312.393
312.458
312.542
312.628
312.711
312.786
312.85
312.902
312.937
312.956
312.956
312.937
312.902
312.85
312.786
312.711
312.628
312.542
312.458
312.393
304.153
304.175
304.203
304.232
304.26
304.285
304.306
304.324
304.336
304.342
304.342
304.336
304.324
304.306
304.285
304.26
304.232
304.203
304.175
304.153
)
;

boundaryField
{
    hotSide
    {
        type            fixedGradient;
        gradient        nonuniform List<scalar> 
400
(
447.08
448.097
450.142
453.237
457.413
462.709
469.168
476.84
485.775
496.023
507.631
520.648
535.113
551.065
568.537
587.558
608.15
630.333
654.122
679.529
460.83
461.738
463.57
466.354
470.131
474.953
480.879
487.971
496.295
505.913
516.887
529.273
543.121
558.477
575.378
593.857
613.939
635.646
658.992
683.989
475.71
476.489
478.066
480.48
483.786
488.051
493.353
499.772
507.39
516.288
526.541
538.218
551.378
566.074
582.35
600.24
619.774
640.971
663.848
688.413
491.475
492.102
493.383
495.368
498.13
501.757
506.347
512.003
518.83
526.925
536.382
547.282
559.695
573.681
589.29
606.559
625.517
646.185
668.576
692.7
507.683
508.14
509.088
510.594
512.75
515.669
519.475
524.298
530.266
537.499
546.107
556.186
567.817
581.067
595.99
612.624
631
651.136
673.046
696.733
523.659
523.933
524.526
525.522
527.035
529.207
532.193
536.149
541.23
547.58
555.327
564.579
575.43
587.951
602.199
618.216
636.029
655.656
677.106
700.381
538.487
538.58
538.819
539.306
540.184
541.621
543.803
546.917
551.144
556.648
563.576
572.05
582.17
594.015
607.643
623.095
640.398
659.565
680.603
703.51
551.072
551.001
550.921
550.952
551.261
552.044
553.515
555.887
559.366
564.135
570.356
578.163
587.661
598.934
612.04
627.02
643.898
662.686
683.386
705.992
560.282
560.085
559.761
559.444
559.32
559.607
560.54
562.355
565.274
569.497
575.195
582.51
591.553
602.408
615.136
629.775
646.349
664.865
685.324
707.716
565.163
564.897
564.44
563.934
563.575
563.593
564.236
565.751
568.369
572.299
577.718
584.771
593.573
604.208
616.737
631.197
647.611
665.985
686.318
708.599
565.163
564.897
564.44
563.934
563.575
563.593
564.236
565.751
568.369
572.299
577.718
584.771
593.573
604.208
616.737
631.197
647.611
665.985
686.318
708.599
560.282
560.085
559.761
559.444
559.32
559.607
560.54
562.355
565.274
569.497
575.195
582.51
591.553
602.408
615.136
629.775
646.349
664.865
685.324
707.716
551.072
551.001
550.921
550.952
551.261
552.044
553.515
555.887
559.366
564.135
570.356
578.163
587.661
598.934
612.04
627.02
643.898
662.686
683.386
705.992
538.487
538.58
538.819
539.306
540.184
541.621
543.803
546.917
551.144
556.648
563.576
572.05
582.17
594.015
607.643
623.095
640.398
659.565
680.603
703.51
523.659
523.933
524.526
525.522
527.035
529.207
532.193
536.149
541.23
547.58
555.327
564.579
575.43
587.951
602.199
618.216
636.029
655.656
677.106
700.381
507.683
508.14
509.088
510.594
512.75
515.669
519.475
524.298
530.266
537.499
546.107
556.186
567.817
581.067
595.99
612.624
631
651.136
673.046
696.733
491.475
492.102
493.383
495.368
498.13
501.757
506.347
512.003
518.83
526.925
536.382
547.282
559.695
573.681
589.29
606.559
625.517
646.185
668.576
692.7
475.71
476.489
478.066
480.48
483.786
488.051
493.353
499.772
507.39
516.288
526.541
538.218
551.378
566.074
582.35
600.24
619.774
640.971
663.848
688.413
460.83
461.738
463.57
466.354
470.131
474.953
480.879
487.971
496.295
505.913
516.887
529.273
543.121
558.477
575.378
593.857
613.939
635.646
658.992
683.989
447.08
448.097
450.142
453.237
457.413
462.709
469.168
476.84
485.775
496.023
507.631
520.648
535.113
551.065
568.537
587.558
608.15
630.333
654.122
679.529
)
;
    }
    coldSide
    {
        type            mixed;
        refValue        uniform 300;
        refGradient     uniform 0;
        valueFraction   uniform 0.991591;
        source          uniform 0;
        value           nonuniform List<scalar> 
400
(
300.024
300.024
300.024
300.024
300.025
300.025
300.025
300.026
300.026
300.027
300.027
300.028
300.029
300.029
300.03
300.031
300.032
300.033
300.034
300.035
300.025
300.025
300.025
300.025
300.025
300.025
300.026
300.026
300.026
300.027
300.028
300.028
300.029
300.03
300.031
300.031
300.033
300.034
300.034
300.035
300.025
300.025
300.025
300.026