/*--------------------------------*- C++ -*----------------------------------*\
| =========                 |                                                 |
| \\      /  F ield         | OpenFOAM: The Open Source CFD Toolbox           |
|  \\    /   O peration     | Version:  2212                                  |
|   \\  /    A nd           | Website:  www.openfoam.com                      |
|    \\/     M anipulation  |                                                 |
\*---------------------------------------------------------------------------*/
FoamFile
{
    version     2.0;
    format      ascii;
    arch        "LSB;label=32;scalar=64";
    class       volScalarField;
    location    "./ITHACAoutput/true/0.2";
    object      trueState;
}
// * * * * * * * * * * * * * * * * * * * * * * * * * * * * * * * * * * * * * //

dimensions      [0 0 0 1 0 0 0];

internalField   nonuniform List<scalar> 
3200
(
372.07
373.01
374.151
375.377
376.636
377.874
379.018
379.986
380.693
381.067
381.067
380.693
379.986
379.018
377.874
376.636
375.377
374.151
373.01
372.07
365.453
366.216
367.159
368.175
369.217
370.242
371.189
371.989
372.574
372.882
372.882
372.574
371.989
371.189
370.242
369.217
368.175
367.159
366.216
365.453
357.888
358.497
359.261
360.085
360.931
361.762
362.53
363.179
363.652
363.903
363.903
363.652
363.179
362.53
361.762
360.931
360.085
359.261
358.497
357.888
349.355
349.829
350.431
351.08
351.748
352.403
353.008
353.52
353.892
354.089
354.089
353.892
353.52
353.008
352.403
351.748
351.08
350.431
349.829
349.355
339.85
340.203
340.656
341.146
341.65
342.144
342.6
342.986
343.266
343.415
343.415
343.266
342.986
342.6
342.144
341.65
341.146
340.656
340.203
339.85
329.402
329.646
329.962
330.304
330.655
331
331.318
331.587
331.783
331.886
331.886
331.783
331.587
331.318
331
330.655
330.304
329.962
329.646
329.402
318.108
318.252
318.438
318.64
318.848
319.051
319.239
319.398
319.514
319.575
319.575
319.514
319.398
319.239
319.051
318.848
318.64
318.438
318.252
318.108
306.168
306.215
306.277
306.345
306.414
306.481
306.544
306.597
306.635
306.655
306.655
306.635
306.597
306.544
306.481
306.414
306.345
306.277
306.215
306.168
372.127
373.058
374.19
375.405
376.651
377.874
379.005
379.961
380.658
381.027
381.027
380.658
379.961
379.005
377.874
376.651
375.405
374.19
373.058
372.127
365.5
366.256
367.192
368.197
369.229
370.242
371.178
371.969
372.545
372.85
372.85
372.545
371.969
371.178
370.242
369.229
368.197
367.192
366.256
365.5
357.926
358.53
359.287
360.104
360.941
361.763
362.522
363.163
363.63
363.877
363.877
363.63
363.163
362.522
361.763
360.941
360.104
359.287
358.53
357.926
349.385
349.855
350.451
351.095
351.756
352.404
353.002
353.507
353.875
354.069
354.069
353.875
353.507
353.002
352.404
351.756
351.095
350.451
349.855
349.385
339.872
340.223
340.672
341.157
341.656
342.144
342.595
342.976
343.253
343.4
343.4
343.253
342.976
342.595
342.144
341.656
341.157
340.672
340.223
339.872
329.418
329.66
329.973
330.312
330.66
331
331.315
331.58
331.774
331.876
331.876
331.774
331.58
331.315
331
330.66
330.312
329.973
329.66
329.418
318.118
318.26
318.445
318.645
318.85
319.052
319.237
319.394
319.508
319.569
319.569
319.508
319.394
319.237
319.052
318.85
318.645
318.445
318.26
318.118
306.171
306.218
306.28
306.346
306.414
306.481
306.543
306.595
306.633
306.653
306.653
306.633
306.595
306.543
306.481
306.414
306.346
306.28
306.218
306.171
372.24
373.157
374.27
375.462
376.682
377.879
378.983
379.915
380.594
380.953
380.953
380.594
379.915
378.983
377.879
376.682
375.462
374.27
373.157
372.24
365.594
366.338
367.258
368.245
369.256
370.247
371.16
371.931
372.493
372.789
372.789
372.493
371.931
371.16
370.247
369.256
368.245
367.258
366.338
365.594
358.002
358.596
359.341
360.142
360.963
361.766
362.508
363.133
363.588
363.828
363.828
363.588
363.133
362.508
361.766
360.963
360.142
359.341
358.596
358.002
349.445
349.907
350.494
351.126
351.773
352.407
352.991
353.483
353.842
354.031
354.031
353.842
353.483
352.991
352.407
351.773
351.126
350.494
349.907
349.445
339.918
340.262
340.704
341.181
341.669
342.147
342.587
342.958
343.229
343.371
343.371
343.229
342.958
342.587
342.147
341.669
341.181
340.704
340.262
339.918
329.45
329.688
329.996
330.328
330.669
331.002
331.309
331.568
331.757
331.856
331.856
331.757
331.568
331.309
331.002
330.669
330.328
329.996
329.688
329.45
318.136
318.276
318.458
318.654
318.856
319.053
319.234
319.387
319.498
319.557
319.557
319.498
319.387
319.234
319.053
318.856
318.654
318.458
318.276
318.136
306.177
306.224
306.284
306.349
306.416
306.482
306.542
306.593
306.63
306.649
306.649
306.63
306.593
306.542
306.482
306.416
306.349
306.284
306.224
306.177
372.413
373.309
374.393
375.552
376.736
377.894
378.96
379.858
380.511
380.856
380.856
380.511
379.858
378.96
377.894
376.736
375.552
374.393
373.309
372.413
365.736
366.464
367.36
368.32
369.301
370.259
371.142
371.884
372.425
372.71
372.71
372.425
371.884
371.142
370.259
369.301
368.32
367.36
366.464
365.736
358.118
358.698
359.424
360.203
360.999
361.777
362.493
363.095
363.533
363.764
363.764
363.533
363.095
362.493
361.777
360.999
360.203
359.424
358.698
358.118
349.537
349.988
350.56
351.174
351.802
352.415
352.979
353.454
353.799
353.981
353.981
353.799
353.454
352.979
352.415
351.802
351.174
350.56
349.988
349.537
339.987
340.323
340.754
341.217
341.691
342.154
342.579
342.937
343.197
343.334
343.334
343.197
342.937
342.579
342.154
341.691
341.217
340.754
340.323
339.987
329.498
329.73
330.03
330.354
330.684
331.007
331.304
331.553
331.734
331.83
331.83
331.734
331.553
331.304
331.007
330.684
330.354
330.03
329.73
329.498
318.165
318.301
318.478
318.67
318.865
319.056
319.231
319.378
319.485
319.542
319.542
319.485
319.378
319.231
319.056
318.865
318.67
318.478
318.301
318.165
306.187
306.232
306.291
306.354
306.419
306.483
306.541
306.59
306.626
306.644
306.644
306.626
306.59
306.541
306.483
306.419
306.354
306.291
306.232
306.187
372.647
373.516
374.564
375.681
376.819
377.928
378.946
379.801
380.422
380.749
380.749
380.422
379.801
378.946
377.928
376.819
375.681
374.564
373.516
372.647
365.93
366.636
367.502
368.427
369.37
370.288
371.131
371.838
372.352
372.622
372.622
372.352
371.838
371.131
370.288
369.37
368.427
367.502
366.636
365.93
358.275
358.838
359.54
360.291
361.056
361.801
362.485
363.058
363.475
363.694
363.694
363.475
363.058
362.485
361.801
361.056
360.291
359.54
358.838
358.275
349.661
350.098
350.651
351.243
351.847
352.435
352.973
353.426
353.754
353.926
353.926
353.754
353.426
352.973
352.435
351.847
351.243
350.651
350.098
349.661
340.08
340.406
340.823
341.27
341.725
342.168
342.575
342.916
343.163
343.293
343.293
343.163
342.916
342.575
342.168
341.725
341.27
340.823
340.406
340.08
329.563
329.788
330.078
330.39
330.708
331.017
331.301
331.539
331.711
331.802
331.802
331.711
331.539
331.301
331.017
330.708
330.39
330.078
329.788
329.563
318.203
318.336
318.507
318.691
318.879
319.062
319.229
319.37
319.472
319.525
319.525
319.472
319.37
319.229
319.062
318.879
318.691
318.507
318.336
318.203
306.2
306.243
306.3
306.362
306.424
306.485
306.54
306.587
306.621
306.639
306.639
306.621
306.587
306.54
306.485
306.424
306.362
306.3
306.243
306.2
372.946
373.782
374.788
375.856
376.94
377.992
378.954
379.76
380.343
380.651
380.651
380.343
379.76
378.954
377.992
376.94
375.856
374.788
373.782
372.946
366.178
366.857
367.688
368.573
369.47
370.342
371.138
371.805
372.288
372.542
372.542
372.288
371.805
371.138
370.342
369.47
368.573
367.688
366.857
366.178
358.476
359.017
359.691
360.409
361.138
361.845
362.491
363.032
363.424
363.63
363.63
363.424
363.032
362.491
361.845
361.138
360.409
359.691
359.017
358.476
349.819
350.24
350.77
351.337
351.912
352.47
352.979
353.406
353.714
353.876
353.876
353.714
353.406
352.979
352.47
351.912
351.337
350.77
350.24
349.819
340.199
340.513
340.913
341.34
341.774
342.195
342.579
342.901
343.133
343.256
343.256
343.133
342.901
342.579
342.195
341.774
341.34
340.913
340.513
340.199
329.646
329.863
330.142
330.44
330.742
331.036
331.304
331.528
331.691
331.776
331.776
331.691
331.528
331.304
331.036
330.742
330.44
330.142
329.863
329.646
318.252
318.38
318.544
318.721
318.899
319.073
319.231
319.364
319.46
319.51
319.51
319.46
319.364
319.231
319.073
318.899
318.721
318.544
318.38
318.252
306.216
306.258
306.313
306.371
306.431
306.488
306.541
306.585
306.617
306.634
306.634
306.617
306.585
306.541
306.488
306.431
306.371
306.313
306.258
306.216
373.314
374.113
375.071
376.084
377.108
378.097
378.998
379.75
380.294
380.579
380.579
380.294
379.75
378.998
378.097
377.108
376.084
375.071
374.113
373.314
366.482
367.131
367.923
368.762
369.61
370.43
371.176
371.799
372.248
372.484
372.484
372.248
371.799
371.176
370.43
369.61
368.762
367.923
367.131
366.482
358.722
359.24
359.882
360.563
361.252
361.917
362.523
363.028
363.392
363.584
363.584
363.392
363.028
362.523
361.917
361.252
360.563
359.882
359.24
358.722
350.013
350.416
350.921
351.459
352.002
352.527
353.004
353.403
353.69
353.841
353.841
353.69
353.403
353.004
352.527
352.002
351.459
350.921
350.416
350.013
340.346
340.646
341.027
341.432
341.842
342.238
342.599
342.899
343.116
343.229
343.229
343.116
342.899
342.599
342.238
341.842
341.432
341.027
340.646
340.346
329.748
329.956
330.221
330.504
330.79
331.067
331.318
331.527
331.678
331.758
331.758
331.678
331.527
331.318
331.067
330.79
330.504
330.221
329.956
329.748
318.313
318.435
318.591
318.759
318.928
319.091
319.239
319.363
319.453
319.499
319.499
319.453
319.363
319.239
319.091
318.928
318.759
318.591
318.435
318.313
306.236
306.276
306.328
306.384
306.44
306.494
306.544
306.585
306.615
306.63
306.63
306.615
306.585
306.544
306.494
306.44
306.384
306.328
306.276
306.236
373.753
374.512
375.42
376.374
377.333
378.256
379.093
379.789
380.29
380.553
380.553
380.29
379.789
379.093
378.256
377.333
376.374
375.42
374.512
373.753
366.845
367.462
368.212
369.003
369.798
370.562
371.256
371.832
372.247
372.464
372.464
372.247
371.832
371.256
370.562
369.798
369.003
368.212
367.462
366.845
359.017
359.51
360.117
360.759
361.405
362.025
362.588
363.056
363.392
363.568
363.568
363.392
363.056
362.588
362.025
361.405
360.759
360.117
359.51
359.017
350.246
350.629
351.107
351.613
352.123
352.613
353.056
353.425
353.69
353.829
353.829
353.69
353.425
353.056
352.613
352.123
351.613
351.107
350.629
350.246
340.522
340.807
341.167
341.549
341.934
342.303
342.638
342.916
343.116
343.221
343.221
343.116
342.916
342.638
342.303
341.934
341.549
341.167
340.807
340.522
329.871
330.068
330.319
330.586
330.854
331.112
331.346
331.54
331.679
331.752
331.752
331.679
331.54
331.346
331.112
330.854
330.586
330.319
330.068
329.871
318.385
318.501
318.649
318.807
318.965
319.118
319.256
319.371
319.453
319.496
319.496
319.453
319.371
319.256
319.118
318.965
318.807
318.649
318.501
318.385
306.26
306.298
306.348
306.4
306.453
306.503
306.549
306.587
306.615
306.629
306.629
306.615
306.587
306.549
306.503
306.453
306.4
306.348
306.298
306.26
374.269
374.986
375.839
376.732
377.626
378.481
379.253
379.891
380.35
380.59
380.59
380.35
379.891
379.253
378.481
377.626
376.732
375.839
374.986
374.269
367.272
367.855
368.561
369.3
370.041
370.749
371.389
371.918
372.297
372.496
372.496
372.297
371.918
371.389
370.749
370.041
369.3
368.561
367.855
367.272
359.364
359.829
360.4
361.001
361.602
362.178
362.697
363.126
363.434
363.595
363.595
363.434
363.126
362.697
362.178
361.602
361.001
360.4
359.829
359.364
350.519
350.881
351.331
351.805
352.279
352.733
353.143
353.481
353.724
353.851
353.851
353.724
353.481
353.143
352.733
352.279
351.805
351.331
350.881
350.519
340.728
340.997
341.336
341.694
342.052
342.395
342.703
342.959
343.142
343.238
343.238
343.142
342.959
342.703
342.395
342.052
341.694
341.336
340.997
340.728
330.015
330.201
330.437
330.687
330.937
331.176
331.391
331.57
331.697
331.764
331.764
331.697
331.57
331.391
331.176
330.937
330.687
330.437
330.201
330.015
318.47
318.58
318.719
318.867
319.014
319.156
319.283
319.388
319.464
319.503
319.503
319.464
319.388
319.283
319.156
319.014
318.867
318.719
318.58
318.47
306.288
306.325
306.371
306.42
306.469
306.516
306.558
306.593
306.619
306.632
306.632
306.619
306.593
306.558
306.516
306.469
306.42
306.371
306.325
306.288
374.865
375.539
376.337
377.168
377.995
378.782
379.489
380.072
380.489
380.706
380.706
380.489
380.072
379.489
378.782
377.995
377.168
376.337
375.539
374.865
367.766
368.314
368.973
369.662
370.347
371
371.585
372.068
372.413
372.594
372.594
372.413
372.068
371.585
371
370.347
369.662
368.973
368.314
367.766
359.765
360.201
360.736
361.295
361.852
362.382
362.857
363.249
363.529
363.676
363.676
363.529
363.249
362.857
362.382
361.852
361.295
360.736
360.201
359.765
350.835
351.175
351.596
352.037
352.476
352.894
353.27
353.579
353.8
353.915
353.915
353.8
353.579
353.27
352.894
352.476
352.037
351.596
351.175
350.835
340.966
341.219
341.536
341.869
342.201
342.516
342.8
343.033
343.2
343.287
343.287
343.2
343.033
342.8
342.516
342.201
341.869
341.536
341.219
340.966
330.181
330.356
330.577
330.809
331.041
331.261
331.459
331.621
331.738
331.799
331.799
331.738
331.621
331.459
331.261
331.041
330.809
330.577
330.356
330.181
318.569
318.671
318.802
318.939
319.076
319.206
319.323
319.419
319.488
319.524
319.524
319.488
319.419
319.323
319.206
319.076
318.939
318.802
318.671
318.569
306.321
306.355
306.398
306.444
306.49
306.533
306.572
306.604
306.626
306.638
306.638
306.626
306.604
306.572
306.533
306.49
306.444
306.398
306.355
306.321
375.545
376.176
376.919
377.688
378.449
379.17
379.814
380.342
380.719
380.916
380.916
380.719
380.342
379.814
379.17
378.449
377.688
376.919
376.176
375.545
368.33
368.842
369.456
370.094
370.724
371.322
371.855
372.294
372.606
372.768
372.768
372.606
372.294
371.855
371.322
370.724
370.094
369.456
368.842
368.33
360.222
360.631
361.128
361.646
362.159
362.644
363.077
363.433
363.686
363.818
363.818
363.686
363.433
363.077
362.644
362.159
361.646
361.128
360.631
360.222
351.196
351.514
351.906
352.314
352.719
353.102
353.444
353.724
353.924
354.028
354.028
353.924
353.724
353.444
353.102
352.719
352.314
351.906
351.514
351.196
341.238
341.475
341.77
342.079
342.384
342.673
342.931
343.143
343.294
343.372
343.372
343.294
343.143
342.931
342.673
342.384
342.079
341.77
341.475
341.238
330.371
330.535
330.74
330.956
331.169
331.371
331.551
331.698
331.804
331.859
331.859
331.804
331.698
331.551
331.371
331.169
330.956
330.74
330.535
330.371
318.681
318.777
318.898
319.026
319.152
319.271
319.377
319.465
319.527
319.559
319.559
319.527
319.465
319.377
319.271
319.152
319.026
318.898
318.777
318.681
306.358
306.39
306.43
306.473
306.515
306.554
306.59
306.619
306.639
306.65
306.65
306.639
306.619
306.59
306.554
306.515
306.473
306.43
306.39
306.358
376.314
376.901
377.59
378.298
378.996
379.653
380.237
380.714
381.053
381.23
381.23
381.053
380.714
380.237
379.653
378.996
378.298
377.59
376.901
376.314
368.966
369.443
370.012
370.6
371.178
371.723
372.207
372.602
372.883
373.03
373.03
372.883
372.602
372.207
371.723
371.178
370.6
370.012
369.443
368.966
360.739
361.119
361.58
362.058
362.528
362.97
363.363
363.684
363.912
364.031
364.031
363.912
363.684
363.363
362.97
362.528
362.058
361.58
361.119
360.739
351.604
351.899
352.263
352.639
353.01
353.359
353.67
353.923
354.103
354.197
354.197
354.103
353.923
353.67
353.359
353.01
352.639
352.263
351.899
351.604
341.546
341.766
342.04
342.324
342.604
342.868
343.102
343.293
343.429
343.5
343.5
343.429
343.293
343.102
342.868
342.604
342.324
342.04
341.766
341.546
330.586
330.738
330.929
331.127
331.323
331.507
331.67
331.804
331.898
331.948
331.948
331.898
331.804
331.67
331.507
331.323
331.127
330.929
330.738
330.586
318.808
318.897
319.01
319.127
319.243
319.351
319.448
319.527
319.583
319.612
319.612
319.583
319.527
319.448
319.351
319.243
319.127
319.01
318.897
318.808
306.4
306.43
306.468
306.507
306.545
306.581
306.613
306.639
306.658
306.668
306.668
306.658
306.639
306.613
306.581
306.545
306.507
306.468
306.43
306.4
377.173
377.718
378.354
379.005
379.642
380.238
380.766
381.195
381.499
381.657
381.657
381.499
381.195
380.766
380.238
379.642
379.005
378.354
377.718
377.173
369.678
370.121
370.646
371.186
371.714
372.209
372.646
373.002
373.254
373.385
373.385
373.254
373.002
372.646
372.209
371.714
371.186
370.646
370.121
369.678
361.317
361.67
362.096
362.534
362.963
363.365
363.72
364.009
364.214
364.32
364.32
364.214
364.009
363.72
363.365
362.963
362.534
362.096
361.67
361.317
352.06
352.334
352.67
353.016
353.354
353.671
353.952
354.18
354.342
354.425
354.425
354.342
354.18
353.952
353.671
353.354
353.016
352.67
352.334
352.06
341.89
342.095
342.347
342.609
342.864
343.104
343.315
343.488
343.609
343.673
343.673
343.609
343.488
343.315
343.104
342.864
342.609
342.347
342.095
341.89
330.826
330.967
331.143
331.326
331.504
331.671
331.819
331.939
332.024
332.068
332.068
332.024
331.939
331.819
331.671
331.504
331.326
331.143
330.967
330.826
318.95
319.033
319.137
319.244
319.35
319.449
319.536
319.607
319.657
319.683
319.683
319.657
319.607
319.536
319.449
319.35
319.244
319.137
319.033
318.95
306.448
306.475
306.51
306.546
306.581
306.613
306.643
306.666
306.683
306.692
306.692
306.683
306.666
306.643
306.613
306.581
306.546
306.51
306.475
306.448
378.127
378.631
379.216
379.812
380.392
380.931
381.407
381.792
382.063
382.204
382.204
382.063
381.792
381.407
380.931
380.392
379.812
379.216
378.631
378.127
370.468
370.878
371.362
371.856
372.336
372.784
373.178
373.497
373.722
373.839
373.839
373.722
373.497
373.178
372.784
372.336
371.856
371.362
370.878
370.468
361.959
362.285
362.677
363.078
363.469
363.833
364.153
364.412
364.595
364.69
364.69
364.595
364.412
364.153
363.833
363.469
363.078
362.677
362.285
361.959
352.566
352.82
353.129
353.445
353.754
354.041
354.294
354.498
354.643
354.718
354.718
354.643
354.498
354.294
354.041
353.754
353.445
353.129
352.82
352.566
342.272
342.461
342.694
342.933
343.166
343.383
343.573
343.728
343.837
343.893
343.893
343.837
343.728
343.573
343.383
343.166
342.933
342.694
342.461
342.272
331.092
331.223
331.385
331.552
331.715
331.866
331.999
332.107
332.183
332.223
332.223
332.183
332.107
331.999
331.866
331.715
331.552
331.385
331.223
331.092
319.107
319.184
319.28
319.378
319.474
319.564
319.643
319.706
319.751
319.775
319.775
319.751
319.706
319.643
319.564
319.474
319.378
319.28
319.184
319.107
306.5
306.525
306.557
306.59
306.622
306.652
306.678
306.699
306.714
306.722
306.722
306.714
306.699
306.678
306.652
306.622
306.59
306.557
306.525
306.5
379.177
379.642
380.18
380.723
381.249
381.737
382.164
382.508
382.751
382.876
382.876
382.751
382.508
382.164
381.737
381.249
380.723
380.18
379.642
379.177
371.339
371.716
372.16
372.611
373.048
373.452
373.806
374.092
374.293
374.397
374.397
374.293
374.092
373.806
373.452
373.048
372.611
372.16
371.716
371.339
362.665
362.966
363.326
363.692
364.047
364.375
364.663
364.895
365.059
365.143
365.143
365.059
364.895
364.663
364.375
364.047
363.692
363.326
362.966
362.665
353.124
353.358
353.641
353.93
354.21
354.47
354.697
354.88
355.009
355.076
355.076
355.009
354.88
354.697
354.47
354.21
353.93
353.641
353.358
353.124
342.693
342.867
343.081
343.299
343.511
343.706
343.878
344.016
344.114
344.164
344.164
344.114
344.016
343.878
343.706
343.511
343.299
343.081
342.867
342.693
331.386
331.507
331.656
331.808
331.955
332.092
332.212
332.309
332.377
332.412
332.412
332.377
332.309
332.212
332.092
331.955
331.808
331.656
331.507
331.386
319.281
319.352
319.439
319.53
319.617
319.698
319.768
319.825
319.866
319.886
319.886
319.866
319.825
319.768
319.698
319.617
319.53
319.439
319.352
319.281
306.558
306.581
306.61
306.64
306.669
306.696
306.72
306.739
306.752
306.759
306.759
306.752
306.739
306.72
306.696
306.669
306.64
306.61
306.581
306.558
380.324
380.753
381.245
381.74
382.216
382.656
383.039
383.347
383.563
383.674
383.674
383.563
383.347
383.039
382.656
382.216
381.74
381.245
380.753
380.324
372.289
372.636
373.043
373.454
373.849
374.214
374.531
374.787
374.966
375.059
375.059
374.966
374.787
374.531
374.214
373.849
373.454
373.043
372.636
372.289
363.437
363.714
364.043
364.377
364.698
364.994
365.253
365.46
365.606
365.681
365.681
365.606
365.46
365.253
364.994
364.698
364.377
364.043
363.714
363.437
353.732
353.948
354.207
354.471
354.724
354.958
355.162
355.326
355.441
355.5
355.5
355.441
355.326
355.162
354.958
354.724
354.471
354.207
353.948
353.732
343.152
343.313
343.508
343.707
343.899
344.075
344.229
344.353
344.44
344.485
344.485
344.44
344.353
344.229
344.075
343.899
343.707
343.508
343.313
343.152
331.707
331.817
331.954
332.093
332.226
332.35
332.457
332.544
332.604
332.635
332.635
332.604
332.544
332.457
332.35
332.226
332.093
331.954
331.817
331.707
319.47
319.535
319.616
319.698
319.777
319.85
319.913
319.964
320
320.019
320.019
320
319.964
319.913
319.85
319.777
319.698
319.616
319.535
319.47
306.621
306.642
306.669
306.696
306.723
306.747
306.768
306.785
306.797
306.803
306.803
306.797
306.785
306.768
306.747
306.723
306.696
306.669
306.642
306.621
381.565
381.958
382.408
382.859
383.29
383.686
384.029
384.304
384.497
384.596
384.596
384.497
384.304
384.029
383.686
383.29
382.859
382.408
381.958
381.565
373.315
373.635
374.007
374.381
374.738
375.067
375.351
375.58
375.739
375.822
375.822
375.739
375.58
375.351
375.067
374.738
374.381
374.007
373.635
373.315
364.269
364.524
364.825
365.129
365.42
365.687
365.918
366.104
366.233
366.3
366.3
366.233
366.104
365.918
365.687
365.42
365.129
364.825
364.524
364.269
354.388
354.586
354.824
355.064
355.293
355.504
355.687
355.833
355.936
355.989
355.989
355.936
355.833
355.687
355.504
355.293
355.064
354.824
354.586
354.388
343.647
343.794
343.973
344.154
344.328
344.487
344.625
344.736
344.813
344.853
344.853
344.813
344.736
344.625
344.487
344.328
344.154
343.973
343.794
343.647
332.052
332.153
332.278
332.405
332.526
332.637
332.733
332.81
332.865
332.892
332.892
332.865
332.81
332.733
332.637
332.526
332.405
332.278
332.153
332.052
319.674
319.734
319.807
319.882
319.954
320.019
320.076
320.122
320.154
320.171
320.171
320.154
320.122
320.076
320.019
319.954
319.882
319.807
319.734
319.674
306.688
306.708
306.733
306.758
306.781
306.803
306.822
306.837
306.848
306.853
306.853
306.848
306.837
306.822
306.803
306.781
306.758
306.733
306.708
306.688
382.88
383.241
383.653
384.063
384.453
384.81
385.118
385.364
385.535
385.624
385.624
385.535
385.364
385.118
384.81
384.453
384.063
383.653
383.241
382.88
374.4
374.694
375.034
375.374
375.698
375.994
376.25
376.454
376.596
376.67
376.67
376.596
376.454
376.25
375.994
375.698
375.374
375.034
374.694
374.4
365.146
365.38
365.656
365.933
366.196
366.437
366.645
366.811
366.926
366.986
366.986
366.926
366.811
366.645
366.437
366.196
365.933
365.656
365.38
365.146
355.078
355.26
355.477
355.696
355.904
356.094
356.258
356.389
356.481
356.528
356.528
356.481
356.389
356.258
356.094
355.904
355.696
355.477
355.26
355.078
344.165
344.301
344.465
344.63
344.787
344.93
345.055
345.154
345.223
345.258
345.258
345.223
345.154
345.055
344.93
344.787
344.63
344.465
344.301
344.165
332.412
332.506
332.62
332.736
332.845
332.946
333.032
333.101
333.15
333.175
333.175
333.15
333.101
333.032
332.946
332.845
332.736
332.62
332.506
332.412
319.887
319.942
320.009
320.077
320.142
320.202
320.253
320.294
320.322
320.337
320.337
320.322
320.294
320.253
320.202
320.142
320.077
320.009
319.942
319.887
306.759
306.777
306.8
306.822
306.844
306.864
306.881
306.894
306.904
306.909
306.909
306.904
306.894
306.881
306.864
306.844
306.822
306.8
306.777
306.759
384.206
384.539
384.916
385.291
385.646
385.969
386.246
386.468
386.622
386.701
386.701
386.622
386.468
386.246
385.969
385.646
385.291
384.916
384.539
384.206
375.483
375.753
376.066
376.377
376.672
376.94
377.171
377.355
377.483
377.548
377.548
377.483
377.355
377.171
376.94
376.672
376.377
376.066
375.753
375.483
366.013
366.229
366.482
366.735
366.976
367.194
367.382
367.532
367.636
367.689
367.689
367.636
367.532
367.382
367.194
366.976
366.735
366.482
366.229
366.013
355.753
355.921
356.121
356.321
356.511
356.684
356.832
356.951
357.033
357.075
357.075
357.033
356.951
356.832
356.684
356.511
356.321
356.121
355.921
355.753
344.669
344.795
344.945
345.097
345.24
345.371
345.483
345.573
345.635
345.667
345.667
345.635
345.573
345.483
345.371
345.24
345.097
344.945
344.795
344.669
332.761
332.848
332.953
333.059
333.159
333.25
333.329
333.391
333.435
333.457
333.457
333.435
333.391
333.329
333.25
333.159
333.059
332.953
332.848
332.761
320.092
320.143
320.205
320.267
320.327
320.381
320.427
320.464
320.49
320.503
320.503
320.49
320.464
320.427
320.381
320.327
320.267
320.205
320.143
320.092
306.827
306.844
306.865
306.885
306.905
306.923
306.939
306.951
306.959
306.964
306.964
306.959
306.951
306.939
306.923
306.905
306.885
306.865
306.844
306.827
385.319
385.63
385.982
386.331
386.66
386.958
387.214
387.417
387.559
387.631
387.631
387.559
387.417
387.214
386.958
386.66
386.331
385.982
385.63
385.319
376.356
376.61
376.903
377.193
377.468
377.716
377.93
378.099
378.217
378.278
378.278
378.217
378.099
377.93
377.716
377.468
377.193
376.903
376.61
376.356
366.69
366.893
367.131
367.368
367.592
367.795
367.97
368.108
368.204
368.254
368.254
368.204
368.108
367.97
367.795
367.592
367.368
367.131
366.893
366.69
356.267
356.425
356.613
356.801
356.979
357.139
357.278
357.388
357.464
357.503
357.503
357.464
357.388
357.278
357.139
356.979
356.801
356.613
356.425
356.267
345.045
345.163
345.305
345.447
345.582
345.704
345.809
345.892
345.95
345.979
345.979
345.95
345.892
345.809
345.704
345.582
345.447
345.305
345.163
345.045
333.017
333.099
333.198
333.298
333.392
333.477
333.55
333.609
333.649
333.67
333.67
333.649
333.609
333.55
333.477
333.392
333.298
333.198
333.099
333.017
320.241
320.289
320.347
320.406
320.462
320.513
320.556
320.59
320.614
320.627
320.627
320.614
320.59
320.556
320.513
320.462
320.406
320.347
320.289
320.241
306.876
306.892
306.912
306.931
306.95
306.967
306.981
306.993
307
307.005
307.005
307
306.993
306.981
306.967
306.95
306.931
306.912
306.892
306.876
)
;

boundaryField
{
    hotSide
    {
        type            fixedGradient;
        gradient        nonuniform List<scalar> 
400
(
454.86
455.719
457.45
460.077
463.638
468.179
473.75
480.41
488.216
497.229
507.504
519.096
532.053
546.421
562.237
579.536
598.344
618.684
640.574
664.029
470.996
471.727
473.207
475.469
478.563
482.548
487.493
493.472
500.561
508.835
518.365
529.217
541.45
555.118
570.265
586.928
605.138
624.919
646.289
669.262
488.458
489.037
490.218
492.046
494.587
497.918
502.131
507.32
513.582
521.011
529.695
539.714
551.14
564.034
578.446
594.419
611.985
631.168
651.988
674.454
506.958
507.359
508.193
509.518
511.42
514.002
517.38
521.674
527.006
533.493
541.243
550.351
560.9
572.961
586.59
601.833
618.724
637.286
657.537
679.485
525.978
526.18
526.623
527.386
528.577
530.328
532.786
536.102
540.427
545.902
552.656
560.8
570.432
581.629
594.453
608.951
625.158
643.097
662.781
684.217
544.726
544.714
544.74
544.903
545.34
546.216
547.71
550.009
553.294
557.732
563.475
570.65
579.365
589.707
601.74
615.514
631.061
648.402
667.547
688.498
562.127
561.901
561.512
561.08
560.77
560.783
561.335
562.646
564.927
568.373
573.155
579.417
587.275
596.823
608.128
621.239
636.187
652.989
671.651
692.17
576.896
576.478
575.714
574.747
573.77
573.015
572.732
573.172
574.576
577.159
581.112
586.59
593.719
602.595
613.288
625.845
640.295
656.651
674.916
695.083
587.705
587.138
586.088
584.712
583.227
581.89
580.976
580.763
581.51
583.452
586.79
591.691
598.286
606.672
616.921
629.079
643.171
659.208
677.19
697.106
593.432
592.785
591.579
589.981
588.22
586.567
585.313
584.747
585.141
586.74
589.751
594.345
600.657
608.785
618.8
630.747
644.652
660.523
678.357
698.143
593.432
592.785
591.579
589.981
588.22
586.567
585.313
584.747
585.141
586.74
589.751
594.345
600.657
608.785
618.8
630.747
644.652
660.523
678.357
698.143
587.705
587.138
586.088
584.712
583.227
581.89
580.976
580.763
581.51
583.452
586.79
591.691
598.286
606.672
616.921
629.079
643.171
659.208
677.19
697.106
576.896
576.478
575.714
574.747
573.77
573.015
572.732
573.172
574.576
577.159
581.112
586.59
593.719
602.595
613.288
625.845
640.295
656.651
674.916
695.083
562.127
561.901
561.512
561.08
560.77
560.783
561.335
562.646
564.927
568.373
573.155
579.417
587.275
596.823
608.128
621.239
636.187
652.989
671.651
692.17
544.726
544.714
544.74
544.903
545.34
546.216
547.71
550.009
553.294
557.732
563.475
570.65
579.365
589.707
601.74
615.514
631.061
648.402
667.547
688.498
525.978
526.18
526.623
527.386
528.577
530.328
532.786
536.102
540.427
545.902
552.656
560.8
570.432
581.629
594.453
608.951
625.158
643.097
662.781
684.217
506.958
507.359
508.193
509.518
511.42
514.002
517.38
521.674
527.006
533.493
541.243
550.351
560.9
572.961
586.59
601.833
618.724
637.286
657.537
679.485
488.458
489.037
490.218
492.046
494.587
497.918
502.131
507.32
513.582
521.011
529.695
539.714
551.14
564.034
578.446
594.419
611.985
631.168
651.988
674.454
470.996
471.727
473.207
475.469
478.563
482.548
487.493
493.472
500.561
508.835
518.365
529.217
541.45
555.118
570.265
586.928
605.138
624.919
646.289
669.262
454.86
455.719
457.45
460.077
463.638
468.179
473.75
480.41
488.216
497.229
507.504
519.096
532.053
546.421
562.237
579.536
598.344
618.684
640.574
664.029
)
;
    }
    coldSide
    {
        type            mixed;
        refValue        uniform 300;
        refGradient     uniform 0;
        valueFraction   uniform 0.991591;
        source          uniform 0;
        value           nonuniform List<scalar> 
400
(
300.052
300.052
300.052
300.052
300.052
300.052
300.052
300.053
300.053
300.053
300.053
300.054
300.054
300.055
300.055
300.056
300.056
300.057
300.057
300.058
300.052
300.052
300.052
300.052
300.052
300.053
300.053
300.053
300.053
300.053
300.054
300.054
300.054
300.055
300.055
300.056
300.056
300.057
300.058
300.058
300.053
300.053
300.053
300.053
300.053