/*--------------------------------*- C++ -*----------------------------------*\
| =========                 |                                                 |
| \\      /  F ield         | OpenFOAM: The Open Source CFD Toolbox           |
|  \\    /   O peration     | Version:  2212                                  |
|   \\  /    A nd           | Website:  www.openfoam.com                      |
|    \\/     M anipulation  |                                                 |
\*---------------------------------------------------------------------------*/
FoamFile
{
    version     2.0;
    format      ascii;
    arch        "LSB;label=32;scalar=64";
    class       volScalarField;
    location    "0";
    object      Ttrue;
}
// * * * * * * * * * * * * * * * * * * * * * * * * * * * * * * * * * * * * * //

dimensions      [0 0 0 1 0 0 0];

internalField   nonuniform List<scalar> 
3200
(
337.24
337.528
337.895
338.295
338.708
339.112
339.486
339.801
340.031
340.152
340.152
340.031
339.801
339.486
339.112
338.708
338.295
337.895
337.528
337.24
332.176
332.42
332.736
333.083
333.439
333.789
334.112
334.385
334.583
334.688
334.688
334.583
334.385
334.112
333.789
333.439
333.083
332.736
332.42
332.176
327.155
327.357
327.624
327.917
328.218
328.514
328.786
329.016
329.184
329.272
329.272
329.184
329.016
328.786
328.514
328.218
327.917
327.624
327.357
327.155
322.171
322.334
322.551
322.79
323.037
323.278
323.501
323.689
323.825
323.897
323.897
323.825
323.689
323.501
323.278
323.037
322.79
322.551
322.334
322.171
317.217
317.342
317.511
317.697
317.888
318.076
318.249
318.395
318.501
318.557
318.557
318.501
318.395
318.249
318.076
317.888
317.697
317.511
317.342
317.217
312.287
312.375
312.496
312.628
312.765
312.899
313.023
313.127
313.202
313.242
313.242
313.202
313.127
313.023
312.899
312.765
312.628
312.496
312.375
312.287
307.374
307.427
307.499
307.578
307.66
307.741
307.815
307.877
307.923
307.947
307.947
307.923
307.877
307.815
307.741
307.66
307.578
307.499
307.427
307.374
302.471
302.488
302.512
302.539
302.567
302.594
302.618
302.639
302.655
302.663
302.663
302.655
302.639
302.618
302.594
302.567
302.539
302.512
302.488
302.471
337.388
337.673
338.037
338.434
338.842
339.242
339.611
339.922
340.149
340.269
340.269
340.149
339.922
339.611
339.242
338.842
338.434
338.037
337.673
337.388
332.303
332.545
332.859
333.202
333.555
333.901
334.22
334.489
334.685
334.788
334.788
334.685
334.489
334.22
333.901
333.555
333.202
332.859
332.545
332.303
327.262
327.463
327.727
328.017
328.316
328.608
328.878
329.105
329.27
329.357
329.357
329.27
329.105
328.878
328.608
328.316
328.017
327.727
327.463
327.262
322.259
322.42
322.636
322.872
323.116
323.355
323.575
323.761
323.896
323.967
323.967
323.896
323.761
323.575
323.355
323.116
322.872
322.636
322.42
322.259
317.285
317.409
317.576
317.76
317.95
318.136
318.307
318.451
318.555
318.611
318.611
318.555
318.451
318.307
318.136
317.95
317.76
317.576
317.409
317.285
312.335
312.423
312.542
312.674
312.809
312.942
313.064
313.167
313.241
313.281
313.281
313.241
313.167
313.064
312.942
312.809
312.674
312.542
312.423
312.335
307.403
307.455
307.527
307.605
307.687
307.766
307.84
307.901
307.946
307.97
307.97
307.946
307.901
307.84
307.766
307.687
307.605
307.527
307.455
307.403
302.48
302.498
302.522
302.548
302.575
302.602
302.627
302.647
302.662
302.67
302.67
302.662
302.647
302.627
302.602
302.575
302.548
302.522
302.498
302.48
337.683
337.964
338.322
338.711
339.111
339.502
339.863
340.167
340.388
340.504
340.504
340.388
340.167
339.863
339.502
339.111
338.711
338.322
337.964
337.683
332.558
332.796
333.104
333.441
333.787
334.126
334.438
334.7
334.891
334.992
334.992
334.891
334.7
334.438
334.126
333.787
333.441
333.104
332.796
332.558
327.477
327.674
327.934
328.219
328.511
328.797
329.061
329.282
329.443
329.528
329.528
329.443
329.282
329.061
328.797
328.511
328.219
327.934
327.674
327.477
322.433
322.592
322.804
323.037
323.276
323.51
323.725
323.906
324.037
324.106
324.106
324.037
323.906
323.725
323.51
323.276
323.037
322.804
322.592
322.433
317.421
317.543
317.707
317.888
318.074
318.255
318.422
318.563
318.665
318.719
318.719
318.665
318.563
318.422
318.255
318.074
317.888
317.707
317.543
317.421
312.432
312.518
312.636
312.765
312.897
313.027
313.146
313.247
313.32
313.358
313.358
313.32
313.247
313.146
313.027
312.897
312.765
312.636
312.518
312.432
307.461
307.512
307.583
307.66
307.74
307.818
307.889
307.949
307.993
308.016
308.016
307.993
307.949
307.889
307.818
307.74
307.66
307.583
307.512
307.461
302.5
302.517
302.541
302.566
302.593
302.619
302.643
302.663
302.678
302.686
302.686
302.678
302.663
302.643
302.619
302.593
302.566
302.541
302.517
302.5
338.127
338.401
338.75
339.129
339.517
339.896
340.244
340.537
340.749
340.861
340.861
340.749
340.537
340.244
339.896
339.517
339.129
338.75
338.401
338.127
332.941
333.173
333.474
333.801
334.137
334.465
334.766
335.019
335.203
335.3
335.3
335.203
335.019
334.766
334.465
334.137
333.801
333.474
333.173
332.941
327.799
327.992
328.246
328.522
328.806
329.083
329.338
329.551
329.706
329.788
329.788
329.706
329.551
329.338
329.083
328.806
328.522
328.246
327.992
327.799
322.696
322.851
323.058
323.284
323.516
323.743
323.951
324.125
324.252
324.318
324.318
324.252
324.125
323.951
323.743
323.516
323.284
323.058
322.851
322.696
317.625
317.744
317.904
318.08
318.26
318.436
318.598
318.733
318.832
318.883
318.883
318.832
318.733
318.598
318.436
318.26
318.08
317.904
317.744
317.625
312.578
312.662
312.776
312.902
313.03
313.156
313.271
313.368
313.438
313.475
313.475
313.438
313.368
313.271
313.156
313.03
312.902
312.776
312.662
312.578
307.548
307.598
307.667
307.742
307.82
307.895
307.964
308.022
308.064
308.087
308.087
308.064
308.022
307.964
307.895
307.82
307.742
307.667
307.598
307.548
302.529
302.546
302.569
302.594
302.62
302.645
302.668
302.688
302.702
302.709
302.709
302.702
302.688
302.668
302.645
302.62
302.594
302.569
302.546
302.529
338.72
338.986
339.323
339.688
340.061
340.425
340.757
341.037
341.239
341.345
341.345
341.239
341.037
340.757
340.425
340.061
339.688
339.323
338.986
338.72
333.452
333.677
333.968
334.284
334.607
334.921
335.209
335.451
335.625
335.717
335.717
335.625
335.451
335.209
334.921
334.607
334.284
333.968
333.677
333.452
328.23
328.417
328.662
328.929
329.202
329.468
329.711
329.915
330.062
330.14
330.14
330.062
329.915
329.711
329.468
329.202
328.929
328.662
328.417
328.23
323.048
323.198
323.398
323.616
323.839
324.056
324.255
324.421
324.542
324.605
324.605
324.542
324.421
324.255
324.056
323.839
323.616
323.398
323.198
323.048
317.897
318.013
318.168
318.337
318.511
318.679
318.834
318.963
319.057
319.106
319.106
319.057
318.963
318.834
318.679
318.511
318.337
318.168
318.013
317.897
312.772
312.854
312.964
313.085
313.209
313.33
313.44
313.532
313.599
313.634
313.634
313.599
313.532
313.44
313.33
313.209
313.085
312.964
312.854
312.772
307.665
307.713
307.78
307.852
307.927
307.999
308.065
308.121
308.161
308.182
308.182
308.161
308.121
308.065
307.999
307.927
307.852
307.78
307.713
307.665
302.568
302.584
302.607
302.631
302.656
302.68
302.702
302.721
302.734
302.741
302.741
302.734
302.721
302.702
302.68
302.656
302.631
302.607
302.584
302.568
339.464
339.719
340.043
340.392
340.748
341.093
341.408
341.671
341.861
341.961
341.961
341.861
341.671
341.408
341.093
340.748
340.392
340.043
339.719
339.464
334.093
334.31
334.589
334.891
335.199
335.498
335.77
335.998
336.162
336.249
336.249
336.162
335.998
335.77
335.498
335.199
334.891
334.589
334.31
334.093
328.77
328.95
329.185
329.441
329.701
329.953
330.183
330.376
330.515
330.588
330.588
330.515
330.376
330.183
329.953
329.701
329.441
329.185
328.95
328.77
323.488
323.633
323.825
324.033
324.246
324.452
324.64
324.797
324.911
324.971
324.971
324.911
324.797
324.64
324.452
324.246
324.033
323.825
323.633
323.488
318.239
318.35
318.499
318.661
318.826
318.987
319.133
319.255
319.343
319.389
319.389
319.343
319.255
319.133
318.987
318.826
318.661
318.499
318.35
318.239
313.015
313.094
313.2
313.316
313.434
313.549
313.653
313.74
313.803
313.836
313.836
313.803
313.74
313.653
313.549
313.434
313.316
313.2
313.094
313.015
307.811
307.858
307.921
307.991
308.062
308.13
308.193
308.245
308.283
308.303
308.303
308.283
308.245
308.193
308.13
308.062
307.991
307.921
307.858
307.811
302.617
302.633
302.654
302.677
302.701
302.724
302.745
302.763
302.775
302.782
302.782
302.775
302.763
302.745
302.724
302.701
302.677
302.654
302.633
302.617
340.359
340.603
340.912
341.243
341.579
341.904
342.199
342.445
342.622
342.715
342.715
342.622
342.445
342.199
341.904
341.579
341.243
340.912
340.603
340.359
334.865
335.072
335.338
335.625
335.916
336.197
336.452
336.665
336.819
336.899
336.899
336.819
336.665
336.452
336.197
335.916
335.625
335.338
335.072
334.865
329.421
329.593
329.817
330.059
330.305
330.543
330.759
330.938
331.068
331.136
331.136
331.068
330.938
330.759
330.543
330.305
330.059
329.817
329.593
329.421
324.018
324.156
324.339
324.537
324.739
324.933
325.109
325.256
325.362
325.418
325.418
325.362
325.256
325.109
324.933
324.739
324.537
324.339
324.156
324.018
318.65
318.756
318.898
319.052
319.208
319.359
319.497
319.611
319.693
319.736
319.736
319.693
319.611
319.497
319.359
319.208
319.052
318.898
318.756
318.65
313.309
313.384
313.485
313.595
313.707
313.815
313.912
313.994
314.053
314.084
314.084
314.053
313.994
313.912
313.815
313.707
313.595
313.485
313.384
313.309
307.987
308.031
308.092
308.158
308.225
308.29
308.349
308.398
308.433
308.451
308.451
308.433
308.398
308.349
308.29
308.225
308.158
308.092
308.031
307.987
302.676
302.691
302.711
302.733
302.756
302.778
302.797
302.814
302.825
302.832
302.832
302.825
302.814
302.797
302.778
302.756
302.733
302.711
302.691
302.676
341.406
341.639
341.931
342.243
342.558
342.861
343.136
343.364
343.528
343.614
343.614
343.528
343.364
343.136
342.861
342.558
342.243
341.931
341.639
341.406
335.769
335.965
336.217
336.488
336.761
337.023
337.261
337.458
337.6
337.674
337.674
337.6
337.458
337.261
337.023
336.761
336.488
336.217
335.965
335.769
330.182
330.345
330.558
330.786
331.017
331.239
331.44
331.606
331.726
331.789
331.789
331.726
331.606
331.44
331.239
331.017
330.786
330.558
330.345
330.182
324.639
324.77
324.943
325.13
325.319
325.501
325.665
325.801
325.899
325.95
325.95
325.899
325.801
325.665
325.501
325.319
325.13
324.943
324.77
324.639
319.132
319.232
319.367
319.512
319.659
319.8
319.928
320.033
320.109
320.149
320.149
320.109
320.033
319.928
319.8
319.659
319.512
319.367
319.232
319.132
313.652
313.723
313.819
313.923
314.028
314.129
314.22
314.295
314.35
314.378
314.378
314.35
314.295
314.22
314.129
314.028
313.923
313.819
313.723
313.652
308.192
308.235
308.292
308.355
308.418
308.478
308.533
308.578
308.611
308.628
308.628
308.611
308.578
308.533
308.478
308.418
308.355
308.292
308.235
308.192
302.745
302.759
302.778
302.799
302.82
302.841
302.859
302.874
302.885
302.891
302.891
302.885
302.874
302.859
302.841
302.82
302.799
302.778
302.759
302.745
342.608
342.828
343.103
343.395
343.689
343.97
344.223
344.433
344.583
344.661
344.661
344.583
344.433
344.223
343.97
343.689
343.395
343.103
342.828
342.608
336.805
336.991
337.228
337.481
337.736
337.979
338.198
338.38
338.51
338.578
338.578
338.51
338.38
338.198
337.979
337.736
337.481
337.228
336.991
336.805
331.056
331.21
331.41
331.623
331.839
332.044
332.23
332.383
332.493
332.55
332.55
332.493
332.383
332.23
332.044
331.839
331.623
331.41
331.21
331.056
325.351
325.475
325.638
325.813
325.989
326.157
326.309
326.434
326.524
326.571
326.571
326.524
326.434
326.309
326.157
325.989
325.813
325.638
325.475
325.351
319.684
319.779
319.906
320.042
320.179
320.309
320.427
320.525
320.595
320.631
320.631
320.595
320.525
320.427
320.309
320.179
320.042
319.906
319.779
319.684
314.046
314.113
314.204
314.301
314.398
314.492
314.576
314.646
314.696
314.722
314.722
314.696
314.646
314.576
314.492
314.398
314.301
314.204
314.113
314.046
308.429
308.469
308.523
308.581
308.64
308.696
308.747
308.789
308.819
308.834
308.834
308.819
308.789
308.747
308.696
308.64
308.581
308.523
308.469
308.429
302.824
302.837
302.856
302.875
302.895
302.914
302.931
302.945
302.955
302.96
302.96
302.955
302.945
302.931
302.914
302.895
302.875
302.856
302.837
302.824
343.966
344.172
344.429
344.702
344.973
345.232
345.465
345.656
345.793
345.864
345.864
345.793
345.656
345.465
345.232
344.973
344.702
344.429
344.172
343.966
337.976
338.151
338.373
338.608
338.844
339.068
339.269
339.435
339.553
339.615
339.615
339.553
339.435
339.269
339.068
338.844
338.608
338.373
338.151
337.976
332.042
332.187
332.374
332.573
332.772
332.962
333.132
333.272
333.373
333.425
333.425
333.373
333.272
333.132
332.962
332.772
332.573
332.374
332.187
332.042
326.156
326.272
326.425
326.588
326.751
326.906
327.045
327.16
327.241
327.284
327.284
327.241
327.16
327.045
326.906
326.751
326.588
326.425
326.272
326.156
320.308
320.398
320.516
320.643
320.769
320.89
320.998
321.087
321.151
321.184
321.184
321.151
321.087
320.998
320.89
320.769
320.643
320.516
320.398
320.308
314.491
314.554
314.639
314.729
314.82
314.906
314.983
315.047
315.092
315.116
315.116
315.092
315.047
314.983
314.906
314.82
314.729
314.639
314.554
314.491
308.696
308.733
308.784
308.838
308.893
308.945
308.991
309.029
309.056
309.071
309.071
309.056
309.029
308.991
308.945
308.893
308.838
308.784
308.733
308.696
302.913
302.926
302.943
302.961
302.979
302.997
303.012
303.025
303.034
303.039
303.039
303.034
303.025
303.012
302.997
302.979
302.961
302.943
302.926
302.913
345.48
345.673
345.913
346.165
346.415
346.653
346.864
347.038
347.162
347.226
347.226
347.162
347.038
346.864
346.653
346.415
346.165
345.913
345.673
345.48
339.282
339.446
339.652
339.87
340.087
340.293
340.477
340.627
340.734
340.79
340.79
340.734
340.627
340.477
340.293
340.087
339.87
339.652
339.446
339.282
333.143
333.278
333.452
333.637
333.82
333.994
334.15
334.277
334.368
334.415
334.415
334.368
334.277
334.15
333.994
333.82
333.637
333.452
333.278
333.143
327.053
327.162
327.304
327.455
327.605
327.748
327.875
327.979
328.053
328.091
328.091
328.053
327.979
327.875
327.748
327.605
327.455
327.304
327.162
327.053
321.004
321.088
321.198
321.315
321.432
321.543
321.642
321.723
321.78
321.81
321.81
321.78
321.723
321.642
321.543
321.432
321.315
321.198
321.088
321.004
314.988
315.047
315.125
315.209
315.293
315.372
315.442
315.5
315.541
315.563
315.563
315.541
315.5
315.442
315.372
315.293
315.209
315.125
315.047
314.988
308.993
309.029
309.076
309.126
309.176
309.224
309.266
309.301
309.326
309.339
309.339
309.326
309.301
309.266
309.224
309.176
309.126
309.076
309.029
308.993
303.013
303.025
303.041
303.058
303.074
303.09
303.105
303.116
303.125
303.129
303.129
303.125
303.116
303.105
303.09
303.074
303.058
303.041
303.025
303.013
347.153
347.332
347.554
347.786
348.016
348.233
348.425
348.582
348.694
348.752
348.752
348.694
348.582
348.425
348.233
348.016
347.786
347.554
347.332
347.153
340.724
340.877
341.068
341.269
341.468
341.656
341.823
341.959
342.055
342.106
342.106
342.055
341.959
341.823
341.656
341.468
341.269
341.068
340.877
340.724
334.358
334.484
334.646
334.816
334.984
335.143
335.284
335.399
335.481
335.523
335.523
335.481
335.399
335.284
335.143
334.984
334.816
334.646
334.484
334.358
328.044
328.146
328.277
328.416
328.554
328.684
328.799
328.894
328.96
328.995
328.995
328.96
328.894
328.799
328.684
328.554
328.416
328.277
328.146
328.044
321.773
321.851
321.953
322.061
322.169
322.27
322.359
322.433
322.485
322.512
322.512
322.485
322.433
322.359
322.27
322.169
322.061
321.953
321.851
321.773
315.536
315.591
315.664
315.741
315.818
315.89
315.954
316.006
316.043
316.063
316.063
316.043
316.006
315.954
315.89
315.818
315.741
315.664
315.591
315.536
309.322
309.355
309.399
309.445
309.491
309.535
309.573
309.605
309.627
309.639
309.639
309.627
309.605
309.573
309.535
309.491
309.445
309.399
309.355
309.322
303.123
303.134
303.149
303.165
303.18
303.194
303.207
303.218
303.225
303.229
303.229
303.225
303.218
303.207
303.194
303.18
303.165
303.149
303.134
303.123
348.983
349.15
349.355
349.568
349.778
349.975
350.149
350.29
350.39
350.442
350.442
350.39
350.29
350.149
349.975
349.778
349.568
349.355
349.15
348.983
342.303
342.444
342.621
342.806
342.988
343.158
343.309
343.432
343.519
343.564
343.564
343.519
343.432
343.309
343.158
342.988
342.806
342.621
342.444
342.303
335.689
335.805
335.954
336.111
336.265
336.409
336.537
336.64
336.714
336.752
336.752
336.714
336.64
336.537
336.409
336.265
336.111
335.954
335.805
335.689
329.129
329.223
329.345
329.472
329.598
329.717
329.821
329.906
329.966
329.997
329.997
329.966
329.906
329.821
329.717
329.598
329.472
329.345
329.223
329.129
322.615
322.687
322.781
322.881
322.979
323.071
323.152
323.218
323.264
323.289
323.289
323.264
323.218
323.152
323.071
322.979
322.881
322.781
322.687
322.615
316.136
316.187
316.254
316.325
316.395
316.461
316.519
316.566
316.599
316.617
316.617
316.599
316.566
316.519
316.461
316.395
316.325
316.254
316.187
316.136
309.682
309.713
309.753
309.796
309.838
309.877
309.912
309.94
309.96
309.971
309.971
309.96
309.94
309.912
309.877
309.838
309.796
309.753
309.713
309.682
303.244
303.254
303.268
303.282
303.296
303.309
303.321
303.33
303.337
303.341
303.341
303.337
303.33
303.321
303.309
303.296
303.282
303.268
303.254
303.244
350.972
351.126
351.314
351.51
351.701
351.879
352.036
352.163
352.253
352.299
352.299
352.253
352.163
352.036
351.879
351.701
351.51
351.314
351.126
350.972
344.018
344.149
344.311
344.481
344.646
344.801
344.937
345.047
345.125
345.165
345.165
345.125
345.047
344.937
344.801
344.646
344.481
344.311
344.149
344.018
337.133
337.242
337.379
337.522
337.662
337.793
337.908
338.001
338.067
338.101
338.101
338.067
338.001
337.908
337.793
337.662
337.522
337.379
337.242
337.133
330.307
330.394
330.506
330.623
330.738
330.845
330.939
331.015
331.069
331.097
331.097
331.069
331.015
330.939
330.845
330.738
330.623
330.506
330.394
330.307
323.529
323.595
323.682
323.773
323.863
323.946
324.019
324.078
324.12
324.142
324.142
324.12
324.078
324.019
323.946
323.863
323.773
323.682
323.595
323.529
316.787
316.835
316.897
316.962
317.026
317.085
317.137
317.18
317.21
317.225
317.225
317.21
317.18
317.137
317.085
317.026
316.962
316.897
316.835
316.787
310.073
310.101
310.138
310.178
310.216
310.252
310.283
310.309
310.326
310.336
310.336
310.326
310.309
310.283
310.252
310.216
310.178
310.138
310.101
310.073
303.375
303.384
303.397
303.41
303.423
303.435
303.445
303.454
303.46
303.463
303.463
303.46
303.454
303.445
303.435
303.423
303.41
303.397
303.384
303.375
353.115
353.258
353.431
353.609
353.783
353.944
354.085
354.199
354.279
354.32
354.32
354.279
354.199
354.085
353.944
353.783
353.609
353.431
353.258
353.115
345.866
345.987
346.136
346.291
346.441
346.581
346.703
346.802
346.871
346.907
346.907
346.871
346.802
346.703
346.581
346.441
346.291
346.136
345.987
345.866
338.69
338.79
338.916
339.047
339.174
339.292
339.396
339.48
339.538
339.569
339.569
339.538
339.48
339.396
339.292
339.174
339.047
338.916
338.79
338.69
331.576
331.656
331.759
331.866
331.97
332.067
332.152
332.22
332.268
332.293
332.293
332.268
332.22
332.152
332.067
331.97
331.866
331.759
331.656
331.576
324.513
324.574
324.654
324.737
324.819
324.894
324.96
325.013
325.05
325.07
325.07
325.05
325.013
324.96
324.894
324.819
324.737
324.654
324.574
324.513
317.489
317.533
317.59
317.649
317.707
317.761
317.808
317.846
317.873
317.887
317.887
317.873
317.846
317.808
317.761
317.707
317.649
317.59
317.533
317.489
310.494
310.52
310.554
310.59
310.625
310.657
310.685
310.708
310.724
310.732
310.732
310.724
310.708
310.685
310.657
310.625
310.59
310.554
310.52
310.494
303.516
303.524
303.536
303.548
303.56
303.57
303.58
303.588
303.593
303.596
303.596
303.593
303.588
303.58
303.57
303.56
303.548
303.536
303.524
303.516
355.406
355.537
355.695
355.858
356.015
356.161
356.287
356.389
356.461
356.498
356.498
356.461
356.389
356.287
356.161
356.015
355.858
355.695
355.537
355.406
347.84
347.95
348.087
348.228
348.365
348.491
348.601
348.689
348.751
348.783
348.783
348.751
348.689
348.601
348.491
348.365
348.228
348.087
347.95
347.84
340.352
340.443
340.559
340.678
340.794
340.9
340.993
341.068
341.121
341.148
341.148
341.121
341.068
340.993
340.9
340.794
340.678
340.559
340.443
340.352
332.93
333.003
333.098
333.195
333.29
333.377
333.453
333.515
333.557
333.58
333.58
333.557
333.515
333.453
333.377
333.29
333.195
333.098
333.003
332.93
325.562
325.619
325.692
325.768
325.841
325.909
325.969
326.016
326.05
326.067
326.067
326.05
326.016
325.969
325.909
325.841
325.768
325.692
325.619
325.562
318.237
318.277
318.329
318.383
318.436
318.485
318.527
318.561
318.585
318.597
318.597
318.585
318.561
318.527
318.485
318.436
318.383
318.329
318.277
318.237
310.942
310.966
310.997
311.03
311.062
311.091
311.116
311.137
311.151
311.159
311.159
311.151
311.137
311.116
311.091
311.062
311.03
310.997
310.966
310.942
303.666
303.674
303.684
303.695
303.706
303.716
303.724
303.731
303.736
303.738
303.738
303.736
303.731
303.724
303.716
303.706
303.695
303.684
303.674
303.666
357.82
357.94
358.085
358.234
358.376
358.507
358.621
358.712
358.776
358.809
358.809
358.776
358.712
358.621
358.507
358.376
358.234
358.085
357.94
357.82
349.916
350.018
350.143
350.272
350.395
350.509
350.608
350.687
350.742
350.771
350.771
350.742
350.687
350.608
350.509
350.395
350.272
350.143
350.018
349.916
342.097
342.181
342.287
342.395
342.5
342.597
342.68
342.747
342.794
342.818
342.818
342.794
342.747
342.68
342.597
342.5
342.395
342.287
342.181
342.097
334.349
334.417
334.503
334.592
334.678
334.757
334.826
334.88
334.919
334.939
334.939
334.919
334.88
334.826
334.757
334.678
334.592
334.503
334.417
334.349
326.661
326.713
326.78
326.85
326.916
326.978
327.031
327.074
327.104
327.119
327.119
327.104
327.074
327.031
326.978
326.916
326.85
326.78
326.713
326.661
319.02
319.057
319.104
319.154
319.202
319.245
319.284
319.314
319.335
319.346
319.346
319.335
319.314
319.284
319.245
319.202
319.154
319.104
319.057
319.02
311.411
311.433
311.462
311.492
311.52
311.547
311.57
311.588
311.601
311.607
311.607
311.601
311.588
311.57
311.547
311.52
311.492
311.462
311.433
311.411
303.823
303.83
303.84
303.85
303.859
303.868
303.876
303.882
303.886
303.889
303.889
303.886
303.882
303.876
303.868
303.859
303.85
303.84
303.83
303.823
360.298
360.408
360.541
360.677
360.806
360.925
361.027
361.109
361.166
361.195
361.195
361.166
361.109
361.027
360.925
360.806
360.677
360.541
360.408
360.298
352.037
352.131
352.246
352.363
352.476
352.579
352.668
352.739
352.788
352.814
352.814
352.788
352.739
352.668
352.579
352.476
352.363
352.246
352.131
352.037
343.873
343.95
344.047
344.146
344.242
344.329
344.404
344.464
344.506
344.528
344.528
344.506
344.464
344.404
344.329
344.242
344.146
344.047
343.95
343.873
335.789
335.852
335.931
336.012
336.09
336.161
336.223
336.273
336.307
336.325
336.325
336.307
336.273
336.223
336.161
336.09
336.012
335.931
335.852
335.789
327.773
327.821
327.882
327.946
328.006
328.062
328.11
328.148
328.175
328.189
328.189
328.175
328.148
328.11
328.062
328.006
327.946
327.882
327.821
327.773
319.809
319.843
319.887
319.932
319.976
320.016
320.05
320.077
320.097
320.106
320.106
320.097
320.077
320.05
320.016
319.976
319.932
319.887
319.843
319.809
311.884
311.904
311.93
311.958
311.984
312.008
312.028
312.045
312.056
312.062
312.062
312.056
312.045
312.028
312.008
311.984
311.958
311.93
311.904
311.884
303.981
303.988
303.997
304.006
304.014
304.022
304.029
304.035
304.039
304.041
304.041
304.039
304.035
304.029
304.022
304.014
304.006
303.997
303.988
303.981
362.684
362.787
362.909
363.034
363.152
363.26
363.353
363.427
363.479
363.505
363.505
363.479
363.427
363.353
363.26
363.152
363.034
362.909
362.787
362.684
354.056
354.143
354.249
354.357
354.46
354.554
354.635
354.699
354.744
354.767
354.767
354.744
354.699
354.635
354.554
354.46
354.357
354.249
354.143
354.056
345.544
345.616
345.706
345.797
345.885
345.964
346.033
346.088
346.126
346.145
346.145
346.126
346.088
346.033
345.964
345.885
345.797
345.706
345.616
345.544
337.132
337.19
337.263
337.338
337.41
337.475
337.531
337.576
337.607
337.623
337.623
337.607
337.576
337.531
337.475
337.41
337.338
337.263
337.19
337.132
328.802
328.846
328.903
328.962
329.017
329.068
329.112
329.147
329.172
329.184
329.184
329.172
329.147
329.112
329.068
329.017
328.962
328.903
328.846
328.802
320.536
320.568
320.608
320.65
320.69
320.727
320.758
320.783
320.8
320.809
320.809
320.8
320.783
320.758
320.727
320.69
320.65
320.608
320.568
320.536
312.317
312.336
312.36
312.385
312.409
312.431
312.45
312.465
312.476
312.481
312.481
312.476
312.465
312.45
312.431
312.409
312.385
312.36
312.336
312.317
304.126
304.132
304.14
304.149
304.157
304.164
304.17
304.175
304.179
304.181
304.181
304.179
304.175
304.17
304.164
304.157
304.149
304.14
304.132
304.126
364.563
364.66
364.775
364.892
365.002
365.103
365.19
365.258
365.306
365.331
365.331
365.306
365.258
365.19
365.103
365.002
364.892
364.775
364.66
364.563
355.585
355.667
355.767
355.869
355.965
356.053
356.129
356.189
356.23
356.252
356.252
356.23
356.189
356.129
356.053
355.965
355.869
355.767
355.667
355.585
346.771
346.839
346.924
347.01
347.093
347.167
347.232
347.283
347.318
347.336
347.336
347.318
347.283
347.232
347.167
347.093
347.01
346.924
346.839
346.771
338.093
338.148
338.217
338.288
338.356
338.417
338.47
338.512
338.541
338.556
338.556
338.541
338.512
338.47
338.417
338.356
338.288
338.217
338.148
338.093
329.524
329.567
329.621
329.676
329.729
329.777
329.818
329.851
329.873
329.885
329.885
329.873
329.851
329.818
329.777
329.729
329.676
329.621
329.567
329.524
321.04
321.07
321.108
321.148
321.185
321.22
321.249
321.273
321.289
321.298
321.298
321.289
321.273
321.249
321.22
321.185
321.148
321.108
321.07
321.04
312.614
312.632
312.655
312.679
312.702
312.723
312.74
312.754
312.764
312.769
312.769
312.764
312.754
312.74
312.723
312.702
312.679
312.655
312.632
312.614
304.225
304.23
304.238
304.246
304.254
304.261
304.267
304.271
304.275
304.276
304.276
304.275
304.271
304.267
304.261
304.254
304.246
304.238
304.23
304.225
)
;

boundaryField
{
    hotSide
    {
        type            fixedGradient;
        gradient        nonuniform List<scalar> 
400
(
409.097
410.749
414.056
419.025
425.663
433.981
443.992
455.709
469.145
484.315
501.232
519.908
540.355
562.584
586.603
612.42
640.043
669.475
700.722
733.786
412.882
414.504
417.753
422.635
429.164
437.352
447.215
458.773
472.041
487.037
503.779
522.282
542.559
564.624
588.486
614.154
641.636
670.938
702.062
735.013
416.978
418.565
421.743
426.524
432.922
440.957
450.649
462.021
475.095
489.893
506.437
524.744
544.832
566.715
590.405
615.912
643.243
672.404
703.399
736.231
421.318
422.863
425.959
430.622
436.871
444.73
454.226
465.388
478.244
492.821
509.146
527.239
547.122
568.809
592.316
617.651
644.823
673.839
704.701
737.411
425.779
427.277
430.283
434.813
440.895
448.559
457.84
468.772
481.392
495.732
511.823
529.691
549.358
570.843
594.16
619.32
646.333
675.202
705.931
738.521
430.177
431.625
434.532
438.922
444.828
452.286
461.341
472.034
484.41
498.507
514.361
532.001
551.453
572.737
595.869
620.86
647.717
676.446
707.049
739.526
434.259
435.656
438.466
442.717
448.447
455.703
464.537
474.999
487.139
501.003
516.631
534.057
553.309
574.407
597.368
622.203
648.92
677.522
708.011
740.387
437.723
439.076
441.798
445.923
451.496
458.572
467.21
477.468
489.402
503.064
518.498
535.74
554.82
575.761
598.578
623.283
649.883
678.381
708.777
741.07
440.258
441.576
444.231
448.26
453.715
460.654
469.144
479.248
491.029
504.54
519.83
536.937
555.891
576.717
599.43
624.042
650.558
678.981
709.311
741.545
441.602
442.901
445.519
449.496
454.886
461.751
470.161
480.183
491.881
505.312
520.524
537.559
556.447
577.213
599.871
624.433
650.905
679.289
709.584
741.788
441.602
442.901
445.519
449.496
454.886
461.751
470.161
480.183
491.881
505.312
520.524
537.559
556.447
577.213
599.871
624.433
650.905
679.289
709.584
741.788
440.258
441.576
444.231
448.26
453.715
460.654
469.144
479.248
491.029
504.54
519.83
536.937
555.891
576.717
599.43
624.042
650.558
678.981
709.311
741.545
437.723
439.076
441.798
445.923
451.496
458.572
467.21
477.468
489.402
503.064
518.498
535.74
554.82
575.761
598.578
623.283
649.883
678.381
708.777
741.07
434.259
435.656
438.466
442.717
448.447
455.703
464.537
474.999
487.139
501.003
516.631
534.057
553.309
574.407
597.368
622.203
648.92
677.522
708.011
740.387
430.177
431.625
434.532
438.922
444.828
452.286
461.341
472.034
484.41
498.507
514.361
532.001
551.453
572.737
595.869
620.86
647.717
676.446
707.049
739.526
425.779
427.277
430.283
434.813
440.895
448.559
457.84
468.772
481.392
495.732
511.823
529.691
549.358
570.843
594.16
619.32
646.333
675.202
705.931
738.521
421.318
422.863
425.959
430.622
436.871
444.73
454.226
465.388
478.244
492.821
509.146
527.239
547.122
568.809
592.316
617.651
644.823
673.839
704.701
737.411
416.978
418.565
421.743
426.524
432.922
440.957
450.649
462.021
475.095
489.893
506.437
524.744
544.832
566.715
590.405
615.912
643.243
672.404
703.399
736.231
412.882
414.504
417.753
422.635
429.164
437.352
447.215
458.773
472.041
487.037
503.779
522.282
542.559
564.624
588.486
614.154
641.636
670.938
702.062
735.013
409.097
410.749
414.056
419.025
425.663
433.981
443.992
455.709
469.145
484.315
501.232
519.908
540.355
562.584
586.603
612.42
640.043
669.475
700.722
733.786
)
;
    }
    coldSide
    {
        type            mixed;
        refValue        uniform 300;
        refGradient     uniform 0;
        valueFraction   uniform 0.991591;
        source          uniform 0;
        value           nonuniform List<scalar> 
400
(
300.021
300.021
300.021
300.021
300.022
300.022
300.023
300.023
300.024
300.024
300.025
300.026
300.027
300.028
300.03
300.031
300.032
300.033
300.035
300.036
300.021
300.021
300.021
300.021
300.022
300.022
300.023
300.023
300.024
300.025
300.025
300.026
300.027