/*--------------------------------*- C++ -*----------------------------------*\
| =========                 |                                                 |
| \\      /  F ield         | OpenFOAM: The Open Source CFD Toolbox           |
|  \\    /   O peration     | Version:  2212                                  |
|   \\  /    A nd           | Website:  www.openfoam.com                      |
|    \\/     M anipulation  |                                                 |
\*---------------------------------------------------------------------------*/
FoamFile
{
    version     2.0;
    format      ascii;
    arch        "LSB;label=32;scalar=64";
    class       volScalarField;
    location    "0";
    object      T;
}
// * * * * * * * * * * * * * * * * * * * * * * * * * * * * * * * * * * * * * //

dimensions      [0 0 0 1 0 0 0];

internalField   nonuniform List<scalar> 
3200
(
339.182
338.29
337.384
337.487
337.875
338.489
339.438
340.38
341.28
341.635
342.139
342.132
341.95
341.521
340.952
340.548
340.316
340.72
341.466
342.54
334.107
333.351
332.562
332.68
332.998
333.542
334.329
335.13
335.935
336.21
336.65
336.67
336.501
336.106
335.613
335.274
335.088
335.434
336.062
336.96
328.949
328.334
327.675
327.779
328.041
328.541
329.164
329.841
330.51
330.741
331.093
331.133
330.982
330.665
330.235
329.939
329.801
330.081
330.628
331.37
323.749
323.272
322.736
322.822
323.007
323.484
323.938
324.472
325.037
325.217
325.498
325.525
325.404
325.15
324.804
324.551
324.445
324.688
325.131
325.721
318.533
318.16
317.746
317.811
317.936
318.337
318.652
319.077
319.499
319.654
319.873
319.871
319.814
319.605
319.351
319.132
319.051
319.248
319.602
320.032
313.268
313.004
312.716
312.771
312.819
313.153
313.339
313.645
313.961
314.065
314.207
314.207
314.19
314.012
313.874
313.682
313.619
313.761
314.033
314.343
307.975
307.822
307.658
307.688
307.712
307.918
308.007
308.203
308.397
308.461
308.542
308.52
308.545
308.412
308.357
308.237
308.199
308.273
308.457
308.628
302.677
302.625
302.571
302.585
302.587
302.665
302.688
302.762
302.816
302.838
302.864
302.856
302.863
302.817
302.793
302.765
302.745
302.768
302.845
302.893
339.462
338.414
337.731
337.76
338.129
338.842
339.911
340.832
341.724
342.297
342.656
342.723
342.514
342.074
341.492
340.943
340.651
340.957
341.664
342.637
334.35
333.484
332.886
332.902
333.219
333.836
334.73
335.495
336.319
336.778
337.096
337.161
336.971
336.588
336.068
335.625
335.359
335.641
336.243
337.043
329.171
328.484
327.951
327.99
328.263
328.748
329.494
330.112
330.834
331.212
331.481
331.524
331.387
331.045
330.606
330.254
330.025
330.282
330.745
331.388
323.927
323.405
322.938
323.012
323.214
323.599
324.187
324.701
325.301
325.615
325.816
325.846
325.759
325.473
325.106
324.839
324.635
324.86
325.228
325.698
318.655
318.265
317.9
317.963
318.097
318.388
318.867
319.265
319.73
319.991
320.134
320.139
320.089
319.866
319.558
319.357
319.22
319.391
319.646
320
313.358
313.093
312.824
312.873
312.953
313.149
313.504
313.795
314.106
314.316
314.401
314.4
314.388
314.222
313.988
313.855
313.766
313.903
314.048
314.316
308.035
307.891
307.706
307.735
307.789
307.897
308.107
308.31
308.464
308.617
308.649
308.632
308.649
308.548
308.417
308.327
308.29
308.359
308.443
308.612
302.686
302.636
302.58
302.605
302.616
302.647
302.721
302.797
302.835
302.895
302.905
302.886
302.901
302.874
302.818
302.794
302.778
302.802
302.831
302.874
339.895
338.835
338.173
338.282
338.822
339.65
340.647
341.717
342.509
343.157
343.404
343.577
343.427
342.863
342.248
341.628
341.284
341.451
342.167
343.078
334.715
333.846
333.255
333.353
333.814
334.491
335.352
336.288
336.972
337.528
337.739
337.896
337.75
337.284
336.75
336.205
335.898
336.049
336.678
337.46
329.501
328.766
328.247
328.355
328.733
329.276
330.015
330.785
331.393
331.854
332.043
332.145
332.039
331.652
331.171
330.72
330.481
330.599
331.117
331.782
324.224
323.614
323.179
323.321
323.591
324.036
324.64
325.254
325.757
326.121
326.29
326.353
326.312
325.957
325.575
325.189
325.007
325.108
325.515
326.076
318.893
318.42
318.089
318.239
318.403
318.756
319.22
319.667
320.078
320.356
320.503
320.518
320.52
320.237
319.935
319.615
319.492
319.573
319.876
320.343
313.522
313.189
312.954
313.076
313.18
313.448
313.767
314.069
314.372
314.554
314.675
314.673
314.7
314.494
314.256
314.021
313.929
314.009
314.232
314.543
308.136
307.924
307.77
307.873
307.922
308.079
308.267
308.455
308.629
308.758
308.826
308.811
308.848
308.724
308.572
308.425
308.372
308.432
308.566
308.735
302.729
302.646
302.604
302.636
302.659
302.71
302.769
302.836
302.894
302.938
302.959
302.946
302.974
302.921
302.881
302.82
302.806
302.833
302.868
302.927
340.632
339.509
338.953
339.043
339.609
340.492
341.586
342.549
343.335
344.08
344.469
344.553
344.406
343.918
343.223
342.649
342.084
342.247
342.854
343.817
335.371
334.406
333.928
334.008
334.485
335.24
336.2
336.998
337.668
338.303
338.638
338.733
338.599
338.191
337.606
337.09
336.61
336.769
337.284
338.068
330.056
329.248
328.822
328.905
329.293
329.923
330.752
331.397
331.982
332.477
332.757
332.873
332.748
332.391
331.951
331.474
331.079
331.221
331.652
332.262
324.686
324.031
323.654
323.744
324.062
324.547
325.241
325.759
326.249
326.628
326.857
326.95
326.863
326.583
326.236
325.823
325.513
325.634
325.973
326.447
319.272
318.739
318.444
318.524
318.777
319.14
319.681
320.081
320.472
320.75
320.93
321.016
320.949
320.735
320.476
320.122
319.913
319.977
320.243
320.609
313.812
313.417
313.193
313.251
313.423
313.705
314.071
314.379
314.668
314.856
314.986
315.039
314.994
314.847
314.666
314.381
314.274
314.304
314.502
314.745
308.329
308.085
307.931
307.969
308.067
308.257
308.463
308.638
308.822
308.937
309.019
309.04
309.012
308.914
308.824
308.63
308.583
308.594
308.725
308.87
302.81
302.715
302.653
302.667
302.701
302.768
302.853
302.899
302.962
303.002
303.032
303.032
303.022
302.989
302.953
302.886
302.882
302.888
302.925
302.979
341.501
340.502
339.963
340.035
340.629
341.598
342.581
343.681
344.562
345.26
345.715
345.744
345.593
345.034
344.395
343.736
343.256
343.296
343.862
344.801
336.098
335.287
334.811
334.865
335.367
336.193
337.036
337.984
338.723
339.357
339.703
339.724
339.626
339.165
338.594
338.016
337.623
337.676
338.149
338.941
330.647
329.998
329.583
329.623
330.039
330.74
331.452
332.239
332.833
333.378
333.648
333.673
333.646
333.249
332.752
332.24
331.942
331.978
332.383
333.025
325.149
324.638
324.315
324.339
324.664
325.237
325.801
326.451
326.899
327.362
327.56
327.602
327.604
327.287
326.868
326.439
326.206
326.225
326.595
327.078
319.606
319.206
318.965
318.981
319.224
319.665
320.108
320.613
320.962
321.329
321.472
321.511
321.529
321.264
320.95
320.62
320.436
320.452
320.737
321.096
314.054
313.755
313.578
313.585
313.758
314.081
314.382
314.756
314.999
315.25
315.362
315.389
315.411
315.207
315.013
314.778
314.617
314.645
314.83
315.088
308.47
308.273
308.162
308.175
308.274
308.47
308.637
308.874
309.019
309.155
309.231
309.263
309.271
309.15
309.017
308.889
308.789
308.814
308.917
309.055
302.838
302.763
302.736
302.733
302.766
302.849
302.897
302.973
303.029
303.068
303.089
303.106
303.108
303.07
303.018
302.988
302.946
302.958
302.991
303.036
342.652
341.771
341.279
341.348
341.951
342.722
343.801
344.78
345.835
346.671
347.203
347.136
346.927
346.293
345.504
344.913
344.544
344.483
345.016
345.781
337.098
336.378
335.953
336.01
336.524
337.187
338.086
338.936
339.855
340.554
341.002
340.955
340.765
340.221
339.532
339.056
338.758
338.69
339.159
339.784
331.482
330.907
330.54
330.61
331.026
331.583
332.314
333.032
333.827
334.396
334.759
334.728
334.559
334.11
333.528
333.127
332.882
332.85
333.234
333.753
325.851
325.384
325.076
325.118
325.478
325.914
326.516
327.093
327.74
328.214
328.487
328.484
328.331
327.954
327.475
327.161
326.975
326.979
327.265
327.684
320.166
319.796
319.568
319.575
319.869
320.2
320.653
321.12
321.602
322.001
322.174
322.203
322.064
321.788
321.395
321.185
321.046
321.064
321.256
321.572
314.456
314.187
314.008
314.008
314.207
314.47
314.763
315.107
315.444
315.75
315.855
315.882
315.756
315.592
315.313
315.174
315.085
315.095
315.239
315.435
308.698
308.549
308.419
308.409
308.516
308.718
308.88
309.093
309.28
309.455
309.537
309.536
309.463
309.374
309.214
309.123
309.086
309.097
309.187
309.284
302.923
302.875
302.828
302.81
302.859
302.921
302.983
303.045
303.119
303.162
303.191
303.189
303.172
303.131
303.092
303.059
303.049
303.052
303.085
303.104
343.992
343.099
342.633
342.741
343.261
343.948
345.099
346.208
347.219
348.144
348.626
348.669
348.339
347.616
346.788
346.2
345.833
345.827
346.28
347.098
338.288
337.506
337.108
337.202
337.654
338.222
339.212
340.196
341.032
341.833
342.242
342.272
342
341.37
340.67
340.166
339.842
339.87
340.235
340.931
332.532
331.857
331.524
331.595
331.964
332.449
333.286
334.141
334.811
335.493
335.812
335.858
335.614
335.088
334.505
334.091
333.798
333.859
334.142
334.743
326.714
326.135
325.876
325.945
326.211
326.628
327.3
327.999
328.526
329.126
329.355
329.377
329.174
328.777
328.29
327.961
327.736
327.789
328.012
328.505
320.843
320.356
320.174
320.248
320.451
320.789
321.301
321.828
322.219
322.686
322.857
322.884
322.728
322.426
322.045
321.773
321.614
321.674
321.83
322.224
314.926
314.58
314.441
314.498
314.641
314.89
315.256
315.634
315.885
316.235
316.321
316.373
316.263
316.064
315.766
315.582
315.443
315.536
315.614
315.921
308.971
308.772
308.686
308.715
308.806
308.963
309.175
309.387
309.537
309.767
309.794
309.846
309.777
309.669
309.474
309.353
309.278
309.35
309.367
309.577
303.011
302.951
302.923
302.923
302.957
303.009
303.068
303.148
303.206
303.273
303.288
303.3
303.28
303.243
303.177
303.132
303.121
303.14
303.14
303.217
345.497
344.652
344.169
344.294
344.712
345.43
346.485
347.591
348.534
349.449
350.027
350.208
349.738
349.013
348.231
347.527
347.305
347.324
347.672
348.43
339.573
338.853
338.432
338.582
338.925
339.513
340.427
341.383
342.167
342.939
343.481
343.634
343.198
342.577
341.933
341.323
341.145
341.159
341.441
342.133
333.588
333.004
332.62
332.777
333.08
333.517
334.306
335.143
335.765
336.397
336.891
336.994
336.609
336.09
335.591
335.064
334.921
334.92
335.156
335.752
327.567
327.089
326.762
326.898
327.155
327.511
328.137
328.853
329.314
329.834
330.249
330.311
330.007
329.58
329.196
328.749
328.64
328.639
328.842
329.335
321.48
321.127
320.883
320.975
321.187
321.458
321.917
322.511
322.843
323.255
323.58
323.596
323.359
323.037
322.76
322.397
322.285
322.337
322.458
322.874
315.365
315.136
314.947
315.023
315.179
315.378
315.669
316.115
316.341
316.646
316.877
316.88
316.686
316.492
316.297
316.019
315.926
315.988
316.067
316.383
309.233
309.11
308.989
309.041
309.118
309.255
309.42
309.692
309.813
310.013
310.147
310.15
310.021
309.926
309.807
309.632
309.568
309.606
309.665
309.851
303.086
303.05
303.018
303.036
303.057
303.095
303.169
303.255
303.288
303.363
303.402
303.406
303.364
303.327
303.286
303.227
303.214
303.227
303.239
303.307
347.076
346.279
345.677
345.826
346.196
346.891
347.944
348.971
350.028
350.901
351.543
351.489
351.008
350.292
349.635
349.006
348.709
348.641
349.116
349.762
340.937
340.284
339.747
339.885
340.217
340.771
341.662
342.565
343.481
344.195
344.766
344.728
344.305
343.679
343.146
342.577
342.339
342.303
342.683
343.259
334.734
334.207
333.749
333.88
334.149
334.591
335.34
336.094
336.875
337.473
337.947
337.935
337.572
337.017
336.618
336.077
335.914
335.907
336.24
336.697
328.486
328.072
327.698
327.819
328.002
328.378
328.98
329.6
330.218
330.711
331.102
331.124
330.806
330.325
330.058
329.565
329.439
329.459
329.723
330.079
322.214
321.879
321.588
321.691
321.815
322.102
322.581
323.066
323.544
323.931
324.234
324.249
324.006
323.626
323.459
323.032
322.928
322.962
323.152
323.42
315.908
315.652
315.451
315.524
315.593
315.82
316.17
316.506
316.851
317.132
317.341
317.355
317.183
316.897
316.809
316.465
316.414
316.429
316.562
316.752
309.567
309.399
309.307
309.344
309.372
309.512
309.726
309.926
310.127
310.297
310.428
310.422
310.326
310.152
310.119
309.879
309.88
309.874
309.944
310.07
303.214
303.154
303.132
303.133
303.161
303.188
303.254
303.327
303.4
303.456
303.494
303.485
303.456
303.399
303.398
303.309
303.324
303.316
303.333
303.374
348.742
347.872
347.293
347.383
347.789
348.501
349.453
350.427
351.439
352.196
352.723
352.851
352.432
351.674
351.155
350.463
350.141
350.166
350.537
351.22
342.396
341.683
341.139
341.24
341.554
342.184
343.011
343.812
344.7
345.339
345.793
345.9
345.544
344.888
344.456
343.854
343.59
343.61
343.925
344.473
335.996
335.411
334.939
335.024
335.272
335.786
336.498
337.157
337.892
338.429
338.811
338.903
338.619
338.052
337.711
337.211
336.985
336.985
337.263
337.709
329.552
329.073
328.662
328.752
328.926
329.374
329.927
330.454
331.032
331.476
331.794
331.88
331.656
331.204
330.896
330.52
330.33
330.332
330.547
330.901
323.057
322.678
322.332
322.408
322.52
322.901
323.304
323.736
324.169
324.498
324.728
324.824
324.646
324.307
324.054
323.777
323.636
323.66
323.79
324.064
316.497
316.228
315.98
316.013
316.09
316.389
316.652
316.994
317.282
317.502
317.643
317.756
317.62
317.396
317.207
316.992
316.909
316.971
316.997
317.222
309.911
309.76
309.622
309.611
309.665
309.872
310.016
310.231
310.383
310.508
310.572
310.67
310.589
310.473
310.35
310.209
310.165
310.221
310.205
310.345
303.32
303.267
303.229
303.224
303.246
303.301
303.358
303.433
303.481
303.511
303.53
303.582
303.543
303.508
303.462
303.423
303.406
303.425
303.424
303.469
350.391
349.636
349.022
349.121
349.404
350.014
350.926
351.756
352.632
353.443
354.02
354.203
353.822
353.188
352.517
352.023
351.694
351.81
352.013
352.765
343.84
343.216
342.632
342.744
342.976
343.528
344.288
344.957
345.711
346.406
346.931
347.097
346.763
346.196
345.654
345.213
344.924
345.046
345.218
345.825
337.214
336.7
336.218
336.285
336.495
336.956
337.59
338.12
338.776
339.31
339.794
339.935
339.662
339.161
338.725
338.369
338.12
338.225
338.375
338.882
330.551
330.129
329.731
329.771
329.944
330.31
330.846
331.268
331.785
332.206
332.613
332.736
332.532
332.112
331.736
331.459
331.256
331.341
331.487
331.892
323.83
323.516
323.203
323.215
323.339
323.618
324.071
324.368
324.747
325.105
325.4
325.5
325.342
325.006
324.708
324.512
324.345
324.406
324.573
324.852
317.063
316.86
316.624
316.618
316.693
316.906
317.251
317.421
317.687
317.973
318.139
318.241
318.142
317.899
317.68
317.537
317.403
317.455
317.594
317.797
310.252
310.144
310.006
309.988
310.025
310.17
310.365
310.471
310.63
310.794
310.875
310.96
310.905
310.749
310.639
310.55
310.456
310.476
310.579
310.708
303.437
303.402
303.348
303.355
303.362
303.412
303.473
303.511
303.568
303.623
303.648
303.682
303.659
303.598
303.575
303.528
303.502
303.508
303.546
303.585
352.101
351.354
350.802
350.695
351.03
351.518
352.38
353.185
354.08
354.758
355.255
355.394
355.084
354.56
353.893
353.481
353.167
353.319
353.531
354.275
345.33
344.695
344.213
344.135
344.379
344.83
345.572
346.219
346.976
347.567
348.003
348.129
347.866
347.42
346.83
346.453
346.192
346.366
346.538
347.134
338.496
337.948
337.55
337.491
337.687
338.065
338.691
339.211
339.839
340.323
340.699
340.809
340.626
340.233
339.725
339.396
339.194
339.34
339.498
339.962
331.598
331.156
330.8
330.771
330.919
331.256
331.746
332.162
332.641
333.053
333.347
333.446
333.315
333.008
332.56
332.31
332.158
332.274
332.408
332.74
324.648
324.273
324.014
323.986
324.092
324.395
324.757
325.062
325.424
325.75
325.962
326.038
325.971
325.73
325.35
325.182
325.058
325.155
325.254
325.503
317.661
317.37
317.207
317.171
317.247
317.486
317.735
317.93
318.184
318.438
318.575
318.616
318.581
318.402
318.126
318.037
317.92
317.995
318.048
318.258
310.617
310.452
310.34
310.313
310.372
310.515
310.665
310.775
310.93
311.107
311.173
311.186
311.184
311.056
310.892
310.854
310.776
310.813
310.864
310.975
303.565
303.515
303.46
303.455
303.477
303.522
303.571
303.619
303.667
303.731
303.751
303.752
303.75
303.716
303.657
303.645
303.609
303.618
303.64
303.674
353.682
353.037
352.571
352.452
352.62
353.171
353.85
354.513
355.416
355.982
356.432
356.528
356.205
355.824
355.262
354.874
354.569
354.757
355.108
355.735
346.695
346.146
345.734
345.655
345.8
346.25
346.809
347.401
348.129
348.631
349.011
349.111
348.823
348.499
348.027
347.679
347.43
347.608
347.93
348.41
339.643
339.168
338.844
338.79
338.885
339.25
339.702
340.229
340.825
341.246
341.538
341.645
341.387
341.126
340.731
340.447
340.244
340.428
340.693
341.038
332.547
332.145
331.874
331.839
331.893
332.205
332.551
332.995
333.471
333.818
334.022
334.133
333.904
333.715
333.395
333.178
333.004
333.155
333.373
333.619
325.376
325.064
324.84
324.842
324.873
325.101
325.377
325.715
326.092
326.36
326.489
326.593
326.417
326.267
326.018
325.851
325.728
325.818
326.01
326.174
318.165
317.936
317.777
317.799
317.814
317.959
318.176
318.406
318.656
318.867
318.961
319.028
318.927
318.792
318.62
318.493
318.405
318.454
318.607
318.734
310.904
310.795
310.674
310.714
310.715
310.792
310.938
311.05
311.203
311.351
311.405
311.445
311.404
311.306
311.201
311.131
311.058
311.093
311.192
311.272
303.653
303.622
303.583
303.589
303.596
303.614
303.667
303.702
303.748
303.81
303.828
303.839
303.82
303.792
303.753
303.74
303.716
303.718
303.755
303.785
355.401
354.755
354.337
354.235
354.282
354.585
355.287
355.914
356.572
357.211
357.567
357.592
357.467
357.083
356.512
356.321
356.058
356.241
356.772
357.415
348.188
347.625
347.303
347.202
347.217
347.473
348.084
348.625
349.164
349.706
350.02
350.034
349.924
349.601
349.1
348.936
348.731
348.907
349.385
349.904
340.9
340.408
340.17
340.087
340.078
340.303
340.798
341.267
341.711
342.163
342.414
342.414
342.329
342.061
341.623
341.522
341.343
341.507
341.924
342.336
333.576
333.13
332.955
332.887
332.887
333.09
333.438
333.861
334.209
334.583
334.756
334.751
334.704
334.488
334.106
334.052
333.912
334.052
334.4
334.7
326.182
325.799
325.687
325.645
325.645
325.822
326.057
326.397
326.659
326.937
327.071
327.052
327.056
326.863
326.576
326.524
326.438
326.548
326.817
327.008
318.733
318.458
318.379
318.374
318.36
318.494
318.641
318.897
319.082
319.262
319.358
319.351
319.38
319.22
319.017
318.951
318.923
319.015
319.195
319.311
311.242
311.108
311.055
311.047
311.05
311.13
311.191
311.363
311.472
311.595
311.63
311.628
311.659
311.549
311.439
311.372
311.383
311.439
311.553
311.612
303.764
303.711
303.713
303.706
303.713
303.734
303.751
303.809
303.852
303.898
303.896
303.908
303.9
303.869
303.825
303.811
303.818
303.842
303.874
303.898
357.196
356.544
356.06
355.759
355.876
356.172
356.701
357.276
357.846
358.306
358.673
358.73
358.571
358.411
357.884
357.71
357.612
357.818
358.382
358.963
349.764
349.222
348.763
348.5
348.613
348.863
349.318
349.794
350.276
350.657
350.986
351.041
350.901
350.75
350.298
350.179
350.091
350.267
350.769
351.235
342.253
341.806
341.427
341.181
341.268
341.477
341.855
342.248
342.649
342.967
343.254
343.291
343.159
343.057
342.654
342.57
342.505
342.637
343.07
343.443
334.655
334.316
333.997
333.782
333.856
334.036
334.335
334.65
334.988
335.228
335.457
335.483
335.382
335.311
334.967
334.931
334.877
334.966
335.306
335.599
327.033
326.756
326.494
326.331
326.397
326.539
326.766
327.001
327.266
327.438
327.631
327.646
327.563
327.517
327.236
327.215
327.198
327.242
327.488
327.742
319.354
319.161
318.942
318.863
318.907
319.001
319.145
319.319
319.513
319.601
319.777
319.783
319.729
319.672
319.481
319.483
319.461
319.484
319.663
319.865
311.625
311.513
311.378
311.361
311.376
311.438
311.506
311.618
311.735
311.775
311.88
311.895
311.861
311.83
311.711
311.717
311.702
311.721
311.819
311.94
303.901
303.859
303.815
303.799
303.812
303.843
303.863
303.906
303.937
303.947
303.978
303.995
303.989
303.966
303.929
303.933
303.927
303.924
303.968
304.006
358.856
358.264
357.743
357.466
357.44
357.694
358.05
358.624
359.178
359.622
359.694
359.839
359.677
359.597
359.221
359.098
359.069
359.305
359.833
360.479
351.203
350.695
350.263
349.98
349.964
350.167
350.483
350.974
351.442
351.84
351.869
351.985
351.853
351.791
351.478
351.372
351.361
351.564
352.014
352.551
343.486
343.053
342.7
342.441
342.406
342.58
342.842
343.254
343.646
343.984
343.991
344.092
343.956
343.938
343.678
343.571
343.57
343.769
344.129
344.571
335.706
335.345
335.043
334.829
334.782
334.927
335.143
335.48
335.795
336.077
336.078
336.13
336.035
336.023
335.8
335.723
335.741
335.904
336.193
336.54
327.851
327.554
327.314
327.17
327.112
327.232
327.386
327.64
327.89
328.11
328.106
328.138
328.061
328.078
327.883
327.842
327.862
327.987
328.204
328.465
319.929
319.727
319.556
319.47
319.411
319.497
319.597
319.781
319.956
320.123
320.104
320.126
320.094
320.103
319.934
319.928
319.94
320.026
320.181
320.391
311.973
311.865
311.769
311.711
311.687
311.724
311.788
311.89
311.986
312.11
312.087
312.105
312.091
312.074
311.986
311.983
311.992
312.043
312.124
312.268
304.018
303.981
303.957
303.921
303.92
303.94
303.959
303.975
304.023
304.064
304.055
304.059
304.055
304.055
304.026
304.017
304.018
304.036
304.054
304.108
360.576
359.941
359.43
359.01
359.019
359.226
359.487
359.848
360.358
360.833
360.887
361.005
360.85
360.819
360.446
360.502
360.536
360.768
361.35
362.011
352.699
352.165
351.692
351.334
351.352
351.51
351.714
352.044
352.487
352.861
352.913
353.015
352.881
352.867
352.543
352.601
352.623
352.842
353.358
353.892
344.746
344.304
343.871
343.601
343.596
343.702
343.855
344.177
344.539
344.814
344.878
344.946
344.859
344.847
344.557
344.621
344.66
344.833
345.275
345.707
336.725
336.356
335.989
335.781
335.771
335.85
335.936
336.229
336.545
336.746
336.814
336.848
336.783
336.79
336.547
336.591
336.627
336.762
337.117
337.461
328.64
328.34
328.036
327.902
327.897
327.955
328.006
328.233
328.484
328.637
328.687
328.724
328.676
328.689
328.495
328.501
328.528
328.662
328.911
329.199
320.521
320.281
320.064
319.978
319.974
320.013
320.044
320.203
320.376
320.485
320.528
320.565
320.531
320.537
320.415
320.373
320.392
320.514
320.67
320.891
312.348
312.202
312.075
312.019
312.014
312.028
312.033
312.143
312.245
312.312
312.333
312.365
312.353
312.356
312.263
312.238
312.26
312.329
312.424
312.567
304.144
304.096
304.048
304.033
304.034
304.034
304.036
304.059
304.107
304.123
304.134
304.145
304.145
304.139
304.105
304.105
304.106
304.135
304.158
304.215
362.194
361.64
361.028
360.688
360.561
360.722
360.965
361.173
361.628
361.92
362.022
362.169
362.117
362.079
361.835
361.809
361.956
362.21
362.845
363.55
354.118
353.621
353.079
352.78
352.669
352.789
352.996
353.188
353.59
353.81
353.908
354.019
353.982
353.957
353.726
353.733
353.858
354.085
354.63
355.203
345.924
345.529
345.061
344.804
344.69
344.791
344.942
345.146
345.487
345.639
345.752
345.808
345.788
345.783
345.559
345.597
345.703
345.905
346.351
346.785
337.666
337.359
336.996
336.757
336.659
336.743
336.855
337.025
337.306
337.425
337.533
337.544
337.523
337.547
337.351
337.394
337.49
337.64
337.993
338.341
329.337
329.121
328.839
328.662
328.583
328.629
328.709
328.878
329.078
329.166
329.252
329.247
329.237
329.25
329.094
329.161
329.21
329.34
329.621
329.87
321.002
320.844
320.643
320.502
320.443
320.483
320.543
320.669
320.808
320.869
320.929
320.909
320.919
320.917
320.81
320.872
320.9
320.981
321.204
321.364
312.632
312.536
312.413
312.32
312.27
312.305
312.367
312.426
312.498
312.545
312.577
312.561
312.573
312.569
312.525
312.533
312.562
312.605
312.745
312.852
304.236
304.193
304.164
304.125
304.119
304.124
304.151
304.173
304.188
304.206
304.217
304.2
304.211
304.215
304.204
304.195
304.214
304.229
304.268
304.306
363.746
363.158
362.594
362.223
362.016
362.074
362.232
362.569
362.83
363.027
363.024
363.141
363.193
363.2
362.964
363.106
363.303
363.473
364.064
364.7
355.395
354.903
354.411
354.103
353.911
353.947
354.071
354.365
354.61
354.747
354.749
354.838
354.915
354.909
354.706
354.83
354.999
355.158
355.672
356.219
346.973
346.581
346.156
345.916
345.742
345.749
345.874
346.136
346.295
346.424
346.451
346.489
346.563
346.566
346.388
346.5
346.634
346.786
347.199
347.69
338.515
338.227
337.874
337.669
337.511
337.504
337.626
337.812
337.935
338.056
338.11
338.106
338.16
338.179
338.038
338.087
338.235
338.358
338.668
339.096
330.008
329.805
329.51
329.355
329.226
329.211
329.337
329.473
329.55
329.652
329.696
329.693
329.716
329.736
329.639
329.658
329.793
329.874
330.115
330.447
321.479
321.325
321.113
321.004
320.91
320.906
321.005
321.085
321.144
321.208
321.243
321.232
321.27
321.282
321.197
321.202
321.305
321.371
321.535
321.766
312.924
312.823
312.688
312.611
312.561
312.574
312.636
312.665
312.729
312.741
312.764
312.771
312.794
312.791
312.755
312.758
312.804
312.84
312.95
313.087
304.343
304.294
304.253
304.232
304.206
304.209
304.249
304.239
304.275
304.272
304.285
304.286
304.292
304.297
304.282
304.284
304.29
304.3
304.342
304.387
364.987
364.274
363.643
363.264
363.024
362.96
363.15
363.496
363.771
363.76
363.82
363.983
363.999
364.079
364.008
363.979
364.282
364.51
365.145
365.95
356.474
355.824
355.292
354.952
354.748
354.663
354.832
355.139
355.361
355.34
355.393
355.559
355.579
355.613
355.559
355.532
355.787
356.006
356.564
357.252
347.888
347.345
346.895
346.594
346.431
346.329
346.499
346.723
346.916
346.873
346.939
347.092
347.11
347.119
347.063
347.051
347.275
347.462
347.947
348.533
339.247
338.802
338.455
338.166
338.056
337.958
338.109
338.299
338.421
338.406
338.494
338.594
338.572
338.592
338.566
338.529
338.754
338.88
339.296
339.763
330.564
330.219
329.975
329.727
329.651
329.57
329.656
329.823
329.915
329.903
329.987
330.053
330.009
330.073
330.014
329.997
330.189
330.286
330.612
330.942
321.856
321.616
321.44
321.253
321.193
321.145
321.208
321.326
321.39
321.385
321.439
321.498
321.457
321.517
321.462
321.446
321.601
321.672
321.902
322.133
313.125
312.981
312.885
312.767
312.74
312.709
312.737
312.822
312.866
312.862
312.89
312.919
312.881
312.93
312.901
312.902
312.989
313.023
313.158
313.305
304.404
304.363
304.309
304.288
304.277
304.248
304.262
304.311
304.322
304.308
304.32
304.336
304.314
304.334
304.329
304.325
304.354
304.362
304.409
304.456
)
;

boundaryField
{
    hotSide
    {
        type            fixedGradient;
        gradient        nonuniform List<scalar> 
400
(
402.602
404.217
408.793
416.251
426.296
438.499
452.4
467.581
483.692
500.459
517.677
535.194
552.904
570.736
588.648
606.619
624.644
642.73
660.885
679.117
386.704
388.564
393.592
401.693
412.508
425.532
440.238
456.161
472.929
490.255
507.932
525.813
543.796
561.822
579.857
597.892
615.936
634.006
652.124
670.305
378.911
381.291
386.796
395.323
406.512
419.863
434.851
451.01
467.96
485.413
503.157
521.045
538.981
556.907
574.799
592.656
610.495
628.343
646.227
664.171
378.712
381.869
387.892
396.672
407.904
421.158
435.968
451.904
468.602
485.776
503.212
520.762
538.329
555.861
573.339
590.769
608.175
625.588
643.041
660.563
384.073
388.153
394.763
403.791
414.985
427.994
442.428
457.907
474.095
490.719
507.569
524.501
541.425
558.296
575.106
591.871
608.622
625.398
642.237
659.173
392.687
397.742
405.027
414.421
425.7
438.565
452.679
467.703
483.327
499.294
515.408
531.538
547.612
563.605
579.531
595.422
611.325
627.29
643.363
659.583
402.665
408.696
416.74
426.656
438.227
451.172
465.171
479.898
495.054
510.39
525.725
540.954
556.04
570.996
585.871
600.73
615.644
630.676
645.882
661.305
412.573
419.537
428.382
438.952
451.018
464.288
478.428
493.091
507.956
522.766
537.353
551.649
565.672
579.496
593.224
606.967
620.823
634.876
649.187
663.803
421.293
429.076
438.686
449.957
462.644
476.428
490.935
505.763
520.537
534.965
548.885
562.281
575.245
587.935
600.527
613.18
626.023
639.153
652.638
666.522
427.94
436.324
446.541
458.418
471.697
486.034
501.005
516.137
530.977
545.176
558.572
571.202
583.253
594.973
606.608
618.36
630.384
642.783
655.625
668.948
431.887
440.546
451.067
463.276
476.911
491.61
506.914
522.297
537.242
551.352
564.459
576.643
588.153
599.304
610.384
621.622
633.184
645.176
657.666
670.687
432.858
441.392
451.819
463.964
477.562
492.245
507.549
522.944
537.911
552.053
565.199
577.42
588.964
600.139
611.232
622.476
634.038
646.03
658.521
671.549
431.019
439.034
448.981
460.684
473.875
488.19
503.186
518.376
533.294
547.585
561.076
573.793
585.909
597.667
609.312
621.054
633.057
645.436
658.268
671.599
426.996
434.183
443.377
454.407
467.005
480.817
495.425
510.392
525.312
539.875
553.902
567.364
580.346
593.007
605.528
618.086
630.827
643.869
657.296
671.161
421.85
428.012
436.327
446.635
458.664
472.056
486.402
501.29
516.348
531.287
545.921
560.178
574.075
587.702
601.183
614.656
628.25
642.078
656.228
670.758
417.066
422.115
429.546
439.209
450.814
463.97
478.246
493.221
508.531
523.89
539.106
554.078
568.786
583.272
597.619
611.937
626.341
640.939
655.82
671.043
414.601
418.554
425.163
434.289
445.602
458.654
472.963
488.082
503.639
519.352
535.024
550.543
565.866
581.011
596.036
611.031
626.102
641.356
656.882
672.738
416.804
419.796
425.665
434.282
445.278
458.15
472.372
487.482
503.103
518.958
534.855
550.676
566.369
581.933
597.412
612.881
628.437
644.185
660.212
676.572
425.754
428.046
433.247
441.243
451.669
464.028
477.803
492.54
507.877
523.545
539.353
555.184
570.976
586.715
602.427
618.173
634.036
650.106
666.461
683.148
442.095
443.977
448.573
455.79
465.329
476.771
489.667
503.612
518.273
533.394
548.789
564.336
579.961
595.639
611.376
627.212
643.208
659.429
675.933
692.752
)
;
    }
    coldSide
    {
        type            mixed;
        refValue        uniform 300;
        refGradient     uniform 0;
        valueFraction   uniform 0.991591;
        source          uniform 0;
        value           nonuniform List<scalar> 
400
(
300.023
300.023
300.023
300.024
300.024
300.025
300.025
300.026
300.027
300.028
300.029
300.03
300.031
300.032
300.033
300.034
300.035
300.036
300.037
300.037
300.022
300.022
300.022
300.023
300.023
300.024
300.025
300.026
300.027
300.027
300.029
300.03
300.03
300.031
300.032
300.033
300.034