/*--------------------------------*- C++ -*----------------------------------*\
| =========                 |                                                 |
| \\      /  F ield         | OpenFOAM: The Open Source CFD Toolbox           |
|  \\    /   O peration     | Version:  2212                                  |
|   \\  /    A nd           | Website:  www.openfoam.com                      |
|    \\/     M anipulation  |                                                 |
\*---------------------------------------------------------------------------*/
FoamFile
{
    version     2.0;
    format      ascii;
    arch        "LSB;label=32;scalar=64";
    class       volScalarField;
    location    "./ITHACAoutput/true/11";
    object      error;
}
// * * * * * * * * * * * * * * * * * * * * * * * * * * * * * * * * * * * * * //

dimensions      [0 0 0 1 0 0 0];

internalField   nonuniform List<scalar> 
3200
(
2.19196
2.37191
2.53013
2.75716
3.14392
3.412
3.72169
4.16405
4.46
4.57455
4.71324
4.62278
4.52215
4.30939
4.01755
3.69163
3.55782
3.31225
3.19628
3.17577
1.92844
2.05126
2.09277
2.36056
2.68618
2.93551
3.27561
3.56652
3.79897
4.05353
3.96011
3.98557
3.82804
3.67581
3.46254
3.14601
2.97764
2.85425
2.74464
2.77246
1.57835
1.71805
1.83007
1.96693
2.19899
2.48666
2.75169
3.05113
3.21803
3.37299
3.38393
3.43438
3.2666
3.00146
2.9023
2.67619
2.59695
2.40601
2.34019
2.34776
1.28068
1.40357
1.51911
1.57323
1.81492
2.00678
2.23466
2.4604
2.55407
2.78136
2.82847
2.67461
2.63401
2.46453
2.39281
2.26187
2.04742
1.90968
1.94402
1.86573
1.06691
1.08711
1.1744
1.22611
1.42312
1.57079
1.77652
1.91014
1.99883
2.15102
2.15994
2.09612
2.0232
2.01898
1.85011
1.66539
1.56265
1.53406
1.45063
1.45255
0.776811
0.803538
0.772176
0.876175
0.967953
1.10667
1.23924
1.3095
1.49326
1.55652
1.55446
1.53686
1.45685
1.46636
1.28547
1.19619
1.18641
1.06473
1.07649
1.05128
0.480356
0.487416
0.489654
0.552593
0.650892
0.729689
0.774894
0.860329
0.868838
0.896848
0.949681
0.942321
0.909405
0.84814
0.748888
0.714282
0.637624
0.705917
0.591862
0.591487
0.151709
0.132044
0.191322
0.188922
0.212083
0.232263
0.197637
0.23298
0.263744
0.370866
0.291068
0.279052
0.305545
0.307872
0.28646
0.228693
0.252852
0.296673
0.195002
0.175132
1.56625
1.67504
1.78391
2.09083
2.35133
2.71132
2.97249
3.36134
3.68341
3.89424
3.90225
3.81451
3.70216
3.42065
3.25408
2.99825
2.74227
2.60569
2.48724
2.51717
1.35614
1.46321
1.52499
1.68167
2.0055
2.34663
2.6183
2.93023
3.10236
3.36247
3.37212
3.39928
3.2257
2.97414
2.81676
2.60033
2.38617
2.2741
2.17256
2.19828
1.1752
1.25362
1.34458
1.53474
1.74717
1.98877
2.2546
2.48196
2.69729
2.85921
2.9063
2.8679
2.75766
2.52841
2.36679
2.2144
2.08231
1.93213
1.87167
1.89003
1.05619
1.05256
1.14394
1.23595
1.43741
1.6682
1.86046
2.07771
2.17073
2.36321
2.32977
2.31717
2.27412
2.09822
1.99321
1.74902
1.70416
1.58942
1.56626
1.55143
0.759277
0.778822
0.818128
0.99204
1.09547
1.27986
1.49039
1.58804
1.76117
1.84822
1.81926
1.78072
1.7359
1.58401
1.50298
1.40565
1.29167
1.2344
1.19941
1.20995
0.549718
0.619619
0.651913
0.748022
0.802544
0.96254
1.02861
1.19035
1.22741
1.30861
1.29318
1.25773
1.21962
1.21687
1.02461
0.980435
1.00001
0.886449
0.852195
0.831751
0.367958
0.344916
0.385911
0.465181
0.49532
0.574279
0.626243
0.685021
0.776332
0.802135
0.824014
0.832131
0.73222
0.750586
0.648016
0.601819
0.577039
0.551823
0.463275
0.551972
0.113267
0.114153
0.119778
0.208921
0.107096
0.200024
0.219168
0.185814
0.240409
0.277677
0.223129
0.310271
0.193208
0.318517
0.215907
0.196791
0.223342
0.195535
0.177291
0.138914
0.720432
0.655261
0.919156
1.15306
1.39463
1.66729
2.00056
2.32232
2.70212
2.83625
2.91826
2.75366
2.71125
2.45863
2.22182
2.01869
1.88888
1.67712
1.66795
1.69379
0.67799
0.665378
0.845603
1.00997
1.27482
1.37713
1.76759
2.05437
2.26247
2.48941
2.62629
2.50094
2.34777
2.14713
1.9044
1.7961
1.56503
1.55785
1.48353
1.54258
0.589553
0.614962
0.702192
0.831569
1.07618
1.30014
1.51488
1.8497
1.95319
2.06319
2.03411
2.09768
2.02166
1.85339
1.67314
1.52182
1.41447
1.27593
1.34791
1.30175
0.488803
0.507843
0.619671
0.683373
0.851414
1.07652
1.24905
1.46127
1.72692
1.73323
1.76965
1.68474
1.61628
1.5354
1.36071
1.27332
1.18592
1.11943
1.12855
1.08252
0.415161
0.387644
0.487687
0.555641
0.715835
0.864181
0.984692
1.18709
1.24673
1.34146
1.39452
1.29333
1.22421
1.2356
1.10709
0.931505
0.92316
0.859756
0.836787
0.864986
0.275196
0.32324
0.33973
0.465787
0.515752
0.683219
0.659016
0.875918
0.917445
0.974131
1.05028
0.902251
0.95037
0.848201
0.853491
0.778233
0.699466
0.621061
0.622308
0.582824
0.212749
0.130882
0.185858
0.206793
0.292726
0.339212
0.425876
0.463499
0.555896
0.577296
0.553968
0.588847
0.628175
0.50451
0.516783
0.462768
0.377074
0.41266
0.434177
0.34337
0.0726754
0.0264239
0.0573465
0.0617079
0.0876445
0.153474
0.163649
0.197452
0.139185
0.195014
0.185405
0.147839
0.23734
0.149484
0.148051
0.0991753
0.174083
0.095926
0.0673138
0.108759
-0.0834445
-0.0898252
0.0323343
0.149014
0.378264
0.651451
0.95573
1.23624
1.57038
1.69693
1.71375
1.67885
1.5867
1.44282
1.16887
1.04869
0.832746
0.761356
0.796303
0.833991
-0.0954929
0.00971169
0.0558995
0.141639
0.329348
0.60984
0.871044
1.09599
1.34181
1.4153
1.54118
1.45986
1.35587
1.23684
1.07592
0.894403
0.689074
0.721466
0.691243
0.765664
0.000909284
0.0878965
0.0632244
0.184405
0.325925
0.533281
0.718888
0.977485
1.19428
1.25705
1.36703
1.26309
1.20212
1.05759
0.903754
0.772617
0.640028
0.667572
0.632934
0.677818
0.0184575
0.0581136
0.129813
0.166047
0.290861
0.533894
0.661326
0.77593
0.94422
1.09919
1.11318
1.03955
1.00775
0.944374
0.792609
0.733803
0.590486
0.592523
0.541272
0.636576
0.0551045
0.0372586
0.0267325
0.174012
0.239419
0.427463
0.534929
0.636838
0.755906
0.818705
0.921419
0.854324
0.80725
0.708243
0.585141
0.521622
0.448063
0.467751
0.439616
0.460066
0.0509815
0.0187702
0.0478745
0.176165
0.168317
0.240785
0.374782
0.515505
0.51924
0.509978
0.592576
0.652603
0.58082
0.473905
0.489784
0.439141
0.317382
0.284796
0.322435
0.324075
0.0202523
0.0409717
0.0723313
0.0695049
0.0550394
0.185038
0.245157
0.256949
0.364528
0.316526
0.428564
0.287428
0.296492
0.257975
0.300294
0.229168
0.224351
0.176621
0.168507
0.183377
-0.0026018
0.0325281
0.0280346
0.0478689
0.0784705
0.100063
0.053332
0.0711731
0.0853144
0.134587
0.104141
0.14118
0.143539
0.0906064
0.103292
0.0771274
0.0830138
0.0554701
0.105357
0.121292
-0.864229
-0.812851
-0.842307
-0.801436
-0.591983
-0.398787
-0.0506881
0.178282
0.432295
0.51123
0.600651
0.673269
0.449757
0.306494
0.215037
0.0656454
-0.0669188
-0.0943708
-0.0487491
-0.0355362
-0.709834
-0.696713
-0.770984
-0.610869
-0.479977
-0.20041
-0.0253648
0.254447
0.437521
0.559031
0.620969
0.595784
0.493398
0.338283
0.156825
0.0596183
-0.0831532
-0.0215638
0.0698889
0.106177
-0.591973
-0.586851
-0.556577
-0.482155
-0.325099
-0.129705
0.0105238
0.20194
0.447495
0.420553
0.556
0.508373
0.415192
0.31488
0.199464
0.0698346
0.0287922
-0.00368408
0.0202491
0.0731916
-0.448616
-0.406956
-0.413275
-0.416609
-0.295469
-0.0916105
0.0490073
0.160249
0.307817
0.394914
0.436492
0.442817
0.324685
0.269422
0.205665
0.0857244
0.025524
0.0375084
0.00931288
0.0682015
-0.385547
-0.356769
-0.295812
-0.252739
-0.2629
-0.073393
0.00827121
0.132984
0.288976
0.319632
0.328088
0.31686
0.322612
0.252997
0.13687
0.0379301
0.0429372
0.0841929
0.0863598
0.137274
-0.188362
-0.244631
-0.235895
-0.179347
-0.0967681
-0.0586218
0.0463151
0.188176
0.218308
0.257716
0.289572
0.26911
0.201921
0.130336
0.0925268
0.0703105
0.0610332
0.0176988
0.132352
0.099195
-0.115775
-0.119022
-0.0623672
-0.0935434
-0.0522039
-0.00543146
0.0698508
0.0233084
0.163385
0.151485
0.202452
0.140518
0.182962
0.157595
0.114292
0.0416068
0.022303
0.042549
0.0165928
0.040116
-0.0817986
-0.0328516
-0.0145519
-0.0529156
-0.0402969
-0.0282365
0.0780102
0.0187529
0.0939413
0.00664937
0.117716
-0.014845
0.0592805
0.0962956
0.0757163
0.014352
-0.0227638
-0.0422181
0.0291764
0.0963643
-1.5859
-1.67012
-1.68845
-1.61099
-1.47071
-1.25537
-1.02576
-0.871742
-0.610141
-0.488599
-0.397111
-0.421938
-0.513764
-0.595966
-0.835755
-0.780655
-0.919227
-0.946067
-0.859756
-0.695038
-1.26391
-1.37413
-1.46583
-1.3686
-1.23096
-1.0763
-0.890217
-0.72603
-0.500399
-0.413341
-0.333247
-0.361625
-0.391142
-0.518179
-0.635463
-0.748912
-0.687029
-0.730382
-0.593796
-0.582749
-1.07866
-1.12301
-1.18635
-1.08651
-1.00832
-0.936372
-0.7006
-0.554914
-0.393746
-0.377265
-0.252446
-0.238438
-0.24763
-0.349069
-0.468571
-0.590728
-0.556356
-0.549995
-0.491452
-0.465543
-0.824803
-0.901397
-0.987808
-0.854109
-0.778612
-0.645643
-0.544823
-0.426878
-0.286031
-0.189869
-0.206683
-0.190226
-0.201533
-0.288381
-0.415397
-0.420531
-0.488998
-0.488979
-0.443965
-0.252548
-0.709225
-0.718426
-0.712064
-0.708514
-0.58913
-0.485165
-0.374667
-0.363425
-0.19096
-0.202685
-0.0823315
-0.158538
-0.149417
-0.248264
-0.285186
-0.33541
-0.320603
-0.315772
-0.287717
-0.247211
-0.534467
-0.522258
-0.4237
-0.431185
-0.478648
-0.284299
-0.27367
-0.203456
-0.116958
-0.048339
-0.108169
-0.057678
-0.0861945
-0.190686
-0.193192
-0.181845
-0.230572
-0.230188
-0.195964
-0.189012
-0.289521
-0.240136
-0.220498
-0.273432
-0.279692
-0.169869
-0.183747
-0.133001
-0.109209
-0.0496886
-0.119824
-0.0496915
-0.0469143
-0.0558642
-0.126363
-0.122823
-0.172387
-0.13754
-0.12131
-0.0632963
-0.10454
-0.0636228
-0.0732268
-0.0766213
-0.0695946
-0.0533365
-0.0693967
-0.0430617
-0.00340501
-0.0525733
-0.0266292
-0.0235806
0.014669
-0.0855392
-0.0437014
-0.090558
-0.0599933
-0.0546246
-0.0553774
0.0228845
-2.14844
-2.20472
-2.42899
-2.34039
-2.29244
-2.08754
-1.91183
-1.7528
-1.59809
-1.51308
-1.4557
-1.36277
-1.36236
-1.49499
-1.59575
-1.61811
-1.60894
-1.60722
-1.42932
-1.29239
-1.76565
-1.93633
-1.97769
-2.01975
-1.94894
-1.77664
-1.6326
-1.46806
-1.31785
-1.22597
-1.20791
-1.17705
-1.24571
-1.26136
-1.37199
-1.34632
-1.39944
-1.30663
-1.16825
-1.04221
-1.55629
-1.59623
-1.67308
-1.63706
-1.62435
-1.51347
-1.28221
-1.28582
-1.09782
-1.03433
-0.921223
-0.941192
-0.965809
-1.02692
-1.08561
-1.13086
-1.14818
-1.08472
-1.02742
-0.891581
-1.22333
-1.24683
-1.38177
-1.29463
-1.24713
-1.18613
-1.05161
-0.948676
-0.84013
-0.797001
-0.762928
-0.769578
-0.759626
-0.82632
-0.877659
-0.829645
-0.871866
-0.91098
-0.701044
-0.646994
-0.848307
-0.965877
-0.962522
-1
-0.915322
-0.878206
-0.78242
-0.707571
-0.622448
-0.602041
-0.581184
-0.604815
-0.621365
-0.659724
-0.717592
-0.77216
-0.709238
-0.662565
-0.614199
-0.545178
-0.602415
-0.691243
-0.720944
-0.80836
-0.752182
-0.634288
-0.546924
-0.551259
-0.51989
-0.420848
-0.385759
-0.444066
-0.442141
-0.426874
-0.473498
-0.476377
-0.521814
-0.485049
-0.425542
-0.333882
-0.408765
-0.397624
-0.400521
-0.45693
-0.433314
-0.298207
-0.297715
-0.319932
-0.238959
-0.220865
-0.260776
-0.255884
-0.269871
-0.266623
-0.234887
-0.250356
-0.29225
-0.208962
-0.316074
-0.207589
-0.187776
-0.168694
-0.193778
-0.151771
-0.138361
-0.180141
-0.0517135
-0.06316
-0.118989
-0.0935014
-0.111291
-0.0477676
-0.0608437
-0.104974
-0.0315788
-0.0581422
-0.109762
-0.082713
-0.0550954
-0.0673002
-2.62066
-2.73936
-3.00854
-2.92735
-2.93988
-2.84301
-2.69008
-2.57148
-2.40847
-2.30545
-2.23076
-2.28635
-2.26401
-2.28889
-2.36369
-2.34023
-2.31218
-2.15332
-1.90801
-1.8012
-2.22545
-2.38601
-2.48103
-2.52683
-2.47902
-2.4153
-2.27916
-2.13606
-2.04978
-2.00311
-1.92607
-1.88543
-1.92587
-1.95484
-1.97133
-1.96042
-1.89596
-1.83128
-1.62503
-1.5068
-1.9076
-2.04891
-2.06016
-2.09364
-2.05359
-1.92882
-1.87535
-1.80386
-1.69037
-1.57181
-1.59453
-1.56227
-1.54696
-1.57842
-1.63064
-1.59087
-1.50082
-1.54591
-1.438
-1.17825
-1.50762
-1.58186
-1.67692
-1.70292
-1.66923
-1.59578
-1.50422
-1.43007
-1.26736
-1.27861
-1.22435
-1.26373
-1.27762
-1.3025
-1.27244
-1.37
-1.32742
-1.25451
-1.13937
-1.02449
-1.20742
-1.19847
-1.31715
-1.30747
-1.26815
-1.23137
-1.14894
-1.08651
-1.11012
-0.890946
-0.944449
-0.997821
-0.96984
-0.943879
-1.08975
-0.967832
-0.968953
-0.898385
-0.864424
-0.770565
-0.749567
-0.816136
-0.909793
-0.996022
-0.939346
-0.870671
-0.870698
-0.809373
-0.684577
-0.737195
-0.653273
-0.679313
-0.61893
-0.703353
-0.729587
-0.724464
-0.63163
-0.646585
-0.634946
-0.580648
-0.513149
-0.527793
-0.454819
-0.627921
-0.604197
-0.544253
-0.406178
-0.446204
-0.476659
-0.388177
-0.406884
-0.429061
-0.434322
-0.434143
-0.41203
-0.435398
-0.377804
-0.444524
-0.309664
-0.3409
-0.218258
-0.121739
-0.156731
-0.233994
-0.199235
-0.161017
-0.21268
-0.10782
-0.133093
-0.189387
-0.142053
-0.13088
-0.0813634
-0.166175
-0.160717
-0.192668
-0.186726
-0.121748
-0.132552
-0.0898809
-2.97799
-3.2049
-3.42023
-3.47704
-3.4979
-3.41185
-3.38947
-3.27052
-3.12685
-3.05193
-3.0032
-2.93907
-2.94159
-2.99294
-2.98043
-2.8544
-2.71926
-2.66771
-2.41227
-2.14461
-2.50549
-2.75332
-2.89685
-2.91962
-3.01924
-2.92483
-2.82896
-2.70744
-2.6928
-2.57168
-2.50942
-2.54711
-2.5333
-2.51591
-2.52612
-2.4581
-2.37038
-2.26043
-2.0207
-1.78135
-2.1171
-2.24691
-2.43353
-2.4194
-2.49989
-2.47249
-2.32776
-2.27693
-2.23451
-2.08145
-2.1511
-2.14572
-2.11607
-2.12762
-2.09508
-2.03387
-1.99636
-1.92426
-1.67404
-1.46298
-1.71111
-1.79708
-1.94851
-2.0177
-1.94673
-1.9514
-1.9198
-1.85363
-1.80445
-1.81349
-1.69468
-1.66113
-1.67189
-1.68765
-1.74442
-1.65603
-1.5819
-1.4443
-1.34465
-1.24712
-1.30851
-1.36415
-1.45115
-1.53407
-1.48888
-1.55247
-1.48881
-1.41412
-1.31639
-1.38839
-1.28892
-1.29244
-1.26709
-1.32224
-1.2637
-1.30625
-1.17813
-1.15353
-0.92672
-0.933474
-0.907804
-1.01763
-1.07674
-1.06352
-1.06984
-1.09073
-1.06085
-1.0082
-1.01214
-0.916952
-0.976476
-0.911337
-0.922246
-0.895197
-0.923734
-0.764422
-0.830025
-0.766869
-0.730454
-0.691014
-0.500678
-0.563825
-0.608143
-0.621356
-0.660548
-0.646643
-0.687709
-0.634257
-0.639223
-0.539961
-0.57411
-0.559068
-0.464234
-0.554654
-0.515476
-0.506156
-0.508336
-0.485055
-0.434003
-0.399629
-0.115976
-0.244489
-0.174644
-0.183169
-0.210163
-0.192848
-0.247288
-0.169251
-0.193615
-0.146285
-0.173922
-0.173813
-0.170207
-0.18436
-0.172093
-0.17173
-0.233016
-0.225657
-0.165801
-0.155279
-3.19392
-3.50769
-3.73285
-3.91548
-3.91755
-3.92103
-3.90512
-3.83525
-3.67477
-3.67264
-3.58414
-3.54671
-3.51802
-3.56384
-3.4781
-3.35979
-3.16169
-2.96942
-2.72421
-2.3017
-2.70615
-2.93013
-3.12839
-3.21882
-3.31074
-3.36747
-3.27751
-3.2793
-3.11641
-3.15332
-3.08289
-2.99242
-3.0461
-2.99559
-2.95026
-2.82303
-2.6365
-2.56519
-2.29203
-2.00962
-2.23065
-2.49235
-2.63106
-2.73945
-2.76492
-2.8004
-2.72556
-2.64501
-2.64491
-2.61127
-2.56767
-2.54762
-2.51503
-2.50308
-2.40913
-2.30676
-2.18898
-2.08421
-1.8454
-1.66555
-1.81974
-1.95314
-2.04672
-2.22865
-2.27186
-2.24958
-2.23009
-2.21514
-2.10566
-2.16949
-2.07307
-2.04842
-2.08236
-1.97402
-2.00546
-1.99933
-1.80432
-1.5759
-1.50969
-1.36732
-1.40987
-1.48473
-1.6074
-1.66619
-1.73855
-1.73971
-1.68488
-1.68825
-1.60072
-1.57741
-1.60907
-1.65304
-1.50527
-1.54013
-1.51993
-1.44206
-1.35629
-1.30993
-1.15448
-1.0276
-0.968311
-1.06571
-1.11747
-1.22544
-1.20127
-1.18592
-1.2468
-1.18495
-1.22652
-1.13776
-1.13563
-1.11148
-1.13605
-1.07443
-1.11434
-0.985122
-0.99293
-0.880905
-0.811293
-0.761423
-0.615945
-0.631679
-0.656504
-0.709995
-0.715661
-0.718197
-0.738617
-0.747434
-0.733995
-0.712422
-0.634301
-0.645368
-0.631824
-0.712648
-0.672116
-0.59862
-0.647803
-0.499292
-0.569967
-0.482415
-0.221903
-0.183482
-0.231692
-0.255488
-0.252938
-0.282047
-0.247875
-0.222993
-0.273996
-0.31531
-0.255493
-0.201166
-0.201445
-0.228546
-0.188138
-0.193905
-0.237661
-0.147789
-0.148083
-0.119625
-3.24978
-3.53173
-3.83304
-4.1168
-4.22213
-4.32973
-4.2078
-4.22361
-4.16371
-4.09344
-4.05295
-4.037
-3.96935
-3.87243
-3.78857
-3.63868
-3.39158
-3.12709
-2.8279
-2.56871
-2.77547
-3.06385
-3.25464
-3.49639
-3.56762
-3.63839
-3.60649
-3.58111
-3.46232
-3.51534
-3.44702
-3.4018
-3.4133
-3.30433
-3.25712
-3.0658
-2.84141
-2.73284
-2.41036
-2.07811
-2.31321
-2.53265
-2.7471
-2.90385
-3.01878
-3.01542
-3.01169
-3.02801
-2.9162
-2.86379
-2.91054
-2.78472
-2.76985
-2.6971
-2.70578
-2.63726
-2.41999
-2.24996
-2.04025
-1.7656
-1.88944
-2.08847
-2.23655
-2.34149
-2.40329
-2.46594
-2.47629
-2.44744
-2.42839
-2.4031
-2.31494
-2.31336
-2.31747
-2.24332
-2.2679
-2.07264
-1.9546
-1.84239
-1.55158
-1.3637
-1.43703
-1.57544
-1.6948
-1.89477
-1.87813
-1.83181
-1.91243
-1.85123
-1.82894
-1.79206
-1.78118
-1.79707
-1.7109
-1.76656
-1.65122
-1.57729
-1.52132
-1.30078
-1.25281
-1.07796
-1.08013
-1.11371
-1.21659
-1.23159
-1.35581
-1.38833
-1.33122
-1.29055
-1.32773
-1.31261
-1.2762
-1.22106
-1.25371
-1.22549
-1.20046
-1.16801
-1.03665
-0.923516
-0.877151
-0.735187
-0.639784
-0.615902
-0.697467
-0.725349
-0.806736
-0.816198
-0.76596
-0.777874
-0.771571
-0.81976
-0.770083
-0.772671
-0.797887
-0.749435
-0.742912
-0.700619
-0.664773
-0.55047
-0.607089
-0.445311
-0.183423
-0.230576
-0.282426
-0.24273
-0.259757
-0.331596
-0.255212
-0.224394
-0.265769
-0.237478
-0.303839
-0.258915
-0.200068
-0.174601
-0.144408
-0.267186
-0.245047
-0.211292
-0.172395
-0.141699
-3.27805
-3.59262
-3.98854
-4.13267
-4.37552
-4.46184
-4.51268
-4.48305
-4.49714
-4.43655
-4.36579
-4.35169
-4.20107
-4.16737
-4.06385
-3.7755
-3.59186
-3.18856
-2.81573
-2.44448
-2.66387
-3.04319
-3.29974
-3.51227
-3.69584
-3.78442
-3.83633
-3.82165
-3.83884
-3.79195
-3.72553
-3.68543
-3.67556
-3.49035
-3.42099
-3.23618
-2.99982
-2.75617
-2.45015
-2.06746
-2.30052
-2.52364
-2.77876
-2.91475
-3.05295
-3.18562
-3.21855
-3.12774
-3.16766
-3.16742
-3.04135
-3.06898
-2.97255
-2.91421
-2.86012
-2.68365
-2.43676
-2.30702
-2.02931
-1.74769
-1.85471
-1.9799
-2.20934
-2.42035
-2.542
-2.55772
-2.59609
-2.56379
-2.53159
-2.5737
-2.54765
-2.50411
-2.48738
-2.39393
-2.2551
-2.14511
-2.06743
-1.85831
-1.6138
-1.3847
-1.35803
-1.59895
-1.69675
-1.88747
-1.85094
-2.00015
-2.09196
-2.08558
-2.03898
-2.03794
-1.92389
-1.92176
-1.87921
-1.85743
-1.74277
-1.72451
-1.54952
-1.39026
-1.25603
-1.102
-0.994868
-1.12868
-1.22703
-1.34106
-1.36626
-1.41425
-1.43054
-1.39233
-1.42782
-1.34049
-1.4099
-1.29758
-1.31941
-1.35379
-1.25057
-1.18284
-1.12588
-0.975479
-0.862055
-0.763226
-0.612861
-0.653016
-0.797008
-0.826946
-0.851121
-0.750787
-0.925365
-0.809806
-0.807874
-0.857863
-0.797506
-0.820146
-0.775496
-0.736439
-0.741618
-0.690474
-0.689884
-0.66891
-0.540256
-0.373073
-0.221621
-0.162473
-0.299227
-0.255481
-0.263714
-0.289376
-0.321892
-0.262769
-0.279745
-0.279248
-0.213674
-0.28556
-0.254173
-0.24642
-0.208151
-0.232274
-0.21037
-0.191624
-0.154499
-0.133338
-3.01628
-3.36336
-3.75772
-4.10998
-4.31251
-4.443
-4.5084
-4.58024
-4.61353
-4.60272
-4.5145
-4.44445
-4.35313
-4.21879
-4.08222
-3.83679
-3.4141
-3.11651
-2.66246
-2.28004
-2.50885
-2.91962
-3.21944
-3.44721
-3.76021
-3.82917
-3.90529
-3.96205
-3.96608
-3.87821
-3.79442
-3.7577
-3.71984
-3.53917
-3.36156
-3.18502
-2.92836
-2.60012
-2.28165
-1.86947
-2.06859
-2.35357
-2.70938
-2.93771
-2.9791
-3.12179
-3.20203
-3.26588
-3.22106
-3.2222
-3.20767
-3.17758
-3.06094
-3.01931
-2.88674
-2.69478
-2.41247
-2.19316
-1.94715
-1.54835
-1.72295
-1.88647
-2.08921
-2.34636
-2.46049
-2.52163
-2.61071
-2.64992
-2.6604
-2.6752
-2.5836
-2.52662
-2.51485
-2.42788
-2.34094
-2.13776
-1.95736
-1.80343
-1.5307
-1.25553
-1.31791
-1.48574
-1.65889
-1.75774
-1.90099
-1.98882
-2.03267
-1.98948
-2.0847
-2.00687
-1.97369
-1.91366
-1.94026
-1.83186
-1.794
-1.68345
-1.52439
-1.36041
-1.16676
-0.936729
-0.947352
-1.05688
-1.2106
-1.23472
-1.35384
-1.44934
-1.44142
-1.4097
-1.42055
-1.3995
-1.46575
-1.37096
-1.35543
-1.33675
-1.21399
-1.18057
-1.06689
-0.926264
-0.782313
-0.65596
-0.533514
-0.607829
-0.745018
-0.851298
-0.783753
-0.871497
-0.895992
-0.851626
-0.936011
-0.839119
-0.854629
-0.809216
-0.828528
-0.819741
-0.711908
-0.698347
-0.626927
-0.558138
-0.454762
-0.440591
-0.279608
-0.214248
-0.200161
-0.265693
-0.292384
-0.282376
-0.25725
-0.260297
-0.255844
-0.317417
-0.269734
-0.345814
-0.288055
-0.217599
-0.27578
-0.213991
-0.177603
-0.169686
-0.161788
-0.152219
-2.66706
-3.03458
-3.52678
-3.88147
-4.10192
-4.29371
-4.51827
-4.51845
-4.59556
-4.49935
-4.50799
-4.3909
-4.24075
-4.10508
-3.92685
-3.69308
-3.25453
-2.88306
-2.42568
-1.88158
-2.18441
-2.59875
-2.92445
-3.28391
-3.50177
-3.72027
-3.79892
-3.89218
-3.83839
-3.74811
-3.81939
-3.72744
-3.67843
-3.54564
-3.3468
-2.9965
-2.79012
-2.40175
-1.90985
-1.6132
-1.88015
-2.17432
-2.44328
-2.69289
-2.92378
-3.05562
-3.16403
-3.14482
-3.22877
-3.23505
-3.17286
-3.13715
-3.02535
-2.92918
-2.75043
-2.60734
-2.29897
-1.98857
-1.64971
-1.31968
-1.509
-1.71886
-1.96606
-2.25935
-2.34701
-2.44006
-2.59789
-2.57601
-2.5954
-2.59743
-2.55105
-2.51079
-2.46263
-2.32649
-2.13821
-2.07283
-1.80313
-1.61496
-1.35417
-1.06774
-1.11717
-1.30149
-1.53163
-1.70363
-1.81704
-1.86623
-1.96019
-2.06722
-1.97379
-1.95977
-2.01322
-1.99397
-1.89701
-1.83807
-1.66677
-1.54413
-1.40649
-1.20831
-0.949933
-0.799359
-0.765252
-0.928082
-1.09459
-1.19191
-1.28744
-1.32427
-1.40448
-1.36099
-1.40143
-1.4124
-1.4061
-1.30963
-1.34136
-1.21271
-1.24248
-1.18534
-1.02413
-0.801267
-0.753327
-0.626237
-0.502268
-0.498662
-0.572302
-0.705438
-0.668028
-0.781361
-0.820111
-0.875818
-0.865206
-0.817849
-0.890589
-0.808428
-0.779915
-0.739496
-0.719562
-0.643428
-0.626874
-0.547546
-0.451421
-0.379156
-0.174695
-0.15257
-0.246346
-0.24277
-0.270829
-0.292461
-0.249116
-0.328736
-0.297879
-0.352764
-0.320641
-0.290958
-0.265948
-0.329287
-0.287687
-0.229799
-0.196593
-0.193279
-0.16615
-0.13972
-2.2197
-2.60769
-3.13762
-3.46988
-3.73675
-4.05722
-4.17431
-4.22002
-4.3484
-4.28933
-4.22122
-4.13127
-4.01139
-3.79491
-3.63588
-3.3175
-2.87577
-2.46344
-1.99694
-1.42845
-1.77484
-2.1796
-2.52068
-2.93443
-3.1742
-3.45854
-3.52164
-3.53312
-3.70371
-3.6604
-3.60993
-3.5317
-3.47138
-3.25534
-3.06718
-2.89478
-2.45946
-2.07094
-1.60346
-1.15597
-1.44485
-1.75999
-2.05989
-2.44368
-2.70264
-2.86232
-2.96128
-3.09477
-3.03165
-3.09457
-2.97511
-2.97174
-2.7844
-2.7156
-2.50505
-2.29081
-1.97895
-1.66819
-1.3068
-0.981665
-1.18517
-1.42974
-1.71115
-1.94394
-2.12981
-2.27527
-2.38487
-2.43144
-2.47915
-2.50722
-2.38469
-2.36409
-2.27743
-2.14381
-1.97706
-1.83027
-1.63355
-1.35097
-1.05445
-0.75304
-0.828131
-1.10943
-1.29853
-1.45667
-1.67633
-1.77788
-1.84759
-1.86213
-1.85352
-1.9089
-1.84091
-1.83307
-1.7647
-1.67196
-1.56447
-1.46688
-1.22438
-1.03859
-0.827973
-0.561221
-0.589787
-0.733873
-0.867827
-1.12516
-1.19159
-1.23702
-1.29671
-1.32078
-1.34527
-1.36706
-1.27879
-1.3359
-1.25658
-1.18555
-1.09858
-1.01336
-0.854956
-0.663628
-0.565292
-0.361963
-0.315902
-0.404512
-0.534228
-0.597856
-0.77371
-0.787339
-0.763084
-0.793272
-0.836291
-0.770732
-0.829959
-0.74188
-0.742654
-0.725182
-0.600067
-0.608642
-0.510552
-0.434591
-0.340594
-0.229934
-0.0814798
-0.119473
-0.170916
-0.248098
-0.206394
-0.217789
-0.211673
-0.292502
-0.251688
-0.257832
-0.261022
-0.295741
-0.23582
-0.267517
-0.208194
-0.21724
-0.202723
-0.169888
-0.0990428
-0.0593795
-1.43887
-1.93259
-2.4517
-2.8537
-3.2377
-3.47381
-3.6753
-3.83993
-3.99823
-3.92507
-3.8484
-3.75838
-3.63194
-3.37664
-3.18353
-2.77494
-2.34423
-1.83503
-1.29223
-0.830367
-1.18496
-1.55724
-2.0597
-2.45208
-2.73102
-2.95149
-3.21919
-3.30079
-3.35233
-3.32498
-3.2635
-3.20601
-3.06514
-2.94846
-2.58661
-2.30088
-2.01141
-1.5337
-1.08633
-0.68275
-0.928704
-1.27992
-1.65599
-1.97966
-2.28294
-2.46979
-2.61191
-2.6489
-2.74493
-2.68256
-2.69635
-2.67236
-2.50119
-2.36041
-2.21148
-1.87946
-1.62592
-1.27029
-0.80524
-0.475373
-0.816497
-0.968523
-1.32623
-1.60078
-1.76799
-1.94861
-2.09849
-2.15702
-2.18992
-2.25734
-2.16949
-2.10116
-2.01168
-1.89389
-1.79964
-1.58461
-1.29806
-0.974137
-0.671181
-0.356967
-0.540611
-0.763055
-1.05888
-1.22663
-1.35158
-1.48436
-1.54898
-1.64617
-1.64219
-1.6613
-1.66919
-1.68188
-1.60065
-1.46614
-1.31225
-1.18646
-0.940471
-0.755429
-0.538746
-0.204744
-0.397461
-0.559448
-0.759524
-0.8578
-0.963454
-1.10296
-1.13159
-1.25653
-1.20816
-1.25972
-1.15622
-1.1346
-1.06601
-1.02066
-0.96896
-0.80858
-0.660034
-0.517809
-0.296146
-0.153626
-0.235455
-0.273333
-0.462902
-0.589251
-0.543185
-0.62291
-0.643728
-0.755443
-0.723368
-0.668443
-0.702525
-0.760583
-0.639726
-0.654408
-0.558973
-0.423502
-0.463668
-0.300037
-0.145188
-0.100565
-0.0929343
-0.1136
-0.162722
-0.174224
-0.178795
-0.300841
-0.223682
-0.223394
-0.240493
-0.180526
-0.227813
-0.231125
-0.211524
-0.219426
-0.149732
-0.187761
-0.143973
-0.0603175
-0.0697313
0.000275111
-0.654796
-1.19756
-1.74649
-2.17329
-2.52228
-2.91337
-3.10264
-3.28613
-3.41375
-3.34349
-3.31322
-3.22144
-3.09703
-2.82523
-2.4491
-2.17001
-1.67999
-1.17574
-0.651023
0.018986
-0.471269
-0.915555
-1.37917
-1.76004
-2.20804
-2.43652
-2.62732
-2.74004
-2.83824
-2.86222
-2.84168
-2.7395
-2.54521
-2.33341
-2.06448
-1.7673
-1.40684
-0.926565
-0.346336
0.109593
-0.370857
-0.68287
-1.15077
-1.50886
-1.73454
-2.16148
-2.16443
-2.22122
-2.32167
-2.31769
-2.33677
-2.26299
-2.07714
-1.94314
-1.72479
-1.37977
-1.06236
-0.729476
-0.247088
0.172096
-0.247348
-0.497297
-0.849348
-1.08984
-1.36266
-1.60662
-1.77767
-1.75734
-1.86634
-1.86844
-1.86758
-1.76686
-1.65
-1.5473
-1.39259
-1.12325
-0.852567
-0.574231
-0.147395
0.178393
-0.167655
-0.405014
-0.600823
-0.89423
-1.04883
-1.2002
-1.34573
-1.33906
-1.43369
-1.47619
-1.41871
-1.39306
-1.30292
-1.13212
-1.01659
-0.76331
-0.665067
-0.389575
-0.112799
0.104608
-0.171348
-0.290914
-0.419561
-0.584246
-0.773831
-0.855989
-0.856683
-0.907036
-0.98889
-1.00551
-0.919862
-0.993519
-0.908447
-0.71272
-0.687709
-0.626259
-0.472554
-0.248408
-0.0139615
0.0796865
-0.077382
-0.258536
-0.24865
-0.42485
-0.475825
-0.569088
-0.549553
-0.531437
-0.596311
-0.613536
-0.510489
-0.537189
-0.503195
-0.457143
-0.497996
-0.379008
-0.270088
-0.11982
-0.00605546
0.0371945
-0.0196119
-0.060693
-0.133978
-0.146363
-0.158618
-0.172624
-0.174981
-0.239442
-0.242671
-0.197529
-0.203749
-0.190008
-0.202644
-0.189999
-0.154777
-0.122501
-0.0698331
-0.0656577
-0.0156215
0.00476361
0.374796
-0.147463
-0.829629
-1.28163
-1.76051
-2.13646
-2.39694
-2.4678
-2.56582
-2.68425
-2.58822
-2.5026
-2.30793
-2.14375
-1.76057
-1.33955
-0.808844
-0.248361
0.326573
0.912817
0.312092
-0.120949
-0.662953
-1.07009
-1.39872
-1.68053
-1.93789
-2.11389
-2.17626
-2.14165
-2.1631
-2.08727
-1.90054
-1.70831
-1.40419
-1.09498
-0.678627
-0.169065
0.352979
0.892701
0.340647
-0.0622904
-0.464589
-0.848882
-1.13216
-1.4651
-1.59412
-1.73507
-1.81916
-1.82599
-1.82137
-1.72887
-1.53123
-1.38419
-1.1051
-0.903803
-0.49006
-0.0603352
0.417384
0.795016
0.276159
0.00802443
-0.39707
-0.675257
-0.892515
-1.17956
-1.25036
-1.3124
-1.40942
-1.48363
-1.47605
-1.33355
-1.18045
-1.13397
-0.892719
-0.608334
-0.280705
0.0108957
0.284103
0.626479
0.208835
0.0101657
-0.280942
-0.517834
-0.645158
-0.864747
-0.998169
-1.02003
-1.14243
-1.12046
-1.09315
-1.04018
-1.03898
-0.855218
-0.702356
-0.541276
-0.272054
-0.0228831
0.261185
0.505482
0.166257
-0.00644056
-0.221768
-0.414725
-0.46385
-0.59378
-0.623319
-0.730246
-0.785979
-0.779514
-0.737197
-0.648956
-0.716155
-0.604642
-0.45046
-0.41817
-0.102765
-0.0292277
0.235693
0.449768
0.133709
-0.0188454
-0.07889
-0.186164
-0.288086
-0.332178
-0.360065
-0.391952
-0.414538
-0.448335
-0.423382
-0.430449
-0.443043
-0.37022
-0.297386
-0.266995
-0.0776677
0.0208871
0.215985
0.258245
0.0818806
-0.0163489
0.00103623
-0.0555953
-0.0763247
-0.1129
-0.118128
-0.103165
-0.160251
-0.1056
-0.106818
-0.100453
-0.140746
-0.176586
-0.11995
-0.089934
-0.0290137
0.0244893
0.113632
0.0461084
1.30852
0.791275
0.127785
-0.477581
-0.854863
-1.33214
-1.50779
-1.74403
-1.84567
-1.90562
-1.79524
-1.67159
-1.5117
-1.25695
-0.900439
-0.471814
0.0373973
0.665997
1.33082
1.97753
1.21877
0.690132
0.136349
-0.326197
-0.720665
-1.10905
-1.26294
-1.39564
-1.49118
-1.55286
-1.48745
-1.45003
-1.24777
-1.0104
-0.714211
-0.278587
0.0637177
0.638332
1.16336
1.64548
0.967067
0.656917
0.163491
-0.197178
-0.61967
-0.799982
-1.0296
-1.13695
-1.26252
-1.29179
-1.17891
-1.19676
-0.967653
-0.756462
-0.556073
-0.228157
0.211112
0.561878
1.05016
1.41476
0.82675
0.543328
0.105229
-0.110428
-0.467118
-0.584091
-0.869627
-0.915289
-0.97962
-1.05956
-1.02712
-0.985442
-0.794816
-0.604719
-0.40988
-0.11877
0.0449931
0.464741
0.890943
1.25986
0.685933
0.442898
0.123688
-0.00896505
-0.277724
-0.45992
-0.619119
-0.742758
-0.775149
-0.738456
-0.689444
-0.770886
-0.572401
-0.503661
-0.316716
-0.0876772
0.100197
0.389534
0.704078
0.91402
0.4524
0.258591
0.0894594
-0.0392728
-0.176478
-0.379378
-0.466775
-0.439576
-0.532546
-0.535542
-0.50064
-0.549716
-0.42603
-0.294158
-0.239978
-0.0291817
0.107009
0.289345
0.517487
0.708069
0.257535
0.232794
0.0727253
-0.00976146
-0.170455
-0.164721
-0.277737
-0.347591
-0.221734
-0.330873
-0.323059
-0.296179
-0.36896
-0.204409
-0.144927
0.0170386
0.0653769
0.155201
0.306107
0.337289
0.124642
0.110541
0.0306996
0.0339395
-0.0181413
-0.0721196
-0.126413
-0.125446
-0.115548
-0.0643364
-0.142806
-0.106305
-0.108104
-0.0646193
-0.0707399
-0.0324615
0.106324
0.0566437
0.135595
0.226808
2.05576
1.57663
0.86881
0.305941
-0.18219
-0.540131
-0.79561
-1.12757
-1.11928
-1.21881
-1.1755
-1.00883
-0.904553
-0.582912
-0.228898
0.180053
0.754691
1.38853
2.04018
2.68605
1.81332
1.34937
0.820778
0.246128
-0.0983251
-0.440618
-0.662377
-0.814254
-0.967282
-1.02176
-0.99767
-0.865886
-0.729994
-0.386068
-0.115475
0.250254
0.677017
1.27223
1.7888
2.37465
1.49777
1.20264
0.665626
0.284702
-0.0886154
-0.320984
-0.61734
-0.648722
-0.791564
-0.837991
-0.765703
-0.707854
-0.553982
-0.288907
-0.0484723
0.244244
0.65641
1.08983
1.55774
1.9952
1.30752
0.960991
0.59037
0.224538
-0.0088142
-0.309896
-0.452116
-0.498478
-0.552761
-0.678686
-0.615776
-0.601732
-0.463461
-0.285026
-0.107724
0.208145
0.57098
0.860818
1.33033
1.63417
0.997538
0.739196
0.471399
0.197839
-0.0219464
-0.167995
-0.281125
-0.430338
-0.446329
-0.459157
-0.501342
-0.435025
-0.332631
-0.275663
0.0184459
0.216451
0.373575
0.650591
1.01646
1.22877
0.762264
0.519236
0.371058
0.11246
0.0279575
-0.137783
-0.216428
-0.266941
-0.342241
-0.42094
-0.363276
-0.26858
-0.278803
-0.14754
-0.0302953
0.114074
0.268188
0.510651
0.673163
0.978177
0.425984
0.301162
0.211773
0.0851215
0.043054