/*--------------------------------*- C++ -*----------------------------------*\
| =========                 |                                                 |
| \\      /  F ield         | OpenFOAM: The Open Source CFD Toolbox           |
|  \\    /   O peration     | Version:  2212                                  |
|   \\  /    A nd           | Website:  www.openfoam.com                      |
|    \\/     M anipulation  |                                                 |
\*---------------------------------------------------------------------------*/
FoamFile
{
    version     2.0;
    format      ascii;
    arch        "LSB;label=32;scalar=64";
    class       volScalarField;
    location    "0";
    object      Tdirect;
}
// * * * * * * * * * * * * * * * * * * * * * * * * * * * * * * * * * * * * * //

dimensions      [0 0 0 1 0 0 0];

internalField   nonuniform List<scalar> 
3200
(
319.058
319.409
319.858
320.347
320.85
321.344
321.8
322.186
322.466
322.614
322.614
322.466
322.186
321.8
321.344
320.85
320.347
319.858
319.409
319.058
316.514
316.812
317.199
317.622
318.057
318.485
318.879
319.212
319.454
319.582
319.582
319.454
319.212
318.879
318.485
318.057
317.622
317.199
316.812
316.514
313.973
314.22
314.546
314.903
315.271
315.632
315.965
316.246
316.45
316.558
316.558
316.45
316.246
315.965
315.632
315.271
314.903
314.546
314.22
313.973
311.433
311.631
311.897
312.189
312.49
312.785
313.057
313.287
313.453
313.541
313.541
313.453
313.287
313.057
312.785
312.49
312.189
311.897
311.631
311.433
308.894
309.046
309.252
309.479
309.713
309.943
310.154
310.332
310.461
310.53
310.53
310.461
310.332
310.154
309.943
309.713
309.479
309.252
309.046
308.894
306.355
306.463
306.61
306.772
306.939
307.103
307.254
307.381
307.473
307.522
307.522
307.473
307.381
307.254
307.103
306.939
306.772
306.61
306.463
306.355
303.817
303.882
303.97
304.067
304.167
304.266
304.356
304.433
304.488
304.517
304.517
304.488
304.433
304.356
304.266
304.167
304.067
303.97
303.882
303.817
301.28
301.301
301.331
301.363
301.397
301.43
301.46
301.486
301.504
301.514
301.514
301.504
301.486
301.46
301.43
301.397
301.363
301.331
301.301
301.28
319.112
319.46
319.905
320.389
320.888
321.377
321.827
322.208
322.484
322.631
322.631
322.484
322.208
321.827
321.377
320.888
320.389
319.905
319.46
319.112
316.561
316.856
317.24
317.659
318.09
318.513
318.902
319.231
319.47
319.596
319.596
319.47
319.231
318.902
318.513
318.09
317.659
317.24
316.856
316.561
314.012
314.257
314.58
314.934
315.299
315.656
315.985
316.262
316.464
316.571
316.571
316.464
316.262
315.985
315.656
315.299
314.934
314.58
314.257
314.012
311.465
311.662
311.925
312.215
312.513
312.805
313.073
313.3
313.465
313.551
313.551
313.465
313.3
313.073
312.805
312.513
312.215
311.925
311.662
311.465
308.919
309.07
309.274
309.499
309.731
309.958
310.166
310.342
310.47
310.538
310.538
310.47
310.342
310.166
309.958
309.731
309.499
309.274
309.07
308.919
306.373
306.48
306.626
306.786
306.952
307.114
307.263
307.388
307.48
307.528
307.528
307.48
307.388
307.263
307.114
306.952
306.786
306.626
306.48
306.373
303.828
303.892
303.979
304.076
304.175
304.272
304.362
304.437
304.492
304.521
304.521
304.492
304.437
304.362
304.272
304.175
304.076
303.979
303.892
303.828
301.283
301.305
301.334
301.366
301.399
301.432
301.462
301.487
301.506
301.515
301.515
301.506
301.487
301.462
301.432
301.399
301.366
301.334
301.305
301.283
319.22
319.563
320
320.476
320.964
321.442
321.883
322.254
322.523
322.666
322.666
322.523
322.254
321.883
321.442
320.964
320.476
320
319.563
319.22
316.655
316.945
317.322
317.733
318.156
318.57
318.95
319.271
319.504
319.627
319.627
319.504
319.271
318.95
318.57
318.156
317.733
317.322
316.945
316.655
314.091
314.332
314.65
314.997
315.354
315.704
316.025
316.296
316.493
316.596
316.596
316.493
316.296
316.025
315.704
315.354
314.997
314.65
314.332
314.091
311.529
311.723
311.982
312.266
312.558
312.844
313.107
313.328
313.488
313.573
313.573
313.488
313.328
313.107
312.844
312.558
312.266
311.982
311.723
311.529
308.969
309.118
309.318
309.539
309.766
309.988
310.192
310.364
310.488
310.554
310.554
310.488
310.364
310.192
309.988
309.766
309.539
309.318
309.118
308.969
306.409
306.514
306.657
306.815
306.977
307.136
307.281
307.404
307.493
307.54
307.54
307.493
307.404
307.281
307.136
306.977
306.815
306.657
306.514
306.409
303.849
303.912
303.998
304.093
304.19
304.285
304.373
304.446
304.5
304.528
304.528
304.5
304.446
304.373
304.285
304.19
304.093
303.998
303.912
303.849
301.29
301.311
301.34
301.372
301.404
301.436
301.466
301.49
301.508
301.518
301.518
301.508
301.49
301.466
301.436
301.404
301.372
301.34
301.311
301.29
319.384
319.719
320.145
320.607
321.081
321.544
321.969
322.327
322.587
322.724
322.724
322.587
322.327
321.969
321.544
321.081
320.607
320.145
319.719
319.384
316.796
317.079
317.447
317.847
318.257
318.658
319.025
319.335
319.559
319.677
319.677
319.559
319.335
319.025
318.658
318.257
317.847
317.447
317.079
316.796
314.21
314.445
314.755
315.093
315.44
315.778
316.089
316.35
316.539
316.639
316.639
316.539
316.35
316.089
315.778
315.44
315.093
314.755
314.445
314.21
311.626
311.816
312.068
312.345
312.628
312.905
313.158
313.372
313.526
313.608
313.608
313.526
313.372
313.158
312.905
312.628
312.345
312.068
311.816
311.626
309.044
309.19
309.385
309.6
309.82
310.035
310.233
310.398
310.518
310.581
310.581
310.518
310.398
310.233
310.035
309.82
309.6
309.385
309.19
309.044
306.463
306.566
306.705
306.858
307.016
307.169
307.31
307.428
307.514
307.559
307.559
307.514
307.428
307.31
307.169
307.016
306.858
306.705
306.566
306.463
303.882
303.943
304.027
304.119
304.213
304.306
304.39
304.461
304.512
304.54
304.54
304.512
304.461
304.39
304.306
304.213
304.119
304.027
303.943
303.882
301.301
301.322
301.35
301.381
301.412
301.443
301.471
301.495
301.512
301.522
301.522
301.512
301.495
301.471
301.443
301.412
301.381
301.35
301.322
301.301
319.603
319.928
320.34
320.786
321.241
321.685
322.092
322.432
322.68
322.81
322.81
322.68
322.432
322.092
321.685
321.241
320.786
320.34
319.928
319.603
316.985
317.26
317.616
318.001
318.396
318.78
319.131
319.426
319.64
319.752
319.752
319.64
319.426
319.131
318.78
318.396
318.001
317.616
317.26
316.985
314.37
314.598
314.898
315.224
315.557
315.881
316.178
316.427
316.608
316.702
316.702
316.608
316.427
316.178
315.881
315.557
315.224
314.898
314.598
314.37
311.757
311.941
312.185
312.451
312.724
312.989
313.232
313.435
313.582
313.66
313.66
313.582
313.435
313.232
312.989
312.724
312.451
312.185
311.941
311.757
309.145
309.286
309.476
309.683
309.895
310.101
310.29
310.447
310.562
310.622
310.622
310.562
310.447
310.29
310.101
309.895
309.683
309.476
309.286
309.145
306.535
306.635
306.77
306.918
307.069
307.216
307.351
307.464
307.545
307.588
307.588
307.545
307.464
307.351
307.216
307.069
306.918
306.77
306.635
306.535
303.925
303.985
304.066
304.154
304.245
304.334
304.415
304.482
304.531
304.557
304.557
304.531
304.482
304.415
304.334
304.245
304.154
304.066
303.985
303.925
301.316
301.336
301.363
301.392
301.423
301.453
301.48
301.502
301.519
301.527
301.527
301.519
301.502
301.48
301.453
301.423
301.392
301.363
301.336
301.316
319.88
320.193
320.588
321.014
321.449
321.87
322.255
322.576
322.809
322.931
322.931
322.809
322.576
322.255
321.87
321.449
321.014
320.588
320.193
319.88
317.224
317.489
317.83
318.199
318.575
318.94
319.272
319.55
319.751
319.857
319.857
319.751
319.55
319.272
318.94
318.575
318.199
317.83
317.489
317.224
314.572
314.791
315.079
315.391
315.708
316.017
316.298
316.533
316.702
316.792
316.792
316.702
316.533
316.298
316.017
315.708
315.391
315.079
314.791
314.572
311.922
312.098
312.333
312.588
312.847
313.099
313.329
313.521
313.66
313.733
313.733
313.66
313.521
313.329
313.099
312.847
312.588
312.333
312.098
311.922
309.273
309.409
309.591
309.789
309.991
310.187
310.365
310.514
310.622
310.679
310.679
310.622
310.514
310.365
310.187
309.991
309.789
309.591
309.409
309.273
306.626
306.722
306.852
306.993
307.138
307.277
307.405
307.511
307.588
307.629
307.629
307.588
307.511
307.405
307.277
307.138
306.993
306.852
306.722
306.626
303.98
304.037
304.115
304.2
304.286
304.37
304.447
304.511
304.557
304.581
304.581
304.557
304.511
304.447
304.37
304.286
304.2
304.115
304.037
303.98
301.334
301.353
301.379
301.408
301.437
301.465
301.491
301.512
301.527
301.536
301.536
301.527
301.512
301.491
301.465
301.437
301.408
301.379
301.353
301.334
320.216
320.515
320.892
321.296
321.707
322.103
322.464
322.764
322.981
323.095
323.095
322.981
322.764
322.464
322.103
321.707
321.296
320.892
320.515
320.216
317.514
317.767
318.092
318.443
318.798
319.141
319.453
319.713
319.901
319.999
319.999
319.901
319.713
319.453
319.141
318.798
318.443
318.092
317.767
317.514
314.816
315.026
315.3
315.596
315.897
316.187
316.451
316.67
316.828
316.911
316.911
316.828
316.67
316.451
316.187
315.897
315.596
315.3
315.026
314.816
312.121
312.29
312.514
312.756
313.001
313.239
313.454
313.634
313.763
313.831
313.831
313.763
313.634
313.454
313.239
313.001
312.756
312.514
312.29
312.121
309.428
309.558
309.731
309.919
310.11
310.295
310.462
310.602
310.702
310.755
310.755
310.702
310.602
310.462
310.295
310.11
309.919
309.731
309.558
309.428
306.737
306.829
306.952
307.086
307.223
307.355
307.474
307.574
307.646
307.683
307.683
307.646
307.574
307.474
307.355
307.223
307.086
306.952
306.829
306.737
304.046
304.101
304.175
304.256
304.338
304.417
304.489
304.548
304.592
304.614
304.614
304.592
304.548
304.489
304.417
304.338
304.256
304.175
304.101
304.046
301.356
301.375
301.399
301.426
301.454
301.48
301.505
301.525
301.539
301.547
301.547
301.539
301.525
301.505
301.48
301.454
301.426
301.399
301.375
301.356
320.612
320.896
321.253
321.634
322.019
322.389
322.725
323.003
323.203
323.308
323.308
323.203
323.003
322.725
322.389
322.019
321.634
321.253
320.896
320.612
317.857
318.097
318.405
318.735
319.068
319.389
319.679
319.92
320.093
320.184
320.184
320.093
319.92
319.679
319.389
319.068
318.735
318.405
318.097
317.857
315.105
315.305
315.564
315.843
316.125
316.396
316.641
316.845
316.991
317.068
317.068
316.991
316.845
316.641
316.396
316.125
315.843
315.564
315.305
315.105
312.357
312.518
312.729
312.957
313.188
313.409
313.61
313.776
313.896
313.958
313.958
313.896
313.776
313.61
313.409
313.188
312.957
312.729
312.518
312.357
309.611
309.735
309.899
310.076
310.255
310.428
310.584
310.713
310.806
310.854
310.854
310.806
310.713
310.584
310.428
310.255
310.076
309.899
309.735
309.611
306.867
306.955
307.072
307.198
307.326
307.449
307.561
307.653
307.719
307.754
307.754
307.719
307.653
307.561
307.449
307.326
307.198
307.072
306.955
306.867
304.125
304.177
304.247
304.323
304.4
304.474
304.541
304.596
304.636
304.657
304.657
304.636
304.596
304.541
304.474
304.4
304.323
304.247
304.177
304.125
301.383
301.4
301.423
301.449
301.475
301.499
301.522
301.54
301.554
301.561
301.561
301.554
301.54
301.522
301.499
301.475
301.449
301.423
301.4
301.383
321.071
321.339
321.674
322.031
322.39
322.733
323.043
323.299
323.482
323.578
323.578
323.482
323.299
323.043
322.733
322.39
322.031
321.674
321.339
321.071
318.253
318.48
318.769
319.078
319.389
319.686
319.954
320.176
320.334
320.417
320.417
320.334
320.176
319.954
319.686
319.389
319.078
318.769
318.48
318.253
315.439
315.628
315.872
316.133
316.396
316.647
316.874
317.061
317.195
317.265
317.265
317.195
317.061
316.874
316.647
316.396
316.133
315.872
315.628
315.439
312.63
312.781
312.98
313.194
313.409
313.615
313.8
313.953
314.063
314.12
314.12
314.063
313.953
313.8
313.615
313.409
313.194
312.98
312.781
312.63
309.823
309.94
310.094
310.26
310.427
310.587
310.731
310.85
310.935
310.98
310.98
310.935
310.85
310.731
310.587
310.427
310.26
310.094
309.94
309.823
307.019
307.101
307.211
307.33
307.449
307.563
307.666
307.751
307.812
307.844
307.844
307.812
307.751
307.666
307.563
307.449
307.33
307.211
307.101
307.019
304.215
304.265
304.331
304.402
304.473
304.542
304.604
304.655
304.691
304.711
304.711
304.691
304.655
304.604
304.542
304.473
304.402
304.331
304.265
304.215
301.413
301.429
301.451
301.475
301.499
301.522
301.543
301.56
301.572
301.579
301.579
301.572
301.56
301.543
301.522
301.499
301.475
301.451
301.429
301.413
321.593
321.845
322.159
322.491
322.823
323.14
323.423
323.657
323.824
323.911
323.911
323.824
323.657
323.423
323.14
322.823
322.491
322.159
321.845
321.593
318.704
318.917
319.188
319.476
319.763
320.037
320.283
320.486
320.63
320.706
320.706
320.63
320.486
320.283
320.037
319.763
319.476
319.188
318.917
318.704
315.82
315.997
316.225
316.469
316.712
316.944
317.152
317.323
317.445
317.509
317.509
317.445
317.323
317.152
316.944
316.712
316.469
316.225
315.997
315.82
312.941
313.083
313.269
313.468
313.667
313.857
314.027
314.167
314.267
314.319
314.319
314.267
314.167
314.027
313.857
313.667
313.468
313.269
313.083
312.941
310.065
310.174
310.318
310.473
310.628
310.775
310.908
311.016
311.094
311.135
311.135
311.094
311.016
310.908
310.775
310.628
310.473
310.318
310.174
310.065
307.191
307.268
307.371
307.482
307.592
307.698
307.792
307.87
307.925
307.954
307.954
307.925
307.87
307.792
307.698
307.592
307.482
307.371
307.268
307.191
304.319
304.365
304.427
304.493
304.56
304.623
304.679
304.726
304.759
304.777
304.777
304.759
304.726
304.679
304.623
304.56
304.493
304.427
304.365
304.319
301.448
301.463
301.484
301.506
301.528
301.549
301.568
301.584
301.595
301.601
301.601
301.595
301.584
301.568
301.549
301.528
301.506
301.484
301.463
301.448
322.18
322.416
322.708
323.016
323.322
323.612
323.871
324.083
324.234
324.313
324.313
324.234
324.083
323.871
323.612
323.322
323.016
322.708
322.416
322.18
319.211
319.411
319.663
319.93
320.195
320.446
320.67
320.854
320.985
321.053
321.053
320.985
320.854
320.67
320.446
320.195
319.93
319.663
319.411
319.211
316.248
316.414
316.626
316.852
317.076
317.289
317.478
317.634
317.744
317.802
317.802
317.744
317.634
317.478
317.289
317.076
316.852
316.626
316.414
316.248
313.291
313.424
313.597
313.781
313.965
314.139
314.294
314.421
314.511
314.559
314.559
314.511
314.421
314.294
314.139
313.965
313.781
313.597
313.424
313.291
310.336
310.438
310.573
310.716
310.859
310.994
311.115
311.214
311.284
311.321
311.321
311.284
311.214
311.115
310.994
310.859
310.716
310.573
310.438
310.336
307.385
307.457
307.553
307.655
307.757
307.854
307.94
308.011
308.061
308.087
308.087
308.061
308.011
307.94
307.854
307.757
307.655
307.553
307.457
307.385
304.435
304.478
304.536
304.597
304.659
304.717
304.768
304.811
304.841
304.857
304.857
304.841
304.811
304.768
304.717
304.659
304.597
304.536
304.478
304.435
301.487
301.501
301.52
301.541
301.561
301.581
301.598
301.612
301.623
301.628
301.628
301.623
301.612
301.598
301.581
301.561
301.541
301.52
301.501
301.487
322.835
323.054
323.325
323.609
323.89
324.154
324.389
324.581
324.717
324.788
324.788
324.717
324.581
324.389
324.154
323.89
323.609
323.325
323.054
322.835
319.777
319.962
320.196
320.442
320.685
320.914
321.118
321.284
321.402
321.463
321.463
321.402
321.284
321.118
320.914
320.685
320.442
320.196
319.962
319.777
316.726
316.88
317.077
317.285
317.49
317.684
317.857
317.997
318.097
318.149
318.149
318.097
317.997
317.857
317.684
317.49
317.285
317.077
316.88
316.726
313.68
313.804
313.965
314.135
314.303
314.462
314.603
314.718
314.799
314.842
314.842
314.799
314.718
314.603
314.462
314.303
314.135
313.965
313.804
313.68
310.639
310.734
310.859
310.991
311.122
311.245
311.355
311.444
311.508
311.541
311.541
311.508
311.444
311.355
311.245
311.122
310.991
310.859
310.734
310.639
307.601
307.668
307.757
307.851
307.945
308.033
308.112
308.175
308.221
308.244
308.244
308.221
308.175
308.112
308.033
307.945
307.851
307.757
307.668
307.601
304.565
304.605
304.658
304.715
304.771
304.824
304.871
304.91
304.937
304.951
304.951
304.937
304.91
304.871
304.824
304.771
304.715
304.658
304.605
304.565
301.53
301.543
301.561
301.58
301.599
301.617
301.633
301.646
301.655
301.659
301.659
301.655
301.646
301.633
301.617
301.599
301.58
301.561
301.543
301.53
323.557
323.76
324.011
324.271
324.528
324.768
324.98
325.153
325.276
325.339
325.339
325.276
325.153
324.98
324.768
324.528
324.271
324.011
323.76
323.557
320.401
320.573
320.789
321.015
321.237
321.445
321.629
321.779
321.885
321.94
321.94
321.885
321.779
321.629
321.445
321.237
321.015
320.789
320.573
320.401
317.252
317.395
317.577
317.768
317.956
318.133
318.288
318.415
318.505
318.551
318.551
318.505
318.415
318.288
318.133
317.956
317.768
317.577
317.395
317.252
314.11
314.225
314.374
314.53
314.684
314.828
314.955
315.059
315.132
315.17
315.17
315.132
315.059
314.955
314.828
314.684
314.53
314.374
314.225
314.11
310.973
311.061
311.176
311.298
311.418
311.53
311.629
311.71
311.767
311.796
311.796
311.767
311.71
311.629
311.53
311.418
311.298
311.176
311.061
310.973
307.839
307.902
307.984
308.071
308.156
308.236
308.307
308.365
308.406
308.427
308.427
308.406
308.365
308.307
308.236
308.156
308.071
307.984
307.902
307.839
304.708
304.745
304.794
304.846
304.898
304.946
304.989
305.023
305.048
305.06
305.06
305.048
305.023
304.989
304.946
304.898
304.846
304.794
304.745
304.708
301.578
301.59
301.607
301.624
301.642
301.658
301.672
301.684
301.692
301.696
301.696
301.692
301.684
301.672
301.658
301.642
301.624
301.607
301.59
301.578
324.348
324.536
324.766
325.005
325.238
325.456
325.648
325.803
325.912
325.969
325.969
325.912
325.803
325.648
325.456
325.238
325.005
324.766
324.536
324.348
321.084
321.243
321.442
321.649
321.851
322.04
322.206
322.34
322.435
322.484
322.484
322.435
322.34
322.206
322.04
321.851
321.649
321.442
321.243
321.084
317.829
317.961
318.129
318.304
318.475
318.635
318.775
318.889
318.969
319.011
319.011
318.969
318.889
318.775
318.635
318.475
318.304
318.129
317.961
317.829
314.581
314.687
314.824
314.967
315.107
315.238
315.353
315.446
315.512
315.546
315.546
315.512
315.446
315.353
315.238
315.107
314.967
314.824
314.687
314.581
311.339
311.42
311.526
311.637
311.747
311.848
311.938
312.01
312.061
312.088
312.088
312.061
312.01
311.938
311.848
311.747
311.637
311.526
311.42
311.339
308.1
308.158
308.233
308.313
308.391
308.464
308.528
308.579
308.616
308.635
308.635
308.616
308.579
308.528
308.464
308.391
308.313
308.233
308.158
308.1
304.865
304.899
304.944
304.992
305.039
305.083
305.121
305.152
305.174
305.185
305.185
305.174
305.152
305.121
305.083
305.039
304.992
304.944
304.899
304.865
301.63
301.642
301.657
301.673
301.689
301.703
301.716
301.727
301.734
301.738
301.738
301.734
301.727
301.716
301.703
301.689
301.673
301.657
301.642
301.63
325.206
325.38
325.591
325.809
326.022
326.218
326.39
326.529
326.627
326.678
326.678
326.627
326.529
326.39
326.218
326.022
325.809
325.591
325.38
325.206
321.826
321.973
322.155
322.344
322.528
322.698
322.848
322.968
323.053
323.097
323.097
323.053
322.968
322.848
322.698
322.528
322.344
322.155
321.973
321.826
318.455
318.577
318.731
318.89
319.046
319.19
319.317
319.419
319.491
319.528
319.528
319.491
319.419
319.317
319.19
319.046
318.89
318.731
318.577
318.455
315.092
315.19
315.315
315.446
315.574
315.692
315.795
315.879
315.937
315.968
315.968
315.937
315.879
315.795
315.692
315.574
315.446
315.315
315.19
315.092
311.735
311.811
311.908
312.01
312.109
312.201
312.281
312.346
312.392
312.415
312.415
312.392
312.346
312.281
312.201
312.109
312.01
311.908
311.811
311.735
308.383
308.437
308.506
308.579
308.649
308.715
308.773
308.819
308.852
308.869
308.869
308.852
308.819
308.773
308.715
308.649
308.579
308.506
308.437
308.383
305.034
305.066
305.108
305.151
305.194
305.233
305.268
305.296
305.316
305.326
305.326
305.316
305.296
305.268
305.233
305.194
305.151
305.108
305.066
305.034
301.687
301.698
301.712
301.727
301.741
301.754
301.766
301.775
301.782
301.785
301.785
301.782
301.775
301.766
301.754
301.741
301.727
301.712
301.698
301.687
326.13
326.29
326.483
326.682
326.874
327.052
327.207
327.331
327.418
327.463
327.463
327.418
327.331
327.207
327.052
326.874
326.682
326.483
326.29
326.13
322.623
322.758
322.925
323.097
323.264
323.418
323.552
323.66
323.736
323.775
323.775
323.736
323.66
323.552
323.418
323.264
323.097
322.925
322.758
322.623
319.127
319.239
319.38
319.526
319.667
319.797
319.911
320.002
320.066
320.099
320.099
320.066
320.002
319.911
319.797
319.667
319.526
319.38
319.239
319.127
315.64
315.731
315.846
315.965
316.08
316.187
316.28
316.355
316.407
316.434
316.434
316.407
316.355
316.28
316.187
316.08
315.965
315.846
315.731
315.64
312.161
312.23
312.319
312.412
312.502
312.585
312.658
312.716
312.757
312.778
312.778
312.757
312.716
312.658
312.585
312.502
312.412
312.319
312.23
312.161
308.687
308.736
308.799
308.866
308.93
308.989
309.041
309.083
309.112
309.127
309.127
309.112
309.083
309.041
308.989
308.93
308.866
308.799
308.736
308.687
305.217
305.246
305.284
305.324
305.362
305.398
305.429
305.454
305.472
305.481
305.481
305.472
305.454
305.429
305.398
305.362
305.324
305.284
305.246
305.217
301.748
301.758
301.771
301.784
301.797
301.809
301.82
301.828
301.834
301.837
301.837
301.834
301.828
301.82
301.809
301.797
301.784
301.771
301.758
301.748
327.108
327.255
327.433
327.614
327.788
327.948
328.087
328.199
328.276
328.317
328.317
328.276
328.199
328.087
327.948
327.788
327.614
327.433
327.255
327.108
323.466
323.59
323.743
323.9
324.052
324.19
324.311
324.408
324.475
324.51
324.51
324.475
324.408
324.311
324.19
324.052
323.9
323.743
323.59
323.466
319.837
319.94
320.069
320.202
320.33
320.448
320.55
320.632
320.689
320.718
320.718
320.689
320.632
320.55
320.448
320.33
320.202
320.069
319.94
319.837
316.219
316.302
316.407
316.516
316.621
316.717
316.801
316.868
316.914
316.938
316.938
316.914
316.868
316.801
316.717
316.621
316.516
316.407
316.302
316.219
312.609
312.673
312.755
312.839
312.921
312.996
313.061
313.113
313.15
313.168
313.168
313.15
313.113
313.061
312.996
312.921
312.839
312.755
312.673
312.609
309.006
309.051
309.11
309.17
309.228
309.282
309.329
309.366
309.392
309.405
309.405
309.392
309.366
309.329
309.282
309.228
309.17
309.11
309.051
309.006
305.408
305.435
305.47
305.506
305.541
305.574
305.601
305.624
305.64
305.648
305.648
305.64
305.624
305.601
305.574
305.541
305.506
305.47
305.435
305.408
301.813
301.822
301.833
301.845
301.857
301.868
301.877
301.885
301.89
301.893
301.893
301.89
301.885
301.877
301.868
301.857
301.845
301.833
301.822
301.813
328.117
328.252
328.415
328.58
328.739
328.883
329.008
329.108
329.178
329.214
329.214
329.178
329.108
329.008
328.883
328.739
328.58
328.415
328.252
328.117
324.331
324.446
324.586
324.729
324.867
324.992
325.101
325.188
325.248
325.279
325.279
325.248
325.188
325.101
324.992
324.867
324.729
324.586
324.446
324.331
320.562
320.657
320.776
320.897
321.013
321.12
321.212
321.285
321.337
321.363
321.363
321.337
321.285
321.212
321.12
321.013
320.897
320.776
320.657
320.562
316.808
316.884
316.981
317.08
317.175
317.263
317.338
317.398
317.44
317.462
317.462
317.44
317.398
317.338
317.263
317.175
317.08
316.981
316.884
316.808
313.065
313.123
313.198
313.275
313.35
313.418
313.476
313.523
313.556
313.573
313.573
313.556
313.523
313.476
313.418
313.35
313.275
313.198
313.123
313.065
309.33
309.372
309.425
309.48
309.533
309.582
309.624
309.658
309.681
309.693
309.693
309.681
309.658
309.624
309.582
309.533
309.48
309.425
309.372
309.33
305.602
305.627
305.659
305.692
305.724
305.753
305.778
305.798
305.812
305.82
305.82
305.812
305.798
305.778
305.753
305.724
305.692
305.659
305.627
305.602
301.877
301.886
301.896
301.908
301.918
301.928
301.937
301.943
301.948
301.95
301.95
301.948
301.943
301.937
301.928
301.918
301.908
301.896
301.886
301.877
329.092
329.217
329.367
329.518
329.663
329.795
329.909
329.999
330.062
330.094
330.094
330.062
329.999
329.909
329.795
329.663
329.518
329.367
329.217
329.092
325.157
325.263
325.392
325.524
325.65
325.765
325.864
325.942
325.997
326.025
326.025
325.997
325.942
325.864
325.765
325.65
325.524
325.392
325.263
325.157
321.247
321.335
321.444
321.556
321.663
321.76
321.844
321.911
321.957
321.981
321.981
321.957
321.911
321.844
321.76
321.663
321.556
321.444
321.335
321.247
317.358
317.429
317.519
317.61
317.698
317.777
317.846
317.901
317.939
317.959
317.959
317.939
317.901
317.846
317.777
317.698
317.61
317.519
317.429
317.358
313.487
313.541
313.611
313.682
313.75
313.812
313.866
313.909
313.938
313.954
313.954
313.938
313.909
313.866
313.812
313.75
313.682
313.611
313.541
313.487
309.629
309.667
309.717
309.768
309.817
309.861
309.899
309.93
309.951
309.962
309.962
309.951
309.93
309.899
309.861
309.817
309.768
309.717
309.667
309.629
305.78
305.803
305.833
305.863
305.893
305.919
305.942
305.961
305.974
305.98
305.98
305.974
305.961
305.942
305.919
305.893
305.863
305.833
305.803
305.78
301.937
301.945
301.955
301.965
301.975
301.984
301.991
301.998
302.002
302.004
302.004
302.002
301.998
301.991
301.984
301.975
301.965
301.955
301.945
301.937
329.86
329.977
330.118
330.261
330.396
330.519
330.625
330.709
330.767
330.797
330.797
330.767
330.709
330.625
330.519
330.396
330.261
330.118
329.977
329.86
325.783
325.883
326.005
326.129
326.247
326.354
326.447
326.52
326.571
326.597
326.597
326.571
326.52
326.447
326.354
326.247
326.129
326.005
325.883
325.783
321.75
321.833
321.936
322.042
322.142
322.234
322.312
322.374
322.418
322.44
322.44
322.418
322.374
322.312
322.234
322.142
322.042
321.936
321.833
321.75
317.753
317.82
317.904
317.991
318.074
318.149
318.213
318.264
318.3
318.318
318.318
318.3
318.264
318.213
318.149
318.074
317.991
317.904
317.82
317.753
313.784
313.835
313.901
313.969
314.033
314.092
314.142
314.182
314.21
314.224
314.224
314.21
314.182
314.142
314.092
314.033
313.969
313.901
313.835
313.784
309.836
309.872
309.919
309.968
310.014
310.056
310.092
310.12
310.14
310.151
310.151
310.14
310.12
310.092
310.056
310.014
309.968
309.919
309.872
309.836
305.902
305.924
305.952
305.981
306.009
306.034
306.056
306.073
306.085
306.091
306.091
306.085
306.073
306.056
306.034
306.009
305.981
305.952
305.924
305.902
301.978
301.985
301.994
302.004
302.013
302.022
302.029
302.035
302.039
302.041
302.041
302.039
302.035
302.029
302.022
302.013
302.004
301.994
301.985
301.978
)
;

boundaryField
{
    hotSide
    {
        type            fixedGradient;
        gradient        nonuniform List<scalar> 
400
(
203.695
204.293
205.493
207.301
209.73
212.79
216.499
220.871
225.923
231.673
238.137
245.33
253.266
261.958
271.418
281.654
292.674
304.486
317.093
330.501
208.318
208.879
210.007
211.711
214.006
216.907
220.436
224.613
229.46
234.998
241.249
248.23
255.959
264.45
273.718
283.772
294.621
306.272
318.73
332
213.321
213.839
214.881
216.461
218.597
221.311
224.63
228.581
233.191
238.487
244.495
251.237
258.735
267.005
276.062
285.918
296.582
308.062
320.363
333.488
218.621
219.088
220.031
221.467
223.42
225.919
228.999
232.693
237.037
242.063
247.803
254.285
261.531
269.562
278.395
288.042
298.513
309.815
321.953
334.929
224.07
224.48
225.311
226.586
228.335
230.597
233.413
236.827
240.882
245.618
251.073
257.279
264.262
272.046
280.648
290.081
300.357
311.48
323.456
336.285
229.442
229.79
230.502
231.605
233.138
235.148
237.688
240.811
244.568
249.008
254.173
260.1
266.821
274.36
282.736
291.962
302.048
313
324.821
337.511
234.427
234.715
235.307
236.239
237.558
239.322
241.592
244.432
247.901
252.056
256.946
262.612
269.088
276.399
284.566
293.602
303.516
314.314
325.997
338.563
238.659
238.891
239.376
240.155
241.283
242.827
244.857
247.447
250.666
254.574
259.226
264.667
270.934
278.053
286.044
294.922
304.693
315.363
326.932
339.398
241.755
241.945
242.348
243.01
243.992
245.369
247.219
249.622
252.652
256.376
260.853
266.129
272.242
279.221
287.085
295.848
305.517
316.096
327.584
339.977
243.396
243.563
243.921
244.519
245.423
246.709
248.462
250.764
253.693
257.319
261.701
266.889
272.921
279.826
287.623
296.326
305.942
316.473
327.918
340.275
243.396
243.563
243.921
244.519
245.423
246.709
248.462
250.764
253.693
257.319
261.701
266.889
272.921
279.826
287.623
296.326
305.942
316.473
327.918
340.275
241.755
241.945
242.348
243.01
243.992
245.369
247.219
249.622
252.652
256.376
260.853
266.129
272.242
279.221
287.085
295.848
305.517
316.096
327.584
339.977
238.659
238.891
239.376
240.155
241.283
242.827
244.857
247.447
250.666
254.574
259.226
264.667
270.934
278.053
286.044
294.922
304.693
315.363
326.932
339.398
234.427
234.715
235.307
236.239
237.558
239.322
241.592
244.432
247.901
252.056
256.946
262.612
269.088
276.399
284.566
293.602
303.516
314.314
325.997
338.563
229.442
229.79
230.502
231.605
233.138
235.148
237.688
240.811
244.568
249.008
254.173
260.1
266.821
274.36
282.736
291.962
302.048
313
324.821
337.511
224.07
224.48
225.311
226.586
228.335
230.597
233.413
236.827
240.882
245.618
251.073
257.279
264.262
272.046
280.648
290.081
300.357
311.48
323.456
336.285
218.621
219.088
220.031
221.467
223.42
225.919
228.999
232.693
237.037
242.063
247.803
254.285
261.531
269.562
278.395
288.042
298.513
309.815
321.953
334.929
213.321
213.839
214.881
216.461
218.597
221.311
224.63
228.581
233.191
238.487
244.495
251.237
258.735
267.005
276.062
285.918
296.582
308.062
320.363
333.488
208.318
208.879
210.007
211.711
214.006
216.907
220.436
224.613
229.46
234.998
241.249
248.23
255.959
264.45
273.718
283.772
294.621
306.272
318.73
332
203.695
204.293
205.493
207.301
209.73
212.79
216.499
220.871
225.923
231.673
238.137
245.33
253.266
261.958
271.418
281.654
292.674
304.486
317.093
330.501
)
;
    }
    coldSide
    {
        type            mixed;
        refValue        uniform 300;
        refGradient     uniform 0;
        valueFraction   uniform 0.991591;
        source          uniform 0;
        value           nonuniform List<scalar> 
400
(
300.011
300.011
300.011
300.011
300.011
300.011
300.011
300.012
300.012
300.012
300.013
300.013
300.013
300.014
300.014
300.015
300.015
300.016
300.016
300.017
300.011
300.011
300.011
300.011
300.011
300.011
300.012
300.012
300.012
300.012
300.013
300.013
300.013
300.014
300.014
300.015
300.015
300.016
300.016
300.017