/*--------------------------------*- C++ -*----------------------------------*\
| =========                 |                                                 |
| \\      /  F ield         | OpenFOAM: The Open Source CFD Toolbox           |
|  \\    /   O peration     | Version:  2212                                  |
|   \\  /    A nd           | Website:  www.openfoam.com                      |
|    \\/     M anipulation  |                                                 |
\*---------------------------------------------------------------------------*/
FoamFile
{
    version     2.0;
    format      ascii;
    arch        "LSB;label=32;scalar=64";
    class       volScalarField;
    location    "0";
    object      Tdirect;
}
// * * * * * * * * * * * * * * * * * * * * * * * * * * * * * * * * * * * * * //

dimensions      [0 0 0 1 0 0 0];

internalField   nonuniform List<scalar> 
3200
(
321.417
321.751
322.178
322.643
323.122
323.592
324.026
324.392
324.659
324.8
324.8
324.659
324.392
324.026
323.592
323.122
322.643
322.178
321.751
321.417
318.519
318.802
319.17
319.572
319.987
320.393
320.768
321.085
321.315
321.437
321.437
321.315
321.085
320.768
320.393
319.987
319.572
319.17
318.802
318.519
315.64
315.875
316.185
316.525
316.875
317.219
317.535
317.802
317.997
318.1
318.1
317.997
317.802
317.535
317.219
316.875
316.525
316.185
315.875
315.64
312.777
312.966
313.219
313.497
313.783
314.064
314.322
314.541
314.699
314.783
314.783
314.699
314.541
314.322
314.064
313.783
313.497
313.219
312.966
312.777
309.927
310.072
310.268
310.484
310.707
310.925
311.126
311.295
311.419
311.484
311.484
311.419
311.295
311.126
310.925
310.707
310.484
310.268
310.072
309.927
307.087
307.19
307.33
307.484
307.643
307.799
307.942
308.063
308.151
308.197
308.197
308.151
308.063
307.942
307.799
307.643
307.484
307.33
307.19
307.087
304.254
304.316
304.399
304.492
304.587
304.681
304.767
304.84
304.892
304.92
304.92
304.892
304.84
304.767
304.681
304.587
304.492
304.399
304.316
304.254
301.426
301.446
301.474
301.505
301.537
301.569
301.597
301.622
301.639
301.649
301.649
301.639
301.622
301.597
301.569
301.537
301.505
301.474
301.446
301.426
321.484
321.816
322.239
322.699
323.173
323.638
324.067
324.429
324.692
324.831
324.831
324.692
324.429
324.067
323.638
323.173
322.699
322.239
321.816
321.484
318.577
318.857
319.222
319.621
320.031
320.433
320.804
321.117
321.344
321.464
321.464
321.344
321.117
320.804
320.433
320.031
319.621
319.222
318.857
318.577
315.689
315.921
316.229
316.566
316.912
317.252
317.565
317.829
318.021
318.122
318.122
318.021
317.829
317.565
317.252
316.912
316.566
316.229
315.921
315.689
312.817
313.004
313.255
313.53
313.813
314.091
314.347
314.562
314.719
314.802
314.802
314.719
314.562
314.347
314.091
313.813
313.53
313.255
313.004
312.817
309.958
310.102
310.296
310.51
310.73
310.946
311.145
311.312
311.434
311.498
311.498
311.434
311.312
311.145
310.946
310.73
310.51
310.296
310.102
309.958
307.109
307.211
307.35
307.502
307.66
307.814
307.956
308.075
308.162
308.207
308.207
308.162
308.075
307.956
307.814
307.66
307.502
307.35
307.211
307.109
304.267
304.328
304.411
304.503
304.597
304.69
304.775
304.847
304.899
304.926
304.926
304.899
304.847
304.775
304.69
304.597
304.503
304.411
304.328
304.267
301.43
301.45
301.478
301.509
301.541
301.572
301.6
301.624
301.642
301.651
301.651
301.642
301.624
301.6
301.572
301.541
301.509
301.478
301.45
301.43
321.619
321.945
322.361
322.813
323.277
323.732
324.151
324.504
324.761
324.896
324.896
324.761
324.504
324.151
323.732
323.277
322.813
322.361
321.945
321.619
318.692
318.969
319.327
319.719
320.121
320.514
320.876
321.181
321.403
321.52
321.52
321.403
321.181
320.876
320.514
320.121
319.719
319.327
318.969
318.692
315.786
316.015
316.317
316.648
316.988
317.32
317.626
317.884
318.071
318.169
318.169
318.071
317.884
317.626
317.32
316.988
316.648
316.317
316.015
315.786
312.896
313.081
313.327
313.597
313.875
314.147
314.397
314.607
314.759
314.84
314.84
314.759
314.607
314.397
314.147
313.875
313.597
313.327
313.081
312.896
310.019
310.161
310.352
310.562
310.778
310.989
311.183
311.347
311.465
311.528
311.528
311.465
311.347
311.183
310.989
310.778
310.562
310.352
310.161
310.019
307.153
307.253
307.389
307.539
307.694
307.844
307.983
308.099
308.184
308.229
308.229
308.184
308.099
307.983
307.844
307.694
307.539
307.389
307.253
307.153
304.294
304.354
304.435
304.525
304.618
304.708
304.792
304.862
304.912
304.939
304.939
304.912
304.862
304.792
304.708
304.618
304.525
304.435
304.354
304.294
301.439
301.459
301.486
301.516
301.547
301.578
301.606
301.629
301.646
301.655
301.655
301.646
301.629
301.606
301.578
301.547
301.516
301.486
301.459
301.439
321.821
322.14
322.545
322.985
323.436
323.876
324.281
324.621
324.868
324.998
324.998
324.868
324.621
324.281
323.876
323.436
322.985
322.545
322.14
321.821
318.867
319.137
319.486
319.867
320.257
320.638
320.988
321.282
321.496
321.608
321.608
321.496
321.282
320.988
320.638
320.257
319.867
319.486
319.137
318.867
315.933
316.157
316.451
316.773
317.103
317.425
317.72
317.969
318.149
318.244
318.244
318.149
317.969
317.72
317.425
317.103
316.773
316.451
316.157
315.933
313.016
313.196
313.436
313.699
313.969
314.232
314.473
314.676
314.823
314.9
314.9
314.823
314.676
314.473
314.232
313.969
313.699
313.436
313.196
313.016
310.112
310.251
310.437
310.641
310.851
311.055
311.243
311.4
311.515
311.575
311.575
311.515
311.4
311.243
311.055
310.851
310.641
310.437
310.251
310.112
307.219
307.317
307.45
307.596
307.745
307.891
308.025
308.138
308.219
308.262
308.262
308.219
308.138
308.025
307.891
307.745
307.596
307.45
307.317
307.219
304.333
304.392
304.471
304.559
304.649
304.737
304.817
304.884
304.933
304.959
304.959
304.933
304.884
304.817
304.737
304.649
304.559
304.471
304.392
304.333
301.452
301.472
301.498
301.528
301.558
301.587
301.614
301.637
301.653
301.662
301.662
301.653
301.637
301.614
301.587
301.558
301.528
301.498
301.472
301.452
322.093
322.402
322.794
323.218
323.651
324.073
324.46
324.784
325.019
325.143
325.143
325.019
324.784
324.46
324.073
323.651
323.218
322.794
322.402
322.093
319.101
319.362
319.701
320.068
320.443
320.808
321.142
321.423
321.626
321.733
321.733
321.626
321.423
321.142
320.808
320.443
320.068
319.701
319.362
319.101
316.13
316.347
316.632
316.942
317.259
317.568
317.85
318.087
318.258
318.349
318.349
318.258
318.087
317.85
317.568
317.259
316.942
316.632
316.347
316.13
313.176
313.351
313.583
313.837
314.096
314.348
314.579
314.772
314.913
314.986
314.986
314.913
314.772
314.579
314.348
314.096
313.837
313.583
313.351
313.176
310.237
310.371
310.551
310.748
310.949
311.146
311.325
311.475
311.584
311.641
311.641
311.584
311.475
311.325
311.146
310.949
310.748
310.551
310.371
310.237
307.308
307.403
307.531
307.672
307.816
307.956
308.084
308.191
308.269
308.31
308.31
308.269
308.191
308.084
307.956
307.816
307.672
307.531
307.403
307.308
304.387
304.443
304.52
304.605
304.691
304.775
304.852
304.916
304.963
304.988
304.988
304.963
304.916
304.852
304.775
304.691
304.605
304.52
304.443
304.387
301.47
301.489
301.515
301.543
301.572
301.6
301.626
301.647
301.663
301.671
301.671
301.663
301.647
301.626
301.6
301.572
301.543
301.515
301.489
301.47
322.435
322.732
323.108
323.514
323.927
324.328
324.694
324.999
325.221
325.337
325.337
325.221
324.999
324.694
324.328
323.927
323.514
323.108
322.732
322.435
319.395
319.647
319.972
320.323
320.68
321.027
321.344
321.608
321.799
321.9
321.9
321.799
321.608
321.344
321.027
320.68
320.323
319.972
319.647
319.395
316.378
316.587
316.86
317.157
317.459
317.752
318.02
318.243
318.405
318.489
318.489
318.405
318.243
318.02
317.752
317.459
317.157
316.86
316.587
316.378
313.378
313.546
313.769
314.012
314.259
314.499
314.717
314.9
315.032
315.101
315.101
315.032
314.9
314.717
314.499
314.259
314.012
313.769
313.546
313.378
310.393
310.522
310.695
310.884
311.076
311.262
311.432
311.574
311.676
311.73
311.73
311.676
311.574
311.432
311.262
311.076
310.884
310.695
310.522
310.393
307.419
307.511
307.634
307.769
307.906
308.039
308.16
308.261
308.335
308.373
308.373
308.335
308.261
308.16
308.039
307.906
307.769
307.634
307.511
307.419
304.453
304.508
304.582
304.663
304.745
304.825
304.898
304.959
305.003
305.026
305.026
305.003
304.959
304.898
304.825
304.745
304.663
304.582
304.508
304.453
301.492
301.511
301.535
301.562
301.59
301.617
301.641
301.662
301.676
301.684
301.684
301.676
301.662
301.641
301.617
301.59
301.562
301.535
301.511
301.492
322.848
323.133
323.491
323.876
324.266
324.644
324.987
325.273
325.479
325.587
325.587
325.479
325.273
324.987
324.644
324.266
323.876
323.491
323.133
322.848
319.752
319.992
320.302
320.635
320.973
321.299
321.596
321.844
322.022
322.115
322.115
322.022
321.844
321.596
321.299
320.973
320.635
320.302
319.992
319.752
316.678
316.877
317.138
317.42
317.705
317.981
318.232
318.441
318.592
318.671
318.671
318.592
318.441
318.232
317.981
317.705
317.42
317.138
316.877
316.678
313.623
313.783
313.996
314.226
314.46
314.685
314.89
315.061
315.184
315.249
315.249
315.184
315.061
314.89
314.685
314.46
314.226
313.996
313.783
313.623
310.583
310.706
310.871
311.05
311.232
311.407
311.566
311.699
311.795
311.845
311.845
311.795
311.699
311.566
311.407
311.232
311.05
310.871
310.706
310.583
307.554
307.642
307.759
307.887
308.017
308.142
308.256
308.351
308.419
308.455
308.455
308.419
308.351
308.256
308.142
308.017
307.887
307.759
307.642
307.554
304.534
304.587
304.657
304.734
304.812
304.887
304.955
305.012
305.053
305.075
305.075
305.053
305.012
304.955
304.887
304.812
304.734
304.657
304.587
304.534
301.519
301.537
301.56
301.586
301.612
301.638
301.66
301.679
301.693
301.7
301.7
301.693
301.679
301.66
301.638
301.612
301.586
301.56
301.537
301.519
323.335
323.605
323.945
324.308
324.674
325.026
325.345
325.61
325.8
325.9
325.9
325.8
325.61
325.345
325.026
324.674
324.308
323.945
323.605
323.335
320.171
320.4
320.693
321.007
321.324
321.629
321.905
322.134
322.299
322.385
322.385
322.299
322.134
321.905
321.629
321.324
321.007
320.693
320.4
320.171
317.031
317.221
317.467
317.733
318.001
318.259
318.492
318.686
318.825
318.898
318.898
318.825
318.686
318.492
318.259
318.001
317.733
317.467
317.221
317.031
313.91
314.063
314.264
314.481
314.701
314.911
315.102
315.26
315.374
315.434
315.434
315.374
315.26
315.102
314.911
314.701
314.481
314.264
314.063
313.91
310.806
310.923
311.079
311.248
311.418
311.582
311.731
311.854
311.942
311.988
311.988
311.942
311.854
311.731
311.582
311.418
311.248
311.079
310.923
310.806
307.713
307.796
307.908
308.028
308.15
308.267
308.373
308.461
308.524
308.557
308.557
308.524
308.461
308.373
308.267
308.15
308.028
307.908
307.796
307.713
304.63
304.679
304.746
304.818
304.892
304.962
305.025
305.078
305.116
305.136
305.136
305.116
305.078
305.025
304.962
304.892
304.818
304.746
304.679
304.63
301.551
301.568
301.59
301.615
301.639
301.663
301.684
301.702
301.714
301.721
301.721
301.714
301.702
301.684
301.663
301.639
301.615
301.59
301.568
301.551
323.897
324.152
324.471
324.811
325.152
325.479
325.773
326.017
326.191
326.282
326.282
326.191
326.017
325.773
325.479
325.152
324.811
324.471
324.152
323.897
320.655
320.871
321.147
321.441
321.736
322.019
322.274
322.485
322.636
322.715
322.715
322.636
322.485
322.274
322.019
321.736
321.441
321.147
320.871
320.655
317.439
317.618
317.85
318.098
318.348
318.587
318.803
318.981
319.109
319.175
319.175
319.109
318.981
318.803
318.587
318.348
318.098
317.85
317.618
317.439
314.243
314.387
314.576
314.779
314.984
315.179
315.355
315.501
315.605
315.66
315.66
315.605
315.501
315.355
315.179
314.984
314.779
314.576
314.387
314.243
311.063
311.174
311.321
311.479
311.638
311.79
311.927
312.04
312.121
312.164
312.164
312.121
312.04
311.927
311.79
311.638
311.479
311.321
311.174
311.063
307.897
307.975
308.08
308.193
308.306
308.415
308.513
308.594
308.652
308.682
308.682
308.652
308.594
308.513
308.415
308.306
308.193
308.08
307.975
307.897
304.74
304.787
304.849
304.917
304.985
305.051
305.109
305.158
305.193
305.211
305.211
305.193
305.158
305.109
305.051
304.985
304.917
304.849
304.787
304.74
301.588
301.604
301.625
301.648
301.67
301.692
301.712
301.728
301.74
301.746
301.746
301.74
301.728
301.712
301.692
301.67
301.648
301.625
301.604
301.588
324.535
324.775
325.074
325.39
325.706
326.007
326.277
326.499
326.658
326.741
326.741
326.658
326.499
326.277
326.007
325.706
325.39
325.074
324.775
324.535
321.205
321.408
321.666
321.94
322.213
322.474
322.708
322.9
323.038
323.11
323.11
323.038
322.9
322.708
322.474
322.213
321.94
321.666
321.408
321.205
317.902
318.07
318.287
318.519
318.75
318.971
319.168
319.331
319.447
319.508
319.508
319.447
319.331
319.168
318.971
318.75
318.519
318.287
318.07
317.902
314.62
314.755
314.932
315.122
315.311
315.491
315.653
315.786
315.881
315.931
315.931
315.881
315.786
315.653
315.491
315.311
315.122
314.932
314.755
314.62
311.356
311.46
311.597
311.744
311.892
312.032
312.158
312.261
312.335
312.374
312.374
312.335
312.261
312.158
312.032
311.892
311.744
311.597
311.46
311.356
308.106
308.179
308.277
308.382
308.488
308.588
308.678
308.751
308.804
308.832
308.832
308.804
308.751
308.678
308.588
308.488
308.382
308.277
308.179
308.106
304.865
304.909
304.968
305.031
305.094
305.154
305.208
305.253
305.284
305.301
305.301
305.284
305.253
305.208
305.154
305.094
305.031
304.968
304.909
304.865
301.63
301.645
301.665
301.686
301.707
301.727
301.745
301.76
301.771
301.776
301.776
301.771
301.76
301.745
301.727
301.707
301.686
301.665
301.645
301.63
325.251
325.475
325.753
326.046
326.337
326.613
326.859
327.061
327.205
327.28
327.28
327.205
327.061
326.859
326.613
326.337
326.046
325.753
325.475
325.251
321.822
322.012
322.252
322.506
322.758
322.997
323.21
323.385
323.509
323.574
323.574
323.509
323.385
323.21
322.997
322.758
322.506
322.252
322.012
321.822
318.421
318.579
318.781
318.995
319.209
319.411
319.591
319.739
319.844
319.899
319.899
319.844
319.739
319.591
319.411
319.209
318.995
318.781
318.579
318.421
315.043
315.17
315.335
315.51
315.685
315.85
315.998
316.119
316.205
316.25
316.25
316.205
316.119
315.998
315.85
315.685
315.51
315.335
315.17
315.043
311.684
311.782
311.909
312.046
312.182
312.31
312.425
312.519
312.586
312.621
312.621
312.586
312.519
312.425
312.31
312.182
312.046
311.909
311.782
311.684
308.34
308.409
308.5
308.597
308.694
308.786
308.868
308.935
308.983
309.008
309.008
308.983
308.935
308.868
308.786
308.694
308.597
308.5
308.409
308.34
305.005
305.046
305.101
305.16
305.218
305.273
305.322
305.363
305.391
305.406
305.406
305.391
305.363
305.322
305.273
305.218
305.16
305.101
305.046
305.005
301.677
301.691
301.709
301.729
301.748
301.767
301.783
301.797
301.807
301.812
301.812
301.807
301.797
301.783
301.767
301.748
301.729
301.709
301.691
301.677
326.046
326.255
326.513
326.783
327.05
327.302
327.525
327.708
327.837
327.905
327.905
327.837
327.708
327.525
327.302
327.05
326.783
326.513
326.255
326.046
322.508
322.684
322.907
323.141
323.372
323.59
323.784
323.942
324.054
324.112
324.112
324.054
323.942
323.784
323.59
323.372
323.141
322.907
322.684
322.508
318.998
319.145
319.332
319.53
319.726
319.91
320.074
320.208
320.303
320.352
320.352
320.303
320.208
320.074
319.91
319.726
319.53
319.332
319.145
318.998
315.514
315.632
315.785
315.946
316.107
316.257
316.391
316.501
316.579
316.619
316.619
316.579
316.501
316.391
316.257
316.107
315.946
315.785
315.632
315.514
312.049
312.14
312.258
312.384
312.509
312.626
312.73
312.815
312.876
312.907
312.907
312.876
312.815
312.73
312.626
312.509
312.384
312.258
312.14
312.049
308.6
308.664
308.748
308.838
308.927
309.011
309.086
309.147
309.19
309.212
309.212
309.19
309.147
309.086
309.011
308.927
308.838
308.748
308.664
308.6
305.161
305.2
305.25
305.304
305.358
305.408
305.453
305.489
305.515
305.529
305.529
305.515
305.489
305.453
305.408
305.358
305.304
305.25
305.2
305.161
301.729
301.742
301.759
301.777
301.795
301.812
301.827
301.839
301.848
301.853
301.853
301.848
301.839
301.827
301.812
301.795
301.777
301.759
301.742
301.729
326.922
327.116
327.354
327.602
327.846
328.074
328.276
328.441
328.557
328.617
328.617
328.557
328.441
328.276
328.074
327.846
327.602
327.354
327.116
326.922
323.262
323.426
323.632
323.846
324.058
324.256
324.431
324.573
324.674
324.727
324.727
324.674
324.573
324.431
324.256
324.058
323.846
323.632
323.426
323.262
319.634
319.77
319.943
320.125
320.304
320.471
320.619
320.74
320.825
320.869
320.869
320.825
320.74
320.619
320.471
320.304
320.125
319.943
319.77
319.634
316.032
316.141
316.282
316.431
316.577
316.715
316.836
316.934
317.004
317.04
317.04
317.004
316.934
316.836
316.715
316.577
316.431
316.282
316.141
316.032
312.451
312.535
312.644
312.76
312.874
312.981
313.075
313.152
313.206
313.234
313.234
313.206
313.152
313.075
312.981
312.874
312.76
312.644
312.535
312.451
308.886
308.946
309.024
309.106
309.188
309.264
309.331
309.386
309.425
309.445
309.445
309.425
309.386
309.331
309.264
309.188
309.106
309.024
308.946
308.886
305.333
305.369
305.415
305.465
305.514
305.56
305.6
305.633
305.656
305.669
305.669
305.656
305.633
305.6
305.56
305.514
305.465
305.415
305.369
305.333
301.787
301.799
301.814
301.831
301.847
301.863
301.876
301.887
301.895
301.899
301.899
301.895
301.887
301.876
301.863
301.847
301.831
301.814
301.799
301.787
327.878
328.057
328.276
328.504
328.726
328.933
329.115
329.262
329.367
329.42
329.42
329.367
329.262
329.115
328.933
328.726
328.504
328.276
328.057
327.878
324.086
324.238
324.427
324.624
324.816
324.996
325.154
325.282
325.372
325.419
325.419
325.372
325.282
325.154
324.996
324.816
324.624
324.427
324.238
324.086
320.328
320.454
320.613
320.779
320.942
321.094
321.228
321.336
321.413
321.452
321.452
321.413
321.336
321.228
321.094
320.942
320.779
320.613
320.454
320.328
316.598
316.699
316.829
316.965
317.098
317.222
317.332
317.42
317.483
317.515
317.515
317.483
317.42
317.332
317.222
317.098
316.965
316.829
316.699
316.598
312.89
312.967
313.068
313.174
313.278
313.374
313.459
313.528
313.577
313.602
313.602
313.577
313.528
313.459
313.374
313.278
313.174
313.068
312.967
312.89
309.199
309.254
309.326
309.401
309.476
309.545
309.606
309.655
309.69
309.708
309.708
309.69
309.655
309.606
309.545
309.476
309.401
309.326
309.254
309.199
305.521
305.553
305.597
305.642
305.687
305.728
305.765
305.794
305.815
305.826
305.826
305.815
305.794
305.765
305.728
305.687
305.642
305.597
305.553
305.521
301.85
301.861
301.875
301.89
301.905
301.919
301.932
301.941
301.948
301.952
301.952
301.948
301.941
301.932
301.919
301.905
301.89
301.875
301.861
301.85
328.914
329.08
329.281
329.488
329.69
329.877
330.041
330.173
330.266
330.314
330.314
330.266
330.173
330.041
329.877
329.69
329.488
329.281
329.08
328.914
324.979
325.119
325.292
325.472
325.647
325.809
325.951
326.066
326.147
326.188
326.188
326.147
326.066
325.951
325.809
325.647
325.472
325.292
325.119
324.979
321.08
321.196
321.342
321.494
321.642
321.779
321.9
321.997
322.065
322.1
322.1
322.065
321.997
321.9
321.779
321.642
321.494
321.342
321.196
321.08
317.21
317.303
317.423
317.547
317.668
317.781
317.879
317.958
318.014
318.043
318.043
318.014
317.958
317.879
317.781
317.668
317.547
317.423
317.303
317.21
313.365
313.436
313.529
313.625
313.72
313.807
313.884
313.946
313.989
314.011
314.011
313.989
313.946
313.884
313.807
313.72
313.625
313.529
313.436
313.365
309.538
309.588
309.654
309.723
309.791
309.853
309.908
309.952
309.983
309.999
309.999
309.983
309.952
309.908
309.853
309.791
309.723
309.654
309.588
309.538
305.724
305.754
305.794
305.835
305.876
305.913
305.946
305.973
305.991
306.001
306.001
305.991
305.973
305.946
305.913
305.876
305.835
305.794
305.754
305.724
301.918
301.928
301.941
301.955
301.969
301.981
301.992
302.001
302.007
302.011
302.011
302.007
302.001
301.992
301.981
301.969
301.955
301.941
301.928
301.918
330.027
330.179
330.363
330.552
330.735
330.904
331.051
331.169
331.252
331.295
331.295
331.252
331.169
331.051
330.904
330.735
330.552
330.363
330.179
330.027
325.937
326.066
326.225
326.388
326.547
326.694
326.821
326.924
326.996
327.033
327.033
326.996
326.924
326.821
326.694
326.547
326.388
326.225
326.066
325.937
321.886
321.992
322.126
322.265
322.399
322.523
322.631
322.718
322.779
322.811
322.811
322.779
322.718
322.631
322.523
322.399
322.265
322.126
321.992
321.886
317.866
317.952
318.062
318.175
318.285
318.386
318.475
318.546
318.596
318.622
318.622
318.596
318.546
318.475
318.386
318.285
318.175
318.062
317.952
317.866
313.873
313.939
314.024
314.112
314.198
314.277
314.346
314.401
314.44
314.46
314.46
314.44
314.401
314.346
314.277
314.198
314.112
314.024
313.939
313.873
309.9
309.947
310.007
310.07
310.131
310.188
310.237
310.277
310.304
310.319
310.319
310.304
310.277
310.237
310.188
310.131
310.07
310.007
309.947
309.9
305.941
305.969
306.005
306.043
306.08
306.114
306.143
306.167
306.184
306.192
306.192
306.184
306.167
306.143
306.114
306.08
306.043
306.005
305.969
305.941
301.991
302
302.012
302.025
302.037
302.048
302.058
302.066
302.072
302.075
302.075
302.072
302.066
302.058
302.048
302.037
302.025
302.012
302
301.991
331.204
331.344
331.512
331.685
331.85
332.003
332.135
332.241
332.315
332.353
332.353
332.315
332.241
332.135
332.003
331.85
331.685
331.512
331.344
331.204
326.949
327.067
327.213
327.362
327.506
327.638
327.753
327.845
327.909
327.942
327.942
327.909
327.845
327.753
327.638
327.506
327.362
327.213
327.067
326.949
322.736
322.834
322.957
323.083
323.205
323.317
323.414
323.492
323.546
323.574
323.574
323.546
323.492
323.414
323.317
323.205
323.083
322.957
322.834
322.736
318.558
318.637
318.737
318.84
318.94
319.032
319.111
319.175
319.22
319.243
319.243
319.22
319.175
319.111
319.032
318.94
318.84
318.737
318.637
318.558
314.409
314.469
314.547
314.627
314.705
314.776
314.838
314.888
314.922
314.94
314.94
314.922
314.888
314.838
314.776
314.705
314.627
314.547
314.469
314.409
310.281
310.324
310.379
310.437
310.492
310.543
310.588
310.623
310.648
310.661
310.661
310.648
310.623
310.588
310.543
310.492
310.437
310.379
310.324
310.281
306.169
306.195
306.228
306.263
306.296
306.327
306.353
306.375
306.389
306.397
306.397
306.389
306.375
306.353
306.327
306.296
306.263
306.228
306.195
306.169
302.067
302.076
302.087
302.098
302.109
302.12
302.129
302.136
302.141
302.143
302.143
302.141
302.136
302.129
302.12
302.109
302.098
302.087
302.076
302.067
332.417
332.546
332.7
332.857
333.008
333.146
333.265
333.36
333.426
333.46
333.46
333.426
333.36
333.265
333.146
333.008
332.857
332.7
332.546
332.417
327.987
328.096
328.229
328.366
328.496
328.616
328.719
328.802
328.859
328.889
328.889
328.859
328.802
328.719
328.616
328.496
328.366
328.229
328.096
327.987
323.604
323.695
323.807
323.923
324.033
324.135
324.222
324.292
324.341
324.366
324.366
324.341
324.292
324.222
324.135
324.033
323.923
323.807
323.695
323.604
319.262
319.334
319.426
319.521
319.612
319.695
319.766
319.824
319.864
319.884
319.884
319.864
319.824
319.766
319.695
319.612
319.521
319.426
319.334
319.262
314.952
315.008
315.079
315.152
315.223
315.288
315.344
315.388
315.419
315.435
315.435
315.419
315.388
315.344
315.288
315.223
315.152
315.079
315.008
314.952
310.667
310.706
310.757
310.81
310.86
310.907
310.947
310.978
311.001
311.012
311.012
311.001
310.978
310.947
310.907
310.86
310.81
310.757
310.706
310.667
306.4
306.424
306.454
306.486
306.516
306.544
306.568
306.587
306.601
306.607
306.607
306.601
306.587
306.568
306.544
306.516
306.486
306.454
306.424
306.4
302.144
302.152
302.162
302.173
302.183
302.192
302.2
302.207
302.211
302.214
302.214
302.211
302.207
302.2
302.192
302.183
302.173
302.162
302.152
302.144
333.59
333.708
333.851
333.995
334.133
334.259
334.367
334.453
334.513
334.543
334.543
334.513
334.453
334.367
334.259
334.133
333.995
333.851
333.708
333.59
328.978
329.079
329.202
329.328
329.447
329.556
329.65
329.725
329.777
329.804
329.804
329.777
329.725
329.65
329.556
329.447
329.328
329.202
329.079
328.978
324.425
324.508
324.612
324.719
324.82
324.913
324.993
325.056
325.1
325.123
325.123
325.1
325.056
324.993
324.913
324.82
324.719
324.612
324.508
324.425
319.921
319.988
320.073
320.16
320.243
320.319
320.385
320.437
320.473
320.491
320.491
320.473
320.437
320.385
320.319
320.243
320.16
320.073
319.988
319.921
315.456
315.508
315.574
315.642
315.707
315.766
315.817
315.858
315.886
315.9
315.9
315.886
315.858
315.817
315.766
315.707
315.642
315.574
315.508
315.456
311.023
311.06
311.107
311.156
311.202
311.244
311.281
311.31
311.33
311.341
311.341
311.33
311.31
311.281
311.244
311.202
311.156
311.107
311.06
311.023
306.613
306.634
306.663
306.692
306.72
306.745
306.767
306.785
306.797
306.803
306.803
306.797
306.785
306.767
306.745
306.72
306.692
306.663
306.634
306.613
302.215
302.222
302.232
302.242
302.251
302.26
302.267
302.273
302.277
302.279
302.279
302.277
302.273
302.267
302.26
302.251
302.242
302.232
302.222
302.215
334.516
334.628
334.762
334.897
335.026
335.143
335.244
335.324
335.379
335.407
335.407
335.379
335.324
335.244
335.143
335.026
334.897
334.762
334.628
334.516
329.731
329.826
329.942
330.06
330.173
330.275
330.363
330.432
330.481
330.506
330.506
330.481
330.432
330.363
330.275
330.173
330.06
329.942
329.826
329.731
325.029
325.108
325.206
325.306
325.402
325.489
325.563
325.623
325.664
325.685
325.685
325.664
325.623
325.563
325.489
325.402
325.306
325.206
325.108
325.029
320.393
320.457
320.538
320.62
320.698
320.77
320.831
320.88
320.914
320.931
320.931
320.914
320.88
320.831
320.77
320.698
320.62
320.538
320.457
320.393
315.812
315.861
315.923
315.987
316.049
316.104
316.152
316.19
316.217
316.23
316.23
316.217
316.19
316.152
316.104
316.049
315.987
315.923
315.861
315.812
311.271
311.305
311.35
311.396
311.44
311.48
311.514
311.542
311.561
311.57
311.57
311.561
311.542
311.514
311.48
311.44
311.396
311.35
311.305
311.271
306.759
306.779
306.806
306.834
306.86
306.884
306.905
306.921
306.933
306.939
306.939
306.933
306.921
306.905
306.884
306.86
306.834
306.806
306.779
306.759
302.264
302.271
302.28
302.289
302.298
302.306
302.313
302.318
302.322
302.324
302.324
302.322
302.318
302.313
302.306
302.298
302.289
302.28
302.271
302.264
)
;

boundaryField
{
    hotSide
    {
        type            fixedGradient;
        gradient        nonuniform List<scalar> 
400
(
233.651
234.411
235.935
238.23
241.305
245.173
249.849
255.347
261.684
268.876
276.938
285.885
295.73
306.486
318.163
330.771
344.315
358.804
374.241
390.63
238.048
238.774
240.229
242.424
245.372
249.089
253.594
258.907
265.048
272.039
279.898
288.643
298.291
308.857
320.351
332.785
346.167
360.503
375.798
392.057
242.807
243.491
244.865
246.942
249.739
253.278
257.583
262.681
268.597
275.357
282.985
291.504
300.932
311.287
322.581
334.827
348.033
362.206
377.351
393.472
247.849
248.485
249.764
251.704
254.327
257.662
261.739
266.593
272.255
278.759
286.133
294.403
303.592
313.719
324.8
336.847
349.869
363.873
378.864
394.843
253.033
253.614
254.787
256.573
259.003
262.111
265.938
270.525
275.913
282.141
289.243
297.251
306.19
316.082
326.943
338.787
351.623
365.457
380.293
396.132
258.142
258.665
259.724
261.347
263.571
266.441
270.005
274.315
279.42
285.365
292.192
299.935
308.624
318.283
328.929
340.576
353.232
366.903
381.592
397.299
262.884
263.349
264.295
265.756
267.776
270.411
273.718
277.759
282.59
288.265
294.83
302.324
310.78
320.223
330.67
342.136
354.629
368.153
382.71
398.3
266.909
267.322
268.166
269.481
271.319
273.744
276.824
280.628
285.22
290.659
296.998
304.279
312.536
321.796
332.076
343.391
355.748
369.151
383.6
399.094
269.855
270.227
270.993
272.197
273.897
276.163
279.071
282.696
287.109
292.374
298.546
305.67
313.781
322.907
333.067
344.273
356.532
369.848
384.22
399.645
271.416
271.766
272.489
273.632
275.257
277.438
280.253
283.782
288.099
293.27
299.353
306.393
314.427
323.483
333.579
344.727
356.936
370.206
384.538
399.927
271.416
271.766
272.489
273.632
275.257
277.438
280.253
283.782
288.099
293.27
299.353
306.393
314.427
323.483
333.579
344.727
356.936
370.206
384.538
399.927
269.855
270.227
270.993
272.197
273.897
276.163
279.071
282.696
287.109
292.374
298.546
305.67
313.781
322.907
333.067
344.273
356.532
369.848
384.22
399.645
266.909
267.322
268.166
269.481
271.319
273.744
276.824
280.628
285.22
290.659
296.998
304.279
312.536
321.796
332.076
343.391
355.748
369.151
383.6
399.094
262.884
263.349
264.295
265.756
267.776
270.411
273.718
277.759
282.59
288.265
294.83
302.324
310.78
320.223
330.67
342.136
354.629
368.153
382.71
398.3
258.142
258.665
259.724
261.347
263.571
266.441
270.005
274.315
279.42
285.365
292.192
299.935
308.624
318.283
328.929
340.576
353.232
366.903
381.592
397.299
253.033
253.614
254.787
256.573
259.003
262.111
265.938
270.525
275.913
282.141
289.243
297.251
306.19
316.082
326.943
338.787
351.623
365.457
380.293
396.132
247.849
248.485
249.764
251.704
254.327
257.662
261.739
266.593
272.255
278.759
286.133
294.403
303.592
313.719
324.8
336.847
349.869
363.873
378.864
394.843
242.807
243.491
244.865
246.942
249.739
253.278
257.583
262.681
268.597
275.357
282.985
291.504
300.932
311.287
322.581
334.827
348.033
362.206
377.351
393.472
238.048
238.774
240.229
242.424
245.372
249.089
253.594
258.907
265.048
272.039
279.898
288.643
298.291
308.857
320.351
332.785
346.167
360.503
375.798
392.057
233.651
234.411
235.935
238.23
241.305
245.173
249.849
255.347
261.684
268.876
276.938
285.885
295.73
306.486
318.163
330.771
344.315
358.804
374.241
390.63
)
;
    }
    coldSide
    {
        type            mixed;
        refValue        uniform 300;
        refGradient     uniform 0;
        valueFraction   uniform 0.991591;
        source          uniform 0;
        value           nonuniform List<scalar> 
400
(
300.012
300.012
300.012
300.012
300.012
300.013
300.013
300.013
300.013
300.014
300.014
300.015
300.015
300.016
300.016
300.017
300.017
300.018
300.019
300.019
300.012
300.012
300.012
300.012
300.013
300.013
300.013
300.013
300.013
300.014
300.014
300.015
300.015
300.016
300.016
300.017
300.017
300.018