/*--------------------------------*- C++ -*----------------------------------*\
| =========                 |                                                 |
| \\      /  F ield         | OpenFOAM: The Open Source CFD Toolbox           |
|  \\    /   O peration     | Version:  2212                                  |
|   \\  /    A nd           | Website:  www.openfoam.com                      |
|    \\/     M anipulation  |                                                 |
\*---------------------------------------------------------------------------*/
FoamFile
{
    version     2.0;
    format      ascii;
    arch        "LSB;label=32;scalar=64";
    class       volScalarField;
    location    "0";
    object      T;
}
// * * * * * * * * * * * * * * * * * * * * * * * * * * * * * * * * * * * * * //

dimensions      [0 0 0 1 0 0 0];

internalField   nonuniform List<scalar> 
3200
(
347.142
348.356
349.453
350.519
351.506
352.402
352.642
352.782
353.357
353.041
353.336
353.107
352.785
352.301
351.487
350.439
349.528
348.587
347.434
346.565
341.023
342.07
343.039
343.933
344.845
345.604
345.774
345.845
346.397
346.102
346.415
346.176
345.927
345.5
344.785
343.865
343.041
342.261
341.232
340.581
334.857
335.715
336.54
337.31
338.106
338.727
338.852
338.849
339.348
339.106
339.402
339.22
338.986
338.617
338.024
337.225
336.483
335.893
334.997
334.477
328.641
329.233
330.002
330.586
331.305
331.801
331.863
331.801
332.211
332.088
332.272
332.175
331.986
331.687
331.209
330.546
329.929
329.459
328.707
328.306
322.33
322.741
323.338
323.865
324.438
324.788
324.833
324.728
325.03
325.019
325.093
325.049
324.94
324.689
324.328
323.785
323.32
322.945
322.356
322.091
315.99
316.276
316.638
317.088
317.517
317.745
317.742
317.67
317.919
317.877
317.957
317.894
317.793
317.662
317.385
316.97
316.706
316.444
316.001
315.803
309.625
309.808
309.98
310.269
310.543
310.652
310.678
310.628
310.773
310.703
310.812
310.727
310.688
310.601
310.422
310.201
310.023
309.895
309.624
309.492
303.228
303.289
303.362
303.442
303.533
303.577
303.601
303.574
303.608
303.584
303.612
303.603
303.587
303.553
303.512
303.402
303.353
303.309
303.227
303.181
348.071
349.399
350.459
351.503
352.276
353.027
353.641
353.873
354.397
354.317
354.393
354.273
353.823
353.19
352.6
351.433
350.509
349.694
348.147
347.338
341.777
342.98
343.86
344.735
345.412
346.044
346.582
346.79
347.313
347.179
347.23
347.144
346.765
346.231
345.713
344.682
343.88
343.17
341.876
341.166
335.406
336.48
337.157
337.948
338.526
339.04
339.519
339.663
340.15
340.016
340.05
339.986
339.639
339.226
338.761
337.932
337.234
336.572
335.534
334.923
328.994
329.888
330.414
331.122
331.588
331.99
332.406
332.457
332.9
332.774
332.838
332.765
332.476
332.189
331.778
331.098
330.499
329.962
329.171
328.64
322.604
323.281
323.664
324.277
324.612
324.936
325.231
325.249
325.601
325.51
325.582
325.504
325.267
325.095
324.808
324.263
323.763
323.336
322.745
322.342
316.167
316.653
316.926
317.356
317.637
317.829
318.033
318.058
318.277
318.256
318.276
318.262
318.044
317.946
317.743
317.379
316.979
316.705
316.287
316.013
309.692
309.998
310.172
310.425
310.618
310.69
310.804
310.849
310.957
310.982
310.972
310.99
310.838
310.789
310.685
310.468
310.181
310.073
309.752
309.66
303.225
303.348
303.411
303.488
303.539
303.6
303.626
303.638
303.672
303.674
303.689
303.696
303.631
303.606
303.602
303.516
303.423
303.385
303.266
303.257
349.229
350.52
351.515
352.589
353.516
354.351
354.851
355.167
355.559
355.748
355.702
355.518
355.219
354.663
353.797
352.646
351.868
350.82
349.593
348.578
342.784
343.919
344.753
345.663
346.473
347.182
347.631
347.865
348.27
348.373
348.385
348.242
347.924
347.439
346.654
345.712
345.006
344.186
343.081
342.281
336.316
337.228
337.888
338.697
339.382
339.954
340.36
340.511
340.937
341.001
340.997
340.932
340.561
340.181
339.516
338.756
338.12
337.477
336.531
335.917
329.746
330.496
331.066
331.657
332.224
332.684
333.084
333.145
333.585
333.614
333.585
333.559
333.187
332.908
332.378
331.724
331.25
330.704
329.944
329.493
323.143
323.776
324.184
324.621
325.055
325.415
325.749
325.814
326.107
326.172
326.153
326.156
325.862
325.633
325.245
324.697
324.335
323.873
323.369
322.963
316.509
317.019
317.299
317.619
317.875
318.142
318.378
318.502
318.644
318.705
318.623
318.721
318.506
318.314
318.037
317.667
317.355
317.045
316.739
316.423
309.881
310.245
310.389
310.618
310.711
310.889
311.012
311.152
311.167
311.232
311.165
311.249
311.131
311.01
310.836
310.626
310.402
310.241
310.099
309.881
303.29
303.432
303.486
303.576
303.579
303.656
303.674
303.731
303.735
303.75
303.749
303.754
303.712
303.684
303.637
303.575
303.474
303.444
303.409
303.329
350.744
351.619
352.95
353.84
354.796
355.546
356.132
356.662
357.027
357.22
357.272
357.14
356.519
355.86
355.184
354.403
353.253
351.999
350.765
349.858
344.067
344.818
345.986
346.727
347.575
348.244
348.727
349.193
349.504
349.671
349.738
349.635
349.086
348.497
347.895
347.269
346.202
345.181
344.11
343.35
337.308
337.961
338.954
339.605
340.296
340.902
341.279
341.677
341.946
342.061
342.154
342.128
341.59
341.078
340.59
340.048
339.141
338.349
337.397
336.798
330.528
331.075
331.905
332.432
332.983
333.532
333.805
334.134
334.343
334.481
334.535
334.581
334.079
333.609
333.239
332.774
332.071
331.408
330.687
330.207
323.736
324.192
324.819
325.242
325.661
326.11
326.329
326.577
326.735
326.846
326.882
326.965
326.564
326.123
325.9
325.482
324.933
324.468
323.921
323.571
316.985
317.285
317.767
318.072
318.29
318.642
318.816
319.035
319.117
319.204
319.208
319.299
318.99
318.686
318.566
318.206
317.782
317.486
317.151
316.904
310.21
310.36
310.653
310.873
310.981
311.18
311.331
311.438
311.447
311.55
311.55
311.605
311.411
311.185
311.179
310.942
310.662
310.485
310.301
310.17
303.41
303.476
303.557
303.645
303.67
303.743
303.813
303.819
303.838
303.871
303.851
303.893
303.829
303.752
303.754
303.665
303.572
303.506
303.468
303.402
351.962
352.944
354.096
355.333
356.175
356.797
357.65
358.106
358.356
358.442
358.38
358.468
357.701
357.2
356.537
355.731
354.528
353.244
352.024
351.025
345.156
345.933
346.945
347.977
348.745
349.277
349.998
350.411
350.63
350.714
350.708
350.78
350.047
349.596
349.108
348.388
347.371
346.235
345.142
344.403
338.259
338.845
339.752
340.666
341.301
341.702
342.349
342.741
342.902
342.965
342.977
343.044
342.394
342.024
341.69
340.985
340.152
339.187
338.274
337.671
331.335
331.8
332.558
333.273
333.821
334.154
334.672
334.998
335.121
335.233
335.238
335.273
334.709
334.476
334.185
333.539
332.894
332.173
331.361
330.893
324.414
324.743
325.309
325.882
326.302
326.634
326.967
327.227
327.358
327.431
327.504
327.497
326.965
326.848
326.613
326.056
325.633
325.12
324.378
324.069
317.439
317.706
318.047
318.472
318.774
319.056
319.277
319.458
319.566
319.631
319.696
319.697
319.236
319.225
319.005
318.618
318.322
318.003
317.423
317.194
310.481
310.64
310.827
311.046
311.26
311.483
311.57
311.644
311.745
311.805
311.83
311.849
311.552
311.58
311.396
311.196
310.997
310.836
310.457
310.291
303.52
303.576
303.62
303.679
303.766
303.857
303.891
303.914
303.938
303.959
303.962
303.956
303.874
303.893
303.82
303.757
303.683
303.654
303.485
303.456
353.043
354.083
355.32
356.587
357.377
358.301
358.939
359.354
359.696
359.727
359.848
359.529
358.968
358.567
358.095
356.954
355.72
354.523
353.222
352.352
346.007
346.932
348.01
349.126
349.783
350.559
351.147
351.505
351.797
351.838
351.926
351.65
351.143
350.8
350.425
349.437
348.394
347.319
346.185
345.439
338.976
339.69
340.63
341.646
342.125
342.785
343.313
343.613
343.892
343.916
343.955
343.723
343.285
342.999
342.718
341.819
341.027
340.072
339.117
338.463
331.897
332.453
333.271
334.143
334.524
335.013
335.438
335.714
335.961
335.972
335.967
335.83
335.445
335.24
334.951
334.203
333.624
332.832
332.03
331.523
324.807
325.215
325.857
326.56
326.924
327.264
327.574
327.786
327.991
328.02
327.994
327.914
327.606
327.449
327.155
326.591
326.162
325.601
324.908
324.569
317.703
318.004
318.471
318.961
319.288
319.502
319.668
319.833
320.003
319.996
320.001
319.936
319.731
319.674
319.399
318.981
318.715
318.315
317.837
317.562
310.624
310.771
311.083
311.365
311.601
311.691
311.806
311.891
312.028
311.969
312.006
311.962
311.853
311.843
311.649
311.401
311.249
311.05
310.728
310.513
303.565
303.614
303.705
303.798
303.9
303.925
303.942
303.974
304.048
304.012
304.017
304.013
303.961
303.981
303.902
303.821
303.755
303.709
303.59
303.527
354.058
355.269
356.693
357.749
358.811
359.458
360.247
360.846
361.193
361.133
361.15
360.867
360.506
359.558
359.147
358.038
356.962
355.497
354.223
353.422
346.922
347.899
349.187
350.121
351.056
351.608
352.294
352.781
353.065
353.107
353.054
352.853
352.52
351.689
351.367
350.336
349.42
348.168
347.03
346.452
339.716
340.499
341.613
342.492
343.219
343.701
344.314
344.705
344.949
344.978
344.97
344.798
344.461
343.772
343.503
342.613
341.863
340.822
339.882
339.429
332.503
333.114
334.033
334.86
335.356
335.771
336.271
336.576
336.812
336.844
336.85
336.693
336.376
335.865
335.646
334.866
334.241
333.448
332.675
332.372
325.338
325.764
326.449
327.174
327.525
327.821
328.231
328.483
328.67
328.703
328.668
328.566
328.323
327.955
327.756
327.132
326.609
326.036
325.482
325.212
318.132
318.403
318.882
319.451
319.687
319.863
320.213
320.373
320.502
320.498
320.504
320.434
320.234
320.021
319.869
319.419
319.018
318.611
318.26
318.039
310.879
311.056
311.339
311.712
311.801
311.917
312.158
312.234
312.313
312.312
312.309
312.273
312.153
312.048
311.967
311.687
311.39
311.148
310.958
310.837
303.635
303.687
303.81
303.943
303.948
303.993
304.084
304.095
304.118
304.123
304.134
304.111
304.083
304.035
304.015
303.928
303.806
303.733
303.681
303.632
355.02
356.32
357.574
358.894
359.786
360.637
361.419
361.992
362.314
362.437
362.446
362.067
361.599
360.91
360.134
359.272
357.992
356.77
355.348
354.35
347.792
348.848
349.938
351.065
351.862
352.59
353.28
353.785
354.081
354.189
354.223
353.85
353.479
352.866
352.167
351.385
350.333
349.267
348.049
347.217
340.494
341.369
342.273
343.253
343.934
344.52
345.154
345.544
345.823
345.822
345.959
345.585
345.305
344.774
344.18
343.491
342.648
341.721
340.705
340.058
333.206
333.864
334.578
335.453
335.983
336.442
337.006
337.317
337.529
337.47
337.6
337.328
337.064
336.66
336.158
335.603
334.91
334.15
333.343
332.866
325.87
326.311
326.928
327.632
328.023
328.346
328.807
329.054
329.174
329.124
329.288
329.077
328.796
328.507
328.117
327.709
327.178
326.596
325.968
325.583
318.468
318.772
319.274
319.763
320.04
320.247
320.612
320.758
320.825
320.788
320.99
320.784
320.535
320.377
320.079
319.802
319.421
319.021
318.552
318.279
311.078
311.265
311.583
311.866
312.034
312.138
312.388
312.483
312.484
312.488
312.608
312.478
312.322
312.224
312.034
311.878
311.685
311.439
311.14
310.976
303.705
303.767
303.887
303.981
304.01
304.055
304.168
304.181
304.166
304.172
304.225
304.174
304.138
304.094
304.04
303.983
303.901
303.831
303.742
303.678
356.017
357.476
358.595
360.063
360.875
361.649
362.619
363.122
363.619
363.63
363.438
363.217
362.782
362.069
361.104
360.219
359.108
357.805
356.367
355.158
348.615
349.864
350.829
352.137
352.769
353.464
354.315
354.785
355.22
355.202
355.069
354.86
354.507
353.821
353.02
352.218
351.288
350.146
348.932
347.879
341.183
342.251
343.018
344.136
344.683
345.264
346.003
346.423
346.749
346.692
346.642
346.498
346.204
345.536
344.935
344.171
343.458
342.465
341.465
340.573
333.693
334.563
335.196
336.15
336.575
337.067
337.707
337.994
338.258
338.191
338.204
338.094
337.897
337.248
336.775
336.135
335.576
334.792
334.016
333.263
326.241
326.877
327.369
328.209
328.428
328.854
329.368
329.56
329.769
329.682
329.721
329.663
329.516
328.979
328.594
328.098
327.635
327.065
326.509
325.89
318.758
319.196
319.562
320.235
320.313
320.609
321.023
321.134
321.315
321.232
321.231
321.171
321.078
320.69
320.39
320.068
319.716
319.347
318.941
318.496
311.283
311.51
311.76
312.206
312.175
312.377
312.66
312.709
312.798
312.757
312.757
312.722
312.621
312.448
312.246
312.075
311.813
311.649
311.379
311.108
303.782
303.857
303.929
304.117
304.077
304.149
304.222
304.267
304.29
304.265
304.279
304.25
304.244
304.162
304.094
304.049
303.968
303.889
303.819
303.714
357.258
358.364
359.598
361.145
362.001
362.844
363.742
364.408
364.652
364.776
364.702
364.393
363.788
363.097
362.391
361.233
360.169
358.774
357.254
355.785
349.708
350.608
351.687
353.049
353.732
354.49
355.317
355.883
356.08
356.229
356.156
355.836
355.345
354.742
354.153
353.155
352.217
351.03
349.669
348.417
342.123
342.848
343.762
344.958
345.463
346.108
346.802
347.312
347.468
347.681
347.587
347.25
346.869
346.352
345.878
345.009
344.211
343.237
342.048
341.023
334.522
335.051
335.832
336.799
337.251
337.735
338.317
338.698
338.842
339.075
338.953
338.695
338.341
337.965
337.596
336.825
336.146
335.408
334.45
333.606
326.915
327.231
327.897
328.61
328.955
329.364
329.839
330.085
330.24
330.414
330.323
330.149
329.83
329.558
329.272
328.672
328.089
327.549
326.833
326.145
319.23
319.436
319.945
320.459
320.659
320.992
321.341
321.494
321.617
321.732
321.678
321.609
321.307
321.131
320.947
320.493
320.036
319.687
319.198
318.671
311.553
311.624
311.967
312.248
312.396
312.609
312.85
312.889
312.974
313.063
313.069
313.017
312.808
312.7
312.582
312.333
312.011
311.821
311.546
311.231
303.875
303.899
304.027
304.115
304.143
304.215
304.31
304.321
304.346
304.379
304.373
304.343
304.311
304.265
304.226
304.133
304.033
303.96
303.846
303.778
358
359.06
360.601
361.888
363.032
363.969
364.529
365.309
365.609
365.673
365.673
365.187
364.562
364.15
363.278
362.158
361.046
359.621
358.125
356.67
350.36
351.232
352.57
353.719
354.699
355.544
355.945
356.67
356.953
356.927
356.987
356.515
356.008
355.613
354.926
353.921
352.97
351.719
350.464
349.234
342.664
343.374
344.545
345.486
346.317
347.026
347.374
348.026
348.296
348.214
348.227
347.849
347.448
347.082
346.518
345.693
344.861
343.802
342.763
341.73
334.944
335.511
336.505
337.194
337.905
338.497
338.78
339.38
339.57
339.495
339.462
339.176
338.865
338.516
338.097
337.436
336.751
335.857
335.026
334.159
327.237
327.612
328.401
328.943
329.501
329.981
330.194
330.696
330.832
330.738
330.729
330.448
330.263
329.966
329.707
329.139
328.608
327.912
327.289
326.584
319.521
319.73
320.265
320.651
321.082
321.413
321.595
321.962
322.07
321.966
321.985
321.774
321.656
321.386
321.26
320.854
320.463
319.986
319.505
318.954
311.728
311.822
312.149
312.375
312.655
312.828
312.992
313.208
313.263
313.198
313.215
313.059
313.039
312.815
312.795
312.545
312.31
312.019
311.76
311.395
303.93
303.943
304.065
304.131
304.245
304.29
304.364
304.428
304.439
304.43
304.434
304.397
304.371
304.289
304.287
304.231
304.124
304.026
303.948
303.828
358.775
359.99
361.317
362.63
363.749
364.6
365.301
366.021
366.342
366.458
366.438
366.253
365.487
364.886
364.28
363.152
361.928
360.375
358.93
357.449
351.082
352.047
353.217
354.305
355.317
356.027
356.632
357.291
357.569
357.649
357.657
357.518
356.819
356.314
355.812
354.811
353.756
352.37
351.151
349.87
343.277
344.085
345.032
345.952
346.833
347.45
347.923
348.521
348.789
348.79
348.839
348.7
348.097
347.756
347.257
346.448
345.579
344.369
343.316
342.237
335.45
336.089
336.888
337.61
338.334
338.873
339.19
339.767
339.983
339.974
339.978
339.878
339.372
339.087
338.665
338.051
337.382
336.34
335.429
334.648
327.579
328.102
328.676
329.263
329.872
330.265
330.501
330.976
331.15
331.135
331.111
331.032
330.614
330.396
330.101
329.578
329.106
328.308
327.56
326.991
319.737
320.095
320.437
320.908
321.346
321.632
321.768
322.124
322.299
322.251
322.281
322.199
321.874
321.747
321.492
321.101
320.79
320.272
319.723
319.306
311.877
312.065
312.255
312.589
312.864
312.993
313.092
313.283
313.393
313.399
313.418
313.328
313.149
313.079
312.921
312.648
312.499
312.178
311.864
311.595
303.98
304.053
304.11
304.216
304.328
304.348
304.388
304.458
304.484
304.491
304.492
304.451
304.407
304.385
304.332
304.246
304.193
304.074
303.975
303.894
359.593
360.739
362.056
363.336
364.317
365.486
366.031
366.712
366.963
366.971
367.139
367.067
366.269
365.711
364.851
363.969
362.562
361.01
359.675
357.996
351.749
352.7
353.83
354.908
355.809
356.813
357.234
357.867
358.075
358.059
358.257
358.218
357.481
357.081
356.273
355.535
354.311
352.931
351.794
350.312
343.857
344.615
345.591
346.519
347.264
348.156
348.463
348.993
349.173
349.174
349.34
349.344
348.679
348.368
347.674
347.023
346.069
344.835
343.866
342.653
335.962
336.558
337.349
338.068
338.653
339.445
339.648
340.104
340.246
340.255
340.425
340.418
339.868
339.564
339.057
338.531
337.779
336.721
335.948
334.984
327.987
328.467
329.072
329.627
330.051
330.703
330.843
331.194
331.316
331.295
331.468
331.44
331.043
330.81
330.414
330.012
329.432
328.584
327.985
327.258
320.016
320.373
320.762
321.148
321.523
321.971
322.046
322.34
322.37
322.375
322.491
322.423
322.177
322.037
321.752
321.51
321.028
320.452
319.975
319.498
312.02
312.246
312.441
312.692
312.965
313.22
313.244
313.465
313.458
313.461
313.533
313.433
313.264
313.249
313.09
312.932
312.64
312.311
312.008
311.723
304.042
304.096
304.168
304.255
304.364
304.422
304.451
304.501
304.507
304.507
304.545
304.49
304.437
304.432
304.387
304.325
304.248
304.146
304.021
303.933
360.002
361.266
362.453
363.934
365.029
366.182
366.828
367.188
367.579
367.594
367.893
367.774
367.121
366.421
365.547
364.48
363.069
361.542
360.198
358.642
352.073
353.16
354.165
355.459
356.414
357.393
358.007
358.238
358.57
358.625
358.919
358.803
358.203
357.634
356.873
355.92
354.726
353.393
352.238
350.938
344.111
344.992
345.878
346.921
347.747
348.55
349.107
349.291
349.565
349.606
349.848
349.772
349.278
348.77
348.184
347.321
346.362
345.22
344.237
343.205
336.137
336.783
337.543
338.371
339.047
339.699
340.202
340.36
340.548
340.583
340.801
340.717
340.346
339.912
339.51
338.762
337.944
337.038
336.245
335.452
328.15
328.637
329.209
329.824
330.339
330.865
331.251
331.419
331.505
331.565
331.757
331.68
331.393
331.034
330.781
330.182
329.5
328.82
328.213
327.636
320.142
320.477
320.859
321.3
321.664
322.057
322.352
322.483
322.519
322.558
322.685
322.638
322.399
322.172
322.002
321.569
321.107
320.6
320.161
319.783
312.098
312.332
312.484
312.784
313.005
313.235
313.47
313.534
313.534
313.534
313.643
313.584
313.454
313.328
313.221
312.965
312.682
312.388
312.11
311.912
304.041
304.151
304.169
304.306
304.364
304.434
304.515
304.547
304.527
304.554
304.571
304.569
304.509
304.451
304.442
304.358
304.246
304.135
304.088
304.002
360.378
361.637
363.125
364.302
365.477
366.682
367.273
367.67
368.114
368.205
368.383
368.141
367.567
366.74
365.976
364.83
363.64
362.054
360.489
359.222
352.392
353.476
354.782
355.741
356.79
357.87
358.358
358.697
359.038
359.128
359.343
359.15
358.633
357.915
357.278
356.239
355.242
353.865
352.519
351.426
344.349
345.226
346.406
347.134
348.088
348.994
349.412
349.691
349.961
350.062
350.267
350.104
349.634
349.037
348.494
347.609
346.763
345.619
344.507
343.561
336.344
337.066
338.005
338.529
339.349
340.1
340.411
340.676
340.831
340.969
341.145
341.024
340.646
340.136
339.67
338.973
338.235
337.371
336.476
335.699
328.284
328.884
329.594
329.946
330.58
331.204
331.415
331.628
331.754
331.862
331.994
331.943
331.657
331.246
330.863
330.309
329.728
329.1
328.417
327.82
320.206
320.672
321.189
321.386
321.825
322.31
322.442
322.579
322.671
322.771
322.864
322.85
322.641
322.332
322.098
321.63
321.209
320.809
320.325
319.905
312.155
312.427
312.775
312.842
313.079
313.388
313.491
313.562
313.604
313.663
313.762
313.738
313.579
313.41
313.251
312.976
312.723
312.475
312.245
311.978
304.068
304.166
304.275
304.309
304.39
304.499
304.536
304.544
304.557
304.58
304.6
304.597
304.542
304.48
304.446
304.335
304.266
304.169
304.1
304.024
360.654
361.95
363.297
364.722
365.817
366.847
367.589
368.177
368.529
368.504
368.858
368.298
367.791
367.213
366.226
365.104
363.947
362.499
360.89
359.839
352.67
353.708
354.908
356.11
357.076
357.953
358.631
359.154
359.434
359.434
359.759
359.258
358.738
358.306
357.43
356.442
355.461
354.206
352.849
351.909
344.618
345.448
346.457
347.497
348.319
349.111
349.621
350.103
350.31
350.318
350.639
350.188
349.696
349.375
348.597
347.752
346.931
345.879
344.718
343.933
336.525
337.167
337.998
338.841
339.533
340.227
340.592
340.998
341.154
341.214
341.499
341.103
340.667
340.401
339.718
339.077
338.417
337.53
336.564
335.952
328.442
328.943
329.546
330.231
330.748
331.324
331.577
331.856
331.986
332.085
332.329
332.047
331.652
331.4
330.87
330.424
329.884
329.196
328.421
327.932
320.355
320.714
321.113
321.632
321.962
322.398
322.568
322.728
322.825
322.962
323.154
322.92
322.623
322.385
322.047
321.76
321.337
320.844
320.326
319.973
312.241
312.443
312.673
313.005
313.19
313.473
313.58
313.649
313.715
313.809
313.933
313.777
313.583
313.416
313.244
313.088
312.832
312.501
312.207
311.991
304.116
304.173
304.228
304.329
304.436
304.523
304.544
304.563
304.6
304.651
304.676
304.634
304.551
304.501
304.424
304.376
304.309
304.185
304.1
304.01
360.999
362.114
363.749
365.091
366.282
367.206
367.957
368.414
368.92
368.984
368.948
368.548
368.15
367.51
366.593
365.382
364.107
362.805
361.167
359.918
352.926
353.85
355.287
356.435
357.534
358.318
358.975
359.32
359.79
359.81
359.818
359.452
359.078
358.563
357.804
356.68
355.587
354.449
353.033
352.028
344.82
345.566
346.788
347.762
348.689
349.402
349.971
350.23
350.648
350.625
350.667
350.32
350.023
349.573
348.927
347.966
347.045
346.047
344.919
344.109
336.698
337.314
338.274
339.124
339.845
340.482
340.918
341.084
341.452
341.47
341.504
341.208
340.925
340.549
340.028
339.265
338.483
337.664
336.788
336.229
328.521
329.039
329.753
330.472
330.995
331.509
331.853
331.878
332.213
332.264
332.298
332.106
331.853
331.524
331.147
330.566
329.926
329.28
328.595
328.223
320.381
320.758
321.25
321.8
322.171
322.535
322.768
322.78
323.027
323.018
323.093
322.98
322.772
322.489
322.242
321.838
321.388
320.935
320.418
320.153
312.223
312.473
312.76
313.106
313.297
313.555
313.673
313.688
313.837
313.816
313.868
313.825
313.697
313.489
313.334
313.087
312.862
312.574
312.268
312.12
304.1
304.157
304.285
304.408
304.463
304.564
304.601
304.592
304.635
304.636
304.662
304.639
304.59
304.517
304.456
304.382
304.305
304.205
304.119
304.065
361.129
362.294
363.967
365.28
366.43
367.427
368.333
368.734
369.044
369.188
369.141
368.662
368.272
367.618
366.461
365.379
364.058
362.805
361.282
360.03
353.056
354.019
355.434
356.591
357.614
358.492
359.259
359.614
359.888
360.031
360.021
359.528
359.191
358.652
357.701
356.689
355.581
354.435
353.172
352.124
344.975
345.741
346.932
347.893
348.767
349.533
350.176
350.441
350.693
350.853
350.86
350.39
350.08
349.624
348.937
347.972
347.092
346.085
345.051
344.202
336.854
337.43
338.408
339.146
339.932
340.612
341.122
341.232
341.478
341.688
341.633
341.268
340.997
340.565
340.121
339.279
338.494
337.752
336.892
336.245
328.685
329.109
329.866
330.418
331.072
331.605
332.03
332.052
332.265
332.483
332.389
332.095
331.907
331.535
331.296
330.577
329.923
329.351
328.676
328.232
320.498
320.785
321.386
321.77
322.222
322.624
322.924
322.926
323.068
323.268
323.125
322.975
322.794
322.513
322.347
321.894
321.383
321.008
320.475
320.189
312.322
312.489
312.854
313.08
313.364
313.611
313.81
313.77
313.805
313.974
313.908
313.823
313.703
313.49
313.427
313.145
312.791
312.604
312.327
312.132
304.138
304.177
304.306
304.379
304.48
304.58
304.647
304.617
304.619
304.691
304.661
304.632
304.607
304.513
304.495
304.405
304.279
304.218
304.136
304.058
361.266
362.486
364.086
365.266
366.589
367.32
368.271
368.76
369.25
369.149
369.207
368.836
368.329
367.594
366.708
365.395
364.276
362.839
361.475
360.287
353.205
354.197
355.587
356.584
357.733
358.389
359.194
359.633
360.055
359.946
360.019
359.665
359.294
358.632
357.882
356.723
355.729
354.519
353.365
352.371
345.069
345.88
347.073
347.902
348.903
349.454
350.118
350.47
350.831
350.76
350.786
350.483
350.186
349.663
349.027
348.013
347.15
346.194
345.222
344.381
336.894
337.585
338.504
339.162
340.066
340.46
341.017
341.278
341.585
341.534
341.544
341.284
341.106
340.685
340.17
339.306
338.556
337.818
337.008
336.32
328.723
329.239
329.96
330.468
331.201
331.445
331.929
332.089
332.283
332.28
332.342
332.119
331.977
331.637
331.292
330.611
329.994
329.454
328.795
328.262
320.541
320.912
321.424
321.759
322.339
322.44
322.863
322.963
323.044
323.055
323.147
322.98
322.83
322.582
322.371
321.885
321.451
321.095
320.568
320.21
312.343
312.584
312.893
313.071
313.431
313.515
313.73
313.801
313.84
313.853
313.926
313.821
313.691
313.563
313.417
313.154
312.893
312.682
312.348
312.17
304.127
304.232
304.323
304.387
304.511
304.552
304.606
304.604
304.654
304.658
304.666
304.634
304.571
304.563
304.528
304.409
304.322
304.251
304.15
304.082
361.374
362.584
363.862
365.323
366.697
367.501
368.437
368.809
369.199
369.281
369.544
368.683
368.267
367.574
366.811
365.589
364.254
362.968
361.408
360.131
353.317
354.309
355.433
356.645
357.864
358.583
359.338
359.672
360.043
360.086
360.349
359.548
359.208
358.585
357.96
356.886
355.743
354.607
353.291
352.186
345.175
346.014
346.95
347.95
349.013
349.67
350.245
350.513
350.839
350.882
351.113
350.404
350.101
349.613
349.085
348.171
347.213
346.178
345.156
344.219
337.008
337.718
338.437
339.266
340.134
340.727
341.172
341.34
341.608
341.676
341.853
341.236
340.988
340.615
340.193
339.402
338.592
337.798
337.027
336.225
328.828
329.37
329.921
330.536
331.287
331.689
332.086
332.175
332.379
332.462
332.561
332.093
331.868
331.561
331.301
330.63
329.974
329.422
328.837
328.212
320.629
320.994
321.366
321.796
322.381
322.665
322.94
322.988
323.178
323.208
323.25
322.93
322.757
322.557
322.388
321.909
321.389
321.065
320.636
320.154
312.388
312.668
312.866
313.133
313.452
313.617
313.752
313.786
313.904
313.948
313.936
313.788
313.663
313.566
313.428
313.152
312.844
312.662
312.396
312.108
304.148
304.259
304.29
304.412
304.506
304.549
304.604
304.634
304.672
304.676
304.664
304.618
304.568
304.554
304.488
304.394
304.298
304.223
304.152
304.064
)
;

boundaryField
{
    hotSide
    {
        type            fixedGradient;
        gradient        nonuniform List<scalar> 
400
(
482.74
497.928
512.692
526.968
540.689
553.791
566.211
577.89
588.768
598.792
607.911
616.076
623.246
629.382
634.451
638.427
641.286
643.014
643.601
643.042
495.841
511.46
526.645
541.329
555.444
568.924
581.705
593.724
604.922
615.243
624.633
633.045
640.434
646.761
651.993
656.1
659.06
660.858
661.482
660.928
507.609
523.615
539.179
554.231
568.701
582.522
595.627
607.953
619.44
630.028
639.664
648.299
655.886
662.387
667.765
671.992
675.044
676.905
677.564
677.017
517.964
534.313
550.211
565.586
580.37
594.491
607.883
620.481
632.222
643.047
652.901
661.732
669.495
676.149
681.657
685.991
689.126
691.044
691.735
691.195
526.841
543.484
559.668
575.322
590.375
604.754
618.393
631.224
643.184
654.212
664.253
673.255
681.169
687.956
693.577
698.002
701.208
703.177
703.896
703.362
534.186
551.072
567.494
583.379
598.654
613.247
627.09
640.114
652.256
663.453
673.65
682.792
690.833
697.729
703.444
707.947
711.212
713.223
713.967
713.439
539.957
557.033
573.641
589.707
605.157
619.919
633.922
647.099
659.383
670.713
681.032
690.286
698.426
705.409
711.198
715.762
719.075
721.119
721.882
721.36
544.122
561.335
578.077
594.273
609.85
624.733
638.851
652.137
664.525
675.951
686.358
695.692
703.903
710.95
716.793
721.4
724.748
726.817
727.595
727.077
546.661
563.957
580.78
597.055
612.707
627.663
641.852
655.204
667.654
679.138
689.599
698.982
707.237
714.322
720.198
724.833
728.202
730.286
731.073
730.558
547.565
564.889
581.739
598.041
613.719
628.7
642.913
656.287
668.759
680.263
690.742
700.142
708.412
715.51
721.398
726.043
729.42
731.51
732.301
731.788
546.834
564.131
580.956
597.232
612.885
627.843
642.033
655.387
667.838
679.325
689.787
699.172
707.429
714.516
720.394
725.031
728.402
730.488
731.277
730.764
544.48
561.696
578.441
594.64
610.219
625.105
639.227
652.516
664.907
676.337
686.748
696.086
704.302
711.352
717.199
721.811
725.163
727.236
728.018
727.503
540.523
557.603
574.216
590.287
605.742
620.509
634.518
647.7
659.99
671.327
681.652
690.911
699.058
706.047
711.843
716.413
719.732
721.782
722.551
722.034
534.992
551.885
568.314
584.207
599.49
614.092
627.943
640.976
653.126
664.333
674.538
683.689
691.739
698.644
704.367
708.878
712.152
714.17
714.921
714.4
527.926
544.58
560.777
576.443
591.507
605.899
619.55
632.393
644.365
655.406
665.459
674.472
682.399
689.196
694.828
699.264
702.48
704.458
705.185
704.659
519.375
535.741
551.656
567.049
581.85
595.988
609.398
622.012
633.77
644.611
654.48
663.327
671.105
677.773
683.295
687.641
690.787
692.716
693.416
692.883
509.395
525.426
541.015
556.09
570.584
584.428
597.557
609.905
621.413
632.023
641.679
650.333
657.939
664.457
669.851
674.092
677.158
679.03
679.699
679.159
498.054
513.706
528.924
543.64
557.787
571.298
584.108
596.156
607.382
617.73
627.146
635.581
642.993
649.34
654.59
658.714
661.689
663.498
664.132
663.585
485.427
500.659
515.467
529.784
543.546
556.687
569.146
580.861
591.774
601.832
610.981
619.175
626.372
632.532
637.623
641.617
644.492
646.232
646.828
646.274
471.601
486.374
500.734
514.617
527.959
540.698
552.773
564.125
574.698
584.439
593.299
601.231
608.193
614.15
619.068
622.921
625.689
627.355
627.91
627.35
)
;
    }
    coldSide
    {
        type            mixed;
        refValue        uniform 300;
        refGradient     uniform 0;
        valueFraction   uniform 0.991591;
        source          uniform 0;
        value           nonuniform List<scalar> 
400
(
300.027
300.027
300.028
300.029
300.03
300.03
300.031
300.031
300.032
300.033
300.033
300.033
300.034
300.034
300.034
300.035
300.034
300.035
300.035
300.035
300.028
300.028
300.029
300.029
300.03
300.03
300.031
300.032
300.032
300.033
300.033
300.034
300.034
300.035
300.035
300.035
300.035
300.035
300.036