/*--------------------------------*- C++ -*----------------------------------*\
| =========                 |                                                 |
| \\      /  F ield         | OpenFOAM: The Open Source CFD Toolbox           |
|  \\    /   O peration     | Version:  2212                                  |
|   \\  /    A nd           | Website:  www.openfoam.com                      |
|    \\/     M anipulation  |                                                 |
\*---------------------------------------------------------------------------*/
FoamFile
{
    version     2.0;
    format      ascii;
    arch        "LSB;label=32;scalar=64";
    class       volScalarField;
    location    "0";
    object      T;
}
// * * * * * * * * * * * * * * * * * * * * * * * * * * * * * * * * * * * * * //

dimensions      [0 0 0 1 0 0 0];

internalField   nonuniform List<scalar> 
3200
(
340.586
341.278
341.961
342.989
343.724
344.392
344.739
345.234
345.458
345.661
345.631
345.465
345.27
344.905
344.308
344.065
343.291
342.5
341.874
341.044
335.173
335.763
336.349
337.183
337.877
338.48
338.679
339.126
339.313
339.49
339.525
339.311
339.141
338.876
338.313
338.128
337.465
336.745
336.255
335.543
329.757
330.223
330.71
331.41
332.024
332.56
332.674
333.038
333.245
333.378
333.384
333.177
333.064
332.815
332.368
332.184
331.659
331.014
330.644
330.049
324.388
324.688
325.08
325.662
326.195
326.651
326.69
326.926
327.162
327.273
327.275
327.099
326.992
326.802
326.465
326.288
325.872
325.318
325.015
324.552
318.991
319.158
319.477
319.962
320.374
320.737
320.749
320.876
321.077
321.207
321.215
321.085
321.002
320.806
320.562
320.413
320.103
319.677
319.444
319.106
313.599
313.706
313.927
314.247
314.563
314.79
314.843
314.898
315.036
315.15
315.137
315.083
315.007
314.854
314.672
314.573
314.328
314.014
313.91
313.635
308.169
308.209
308.377
308.546
308.725
308.868
308.931
308.921
309.023
309.105
309.061
309.056
309.014
308.904
308.789
308.763
308.598
308.374
308.358
308.215
302.746
302.766
302.807
302.869
302.933
302.961
303.005
302.981
303.038
303.054
303.059
303.029
303.02
302.99
302.971
302.948
302.881
302.795
302.816
302.786
341.718
342.151
343.135
343.913
344.847
345.293
345.931
346.557
346.539
346.749
346.872
346.652
346.471
346.052
345.694
344.907
344.455
343.464
342.783
342.017
336.125
336.404
337.285
337.965
338.747
339.153
339.67
340.204
340.264
340.361
340.495
340.321
340.158
339.787
339.453
338.78
338.409
337.511
336.949
336.348
330.534
330.694
331.508
332.035
332.718
333.064
333.467
333.942
333.949
334.015
334.184
334.011
333.902
333.573
333.287
332.69
332.39
331.587
331.184
330.717
324.96
325.072
325.722
326.181
326.699
326.963
327.353
327.698
327.687
327.744
327.914
327.723
327.684
327.405
327.172
326.71
326.425
325.737
325.458
325.119
319.401
319.464
320.02
320.353
320.726
320.939
321.247
321.433
321.501
321.529
321.712
321.494
321.466
321.26
321.069
320.744
320.512
319.988
319.769
319.524
313.89
313.903
314.313
314.58
314.789
314.946
315.17
315.275
315.391
315.337
315.517
315.331
315.29
315.14
315.033
314.805
314.65
314.301
314.104
313.927
308.357
308.37
308.585
308.738
308.858
308.954
309.076
309.166
309.276
309.199
309.292
309.18
309.157
309.069
309.012
308.913
308.839
308.577
308.477
308.366
302.807
302.803
302.874
302.927
302.975
303.014
303.031
303.057
303.125
303.072
303.106
303.079
303.049
303.024
303.002
302.991
302.952
302.885
302.84
302.797
342.833
343.437
344.464
345.315
346.245
346.829
347.291
347.665
347.986
348.267
348.369
348.303
348.103
347.686
347.167
346.439
345.887
344.719
344.144
343.377
337.079
337.547
338.416
339.097
339.946
340.479
340.811
341.131
341.463
341.699
341.807
341.691
341.543
341.178
340.691
340.079
339.641
338.58
338.156
337.465
331.335
331.663
332.445
332.986
333.717
334.132
334.458
334.7
335.016
335.162
335.292
335.118
335.056
334.715
334.329
333.768
333.444
332.554
332.209
331.583
325.602
325.849
326.497
326.886
327.525
327.784
328.164
328.355
328.582
328.698
328.822
328.626
328.625
328.309
327.982
327.538
327.279
326.549
326.345
325.756
319.902
320.019
320.589
320.804
321.39
321.54
321.906
322.022
322.19
322.3
322.406
322.215
322.205
321.923
321.714
321.36
321.148
320.602
320.485
319.991
314.186
314.246
314.76
314.811
315.269
315.341
315.676
315.697
315.857
315.863
316.015
315.852
315.849
315.603
315.444
315.227
315.064
314.717
314.605
314.254
308.492
308.57
308.9
308.882
309.155
309.19
309.442
309.405
309.529
309.531
309.637
309.527
309.523
309.358
309.235
309.154
309.001
308.863
308.765
308.548
302.818
302.862
302.997
302.989
303.062
303.075
303.172
303.169
303.187
303.191
303.228
303.206
303.214
303.122
303.087
303.085
303.009
302.974
302.935
302.882
344.141
345.055
346.037
346.906
347.757
348.416
348.942
349.194
349.546
349.947
349.95
349.789
349.713
349.447
348.747
348.096
347.53
346.439
345.642
344.692
338.129
338.902
339.752
340.497
341.206
341.806
342.272
342.469
342.81
343.146
343.152
343.004
342.936
342.709
342.056
341.531
341.071
340.082
339.379
338.611
332.191
332.762
333.546
334.122
334.753
335.254
335.687
335.833
336.127
336.418
336.43
336.297
336.237
335.995
335.42
335.01
334.657
333.791
333.198
332.558
326.288
326.704
327.339
327.831
328.372
328.748
329.185
329.237
329.455
329.753
329.715
329.65
329.535
329.348
328.88
328.557
328.272
327.553
327.107
326.59
320.424
320.714
321.23
321.544
322.059
322.262
322.662
322.7
322.847
323.099
323.118
323.065
322.931
322.723
322.401
322.161
321.934
321.385
321.065
320.649
314.583
314.781
315.161
315.381
315.746
315.855
316.167
316.199
316.256
316.452
316.528
316.463
316.369
316.191
315.981
315.798
315.622
315.271
315.05
314.734
308.786
308.838
309.081
309.219
309.431
309.523
309.675
309.713
309.711
309.884
309.941
309.872
309.8
309.706
309.574
309.477
309.362
309.17
309.017
308.823
302.947
302.953
303.033
303.086
303.164
303.19
303.234
303.266
303.272
303.329
303.319
303.292
303.283
303.235
303.211
303.165
303.135
303.092
303.031
302.942
345.318
346.373
347.433
348.491
349.373
350.156
350.785
350.881
351.387
351.614
351.468
351.437
351.219
350.851
350.239
349.735
348.98
347.953
347.259
346.101
339.16
340.057
340.954
341.837
342.611
343.281
343.823
343.944
344.388
344.604
344.403
344.394
344.146
343.903
343.361
342.878
342.257
341.353
340.77
339.79
333.083
333.734
334.559
335.239
335.914
336.483
336.96
337.031
337.432
337.651
337.442
337.443
337.193
337.013
336.597
336.091
335.61
334.859
334.415
333.541
327.037
327.507
328.198
328.712
329.283
329.805
330.184
330.214
330.479
330.784
330.539
330.541
330.346
330.183
329.92
329.39
329.065
328.431
328.014
327.311
320.998
321.367
321.926
322.253
322.747
323.101
323.396
323.419
323.586
323.906
323.705
323.683
323.537
323.399
323.277
322.745
322.571
322.04
321.678
321.167
315.007
315.269
315.644
315.862
316.252
316.483
316.672
316.704
316.787
317.039
316.916
316.902
316.802
316.692
316.644
316.184
316.078
315.686
315.461
315.076
309.01
309.18
309.378
309.563
309.765
309.877
309.991
310.025
310.041
310.225
310.154
310.169
310.083
310.004
310.027
309.691
309.649
309.37
309.291
309.035
303.013
303.089
303.128
303.204
303.277
303.294
303.347
303.376
303.34
303.417
303.398
303.416
303.377
303.34
303.388
303.221
303.241
303.142
303.116
303.053
346.839
347.704
348.914
349.913
350.842
351.681
352.236
352.45
352.952
353.049
353.244
353.116
353.046
352.466
351.908
351.301
350.544
349.56
348.552
347.504
340.516
341.224
342.253
343.13
343.907
344.661
345.094
345.269
345.744
345.772
345.991
345.854
345.792
345.299
344.751
344.28
343.633
342.762
341.859
340.966
334.211
334.824
335.65
336.439
337.055
337.711
338.037
338.179
338.58
338.569
338.774
338.649
338.627
338.224
337.756
337.327
336.77
336.045
335.288
334.484
327.926
328.45
329.097
329.79
330.19
330.772
331.076
331.148
331.472
331.437
331.607
331.517
331.554
331.196
330.838
330.45
330.016
329.368
328.769
328.066
321.675
322.077
322.608
323.134
323.393
323.849
324.149
324.152
324.427
324.36
324.523
324.443
324.486
324.269
323.938
323.639
323.307
322.743
322.318
321.743
315.479
315.752
316.138
316.488
316.681
316.984
317.239
317.221
317.415
317.379
317.454
317.462
317.424
317.331
317.062
316.865
316.66
316.198
315.886
315.51
309.301
309.43
309.7
309.909
310.017
310.167
310.333
310.346
310.458
310.407
310.441
310.516
310.432
310.402
310.235
310.135
309.978
309.678
309.503
309.297
303.11
303.152
303.234
303.316
303.334
303.41
303.471
303.471
303.502
303.487
303.495
303.523
303.508
303.474
303.399
303.397
303.342
303.246
303.193
303.097
348.144
349.411
350.335
351.223
352.051
353.166
353.763
354.247
354.714
354.66
354.732
354.526
354.556
354.106
353.426
352.934
351.942
351.068
349.842
348.837
341.597
342.689
343.452
344.219
344.931
345.917
346.406
346.854
347.294
347.169
347.229
347.053
347.11
346.698
346.135
345.697
344.829
344.079
343.025
342.154
335.107
335.984
336.669
337.249
337.916
338.752
339.122
339.513
339.91
339.77
339.829
339.711
339.788
339.371
338.937
338.519
337.801
337.143
336.253
335.55
328.706
329.367
329.929
330.381
330.965
331.625
331.912
332.268
332.602
332.443
332.49
332.428
332.5
332.07
331.796
331.38
330.875
330.266
329.512
328.97
322.299
322.771
323.204
323.566
324.056
324.545
324.787
325.039
325.299
325.19
325.243
325.181
325.224
324.911
324.703
324.292
324.018
323.445
322.87
322.484
315.92
316.216
316.546
316.817
317.179
317.53
317.716
317.862
318.074
317.987
318.046
317.955
318.002
317.753
317.607
317.275
317.149
316.699
316.303
316.055
309.586
309.727
309.912
310.112
310.341
310.546
310.635
310.688
310.844
310.773
310.843
310.809
310.786
310.64
310.579
310.361
310.298
310.001
309.798
309.654
303.218
303.266
303.319
303.395
303.474
303.552
303.57
303.584
303.635
303.617
303.622
303.624
303.6
303.543
303.552
303.465
303.432
303.356
303.277
303.248
349.342
350.735
351.684
352.645
353.687
354.449
355.255
355.954
356.351
356.389
356.47
356.282
356.152
355.56
355.042
354.498
353.546
352.275
351.249
350.459
342.609
343.811
344.595
345.432
346.388
347.011
347.728
348.319
348.646
348.69
348.772
348.595
348.486
347.925
347.567
347.038
346.213
345.129
344.2
343.548
335.942
336.966
337.645
338.301
339.149
339.642
340.188
340.745
341.004
341.071
341.134
340.95
340.902
340.398
340.138
339.652
338.938
338.099
337.238
336.7
329.364
330.157
330.72
331.252
331.967
332.35
332.765
333.208
333.471
333.52
333.59
333.382
333.39
332.919
332.779
332.328
331.734
331.104
330.362
329.912
322.774
323.374
323.834
324.256
324.849
325.101
325.418
325.736
325.971
325.977
326.047
325.921
325.886
325.516
325.445
325.08
324.571
324.138
323.511
323.151
316.231
316.666
317.049
317.276
317.738
317.914
318.131
318.328
318.528
318.504
318.586
318.52
318.479
318.186
318.165
317.869
317.516
317.172
316.738
316.49
309.753
309.998
310.263
310.386
310.643
310.736
310.867
310.966
311.1
311.08
311.16
311.116
311.064
310.887
310.918
310.683
310.49
310.28
310.052
309.892
303.261
303.364
303.458
303.503
303.543
303.589
303.654
303.677
303.72
303.715
303.735
303.721
303.698
303.656
303.663
303.573
303.506
303.436
303.355
303.31
350.915
352.018
353.247
354.027
355.102
355.911
356.783
357.288
357.649
357.847
357.948
357.73
357.588
357.006
356.496
355.931
354.904
353.673
352.617
351.546
344.006
344.949
346.011
346.671
347.619
348.279
349.03
349.487
349.762
349.889
350.059
349.83
349.751
349.188
348.769
348.263
347.401
346.354
345.412
344.493
337.163
337.936
338.857
339.357
340.184
340.73
341.328
341.788
341.981
342.03
342.212
342.053
341.964
341.447
341.128
340.678
339.972
339.106
338.29
337.561
330.347
330.999
331.711
332.09
332.799
333.183
333.712
334.103
334.274
334.305
334.418
334.311
334.231
333.805
333.552
333.202
332.621
331.872
331.235
330.642
323.552
324.064
324.622
324.932
325.489
325.717
326.213
326.445
326.613
326.636
326.736
326.665
326.594
326.223
326.055
325.788
325.311
324.747
324.247
323.788
316.763
317.152
317.579
317.785
318.219
318.372
318.752
318.874
318.983
318.99
319.073
319.091
318.997
318.721
318.579
318.401
318.074
317.66
317.334
316.98
310.032
310.284
310.565
310.676
310.932
311.023
311.298
311.333
311.376
311.411
311.421
311.501
311.399
311.239
311.17
311.059
310.857
310.618
310.408
310.205
303.372
303.433
303.55
303.584
303.664
303.7
303.812
303.806
303.811
303.83
303.808
303.872
303.818
303.76
303.757
303.71
303.661
303.585
303.491
303.429
352.113
353.211
354.426
355.443
356.474
357.504
358.167
358.633
358.913
359.139
359.245
359.123
358.878
358.395
357.969
357.135
356.351
355.021
353.911
352.798
345.05
345.995
346.993
347.839
348.752
349.658
350.253
350.632
350.887
351.052
351.124
351.042
350.807
350.388
350.06
349.345
348.62
347.458
346.523
345.583
338.036
338.812
339.639
340.35
341.1
341.876
342.389
342.737
342.889
343.051
343.133
342.991
342.835
342.48
342.215
341.641
340.977
339.957
339.163
338.432
331.113
331.638
332.344
332.961
333.59
334.181
334.551
334.882
334.978
335.091
335.185
335.026
334.938
334.66
334.441
333.993
333.433
332.56
331.936
331.386
324.195
324.578
325.101
325.662
326.127
326.582
326.812
327.124
327.163
327.223
327.34
327.16
327.112
326.908
326.739
326.416
325.943
325.267
324.791
324.336
317.319
317.58
317.872
318.326
318.656
318.981
319.131
319.378
319.393
319.411
319.543
319.427
319.333
319.233
319.087
318.856
318.559
318.037
317.735
317.351
310.397
310.548
310.698
311.011
311.203
311.404
311.493
311.616
311.647
311.656
311.763
311.679
311.564
311.534
311.467
311.315
311.114
310.809
310.669
310.417
303.466
303.507
303.58
303.695
303.755
303.833
303.854
303.904
303.917
303.931
303.942
303.906
303.851
303.866
303.83
303.793
303.728
303.636
303.59
303.49
353.176
354.464
355.512
356.691
357.751
358.797
359.473
359.821
360.156
360.433
360.505
360.386
359.987
359.857
359.172
358.316
357.494
356.285
355.202
354.139
345.998
347.052
347.981
348.93
349.869
350.789
351.412
351.648
351.932
352.193
352.29
352.115
351.778
351.676
351.097
350.347
349.642
348.545
347.649
346.768
338.859
339.654
340.483
341.264
342.11
342.892
343.365
343.598
343.775
343.991
344.133
343.958
343.686
343.598
343.103
342.484
341.882
340.853
340.189
339.471
331.762
332.362
333.057
333.672
334.401
334.967
335.401
335.632
335.662
335.85
336.035
335.86
335.672
335.573
335.166
334.695
334.18
333.272
332.786
332.235
324.657
325.106
325.668
326.167
326.737
327.141
327.437
327.695
327.641
327.827
327.991
327.817
327.684
327.646
327.3
326.972
326.57
325.799
325.455
325.004
317.593
317.893
318.32
318.688
319.092
319.361
319.562
319.782
319.726
319.842
319.957
319.845
319.721
319.738
319.491
319.253
318.966
318.378
318.14
317.843
310.575
310.742
310.971
311.222
311.494
311.625
311.733
311.852
311.849
311.919
311.963
311.95
311.795
311.837
311.721
311.545
311.419
311.014
310.87
310.689
303.554
303.591
303.661
303.758
303.874
303.896
303.917
303.988
303.978
303.992
304.005
304.02
303.942
303.97
303.922
303.869
303.812
303.689
303.646
303.577
354.374
355.322
356.655
357.838
358.686
359.733
360.5
361.041
361.551
361.697
361.815
361.664
361.206
361.086
360.474
359.51
358.757
357.471
356.26
355.34
346.984
347.805
348.915
349.947
350.708
351.556
352.238
352.712
353.166
353.27
353.34
353.27
352.814
352.745
352.199
351.442
350.684
349.572
348.569
347.798
339.654
340.337
341.227
342.135
342.807
343.49
344.073
344.489
344.863
344.867
344.958
344.913
344.53
344.474
343.992
343.413
342.708
341.755
340.955
340.313
332.37
332.958
333.641
334.379
334.957
335.488
335.977
336.325
336.634
336.563
336.696
336.6
336.32
336.267
335.898
335.442
334.807
334.037
333.389
332.891
325.146
325.61
326.115
326.66
327.144
327.531
327.941
328.241
328.433
328.335
328.458
328.373
328.17
328.155
327.866
327.472
326.982
326.401
325.888
325.529
317.933
318.253
318.599
319.039
319.363
319.663
319.957
320.209
320.28
320.18
320.284
320.224
320.065
320.082
319.85
319.569
319.201
318.821
318.465
318.187
310.762
310.935
311.144
311.389
311.592
311.805
311.972
312.138
312.146
312.089
312.146
312.126
312.006
312.047
311.867
311.738
311.505
311.285
311.06
310.904
303.578
303.677
303.712
303.807
303.871
303.941
303.993
304.075
304.049
304.04
304.077
304.081
304.048
304.032
303.973
303.955
303.857
303.79
303.718
303.66
354.953
356.196
357.627
358.849
359.867
360.919
361.512
362.11
362.702
362.91
362.906
362.685
362.476
361.999
361.512
360.37
359.701
358.42
357.233
356.296
347.456
348.553
349.782
350.814
351.701
352.631
353.11
353.631
354.151
354.275
354.336
354.09
353.974
353.524
353.094
352.131
351.531
350.405
349.411
348.624
340.084
340.946
341.999
342.857
343.602
344.433
344.779
345.211
345.71
345.736
345.872
345.577
345.518
345.144
344.762
343.99
343.44
342.481
341.697
340.99
332.713
333.427
334.233
335.02
335.61
336.3
336.554
336.836
337.308
337.303
337.448
337.209
337.139
336.836
336.536
335.902
335.468
334.649
334.039
333.451
325.411
326.011
326.561
327.199
327.663
328.163
328.376
328.569
328.964
328.942
329.045
328.87
328.811
328.579
328.378
327.899
327.514
326.903
326.445
325.94
318.14
318.564
318.974
319.451
319.765
320.086
320.256
320.348
320.636
320.63
320.741
320.583
320.52
320.382
320.249
319.912
319.617
319.159
318.914
318.535
310.876
311.13
311.378
311.7
311.856
312.067
312.119
312.18
312.375
312.363
312.45
312.362
312.292
312.244
312.152
311.951
311.77
311.466
311.347
311.146
303.624
303.717
303.814
303.924
303.964
304.051
304.055
304.077
304.149
304.163
304.169
304.131
304.105
304.098
304.073
304.007
303.937
303.838
303.79
303.747
355.804
357.214
358.488
359.654
360.962
361.874
362.356
362.98
363.364
363.754
363.843
363.571
363.318
363.046
362.42
361.422
360.673
359.249
358.057
357.069
348.192
349.404
350.52
351.544
352.654
353.437
353.815
354.369
354.733
355.067
355.137
354.884
354.665
354.437
353.887
352.987
352.375
351.115
350.103
349.289
340.683
341.697
342.62
343.488
344.387
345.073
345.394
345.827
346.139
346.436
346.541
346.254
346.128
345.918
345.459
344.649
344.188
343.105
342.282
341.639
333.242
334.021
334.772
335.447
336.211
336.783
337.067
337.365
337.634
337.886
337.998
337.731
337.712
337.455
337.096
336.435
336.038
335.182
334.527
334.038
325.83
326.37
326.978
327.499
328.134
328.515
328.779
329.023
329.191
329.379
329.535
329.294
329.269
329.087
328.787
328.32
327.935
327.276
326.832
326.419
318.451
318.763
319.244
319.612
320.086
320.375
320.522
320.698
320.827
320.956
321.076
320.921
320.877
320.766
320.51
320.198
319.929
319.458
319.141
318.841
311.076
311.244
311.554
311.755
312.034
312.244
312.312
312.404
312.519
312.59
312.668
312.574
312.5
312.482
312.306
312.132
311.976
311.656
311.492
311.313
303.706
303.758
303.867
303.935
304.036
304.098
304.128
304.174
304.22
304.215
304.249
304.202
304.179
304.177
304.114
304.086
304.033
303.909
303.848
303.768
356.621
357.941
359.424
360.59
361.803
362.54
363.355
364.016
364.505
364.571
364.688
364.471
364.444
363.782
363.33
362.383
361.626
360.256
359.133
357.903
348.95
350.086
351.351
352.353
353.366
354.067
354.735
355.224
355.693
355.737
355.867
355.634
355.648
355.048
354.677
353.84
353.221
352.041
351.076
350.021
341.332
342.241
343.318
344.229
345.012
345.621
346.215
346.557
347.006
347.016
347.158
346.874
346.943
346.411
346.118
345.394
344.855
343.863
343.098
342.187
333.746
334.454
335.29
336.117
336.715
337.289
337.724
338.01
338.383
338.372
338.507
338.23
338.287
337.827
337.606
337.039
336.559
335.799
335.205
334.436
326.217
326.71
327.366
328.055
328.513
328.963
329.278
329.476
329.808
329.811
329.918
329.624
329.673
329.328
329.167
328.716
328.377
327.819
327.322
326.787
318.698
319.046
319.534
320.02
320.354
320.666
320.869
321.044
321.274
321.277
321.353
321.111
321.135
320.919
320.774
320.49
320.254
319.86
319.489
319.099
311.222
311.43
311.728
312.026
312.214
312.396
312.542
312.587
312.805
312.763
312.833
312.674
312.692
312.516
312.481
312.301
312.151
311.953
311.676
311.48
303.772
303.826
303.954
304.032
304.099
304.137
304.201
304.205
304.287
304.275
304.312
304.24
304.235
304.177
304.196
304.116
304.076
304.018
303.923
303.844
357.208
358.588
360.116
361.324
362.255
363.362
364.222
364.779
365.238
365.424
365.507
365.239
365.237
364.734
364.153
363.082
362.283
360.802
359.673
358.674
349.479
350.643
351.967
352.974
353.828
354.724
355.468
355.947
356.328
356.474
356.558
356.343
356.319
355.882
355.375
354.45
353.794
352.501
351.529
350.708
341.781
342.732
343.842
344.688
345.468
346.187
346.8
347.251
347.526
347.614
347.714
347.492
347.493
347.123
346.647
345.922
345.356
344.272
343.481
342.801
334.081
334.851
335.771
336.465
337.085
337.716
338.168
338.64
338.833
338.849
338.933
338.738
338.767
338.491
338.046
337.49
337.018
336.221
335.501
334.959
326.462
327.083
327.772
328.305
328.753
329.259
329.664
329.989
330.179
330.158
330.236
330.07
330.126
329.892
329.51
329.103
328.734
328.18
327.561
327.151
318.883
319.352
319.784
320.197
320.511
320.883
321.201
321.404
321.544
321.516
321.568
321.45
321.532
321.343
321.062
320.755
320.494
320.12
319.657
319.379
311.319
311.627
311.889
312.113
312.29
312.528
312.72
312.823
312.909
312.931
312.917
312.854
312.939
312.805
312.633
312.414
312.317
312.094
311.778
311.596
303.787
303.903
303.999
304.051
304.119
304.186
304.281
304.285
304.309
304.318
304.335
304.323
304.344
304.279
304.231
304.153
304.132
304.061
303.937
303.882
358.039
359.141
360.64
361.75
363.039
363.973
364.743
365.437
365.662
366.156
365.989
365.958
366.067
365.354
364.642
363.742
362.961
361.506
360.294
359.161
350.184
351.101
352.402
353.361
354.453
355.241
355.896
356.528
356.735
357.139
356.962
356.957
357.078
356.422
355.821
355.04
354.383
353.106
352.056
351.083
342.35
343.102
344.227
345.009
345.946
346.609
347.138
347.676
347.822
348.155
348.007
348.037
348.155
347.589
347.111
346.423
345.887
344.79
343.871
343.159
334.569
335.188
336.131
336.761
337.488
338.023
338.482
338.902
339.03
339.244
339.185
339.182
339.317
338.827
338.454
337.895
337.488
336.536
335.816
335.296
326.847
327.345
328.07
328.529
329.128
329.522
329.871
330.204
330.323
330.432
330.415
330.375
330.542
330.145
329.894
329.419
329.116
328.337
327.806
327.442
319.157
319.543
320.049
320.337
320.805
321.078
321.304
321.517
321.653
321.685
321.7
321.671
321.771
321.487
321.328
320.986
320.761
320.192
319.842
319.598
311.509
311.723
312.027
312.216
312.49
312.644
312.79
312.948
312.975
313.008
313.018
312.974
313.06
312.877
312.804
312.582
312.459
312.107
311.904
311.786
303.846
303.919
304.044
304.103
304.186
304.228
304.268
304.354
304.338
304.352
304.379
304.331
304.391
304.299
304.312
304.205
304.156
304.06
304.002
303.936
358.228
359.322
360.926
362.295
363.466
364.496
365.428
366.046
366.09
366.566
366.463
366.462
366.424
365.888
365.157
364.261
363.333
362.174
360.741
359.701
350.361
351.282
352.6
353.789
354.805
355.712
356.503
357.008
357.069
357.468
357.361
357.334
357.357
356.874
356.249
355.457
354.718
353.676
352.406
351.527
342.564
343.316
344.4
345.336
346.237
347.038
347.721
348.074
348.159
348.436
348.385
348.279
348.391
347.953
347.373
346.758
346.185
345.255
344.184
343.456
334.777
335.409
336.253
336.93
337.768
338.416
338.974
339.182
339.341
339.481
339.484
339.367
339.479
339.068
338.643
338.097
337.685
336.966
336.035
335.458
327
327.547
328.193
328.656
329.317
329.864
330.269
330.347
330.585
330.644
330.645
330.53
330.639
330.3
330.01
329.505
329.255
328.639
327.956
327.49
319.267
319.695
320.121
320.457
320.969
321.307
321.576
321.62
321.84
321.839
321.837
321.761
321.899
321.62
321.423
321.026
320.852
320.423
319.917
319.571
311.589
311.828
312.085
312.287
312.6
312.783
312.946
312.985
313.118
313.082
313.085
313.072
313.168
312.969
312.827
312.611
312.519
312.251
311.944
311.711
303.865
303.964
304.044
304.123
304.236
304.294
304.351
304.345
304.394
304.371
304.387
304.383
304.404
304.356
304.3
304.222
304.188
304.099
303.992
303.93
358.517
359.657
361.175
362.519
363.749
364.888
365.774
366.274
366.604
366.785
367.072
367.021
366.712
366.19
365.51
364.804
363.754
362.478
360.966
359.829
350.617
351.492
352.839
354.01
355.067
356.013
356.859
357.193
357.476
357.651
357.919
357.89
357.601
357.174
356.598
355.9
355.038
353.938
352.656
351.687
342.766
343.417
344.589
345.578
346.45
347.213
348.023
348.187
348.458
348.597
348.864
348.798
348.564
348.195
347.752
347.12
346.384
345.463
344.416
343.611
334.96
335.424
336.391
337.157
337.916
338.552
339.221
339.339
339.564
339.637
339.904
339.824
339.601
339.29
338.967
338.456
337.812
337.11
336.217
335.633
327.148
327.5
328.24
328.853
329.428
329.922
330.495
330.551
330.715
330.748
330.993
330.918
330.71
330.449
330.244
329.816
329.351
328.796
328.118
327.664
319.358
319.645
320.122
320.601
320.951
321.321
321.778
321.81
321.918
321.923
322.126
322.106
321.928
321.737
321.578
321.226
320.959
320.537
320.048
319.734
311.64
311.812
312.08
312.367
312.554
312.779
313.088
313.078
313.139
313.175
313.303
313.263
313.14
313.065
312.965
312.744
312.563
312.353
312.014
311.848
303.916
303.973
304.051
304.143
304.188
304.278
304.4
304.374
304.396
304.413
304.47
304.46
304.378
304.381
304.337
304.286
304.214
304.141
304.007
303.984
358.721
360.009
361.305
362.88
364.066
365.069
366.053
366.17
366.894
366.988
367.547
367.306
366.888
366.71
365.678
365.154
363.894
362.689
361.305
360.055
350.745
351.79
352.949
354.321
355.319
356.18
357.066
357.11
357.777
357.811
358.313
358.099
357.735
357.562
356.682
356.271
355.168
354.1
352.871
351.875
342.857
343.652
344.688
345.862
346.637
347.393
348.11
348.139
348.729
348.75
349.172
348.986
348.717
348.496
347.791
347.465
346.524
345.598
344.552
343.747
335.022
335.562
336.512
337.372
338.034
338.668
339.219
339.279
339.747
339.801
340.128
339.977
339.748
339.515
338.987
338.699
337.984
337.205
336.339
335.677
327.166
327.536
328.349
328.98
329.488
330.022
330.442
330.49
330.855
330.901
331.149
331.002
330.816
330.606
330.242
330.064
329.484
328.922
328.205
327.721
319.36
319.627
320.242
320.655
321.026
321.424
321.713
321.79
321.986
322.049
322.223
322.099
321.997
321.824
321.563
321.466
321.011
320.654
320.084
319.784
311.584
311.786
312.152
312.373
312.576
312.863
313.015
313.079
313.206
313.231
313.317
313.252
313.192
313.099
312.929
312.874
312.581
312.385
312.028
311.902
303.885
303.954
304.074
304.148
304.213
304.297
304.361
304.395
304.42
304.451
304.461
304.411
304.437
304.396
304.328
304.294
304.203
304.171
304.036
303.978
)
;

boundaryField
{
    hotSide
    {
        type            fixedGradient;
        gradient        nonuniform List<scalar> 
400
(
432.374
449.239
465.839
482.101
497.95
513.312
528.114
542.283
555.75
568.445
580.305
591.268
601.276
610.277
618.223
625.073
630.788
635.34
638.705
640.865
443.771
461.162
478.285
495.063
511.42
527.28
542.566
557.204
571.122
584.248
596.517
607.865
618.231
627.562
635.809
642.926
648.877
653.631
657.161
659.451
454.089
471.964
489.567
506.822
523.647
539.966
555.699
570.771
585.106
598.632
611.28
622.984
633.684
643.322
651.848
659.217
665.389
670.332
674.02
676.433
463.277
481.591
499.63
517.316
534.567
551.302
567.442
582.908
597.623
611.513
624.508
636.538
647.543
657.463
666.246
673.846
680.222
685.341
689.175
691.706
471.294
489.997
508.424
526.494
544.123
561.23
577.733
593.552
608.607
622.823
636.127
648.45
659.728
669.902
678.917
686.726
693.288
698.566
702.535
705.173
478.104
497.145
515.909
534.312
552.271
569.701
586.52
602.646
617.998
632.498
646.074
658.654
670.172
680.569
689.789
697.782
704.508
709.929
714.018
716.754
483.68
503.005
522.051
540.735
558.971
576.674
593.76
610.145
625.748
640.489
654.295
667.093
678.816
689.403
698.798
706.95
713.816
719.361
723.554
726.376
487.999
507.551
526.824
545.734
564.193
582.116
599.417
616.011
631.817
646.754
660.747
673.722
685.612
696.354
705.892
714.175
721.158
726.805
731.086
733.98
491.044
510.765
530.208
549.285
567.912
585.999
603.462
620.214
636.173
651.259
665.393
678.503
690.521
701.382
711.03
719.413
726.487
732.215
736.566
739.518
492.803
512.633
532.186
551.374
570.109
588.305
605.874
622.732
638.793
653.977
668.207
681.408
693.512
704.455
714.179
722.633
729.771
735.555
739.957
742.952
493.267
513.146
532.748
551.986
570.773
589.02
606.64
623.547
639.658
654.891
669.169
682.417
694.565
705.551
715.316
723.808
730.983
736.801
741.233
744.256
492.431
512.298
531.889
551.118
569.895
588.135
605.749
622.652
638.76
653.991
668.268
681.517
693.669
704.658
714.429
722.927
730.109
735.936
740.379
743.413
490.295
510.089
529.608
548.766
567.476
585.65
603.201
620.045
636.096
651.275
665.503
678.707
690.818
701.773
711.512
719.985
727.146
732.958
737.391
740.421
486.863
506.522
525.908
544.936
563.519
581.569
599.001
615.729
631.672
646.747
660.878
673.992
686.021
696.901
706.574
714.989
722.101
727.873
732.275
735.285
482.144
501.607
520.801
539.638
558.035
575.904
593.161
609.72
625.501
640.423
654.409
667.389
679.293
690.059
699.631
707.956
714.992
720.701
725.053
728.025
476.151
495.36
514.301
532.891
551.044
568.675
585.701
602.039
617.607
632.326
646.122
658.923
670.662
681.277
690.713
698.918
705.85
711.472
715.755
718.676
468.906
487.802
506.433
524.718
542.571
559.911
576.653
592.717
608.022
622.492
636.052
648.632
660.167
670.595
679.861
687.917
694.719
700.232
704.427
707.283
460.435
478.963
497.23
515.154
532.654
549.649
566.057
581.797
596.792
610.967
624.248
636.566
647.859
658.065
667.131
675.009
681.658
687.041
691.131
693.907
450.776
468.882
486.73
504.243
521.339
537.938
553.962
569.332
583.972
597.808
610.769
622.789
633.803
643.755
652.592
660.266
666.737
671.971
675.941
678.626
439.972
457.606
474.987
492.038
508.681
524.839
540.433
555.389
569.631
583.088
595.692
607.376
618.08
627.747
636.326
643.772
650.046
655.113
658.948
661.531
)
;
    }
    coldSide
    {
        type            mixed;
        refValue        uniform 300;
        refGradient     uniform 0;
        valueFraction   uniform 0.991591;
        source          uniform 0;
        value           nonuniform List<scalar> 
400
(
300.023
300.024
300.024
300.025
300.025
300.026
300.027
300.027
300.028
300.029
300.03
300.03
300.03
300.031
300.032
300.032
300.032
300.032
300.033
300.033
300.023
300.024
300.024
300.025
300.026
300.027
300.027
300.028
300.029
300.029
300.03
300.031
300.031
300.032
300.032
300.033