/*--------------------------------*- C++ -*----------------------------------*\
| =========                 |                                                 |
| \\      /  F ield         | OpenFOAM: The Open Source CFD Toolbox           |
|  \\    /   O peration     | Version:  2212                                  |
|   \\  /    A nd           | Website:  www.openfoam.com                      |
|    \\/     M anipulation  |                                                 |
\*---------------------------------------------------------------------------*/
FoamFile
{
    version     2.0;
    format      ascii;
    arch        "LSB;label=32;scalar=64";
    class       volScalarField;
    location    "./ITHACAoutput/true/17.9";
    object      error;
}
// * * * * * * * * * * * * * * * * * * * * * * * * * * * * * * * * * * * * * //

dimensions      [0 0 0 1 0 0 0];

internalField   nonuniform List<scalar> 
3200
(
2.64131
2.82114
2.8689
2.96322
3.11889
3.35602
3.69957
3.82002
4.07395
4.18222
4.29961
4.25173
4.31011
4.14983
4.12835
4.08832
3.99837
3.96745
3.95139
3.99862
2.29667
2.28383
2.34035
2.44004
2.64748
2.71881
2.9605
3.17487
3.32062
3.43561
3.57672
3.5495
3.53763
3.48495
3.46526
3.33752
3.35223
3.28998
3.19098
3.36835
1.85914
1.86534
1.84035
1.99755
2.08234
2.27557
2.49629
2.62012
2.70389
2.81274
2.94704
2.94926
2.80047
2.78589
2.83628
2.74538
2.70091
2.65963
2.71189
2.73237
1.56503
1.46857
1.50848
1.56516
1.64587
1.84927
1.91302
1.9739
2.12594
2.16055
2.30686
2.30322
2.25042
2.24058
2.23103
2.21083
2.09598
2.05514
2.14517
2.19646
1.14657
1.04136
1.1333
1.2324
1.28622
1.36688
1.41731
1.54773
1.63965
1.71687
1.71101
1.77837
1.70711
1.71669
1.7101
1.65534
1.64206
1.62293
1.72479
1.67963
0.729364
0.738142
0.745352
0.753615
0.938004
0.898887
0.992291
1.03836
1.14198
1.1173
1.15168
1.25261
1.21979
1.20957
1.20498
1.20531
1.15333
1.14021
1.07176
1.17448
0.490955
0.461853
0.464269
0.50576
0.572917
0.568827
0.620763
0.696605
0.690443
0.717726
0.654221
0.74386
0.758368
0.693131
0.665411
0.635189
0.662635
0.671285
0.69415
0.717608
0.075496
0.176909
0.0922746
0.115901
0.191265
0.207221
0.180819
0.235239
0.202108
0.252521
0.319522
0.22056
0.234311
0.207115
0.193053
0.226
0.265082
0.215178
0.22366
0.208141
2.01769
2.04738
2.07463
2.23638
2.43276
2.59201
2.79217
2.96279
3.18678
3.33906
3.45834
3.42098
3.46639
3.37711
3.34404
3.29738
3.19458
3.21965
3.2794
3.30829
1.73332
1.72531
1.80391
1.81892
2.00911
2.09023
2.3218
2.53839
2.70214
2.85813
2.88442
2.86046
2.8567
2.79337
2.81732
2.70731
2.68296
2.65148
2.72075
2.72936
1.33163
1.494
1.41587
1.50772
1.6291
1.76198
1.8944
2.00103
2.203
2.31291
2.36544
2.31799
2.38941
2.31072
2.23845
2.20164
2.14378
2.22009
2.22131
2.26173
1.0896
1.08512
1.11972
1.14466
1.27773
1.32768
1.47512
1.66489
1.62282
1.77673
1.83194
1.86044
1.77474
1.76924
1.75078
1.75964
1.76429
1.78036
1.82602
1.79661
0.791898
0.808111
0.792459
0.984962
0.914037
1.0826
1.1008
1.21211
1.31211
1.32505
1.36247
1.43324
1.38662
1.4219
1.36867
1.42747
1.28825
1.35187
1.38077
1.37326
0.554943
0.5702
0.578412
0.66607
0.643366
0.714217
0.767544
0.84536
0.97951
0.973366
0.959223
0.963004
1.02612
0.975468
0.931459
0.96841
0.862292
0.899233
0.924229
0.991051
0.283431
0.337304
0.33881
0.342198
0.357368
0.422261
0.507369
0.493375
0.521932
0.565207
0.517804
0.58943
0.674223
0.545585
0.637392
0.52175
0.531044
0.477532
0.549012
0.572208
0.105483
0.138862
0.135625
0.137557
0.1492
0.124224
0.139089
0.189795
0.248882
0.181989
0.242883
0.180586
0.210263
0.19309
0.178966
0.147015
0.222691
0.178826
0.205589
0.225353
1.19363
1.09802
1.15879
1.25923
1.44789
1.64209
1.76683
2.03722
2.16737
2.24912
2.38662
2.43217
2.36677
2.36425
2.26469
2.29256
2.15761
2.20667
2.33174
2.28348
0.973349
0.951942
0.965368
0.979561
1.20453
1.30595
1.4559
1.63023
1.7823
1.88059
1.91865
1.92998
1.98455
1.88016
1.85993
1.8408
1.85574
1.82222
1.90337
1.97035
0.776853
0.709686
0.77558
0.82222
0.956759
1.04349
1.13158
1.34142
1.37712
1.52436
1.51238
1.59289
1.53714
1.52956
1.5436
1.48196
1.5298
1.45528
1.60216
1.58809
0.559535
0.580928
0.621641
0.682601
0.672027
0.814201
0.907636
0.93488
1.08561
1.2089
1.26816
1.22035
1.2774
1.13413
1.16397
1.16906
1.14446
1.1763
1.2757
1.26921
0.429139
0.374806
0.444296
0.402915
0.515408
0.571954
0.648778
0.780916
0.796144
0.866863
0.951446
0.916129
0.975017
0.935134
0.884583
0.906554
0.837295
0.911392
0.87375
0.895
0.28907
0.287462
0.324561
0.309227
0.344548
0.437719
0.45869
0.477438
0.566035
0.575815
0.675741
0.658322
0.709182
0.642887
0.712292
0.560705
0.580679
0.626872
0.576311
0.659222
0.209015
0.204676
0.152682
0.105881
0.239805
0.289557
0.331201
0.328404
0.398747
0.378709
0.399112
0.396703
0.332984
0.40843
0.351247
0.349519
0.243101
0.353348
0.397152
0.347647
0.00774431
0.0976576
7.91427e-05
0.0983579
0.0342333
0.0881704
0.0385025
0.0897353
0.0879678
0.208495
0.182234
0.182191
0.139075
0.0964145
0.171978
0.0962315
0.0682457
0.116512
0.133582
0.136812
0.257123
0.237046
0.279318
0.28489
0.431081
0.536228
0.684408
0.911789
1.04439
1.11771
1.24819
1.27152
1.29571
1.22683
1.10646
1.20848
1.20935
1.19219
1.28615
1.47926
0.194454
0.135324
0.147053
0.179676
0.286213
0.381878
0.553438
0.696547
0.864384
0.927397
0.972115
0.98734
0.925379
1.05377
0.99393
0.917155
0.928267
1.02093
1.09406
1.17595
0.130836
0.141268
0.0191851
0.0720641
0.162287
0.209474
0.40043
0.550823
0.662116
0.72576
0.72142
0.812171
0.720699
0.75673
0.720537
0.775334
0.717319
0.797768
0.856829
0.930876
0.100171
0.0511173
0.0599516
0.0646784
0.0807248
0.155922
0.237604
0.35936
0.437009
0.49662
0.58311
0.666477
0.529816
0.586561
0.513934
0.536713
0.572709
0.557244
0.608937
0.71954
0.043685
-0.0352009
-0.00270868
0.0654647
-0.0113173
0.0787386
0.138166
0.289796
0.298227
0.423007
0.405647
0.430114
0.405636
0.3971
0.3832
0.355029
0.379074
0.455136
0.481838
0.541858
-0.00851325
-0.00296137
-0.00221497
-0.0647758
0.0313484
0.126861
0.150504
0.121139
0.204611
0.224284
0.255369
0.313104
0.259121
0.327108
0.308664
0.225695
0.328936
0.268087
0.429007
0.37827
-0.0259696
0.0316398
-0.0754831
0.00509864
0.0204593
0.0256584
0.0117073
0.123328
0.120671
0.179541
0.197191
0.262016
0.160771
0.194204
0.207852
0.170616
0.11787
0.130855
0.248628
0.173493
-0.0456866
0.0249512
-0.00184453
-0.0534724
-0.0393849
0.0428239
0.0494808
0.105934
0.0178851
0.0461293
0.0926663
0.0459562
0.028857
0.0475157
0.0730401
0.0453986
0.02461
-0.0307544
0.0313325
0.0481187
-0.584905
-0.60432
-0.649169
-0.670869
-0.600581
-0.442863
-0.279966
-0.194055
0.0131374
0.0530462
0.0334505
0.259454
0.234713
0.216773
0.134808
0.21778
0.209664
0.307151
0.458938
0.525875
-0.526984
-0.564542
-0.604624
-0.620239
-0.631686
-0.439609
-0.391397
-0.270562
-0.0781634
-0.0334093
-0.041966
0.0145056
0.0545077
0.0484866
0.0318745
0.0725059
0.076316
0.212403
0.241714
0.425626
-0.442813
-0.487443
-0.603549
-0.655153
-0.54728
-0.460574
-0.368087
-0.299551
-0.160022
-0.0804022
-0.0479054
0.0463753
-0.0365387
-0.06828
-0.056804
0.0132441
0.0461603
0.083621
0.110008
0.289581
-0.356641
-0.489662
-0.503073
-0.532424
-0.477794
-0.447915
-0.363999
-0.203358
-0.210189
-0.120103
-0.135539
-0.068182
-0.0658388
-0.0970708
-0.0805251
-0.0507898
-0.0311036
0.0190185
0.134547
0.283158
-0.271539
-0.43332
-0.473282
-0.445757
-0.425481
-0.334298
-0.28421
-0.343978
-0.17614
-0.175223
-0.0813279
-0.0418169
-0.0822082
-0.135519
-0.133113
-0.0306041
-0.0624621
-0.0147236
0.0220368
0.141955
-0.280453
-0.254754
-0.313527
-0.392367
-0.350127
-0.304728
-0.232007
-0.191698
-0.167114
-0.091975
-0.0388656
-0.099388
-0.028215
-0.0752284
-0.163308
-0.078608
-0.0317779
-0.00433024
0.109106
0.0283849
-0.148616
-0.198795
-0.194749
-0.169325
-0.161337
-0.170568
-0.197436
-0.124388
-0.0925779
-0.0474118
-0.0383788
-0.0186915
-0.0438552
-0.0517492
-0.0477295
-0.0231594
-0.0484192
-0.0149558
-0.0278868
0.0286624
-0.0718207
-0.0489621
-0.0514211
-0.0691094
-0.022143
-0.083721
-0.0460788
0.00342587
-0.0133031
-0.055544
-0.00744936
0.0160222
-0.0263204
-0.0633888
0.0124755
-0.0270857
-0.0656898
0.0160648
0.000539382
-0.0140327
-1.18595
-1.39794
-1.47519
-1.47185
-1.52136
-1.40375
-1.24187
-1.18893
-1.05714
-0.887173
-0.858758
-0.797292
-0.830032
-0.860578
-0.84991
-0.746637
-0.70189
-0.578147
-0.408226
-0.235667
-1.14767
-1.25925
-1.31592
-1.35854
-1.34772
-1.256
-1.21258
-1.07452
-1.03382
-0.972034
-0.906751
-0.800229
-0.809709
-0.781525
-0.757455
-0.751646
-0.670122
-0.508782
-0.406971
-0.278686
-1.00016
-1.09472
-1.15745
-1.20369
-1.22901
-1.14692
-1.07824
-0.985303
-0.98555
-0.807417
-0.830553
-0.795022
-0.752317
-0.780072
-0.738838
-0.677431
-0.620135
-0.542943
-0.420444
-0.304295
-0.809246
-0.95969
-1.00321
-1.0724
-1.0308
-1.07792
-0.930449
-0.852861
-0.730403
-0.748216
-0.708757
-0.708972
-0.715062
-0.647176
-0.61675
-0.569606
-0.608357
-0.47474
-0.439289
-0.318187
-0.719649
-0.675978
-0.855095
-0.812036
-0.79797
-0.819499
-0.791992
-0.764062
-0.734682
-0.582603
-0.58937
-0.561898
-0.55595
-0.580394
-0.601955
-0.543895
-0.483317
-0.367687
-0.397591
-0.252786
-0.479399
-0.438488
-0.541624
-0.625269
-0.634927
-0.566291
-0.539932
-0.55442
-0.474459
-0.429671
-0.438545
-0.460038
-0.483665
-0.375283
-0.362725
-0.363165
-0.316901
-0.261836
-0.285585
-0.259537
-0.267729
-0.339278
-0.370702
-0.389404
-0.313452
-0.36217
-0.32277
-0.313473
-0.294915
-0.251853
-0.252066
-0.237412
-0.292671
-0.268363
-0.27887
-0.285464
-0.281306
-0.163459
-0.143821
-0.116426
-0.116931
-0.139281
-0.102344
-0.125324
-0.100315
-0.145542
-0.142887
-0.115299
-0.0659021
-0.048127
-0.0486091
-0.0795388
-0.156549
-0.0893749
-0.0253369
-0.0650397
-0.13749
-0.168669
-0.0267129
-0.0427622
-1.84834
-2.03188
-2.14565
-2.25214
-2.3466
-2.27425
-2.13957
-2.03466
-2.01045
-1.90497
-1.79748
-1.77859
-1.75614
-1.69653
-1.62759
-1.59916
-1.46787
-1.29902
-1.16099
-0.914464
-1.66082
-1.85697
-1.95989
-2.0329
-2.01225
-1.99037
-1.93089
-1.82833
-1.71282
-1.7013
-1.735
-1.68042
-1.55719
-1.61618
-1.52845
-1.3659
-1.37638
-1.25002
-1.02559
-0.85534
-1.46463
-1.53833
-1.69114
-1.71248
-1.84294
-1.77227
-1.71787
-1.62444
-1.51551
-1.57076
-1.45339
-1.50224
-1.51465
-1.43694
-1.29321
-1.32215
-1.21354
-1.0621
-0.888157
-0.76829
-1.21521
-1.30553
-1.41107
-1.43498
-1.50712
-1.48094
-1.41575
-1.37081
-1.40853
-1.29493
-1.29383
-1.21426
-1.23327
-1.14292
-1.24472
-1.12432
-0.989374
-0.953349
-0.782163
-0.676569
-0.934396
-1.08423
-1.09586
-1.20325
-1.20501
-1.25839
-1.13591
-1.07299
-1.07977
-0.996956
-1.01673
-1.02034
-1.03833
-0.964853
-0.979966
-0.84878
-0.808087
-0.738622
-0.663852
-0.56158
-0.717362
-0.809362
-0.801059
-0.863873
-0.912993
-0.884226
-0.86691
-0.864531
-0.78995
-0.837758
-0.700576
-0.784965
-0.656072
-0.698197
-0.751436
-0.663402
-0.657984
-0.519024
-0.417233
-0.435619
-0.422301
-0.473653
-0.519288
-0.605674
-0.56325
-0.547452
-0.453085
-0.461888
-0.400321
-0.495036
-0.466742
-0.443053
-0.50766
-0.448752
-0.459681
-0.344505
-0.381153
-0.370208
-0.303711
-0.225073
-0.156134
-0.166365
-0.165292
-0.153593
-0.180038
-0.213727
-0.143764
-0.204379
-0.16252
-0.154481
-0.148365
-0.131155
-0.0984743
-0.166126
-0.131236
-0.140514
-0.245006
-0.0656733
-0.0824274
-0.129269
-2.39623
-2.58168
-2.75438
-2.88227
-2.96002
-2.96324
-2.87798
-2.88594
-2.7481
-2.7522
-2.72336
-2.61142
-2.58852
-2.54357
-2.40793
-2.29904
-2.17597
-1.97845
-1.74169
-1.52036
-2.15803
-2.26834
-2.42865
-2.57605
-2.59904
-2.72766
-2.57908
-2.59252
-2.51342
-2.47013
-2.41055
-2.31211
-2.41635
-2.18912
-2.16648
-2.10328
-1.99011
-1.75589
-1.55591
-1.34213
-1.83483
-1.95571
-2.14856
-2.2666
-2.31612
-2.32437
-2.26458
-2.26106
-2.17863
-2.12734
-2.09789
-2.03254
-2.01309
-1.93033
-1.90073
-1.79626
-1.75456
-1.58348
-1.39183
-1.25843
-1.59633
-1.68808
-1.73758
-1.81354
-1.90262
-1.86717
-1.92263
-1.93193
-1.85511
-1.73737
-1.71301
-1.81129
-1.70606
-1.63604
-1.58116
-1.55712
-1.46509
-1.29962
-1.14896
-0.976193
-1.21855
-1.25746
-1.40142
-1.40407
-1.46654
-1.50301
-1.48497
-1.5382
-1.41657
-1.4523
-1.44389
-1.31995
-1.39547
-1.35477
-1.25653
-1.17412
-1.17117
-1.09774
-0.92866
-0.827789
-0.916331
-0.912285
-0.961115
-1.04852
-1.03518
-1.1753
-1.0826
-1.10265
-1.10474
-1.01786
-1.041
-1.0015
-0.985942
-0.963399
-0.949312
-0.890321
-0.869642
-0.742936
-0.710391
-0.608266
-0.49495
-0.537946
-0.606945
-0.565122
-0.727998
-0.67811
-0.648387
-0.69416
-0.618604
-0.602885
-0.659763
-0.580634
-0.577741
-0.58804
-0.580213
-0.535211
-0.4654
-0.498517
-0.432037
-0.356402
-0.201473
-0.224783
-0.231812
-0.24905
-0.224628
-0.225711
-0.249211
-0.169692
-0.229871
-0.252977
-0.166758
-0.164948
-0.216834
-0.240364
-0.209406
-0.100592
-0.192881
-0.196841
-0.118058
-0.194583
-2.77416
-2.95847
-3.26117
-3.3848
-3.55702
-3.53585
-3.50356
-3.57414
-3.51126
-3.42005
-3.36714
-3.30739
-3.25825
-3.06856
-3.03964
-2.95606
-2.70471
-2.46623
-2.15199
-1.93856
-2.45248
-2.64053
-2.86887
-2.97991
-3.12477
-3.15556
-3.13152
-3.09383
-3.06593
-3.09729
-3.01017
-2.96928
-2.89527
-2.77698
-2.74447
-2.61103
-2.38923
-2.22153
-1.9779
-1.69434
-2.15339
-2.26078
-2.44632
-2.64303
-2.62851
-2.72457
-2.69934
-2.79679
-2.66997
-2.56642
-2.61527
-2.55429
-2.51801
-2.43533
-2.37484
-2.22687
-2.13456
-1.92011
-1.70381
-1.5738
-1.78204
-1.95969
-2.03478
-2.11855
-2.20916
-2.28995
-2.25497
-2.23383
-2.20131
-2.18138
-2.15192
-2.12716
-2.08755
-2.06208
-1.95961
-1.88516
-1.77486
-1.60337
-1.46702
-1.31762
-1.39057
-1.50706
-1.60794
-1.64942
-1.81883
-1.78129
-1.765
-1.76988
-1.83402
-1.76484
-1.76781
-1.68255
-1.70285
-1.67751
-1.55885
-1.50362
-1.42922
-1.33283
-1.19239
-1.05007
-1.02763
-1.17229
-1.15325
-1.17031
-1.27011
-1.26339
-1.22503
-1.32151
-1.27151
-1.26382
-1.21926
-1.28324
-1.24074
-1.20754
-1.17568
-1.1508
-1.01144
-0.92539
-0.808573
-0.72058
-0.543699
-0.632444
-0.690903
-0.815627
-0.756908
-0.749534
-0.75475
-0.798178
-0.763426
-0.734744
-0.742484
-0.755362
-0.798287
-0.670017
-0.704402
-0.704865
-0.634567
-0.60854
-0.516501
-0.416415
-0.218848
-0.243625
-0.257274
-0.175413
-0.287474
-0.192624
-0.297386
-0.253065
-0.245927
-0.284797
-0.196808
-0.205523
-0.221829
-0.235019
-0.337398
-0.196433
-0.205013
-0.191645
-0.217214
-0.124868
-3.02968
-3.31482
-3.54829
-3.77395
-3.96353
-4.0128
-4.0247
-4.03851
-3.98837
-3.93317
-3.97823
-3.8565
-3.85512
-3.62981
-3.57084
-3.33948
-3.16657
-2.95852
-2.57781
-2.2481
-2.71756
-2.88402
-3.15228
-3.28345
-3.48655
-3.56611
-3.61907
-3.56079
-3.60386
-3.54286
-3.51215
-3.38768
-3.25898
-3.29071
-3.21333
-3.05662
-2.799
-2.58065
-2.25397
-1.99823
-2.28489
-2.42705
-2.76706
-2.80274
-2.94059
-3.0487
-3.08003
-3.13125
-3.10647
-3.09122
-2.97128
-2.9469
-2.82231
-2.82026
-2.75157
-2.62338
-2.36047
-2.17835
-1.99319
-1.74665
-1.88189
-2.06671
-2.30754
-2.39776
-2.40416
-2.45687
-2.59974
-2.52597
-2.54796
-2.57563
-2.51114
-2.46459
-2.47412
-2.40638
-2.26576
-2.19169
-2.03306
-1.88319
-1.71102
-1.49882
-1.49108
-1.56761
-1.80718
-1.86904
-1.95154
-1.99028
-2.02812
-2.04634
-1.95604
-1.97272
-2.01292
-1.98916
-1.94014
-1.88559
-1.78327
-1.67109
-1.59274
-1.46704
-1.39324
-1.16224
-1.10161
-1.25236
-1.23498
-1.37821
-1.45012
-1.50799
-1.37229
-1.46414
-1.48277
-1.50091
-1.44795
-1.43924
-1.37599
-1.35086
-1.32811
-1.21409
-1.19771
-1.15046
-0.938885
-0.884518
-0.652339
-0.707141
-0.751863
-0.840474
-0.852244
-0.923383
-0.849802
-0.879333
-0.901507
-0.818844
-0.853214
-0.882162
-0.82823
-0.879707
-0.766954
-0.756897
-0.738554
-0.68843
-0.546494
-0.51805
-0.275447
-0.271961
-0.27099
-0.284568
-0.285632
-0.282816
-0.293947
-0.277685
-0.326819
-0.281597
-0.256796
-0.248775
-0.28329
-0.279782
-0.276641
-0.259151
-0.205987
-0.194776
-0.231851
-0.165114
-3.12587
-3.42982
-3.74837
-3.98501
-4.19675
-4.2832
-4.41815
-4.4369
-4.42587
-4.38464
-4.27553
-4.33446
-4.18868
-4.03185
-3.88571
-3.66945
-3.48919
-3.12778
-2.77287
-2.41091
-2.72161
-3.05927
-3.25395
-3.60596
-3.67536
-3.80969
-3.83802
-3.83865
-3.93779
-3.84932
-3.7961
-3.80587
-3.66402
-3.57036
-3.41969
-3.21928
-2.97949
-2.76542
-2.44486
-2.16877
-2.37031
-2.64276
-2.87191
-2.97022
-3.22805
-3.30752
-3.37135
-3.37567
-3.38408
-3.37112
-3.38321
-3.28361
-3.14462
-3.13861
-3.02002
-2.78869
-2.60222
-2.40326
-2.1202
-1.91353
-1.88359
-2.15561
-2.34047
-2.50561
-2.68069
-2.75247
-2.77602
-2.78894
-2.8446
-2.74676
-2.77709
-2.67261
-2.66118
-2.47994
-2.48152
-2.39538
-2.21347
-1.98291
-1.78145
-1.60922
-1.53009
-1.75204
-1.82093
-1.97902
-2.09098
-2.08146
-2.14314
-2.27308
-2.22957
-2.19187
-2.10836
-2.17
-2.09781
-2.05547
-1.96179
-1.82015
-1.83413
-1.52755
-1.38194
-1.30288
-1.08754
-1.18548
-1.32866
-1.42528
-1.48189
-1.5569
-1.58189
-1.63028
-1.59084
-1.6437
-1.53785
-1.57946
-1.56429
-1.50197
-1.40191
-1.3232
-1.22595
-1.13965
-1.01131
-0.956019
-0.625242
-0.706986
-0.840425
-0.911891
-0.884407
-0.971025
-0.98356
-0.995348
-0.869875
-0.95424
-0.883792
-0.952008
-0.97642
-0.914164
-0.923386
-0.777664
-0.740003
-0.665364
-0.587296
-0.468548
-0.21128
-0.214751
-0.269844
-0.311089
-0.268373
-0.280169
-0.329978
-0.35917
-0.317174
-0.289783
-0.314687
-0.293308
-0.221875
-0.283745
-0.287017
-0.325414
-0.271487
-0.253035
-0.251855
-0.161822
-3.04623
-3.40476
-3.77082
-4.09098
-4.38064
-4.44246
-4.63953
-4.67249
-4.75489
-4.61961
-4.60104
-4.62505
-4.43782
-4.31639
-4.12784
-3.85455
-3.5626
-3.22953
-2.84712
-2.45298
-2.67817
-3.0408
-3.34654
-3.5792
-3.77234
-3.94803
-4.04
-4.1588
-4.1272
-4.15042
-4.04706
-4.02575
-3.9346
-3.71358
-3.62147
-3.43482
-3.16811
-2.80488
-2.54534
-2.1135
-2.3228
-2.53932
-2.87207
-3.02807
-3.22832
-3.32856
-3.46033
-3.49174
-3.5691
-3.54495
-3.46212
-3.45342
-3.35804
-3.25448
-3.15857
-2.93221
-2.72598
-2.42231
-2.2186
-1.92834
-1.88332
-2.13748
-2.3186
-2.59291
-2.66036
-2.77416
-2.85371
-2.839
-2.93283
-2.91112
-2.8822
-2.85864
-2.79016
-2.76185
-2.60053
-2.42489
-2.19382
-2.01903
-1.89717
-1.56664
-1.51913
-1.64522
-1.85924
-2.0438
-2.14314
-2.16924
-2.21643
-2.28275
-2.28741
-2.34479
-2.24588
-2.24133
-2.22245
-2.21759
-2.09682
-1.86719
-1.72995
-1.64694
-1.36676
-1.29608
-1.09681
-1.16263
-1.33428
-1.45172
-1.5284
-1.5331
-1.69725
-1.69832
-1.62653
-1.6585
-1.60207
-1.61096
-1.57432
-1.53745
-1.45936
-1.39569
-1.33247
-1.18172
-1.07137
-0.862137
-0.711772
-0.73415
-0.826181
-0.814455
-0.892631
-0.987176
-0.992993
-1.00358
-1.01316
-0.999209
-0.939934
-0.963813
-0.894021
-0.986584
-0.95591
-0.901805
-0.791555
-0.716012
-0.630311
-0.570686
-0.226376
-0.270072
-0.213941
-0.375481
-0.300347
-0.316567
-0.36517
-0.303087
-0.387528
-0.271769
-0.299676
-0.362862
-0.307886
-0.364124
-0.327824
-0.313333
-0.282957
-0.268365
-0.229024
-0.220557
-2.87096
-3.24642
-3.74167
-4.02346
-4.30159
-4.47194
-4.55007
-4.64237
-4.66607
-4.77702
-4.74997
-4.60682
-4.49462
-4.39956
-4.13635
-3.9506
-3.60933
-3.21761
-2.72131
-2.29954
-2.52198
-2.8855
-3.17592
-3.56018
-3.75096
-3.98377
-4.06116
-4.07608
-4.1964
-4.1734
-4.19197
-4.10677
-3.97877
-3.88685
-3.66423
-3.44222
-3.15438
-2.7806
-2.34508
-1.99966
-2.14608
-2.42604
-2.71827
-3.05808
-3.22235
-3.38836
-3.46124
-3.58456
-3.54362
-3.56224
-3.57293
-3.56603
-3.43295
-3.31545
-3.16162
-2.94008
-2.67243
-2.43566
-2.08688
-1.78762
-1.76258
-2.05563
-2.31603
-2.46078
-2.62434
-2.84976
-2.78492
-2.94584
-2.93497
-2.92645
-2.99811
-2.86454
-2.87318
-2.81834
-2.60483
-2.47526
-2.29271
-2.04496
-1.72336
-1.46498
-1.35008
-1.61809
-1.70659
-1.96808
-2.07137
-2.20728
-2.24132
-2.29662
-2.38664
-2.38732
-2.32251
-2.23738
-2.2471
-2.19299
-2.01562
-1.93635
-1.82312
-1.57739
-1.36836
-1.21902
-0.960664
-1.11764
-1.25409
-1.3468
-1.48865
-1.5591
-1.63673
-1.66682
-1.70693
-1.68055
-1.69958
-1.62035
-1.65259
-1.52265
-1.44975
-1.35853
-1.27545
-1.15849
-0.943211
-0.810095
-0.623425
-0.751104
-0.749643
-0.878144
-0.940733
-0.962068
-1.05733
-1.042
-0.969525
-1.0974
-0.99891
-0.969353
-0.946511
-0.963898
-0.879316
-0.827098
-0.823185
-0.687332
-0.556923
-0.560477
-0.222813
-0.210303
-0.27195
-0.248216
-0.248876
-0.297985
-0.276151
-0.329665
-0.326823
-0.360759
-0.382976
-0.359182
-0.305642
-0.323081
-0.3126
-0.301966
-0.252188
-0.217753
-0.226734
-0.120716
-2.62828
-2.8752
-3.38664
-3.78483
-4.0888
-4.34508
-4.55579
-4.63511
-4.69668
-4.67062
-4.65371
-4.59128
-4.44657
-4.24167
-4.01004
-3.74969
-3.35536
-2.94391
-2.47718
-2.08999
-2.19929
-2.53034
-2.95927
-3.35988
-3.57764
-3.81914
-3.96027
-4.01325
-4.13372
-4.14981
-4.07424
-3.95015
-3.9154
-3.78842
-3.61751
-3.34209
-3.02536
-2.61991
-2.21946
-1.78179
-1.85948
-2.2281
-2.5351
-2.86875
-3.02726
-3.18438
-3.41531
-3.46061
-3.49673
-3.57219
-3.56404
-3.43154
-3.3925
-3.24576
-3.01954
-2.88613
-2.55565
-2.3427
-1.85765
-1.57116
-1.55682
-1.80891
-2.16273
-2.30944
-2.45257
-2.75647
-2.84196
-2.86672
-2.93378
-2.96444
-2.98826
-2.88018
-2.8423
-2.67402
-2.45797
-2.37083
-2.05341
-1.87873
-1.63764
-1.37146
-1.23138
-1.39611
-1.64037
-1.82202
-2.02552
-2.12584
-2.15618
-2.21164
-2.34835
-2.3153
-2.34317
-2.27358
-2.13241
-2.06847
-2.0476
-1.85332
-1.65941
-1.49247
-1.25211
-0.986331
-0.899774
-0.996445
-1.10633
-1.26796
-1.43522
-1.54379
-1.57592
-1.67145
-1.61852
-1.67803
-1.65202
-1.56132
-1.64703
-1.45144
-1.54376
-1.35762
-1.16076
-1.0779
-0.913596
-0.741231
-0.555205
-0.670453
-0.758329
-0.765557
-0.878901
-0.913657
-0.959561
-1.04455
-1.00724
-1.0407
-1.0098
-0.970311
-0.959959
-0.888024
-0.838091
-0.839454
-0.705552
-0.627903
-0.5293
-0.469959
-0.215435
-0.16207
-0.198393
-0.269575
-0.290859
-0.321996
-0.272643
-0.412156
-0.328024
-0.276836
-0.364543
-0.298411
-0.36662
-0.30227
-0.230591
-0.282002
-0.290115
-0.247585
-0.185778
-0.130414
-2.04611
-2.45539
-2.92617
-3.31686
-3.73985
-4.02859
-4.21326
-4.27023
-4.45806
-4.46587
-4.40706
-4.36625
-4.18312
-4.01384
-3.73798
-3.41215
-3.06209
-2.64765
-2.15478
-1.55714
-1.70366
-2.14684
-2.51811
-2.8999
-3.25226
-3.50222
-3.603
-3.84195
-3.90581
-3.93874
-3.8517
-3.81935
-3.71399
-3.54417
-3.30272
-2.93665
-2.72769
-2.29196
-1.9233
-1.40062
-1.52735
-1.84967
-2.12926
-2.54171
-2.73592
-3.00827
-3.14731
-3.28577
-3.33799
-3.3281
-3.29288
-3.29311
-3.16798
-3.03484
-2.80639
-2.58933
-2.37486
-2.00148
-1.53939
-1.23848
-1.17987
-1.54921
-1.82763
-2.06871
-2.26402
-2.39915
-2.63567
-2.72445
-2.78503
-2.84966
-2.73433
-2.70013
-2.6174
-2.48749
-2.30458
-2.20193
-1.96871
-1.68476
-1.30331
-1.10678
-1.03116
-1.16737
-1.40599
-1.60492
-1.7841
-1.97026
-2.03328
-2.10946
-2.1191
-2.17671
-2.20931
-2.11304
-2.09216
-1.94619
-1.78564
-1.65914
-1.48095
-1.28253
-1.0487
-0.811279
-0.708818
-0.888568
-0.987154
-1.17467
-1.26116
-1.40966
-1.48899
-1.51049
-1.51563
-1.61872
-1.58719
-1.56144
-1.51341
-1.40276
-1.32621
-1.26544
-1.00658
-0.815794
-0.752938
-0.559479
-0.422333
-0.488129
-0.614725
-0.700457
-0.827662
-0.879586
-0.935555
-0.932298
-0.899048
-0.95379
-0.983922
-0.953018
-0.892544
-0.902758
-0.802042
-0.75262
-0.680515
-0.562636
-0.481423
-0.394244
-0.10727
-0.201465
-0.203459
-0.224623
-0.24976
-0.296392
-0.331169
-0.337773
-0.308019
-0.283879
-0.288386
-0.360627
-0.318445
-0.29586
-0.22879
-0.213195
-0.254524
-0.309098
-0.16842
-0.139258
-1.36161
-1.76028
-2.39971
-2.75784
-3.20244
-3.49055
-3.72047
-3.93504
-4.09263
-4.0895
-3.96671
-3.92441
-3.82493
-3.5717
-3.27647
-2.98026
-2.52295
-2.08059
-1.55787
-1.03857
-1.16232
-1.59608
-2.00016
-2.47196
-2.77066
-3.02248
-3.33451
-3.48989
-3.44703
-3.62186
-3.54042
-3.51274
-3.27355
-3.20824
-2.87409
-2.62088
-2.23454
-1.84889
-1.32204
-0.979895
-1.07075
-1.28875
-1.73196
-2.14005
-2.35707
-2.66625
-2.81812
-2.94332
-2.96517
-3.02674
-2.9856
-2.95135
-2.85161
-2.71295
-2.52116
-2.27074
-1.9252
-1.57703
-1.10346
-0.783603
-0.873491
-1.12084
-1.42476
-1.69148
-1.90137
-2.15871
-2.29011
-2.38614
-2.52572
-2.46792
-2.54415
-2.44022
-2.38819
-2.23901
-2.00974
-1.84699
-1.61409
-1.2848
-0.935666
-0.680056
-0.676343
-0.864743
-1.11794
-1.41711
-1.54356
-1.74227
-1.78828
-1.82297
-1.96365
-1.9894
-1.92486
-1.89921
-1.88894
-1.77955
-1.62042
-1.46005
-1.27092
-1.00383
-0.767601
-0.471878
-0.469167
-0.643555
-0.774921
-0.966438
-1.08602
-1.15637
-1.28929
-1.35277
-1.41259
-1.40107
-1.39739
-1.36746
-1.31153
-1.2473
-1.16218
-1.05422
-0.87522
-0.72446
-0.558138
-0.450319
-0.262124
-0.31486
-0.469664
-0.56243
-0.620064
-0.683031
-0.776145
-0.830382
-0.792286
-0.894233
-0.869295
-0.853031
-0.778915
-0.737804
-0.800021
-0.639042
-0.576449
-0.392962
-0.376693
-0.174332
-0.103058
-0.168543
-0.161864
-0.185773
-0.240858
-0.234535
-0.302477
-0.365363
-0.325429
-0.338998
-0.30095
-0.178246
-0.237295
-0.246729
-0.279132
-0.211393
-0.216646
-0.21897
-0.088144
-0.0807402
-0.451199
-1.03493
-1.56181
-2.0874
-2.50074
-2.84829
-3.13198
-3.29544
-3.34976
-3.48301
-3.41921
-3.27692
-3.11765
-2.98329
-2.71171
-2.3069
-1.8268
-1.33742
-0.796486
-0.253958
-0.383957
-0.891499
-1.32933
-1.80974
-2.1994
-2.52116
-2.72067
-2.92816
-2.99031
-3.03252
-3.0288
-2.98654
-2.80346
-2.64584
-2.42202
-2.10623
-1.68826
-1.22107
-0.71292
-0.279926
-0.391664
-0.781686
-1.18681
-1.53716
-1.82179
-2.15665
-2.29977
-2.42267
-2.61081
-2.63557
-2.57704
-2.55623
-2.40236
-2.2689
-2.00808
-1.73876
-1.39207
-1.04157
-0.698867
-0.29685
-0.308288
-0.706383
-0.951729
-1.33653
-1.56848
-1.76634
-1.88466
-2.03857
-2.0945
-2.08454
-2.07848
-2.0709
-1.95096
-1.91203
-1.67492
-1.45938
-1.15147
-0.836102
-0.565952
-0.201088
-0.254313
-0.551104
-0.758445
-0.994871
-1.25029
-1.37974
-1.5278
-1.63228
-1.65579
-1.71452
-1.64039
-1.59869
-1.55618
-1.43628
-1.29262
-1.20533
-0.995407
-0.71412
-0.388923
-0.184661
-0.223605
-0.345982
-0.515718
-0.662401
-0.91364
-1.0243
-1.14777
-1.10138
-1.14473
-1.15794
-1.1959
-1.17536
-1.15008
-1.0515
-0.982879
-0.821738
-0.707592
-0.471178
-0.297486
-0.181404
-0.0794071
-0.25174
-0.381364
-0.444167
-0.549554
-0.632758
-0.654138
-0.653925
-0.728959
-0.705973
-0.751881
-0.685866
-0.688397
-0.639604
-0.58976
-0.501817
-0.415896
-0.330225
-0.239957
-0.120108
-0.0472443
-0.106651
-0.0952462
-0.178859
-0.181195
-0.227371
-0.191311
-0.164533
-0.284741
-0.287902
-0.250968
-0.268167
-0.296544
-0.26043
-0.163407
-0.160109
-0.14104
-0.0764589
-0.0612803
-0.0204227
0.419985
-0.0807439
-0.705923
-1.26996
-1.65583
-2.06857
-2.32542
-2.53909
-2.67019
-2.64835
-2.7089
-2.62737
-2.47645
-2.27044
-1.90558
-1.59734
-1.08678
-0.591182
-0.0163185
0.572721
0.409207
-0.148313
-0.539493
-1.0954
-1.43768
-1.80156
-2.09428
-2.1877
-2.37463
-2.34761
-2.40543
-2.27647
-2.16627
-2.03433
-1.74008
-1.33606
-0.977699
-0.533849
0.0745753
0.51735
0.33513
-0.070067
-0.48631
-0.861835
-1.18882
-1.47381
-1.78902
-1.87544
-1.98792
-2.04715
-2.03107
-2.03328
-1.81166
-1.70526
-1.454
-1.20635
-0.843787
-0.394646
0.0440846
0.365792
0.257475
-0.0754805
-0.35876
-0.779051
-1.02347
-1.30679
-1.47052
-1.56741
-1.67532
-1.66541
-1.64139
-1.68195
-1.59516
-1.38432
-1.21723
-0.989648
-0.737474
-0.373339
0.00389488
0.312628
0.202228
-0.0675676
-0.325733
-0.624145
-0.841656
-1.01769
-1.11379
-1.2023
-1.32997
-1.35812
-1.3311
-1.28324
-1.19181
-1.11436
-1.00653
-0.776614
-0.51845
-0.352764
-0.0165552
0.21216
0.163221
0.0147549
-0.286405
-0.457082
-0.616738
-0.754705
-0.846782
-0.91767
-0.894338
-0.947164
-0.961726
-0.905028
-0.866887
-0.804164
-0.709807
-0.586158
-0.359225
-0.205507
-0.0374743
0.192888
0.0863644
-0.0469276
-0.108912
-0.28468
-0.393101
-0.441237
-0.495204
-0.523922
-0.579599
-0.56355
-0.550677
-0.556328
-0.51711
-0.481733
-0.385325
-0.336019
-0.230104
-0.109407
-0.0785435
0.0320889
0.00802758
0.00483072
-0.0665632
-0.0930362
-0.174877
-0.186294
-0.180361
-0.07528
-0.268829
-0.171282
-0.205592
-0.171212
-0.188129
-0.204016
-0.156159
-0.161636
-0.0454302
0.0249724
-0.00426282
0.0378278
1.43146
0.89356
0.263478
-0.32142
-0.786725
-1.27064
-1.48061
-1.7414
-1.82081
-1.94587
-1.92204
-1.8142
-1.64284
-1.48874
-1.18055
-0.727201
-0.263351
0.267576
0.926536
1.53028
1.24023
0.700626
0.15338
-0.226063
-0.710993
-1.09479
-1.32686
-1.51256
-1.59783
-1.73867
-1.6423
-1.67019
-1.52118
-1.31713
-1.00691
-0.650464
-0.271423
0.247634
0.734463
1.25053
1.05421
0.584348
0.176538
-0.247592
-0.63033
-0.940885
-1.23614
-1.28102
-1.45579
-1.51904
-1.50813
-1.4276
-1.33005
-1.18844
-0.908949
-0.570178
-0.177034
0.207847
0.663908
1.04189
0.800921
0.515524
0.0890849
-0.218616
-0.555005
-0.758097
-0.985635
-1.07559
-1.2313
-1.2839
-1.29549
-1.21026
-1.10141
-0.91239
-0.823437
-0.488916
-0.261395
0.105117
0.442592
0.831626
0.625063
0.368311
0.146234
-0.191224
-0.459011
-0.615185
-0.773838
-0.900633
-0.991808
-0.960203
-1.04601
-0.984879
-0.91066
-0.715346
-0.649431
-0.404536
-0.0999847
0.0930181
0.370138
0.638283
0.464371
0.307679
0.0495577
-0.145512
-0.297774
-0.454373
-0.549165
-0.643664
-0.725683
-0.756553
-0.732989
-0.759417
-0.618701
-0.585823
-0.428137
-0.290889
-0.163851
0.0408692
0.256245
0.403671
0.309835
0.142277
0.0290872
-0.0975738
-0.166781
-0.227962
-0.413593
-0.438213
-0.447648
-0.450025
-0.376171
-0.426225
-0.324572
-0.340998
-0.294986
-0.208684
-0.0325231
0.0680884
0.158256
0.298108
0.0696576
0.0400824
-0.0107931
-0.0685721
-0.0552817
-0.130266
-0.147334
-0.124811
-0.112084
-0.117948
-0.147841
-0.149484
-0.100138
-0.175324
-0.0771281
-0.0692005
0.0492416
0.0428482
0.0283537
-0.00295645
2.19572
1.66443
1.01464
0.439365
-0.0628095
-0.503361
-0.844963
-1.11998
-1.22405
-1.26001
-1.27046
-1.11935
-1.11454
-0.817583
-0.462567
0.00359165
0.456187
1.00161
1.69291
2.21677
1.92589
1.31927
0.828985
0.304044
-0.126462
-0.427554
-0.785511
-0.913496
-1.15047
-1.16745
-1.20033
-1.08071
-0.912917
-0.766441
-0.46592
-0.0613097
0.2956
0.815011
1.42455
1.8692
1.54396
1.09752
0.65062
0.221756
-0.147639
-0.429532
-0.793072
-0.909148
-1.02366
-1.05632
-0.98198
-1.00328
-0.910105
-0.712072
-0.411636
-0.158466
0.263656
0.698904
1.16027
1.54696
1.22148
0.871914
0.543784
0.156593
-0.12506
-0.385242
-0.620201
-0.775956
-0.876716
-0.86619
-0.919387
-0.840019
-0.77136
-0.515725
-0.480696
-0.103098
0.171589
0.509759
0.880479
1.2911
0.9521
0.648775
0.38462
0.111391
-0.177324
-0.331635
-0.449962
-0.651647
-0.73397
-0.71039
-0.731643
-0.686595
-0.594648
-0.502752
-0.344508
-0.178311
0.105951
0.384236
0.757813
0.965983
0.676525
0.446244
0.32934
0.0702505
-0.0356503
-0.300113
-0.267145
-0.445794
-0.534825
-0.550235
-0.531779
-0.511932
-0.423418
-0.433421
-0.216561
-0.153435
0.160219
0.269526
0.433344
0.608196
0.399919
0.246587
0.148429
0.100092