/*--------------------------------*- C++ -*----------------------------------*\
| =========                 |                                                 |
| \\      /  F ield         | OpenFOAM: The Open Source CFD Toolbox           |
|  \\    /   O peration     | Version:  2212                                  |
|   \\  /    A nd           | Website:  www.openfoam.com                      |
|    \\/     M anipulation  |                                                 |
\*---------------------------------------------------------------------------*/
FoamFile
{
    version     2.0;
    format      ascii;
    arch        "LSB;label=32;scalar=64";
    class       volScalarField;
    location    "0";
    object      relativeErrorField;
}
// * * * * * * * * * * * * * * * * * * * * * * * * * * * * * * * * * * * * * //

dimensions      [0 0 0 1 0 0 0];

internalField   nonuniform List<scalar> 
3200
(
0.00815087
0.0087002
0.00884024
0.0091227
0.0095931
0.0103132
0.0113594
0.011721
0.0124938
0.0128224
0.0131823
0.013039
0.0132248
0.0127419
0.0126866
0.0125749
0.0123096
0.0122253
0.0121858
0.0123394
0.00715447
0.00711056
0.00728131
0.00758554
0.00822379
0.00843868
0.00918218
0.00984101
0.0102882
0.010642
0.0110791
0.0109973
0.0109655
0.0108088
0.0107555
0.0103672
0.0104213
0.0102358
0.00993489
0.0104929
0.00584816
0.00586497
0.00578286
0.00627263
0.00653438
0.00713594
0.00782324
0.00820703
0.00846619
0.00880524
0.00922567
0.00923448
0.00877195
0.00873086
0.00889428
0.00861502
0.0084813
0.00835726
0.00852667
0.00859501
0.00497258
0.00466436
0.00478869
0.0049659
0.00521902
0.00586076
0.00605967
0.0062498
0.0067291
0.00683751
0.00730054
0.00729021
0.00712533
0.00709725
0.00707063
0.00701048
0.00665009
0.0065241
0.00681331
0.00697885
0.00368065
0.00334194
0.00363559
0.00395178
0.00412252
0.0043791
0.00453887
0.00495484
0.00524782
0.00549426
0.00547548
0.0056918
0.00546509
0.00549761
0.00547871
0.00530561
0.00526536
0.00520628
0.0055352
0.00539186
0.00236611
0.00239409
0.00241679
0.00244282
0.00303953
0.00291186
0.00321349
0.00336188
0.00369671
0.00361646
0.00372776
0.00405481
0.00394929
0.00391713
0.00390341
0.00390572
0.00373848
0.0036971
0.00347615
0.00381012
0.00160985
0.00151423
0.00152189
0.00165759
0.00187733
0.00186357
0.00203335
0.00228145
0.00226102
0.00235023
0.00214228
0.00243595
0.00248373
0.0022704
0.00217999
0.00208138
0.00217173
0.0022005
0.00227584
0.00235305
0.000250262
0.000586412
0.000305851
0.000384139
0.000633879
0.000686716
0.000599186
0.000779479
0.000669673
0.000836697
0.0010587
0.000730812
0.000776403
0.000686323
0.000639762
0.000748995
0.000878579
0.000713224
0.00074138
0.000689968
0.00622467
0.0063122
0.00639102
0.0068832
0.0074808
0.00796339
0.00857127
0.00908873
0.00977089
0.0102351
0.0106007
0.010489
0.0106336
0.0103669
0.0102738
0.0101395
0.00983239
0.00991832
0.0101106
0.0102062
0.00539818
0.0053703
0.00561098
0.00565329
0.00623943
0.00648628
0.00719973
0.00786657
0.00837034
0.00885148
0.00893293
0.00886077
0.00885303
0.00866202
0.00874255
0.00840774
0.00833875
0.0082473
0.00846875
0.00850021
0.00418791
0.0046964
0.0044481
0.00473354
0.00511112
0.00552434
0.00593587
0.00626676
0.00689669
0.00723935
0.00740374
0.00725669
0.00748306
0.00724038
0.00701822
0.00690741
0.00673047
0.00697465
0.00698269
0.00711301
0.00346137
0.00344586
0.00355396
0.00363116
0.004051
0.00420705
0.00467187
0.00527065
0.00513589
0.00562206
0.00579674
0.00588789
0.00561843
0.00560338
0.00554773
0.00557887
0.00559675
0.00565083
0.00579862
0.00570737
0.00254174
0.00259304
0.00254182
0.00315792
0.00292924
0.00346794
0.00352483
0.00387994
0.00419902
0.00423989
0.00435963
0.00458666
0.00443857
0.00455303
0.00438433
0.00457466
0.0041303
0.00433613
0.00443058
0.00440773
0.00180009
0.0018492
0.00187531
0.00215884
0.00208459
0.00231342
0.00248545
0.00273677
0.00317051
0.00315033
0.00310455
0.00311708
0.00332197
0.00315875
0.0030171
0.00313777
0.00279482
0.00291546
0.00299734
0.00321471
0.000929318
0.00110582
0.00111057
0.00112146
0.00117095
0.00138332
0.00166184
0.00161577
0.00170911
0.00185071
0.0016955
0.00193013
0.00220803
0.00178701
0.00208809
0.00170956
0.00174035
0.00156528
0.00179989
0.00187617
0.000349657
0.000460283
0.000449531
0.000455904
0.000494461
0.000411661
0.000460895
0.000628887
0.000824641
0.000602989
0.00080475
0.000598353
0.000696709
0.000639836
0.000593069
0.000487219
0.000738063
0.000592721
0.000681466
0.000747009
0.00368028
0.00338336
0.00356777
0.00387365
0.00445001
0.00504248
0.00542114
0.00624657
0.00664238
0.00689113
0.00731241
0.00745391
0.00725705
0.00725422
0.00695432
0.00704607
0.00663723
0.00679407
0.00718487
0.0070406
0.00302982
0.0029616
0.00300128
0.00304309
0.00373904
0.00405079
0.00451275
0.0050501
0.00551882
0.00582185
0.00593967
0.0059761
0.0061477
0.00582779
0.00576913
0.00571414
0.00576501
0.00566519
0.00592159
0.00613327
0.0024421
0.00222995
0.00243555
0.00258034
0.00300056
0.00327042
0.00354439
0.00419955
0.00430972
0.00476961
0.00473211
0.00498498
0.00481229
0.00479096
0.00483783
0.00464768
0.00480091
0.00457002
0.00503426
0.00499228
0.00177685
0.00184411
0.00197239
0.00216465
0.00212994
0.00257916
0.00287372
0.00295875
0.00343474
0.00382422
0.00401168
0.00386105
0.00404277
0.00359084
0.00368714
0.00370527
0.0036293
0.00373227
0.00404961
0.00403048
0.00137701
0.00120233
0.0014247
0.00129146
0.00165131
0.00183171
0.00207693
0.00249913
0.00254726
0.00277318
0.00304377
0.00293115
0.00312031
0.00299365
0.00283292
0.00290451
0.00268377
0.0029225
0.00280287
0.00287185
0.000937473
0.000932069
0.00105207
0.00100206
0.00111617
0.00141757
0.00148506
0.0015454
0.00183186
0.00186334
0.00218671
0.00213053
0.00229552
0.00208142
0.00230678
0.00181641
0.0018817
0.00203201
0.00186863
0.0021379
0.000685234
0.000670927
0.000500407
0.000346955
0.000785657
0.000948479
0.0010847
0.00107539
0.0013056
0.00123992
0.00130672
0.00129891
0.00109038
0.00133763
0.00115055
0.0011451
0.000796602
0.00115808
0.00130187
0.00113973
2.567e-05
0.000323692
2.62308e-07
0.000325974
0.000113447
0.000292174
0.00012758
0.000297328
0.000291462
0.000690788
0.000603781
0.000603649
0.00046081
0.000319474
0.00056989
0.000318906
0.000226178
0.000386162
0.000442767
0.00045349
0.000792098
0.0007298
0.000859275
0.000875675
0.00132388
0.00164541
0.00209846
0.00279381
0.00319861
0.00342229
0.00382182
0.00389424
0.00397017
0.0037616
0.00339516
0.00371134
0.00371723
0.00366759
0.00395972
0.00455704
0.000604833
0.000420695
0.000456845
0.000557783
0.000887845
0.00118373
0.00171436
0.00215643
0.00267494
0.00286931
0.00300766
0.00305544
0.00286487
0.0032642
0.00308093
0.00284506
0.0028817
0.00317171
0.00340121
0.00365771
0.000411025
0.000443601
6.02091e-05
0.000226018
0.00050866
0.000656145
0.00125356
0.00172354
0.00207104
0.00226969
0.00225612
0.0025404
0.00225508
0.00236897
0.00225697
0.00243015
0.00224976
0.00250366
0.00269056
0.00292437
0.00031793
0.000162181
0.00019012
0.000205003
0.000255726
0.000493683
0.000751951
0.00113682
0.00138205
0.00157034
0.00184382
0.00210775
0.00167604
0.0018563
0.00162723
0.00170024
0.00181524
0.00176714
0.00193199
0.00228372
0.000140115
0.000112872
8.68215e-06
0.000209749
3.62455e-05
0.000252069
0.000442152
0.000927097
0.000953851
0.00135279
0.00129727
0.00137568
0.00129769
0.00127078
0.00122675
0.00113703
0.00121455
0.00145885
0.00154502
0.00173796
2.76005e-05
9.59904e-06
7.17771e-06
0.000209847
0.000101525
0.00041073
0.000487148
0.00039201
0.00066202
0.000725609
0.000826176
0.00101305
0.000838525
0.00105877
0.000999347
0.000730938
0.00106562
0.000868749
0.00139059
0.00122637
8.51226e-05
0.000103696
0.000247347
1.67045e-05
6.70176e-05
8.40329e-05
3.83359e-05
0.000403786
0.000395047
0.000587742
0.00064552
0.000857777
0.000526378
0.000635926
0.00068073
0.000558881
0.000386174
0.000428792
0.000814851
0.00056867
0.000151428
8.26968e-05
6.11308e-06
0.000177205
0.000130512
0.000141899
0.000163948
0.000350982
5.92551e-05
0.000152828
0.000307008
0.000152257
9.56094e-05
0.000157437
0.000242022
0.00015044
8.15565e-05
0.000101925
0.000103847
0.000159489
0.0017998
0.00185844
0.00199486
0.00205986
0.00184252
0.00135755
0.000857573
0.00059405
4.01986e-05
0.000162276
0.00010233
0.000793894
0.000718514
0.000664004
0.00041324
0.000668125
0.000643762
0.000943857
0.00141135
0.00161816
0.00163748
0.00175329
0.00187654
0.00192364
0.00195772
0.00136147
0.00121137
0.000836936
0.00024169
0.000103284
0.000129736
4.48528e-05
0.00016861
0.000150066
9.87152e-05
0.00022471
0.00023669
0.000659224
0.00075069
0.00132254
0.00138989
0.00152932
0.00189254
0.00205311
0.00171399
0.00144157
0.00115146
0.00093663
0.000500187
0.000251271
0.000149713
0.000144957
0.000114249
0.000213595
0.000177794
4.14785e-05
0.000144656
0.00026221
0.000345143
0.000908931
0.00113111
0.00155246
0.00159424
0.00168641
0.0015126
0.0014173
0.00115124
0.000642928
0.000664342
0.000379552
0.000428335
0.000215502
0.000208153
0.000307012
0.000254798
0.00016079
9.85179e-05
6.02699e-05
0.000426577
0.000898054
0.000870434
0.00138866
0.00151618
0.00142744
0.00136196
0.00106967
0.00090907
0.00109991
0.000563106
0.000560111
0.00025997
0.000133686
0.000262871
0.000433469
0.000425925
9.79631e-05
0.000200021
4.71676e-05
7.06213e-05
0.000455044
0.000908869
0.000825425
0.00101559
0.00127061
0.00113349
0.000986241
0.000750689
0.000620129
0.000540515
0.000297461
0.000125697
0.000321462
9.12733e-05
0.000243411
0.00052854
0.000254484
0.000102907
1.40267e-05
0.000353513
9.19873e-05
0.000487007
0.000651368
0.000638007
0.000554621
0.000528363
0.000558496
0.000646373
0.000407173
0.000303016
0.000155175
0.000125611
6.11791e-05
0.000143555
0.000169418
0.000156283
7.58449e-05
0.000158597
4.89962e-05
9.1373e-05
9.39252e-05
0.000238028
0.000162264
0.000170404
0.000229008
7.33709e-05
0.000277393
0.000152665
1.13498e-05
4.40716e-05
0.000184007
2.46784e-05
5.30795e-05
8.71991e-05
0.000210015
4.13351e-05
8.97483e-05
0.000217676
5.32369e-05
1.78755e-06
4.65072e-05
0.00364401
0.00429293
0.0045269
0.00451312
0.00466125
0.00429762
0.00379937
0.00363526
0.00323094
0.00271087
0.00262405
0.00243677
0.0025379
0.00263284
0.00260203
0.0022876
0.0021522
0.00177415
0.00125362
0.000724124
0.0035616
0.00390596
0.00407918
0.00420842
0.00417201
0.00388548
0.00374887
0.00332033
0.00319339
0.00300196
0.00280034
0.00247185
0.00250205
0.0024162
0.00234321
0.0023268
0.00207588
0.00157715
0.00126235
0.000864854
0.00313586
0.00343094
0.00362557
0.00376824
0.00384525
0.00358632
0.00336983
0.00307802
0.00307782
0.00252111
0.00259335
0.00248282
0.00235019
0.00243795
0.00231029
0.0021195
0.00194137
0.00170071
0.0013177
0.00095407
0.00256424
0.00303994
0.00317638
0.00339382
0.00326059
0.00340804
0.0029405
0.00269432
0.00230686
0.00236279
0.00223818
0.00223917
0.002259
0.00204527
0.00194996
0.00180176
0.00192527
0.00150313
0.0013915
0.00100823
0.00230522
0.00216477
0.00273743
0.00259861
0.00255261
0.00262051
0.00253168
0.00244172
0.00234735
0.00186124
0.00188286
0.00179529
0.00177665
0.00185529
0.00192487
0.00173986
0.00154667
0.00117708
0.00127326
0.00080974
0.00155278
0.00142001
0.00175357
0.00202383
0.00205452
0.00183193
0.00174623
0.00179272
0.00153394
0.00138903
0.00141772
0.00148732
0.00156394
0.00121373
0.00117341
0.00117514
0.00102572
0.000847726
0.000924845
0.000840648
0.000877054
0.00111132
0.00121407
0.00127511
0.00102623
0.00118553
0.0010564
0.00102585
0.000965031
0.000824084
0.000824782
0.000776867
0.000957776
0.000878335
0.000912857
0.000934597
0.00092114
0.000535337
0.000471092
0.0003814
0.000387489
0.000461538
0.000339122
0.000415241
0.000332359
0.000482178
0.000473359
0.00038195
0.000218306
0.000159422
0.000161019
0.000263478
0.000518598
0.000296083
8.39406e-05
0.000215487
0.000455554
0.000558891
8.85189e-05
0.000141707
0.00566949
0.00622906
0.00657334
0.0068945
0.00717833
0.006952
0.006536
0.00621214
0.0061358
0.00581271
0.00548471
0.00542819
0.00536176
0.0051826
0.00497525
0.00489187
0.00449362
0.00397965
0.00355922
0.00280498
0.00514619
0.0057513
0.00606644
0.00628837
0.00622043
0.0061489
0.00596174
0.0056424
0.00528412
0.00524761
0.00535155
0.00518414
0.00480563
0.00499006
0.00472189
0.00422237
0.00425757
0.00386919
0.00317639
0.00265034
0.00458607
0.00481498
0.00529058
0.00535438
0.00575907
0.00553528
0.00536272
0.00506899
0.00472771
0.00489929
0.00453321
0.00468631
0.00472639
0.00448574
0.00403905
0.00413164
0.00379438
0.00332268
0.00277994
0.00240569
0.0038464
0.00413096
0.00446304
0.0045366
0.00476246
0.00467765
0.00446995
0.00432659
0.00444455
0.00408559
0.00408211
0.00383155
0.00389248
0.00360853
0.00393154
0.00355281
0.00312784
0.00301532
0.00247493
0.00214148
0.00299053
0.0034692
0.00350526
0.00384739
0.00385161
0.00402083
0.00362833
0.00342645
0.00344742
0.00318271
0.00324583
0.0032577
0.00331576
0.00308194
0.0031312
0.00271299
0.00258386
0.00236259
0.00212412
0.00179733
0.00232209
0.00261944
0.00259195
0.00279446
0.00295259
0.00285883
0.00280221
0.00279398
0.0025526
0.00270689
0.00226364
0.00253649
0.00212029
0.00225686
0.00242951
0.00214542
0.00212845
0.00167938
0.00135034
0.00141009
0.00138289
0.00155089
0.00170006
0.00198257
0.0018434
0.00179142
0.00148243
0.00151105
0.00130953
0.00161928
0.00152673
0.00144931
0.00166079
0.00146825
0.00150421
0.00112749
0.00124764
0.001212
0.000994443
0.00073704
0.000517337
0.000551216
0.000547635
0.000508846
0.000596425
0.00070799
0.000476211
0.000676967
0.000538302
0.000511666
0.000491408
0.000434414
0.000326178
0.000550284
0.000434733
0.000465491
0.000811693
0.000217585
0.000273106
0.000428322
0.0073352
0.00789881
0.00842173
0.00880666
0.00903789
0.00904165
0.00877618
0.00879601
0.00837284
0.00838374
0.0082959
0.0079564
0.00788948
0.00775642
0.00734724
0.00701972
0.00664858
0.00604928
0.00532881
0.00465406
0.0066749
0.00701302
0.0075044
0.00795501
0.0080211
0.00841312
0.0079506
0.00798851
0.00774233
0.00760771
0.00742422
0.00712222
0.00744566
0.00674847
0.00668223
0.00649112
0.0061456
0.0054256
0.00481039
0.00415129
0.00573646
0.0061121
0.00671157
0.00707662
0.00722743
0.00724956
0.00705985
0.00704623
0.00678751
0.00662677
0.00653503
0.00633237
0.00627347
0.00601782
0.00592823
0.00560522
0.00547797
0.0049464
0.00434981
0.00393439
0.00504625
0.00533468
0.00548892
0.00572644
0.00600512
0.00589077
0.00606348
0.00609088
0.0058474
0.00547563
0.00539886
0.00570926
0.00537877
0.00515963
0.00498844
0.00491463
0.00462617
0.00410545
0.00363094
0.00308591
0.00389602
0.00401947
0.00447823
0.00448519
0.00468315
0.00479805
0.00473906
0.00490773
0.00451888
0.00463242
0.00460561
0.00421065
0.00445233
0.00432356
0.00401123
0.00374937
0.00374123
0.00350783
0.00296846
0.00264665
0.00296398
0.0029504
0.00310762
0.00338942
0.00334547
0.00379741
0.00349713
0.00356127
0.00356757
0.00328679
0.00336149
0.00323416
0.00318433
0.00311207
0.00306722
0.00287731
0.00281117
0.00240217
0.00229746
0.0019675
0.00162007
0.00176062
0.00198618
0.00184904
0.00238161
0.00221808
0.00212058
0.00227004
0.0020228
0.00197132
0.0021573
0.00189864
0.00188933
0.00192321
0.00189786
0.00175092
0.00152276
0.00163136
0.001414
0.00116657
0.000667462
0.00074466
0.000767911
0.000824974
0.000744039
0.000747587
0.000825385
0.000561999
0.000761283
0.000837793
0.000552261
0.000546273
0.000718127
0.000796084
0.000693583
0.000333192
0.000638912
0.000652064
0.000391101
0.000644635
0.00847246
0.00903094
0.0099489
0.0103194
0.0108374
0.0107662
0.0106619
0.0108716
0.0106768
0.0103977
0.0102368
0.0100569
0.00991079
0.0093381
0.00925528
0.00900638
0.00824595
0.00752378
0.00656909
0.00592049
0.00757016
0.00814723
0.00884704
0.00918428
0.00962524
0.00971482
0.00963607
0.00951627
0.00942767
0.00952269
0.00925484
0.00913049
0.0089055
0.0085451
0.00844923
0.00804277
0.00736376
0.00685079
0.00610272
0.00522998
0.00672052
0.00705321
0.0076286
0.00823805
0.0081888
0.00848412
0.00840202
0.00870234
0.00830566
0.00798252
0.00813447
0.0079458
0.00783488
0.00758025
0.00739508
0.00693755
0.0066532
0.00598768
0.00531557
0.00491168
0.00562504
0.00618405
0.00641861
0.00668018
0.00696308
0.00721495
0.00710228
0.00703367
0.00692985
0.00686637
0.00677365
0.00669641
0.00657309
0.00649475
0.00617415
0.00594189
0.00559649
0.00505776
0.00462937
0.0041591
0.00444083
0.0048118
0.00513238
0.00526312
0.00580185
0.00568038
0.00562691
0.00564118
0.00584469
0.00562374
0.00563318
0.00536196
0.00542755
0.00534796
0.00497103
0.00479636
0.0045605
0.00425425
0.00380712
0.00335344
0.0033212
0.00378811
0.00372582
0.00378006
0.00410146
0.00407887
0.00395424
0.00426498
0.00410314
0.00407807
0.00393427
0.00414098
0.00400429
0.00389781
0.00379571
0.0037162
0.00326693
0.00298966
0.00261281
0.00232884
0.00177872
0.00206885
0.00225979
0.00266737
0.002475
0.00245056
0.00246731
0.00260902
0.00249525
0.00240141
0.00242671
0.00246889
0.00260938
0.00219031
0.002303
0.00230482
0.00207525
0.0019904
0.00168958
0.00136231
0.000724899
0.00080694
0.000852113
0.000580956
0.000952047
0.000637898
0.000984788
0.000837991
0.000814338
0.000943033
0.000651681
0.000680547
0.000734559
0.000778259
0.00111733
0.000650541
0.00067899
0.000634744
0.00071946
0.000413606
0.00922866
0.0100926
0.0107974
0.0114771
0.0120464
0.0121892
0.0122191
0.0122558
0.0121
0.0119307
0.0120674
0.0116999
0.0116993
0.0110202
0.0108467
0.0101497
0.00962998
0.00900271
0.00784865
0.00684791
0.00836907
0.00887824
0.00969923
0.0100975
0.0107164
0.0109555
0.0111132
0.0109302
0.0110595
0.0108708
0.0107766
0.0103961
0.0100038
0.0101049
0.00987173
0.00939499
0.00860769
0.00794038
0.00693866
0.00615379
0.00711675
0.00755706
0.00861214
0.00871926
0.00914398
0.00947607
0.0095698
0.00972585
0.00964672
0.00959822
0.00922579
0.00915119
0.00876627
0.00876269
0.00855253
0.00815758
0.00734334
0.00677984
0.00620617
0.00544029
0.00593041
0.00651109
0.00726728
0.0075486
0.00756593
0.00772908
0.00817591
0.00794187
0.0080095
0.00809569
0.007893
0.00774743
0.00777884
0.00756784
0.00712784
0.00689729
0.00640045
0.00593087
0.0053905
0.00472324
0.00475561
0.00499865
0.00576098
0.00595644
0.00621755
0.00633918
0.00645809
0.00651476
0.00622639
0.00627898
0.00640693
0.0063318
0.00617666
0.00600425
0.00567984
0.00532404
0.00507588
0.00467668
0.00444265
0.0037068
0.0035569
0.00404305
0.00398617
0.0044475
0.00467857
0.00486429
0.00442577
0.00472129
0.00478087
0.00483909
0.00466835
0.00464052
0.00443703
0.00435665
0.00428405
0.00391707
0.00386505
0.00371334
0.00303105
0.00285595
0.0021329
0.00231188
0.00245779
0.00274711
0.00278521
0.00301733
0.00277659
0.00287281
0.00294506
0.00267493
0.00278721
0.00288186
0.00270586
0.0028743
0.00250617
0.00247361
0.00241398
0.00225043
0.00178667
0.00169383
0.000912192
0.000900621
0.000897368
0.000942291
0.000945769
0.000936408
0.000973225
0.000919357
0.001082
0.000932278
0.000850168
0.000823621
0.000937914
0.000926326
0.000915964
0.000858088
0.000682087
0.000644991
0.000767793
0.000546804
0.00949403
0.0104128
0.0113739
0.0120852
0.0127203
0.0129756
0.0133782
0.0134298
0.0133928
0.0132661
0.012936
0.0131162
0.0126785
0.0122084
0.0117714
0.0111221
0.0105816
0.00949077
0.0084183
0.00732252
0.00836
0.0093938
0.009987
0.011062
0.0112694
0.011676
0.011758
0.011756
0.0120567
0.0117844
0.0116214
0.0116528
0.0112212
0.010938
0.0104807
0.009871
0.00914017
0.0084876
0.0075072
0.00666184
0.0073665
0.00821069
0.00891914
0.00922063
0.0100168
0.0102594
0.0104538
0.0104642
0.0104881
0.0104468
0.0104843
0.0101767
0.00974796
0.0097321
0.00936766
0.00865347
0.00807822
0.00746369
0.00658718
0.0059469
0.00592482
0.00677876
0.00735774
0.00787416
0.00842146
0.00864418
0.00871563
0.00875409
0.0089273
0.00861947
0.00871464
0.00838752
0.00835309
0.00778605
0.00779326
0.00752516
0.00695606
0.00623366
0.00560216
0.00506179
0.0048729
0.00557867
0.00579652
0.00629808
0.00665259
0.00662061
0.00681522
0.00722711
0.00708781
0.00696751
0.00670205
0.00689843
0.00666984
0.00653646
0.00623997
0.00579092
0.00583697
0.00486264
0.00440023
0.0041493
0.00350775
0.00382311
0.00428409
0.00459474
0.00477627
0.00501711
0.0050968
0.005252
0.00512445
0.00529446
0.00495352
0.0050878
0.00503941
0.00483929
0.00451765
0.00426481
0.00395214
0.00367464
0.00326144
0.00308354
0.00204299
0.00230989
0.00274556
0.00297867
0.00288856
0.0031711
0.00321171
0.00324994
0.00284008
0.00311544
0.00288544
0.00310824
0.00318813
0.0029851
0.00301552
0.00253992
0.00241721
0.00217366
0.00191884
0.00153099
0.000699539
0.000711009
0.000893383
0.00102989
0.000888437
0.000927455
0.0010923
0.0011889
0.00104987
0.00095919
0.00104162
0.000970867
0.000734434
0.00093926
0.000950124
0.00107727
0.000898785
0.00083773
0.000833855
0.000535785
0.00922257
0.0103039
0.0114062
0.0123683
0.0132374
0.0134178
0.0140071
0.0141018
0.014347
0.013937
0.013881
0.0139552
0.0133935
0.0130316
0.0124675
0.0116477
0.0107709
0.00976888
0.00861634
0.00742648
0.00820331
0.00931093
0.0102427
0.01095
0.0115357
0.0120679
0.0123445
0.0127037
0.0126044
0.012674
0.0123583
0.0122946
0.0120188
0.0113471
0.0110698
0.0105036
0.0096923
0.00858488
0.00779382
0.00647373
0.00720122
0.00787026
0.00889836
0.00937808
0.0099945
0.0103011
0.0107055
0.0107999
0.0110372
0.0109614
0.0107053
0.0106794
0.0103864
0.0100687
0.00977503
0.00907777
0.0084425
0.00750489
0.00687626
0.00597831
0.00591195
0.0067082
0.00727447
0.00813254
0.00834145
0.0086957
0.00894271
0.00889471
0.00918729
0.00911854
0.00902794
0.00895488
0.00874167
0.00865487
0.00815143
0.00760316
0.00688081
0.00633458
0.00595404
0.00491785
0.00483022
0.0052302
0.00590914
0.00649412
0.00680808
0.00688942
0.0070378
0.00724717
0.00726108
0.00744279
0.00712882
0.00711483
0.00705572
0.0070415
0.0066594
0.00593148
0.00549689
0.00523441
0.00434495
0.004121
0.00353353
0.00374511
0.00429727
0.00467469
0.00492071
0.004935
0.00546258
0.00546534
0.00523388
0.00533651
0.00515494
0.00518377
0.00506631
0.00494827
0.00469765
0.00449344
0.00429069
0.00380593
0.00345114
0.00277749
0.00232406
0.00239694
0.00269714
0.00265857
0.00291344
0.00322168
0.00324037
0.00327467
0.00330575
0.00326016
0.00306676
0.00314475
0.00291718
0.00321946
0.00311965
0.00294338
0.00258382
0.00233749
0.00205792
0.00186339
0.000749338
0.000893955
0.000708132
0.00124278
0.000994058
0.00104771
0.00120852
0.00100304
0.00128246
0.000899366
0.000991721
0.00120083
0.00101892
0.00120506
0.00108496
0.00103704
0.000936538
0.000888272
0.000758085
0.000730078
0.00866157
0.00979076
0.0112793
0.0121231
0.0129552
0.0134624
0.0136924
0.0139659
0.0140341
0.0143662
0.0142849
0.0138559
0.0135214
0.0132395
0.0124522
0.0118981
0.0108753
0.0096995
0.00820709
0.00693764
0.00770108
0.00880838
0.00969111
0.0108592
0.0114365
0.0121418
0.0123735
0.0124156
0.0127796
0.0127083
0.0127649
0.0125066
0.0121192
0.0118424
0.0111679
0.0104952
0.00962145
0.00848482
0.00715868
0.00610614
0.00663563
0.00749931
0.00839984
0.00944658
0.00995059
0.0104598
0.0106817
0.0110598
0.0109317
0.0109882
0.0110211
0.0110008
0.010592
0.0102318
0.00975989
0.00907893
0.00825529
0.00752654
0.00645092
0.0055273
0.00552066
0.00643715
0.00725057
0.0077015
0.00821104
0.00891393
0.00870904
0.0092105
0.00917528
0.00914797
0.009372
0.00895512
0.00898331
0.00881358
0.00814781
0.00774459
0.00717549
0.00640197
0.00539666
0.00458854
0.00428515
0.00513496
0.00541466
0.00624285
0.00656902
0.00699855
0.00710516
0.00727936
0.00756389
0.00756561
0.00736021
0.00709083
0.00712243
0.00695195
0.00639086
0.00614082
0.00578305
0.00500472
0.00434247
0.00386917
0.00309096
0.00359562
0.00403395
0.00433144
0.00478685
0.00501264
0.00526152
0.00535762
0.00548614
0.00540114
0.0054623
0.00520786
0.00531189
0.00489478
0.00466106
0.00436844
0.00410198
0.00372643
0.00303444
0.0026065
0.00203401
0.0024504
0.0024454
0.00286429
0.00306813
0.00313743
0.00344779
0.00339758
0.00316112
0.00357797
0.00325685
0.00316056
0.00308624
0.00314313
0.00286756
0.00269752
0.00268503
0.00224214
0.00181691
0.00182863
0.000737348
0.000695932
0.000899902
0.000821337
0.000823495
0.000985959
0.000913691
0.00109072
0.0010813
0.00119357
0.00126708
0.00118836
0.00101124
0.00106897
0.00103432
0.000999162
0.000834483
0.000720562
0.000750305
0.000399481
0.00789949
0.00863871
0.0101712
0.0113623
0.0122697
0.0130337
0.013661
0.013895
0.0140769
0.0139974
0.0139467
0.013761
0.0133298
0.0127191
0.0120287
0.011252
0.010073
0.00884154
0.00744285
0.00628161
0.00669329
0.0076986
0.00900037
0.010215
0.010873
0.011603
0.0120282
0.0121861
0.0125498
0.0125976
0.0123681
0.0119925
0.011889
0.0115062
0.0109905
0.0101572
0.00919794
0.00796824
0.00675273
0.00542268
0.00573291
0.00686773
0.0078116
0.00883687
0.00932223
0.00980319
0.0105114
0.0106486
0.0107582
0.0109895
0.0109645
0.0105576
0.010439
0.00998959
0.00929573
0.00888761
0.00787241
0.00721876
0.0057259
0.00484401
0.00486446
0.00565104
0.00675463
0.00721094
0.00765584
0.0086024
0.0088673
0.00894301
0.00915111
0.00924616
0.00932045
0.0089839
0.00886685
0.00834331
0.00767084
0.00740067
0.00641151
0.00586767
0.00511599
0.00428528
0.00390095
0.00442214
0.0051948
0.00576883
0.00641184
0.00672809
0.00682298
0.00699752
0.00742937
0.00732443
0.00741262
0.00719284
0.00674686
0.00654545
0.00648048
0.00586673
0.00525398
0.00472643
0.00396601
0.00312465
0.00289104
0.00320129
0.0035538
0.00407237
0.00460889
0.00495687
0.00505942
0.00536558
0.00519528
0.00538614
0.00530263
0.00501167
0.00528718
0.00465979
0.00495677
0.00435971
0.00372807
0.0034625
0.00293512
0.00238163
0.0018099
0.00218545
0.00247167
0.002495
0.00286414
0.00297715
0.00312649
0.0034032
0.00328151
0.00339043
0.00328978
0.0031612
0.00312761
0.00289341
0.00273092
0.00273559
0.00229944
0.00204657
0.00172533
0.00153201
0.000712725
0.000536166
0.000656311
0.000891765
0.000962143
0.00106511
0.000901835
0.00136328
0.00108499
0.000915665
0.00120577
0.000987038
0.00121266
0.000999833
0.000762759
0.000932847
0.000959713
0.000819043
0.0006146
0.000431451
0.00612481
0.00734769
0.00875317
0.00991802
0.0111786
0.0120375
0.0125854
0.0127524
0.0133111
0.0133332
0.0131576
0.0130369
0.0124923
0.0119897
0.0111691
0.0101991
0.00915619
0.00792003
0.00644813
0.00466114
0.0051663
0.00650851
0.00763157
0.00878565
0.00984992
0.0106037
0.0109059
0.0116267
0.0118181
0.0119168
0.0116535
0.0115565
0.0112394
0.0107278
0.00999968
0.00889405
0.00826393
0.00694616
0.00583082
0.00424734
0.00469438
0.00568375
0.00654105
0.00780582
0.00839987
0.00923361
0.00965814
0.0100812
0.01024
0.010209
0.010101
0.0101024
0.00971979
0.00931301
0.00861395
0.0079498
0.00729342
0.00614851
0.0047303
0.0038065
0.00367712
0.00482731
0.00569353
0.00644303
0.00704965
0.00746876
0.00820349
0.0084785
0.00866612
0.00886669
0.00850785
0.00840195
0.00814537
0.0077423
0.00717436
0.0068563
0.00613156
0.00524846
0.0040611
0.00344933
0.00325999
0.0036901
0.00444357
0.00507131
0.00563643
0.0062235
0.00642159
0.00666137
0.00669123
0.00687283
0.00697577
0.00667209
0.00660673
0.00614655
0.00564034
0.00524165
0.00467957
0.00405339
0.00331499
0.00256484
0.00227409
0.00285049
0.00316633
0.00376728
0.0040441
0.00451975
0.00477358
0.00484205
0.00485825
0.00518853
0.00508745
0.00500507
0.00485143
0.00449712
0.00425218
0.00405785
0.00322819
0.00261669
0.00241539
0.00179497
0.0013755
0.0015897
0.00200182
0.00228081
0.00269479
0.00286363
0.00304564
0.00303487
0.00292653
0.00310465
0.00320274
0.00310221
0.00290546
0.00293888
0.00261117
0.00245046
0.00221587
0.00183219
0.00156786
0.00128402
0.000354773
0.000666287
0.000672867
0.000742834
0.000825941
0.000980125
0.0010951
0.00111692
0.00101852
0.000938692
0.000953593
0.00119248
0.00105301
0.000978345
0.000756577
0.000705025
0.00084172
0.00102223
0.000557002
0.000460567
0.00405829
0.00524504
0.0071479
0.00821171
0.00953233
0.0103867
0.0110678
0.0117035
0.0121703
0.0121601
0.0117949
0.0116701
0.011376
0.0106252
0.00974964
0.00887097
0.00751231
0.00619733
0.00464193
0.00309547
0.00351129
0.00482047
0.00603908
0.00746127
0.00836034
0.00911768
0.0100565
0.0105231
0.0103925
0.0109188
0.0106733
0.0105906
0.0098708
0.00967574
0.00867004
0.00790838
0.00674465
0.00558234
0.00399283
0.00296019
0.00328019
0.0039472
0.00530331
0.00655113
0.00721364
0.00815793
0.00862082
0.00900231
0.00906809
0.00925582
0.00913003
0.00902584
0.00872183
0.00829909
0.00771399
0.00694945
0.00589343
0.00482892
0.00337971
0.00240052
0.00271482
0.00348299
0.00442649
0.00525399
0.00590466
0.00670253
0.00710928
0.00740636
0.00783887
0.0076591
0.00789568
0.0075735
0.00741272
0.00695064
0.00623999
0.00573579
0.0050136
0.00399167
0.00290757
0.00211362
0.0021336
0.00272758
0.00352563
0.00446832
0.00486622
0.00549184
0.0056361
0.00574479
0.00618766
0.00626854
0.0060652
0.00598458
0.00595268
0.00560858
0.00510774
0.00460294
0.00400738
0.00316576
0.00242117
0.00148859
0.00150284
0.00206126
0.00248171
0.00309466
0.00347713
0.00370197
0.00412709
0.00432996
0.00452118
0.00448417
0.00447238
0.00437671
0.00419795
0.00399269
0.00372058
0.00337533
0.00280257
0.00232011
0.00178767
0.00144247
0.00085289
0.00102442
0.00152798
0.00182964
0.00201697
0.00222164
0.00252436
0.00270063
0.00257664
0.00290814
0.00282704
0.00277419
0.00253325
0.00239966
0.00260217
0.0020787
0.00187524
0.00127844
0.00122561
0.000567236
0.000340732
0.000557225
0.000535132
0.000614159
0.000796248
0.000775328
0.000999912
0.00120778
0.00107575
0.0011206
0.000994831
0.000589217
0.000784423
0.000815623
0.000922757
0.000698841
0.000716225
0.000723926
0.000291416
0.000266943
0.00133875
0.00306993
0.0046314
0.00618798
0.00741104
0.00843862
0.00927687
0.00975908
0.00991859
0.0103124
0.0101235
0.00970293
0.00923257
0.00883644
0.00803398
0.00683657
0.00541546
0.00396597
0.00236263
0.000753516
0.0011553
0.00268185
0.00399787
0.00544115
0.0066109
0.00757617
0.00817394
0.00879579
0.00898139
0.00910764
0.00909645
0.00897008
0.00842119
0.00794911
0.00727826
0.00633084
0.0050759
0.00367228
0.00214464
0.000842277
0.00119573
0.002386
0.00362174
0.00468974
0.00555685
0.00657684
0.007012
0.00738563
0.00795836
0.00803338
0.00785499
0.00779199
0.0073237
0.00691787
0.00612375
0.00530358
0.00424711
0.00317852
0.0021332
0.000906265
0.000955427
0.00218884
0.00294852
0.00413981
0.00485734
0.00546912
0.00583458
0.00631026
0.00648284
0.00645172
0.00643298
0.00640979
0.00603907
0.00591932
0.00518604
0.00451947
0.0035666
0.0025903
0.00175369
0.000623201
0.000800446
0.00173438
0.00238655
0.00312999
0.00393298
0.00433958
0.00480467
0.00513275
0.00520632
0.0053908
0.00515772
0.00502677
0.00489344