/*--------------------------------*- C++ -*----------------------------------*\
| =========                 |                                                 |
| \\      /  F ield         | OpenFOAM: The Open Source CFD Toolbox           |
|  \\    /   O peration     | Version:  2212                                  |
|   \\  /    A nd           | Website:  www.openfoam.com                      |
|    \\/     M anipulation  |                                                 |
\*---------------------------------------------------------------------------*/
FoamFile
{
    version     2.0;
    format      ascii;
    arch        "LSB;label=32;scalar=64";
    class       volScalarField;
    location    "0";
    object      relativeErrorField;
}
// * * * * * * * * * * * * * * * * * * * * * * * * * * * * * * * * * * * * * //

dimensions      [0 0 0 1 0 0 0];

internalField   nonuniform List<scalar> 
3200
(
0.009606
0.00965805
0.0101012
0.0105759
0.0113581
0.0126544
0.0135938
0.0143614
0.0151631
0.0155914
0.0156354
0.0153391
0.0151323
0.0140597
0.0132253
0.0124846
0.0118559
0.0113872
0.0112059
0.0110545
0.00778619
0.00807938
0.0081419
0.0088418
0.00952441
0.0102955
0.0111031
0.0119676
0.0127377
0.0129584
0.0132877
0.0128767
0.0124546
0.0118623
0.0110195
0.0101847
0.00965634
0.00945197
0.00903898
0.00887814
0.00632488
0.00664998
0.00665316
0.00718993
0.00768808
0.00841636
0.00907369
0.00981604
0.0103499
0.0106129
0.010663
0.0106949
0.0100954
0.00966968
0.00895695
0.00846112
0.00767405
0.00755518
0.00730125
0.00733567
0.00519925
0.00531112
0.0055278
0.00562623
0.00607202
0.00686835
0.00730862
0.00796747
0.00817101
0.00836212
0.00838661
0.00851381
0.00823459
0.00756457
0.00696559
0.00660547
0.00615955
0.00598347
0.00592791
0.00557065
0.00387967
0.00366169
0.00418393
0.00438824
0.0045484
0.00517418
0.00549154
0.00612015
0.00633695
0.00658418
0.00631294
0.00638135
0.00602901
0.00557984
0.00534638
0.00513509
0.00467447
0.00448032
0.00440514
0.00437517
0.00271534
0.00267491
0.00297146
0.00277401
0.00307917
0.00373973
0.00407719
0.00411345
0.0045671
0.00448561
0.00478391
0.00454708
0.00435884
0.00404358
0.00377183
0.00345958
0.00341379
0.00296358
0.00306809
0.00299113
0.00159372
0.00138536
0.00148944
0.00171256
0.00196898
0.00216156
0.00228127
0.00242012
0.00258388
0.00279543
0.00284285
0.00253603
0.0023931
0.00236876
0.00210013
0.00208814
0.00192447
0.00173667
0.0015127
0.00180051
0.000545259
0.00060691
0.000665876
0.000587317
0.000655811
0.000494593
0.000812665
0.000839838
0.00099261
0.00079963
0.000863449
0.000794663
0.00118742
0.000836973
0.000667448
0.000742974
0.000635342
0.000538608
0.000774558
0.000591128
0.00738022
0.00750883
0.007769
0.00834701
0.00916152
0.01008
0.0110078
0.0116622
0.0126424
0.0131875
0.013556
0.0128546
0.0124184
0.0117621
0.0107344
0.0102856
0.00974153
0.00899489
0.00923091
0.00913377
0.00641704
0.00616544
0.00642365
0.00692481
0.00768126
0.00851951
0.00942589
0.0100688
0.0105455
0.010941
0.0110564
0.0108294
0.0104201
0.00963852
0.00886472
0.00834934
0.00783493
0.00746513
0.00733021
0.00748798
0.00485286
0.00542354
0.00509169
0.00560365
0.00617789
0.00668908
0.00753552
0.00827416
0.00869041
0.00897161
0.00899413
0.00876452
0.00859273
0.00782356
0.00725465
0.00661637
0.00628613
0.00610388
0.00586899
0.00597465
0.00415669
0.00404964
0.00402334
0.00461273
0.00478784
0.00524357
0.00564364
0.00643963
0.00672974
0.00697968
0.0070932
0.00726338
0.00658376
0.00627209
0.00573209
0.0053525
0.00482336
0.00464077
0.00455089
0.00468438
0.00319987
0.00328696
0.00319738
0.00350098
0.00374201
0.00393512
0.00450551
0.00510006
0.00536032
0.00548964
0.0055023
0.00532113
0.00500259
0.00470595
0.00442215
0.00376605
0.00370676
0.00337488
0.00351022
0.00368802
0.00222253
0.0021693
0.00188007
0.00252105
0.00233376
0.00288796
0.00332805
0.00354094
0.00357895
0.00361686
0.00376893
0.00393858
0.00349936
0.00313761
0.00290271
0.00264132
0.00257644
0.00229729
0.00233043
0.00257369
0.00136825
0.00134844
0.00160389
0.00161672
0.00141093
0.00160761
0.00176231
0.00206738
0.00227732
0.00215839
0.0022365
0.00202717
0.00210267
0.00172815
0.00188507
0.00177173
0.00148645
0.00136018
0.00125434
0.00139543
0.00053615
0.000377167
0.000510639
0.000441509
0.000644382
0.000492666
0.00067587
0.000713755
0.000646675
0.000626388
0.000813022
0.000810354
0.000626019
0.000677883
0.000492203
0.000743584
0.000547693
0.000409234
0.000407253
0.000485322
0.0047597
0.00483915
0.00491137
0.00549238
0.00612473
0.00698152
0.00788046
0.00859854
0.0094119
0.00988623
0.0096773
0.00967588
0.00918427
0.00833415
0.00773088
0.00710527
0.00656866
0.00653493
0.00623914
0.00651195
0.00383485
0.00391278
0.00412206
0.00444605
0.00492176
0.00576552
0.0064111
0.0072584
0.00787376
0.00816686
0.00808226
0.00781251
0.00758517
0.00684179
0.00639997
0.00572652
0.00544413
0.00505156
0.00514443
0.00495737
0.00323651
0.00309034
0.0033136
0.00344624
0.0040455
0.0044676
0.00513291
0.00569128
0.00619417
0.00640585
0.00668663
0.00645768
0.00609863
0.00558526
0.00504482
0.00453587
0.00406529
0.00402772
0.00384147
0.00442844
0.00244002
0.00243695
0.00229592
0.00274256
0.00297512
0.00351308
0.00428261
0.00444889
0.00494861
0.00502307
0.00514919
0.00483625
0.00476724
0.00415366
0.00382406
0.0036799
0.00313485
0.00327296
0.00286841
0.00304036
0.00184137
0.00173097
0.00182665
0.00195888
0.0022771
0.00250266
0.00282033
0.00336208
0.00362862
0.00393807
0.00380453
0.00392117
0.00358238
0.00325587
0.00282949
0.00265471
0.00234578
0.00228268
0.00214885
0.00236784
0.000987618
0.00125037
0.00149288
0.00152023
0.00135219
0.00203066
0.00213571
0.00227841
0.00231149
0.00272167
0.00257995
0.00261145
0.0022189
0.00217543
0.00200157
0.00168028
0.00178063
0.00125582
0.00157299
0.00153965
0.000590052
0.000628364
0.000574639
0.000972174
0.00103504
0.001066
0.00120918
0.00149919
0.0017483
0.00146885
0.00181236
0.00166154
0.00153082
0.0011999
0.00113976
0.00101795
0.00078481
0.000795769
0.000804971
0.000754837
0.000410582
0.000468301
0.000162763
0.000123783
0.000417055
0.000420378
0.000602893
0.000651902
0.00067904
0.000277354
0.000576336
0.000605057
0.00030605
0.000280747
0.000398796
0.000277905
0.000345468
0.000242384
0.000126575
0.000477586
0.00232924
0.00238329
0.00203562
0.00258994
0.00295491
0.00382555
0.00469208
0.00524671
0.00590333
0.00622863
0.00655306
0.00615688
0.00606047
0.00538888
0.00446285
0.00393643
0.00383062
0.00340937
0.0037658
0.0038773
0.00177268
0.00159112
0.00166066
0.00184614
0.00231719
0.00285699
0.00345706
0.00427683
0.00472286
0.00487688
0.0052234
0.00499143
0.00467858
0.00397417
0.00354465
0.00320372
0.00279637
0.00265822
0.00278667
0.00279583
0.00110239
0.00103737
0.00139575
0.00114335
0.00189648
0.00222157
0.00276003
0.00324845
0.00372758
0.00407783
0.00399567
0.0039077
0.00351345
0.00319173
0.00253178
0.00238422
0.00207327
0.00180166
0.00196411
0.00203195
0.00086448
0.000783566
0.000721501
0.00107703
0.00112494
0.0015081
0.00179407
0.00224823
0.00289266
0.00289396
0.00297986
0.00292028
0.00277862
0.00230481
0.00178151
0.0014948
0.00137165
0.00100743
0.00134852
0.00129833
0.000658215
0.00060469
0.000363865
0.000592083
0.000743123
0.000982594
0.00161887
0.00185692
0.00200842
0.00228168
0.00214601
0.0023069
0.00183896
0.00158718
0.00111703
0.000919427
0.000890988
0.000928678
0.000965847
0.000666253
0.000292559
0.000377181
0.000277375
0.00058202
0.000650784
0.000609915
0.000985309
0.000867284
0.0014034
0.00143718
0.00143205
0.00145514
0.00141473
0.00107762
0.0008473
0.000818701
0.000403144
0.000458764
0.000541678
0.000554027
0.000331081
0.000340624
0.000208945
0.000109349
0.000255647
0.000305383
0.000348615
0.000569893
0.000790713
0.00065005
0.000825325
0.000801109
0.000845011
0.00064015
0.0002799
0.000462452
0.000141224
0.000219744
0.000156794
0.000518279
0.000129939
2.90103e-05
6.69135e-05
0.00018325
0.000118302
5.52376e-05
4.42345e-05
0.000252729
0.000211059
0.00042822
0.000417106
7.34635e-05
0.000275334
0.000224412
0.000193495
0.000281562
0.000193352
7.75446e-05
0.000223048
0.000154984
0.000249672
0.000472619
0.000381332
0.000280685
0.000202987
0.000700549
0.00146806
0.00186657
0.00266277
0.00295961
0.00310929
0.00269305
0.00256944
0.00201194
0.0016952
0.00110375
0.000874183
0.000858365
0.00122259
0.00128435
0.000460846
0.000440785
0.000952491
0.000671319
8.62875e-05
9.30835e-05
0.00068425
0.00139471
0.0018271
0.00218893
0.00238216
0.00220881
0.00160588
0.00144593
0.000673847
0.000589695
0.000117459
7.14982e-05
0.000415335
0.000601062
0.000677024
0.000795937
0.000854032
0.000799529
0.000610872
2.87991e-05
0.000297378
0.000853741
0.00121697
0.00135446
0.00140027
0.00127084
0.00112643
0.000442055
0.000485821
6.70255e-05
7.76324e-06
0.000300383
0.000204605
0.000247842
0.000552474
0.000888474
0.00110616
0.000871874
0.000619657
0.000432288
6.17439e-05
0.000325309
0.000620015
0.00115882
0.000635177
0.000898288
0.000541124
0.000112153
0.000105515
0.000448855
0.000548362
0.000464763
0.000609802
0.000245395
0.000642929
0.000730813
0.000769407
0.000852879
0.000831956
0.000573847
0.000194263
0.000115015
0.000254547
0.000538747
0.000590973
0.000403545
0.000195748
3.62527e-05
0.000222212
0.000431565
0.000782972
0.000503788
0.00038566
0.000129203
0.000368694
0.000806851
0.000706732
0.000712924
0.000336065
0.000313467
0.000289042
2.88868e-05
8.36984e-06
0.000435163
0.00026712
0.000300497
0.000137085
0.000127237
0.000371869
0.000356136
0.000386803
0.000226329
0.000357546
0.000323241
0.000549035
0.000357519
0.000348733
0.000588776
0.000507881
0.000208681
8.45208e-05
0.000157565
0.000260539
8.24902e-05
7.6927e-05
0.00011915
7.84746e-05
0.000216759
0.000268215
0.000424918
0.00030746
0.000522557
0.000259622
0.000344058
1.72452e-05
0.000169248
0.000369689
0.000427422
0.000170448
0.000105314
0.000244822
0.000112392
8.36208e-08
0.000103262
0.00022783
2.70501e-05
7.13381e-05
6.43364e-05
0.000276899
8.1315e-05
3.63138e-06
6.55631e-05
1.77591e-05
8.11129e-05
0.00227069
0.00238766
0.00286635
0.00286548
0.002445
0.0019813
0.00172873
0.00100716
0.000277798
0.000296633
0.000313308
0.000290389
0.000247688
0.00103199
0.00154508
0.0015326
0.00171625
0.00155933
0.00129456
0.000892943
0.0021509
0.00271033
0.00281486
0.00281619
0.00270401
0.00244673
0.00176563
0.00135568
0.000900386
0.000642567
0.000619016
0.000792194
0.000765802
0.00145578
0.0018469
0.0021119
0.00205393
0.0017109
0.00172442
0.00146929
0.00200358
0.00252436
0.00271346
0.00294269
0.00249132
0.0021055
0.00202318
0.00184141
0.00109305
0.000879142
0.00101884
0.00114376
0.00126317
0.00160115
0.00180884
0.00206281
0.00201632
0.00210702
0.00183001
0.00179161
0.0021405
0.00228525
0.002377
0.00229784
0.00228744
0.00205314
0.00183018
0.0013259
0.00126635
0.00116189
0.000855744
0.00132213
0.00148118
0.00171858
0.00175115
0.00189371
0.00200979
0.0020571
0.0016867
0.00152707
0.00184272
0.00199646
0.00197599
0.00201461
0.00196978
0.00211766
0.00173778
0.00143122
0.00115872
0.000914503
0.000906931
0.0011715
0.00128789
0.00143686
0.00171396
0.00191405
0.00173318
0.00165944
0.0014792
0.00130473
0.00130686
0.0014901
0.00158704
0.00158817
0.0016127
0.00137607
0.00120076
0.00123686
0.000854178
0.0010053
0.000808761
0.000652469
0.00113391
0.00110356
0.00137621
0.00147216
0.00132201
0.00122932
0.00129389
0.00116034
0.000933732
0.000870875
0.00108084
0.000974249
0.00102539
0.00100677
0.000959827
0.000665109
0.000770798
0.000386426
0.000467801
0.000682026
0.000741043
0.000768424
0.000663474
0.000847081
0.000740121
0.000804434
0.00072952
0.000753271
0.000301952
0.000275117
0.000307812
0.000464614
0.000328272
0.000299962
0.000121212
0.000253186
0.000237934
0.000394402
0.000181592
0.000354695
0.000226064
0.000309659
0.000131746
0.000175153
0.000256498
0.000127318
0.000241821
0.000166682
0.00399573
0.00418696
0.0048108
0.00518725
0.00489305
0.00454844
0.00426912
0.00375913
0.00328128
0.00309117
0.00299781
0.00314067
0.00314185
0.00338197
0.00376242
0.00407944
0.0038168
0.00341946
0.00313034
0.0024596
0.00380426
0.00426586
0.00456542
0.00490709
0.00482778
0.00467692
0.0043108
0.00393227
0.00338281
0.00332326
0.00316096
0.0030964
0.0034374
0.00353504
0.00412482
0.0039862
0.00372443
0.00375015
0.00341416
0.00282172
0.0033634
0.00377106
0.00424532
0.00438737
0.00436318
0.00402886
0.00397064
0.00346149
0.00333838
0.00313139
0.00331641
0.00334167
0.0034205
0.00367057
0.00386061
0.0038337
0.00403317
0.00366442
0.00329371
0.00297529
0.0030758
0.00357324
0.00340618
0.00396939
0.00411861
0.00371461
0.00336297
0.00312664
0.00291176
0.00300403
0.00298211
0.00296934
0.00325631
0.00312495
0.0034147
0.00332771
0.00334854
0.00312223
0.00274453
0.00257799
0.00262092
0.00277141
0.00283368
0.00313213
0.00309847
0.00317798
0.00290959
0.00279262
0.00254745
0.00239535
0.00245127
0.00223995
0.00269996
0.00294889
0.0027663
0.00293287
0.00283478
0.0026305
0.00235914
0.00216818
0.00189194
0.002031
0.00232766
0.00230545
0.00258307
0.00223452
0.00204243
0.00196373
0.00179791
0.00185345
0.00195399
0.00199816
0.00183975
0.00206543
0.00215069
0.0021937
0.00216708
0.00224763
0.00185644
0.0015883
0.0011108
0.0014016
0.0013895
0.00163337
0.00141603
0.00156934
0.00149492
0.00153491
0.00119546
0.00109776
0.000990471
0.00122588
0.00123532
0.00138716
0.00161951
0.00124099
0.00153878
0.00133705
0.0011583
0.00102396
0.000488405
0.000372348
0.000318728
0.000664447
0.000426661
0.000375383
0.000347981
0.000397509
0.00042989
0.000371213
0.000256861
0.000421634
0.000583006
0.000429619
0.000395153
0.000340978
0.000566466
0.000374771
0.000618232
0.00044232
0.00530264
0.00577608
0.00636714
0.00666125
0.00690912
0.00657625
0.00638264
0.0060624
0.0058553
0.00566452
0.0052322
0.00545842
0.00559079
0.00585091
0.00591431
0.00592996
0.00593462
0.00537356
0.00457266
0.00386683
0.00460921
0.00549676
0.00571077
0.00626314
0.00667273
0.00647499
0.00602953
0.00576391
0.00564343
0.0053773
0.00521593
0.0053066
0.00536403
0.00565555
0.00580668
0.00579002
0.00583678
0.00516133
0.00467549
0.00398722
0.00455259
0.00498038
0.0053375
0.00543944
0.00562495
0.00557262
0.00572119
0.00538797
0.00534571
0.00513373
0.00497017
0.00534171
0.00520225
0.00497729
0.00546392
0.00524848
0.00529114
0.00477698
0.00437991
0.00395687
0.00390243
0.00402536
0.00502684
0.00483962
0.00496893
0.0050664
0.00482387
0.00489519
0.0045228
0.00445061
0.00461965
0.00458323
0.00458181
0.00463517
0.00487181
0.00462542
0.00448276
0.00431362
0.00374238
0.00349163
0.00294914
0.00358623
0.00394464
0.00384659
0.00413407
0.00416298
0.00401876
0.0040564
0.00381574
0.00375559
0.00361268
0.00359356
0.00378908
0.00385821
0.00413679
0.00374534
0.0039211
0.00354153
0.00339053
0.00278856
0.00235393
0.00250772
0.00288106
0.00326101
0.00308691
0.00318984
0.00307948
0.0030736
0.00273103
0.00298201
0.00283997
0.00289389
0.00291234
0.00300472
0.00291141
0.00277836
0.00275674
0.00261282
0.00266846
0.00230191
0.0013487
0.00176935
0.00163592
0.00188151
0.00177865
0.00199664
0.00205474
0.00206218
0.00165471
0.00168557
0.00164176
0.00193024
0.00168735
0.00186621
0.00183676
0.00168395
0.00174592
0.00171867
0.00140527
0.00152655
0.000352895
0.00069343
0.000588107
0.000767396
0.00067858
0.000749146
0.000715979
0.000614326
0.000667472
0.000798031
0.000763644
0.000691355
0.000585748
0.000632458
0.000593482
0.000482412
0.000444833
0.000568898
0.000530056
0.000420454
0.00618837
0.00703705
0.00772181
0.0081794
0.00829646
0.00842573
0.00823545
0.00821653
0.00777875
0.00763643
0.00767654
0.00773687
0.00784142
0.00758719
0.00760188
0.00745001
0.00734091
0.00665584
0.00572121
0.00495458
0.00577953
0.0062765
0.0071615
0.00757355
0.00786931
0.00775627
0.0077769
0.00744423
0.0074933
0.0073155
0.00714957
0.00728023
0.00733633
0.00736724
0.00750875
0.00730242
0.00680173
0.00638118
0.0055137
0.00488741
0.00511438
0.00583044
0.00638895
0.00677979
0.00685393
0.0069098
0.00691198
0.00705003
0.00666585
0.00660233
0.00670212
0.00664848
0.00662763
0.00690913
0.0066859
0.00656961
0.00651222
0.00564107
0.00521858
0.0045099
0.00460698
0.00495056
0.00542528
0.00573234
0.00595037
0.00618575
0.00602872
0.00575676
0.00591238
0.00591059
0.00558615
0.00585414
0.00580094
0.00586461
0.00602481
0.00585417
0.0055983
0.00488206
0.00451751
0.00398184
0.00362099
0.00393187
0.00453922
0.00477185
0.0050626
0.00480135
0.00499307
0.00491183
0.00490081
0.00474086
0.00461972
0.00491158
0.00474959
0.00468653
0.00486825
0.00490482
0.00450202
0.00435011
0.00384452
0.00359646
0.00274481
0.0028415
0.00352463
0.00339122
0.00372092
0.00367576
0.00361713
0.00341324
0.00353741
0.0035877
0.00368505
0.00362649
0.00364066
0.0035974
0.00366151
0.00349916
0.00350065
0.00318362
0.00308001
0.00257403
0.00173002
0.00215234
0.00196859
0.00226006
0.00230237
0.00240941
0.00233794
0.00227079
0.00232352
0.00219729
0.00209304
0.00215386
0.00204499
0.00222459
0.00200064
0.00219042
0.00213403
0.00205971
0.00174534
0.00145743
0.000618366
0.000570944
0.000858469
0.000931214
0.000689162
0.000784407
0.000627027
0.000774941
0.000658143
0.000898878
0.000669841
0.000506192
0.000695523
0.000844393
0.000760885
0.000656308
0.000738158
0.000712094
0.000716389
0.000641563
0.00656525
0.00739858
0.00846111
0.00922876
0.00937898
0.00950069
0.00973463
0.00956848
0.00936179
0.00942884
0.00952469
0.00910395
0.00933773
0.0091628
0.00902243
0.00874072
0.00805743
0.00752914
0.00644007
0.00552564
0.00616836
0.00685833
0.00762008
0.00819589
0.00865586
0.00878821
0.00887373
0.00892637
0.00876539
0.00866464
0.0086701
0.00854543
0.00845908
0.00860999
0.00846097
0.00812809
0.00774135
0.00710027
0.005996
0.00509565
0.0056882
0.00618464
0.0069992
0.00747854
0.00784668
0.00788142
0.00796194
0.00803085
0.00794389
0.00774379
0.00794565
0.00777162
0.00786984
0.00763027
0.00757422
0.00731403
0.00693006
0.00640038
0.00588501
0.00499936
0.00483073
0.0052697
0.00597223
0.00639613
0.00670876
0.0072277
0.00687516
0.0067333
0.00709581
0.00690905
0.00682352
0.00675284
0.00662703
0.00663971
0.00683285
0.00628809
0.00615486
0.00573944
0.00491102
0.00442868
0.00384553
0.00431536
0.00487314
0.0051978
0.00551035
0.00575806
0.00557029
0.00566082
0.00584882
0.00549564
0.00557963
0.0055848
0.00553223
0.00533617
0.00552448
0.00516031
0.00481818
0.00461523
0.00405761
0.00370608
0.00277358
0.0032516
0.00359788
0.00380177
0.00382418
0.00424442
0.00400454
0.00422932
0.00452714
0.00415845
0.00422443
0.0041715
0.00395536
0.00411209
0.00409091
0.00421725
0.00360814
0.00342035
0.00275959
0.00270161
0.00181961
0.00203085
0.00237189
0.00263717
0.00258673
0.00257801
0.00273013
0.00273393
0.00269892
0.00251631
0.00266983
0.00259204
0.00249666
0.00252729
0.00267762
0.00253616
0.00217779
0.00208
0.00203374
0.0019569
0.000619068
0.000604234
0.000630989
0.000699711
0.000797638
0.00107581
0.00101863
0.000910866
0.000719289
0.00096719
0.00121079
0.000827685
0.000785048
0.000699466
0.000932193
0.000898276
0.00064236
0.000796389
0.000898926
0.000586348
0.00675202
0.00771215
0.00872201
0.00972371
0.010019
0.0106145
0.0106769
0.0105128
0.0106111
0.0103032
0.0102664
0.0103702
0.010147
0.0100743
0.00990085
0.00937886
0.00861654
0.00791812
0.00668164
0.00572967
0.00613696
0.0073232
0.00814381
0.0086639
0.00927333
0.0095436
0.00973084
0.0099095
0.00984162
0.00975818
0.00967979
0.00959517
0.00969356
0.00939009
0.00920375
0.00897364
0.00817986
0.00728958
0.00640273
0.00549303
0.00569087
0.00637472
0.00707841
0.00789293
0.00817218
0.0086144
0.00874922
0.00868406
0.00860644
0.00877595
0.00851912
0.00867358
0.00866983
0.00859493
0.00829967
0.00797761
0.0072833
0.00668984
0.00601156
0.00507864
0.00481988
0.00560594
0.00607255
0.00652363
0.00717578
0.00742796
0.00751309
0.00763062
0.0075411
0.00756434
0.00755853
0.00750754
0.00754646
0.00726197
0.00696087
0.00706103
0.00635529
0.00580246
0.0051048
0.0045956
0.00401917
0.0043064
0.00490195
0.00535511
0.00574587
0.00632825
0.00618047
0.00587905
0.00617628
0.00615127
0.00602084
0.00625123
0.00605649
0.00604903
0.00597765
0.0054228
0.00517934
0.00474958
0.00424461
0.00395759
0.0027992
0.00347708
0.00362404
0.00402683
0.00433356
0.0045692
0.00458784
0.00449079
0.00448042
0.00458867
0.00463714
0.00457943
0.00472532
0.00447762
0.00432025
0.00401736
0.00390821
0.00356156
0.00304075
0.00295642
0.00173308
0.00210376
0.0022568
0.00248853
0.00277178
0.00264404
0.00247235
0.0026492
0.0029038
0.00279374
0.0027581
0.00265036
0.00287978
0.00286724
0.0027564
0.00236852
0.00254313
0.00217654
0.00192101
0.0017123
0.000703431
0.000781086
0.000868993
0.000883091
0.000912795
0.000987647
0.000938292
0.000998474
0.000767224
0.000783837
0.00107579
0.00111499
0.000989579
0.000724792
0.000987239
0.0010193
0.000836233
0.000984113
0.000656114
0.000589954
0.0061157
0.00718383
0.00832234
0.00945317
0.010165
0.0107353
0.0112219
0.0111131
0.0112912
0.0111582
0.0109481
0.0110041
0.0107376
0.0105176
0.0101664
0.0094976
0.00854308
0.00761191
0.00659671
0.00507359
0.00591379
0.00675963
0.00775854
0.00907296
0.00941338
0.00969857
0.0099841
0.0102903
0.010538
0.0100699
0.0103253
0.010136
0.00997095
0.00994287
0.00940137
0.00873798
0.00818447
0.00718142
0.00604469
0.00515512
0.0051613
0.00607901
0.00685424
0.00763814
0.00839117
0.00870365
0.00905348
0.0092204
0.00933337
0.00948921
0.00931344
0.00926609
0.00895625
0.00888772
0.00853796
0.00802312
0.00732328
0.00680411
0.0054926
0.00472503
0.00441919
0.00537792
0.00607184
0.00659979
0.00701006
0.00748473
0.00756315
0.00809046
0.00794754
0.00794345
0.0079614
0.00766649
0.00792087
0.0075032
0.00742907
0.006895
0.00651364
0.00584656
0.00491395
0.00420305
0.00374609
0.00423818
0.00493886
0.00553242
0.00588865
0.0064437
0.00647996
0.00634397
0.00649163
0.0064446
0.00647583
0.00639969
0.00638951
0.00622424
0.00604253
0.00581444
0.00515726
0.00482096
0.0040068
0.0037939
0.00269193
0.0030305
0.00340521
0.00384083
0.00425603
0.00447062
0.00475201
0.00507285
0.00499641
0.00472494
0.00478545
0.00448868
0.00492471
0.00459732
0.00429678
0.00433231
0.00386672
0.00366616
0.00298909
0.0026489
0.00180815
0.00182473
0.00241242
0.00257682
0.00265518
0.00291158
0.0029937
0.00288155
0.00295612
0.00298458
0.00289975
0.00300923
0.00284307
0.00271543
0.00265184
0.00256932
0.00243268
0.0021791
0.00220766
0.00182269
0.00046305
0.000663254
0.000753417
0.000796419
0.000773613
0.000796622
0.00131846
0.00100769
0.00102769
0.000658346
0.00102038
0.00102344
0.00094372
0.000761284
0.000824098
0.00101178
0.000904515
0.000685791
0.000334036
0.000570955
0.00546022
0.00648172
0.00786864
0.00892213
0.00976246
0.0106209
0.011097
0.0110211
0.011017
0.0111154
0.011269
0.0109511
0.0108123
0.0105513
0.00987821
0.00928612
0.00830364
0.00711439
0.0056271
0.00434956
0.00498543
0.0061
0.00718202
0.00826809
0.00899681
0.00959706
0.00985461
0.0102995
0.0102453
0.0103791
0.0104566
0.0101185
0.0100218
0.00963078
0.0092344
0.00856274
0.00767126
0.00656215
0.00538993
0.00415038
0.00457993
0.00555895
0.00640001
0.00745861
0.00808221
0.00853498
0.00900308
0.00906556
0.00929832
0.00908161
0.00919956
0.00904309
0.00880363
0.00860944
0.00852991
0.0077936
0.00675475
0.00612977
0.00495756
0.00395655
0.00394802
0.00461934
0.00553021
0.00627098
0.00680878
0.00767361
0.00778088
0.00788231
0.00816718
0.00816694
0.00807942
0.00798165
0.00790532
0.00770142
0.00732167
0.00647095
0.00620777
0.00521953
0.00441192
0.00385205
0.0030955
0.00370873
0.00436559
0.00486061
0.00558106
0.00609376
0.00611426
0.00637782
0.00652408
0.00653889
0.00636938
0.0063529
0.00608826
0.00604456
0.00583685
0.0054553
0.00498523
0.00449694
0.00357363
0.00313039
0.00223337
0.00265416
0.0034106
0.00389555
0.00435754
0.00448173
0.00450299
0.00475691
0.00478271
0.00487007
0.00471912
0.00467453
0.00493037
0.00439643
0.00448155
0.00392319
0.00361742
0.00327659
0.00272449
0.00228468
0.00163104
0.00182251
0.00234567
0.00239562
0.00260323
0.00269743
0.00285569
0.00281437
0.0028529
0.00315413
0.00325447
0.00296987
0.00288163
0.00292634
0.00298546
0.00258936
0.00224916
0.00217338
0.00173625
0.0016219
0.000492934
0.000725356
0.000777649
0.000905897
0.000841093
0.000951542
0.00092032
0.0010038
0.00150275
0.0010902
0.00106279
0.000927782
0.00104003
0.00108246
0.000851364
0.000783129
0.000758133
0.000527635
0.000655661
0.000255967
0.00367587
0.00520111
0.00670789
0.00790256
0.00895752
0.0095857
0.0102778
0.0106223
0.0108435
0.0108158
0.010834
0.0105404
0.0101962
0.009886
0.00890332
0.00816084
0.00694627
0.00589944
0.00426701
0.00282074
0.00367525
0.00473465
0.00614814
0.00730022
0.00817532
0.00878773
0.0092749
0.00960472
0.00989356
0.00995775
0.00979151
0.00972857
0.00956995
0.00908337
0.00850961
0.00781509
0.00694439
0.00565566
0.00426529
0.0030375
0.00322274
0.00419701
0.00571306
0.00633497
0.00752361
0.00805685
0.00845305
0.0084601
0.00877087
0.00876572
0.00895019
0.0087864
0.0086219
0.00832997
0.00772814
0.00702764
0.00635758
0.00529065
0.00423171
0.00305674
0.00289339
0.00371011
0.00479431
0.00554131
0.00626734
0.00686206
0.00720884
0.00754869
0.00776302
0.0074382
0.00764552
0.00762616
0.00764458
0.00701217
0.00663725
0.00600189
0.00550808
0.00462942
0.00369072
0.00287909
0.00250524
0.00301135
0.0037238
0.00452706
0.00517152
0.0055827
0.00597642
0.00618404
0.0062811
0.00614339
0.00612207
0.00615104
0.00596173
0.00572836
0.00544238
0.00514797
0.00471283
0.00387824
0.00301725
0.00231492
0.00192678
0.00247999
0.00291789
0.0033288
0.00371641
0.00423648
0.00433073
0.00448897
0.00460403
0.00459033
0.00471307
0.0047458
0.00435926
0.00443912
0.00425228
0.00375514
0.00344849
0.0029795
0.0022136
0.00198676
0.00127105
0.0014211
0.00196419
0.00178892
0.00243075
0.00246781
0.0026362
0.0027582
0.00282208
0.00300442
0.00290452
0.00283778
0.00301368
0.00277224
0.00255529
0.00233588
0.00210039
0.00194625
0.0013304
0.00129169
0.000338281
0.000545473
0.000533287
0.000612657
0.00103633
0.000908967
0.000797096
0.000946659
0.000964376
0.00122367
0.00105301
0.000743101
0.000837431
0.00090213
0.000919173
0.00062331
0.00070679
0.00065416
0.000318843
0.000436641
0.00163616
0.00312732
0.00501888
0.00611066
0.0075079
0.00841015
0.00887452
0.00930198
0.00955437
0.00979434
0.00968049
0.00947731
0.00908554
0.00867687
0.00769369
0.00710802
0.00559662
0.00408007
0.00265408
0.00109303
0.00171437
0.00306864
0.00462133
0.00587422
0.00695412
0.00786394
0.00830653
0.0088936
0.00894834
0.00908949
0.00895242
0.00860572
0.00845328
0.00811578
0.0073193
0.0066712
0.00548057
0.00424647
0.00270178
0.00124778
0.00181405
0.00295542
0.0041404
0.00536401
0.00629282
0.00706686
0.00744324
0.00784455
0.00801327
0.00802648
0.00823672
0.00791638
0.0077813
0.00719885
0.00672293
0.00585745
0.00507172
0.00393231
0.00274366
0.00162597
0.0015795
0.00260967
0.00368684
0.00464608
0.00551658
0.00572536
0.00642119
0.00668934
0.00694535
0.00702024
0.00697869
0.00685768
0.00648457
0.006414
0.00577552
0.0051216
0.00440712
0.00343657
0.00218516
0.0016522
0.00154663
0.00202839
0.00304013
0.00381815
0.00425698
0.00474299
0.00526125
0.00567491
0.00582831
0.00567915
0.00571909
0.00548182
0.00547565
0.00526845
0.00512232
0.00444139
0.00350485
0.0029682
0.00202355
0.0014745
0.00105463
0.00176264
0.00230096
0.00270645
0.00331569
0.00360959
0.00392768
0.00411789
0.00405182
0.00430478
0.00428638
0.0039714
0.00410464
0.0040627
0.00367906
0.00307694
0.00286269
0.00224932
0.00169373
0.0010428
0.000835476
0.00107187
0.00147278
0.00176959
0.00214835
0.00212199
0.00244882
0.00257479
0.00260627
0.00267671
0.00234626
0.00276247
0.00251402
0.00259136
0.00219915
0.00208104
0.00151743
0.00147144
0.00110571
0.000813481
0.000192825
0.000259099
0.000519654
0.000369971
0.000843047
0.00078408
0.000701174
0.00094475
0.00104144
0.000886036
0.000980815
0.00105576
0.000937186
0.000844446
0.000697514
0.000855306
0.000652048
0.000442455
0.000535461
0.000249821
0.000540465
0.000741104
0.00279192
0.00399157
0.0055005
0.00629292
0.00720248
0.00764333
0.00794824
0.00817792
0.00810063
0.00776294
0.00732093
0.00689866
0.00600357
0.00494661
0.00347731
0.00192061
0.000259868
0.0015632
0.000322733
0.0011114
0.00254779
0.00399643
0.00514137
0.00609273
0.00670493
0.00716323
0.00762378
0.00761757
0.00750727
0.00731458
0.00710521
0.006468
0.00573997
0.00489956
0.00355702
0.00231578
0.000783421
0.00085699
4.94669e-05
0.00118904
0.00263691
0.00376135
0.00469913
0.00548161
0.00609101
0.00644907
0.00674383
0.0069797
0.00681315
0.00689283
0.00626835
0.00588449
0.00536093
0.00457115
0.0035147
0.00231329
0.000942074
0.000227594
0.000273509
0.00160347
0.0022582
0.00341301
0.00404496
0.00482733
0.00547707
0.00567233
0.00591322
0.00616209
0.00586744
0.00597924
0.0056185
0.00519745
0.00453146
0.00386513
0.00324835
0.00227421
0.00114718
4.60729e-05
0.000445133
0.00111264
0.00182857
0.00262277
0.00312168
0.0037813
0.00454578
0.00467054
0.00483047
0.00495189
0.00471198
0.00515499
0.00464923
0.00437535
0.00383756
0.0032186
0.00259604
0.00187208
0.00128068
0.00025298
0.000289739
0.000764978
0.00150703
0.00194289
0.00225996
0.00317487
0.0033131
0.00331073
0.00361454
0.00342735
0.00361227
0.00353689
0.00339634
0.00309632
0.00300967
0.00239254
0.00204078
0.00133413
0.00104634
0.000323094
0.000152512
0.000555229
0.000934254
0.00141526
0.00170813
0.00176516
0.00206874
0.00189548
0.00230156
0.00221237
0.00235076
0.00218037
0.00220059
0.00192365
0.00172092
0.0015775
0.00117782
0.00106467
0.000580109
0.000229033
5.8342e-05
0.000195156
0.000208962
0.000396244
0.000663086
0.000554158
0.000686278
0.000803867
0.000655005
0.000794307
0.000539108
0.000629414
0.000590259
0.000518424
0.00058058
0.000559627
0.000628858
0.000459084
0.000139594
9.92735e-05
0.00360149
0.00187099
0.000131592
0.00159269
0.00306619
0.00421493
0.00499834
0.00535124
0.00569057
0.00605981
0.00590445
0.0057575
0.00519608
0.00423725
0.00354111
0.00249256
0.0010249
0.000694849
0.00256333
0.00422535
0.00296375
0.00140643
0.000147213
0.00169823
0.00295018
0.00392644
0.00471488
0.00530942
0.0054289
0.00557045
0.00577758
0.00544199
0.00509619
0.0042453
0.00376298
0.0027388
0.00138181
5.11278e-05
0.00184756
0.00323154
0.00227613
0.00100694
0.000406591
0.0017207
0.0028907
0.00361757
0.00444643
0.00488561
0.00515856
0.00520556
0.00529963
0.00490147
0.00476483
0.00438604
0.00353908
0.00247738
0.00148239
0.000297105
0.00133939
0.00260885
0.00174064
0.000748949
0.000460497
0.00156899
0.00262083
0.00345499
0.00362187
0.00412404
0.00451332
0.00459313
0.00449614