/*--------------------------------*- C++ -*----------------------------------*\
| =========                 |                                                 |
| \\      /  F ield         | OpenFOAM: The Open Source CFD Toolbox           |
|  \\    /   O peration     | Version:  2212                                  |
|   \\  /    A nd           | Website:  www.openfoam.com                      |
|    \\/     M anipulation  |                                                 |
\*---------------------------------------------------------------------------*/
FoamFile
{
    version     2.0;
    format      ascii;
    arch        "LSB;label=32;scalar=64";
    class       volScalarField;
    location    "0";
    object      T;
}
// * * * * * * * * * * * * * * * * * * * * * * * * * * * * * * * * * * * * * //

dimensions      [0 0 0 1 0 0 0];

internalField   nonuniform List<scalar> 
3200
(
345.63
346.65
347.53
348.802
349.61
350.599
351.237
351.724
352.304
352.698
352.733
352.727
352.368
351.799
351.36
350.322
349.59
348.824
347.569
346.589
339.581
340.425
341.204
342.343
342.986
343.842
344.422
344.87
345.375
345.726
345.73
345.748
345.414
344.864
344.531
343.625
342.986
342.314
341.199
340.417
333.519
334.201
334.881
335.851
336.355
337.086
337.568
337.976
338.428
338.692
338.7
338.759
338.413
337.957
337.689
336.919
336.381
335.806
334.842
334.219
327.399
327.955
328.551
329.315
329.773
330.345
330.743
331.101
331.422
331.665
331.642
331.729
331.396
331.065
330.889
330.209
329.797
329.328
328.487
328.015
321.303
321.757
322.221
322.798
323.129
323.6
323.936
324.199
324.407
324.649
324.563
324.698
324.391
324.171
324.047
323.502
323.197
322.855
322.124
321.812
315.235
315.543
315.907
316.251
316.537
316.838
317.123
317.283
317.452
317.572
317.54
317.662
317.432
317.289
317.187
316.817
316.579
316.398
315.744
315.596
309.148
309.363
309.595
309.727
309.923
310.107
310.279
310.373
310.462
310.574
310.537
310.584
310.437
310.363
310.322
310.139
309.996
309.851
309.443
309.339
303.053
303.153
303.222
303.272
303.319
303.391
303.442
303.475
303.517
303.556
303.538
303.521
303.479
303.452
303.469
303.397
303.353
303.291
303.161
303.108
346.785
347.677
348.617
349.811
350.588
351.649
352.334
352.963
353.274
353.7
353.616
353.818
353.209
352.829
352.397
351.497
350.808
349.805
348.681
347.754
340.591
341.294
342.096
343.187
343.787
344.752
345.346
345.848
346.168
346.511
346.438
346.637
346.074
345.732
345.398
344.573
344.003
343.162
342.103
341.37
334.334
334.906
335.57
336.559
337.036
337.857
338.327
338.759
339.047
339.311
339.253
339.437
338.938
338.665
338.406
337.687
337.195
336.525
335.554
334.997
328.063
328.534
329.102
329.886
330.327
331
331.355
331.697
331.945
332.138
332.094
332.241
331.834
331.656
331.477
330.811
330.423
329.866
329.038
328.585
321.842
322.205
322.617
323.208
323.595
324.094
324.342
324.684
324.837
324.953
324.922
325.031
324.768
324.604
324.461
323.977
323.701
323.221
322.594
322.199
315.585
315.851
316.158
316.6
316.885
317.208
317.396
317.638
317.763
317.779
317.763
317.877
317.707
317.573
317.47
317.155
316.977
316.618
316.126
315.812
309.312
309.53
309.698
309.99
310.152
310.33
310.419
310.591
310.674
310.681
310.693
310.73
310.621
310.526
310.507
310.28
310.215
309.996
309.683
309.507
303.099
303.205
303.264
303.364
303.387
303.471
303.48
303.549
303.565
303.591
303.579
303.599
303.565
303.538
303.538
303.438
303.44
303.341
303.254
303.175
348.059
348.706
350.271
351.383
352.16
353.172
353.784
354.351
354.883
355.129
355.252
354.863
354.534
354.218
353.892
353.066
352.222
351.161
349.828
348.889
341.627
342.157
343.57
344.482
345.2
346.021
346.573
347.082
347.55
347.729
347.818
347.52
347.195
346.858
346.642
345.948
345.246
344.329
343.11
342.331
335.181
335.622
336.854
337.621
338.218
338.906
339.352
339.821
340.198
340.324
340.42
340.161
339.94
339.568
339.459
338.872
338.269
337.483
336.473
335.786
328.79
329.123
330.113
330.764
331.254
331.819
332.174
332.552
332.847
332.956
333.051
332.801
332.66
332.348
332.266
331.823
331.291
330.623
329.824
329.241
322.361
322.647
323.417
323.884
324.293
324.746
324.981
325.316
325.5
325.591
325.671
325.489
325.399
325.16
325.115
324.763
324.303
323.792
323.186
322.751
315.966
316.146
316.713
317.055
317.35
317.653
317.797
318.045
318.16
318.233
318.333
318.167
318.17
317.988
317.994
317.722
317.342
317.013
316.559
316.26
309.551
309.699
310.005
310.252
310.427
310.589
310.65
310.858
310.891
310.932
310.996
310.924
310.935
310.847
310.824
310.67
310.411
310.232
309.953
309.781
303.188
303.248
303.345
303.442
303.497
303.549
303.576
303.651
303.661
303.664
303.688
303.652
303.669
303.635
303.646
303.57
303.495
303.411
303.333
303.261
349.469
350.225
351.566
352.711
353.658
354.549
355.327
355.885
356.329
356.533
356.789
356.503
356.209
355.594
355.43
354.646
353.775
352.469
351.432
350.289
342.88
343.464
344.669
345.646
346.46
347.218
347.908
348.393
348.752
348.933
349.148
348.854
348.628
348.113
347.976
347.328
346.56
345.463
344.54
343.532
336.321
336.73
337.773
338.603
339.268
339.935
340.556
340.919
341.157
341.359
341.54
341.268
341.121
340.676
340.534
340.017
339.361
338.463
337.635
336.808
329.7
330.046
330.891
331.567
332.111
332.696
333.218
333.49
333.563
333.835
333.967
333.734
333.622
333.249
333.135
332.692
332.213
331.444
330.755
330.112
323.109
323.354
324.005
324.566
325.004
325.433
325.813
325.999
326.056
326.324
326.403
326.268
326.111
325.862
325.749
325.381
325.081
324.444
323.906
323.457
316.53
316.663
317.13
317.534
317.877
318.153
318.457
318.538
318.594
318.827
318.878
318.794
318.647
318.509
318.419
318.123
317.954
317.421
317.073
316.778
309.953
310.002
310.292
310.522
310.749
310.914
311.086
311.104
311.17
311.313
311.343
311.292
311.206
311.117
311.094
310.881
310.802
310.449
310.248
310.082
303.333
303.344
303.453
303.511
303.603
303.67
303.707
303.72
303.736
303.801
303.8
303.77
303.756
303.7
303.732
303.645
303.624
303.512
303.437
303.398
350.464
351.441
352.834
354.234
355.314
356.158
356.767
357.525
357.841
357.891
358.1
357.905
357.885
357.16
356.877
356.175
355.329
354.107
352.774
351.618
343.743
344.52
345.637
346.957
347.895
348.584
349.111
349.74
350.026
350.116
350.283
350.115
350.11
349.48
349.199
348.598
347.86
346.836
345.703
344.711
337.011
337.641
338.54
339.665
340.51
341.077
341.498
342.014
342.264
342.365
342.49
342.317
342.364
341.83
341.599
341.131
340.427
339.602
338.64
337.818
330.265
330.789
331.47
332.398
333.138
333.602
333.957
334.333
334.536
334.619
334.733
334.583
334.637
334.224
333.971
333.683
333.096
332.383
331.617
330.919
323.563
323.918
324.448
325.16
325.751
326.113
326.447
326.661
326.886
326.917
326.997
326.866
326.944
326.615
326.392
326.216
325.733
325.144
324.59
324.062
316.856
317.047
317.404
317.919
318.405
318.655
318.894
318.97
319.213
319.236
319.31
319.197
319.25
319.018
318.804
318.724
318.388
317.92
317.539
317.18
310.112
310.221
310.435
310.757
311.087
311.195
311.324
311.362
311.534
311.541
311.61
311.511
311.562
311.401
311.278
311.247
311.068
310.787
310.519
310.294
303.391
303.423
303.501
303.593
303.709
303.727
303.785
303.793
303.859
303.868
303.892
303.842
303.879
303.816
303.778
303.766
303.705
303.641
303.54
303.436
351.589
352.98
354.028
355.292
356.593
357.326
358.205
358.931
359.261
359.522
359.585
359.525
359.371
358.881
358.22
357.646
356.394
355.432
354.191
352.853
344.726
345.857
346.748
347.884
348.973
349.594
350.387
350.998
351.282
351.531
351.495
351.444
351.381
350.909
350.409
349.889
348.783
348.024
346.907
345.752
337.868
338.782
339.511
340.441
341.405
341.919
342.581
343.065
343.35
343.541
343.523
343.409
343.447
343.045
342.603
342.124
341.2
340.625
339.634
338.686
330.997
331.698
332.274
333.048
333.882
334.295
334.794
335.178
335.433
335.582
335.568
335.416
335.594
335.203
334.829
334.406
333.689
333.218
332.389
331.632
324.098
324.657
325.117
325.704
326.352
326.662
327.067
327.314
327.559
327.645
327.609
327.505
327.701
327.396
327.079
326.729
326.184
325.834
325.13
324.564
317.199
317.619
317.934
318.382
318.845
319.02
319.327
319.545
319.719
319.743
319.699
319.675
319.76
319.58
319.318
319.108
318.738
318.429
317.921
317.518
310.321
310.567
310.741
311.051
311.323
311.383
311.602
311.741
311.852
311.847
311.804
311.819
311.853
311.745
311.594
311.502
311.256
311.077
310.726
310.515
303.458
303.545
303.603
303.71
303.806
303.794
303.864
303.951
303.971
303.957
303.961
303.981
303.98
303.939
303.87
303.864
303.77
303.722
303.581
303.515
353.187
354.279
355.436
356.777
357.842
358.79
359.642
360.369
360.778
361.247
361.076
361.069
360.679
360.425
359.67
358.765
357.781
356.956
355.456
354.162
346.074
346.988
347.998
349.148
350.042
350.848
351.607
352.23
352.635
352.995
352.82
352.792
352.469
352.292
351.629
350.812
350.005
349.282
347.971
346.92
338.958
339.758
340.602
341.544
342.307
342.965
343.679
344.099
344.531
344.771
344.598
344.595
344.396
344.156
343.595
342.893
342.276
341.6
340.532
339.713
331.831
332.512
333.149
333.959
334.591
335.151
335.709
335.99
336.406
336.588
336.395
336.459
336.291
336.101
335.573
335.048
334.59
334.007
333.124
332.455
324.751
325.252
325.731
326.358
326.902
327.294
327.738
327.95
328.26
328.464
328.24
328.353
328.206
328.088
327.603
327.224
326.906
326.413
325.738
325.231
317.693
318.045
318.342
318.8
319.237
319.492
319.774
319.959
320.145
320.333
320.139
320.262
320.162
320.095
319.697
319.428
319.172
318.853
318.386
318.017
310.634
310.837
311
311.3
311.538
311.694
311.869
311.998
312.101
312.217
312.081
312.167
312.127
312.119
311.822
311.613
311.481
311.34
311.043
310.818
303.557
303.617
303.665
303.786
303.884
303.927
303.986
304.01
304.031
304.101
304.046
304.068
304.061
304.067
303.952
303.868
303.848
303.802
303.706
303.624
354.374
355.435
356.81
357.954
359.38
359.985
361.147
361.683
362.073
362.505
362.523
362.454
362.204
361.773
360.96
360.119
359.039
358.164
356.786
355.405
347.106
347.95
349.173
350.167
351.383
351.908
352.892
353.352
353.718
354.092
354.127
354.012
353.817
353.491
352.698
352.007
351.069
350.351
349.121
347.958
339.827
340.557
341.499
342.411
343.455
343.856
344.664
345.04
345.394
345.754
345.747
345.67
345.498
345.202
344.466
343.889
343.132
342.603
341.499
340.511
332.565
333.207
333.899
334.639
335.491
335.826
336.492
336.792
337.108
337.457
337.381
337.312
337.207
336.962
336.296
335.812
335.236
334.806
333.856
333.112
325.326
325.816
326.342
326.885
327.542
327.878
328.344
328.562
328.859
329.136
329.043
329.007
328.862
328.731
328.171
327.847
327.414
327.069
326.289
325.758
318.109
318.422
318.813
319.202
319.653
319.911
320.22
320.369
320.624
320.78
320.731
320.733
320.599
320.497
320.072
319.904
319.591
319.341
318.742
318.402
310.908
311.072
311.315
311.527
311.807
311.947
312.122
312.186
312.387
312.444
312.451
312.444
312.336
312.333
312.043
311.942
311.796
311.608
311.244
311.042
303.671
303.692
303.816
303.862
303.945
304.005
304.083
304.082
304.129
304.186
304.181
304.138
304.145
304.145
304.035
303.99
303.954
303.889
303.755
303.678
355.286
356.469
358.086
359.253
360.633
361.399
362.33
363
363.473
363.788
363.926
363.782
363.361
363.051
362.077
361.279
360.447
359.121
357.789
356.378
347.847
348.908
350.234
351.228
352.45
353.122
353.958
354.507
354.915
355.184
355.329
355.191
354.831
354.547
353.656
353.067
352.301
351.188
350.005
348.841
340.475
341.31
342.448
343.288
344.323
344.884
345.61
346.054
346.455
346.634
346.728
346.656
346.329
346.088
345.292
344.87
344.156
343.275
342.238
341.262
333.096
333.793
334.695
335.371
336.23
336.714
337.268
337.626
338.012
338.078
338.212
338.104
337.903
337.627
336.978
336.706
336.037
335.365
334.511
333.777
325.771
326.265
326.957
327.446
328.114
328.574
328.985
329.236
329.547
329.565
329.664
329.601
329.442
329.236
328.731
328.55
327.968
327.495
326.804
326.293
318.431
318.743
319.265
319.621
320.094
320.414
320.65
320.859
321.082
321.088
321.159
321.151
321.006
320.884
320.515
320.358
319.981
319.645
319.088
318.797
311.067
311.24
311.588
311.757
312.047
312.238
312.382
312.51
312.64
312.644
312.732
312.696
312.628
312.538
312.296
312.232
312.012
311.781
311.449
311.319
303.691
303.769
303.896
303.943
304.042
304.093
304.154
304.196
304.229
304.245
304.278
304.254
304.219
304.202
304.131
304.082
304.043
303.944
303.838
303.789
356.154
357.521
359.103
360.427
361.721
362.863
363.58
364.097
364.751
364.812
365.111
365.037
364.531
364.163
363.302
362.598
361.443
360.028
358.732
357.81
348.631
349.749
351.112
352.265
353.398
354.407
354.995
355.434
355.997
356.034
356.375
356.303
355.86
355.437
354.806
354.169
353.132
351.948
350.832
350.081
341.112
342.015
343.149
344.144
345.119
345.965
346.443
346.809
347.304
347.396
347.652
347.602
347.213
346.806
346.305
345.743
344.871
343.893
342.967
342.387
333.644
334.34
335.313
336.063
336.923
337.542
337.938
338.233
338.63
338.74
338.949
338.908
338.595
338.229
337.836
337.398
336.685
335.858
335.134
334.69
326.151
326.688
327.485
328.027
328.73
329.161
329.51
329.634
330.051
330.152
330.254
330.25
329.947
329.72
329.387
329.076
328.547
327.906
327.275
326.993
318.685
319.026
319.623
320.027
320.563
320.859
321.082
321.136
321.471
321.54
321.597
321.63
321.403
321.218
320.957
320.796
320.384
319.927
319.443
319.232
311.222
311.428
311.768
312.011
312.367
312.53
312.656
312.697
312.912
312.945
312.979
313.01
312.878
312.776
312.544
312.494
312.268
311.935
311.677
311.518
303.759
303.832
303.942
304.016
304.149
304.23
304.253
304.256
304.346
304.355
304.352
304.357
304.324
304.301
304.197
304.188
304.117
304.004
303.901
303.865
357.223
358.539
360.199
361.295
362.922
363.844
364.697
365.362
365.711
366.103
366.35
366.294
365.758
365.361
364.509
363.67
362.351
361.274
359.654
358.776
349.583
350.626
352.104
353.066
354.441
355.193
356.009
356.56
356.881
357.159
357.395
357.386
356.916
356.523
355.817
355.09
353.923
353.021
351.63
350.897
341.923
342.792
344.025
344.865
345.919
346.619
347.311
347.784
348.048
348.285
348.494
348.447
348.108
347.726
347.146
346.554
345.551
344.781
343.64
343.018
334.233
335.029
336.008
336.666
337.47
338.054
338.63
339.057
339.295
339.487
339.629
339.606
339.323
339.016
338.522
338.068
337.197
336.593
335.693
335.165
326.582
327.247
328.012
328.507
329.115
329.617
329.969
330.373
330.571
330.707
330.782
330.797
330.595
330.307
329.926
329.587
328.839
328.491
327.73
327.362
318.969
319.486
320.03
320.325
320.829
321.175
321.36
321.703
321.855
321.91
321.965
322.004
321.85
321.627
321.379
321.134
320.574
320.349
319.826
319.526
311.398
311.733
312.043
312.188
312.527
312.733
312.802
313.052
313.113
313.116
313.171
313.216
313.115
312.992
312.839
312.654
312.351
312.228
311.884
311.733
303.811
303.937
304.028
304.082
304.203
304.253
304.291
304.386
304.397
304.406
304.417
304.433
304.406
304.357
304.31
304.215
304.154
304.085
303.961
303.936
358.262
359.705
360.903
362.344
363.795
364.657
365.501
366.301
366.678
367.036
367.114
367.366
366.988
366.292
365.398
364.612
363.464
362.368
360.803
359.632
350.427
351.687
352.682
353.908
355.182
355.948
356.669
357.38
357.655
357.985
358.075
358.313
357.987
357.348
356.555
355.894
354.877
354.019
352.611
351.653
342.604
343.732
344.481
345.549
346.594
347.261
347.859
348.506
348.722
349.034
349.075
349.274
348.992
348.434
347.81
347.241
346.372
345.651
344.443
343.654
334.793
335.803
336.34
337.235
338.104
338.653
339.123
339.622
339.823
340.072
340.087
340.3
340.04
339.588
339.109
338.599
337.861
337.261
336.323
335.658
326.986
327.808
328.228
328.961
329.601
330.06
330.384
330.742
330.944
331.127
331.144
331.338
331.093
330.792
330.354
330.021
329.365
328.949
328.252
327.684
319.218
319.882
320.168
320.686
321.132
321.483
321.72
321.957
322.115
322.244
322.254
322.405
322.15
321.969
321.653
321.425
320.904
320.671
320.183
319.742
311.563
311.965
312.147
312.449
312.665
312.866
313.012
313.201
313.28
313.355
313.376
313.481
313.281
313.19
312.984
312.863
312.529
312.414
312.117
311.813
303.879
304.036
304.087
304.184
304.253
304.301
304.341
304.429
304.446
304.476
304.468
304.511
304.461
304.418
304.358
304.312
304.199
304.163
304.057
303.946
359.023
360.456
361.622
363.061
364.471
365.543
366.574
367.2
367.697
368.033
368.177
368.121
367.785
367.191
366.422
365.436
364.322
363.028
361.732
360.246
351.173
352.338
353.328
354.548
355.732
356.689
357.576
358.144
358.561
358.873
358.942
358.967
358.614
358.145
357.442
356.587
355.646
354.521
353.462
352.181
343.284
344.257
345.045
346.101
347.04
347.884
348.639
349.146
349.501
349.747
349.788
349.841
349.531
349.132
348.543
347.818
346.996
346.081
345.206
344.143
335.405
336.21
336.798
337.65
338.418
339.119
339.766
340.178
340.434
340.659
340.71
340.703
340.466
340.136
339.695
339.098
338.441
337.674
337.011
336.088
327.552
328.183
328.588
329.258
329.877
330.391
330.916
331.216
331.383
331.606
331.636
331.621
331.474
331.205
330.847
330.404
329.887
329.302
328.85
328.052
319.688
320.137
320.401
320.916
321.378
321.701
322.077
322.293
322.399
322.536
322.618
322.582
322.466
322.261
321.991
321.708
321.348
320.904
320.668
320.062
311.817
312.086
312.263
312.556
312.876
313.019
313.249
313.393
313.442
313.539
313.574
313.522
313.448
313.351
313.185
313.024
312.828
312.532
312.455
312.062
303.955
304.05
304.103
304.202
304.317
304.379
304.447
304.486
304.501
304.546
304.559
304.529
304.485
304.461
304.404
304.355
304.318
304.199
304.185
304.047
359.817
361.101
362.383
364.142
365.178
366.286
367.179
367.979
368.653
368.82
368.914
368.698
368.263
367.788
367.127
366.322
365.019
363.5
362.236
360.707
351.851
352.873
353.956
355.516
356.396
357.329
358.119
358.804
359.405
359.519
359.596
359.461
359.036
358.649
358.063
357.351
356.185
354.911
353.865
352.539
343.899
344.687
345.595
346.885
347.656
348.435
349.131
349.674
350.152
350.311
350.326
350.269
349.946
349.583
349.081
348.44
347.448
346.378
345.582
344.408
335.895
336.524
337.244
338.306
338.956
339.558
340.179
340.614
340.967
341.153
341.115
341.082
340.846
340.542
340.118
339.535
338.764
337.909
337.3
336.301
327.915
328.399
328.937
329.748
330.3
330.699
331.225
331.564
331.841
331.983
331.952
331.965
331.73
331.494
331.155
330.706
330.13
329.46
329.02
328.215
319.942
320.309
320.608
321.299
321.66
321.936
322.298
322.562
322.727
322.792
322.823
322.871
322.619
322.512
322.217
321.888
321.522
321.045
320.718
320.146
312
312.202
312.363
312.806
312.993
313.178
313.394
313.549
313.627
313.663
313.718
313.773
313.546
313.529
313.328
313.109
312.912
312.639
312.433
312.079
304.014
304.11
304.141
304.283
304.337
304.409
304.48
304.53
304.567
304.567
304.599
304.618
304.534
304.505
304.468
304.382
304.32
304.239
304.168
304.045
360.284
361.983
363.106
364.934
365.811
367.141
368.002
368.768
369.267
369.255
369.447
369.412
369.058
368.616
367.597
366.768
365.417
364.183
362.881
361.195
352.208
353.652
354.627
356.185
356.923
358.105
358.79
359.521
359.931
359.922
360.045
360.043
359.766
359.407
358.448
357.747
356.583
355.536
354.416
352.969
344.155
345.364
346.217
347.459
348.101
349.041
349.62
350.307
350.609
350.663
350.706
350.693
350.452
350.206
349.357
348.745
347.801
346.949
345.981
344.779
336.131
337.072
337.803
338.764
339.342
340.05
340.484
341.117
341.34
341.418
341.416
341.383
341.223
341.04
340.322
339.847
339.014
338.399
337.586
336.621
328.107
328.795
329.378
330.125
330.634
331.076
331.38
331.933
332.138
332.239
332.145
332.13
332.005
331.899
331.322
330.95
330.272
329.866
329.214
328.515
320.095
320.535
320.982
321.496
321.906
322.129
322.383
322.768
322.962
323.024
322.956
322.929
322.849
322.803
322.362
322.082
321.618
321.316
320.861
320.42
312.072
312.325
312.598
312.919
313.162
313.235
313.39
313.652
313.772
313.813
313.785
313.776
313.699
313.675
313.433
313.24
313.007
312.773
312.551
312.303
304.03
304.124
304.239
304.338
304.415
304.432
304.469
304.588
304.614
304.615
304.623
304.634
304.59
304.598
304.515
304.446
304.362
304.267
304.236
304.148
360.821
362.261
363.78
365.292
366.644
367.709
368.338
369.268
369.681
369.993
370.044
369.851
369.468
369.177
368.201
367.3
365.982
364.567
363.349
361.58
352.719
353.942
355.194
356.505
357.691
358.571
359.108
359.891
360.288
360.555
360.578
360.482
360.101
359.838
358.973
358.2
357.088
355.853
354.796
353.297
344.617
345.624
346.628
347.748
348.724
349.496
349.926
350.589
350.948
351.172
351.165
351.111
350.749
350.505
349.816
349.152
348.208
347.175
346.271
345.053
336.518
337.357
338.111
339.055
339.798
340.433
340.752
341.329
341.639
341.829
341.756
341.754
341.445
341.223
340.665
340.135
339.362
338.552
337.83
336.84
328.418
329.097
329.619
330.344
330.903
331.387
331.664
332.111
332.345
332.5
332.412
332.433
332.199
331.987
331.571
331.166
330.554
329.982
329.42
328.664
320.348
320.798
321.176
321.632
322.07
322.377
322.605
322.913
323.054
323.234
323.123
323.129
322.986
322.824
322.549
322.271
321.77
321.421
321.003
320.491
312.266
312.465
312.719
312.935
313.297
313.429
313.599
313.725
313.834
313.962
313.867
313.88
313.791
313.722
313.542
313.387
313.039
312.866
312.636
312.308
304.118
304.199
304.281
304.32
304.444
304.518
304.571
304.596
304.614
304.686
304.633
304.659
304.597
304.595
304.539
304.499
304.372
304.325
304.235
304.114
361.433
362.481
364.059
365.681
366.834
368.248
368.823
369.582
370.063
370.369
370.698
370.287
369.753
369.565
368.908
367.834
366.478
365.077
363.614
362.232
353.216
354.102
355.439
356.852
357.851
359.052
359.544
360.232
360.629
360.907
361.201
360.756
360.317
360.237
359.625
358.733
357.49
356.302
355.031
353.865
345.008
345.764
346.879
348.025
348.898
349.85
350.275
350.906
351.232
351.482
351.762
351.316
350.923
350.919
350.39
349.65
348.557
347.539
346.527
345.52
336.801
337.447
338.317
339.274
339.973
340.71
341.032
341.634
341.861
342.073
342.301
341.929
341.614
341.65
341.226
340.557
339.678
338.844
338.091
337.24
328.629
329.13
329.763
330.549
331.052
331.603
331.852
332.36
332.53
332.689
332.822
332.566
332.298
332.385
332.072
331.536
330.811
330.144
329.666
328.964
320.434
320.83
321.26
321.841
322.154
322.552
322.757
323.085
323.246
323.317
323.358
323.225
323.054
323.125
322.879
322.548
321.933
321.531
321.238
320.654
312.267
312.492
312.756
313.119
313.267
313.514
313.697
313.844
313.974
313.964
313.959
313.927
313.823
313.901
313.747
313.546
313.168
312.921
312.81
312.39
304.103
304.191
304.294
304.396
304.449
304.519
304.591
304.624
304.678
304.678
304.66
304.67
304.619
304.67
304.598
304.524
304.408
304.344
304.296
304.156
361.546
362.809
364.439
365.85
367.219
368.452
369.37
369.973
370.687
370.87
370.748
370.538
370.081
369.881
369.053
367.964
366.64
365.368
363.835
362.486
353.315
354.358
355.762
356.957
358.13
359.23
360.014
360.564
361.155
361.344
361.234
361.036
360.638
360.454
359.728
358.777
357.641
356.562
355.263
354.1
345.082
345.979
347.116
348.115
349.124
350.056
350.694
351.191
351.687
351.841
351.754
351.613
351.218
351.098
350.486
349.656
348.722
347.762
346.711
345.775
336.855
337.557
338.544
339.281
340.18
340.939
341.428
341.844
342.218
342.37
342.317
342.205
341.85
341.779
341.271
340.531
339.833
338.995
338.171
337.423
328.623
329.189
329.974
330.55
331.255
331.861
332.187
332.524
332.775
332.908
332.878
332.806
332.489
332.472
332.079
331.452
330.97
330.31
329.677
329.15
320.447
320.86
321.379
321.847
322.329
322.786
322.975
323.21
323.409
323.509
323.478
323.387
323.219
323.184
322.933
322.447
322.105
321.665
321.212
320.854
312.308
312.557
312.853
313.129
313.419
313.705
313.833
313.946
314.089
314.107
314.089
314.015
313.934
313.95
313.76
313.498
313.267
312.98
312.762
312.515
304.144
304.211
304.304
304.41
304.508
304.586
304.648
304.656
304.719
304.729
304.734
304.695
304.669
304.687
304.602
304.518
304.454
304.344
304.288
304.201
361.641
362.717
364.42
366.072
367.317
368.769
369.553
370.273
370.713
370.958
370.918
370.754
370.28
369.88
369.28
368.019
366.807
365.532
363.925
362.63
353.428
354.295
355.772
357.207
358.29
359.504
360.171
360.837
361.197
361.376
361.355
361.176
360.783
360.481
359.919
358.814
357.775
356.621
355.35
354.21
345.182
345.917
347.141
348.346
349.298
350.302
350.838
351.428
351.725
351.891
351.843
351.66
351.321
351.108
350.591
349.633
348.786
347.793
346.788
345.799
336.931
337.544
338.523
339.53
340.329
341.151
341.53
342.046
342.261
342.378
342.383
342.211
341.907
341.768
341.313
340.516
339.854
339.066
338.231
337.423
328.699
329.18
329.973
330.732
331.371
332.028
332.302
332.683
332.884
332.926
332.911
332.803
332.599
332.461
332.058
331.487
330.907
330.356
329.703
329.123
320.505
320.818
321.402
321.952
322.445
322.865
323.08
323.352
323.507
323.533
323.444
323.415
323.267
323.166
322.891
322.475
322.062
321.703
321.177
320.853
312.285
312.497
312.838
313.179
313.505
313.743
313.839
314.027
314.121
314.133
314.051
314.077
313.977
313.891
313.735
313.496
313.256
313.03
312.698
312.554
304.106
304.195
304.312
304.412
304.529
304.618
304.639
304.704
304.728
304.745
304.707
304.692
304.683
304.68
304.61
304.535
304.454
304.368
304.241
304.219
361.741
362.856
364.464
366.195
367.465
368.81
369.446
370.353
370.726
370.888
371.011
370.903
370.302
369.921
369.104
368.079
366.828
365.485
364.021
362.769
353.482
354.371
355.724
357.275
358.384
359.55
360.087
360.923
361.164
361.363
361.46
361.349
360.821
360.506
359.774
358.882
357.799
356.656
355.395
354.337
345.25
345.959
347.09
348.41
349.343
350.341
350.772
351.493
351.606
351.831
351.902
351.846
351.384
351.127
350.485
349.73
348.852
347.862
346.814
345.944
337.017
337.585
338.487
339.56
340.337
341.136
341.49
342.048
342.088
342.38
342.394
342.395
341.967
341.786
341.237
340.616
339.934
339.134
338.241
337.504
328.781
329.207
329.933
330.796
331.363
331.974
332.239
332.69
332.689
332.978
332.939
332.991
332.604
332.467
332.03
331.547
331.026
330.419
329.701
329.098
320.557
320.871
321.393
322.025
322.382
322.809
322.998
323.361
323.333
323.578
323.523
323.58
323.309
323.19
322.889
322.528
322.178
321.675
321.17
320.771
312.32
312.525
312.867
313.234
313.421
313.686
313.755
314.038
314.009
314.191
314.108
314.166
314.014
313.933
313.755
313.499
313.344
312.981
312.73
312.454
304.119
304.176
304.314
304.458
304.493
304.596
304.602
304.711
304.699
304.768
304.743
304.757
304.702
304.668
304.627
304.526
304.485
304.329
304.255
304.168
)
;

boundaryField
{
    hotSide
    {
        type            fixedGradient;
        gradient        nonuniform List<scalar> 
400
(
476.875
493.226
509.198
524.717
539.714
554.117
567.858
580.869
593.085
604.446
614.892
624.37
632.831
640.229
646.526
651.687
655.686
658.5
660.116
660.523
491.28
508.127
524.584
540.576
556.029
570.872
585.032
598.441
611.032
622.741
633.509
643.28
652.002
659.63
666.124
671.449
675.575
678.482
680.153
680.58
504.474
521.773
538.672
555.094
570.963
586.206
600.748
614.519
627.45
639.476
650.536
660.573
669.533
677.37
684.043
689.515
693.757
696.746
698.467
698.911
516.364
534.069
551.363
568.169
584.41
600.01
614.893
628.987
642.222
654.531
665.852
676.125
685.297
693.32
700.151
705.753
710.097
713.159
714.923
715.38
526.868
544.927
562.567
579.709
596.275
612.187
627.367
641.743
655.243
667.799
679.346
689.824
699.18
707.363
714.331
720.045
724.476
727.6
729.399
729.865
535.913
554.273
572.206
589.634
606.474
622.65
638.083
652.697
666.42
679.183
690.921
701.572
711.082
719.399
726.481
732.288
736.79
739.963
741.79
742.261
543.436
562.04
580.213
597.872
614.936
631.326
646.962
661.769
675.672
688.603
700.493
711.283
720.916
729.34
736.511
742.391
746.949
750.159
752.005
752.477
549.382
568.174
586.529
604.365
621.599
638.151
653.942
668.894
682.934
695.989
707.995
718.887
728.611
737.113
744.35
750.282
754.877
758.112
759.968
760.436
553.71
572.63
591.109
609.065
626.415
643.077
658.971
674.021
688.15
701.288
713.369
724.328
734.109
742.661
749.937
755.9
760.516
763.762
765.62
766.079
556.385
575.373
593.919
611.937
629.346
646.064
662.011
677.108
691.282
704.459
716.574
727.563
737.369
745.94
753.231
759.202
763.822
767.066
768.916
769.363
557.384
576.381
594.933
612.956
630.369
647.088
663.035
678.132
692.302
705.475
717.584
728.566
738.363
746.924
754.203
760.161
764.767
767.996
769.829
770.259
556.696
575.64
594.139
612.11
629.469
646.137
662.032
677.077
691.198
704.324
716.386
727.324
737.078
745.6
752.842
758.766
763.34
766.54
768.349
768.756
554.319
573.15
591.537
609.397
626.648
643.209
659.001
673.947
687.972
701.006
712.983
723.839
733.519
741.971
749.15
755.019
759.545
762.704
764.48
764.862
550.262
568.92
587.137
604.83
621.917
638.32
653.958
668.756
682.64
695.54
707.391
718.13
727.703
736.057
743.15
748.942
753.404
756.51
758.244
758.597
544.545
562.973
580.963
598.433
615.303
631.495
646.929
661.533
675.231
687.957
699.644
710.231
719.665
727.895
734.876
740.573
744.954
747.995
749.681
750.001
537.201
555.343
573.05
590.243
606.844
622.775
637.959
652.322
665.792
678.303
689.789
700.192
709.457
717.535
724.383
729.965
734.25
737.216
738.846
739.132
528.275
546.075
563.447
580.312
596.594
612.216
627.103
641.182
654.384
666.641
677.892
688.078
697.145
705.047
711.74
717.19
721.366
724.246
725.815
726.065
517.823
535.23
552.216
568.704
584.62
599.887
614.433
628.188
641.082
653.05
664.032
673.971
682.815
690.516
697.035
702.335
706.389
709.175
710.678
710.889
505.913
522.879
539.431
555.497
571.001
585.871
600.036
613.427
625.978
637.624
648.306
657.97
666.565
674.044
680.37
685.506
689.427
692.111
693.543
693.715
492.628
509.107
525.182
540.781
555.833
570.266
584.013
597.005
609.178
620.471
630.825
640.189
648.512
655.75
661.865
666.825
670.602
673.177
674.535
674.668
)
;
    }
    coldSide
    {
        type            mixed;
        refValue        uniform 300;
        refGradient     uniform 0;
        valueFraction   uniform 0.991591;
        source          uniform 0;
        value           nonuniform List<scalar> 
400
(
300.026
300.026
300.027
300.028
300.029
300.029
300.03
300.031
300.031
300.032
300.032
300.033
300.033
300.034
300.034
300.035
300.035
300.035
300.035
300.035
300.027
300.027
300.027
300.028
300.029
300.03
300.03
300.031
300.032
300.032
300.033
300.034
300.034
300.035
300.035
300.035