/*--------------------------------*- C++ -*----------------------------------*\
| =========                 |                                                 |
| \\      /  F ield         | OpenFOAM: The Open Source CFD Toolbox           |
|  \\    /   O peration     | Version:  2212                                  |
|   \\  /    A nd           | Website:  www.openfoam.com                      |
|    \\/     M anipulation  |                                                 |
\*---------------------------------------------------------------------------*/
FoamFile
{
    version     2.0;
    format      ascii;
    arch        "LSB;label=32;scalar=64";
    class       volScalarField;
    location    "0";
    object      T;
}
// * * * * * * * * * * * * * * * * * * * * * * * * * * * * * * * * * * * * * //

dimensions      [0 0 0 1 0 0 0];

internalField   nonuniform List<scalar> 
3200
(
348.601
347.47
346.478
346.089
346.335
346.82
347.574
347.998
348.386
348.499
348.315
348.022
347.378
346.595
345.584
344.781
344.252
343.969
344.438
345.403
342.111
341.19
340.349
340.015
340.202
340.649
341.309
341.671
341.985
342.091
341.946
341.705
341.136
340.474
339.565
338.908
338.451
338.207
338.6
339.386
335.632
334.888
334.192
333.913
334.055
334.45
335.02
335.303
335.572
335.656
335.556
335.325
334.84
334.311
333.5
333.005
332.601
332.375
332.745
333.361
329.163
328.587
328.001
327.768
327.913
328.225
328.71
328.916
329.143
329.191
329.138
328.927
328.536
328.107
327.418
327.057
326.732
326.554
326.856
327.309
322.699
322.274
321.81
321.608
321.744
321.998
322.381
322.505
322.688
322.725
322.694
322.515
322.221
321.873
321.345
321.065
320.824
320.695
320.936
321.257
316.216
315.95
315.583
315.448
315.552
315.741
316.024
316.095
316.239
316.261
316.262
316.089
315.884
315.625
315.266
315.069
314.895
314.78
314.995
315.192
309.734
309.584
309.345
309.286
309.349
309.47
309.638
309.674
309.767
309.771
309.793
309.667
309.529
309.381
309.189
309.048
308.958
308.879
309.031
309.133
303.256
303.213
303.14
303.112
303.136
303.181
303.231
303.247
303.27
303.281
303.28
303.238
303.201
303.143
303.086
303.024
303.008
302.976
303.028
303.076
348.722
347.535
346.73
346.307
346.511
347.069
347.769
348.357
348.68
348.893
348.801
348.541
347.829
346.952
345.888
345.009
344.328
344.105
344.481
345.535
342.247
341.243
340.571
340.188
340.362
340.871
341.464
341.956
342.228
342.431
342.35
342.134
341.512
340.748
339.827
339.103
338.522
338.302
338.638
339.512
335.745
334.955
334.377
334.039
334.199
334.639
335.147
335.542
335.747
335.929
335.881
335.685
335.179
334.512
333.746
333.171
332.658
332.456
332.765
333.482
329.247
328.638
328.153
327.889
328.021
328.387
328.807
329.113
329.257
329.403
329.384
329.219
328.812
328.269
327.644
327.176
326.756
326.582
326.85
327.417
322.744
322.311
321.923
321.699
321.804
322.102
322.424
322.689
322.77
322.902
322.869
322.749
322.404
322.001
321.514
321.162
320.841
320.691
320.919
321.353
316.229
315.968
315.668
315.507
315.579
315.809
316.033
316.251
316.283
316.381
316.353
316.26
316.018
315.707
315.381
315.157
314.907
314.796
314.966
315.27
309.735
309.596
309.411
309.322
309.366
309.521
309.638
309.767
309.812
309.845
309.834
309.766
309.644
309.438
309.244
309.101
308.97
308.893
308.993
309.161
303.261
303.228
303.153
303.119
303.136
303.195
303.234
303.281
303.303
303.301
303.293
303.28
303.226
303.164
303.097
303.057
303.012
302.98
303.009
303.067
348.893
347.689
346.945
346.572
346.867
347.507
348.311
348.89
349.322
349.574
349.491
349.242
348.54
347.497
346.379
345.523
344.734
344.446
344.844
345.829
342.39
341.376
340.779
340.441
340.683
341.228
341.938
342.438
342.791
343.004
342.944
342.735
342.12
341.234
340.253
339.54
338.855
338.613
338.967
339.775
335.882
335.083
334.567
334.296
334.466
334.93
335.532
335.969
336.236
336.416
336.364
336.189
335.678
334.94
334.112
333.521
332.924
332.729
333.03
333.698
329.333
328.753
328.309
328.117
328.203
328.594
329.096
329.438
329.688
329.825
329.792
329.63
329.218
328.615
327.952
327.475
326.984
326.847
327.039
327.608
322.834
322.396
322.032
321.916
321.941
322.269
322.645
322.912
323.13
323.236
323.197
323.05
322.72
322.262
321.774
321.397
321.053
320.915
321.042
321.49
316.314
316.025
315.752
315.669
315.699
315.926
316.186
316.401
316.559
316.631
316.594
316.481
316.238
315.905
315.568
315.305
315.082
314.944
315.038
315.367
309.812
309.635
309.449
309.413
309.421
309.578
309.741
309.857
309.96
310
309.965
309.907
309.759
309.546
309.348
309.188
309.063
308.977
309.036
309.218
303.286
303.237
303.16
303.159
303.162
303.217
303.273
303.3
303.342
303.359
303.339
303.319
303.27
303.205
303.142
303.08
303.035
303.003
303.027
303.091
349.266
348.237
347.432
347.041
347.414
348.071
348.711
349.634
350.139
350.441
350.532
350.115
349.438
348.454
347.275
346.211
345.433
345.07
345.487
346.272
342.721
341.885
341.187
340.833
341.149
341.717
342.25
343.054
343.495
343.765
343.826
343.482
342.896
342.035
341.022
340.113
339.454
339.176
339.523
340.183
336.167
335.505
334.899
334.612
334.875
335.308
335.768
336.468
336.852
337.074
337.125
336.825
336.323
335.584
334.754
333.991
333.449
333.22
333.508
334.052
329.6
329.105
328.568
328.363
328.541
328.913
329.272
329.856
330.181
330.349
330.408
330.145
329.732
329.138
328.467
327.844
327.398
327.211
327.436
327.902
323.046
322.659
322.236
322.081
322.195
322.507
322.799
323.23
323.483
323.608
323.668
323.446
323.141
322.674
322.162
321.696
321.336
321.179
321.382
321.73
316.477
316.192
315.903
315.779
315.853
316.084
316.297
316.61
316.778
316.881
316.923
316.735
316.538
316.22
315.85
315.512
315.254
315.147
315.302
315.519
309.91
309.721
309.556
309.486
309.52
309.646
309.791
309.973
310.069
310.129
310.167
310.052
309.933
309.75
309.549
309.325
309.164
309.094
309.193
309.32
303.325
303.257
303.195
303.179
303.185
303.234
303.282
303.348
303.373
303.397
303.412
303.37
303.321
303.267
303.206
303.122
303.078
303.043
303.083
303.113
349.858
348.828
348.103
347.741
348.168
348.885
349.508
350.399
351.06
351.372
351.494
351.179
350.444
349.35
348.082
347.096
346.254
345.933
346.268
346.931
343.238
342.376
341.753
341.43
341.807
342.417
342.951
343.727
344.287
344.566
344.657
344.391
343.759
342.798
341.744
340.897
340.171
339.906
340.185
340.75
336.638
335.919
335.388
335.102
335.405
335.919
336.386
337.028
337.493
337.738
337.795
337.613
337.04
336.26
335.356
334.645
334.048
333.826
334.041
334.561
330.01
329.441
328.988
328.743
328.979
329.401
329.802
330.328
330.707
330.888
330.949
330.794
330.294
329.698
328.972
328.37
327.894
327.732
327.874
328.323
323.362
322.93
322.578
322.38
322.55
322.881
323.21
323.628
323.914
324.023
324.11
323.965
323.558
323.13
322.546
322.093
321.719
321.606
321.693
322.087
316.709
316.402
316.132
315.998
316.115
316.359
316.591
316.899
317.101
317.16
317.259
317.136
316.821
316.529
316.112
315.798
315.539
315.454
315.514
315.805
310.032
309.859
309.684
309.613
309.691
309.826
309.98
310.159
310.271
310.304
310.39
310.286
310.099
309.949
309.68
309.494
309.358
309.282
309.327
309.499
303.357
303.317
303.234
303.217
303.249
303.301
303.352
303.401
303.452
303.458
303.486
303.435
303.382
303.344
303.245
303.183
303.144
303.105
303.132
303.182
350.643
349.632
348.957
348.741
349.021
349.737
350.492
351.248
352.046
352.532
352.714
352.542
351.657
350.427
349.243
348.109
347.238
347.005
347.236
347.899
343.931
343.076
342.515
342.284
342.541
343.154
343.821
344.442
345.171
345.559
345.729
345.572
344.809
343.757
342.711
341.747
340.995
340.818
341.014
341.576
337.199
336.503
336.041
335.837
336.031
336.563
337.115
337.63
338.252
338.584
338.732
338.583
337.947
337.082
336.163
335.364
334.734
334.609
334.745
335.223
330.449
329.888
329.539
329.368
329.512
329.92
330.381
330.794
331.308
331.606
331.695
331.57
331.07
330.381
329.626
328.949
328.438
328.365
328.448
328.855
323.695
323.259
323.027
322.874
322.981
323.283
323.63
323.956
324.36
324.617
324.667
324.555
324.181
323.654
323.059
322.527
322.14
322.091
322.158
322.442
316.92
316.631
316.471
316.323
316.434
316.645
316.884
317.128
317.412
317.616
317.631
317.562
317.269
316.932
316.486
316.101
315.827
315.821
315.854
316.042
310.161
309.989
309.907
309.801
309.887
309.991
310.146
310.29
310.473
310.602
310.581
310.547
310.371
310.173
309.903
309.67
309.506
309.518
309.525
309.634
303.395
303.349
303.328
303.294
303.323
303.346
303.401
303.446
303.513
303.552
303.543
303.541
303.476
303.426
303.312
303.248
303.184
303.174
303.194
303.231
351.501
350.524
349.912
349.861
350.032
350.69
351.461
352.367
353.095
353.744
353.853
353.579
352.85
351.766
350.436
349.267
348.375
348.079
348.429
348.921
344.655
343.81
343.341
343.277
343.433
343.979
344.638
345.415
346.039
346.6
346.708
346.484
345.84
344.917
343.765
342.765
342.025
341.745
342.066
342.445
337.808
337.105
336.74
336.671
336.799
337.261
337.793
338.446
338.973
339.441
339.528
339.357
338.822
338.037
337.065
336.238
335.642
335.369
335.647
335.948
330.957
330.398
330.103
330.055
330.146
330.507
330.943
331.462
331.889
332.28
332.356
332.224
331.761
331.158
330.351
329.677
329.205
328.976
329.197
329.45
324.097
323.672
323.449
323.416
323.476
323.75
324.081
324.47
324.813
325.138
325.181
325.101
324.722
324.275
323.64
323.1
322.714
322.572
322.722
322.922
317.239
316.937
316.775
316.758
316.807
316.983
317.22
317.501
317.758
317.973
317.999
317.962
317.658
317.358
316.911
316.51
316.22
316.14
316.253
316.392
310.354
310.185
310.102
310.072
310.115
310.213
310.339
310.521
310.665
310.8
310.805
310.791
310.615
310.426
310.156
309.917
309.734
309.679
309.771
309.851
303.469
303.419
303.382
303.374
303.387
303.423
303.465
303.534
303.575
303.615
303.618
303.612
303.549
303.491
303.407
303.32
303.269
303.232
303.285
303.303
352.563
351.59
351.086
350.885
351.05
351.615
352.565
353.379
354.111
354.831
355.075
354.715
353.942
352.905
351.645
350.586
349.698
349.315
349.535
350.125
345.586
344.729
344.305
344.149
344.326
344.768
345.603
346.269
346.916
347.534
347.752
347.441
346.766
345.877
344.805
343.917
343.145
342.793
343.014
343.479
338.583
337.857
337.506
337.386
337.558
337.919
338.614
339.171
339.738
340.233
340.395
340.167
339.552
338.828
337.939
337.216
336.576
336.248
336.458
336.833
331.566
330.974
330.703
330.604
330.732
331.042
331.597
332.038
332.556
332.943
333.054
332.891
332.374
331.788
331.065
330.491
329.959
329.697
329.895
330.148
324.54
324.124
323.914
323.825
323.918
324.156
324.594
324.928
325.36
325.635
325.729
325.606
325.187
324.728
324.183
323.747
323.317
323.117
323.283
323.462
317.523
317.237
317.103
317.051
317.103
317.282
317.572
317.801
318.136
318.316
318.388
318.311
317.997
317.67
317.282
316.976
316.679
316.549
316.651
316.772
310.519
310.365
310.286
310.259
310.284
310.4
310.555
310.708
310.891
310.989
311.048
311.003
310.808
310.624
310.39
310.186
310.035
309.958
309.998
310.068
303.526
303.48
303.442
303.45
303.455
303.49
303.53
303.592
303.653
303.686
303.698
303.701
303.62
303.556
303.496
303.412
303.355
303.331
303.351
303.37
353.638
352.69
352.15
351.961
352.105
352.765
353.573
354.463
355.281
355.94
356.278
355.883
355.14
353.95
352.847
351.906
350.906
350.551
350.743
351.432
346.495
345.706
345.278
345.076
345.209
345.741
346.474
347.217
347.94
348.486
348.799
348.455
347.821
346.793
345.856
345.033
344.178
343.865
344.062
344.639
339.337
338.7
338.359
338.181
338.278
338.721
339.372
339.939
340.581
341.057
341.307
341.031
340.469
339.632
338.849
338.128
337.421
337.165
337.343
337.835
332.171
331.712
331.397
331.272
331.33
331.672
332.232
332.674
333.198
333.611
333.824
333.606
333.126
332.429
331.813
331.229
330.656
330.442
330.613
330.991
325.008
324.704
324.43
324.342
324.368
324.638
325.106
325.412
325.815
326.145
326.326
326.15
325.762
325.241
324.76
324.32
323.863
323.704
323.836
324.105
317.878
317.65
317.463
317.426
317.412
317.609
317.962
318.15
318.44
318.685
318.821
318.695
318.404
318.034
317.707
317.379
317.073
316.947
317.028
317.208
310.738
310.611
310.484
310.483
310.464
310.574
310.799
310.911
311.076
311.22
311.305
311.222
311.058
310.826
310.645
310.446
310.247
310.176
310.24
310.326
303.601
303.553
303.516
303.519
303.507
303.534
303.614
303.66
303.712
303.762
303.779
303.754
303.7
303.625
303.565
303.505
303.436
303.412
303.432
303.45
354.751
353.883
353.264
353.103
353.321
353.888
354.659
355.561
356.474
357.05
357.307
357.071
356.339
355.182
354.128
353.008
352.269
351.793
351.977
352.646
347.457
346.735
346.189
346.078
346.251
346.727
347.412
348.164
348.968
349.451
349.694
349.472
348.852
347.868
346.973
345.999
345.358
344.942
345.124
345.654
340.162
339.572
339.095
339.017
339.159
339.552
340.166
340.764
341.448
341.85
342.058
341.859
341.351
340.536
339.812
338.959
338.412
338.057
338.232
338.662
332.852
332.413
331.994
331.946
332.05
332.389
332.891
333.35
333.904
334.246
334.44
334.246
333.847
333.181
332.623
331.903
331.459
331.137
331.308
331.658
325.56
325.24
324.903
324.875
324.918
325.208
325.593
325.954
326.377
326.632
326.823
326.632
326.333
325.812
325.389
324.834
324.488
324.237
324.378
324.621
318.274
318.038
317.805
317.783
317.809
318.027
318.317
318.568
318.845
319.023
319.187
319.034
318.801
318.455
318.142
317.735
317.503
317.341
317.418
317.599
310.972
310.818
310.713
310.676
310.713
310.83
311.009
311.168
311.324
311.42
311.538
311.428
311.301
311.098
310.889
310.639
310.53
310.402
310.449
310.568
303.673
303.623
303.594
303.58
303.587
303.629
303.684
303.749
303.795
303.826
303.875
303.832
303.782
303.722
303.655
303.566
303.538
303.493
303.503
303.535
355.934
354.988
354.501
354.337
354.457
355.017
355.859
356.71
357.46
358.074
358.28
358.027
357.367
356.329
355.371
354.318
353.716
353.202
353.257
353.88
348.484
347.702
347.274
347.134
347.229
347.711
348.469
349.179
349.812
350.369
350.523
350.284
349.742
348.871
348.054
347.147
346.632
346.171
346.206
346.717
341.045
340.382
340.048
339.889
339.975
340.411
341.036
341.634
342.151
342.635
342.77
342.528
342.097
341.375
340.707
339.94
339.493
339.114
339.133
339.535
333.601
333.053
332.791
332.637
332.705
333.084
333.597
334.084
334.478
334.883
335.006
334.788
334.429
333.877
333.339
332.708
332.319
332.03
332.026
332.37
326.166
325.711
325.52
325.399
325.429
325.728
326.146
326.519
326.805
327.137
327.247
327.05
326.764
326.365
325.958
325.46
325.14
324.909
324.94
325.179
318.72
318.379
318.249
318.138
318.167
318.362
318.682
318.947
319.142
319.405
319.457
319.337
319.094
318.854
318.541
318.207
317.97
317.808
317.845
317.995
311.26
311.04
310.959
310.91
310.9
310.992
311.225
311.366
311.49
311.639
311.673
311.616
311.463
311.336
311.142
310.925
310.81
310.701
310.73
310.801
303.779
303.707
303.682
303.655
303.658
303.678
303.766
303.814
303.845
303.898
303.908
303.887
303.839
303.799
303.742
303.669
303.626
303.595
303.592
303.62
357.117
356.36
355.758
355.653
355.73
356.213
356.824
357.783
358.613
359.103
359.2
358.925
358.36
357.502
356.599
355.591
354.983
354.616
354.775
355.25
349.479
348.898
348.377
348.281
348.333
348.768
349.283
350.11
350.818
351.233
351.314
351.064
350.605
349.9
349.121
348.258
347.719
347.408
347.536
347.898
341.852
341.418
340.965
340.887
340.907
341.295
341.724
342.408
343.015
343.359
343.441
343.222
342.846
342.266
341.602
340.896
340.426
340.172
340.263
340.524
334.221
333.891
333.533
333.46
333.48
333.831
334.149
334.704
335.183
335.481
335.546
335.365
335.07
334.606
334.067
333.499
333.123
332.901
332.95
333.15
326.619
326.341
326.072
326.038
326.045
326.348
326.558
326.995
327.366
327.597
327.656
327.499
327.263
326.922
326.498
326.097
325.781
325.604
325.645
325.782
319.034
318.82
318.641
318.615
318.608
318.836
318.976
319.292
319.553
319.714
319.773
319.653
319.467
319.257
318.924
318.662
318.434
318.293
318.344
318.414
311.436
311.314
311.215
311.206
311.173
311.305
311.399
311.583
311.749
311.831
311.876
311.796
311.681
311.583
311.38
311.212
311.072
310.997
311.036
311.068
303.841
303.788
303.757
303.763
303.739
303.8
303.822
303.886
303.94
303.973
303.985
303.957
303.903
303.885
303.827
303.756
303.711
303.684
303.702
303.709
358.231
357.555
357.058
356.866
356.829
357.286
357.852
358.774
359.326
359.873
360.045
359.727
359.204
358.462
357.585
356.77
356.122
355.898
356.08
356.592
350.477
349.912
349.492
349.349
349.284
349.69
350.172
350.943
351.463
351.925
352.044
351.744
351.34
350.741
349.978
349.27
348.704
348.505
348.651
349.099
342.733
342.257
341.922
341.792
341.747
342.076
342.478
343.094
343.597
343.986
344.057
343.784
343.479
342.962
342.337
341.709
341.244
341.064
341.173
341.567
334.979
334.578
334.317
334.223
334.187
334.451
334.779
335.26
335.681
336.004
336.058
335.841
335.588
335.182
334.657
334.145
333.776
333.623
333.704
334.03
327.203
326.892
326.708
326.627
326.616
326.826
327.074
327.428
327.732
328.007
328.057
327.881
327.692
327.371
326.996
326.578
326.286
326.183
326.23
326.481
319.437
319.217
319.083
319.055
319.031
319.18
319.355
319.575
319.815
320.01
320.034
319.938
319.806
319.578
319.3
318.997
318.787
318.73
318.76
318.947
311.688
311.546
311.477
311.47
311.438
311.512
311.632
311.746
311.896
312.015
312.038
311.987
311.902
311.766
311.595
311.411
311.293
311.261
311.277
311.385
303.931
303.868
303.86
303.841
303.831
303.848
303.9
303.931
303.985
304.028
304.033
304.02
303.992
303.942
303.882
303.822
303.783
303.765
303.789
303.812
359.556
358.892
358.329
358.071
358.081
358.472
358.973
359.648
360.117
360.72
360.876
360.686
360.076
359.335
358.668
357.825
357.356
357.217
357.563
358.043
351.636
351.09
350.606
350.362
350.377
350.699
351.142
351.746
352.135
352.658
352.776
352.617
352.098
351.477
350.898
350.16
349.752
349.65
349.941
350.353
343.682
343.254
342.861
342.637
342.658
342.939
343.282
343.831
344.124
344.582
344.655
344.518
344.114
343.614
343.126
342.471
342.129
342.084
342.281
342.63
335.768
335.403
335.084
334.897
334.922
335.144
335.434
335.878
336.102
336.478
336.531
336.4
336.1
335.733
335.33
334.754
334.497
334.457
334.599
334.907
327.845
327.542
327.297
327.171
327.18
327.361
327.576
327.926
328.1
328.381
328.396
328.291
328.079
327.821
327.51
327.03
326.856
326.812
326.917
327.173
319.911
319.676
319.507
319.424
319.433
319.569
319.721
319.964
320.088
320.271
320.277
320.212
320.058
319.886
319.669
319.336
319.206
319.179
319.23
319.426
311.979
311.82
311.722
311.669
311.682
311.744
311.842
311.992
312.064
312.171
312.168
312.138
312.056
311.941
311.819
311.611
311.525
311.519
311.528
311.68
304.027
303.955
303.931
303.913
303.923
303.939
303.975
304.018
304.04
304.078
304.076
304.07
304.04
304.01
303.961
303.892
303.857
303.858
303.859
303.918
360.864
360.282
359.646
359.349
359.31
359.6
360.015
360.611
361.098
361.605
361.711
361.42
361.041
360.378
359.6
358.985
358.616
358.537
358.85
359.359
352.76
352.318
351.74
351.476
351.412
351.686
352.037
352.562
352.968
353.434
353.498
353.252
352.942
352.379
351.712
351.176
350.832
350.802
351.06
351.472
344.673
344.313
343.814
343.594
343.516
343.766
344.058
344.502
344.826
345.244
345.279
345.074
344.832
344.374
343.798
343.347
343.032
343.023
343.249
343.571
336.579
336.286
335.874
335.684
335.602
335.838
336.072
336.443
336.681
337.029
337.06
336.896
336.734
336.341
335.876
335.48
335.239
335.22
335.401
335.688
328.497
328.24
327.888
327.778
327.724
327.892
328.04
328.367
328.548
328.804
328.837
328.713
328.598
328.304
327.919
327.589
327.438
327.411
327.566
327.767
320.393
320.17
319.931
319.854
319.811
319.935
320.031
320.279
320.404
320.592
320.621
320.532
320.449
320.242
319.94
319.713
319.61
319.575
319.715
319.849
312.251
312.122
311.959
311.918
311.892
311.993
312.024
312.181
312.271
312.384
312.408
312.34
312.277
312.164
311.974
311.832
311.79
311.749
311.859
311.936
304.1
304.053
304.002
303.993
303.989
304.018
304.025
304.084
304.12
304.155
304.158
304.135
304.112
304.078
304.021
303.971
303.959
303.937
303.987
304.007
362.118
361.57
360.853
360.611
360.58
360.729
361.089
361.499
362.132
362.429
362.466
362.237
361.961
361.38
360.73
360.265
359.803
359.803
360.251
360.584
353.839
353.425
352.788
352.579
352.573
352.675
352.978
353.343
353.894
354.144
354.187
353.97
353.733
353.248
352.686
352.271
351.892
351.896
352.295
352.534
345.577
345.248
344.695
344.504
344.537
344.606
344.842
345.18
345.644
345.838
345.875
345.688
345.493
345.09
344.645
344.269
343.933
343.96
344.283
344.459
337.308
337.078
336.6
336.427
336.466
336.537
336.709
336.993
337.378
337.539
337.552
337.396
337.256
336.916
336.57
336.229
335.975
336.008
336.257
336.357
329.032
328.849
328.488
328.338
328.389
328.471
328.577
328.802
329.118
329.203
329.21
329.118
328.988
328.737
328.466
328.188
327.985
328.043
328.204
328.284
320.739
320.617
320.378
320.234
320.303
320.356
320.432
320.581
320.833
320.88
320.866
320.813
320.708
320.559
320.342
320.129
320.018
320.057
320.155
320.21
312.454
312.382
312.252
312.142
312.197
312.241
312.282
312.37
312.523
312.534
312.538
312.497
312.436
312.351
312.224
312.08
312.034
312.057
312.107
312.145
304.181
304.153
304.105
304.061
304.097
304.11
304.123
304.147
304.204
304.202
304.206
304.188
304.162
304.15
304.096
304.057
304.037
304.04
304.065
304.066
363.505
362.762
362.225
361.863
361.809
361.84
362.138
362.538
363.142
363.347
363.341
363.197
362.865
362.425
361.924
361.305
361.215
361.132
361.518
361.91
355.041
354.423
353.994
353.664
353.626
353.644
353.888
354.246
354.751
354.946
354.941
354.796
354.515
354.139
353.707
353.172
353.112
353.018
353.358
353.699
346.597
346.09
345.708
345.423
345.409
345.435
345.626
345.917
346.366
346.536
346.502
346.395
346.144
345.837
345.455
345.031
344.96
344.896
345.161
345.466
338.158
337.763
337.438
337.184
337.188
337.214
337.358
337.569
337.962
338.105
338.059
337.985
337.787
337.52
337.222
336.854
336.823
336.765
336.966
337.197
329.689
329.391
329.154
328.932
328.958
328.96
329.077
329.231
329.53
329.645
329.598
329.541
329.395
329.2
328.952
328.671
328.663
328.641
328.767
328.937
321.218
321
320.84
320.695
320.692
320.694
320.77
320.902
321.117
321.17
321.139
321.104
321.013
320.869
320.679
320.49
320.504
320.492
320.574
320.669
312.731
312.607
312.531
312.438
312.444
312.444
312.474
312.555
312.682
312.711
312.7
312.677
312.614
312.522
312.409
312.316
312.333
312.318
312.356
312.414
304.263
304.214
304.203
304.17
304.175
304.182
304.189
304.206
304.259
304.255
304.268
304.254
304.225
304.187
304.163
304.124
304.134
304.14
304.143
304.162
364.795
364.138
363.453
362.974
363.023
363.074
363.228
363.56
364.094
364.233
364.255
364.044
363.788
363.38
362.974
362.521
362.379
362.406
362.831
363.309
356.167
355.612
355.041
354.618
354.649
354.679
354.802
355.099
355.593
355.698
355.724
355.541
355.31
354.956
354.605
354.214
354.11
354.119
354.517
354.871
347.548
347.089
346.588
346.234
346.262
346.302
346.383
346.62
347.072
347.137
347.155
347.007
346.83
346.518
346.203
345.901
345.839
345.808
346.161
346.425
338.92
338.557
338.124
337.841
337.867
337.904
337.965
338.135
338.54
338.561
338.594
338.47
338.34
338.076
337.814
337.573
337.543
337.495
337.776
337.994
330.288
329.995
329.659
329.461
329.47
329.508
329.535
329.676
329.994
330.013
330.013
329.926
329.839
329.621
329.414
329.239
329.229
329.188
329.38
329.561
321.642
321.448
321.214
321.065
321.048
321.088
321.106
321.222
321.441
321.459
321.438
321.388
321.339
321.16
321.016
320.91
320.909
320.884
320.995
321.127
312.994
312.892
312.757
312.65
312.629
312.668
312.674
312.761
312.892
312.897
312.87
312.844
312.811
312.704
312.608
312.564
312.569
312.547
312.609
312.693
304.357
304.324
304.279
304.242
304.229
304.239
304.249
304.283
304.327
304.322
304.322
304.309
304.29
304.251
304.225
304.206
304.219
304.201
304.223
304.25
366.037
365.493
364.707
364.257
364.148
364.106
364.316
364.5
364.906
365.025
364.969
364.907
364.673
364.209
363.98
363.632
363.528
363.609
364.048
364.73
357.202
356.774
356.085
355.695
355.6
355.568
355.735
355.89
356.266
356.331
356.305
356.258
356.068
355.675
355.479
355.173
355.082
355.157
355.545
356.099
348.397
348.031
347.466
347.116
347.045
347.028
347.152
347.272
347.631
347.656
347.663
347.61
347.457
347.134
346.964
346.682
346.62
346.688
347.028
347.448
339.582
339.303
338.851
338.544
338.49
338.485
338.561
338.663
338.978
338.986
339.027
338.97
338.823
338.567
338.426
338.172
338.159
338.212
338.499
338.807
330.793
330.554
330.231
329.972
329.953
329.943
329.985
330.073
330.315
330.324
330.375
330.345
330.194
329.983
329.885
329.672
329.7
329.734
329.958
330.173
322.016
321.829
321.606
321.415
321.403
321.415
321.43
321.483
321.636
321.678
321.721
321.701
321.57
321.419
321.366
321.198
321.217
321.257
321.401
321.559
313.228
313.105
312.97
312.862
312.848
312.867
312.893
312.896
312.988
313.021
313.063
313.037
312.944
312.866
312.838
312.726
312.735
312.78
312.844
312.946
304.432
304.39
304.343
304.304
304.316
304.303
304.332
304.325
304.357
304.365
304.38
304.366
304.34
304.315
304.301
304.276
304.258
304.284
304.307
304.331
367.17
366.44
365.692
365.147
364.853
364.904
365.153
365.372
365.608
365.573
365.631
365.602
365.41
365.057
364.814
364.43
364.484
364.652
365.051
365.777
358.153
357.561
356.906
356.447
356.175
356.231
356.431
356.619
356.827
356.799
356.866
356.843
356.672
356.338
356.13
355.796
355.864
356.004
356.365
356.99
349.156
348.708
348.13
347.735
347.516
347.564
347.717
347.878
348.057
348.037
348.114
348.091
347.933
347.652
347.438
347.155
347.248
347.373
347.692
348.209
340.2
339.869
339.362
339.024
338.895
338.896
339.04
339.151
339.308
339.269
339.379
339.342
339.225
338.957
338.79
338.555
338.646
338.77
339.027
339.426
331.245
331.029
330.608
330.343
330.283
330.265
330.358
330.45
330.579
330.528
330.654
330.607
330.508
330.303
330.171
329.969
330.058
330.164
330.36
330.674
322.314
322.184
321.869
321.693
321.664
321.633
321.671
321.761
321.861
321.805
321.919
321.86
321.789
321.659
321.564
321.409
321.466
321.555
321.663
321.912
313.405
313.334
313.144
313.018
313.003
312.997
313.005
313.08
313.13
313.097
313.169
313.118
313.071
313.012
312.957
312.873
312.895
312.929
312.985
313.16
304.495
304.473
304.408
304.362
304.363
304.357
304.35
304.39
304.403
304.387
304.414
304.396
304.383
304.366
304.339
304.31
304.326
304.338
304.345
304.403
)
;

boundaryField
{
    hotSide
    {
        type            fixedGradient;
        gradient        nonuniform List<scalar> 
400
(
517.697
516.811
518.498
522.685
529.113
537.409
547.177
558.056
569.752
582.041
594.761
607.808
621.125
634.697
648.548
662.73
677.323
692.407
708.049
724.277
499.919
499.314
501.459
506.264
513.413
522.463
532.956
544.493
556.754
569.504
582.579
595.876
609.346
622.983
636.823
650.94
665.433
680.408
695.953
712.109
489.468
489.422
492.091
497.374
504.952
514.383
525.209
537.025
549.505
562.409
575.571
588.889
602.315
615.853
629.546
643.476
657.75
672.482
687.766
703.649
485.863
486.638
489.91
495.572
503.347
512.85
523.672
535.433
547.821
560.594
573.587
586.697
599.879
613.142
626.534
640.138
654.057
668.399
683.253
698.67
487.285
489.044
493.024
499.11
507.066
516.57
527.273
538.834
550.961
563.424
576.057
588.765
601.511
614.308
627.214
640.313
653.705
667.49
681.749
696.539
491.65
494.474
499.279
505.937
514.231
523.877
534.561
545.974
557.838
569.932
582.103
594.267
606.403
618.547
630.77
643.169
655.85
668.91
682.435
696.481
497.21
501.125
506.859
514.264
523.119
533.147
544.039
555.482
567.198
578.967
590.644
602.17
613.558
624.88
636.244
647.773
659.588
671.8
684.495
697.737
502.583
507.56
514.278
522.568
532.194
542.856
554.216
565.925
577.671
589.214
600.416
611.253
621.795
632.176
642.56
653.112
663.982
675.294
687.141
699.588
506.641
512.565
520.227
529.445
539.961
551.439
563.486
575.685
587.649
599.093
609.879
620.031
629.702
639.113
648.503
658.09
668.052
678.527
689.609
701.363
508.459
515.093
523.516
533.541
544.891
557.198
570.006
582.81
595.128
606.605
617.093
626.675
635.602
644.194
652.765
661.579
670.838
680.683
691.21
702.474
507.369
514.347
523.184
533.692
545.586
558.474
571.858
585.167
597.842
609.467
619.882
629.213
637.781
645.973
654.151
662.605
671.547
681.121
691.419
702.492
503.082
509.954
518.747
529.275
541.246
554.259
567.807
581.313
594.211
606.08
616.753
626.344
635.165
643.597
651.997
660.654
669.784
679.534
689.999
701.232
495.8
502.119
510.427
520.532
532.141
544.857
558.193
571.616
584.621
596.829
608.071
618.405
628.055
637.328
646.529
655.923
665.72
676.072
687.081
698.811
486.241
491.656
499.163
508.576
519.599
531.843
544.852
558.146
571.287
583.943
595.938
607.263
618.044
628.488
638.831
649.296
660.078
671.329
683.161
695.646
475.611
479.901
486.463
495.12
505.573
517.427
530.234
543.542
556.949
570.147
582.949
595.296
607.235
618.895
630.445
642.07
653.944
666.219
679.01
692.396
465.59
468.662
474.271
482.257
492.297
503.961
516.773
530.272
544.06
557.835
571.398
584.658
597.616
610.348
622.978
635.663
648.562
661.826
675.576
689.891
458.39
460.264
464.995
472.432
482.21
493.83
506.76
520.51
534.671
548.941
563.116
577.09
590.839
604.408
617.894
631.435
645.185
659.298
673.902
689.073
456.655
457.489
461.44
468.364
477.854
489.349
502.269
516.099
530.43
544.962
559.494
573.912
588.179
602.322
616.418
630.589
644.986
659.764
675.051
690.921
462.723
462.818
466.075
472.367
481.294
492.297
504.806
518.318
532.437
546.87
561.42
575.97
590.471
604.931
619.412
634.016
648.876
664.134
679.909
696.262
477.316
477.005
479.646
485.138
493.15
503.216
514.839
527.571
541.049
554.994
569.212
583.582
598.041
612.581
627.24
642.094
657.246
672.805
688.861
705.461
)
;
    }
    coldSide
    {
        type            mixed;
        refValue        uniform 300;
        refGradient     uniform 0;
        valueFraction   uniform 0.991591;
        source          uniform 0;
        value           nonuniform List<scalar> 
400
(
300.027
300.027
300.028
300.028
300.028
300.029
300.029
300.03
300.03
300.031
300.032
300.032
300.033
300.034
300.034
300.035
300.036
300.037
300.037
300.038
300.027
300.027
300.027
300.027
300.028
300.028
300.029
300.029
300.03
300.03
300.031
300.032
300.033
300.033
300.034
300.035
300.035
300.036
300.037
300.038