/*--------------------------------*- C++ -*----------------------------------*\
| =========                 |                                                 |
| \\      /  F ield         | OpenFOAM: The Open Source CFD Toolbox           |
|  \\    /   O peration     | Version:  2212                                  |
|   \\  /    A nd           | Website:  www.openfoam.com                      |
|    \\/     M anipulation  |                                                 |
\*---------------------------------------------------------------------------*/
FoamFile
{
    version     2.0;
    format      ascii;
    arch        "LSB;label=32;scalar=64";
    class       volScalarField;
    location    "0";
    object      relativeErrorField;
}
// * * * * * * * * * * * * * * * * * * * * * * * * * * * * * * * * * * * * * //

dimensions      [0 0 0 1 0 0 0];

internalField   nonuniform List<scalar> 
3200
(
0.0181209
0.01218
0.00641876
0.00162989
0.00137916
0.00394346
0.005789
0.00713455
0.00820787
0.00850034
0.00865437
0.00866576
0.00829045
0.0079707
0.0074291
0.00626373
0.00429753
0.00122315
0.0031239
0.00840176
0.015393
0.0103948
0.00537903
0.00156974
0.00141101
0.00369932
0.00537326
0.00632811
0.00727527
0.00762214
0.00756456
0.00762526
0.00750987
0.00726075
0.00684598
0.00571434
0.004326
0.00141722
0.00260319
0.00676687
0.0126788
0.00864391
0.00436121
0.00127399
0.00138946
0.00353331
0.00464795
0.00553948
0.00616814
0.00662265
0.00684209
0.00654556
0.00659122
0.0063428
0.00596618
0.00514249
0.00373583
0.00123051
0.00205632
0.00563618
0.01038
0.00689046
0.00358302
0.000868746
0.00132997
0.00296241
0.00411199
0.00467773
0.00514803
0.00556859
0.00566614
0.00576457
0.00549023
0.00535774
0.00500921
0.0044841
0.00318781
0.00118983
0.00158979
0.00451022
0.00822526
0.00543793
0.00295284
0.000640946
0.000851336
0.00233438
0.00305175
0.00390638
0.00419233
0.00442164
0.00453723
0.00445184
0.00434084
0.00435244
0.00390324
0.00353399
0.00234738
0.00102838
0.00113328
0.00355226
0.00582187
0.00390209
0.00177051
0.000360215
0.000864224
0.0018202
0.00252854
0.00292367
0.00317882
0.00311129
0.00341998
0.00334916
0.00336295
0.00337637
0.00276198
0.0025034
0.00202506
0.000797906
0.000580551
0.00242646
0.00358341
0.00232809
0.00125832
6.2575e-05
0.000316119
0.00108707
0.00149907
0.00170857
0.0018814
0.00211336
0.00199735
0.00209581
0.00175468
0.00193863
0.00172618
0.0013584
0.00120165
0.000513962
0.00026611
0.00107914
0.00129025
0.000847683
0.000256245
0.00010802
3.31602e-05
0.000224891
0.000465268
0.000505382
0.000647609
0.000709863
0.000861642
0.000629676
0.000796896
0.000652352
0.000529836
0.000804192
0.000163072
0.000100654
1.7669e-05
0.000448377
0.0177391
0.011715
0.0061764
0.00170977
0.00143666
0.00366764
0.00539579
0.00642505
0.00700553
0.00734985
0.0073934
0.00758863
0.00742125
0.00740966
0.00671367
0.00594786
0.00425713
0.00134225
0.00294419
0.00796743
0.0153354
0.00988669
0.00539791
0.00124288
0.00142628
0.00336396
0.00472568
0.00581985
0.00637065
0.00669244
0.00702738
0.00674642
0.0067727
0.006482
0.00603814
0.00556723
0.00395782
0.00129723
0.00210892
0.006882
0.0126816
0.00840375
0.00427047
0.000884702
0.00123368
0.00305402
0.0041612
0.00528424
0.005697
0.00566015
0.00591395
0.00601496
0.00600086
0.00557717
0.00543103
0.00481922
0.00344313
0.00112889
0.00173266
0.00536767
0.0101544
0.00690439
0.00340948
0.000669063
0.00158109
0.00278354
0.00385648
0.00441987
0.00448843
0.00477188
0.00509779
0.00498431
0.00502338
0.00501533
0.00464945
0.00408552
0.00296714
0.0010657
0.00135437
0.00420177
0.00777095
0.00550393
0.00252338
0.0004407
0.00120196
0.00212736
0.00285249
0.00331985
0.00367997
0.00402028
0.00429125
0.00381267
0.00422262
0.00393677
0.00350309
0.00339818
0.00228342
0.00116491
0.000977447
0.00329949
0.00596486
0.00372052
0.00183962
0.000448603
0.000851766
0.00164383
0.00203115
0.00242599
0.0027329
0.00281315
0.00278109
0.00308062
0.00308217
0.00306818
0.00256183
0.00248688
0.00181138
0.000896487
0.000843353
0.00234573
0.00346365
0.00234633
0.00101766
0.000260955
0.000411511
0.00103446
0.00146752
0.00136964
0.00177078
0.00190976
0.00191433
0.00170902
0.00177235
0.0016537
0.00164676
0.00149451
0.00107687
0.000473336
0.000659222
0.00141477
0.00107492
0.000632483
0.000488475
0.000107171
0.000293702
0.000310774
0.000547668
0.000484087
0.000478992
0.000787858
0.000551745
0.000473956
0.000607276
0.00053332
0.000756415
0.000413838
0.000362856
0.000308926
6.73335e-05
0.000519453
0.0174649
0.0115479
0.00621426
0.00196231
0.000973565
0.0028173
0.00412969
0.00524022
0.00556663
0.00586736
0.00584668
0.00584641
0.00577364
0.00604532
0.00564144
0.00556589
0.0037713
0.00115786
0.0030934
0.00783469
0.0148647
0.0100283
0.00510871
0.00137227
0.00118364
0.00295356
0.0040648
0.00478883
0.0050397
0.00494252
0.00531111
0.00523917
0.00554799
0.00551697
0.00513775
0.00490574
0.00368435
0.00123166
0.00229628
0.00651827
0.0123186
0.00842733
0.00420327
0.00125
0.0010435
0.00301777
0.00344979
0.00429583
0.00438117
0.00474383
0.00460657
0.00458044
0.00457643
0.00464878
0.00456909
0.00429859
0.00342934
0.00135892
0.00209218
0.00515741
0.00994825
0.00683506
0.00341994
0.000748762
0.000988843
0.00230228
0.0031972
0.00349211
0.00394712
0.00384193
0.00414989
0.00396465
0.00397328
0.00400505
0.00398697
0.00371869
0.00280774
0.00117915
0.00158714
0.00428265
0.00798944
0.00517137
0.00288218
0.000482147
0.00073374
0.00193393
0.00244514
0.00314008
0.0029665
0.00319694
0.00337426
0.00325366
0.00328626
0.00304931
0.00310586
0.00308283
0.00238694
0.000881587
0.00140254
0.0033069
0.005624
0.00385557
0.00191145
0.000360064
0.000680033
0.00128365
0.00157644
0.00208293
0.00224479
0.0024726
0.002329
0.00242586
0.00246018
0.00234407
0.00226484
0.00204857
0.00176735
0.000782181
0.00080347
0.00226244
0.00357116
0.00228112
0.00114673
0.000355257
0.000333301
0.000901176
0.00120927
0.00148954
0.0015499
0.00132099
0.00151174
0.00149587
0.00149321
0.0016068
0.00164623
0.00151222
0.000969365
0.000482859
0.00039244
0.00124461
0.000901495
0.000870942
0.00033083
0.00024146
0.000204307
0.000203102
0.000204747
0.000591919
0.000325824
0.000521037
0.000401257
0.000321371
0.000239219
0.000450209
0.000674289
0.000421997
0.000586628
0.000313589
0.000130776
0.000358577
0.0171346
0.0118153
0.00636423
0.00216578
0.000412734
0.00210498
0.00304776
0.00354927
0.00361463
0.00372985
0.00373312
0.00367869
0.00388778
0.00415229
0.00459076
0.00437855
0.00315497
0.000863614
0.00319499
0.00762062
0.0146997
0.0100389
0.00515702
0.00189005
0.000366589
0.00204294
0.00291341
0.00335445
0.00335829
0.00345001
0.00343276
0.00344913
0.00373226
0.00414181
0.00427852
0.00395813
0.00289387
0.000828854
0.00280223
0.00657513
0.0122725
0.00814754
0.00468731
0.00139151
0.000575844
0.0017968
0.00274291
0.00308077
0.003006
0.00314017
0.00303213
0.00317284
0.00326567
0.0035745
0.00367241
0.00367128
0.00261017
0.000907213
0.00224149
0.0051416
0.0100312
0.00663373
0.00361601
0.00107383
0.00073085
0.00172432
0.00228372
0.00283624
0.00264396
0.00258223
0.00250609
0.00260495
0.00262084
0.00304254
0.0032153
0.00302122
0.00219433
0.000902805
0.00168457
0.00409536
0.00750432
0.00523408
0.00257825
0.00082566
0.000555002
0.00126974
0.00199353
0.00213061
0.00219657
0.00207686
0.00175349
0.00214696
0.0022063
0.00230695
0.00250478
0.00249972
0.00184342
0.000834308
0.00107135
0.00307346
0.00536003
0.0039651
0.00193663
0.000402531
0.000329945
0.000887427
0.00126638
0.0015107
0.00164558
0.00174433
0.00137679
0.00158144
0.00144047
0.00169652
0.00175925
0.00196706
0.00149545
0.00036621
0.000761936
0.00217038
0.003091
0.00244848
0.000885628
2.72214e-05
0.000410935
0.000596359
0.000894162
0.00083853
0.000878647
0.00102828
0.000887785
0.000876351
0.000865666
0.00119784
0.00119252
0.00111232
0.000721065
0.000578583
0.000521336
0.0013784
0.00101994
0.000686165
0.000375172
5.67782e-05
0.000111464
0.000220881
3.18362e-05
0.000341297
0.000178252
0.000316505
0.000463476
0.00040795
0.000378009
3.70237e-05
0.000469871
0.000360452
0.000371203
1.16371e-05
0.000269886
0.000317725
0.0172281
0.0118612
0.00691107
0.00319161
0.000670876
0.000955506
0.00183265
0.00181906
0.00187887
0.00146197
0.0014206
0.00121369
0.00191659
0.00262261
0.00271406
0.00284791
0.00225877
0.000207041
0.00374488
0.00808045
0.014781
0.0101214
0.00601121
0.00257845
0.00042137
0.00109423
0.00176769
0.00206451
0.00168872
0.00143124
0.00139447
0.0012795
0.00174684
0.00231229
0.00261515
0.00280101
0.00201593
5.56782e-05
0.00292522
0.00659896
0.0121402
0.00857961
0.00473048
0.0017222
0.000299127
0.0011036
0.00161975
0.00180602
0.00145448
0.00157323
0.00126173
0.00119654
0.00171516
0.00209111
0.00270104
0.00248631
0.0018113
0.000110755
0.00245852
0.00543533
0.0100515
0.00711879
0.00387248
0.00160987
0.000200138
0.000838503
0.00144469
0.00143857
0.00147698
0.00134924
0.00130827
0.00132636
0.00135276
0.00181671
0.00219383
0.00215661
0.00135477
0.000328614
0.00186682
0.00444572
0.00797779
0.0054388
0.00320514
0.00106593
7.98031e-05
0.0010515
0.00115944
0.00122737
0.00137691
0.00106104
0.00122006
0.00116251
0.00127178
0.0014882
0.00176059
0.00160993
0.00145338
0.000239225
0.00126891
0.00338048
0.00544429
0.00361143
0.00216125
0.000672683
8.18434e-05
0.000659576
0.00101755
0.000919035
0.000922738
0.00106164
0.000712241
0.000597611
0.000656267
0.00133725
0.00139696
0.00103511
0.000816304
1.72501e-05
0.00103985
0.00221525
0.00341653
0.0025774
0.00147305
0.000394845
0.000296386
0.000126563
0.000501304
0.000701062
0.000485123
0.000517729
0.000510036
0.000395411
0.000810411
0.000605655
0.000908613
0.000936726
0.000782156
0.000299155
0.000733736
0.00158359
0.000928013
0.000757228
0.000501373
0.000411686
1.40363e-05
2.88317e-05
7.69275e-06
0.000394769
0.000156285
8.19664e-05
2.5937e-05
0.000264258
1.32124e-05
6.28289e-05
0.000131223
0.000408595
0.000216411
6.94749e-05
0.000132368
0.00042744
0.0176242
0.0121091
0.00753691
0.00389778
0.00148649
0.000133246
0.000220879
0.000156215
0.000297026
0.000985476
0.00119998
0.00108348
0.000465903
0.000363626
0.00136927
0.0016319
0.00105536
0.000881328
0.00452426
0.00871306
0.0147841
0.0106695
0.00628289
0.00287143
0.00108487
2.11481e-05
0.000341296
0.00023349
8.19058e-05
0.000806132
0.000897372
0.000784805
0.000130824
0.000634345
0.00136934
0.00155891
0.000918328
0.000496111
0.00357959
0.00728957
0.0125584
0.00876732
0.00526033
0.00266114
0.000973246
4.38097e-06
0.000553403
0.000429473
0.000258414
0.000446444
0.000747805
0.000361445
0.000182933
0.000627045
0.00121714
0.00152358
0.000855637
0.000531529
0.00294771
0.0058364
0.010121
0.00700823
0.00431784
0.0020261
0.000551556
3.57947e-05
0.000397469
0.000639126
2.2013e-05
0.000200156
0.000378335
0.000409547
5.76228e-05
0.000526519
0.00132171
0.00118732
0.000880422
0.000441431
0.00210128
0.00473251
0.0076451
0.00568269
0.00336086
0.00162223
0.000432448
0.000162441
0.000439359
0.000260118
0.000209391
0.000292526
0.000127831
0.000294723
0.000139186
0.000617117
0.00103905
0.00119561
0.000888454
0.00023106
0.00185086
0.00364374
0.00553338
0.0042506
0.00240183
0.000902844
0.000364395
0.00045081
0.000466561
0.000290702
2.86236e-05
0.000170477
2.88416e-05
0.000104966
0.000113642
0.000379996
0.000646466
0.000812708
0.000626645
0.00010997
0.00112814
0.0024108
0.00331212
0.00243932
0.0011699
0.00076971
2.04259e-05
0.00011006
0.000300021
0.000303938
3.34448e-05
8.22703e-05
1.20519e-05
0.000339342
7.29205e-06
0.00038254
0.000342879
0.000538395
0.000191997
0.000123957
0.000881097
0.00163976
0.00144657
0.000690886
0.000499175
0.000392044
0.000186652
2.06856e-05
0.000113418
0.000105051
6.90433e-06
6.92414e-06
0.000192191
0.000142827
9.48096e-05
3.78877e-05
0.000181139
8.17279e-05
8.55419e-05
0.000182594
0.000170245
0.000503005
0.0177543
0.012701
0.00832989
0.00458054
0.00261623
0.00143703
0.0013626
0.00172474
0.00245497
0.00307777
0.00370085
0.0034357
0.00249867
0.00145815
0.000151769
0.000358655
0.000382848
0.00188332
0.00512476
0.00919829
0.0151422
0.0106788
0.00681426
0.00382614
0.00188368
0.0010218
0.000687181
0.00110717
0.00173983
0.0026325
0.0027196
0.00280105
0.00209516
0.000823221
9.99618e-05
0.000321138
3.88408e-05
0.00156213
0.00456827
0.00760929
0.0124512
0.00912434
0.0058067
0.0029846
0.00134539
0.00094462
0.00058821
0.000768501
0.0015024
0.00220719
0.00230527
0.00220336
0.0014889
0.000959876
9.73652e-05
0.00048968
0.000103845
0.00119771
0.0035678
0.00638042
0.0103337
0.00751541
0.00443215
0.00235524
0.00113434
0.000460678
0.000392964
0.000918615
0.00104938
0.00155318
0.00217286
0.00162485
0.00118869
0.000537417
4.94907e-05
0.000709573
0.000422732
0.00100487
0.00270896
0.00503616
0.00783531
0.00569237
0.00335486
0.00192822
0.000890065
0.000191435
0.000358043
0.00034719
0.000832103
0.00124701
0.00158113
0.00159862
0.000974155
0.00031421
0.000210249
0.000289051
0.000190151
0.00084473
0.00211126
0.00377044
0.00589748
0.00406548
0.00254033
0.00145267
0.000520117
2.27655e-05
3.94009e-05
0.000393521
0.000514928
0.00096654
0.000985806
0.000925543
0.000622473
0.000243228
5.51605e-05
0.000315284
0.000100192
0.000509986
0.00165206
0.00272163
0.00352644
0.00260826
0.00139931
0.000920895
0.000257412
9.39073e-05
3.1814e-05
0.000254144
0.000101293
0.000597101
0.000585635
0.000375744
0.000424959
7.56397e-05
0.000265426
0.000145846
0.000196335
3.15723e-05
0.000918949
0.00145648
0.00120318
0.0011443
0.000307082
0.000240242
0.000265979
0.00032601
7.06619e-05
6.39067e-05
0.000101981
0.00038847
0.00010075
0.000346199
0.000124904
0.000105975
0.000206387
0.000156014
9.24745e-05
0.000135595
0.000389397
0.000654774
0.0178727
0.0132294
0.00872688
0.00561415
0.00360544
0.00248145
0.00248624
0.00308096
0.0042138
0.00530549
0.00558111
0.00540239
0.00431748
0.00294212
0.00166254
0.00117944
0.00134284
0.00302434
0.00598386
0.0092859
0.0152562
0.0113642
0.00751966
0.00467392
0.00285165
0.00190092
0.00215471
0.00265564
0.00339068
0.00443121
0.00480057
0.00448923
0.0037496
0.00250088
0.00135039
0.000692986
0.0007139
0.00229346
0.00482483
0.00783142
0.0126661
0.00923736
0.00607798
0.00374166
0.00213758
0.00155704
0.00145143
0.00218185
0.00267736
0.00346975
0.00381839
0.00371608
0.00301308
0.00214593
0.000987473
0.000272831
0.000372267
0.00189981
0.0038957
0.0063919
0.0102137
0.00777674
0.0048499
0.00295681
0.00216102
0.00118473
0.001297
0.00183326
0.00211366
0.00288145
0.00318211
0.00323698
0.00230648
0.00170646
0.000842767
0.000194814
0.000564377
0.00118978
0.00338383
0.00502228
0.00800368
0.00618696
0.00388048
0.00233983
0.0013936
0.0010042
0.000947436
0.00128252
0.00165972
0.00239591
0.00231075
0.00220809
0.00190025
0.00161145
0.000448631
3.8544e-05
0.000182183
0.00100391
0.00236386
0.00392669
0.00564011
0.00425394
0.00303828
0.00161957
0.000921086
0.000784538
0.000787857
0.0007909
0.00106826
0.00153572
0.00193684
0.00150311
0.00120524
0.000737755
0.000421193
5.4579e-05
4.92773e-05
0.000522459
0.00166981
0.00272117
0.00371369
0.00255519
0.00165295
0.0010233
0.000891517
0.000439475
0.000415886
0.000420935
0.000706879
0.000854556
0.00108102
0.00108864
0.000741307
0.000480819
7.98856e-05
8.46001e-05
0.000157887
0.000492452
0.00119405
0.00187772
0.00144715
0.000977949
0.000638087
0.000421589
0.000340155
8.85823e-06
0.00024113
3.52327e-05
9.24632e-06
0.000533812
0.000408954
0.000483094
0.000340584
1.6808e-05
8.07039e-05
0.000130613
0.000100934
5.59389e-05
0.000518848
0.000565306
0.0177163
0.0133975
0.00909254
0.00574611
0.00428645
0.00355251
0.00338935
0.0044376
0.00544692
0.00675046
0.00718413
0.0069158
0.00570627
0.00429
0.0027709
0.00213442
0.00206767
0.00343863
0.00622367
0.00946742
0.0151338
0.0111185
0.00767527
0.00500388
0.00375652
0.00280993
0.00279915
0.00358507
0.00446718
0.005719
0.00604884
0.0058157
0.00495426
0.00384084
0.00224476
0.00144599
0.00161254
0.00270908
0.00514029
0.00814665
0.0125672
0.00954352
0.006544
0.00396217
0.0029721
0.00199948
0.0022285
0.00302455
0.00374934
0.00440694
0.00493862
0.00489135
0.00393495
0.00277882
0.00161981
0.0010239
0.00113925
0.00215932
0.00433469
0.00641927
0.0103825
0.00757829
0.00501013
0.00322616
0.00211019
0.00157857
0.00190383
0.00242159
0.00319806
0.00384925
0.00393247
0.00399235
0.00317884
0.00216853
0.00146541
0.000878427
0.0010346
0.0018288
0.00342464
0.00517523
0.00806223
0.00627167
0.0039352
0.002349
0.00160481
0.00093446
0.00129904
0.00200808
0.00228759
0.00285861
0.00307318
0.00313718
0.00240952
0.00180732
0.0012478
0.0007484
0.00057844
0.00144936
0.00246127
0.00400703
0.00587264
0.00419123
0.00303777
0.00178507
0.00142338
0.000805318
0.00099736
0.00132711
0.00178143
0.00213355
0.00229745
0.00222677
0.00176217
0.00126304
0.000663501
0.000520315
0.000392735
0.000757922
0.00189122
0.00277037
0.0036133
0.00257103
0.00159293
0.0010668
0.000599126
0.000443153
0.00076621
0.000744602
0.00105632
0.0012786
0.00151912
0.0011196
0.00112058
0.00083479
0.000169065
0.00029875
0.000375029
0.000411198
0.001087
0.00184409
0.000928704
0.000947814
0.000738295
0.000213242
0.000210011
1.83397e-05
0.000120607
0.000347971
0.000381794
0.000577617
0.0005254
0.000537419
0.000277032
0.000282039
8.50751e-05
0.000165967
3.98288e-05
4.08607e-05
0.000298795
0.000622676
0.0175465
0.0132959
0.00929399
0.00665863
0.00446645
0.00408639
0.00427708
0.00498748
0.00617235
0.0075154
0.00816326
0.0079012
0.00673996
0.00510015
0.0035765
0.00240922
0.00247794
0.00366657
0.00630334
0.0096795
0.014894
0.0113703
0.00775021
0.00546575
0.00373553
0.00327142
0.00338512
0.00449087
0.00537292
0.0064722
0.00701649
0.00677192
0.0055956
0.00419964
0.00281028
0.00186448
0.00206413
0.00286218
0.00538332
0.0079636
0.0122855
0.00946953
0.00672655
0.00442629
0.00305108
0.00264279
0.00284605
0.00344567
0.00452834
0.00530333
0.00572059
0.00553137
0.00461132
0.00356063
0.0024309
0.00139314
0.00145877
0.00222068
0.00430378
0.00634019
0.0100794
0.00771528
0.00507538
0.00332341
0.00262029
0.0021012
0.00208321
0.00248975
0.00350826
0.00410738
0.00457
0.00437366
0.00395146
0.00277852
0.00220982
0.00125244
0.00124926
0.00200553
0.00334733
0.00498958
0.00792105
0.00607945
0.00410973
0.00266875
0.00169178
0.00162226
0.00156178
0.00214592
0.00273721
0.00330596
0.003592
0.0035487
0.00277882
0.00205696
0.00118836
0.000846121
0.000951469
0.00135737
0.00277168
0.00390994
0.00549054
0.00425209
0.00293873
0.00192088
0.00132865
0.000996376
0.00120871
0.00182064
0.00201086
0.00242417
0.00273102
0.00246845
0.00209346
0.00139708
0.00111551
0.000493184
0.000612887
0.000967335
0.00186646
0.00301919
0.00330476
0.00272598
0.00169773
0.000993166
0.000661908
0.000623931
0.00050419
0.001199
0.00145365
0.00131708
0.00162202
0.00154501
0.00135816
0.000888161
0.000734627
0.000394624
0.000318507
0.00067852
0.00125826
0.00160679
0.000991573
0.000950184
0.000526526
0.000234395
0.000335066
0.000158568
0.000310232
0.000408254
0.000279588
0.000692016
0.000815774
0.000525122
0.000420128
6.30154e-05
0.000312945
3.40708e-05
9.67446e-05
0.000247635
0.000526313
0.000440985
0.0170364
0.0127582
0.00920941
0.00642722
0.00471716
0.0041296
0.00456448
0.00544726
0.00664435
0.00801625
0.00814964
0.00800193
0.00682117
0.00538728
0.00362791
0.00275029
0.00265622
0.00375367
0.00605454
0.00887576
0.0141886
0.0107021
0.00765521
0.00533053
0.00396173
0.00326598
0.00370843
0.00450371
0.00549589
0.00656352
0.00737738
0.00670974
0.00619017
0.00432266
0.00316214
0.00203458
0.00166958
0.00290986
0.00477989
0.00739965
0.0118489
0.00920121
0.00610509
0.00413175
0.00327184
0.00276764
0.00287499
0.00374993
0.00473051
0.0054349
0.00584397
0.00560196
0.00481957
0.00373223
0.00218297
0.00172156
0.00151894
0.00241668
0.00396522
0.00602758
0.00973193
0.00749427
0.00511599
0.00354989
0.00241734
0.00217505
0.00214303
0.00262431
0.00380073
0.00444994
0.00474455
0.00468674
0.00389579
0.00281397
0.00179235
0.00114419
0.00111654
0.00208577
0.00304188
0.00482543
0.00756146
0.00575939
0.00388796
0.00261122
0.0017678
0.00167126
0.00184261
0.00214389
0.0026519
0.00356627
0.00365456
0.00342704
0.00274407
0.00220006
0.0013706
0.000949291
0.000790662
0.00125328
0.00229565
0.00362154
0.00550258
0.00392794
0.00247484
0.00158732
0.00106955
0.00120787
0.00154305
0.00172724
0.00188773
0.00234828
0.00244491
0.00242258
0.00215688
0.00138117
0.00123143
0.000505361
0.000810881
0.000806517
0.00174105
0.00250525
0.00313322
0.00245572
0.00193645
0.000904553
0.000923576
0.000999132
0.000629872
0.00089864
0.001174
0.00166439
0.00143081
0.00166533
0.00119819
0.00110325
0.00073391
0.000262693
0.000293354
0.000827055
0.00109603
0.00172701
0.00120347
0.000683903
0.000447348
0.00051277
0.000322605
0.000133659
0.000423343
0.00017765
0.000399082
0.000402263
0.000510469
0.000358725
0.000638889
0.000534768
0.000167536
0.000128536
0.000116836
0.000128168
0.000343901
0.000390971
0.0159395
0.0121006
0.00846672
0.00601794
0.00429555
0.00396262
0.00425187
0.0050573
0.00651063
0.00727247
0.00779586
0.00769054
0.00612127
0.00480662
0.00317391
0.00232157
0.00211523
0.00315644
0.00543534
0.00842063
0.0134685
0.0100351
0.00728901
0.00492835
0.00353814
0.00315972
0.00339833
0.00405506
0.00509293
0.00629059
0.00691467
0.00631665
0.00552469
0.0040637
0.00254902
0.00175035
0.00157379
0.00248113
0.00448098
0.0068745
0.011481
0.00864689
0.00597902
0.00400772
0.0028861
0.00238971
0.00281637
0.00367776
0.00455827
0.00542547
0.00564646
0.00523807
0.00431691
0.00336999
0.00208394
0.00119814
0.00113995
0.00197555
0.00367084
0.0055571
0.00885845
0.00674514
0.00475161
0.00303822
0.00245022
0.0019457
0.00206763
0.00289338
0.0034904
0.00421567
0.00450627
0.00419848
0.00358338
0.00234521
0.00158952
0.000707236
0.00092489
0.00137857
0.00285336
0.00426946
0.00723572
0.00531108
0.00369203
0.00244275
0.00160077
0.00126027
0.00157257
0.00227439
0.00259817
0.00323689
0.00328009
0.0031492
0.00266291
0.00195349
0.00102781
0.000699613
0.000563145
0.0009315
0.00221245
0.00346434
0.00514583
0.00399751
0.00259499
0.00160849
0.00130863
0.00106702
0.00123469
0.00140596
0.00202678
0.0022741
0.00243388
0.00237123
0.00185434
0.00123955
0.00074124
0.000415492
0.00034673
0.000713195
0.00144891
0.00219218
0.00319573
0.00253589
0.0014905
0.00107367
0.000798274
0.00066199
0.000520107
0.000776289
0.00107648
0.00152555
0.00128407
0.00141781
0.00109921
0.000858591
0.000532416
0.000176116
0.000379374
0.000447792
0.000763029
0.00144496
0.00130705
0.000808829
0.000514249
4.20822e-05
0.00040642
0.000139029
0.000430348
0.000255173
0.000488999
0.000521383
0.000685142
0.000406617
0.000350264
4.72266e-05
0.000142758
0.000106774
8.59056e-05
0.000193875
0.000566805
0.000537809
0.0145721
0.0111759
0.0076147
0.00516421
0.00388983
0.00319047
0.00354199
0.00449347
0.00549377
0.00637648
0.00673335
0.00631026
0.0051278
0.00376143
0.00218611
0.00128814
0.00128341
0.00224478
0.00439302
0.00696535
0.0125062
0.00912588
0.00632009
0.00396535
0.00294321
0.00267218
0.00284867
0.00359239
0.00454614
0.00531215
0.00541822
0.00528356
0.00432344
0.00322087
0.00170807
0.00101914
0.000703915
0.00160817
0.00341422
0.00593085
0.0104866
0.0077239
0.0049837
0.00334318
0.00248293
0.00195145
0.00192263
0.00306301
0.00359155
0.00407249
0.0044804
0.00455255
0.00350304
0.00266297
0.00131372
0.000667212
0.000357916
0.000976531
0.00277431
0.00477014
0.00855793
0.00606366
0.00403682
0.00254762
0.00189
0.0012492
0.00165254
0.00224437
0.00273825
0.00343338
0.00359557
0.0034289
0.00277732
0.00194762
0.000819165
0.000357229
0.00011093
0.000829421
0.00225206
0.00345623
0.00643465
0.00466773
0.00326208
0.00180448
0.00120792
0.00145173
0.00125516
0.00178872
0.00230152
0.00258177
0.00277179
0.00261636
0.00227808
0.00147736
0.000447621
0.000408164
2.71237e-05
0.000434177
0.00137831
0.002715
0.00478619
0.00341249
0.00250876
0.00143876
0.000726324
0.000655041
0.000962533
0.00120803
0.00140879
0.00201581
0.00221094
0.00195516
0.00168266
0.000985735
0.000369744
0.000130577
4.45539e-05
0.000303021
0.000979706
0.00191467
0.00257593
0.00213486
0.00138986
0.000993233
0.000301344
0.000536506
0.000389535
0.000539867
0.00102106
0.0010749
0.00118661
0.000990786
0.00107588
0.000473794
0.000167503
0.0001612
0.000143857
0.000107563
0.000457424
0.001156
0.00123073
0.000798937
0.000579078
0.000408484
0.000250054
0.000539275
0.000192304
0.000373677
0.000298441
0.000135047
0.0007098
0.00049348
0.000473849
0.000120995
4.93838e-06
7.0324e-05
3.60594e-05
7.19577e-05
0.000319459
0.00034663
0.0131642
0.00960725
0.00624648
0.00384976
0.00250682
0.00201487
0.00222343
0.00278029
0.00394332
0.00468969
0.00499436
0.00474142
0.00353259
0.00232033
0.00131534
5.81833e-05
0.000185325
0.00114321
0.00295093
0.00553876
0.0109466
0.00828185
0.00502825
0.00307006
0.00202079
0.00144407
0.00158056
0.00224782
0.00314895
0.00366113
0.00401218
0.0038261
0.00277272
0.00184881
0.00041929
0.000299826
0.000315499
0.000374546
0.00204239
0.00447168
0.00899123
0.00648684
0.00404759
0.00213903
0.00142478
0.000862959
0.00127527
0.00161191
0.00233964
0.00306194
0.00335946
0.00296036
0.0022943
0.00134016
0.000273283
0.000438982
0.000576879
3.21533e-05
0.00155474
0.0033963
0.00734593
0.00526162
0.00342176
0.00174464
0.000919299
0.000614223
0.000758952
0.00133584
0.00186479
0.00237651
0.00255081
0.00223263
0.00145761
0.000880442
4.84728e-05
0.000670904
0.000379132
1.81172e-05
0.0011941
0.002918
0.00571641
0.00407163
0.00229615
0.00127761
0.000468238
0.00049899
0.000587821
0.00102003
0.00130614
0.0020176
0.00186472
0.00178947
0.00114137
0.000477006
0.000167403
0.000658939
0.00061183
0.000234306
0.00060883
0.0018667
0.00422215
0.00278594
0.0019452
0.00105996
0.000537601
0.000425734
0.000336397
0.000477165
0.000870148
0.00152363
0.0013851
0.00121985
0.000746064
0.000351027
3.59117e-05
0.00058999
0.000421451
0.000168372
0.000623616
0.00140619
0.00226873
0.00152609
0.00112078
0.000602989
0.000358322
0.000234102
0.000157265
0.000400092
0.00069984
0.000712916
0.000934961
0.00079866
0.00049292
0.000108432
1.29993e-05
0.000265517
0.000412402
0.000111601
0.00032775
0.000853081
0.000883134
0.00049822
8.55825e-05
0.000265783
9.62326e-05
0.00032881
6.35065e-05
2.34361e-05
6.79428e-05
0.000146185
0.000333955
0.000455665
0.000251355
1.16611e-05
2.68419e-05
0.000178399
0.000143322
0.000227905
0.000438713
0.000326699
0.0113305
0.00784684
0.00456942
0.00233314
0.000814068
0.00045284
0.000599279
0.00108945
0.00189434
0.00270025
0.00266964
0.00247271
0.00125643
0.000183038
0.000919699
0.00178892
0.00193949
0.000894472
0.00093954
0.00352518
0.00936013
0.00635989
0.00357916
0.00171529
0.000369697
0.000166003
4.86757e-05
0.000766074
0.00132753
0.00183921
0.00202549
0.00149885
0.000901606
0.000194477
0.00114115
0.00200995
0.00204328
0.000979666
0.000432578
0.00292579
0.0077081
0.00538034
0.00288161
0.000994266
2.39715e-05
0.000163772
0.000456676
0.000290728
0.000861793
0.00173387
0.00150727
0.00128671
0.000691003
0.000282128
0.00140812
0.00203666
0.00201658
0.00129556
0.000209089
0.00190069
0.00639594
0.00403196
0.00210447
0.00058436
0.000120508
0.000244455
0.000422697
7.57894e-05
0.000790355
0.000926992
0.00115733
0.0008705
0.000590751
0.00062151
0.00157786
0.00183119
0.00185653
0.00129558
3.338e-05
0.00137375
0.00473054
0.00318933
0.00163206
0.000412713
0.000249652
0.000334924
0.000426634
5.14748e-05
0.000305833
0.000590888
0.000856788
0.00076949
6.32597e-06
0.00028688
0.00109861
0.00150577
0.00137961
0.0011432
0.000245945
0.000888498
0.00320881
0.00220797
0.00115382
0.000250201
9.61729e-05
0.000467937
0.000439546
0.000142894
0.000293486
0.000405212
0.000349262
0.00049148
1.92809e-05
0.000264455
0.000770981
0.0012433
0.00123836
0.00107564
0.000136786
0.000462408
0.00184007
0.00135422
0.000608887
8.18448e-05
5.60738e-05
0.000628295
0.000341474
1.30952e-05
8.49638e-05
2.55901e-05
0.000434295
0.000328896
5.3066e-06
0.000406796
0.000648394
0.000753578
0.000703865
0.000530224
0.000196611
0.000382538
0.000603476
0.000446923
0.000398604
0.000111405
0.000121106
0.000282478
0.000323762
0.000144808
0.000192245
2.06348e-05
0.0001033
7.82092e-05
4.27782e-05
5.43575e-05
0.000231905
0.000237875
0.000442805
0.00024769
7.90107e-05
1.2301e-06
0.00916308
0.0056722
0.00256605
0.000471711
0.00089533
0.00144881
0.00129623
0.0011271
0.000398997
0.00011507
0.000105215
0.000257117
0.00120534
0.00211837
0.0032745
0.00397869
0.00406169
0.00316391
0.00112129
0.00158572
0.00731004
0.00456068
0.00184744
4.85398e-06
0.00125858
0.00188272
0.00168764
0.00108668
0.000575306
0.000343873
0.000300563
0.000669701
0.00127915
0.0021988
0.0031755
0.00392391
0.00375523
0.00326758
0.00149196
0.000816578
0.00579634
0.00377405
0.00126944
0.000529754
0.0014323
0.00192102
0.00169796
0.00114055
0.000923213
0.000534258
0.000393028
0.00073292
0.001225
0.00225038
0.00315609
0.00369826
0.00353171
0.00303016
0.00165875
0.000333221
0.00488055
0.00272234
0.000887571
0.000577167
0.00148332
0.00190786
0.00128869
0.00125172
0.000654629
0.000574726
0.000589195
0.00050538
0.00137702
0.00204447
0.00268481
0.00334922
0.00309013
0.00250996
0.00168378
3.12389e-05
0.00345554
0.00183847
0.000755405
0.000668205
0.000999066
0.00141779
0.00161436
0.00113893
0.000928931
0.00042107
0.000588318
0.000532575
0.00129315
0.00166254
0.00224277
0.00253868
0.00249294
0.00206725
0.00136465
0.000326165
0.00244864
0.00152621
0.000423606
0.000883474
0.000819542
0.000957305
0.00112165
0.00102313
0.000757208
0.000361732
0.000440551
0.00052832
0.000982402
0.00122322
0.00175823
0.00216274
0.00193281
0.00193572
0.00101587
0.000125317
0.00156012
0.00104795
0.000101602
0.000444904
0.000529184
0.00074964
0.000767023
0.000726826
0.000436692
0.000310708
0.000204895
0.000539594
0.000798274
0.0011013
0.0010676
0.00122043
0.00132527
0.00123561
0.000551639
0.000155214
0.000498694
0.000172371
7.57945e-05
0.000420896
0.000355844
0.000242719
0.000293702
0.000153071
0.000150916
8.14823e-05
5.74179e-05
0.000235042
0.000237329
7.71237e-05
0.000225099
0.000383399
0.000424982
0.00048329
0.000455859
8.69707e-05
0.00680008
0.00312241
0.000151105
0.0020253
0.00305897
0.00388934
0.00400835
0.00350343
0.00310751
0.00272046
0.00273725
0.00307429
0.00399107
0.00485913
0.00580316
0.00661461
0.00652847
0.00546694
0.00333401
0.000877278
0.00534456
0.00268012
0.000217509
0.0021332
0.00317784
0.00368407
0.00373913
0.00367556
0.0033073
0.00282564
0.0028954
0.00319654
0.00395972
0.00476408
0.00533857
0.00620463
0.00594404
0.00510942
0.00382318