/*--------------------------------*- C++ -*----------------------------------*\
| =========                 |                                                 |
| \\      /  F ield         | OpenFOAM: The Open Source CFD Toolbox           |
|  \\    /   O peration     | Version:  2212                                  |
|   \\  /    A nd           | Website:  www.openfoam.com                      |
|    \\/     M anipulation  |                                                 |
\*---------------------------------------------------------------------------*/
FoamFile
{
    version     2.0;
    format      ascii;
    arch        "LSB;label=32;scalar=64";
    class       volScalarField;
    location    "./ITHACAoutput/true/2.8";
    object      trueState;
}
// * * * * * * * * * * * * * * * * * * * * * * * * * * * * * * * * * * * * * //

dimensions      [0 0 0 1 0 0 0];

internalField   nonuniform List<scalar> 
3200
(
343.069
344.015
345.222
346.538
347.893
349.223
350.451
351.487
352.242
352.641
352.641
352.242
351.487
350.451
349.223
347.893
346.538
345.222
344.015
343.069
337.357
338.157
339.199
340.337
341.51
342.66
343.722
344.617
345.269
345.613
345.613
345.269
344.617
343.722
342.66
341.51
340.337
339.199
338.157
337.357
331.633
332.297
333.174
334.136
335.127
336.099
336.995
337.751
338.301
338.591
338.591
338.301
337.751
336.995
336.099
335.127
334.136
333.174
332.297
331.633
325.899
326.433
327.148
327.934
328.744
329.539
330.271
330.888
331.337
331.574
331.574
331.337
330.888
330.271
329.539
328.744
327.934
327.148
326.433
325.899
320.157
320.567
321.122
321.733
322.362
322.98
323.548
324.028
324.376
324.56
324.56
324.376
324.028
323.548
322.98
322.362
321.733
321.122
320.567
320.157
314.409
314.7
315.095
315.531
315.981
316.421
316.827
317.169
317.418
317.549
317.549
317.418
317.169
316.827
316.421
315.981
315.531
315.095
314.7
314.409
308.657
308.83
309.067
309.329
309.599
309.864
310.107
310.313
310.462
310.541
310.541
310.462
310.313
310.107
309.864
309.599
309.329
309.067
308.83
308.657
302.902
302.96
303.04
303.127
303.218
303.306
303.388
303.457
303.507
303.533
303.533
303.507
303.457
303.388
303.306
303.218
303.127
303.04
302.96
302.902
343.176
344.113
345.31
346.614
347.955
349.271
350.484
351.507
352.253
352.646
352.646
352.253
351.507
350.484
349.271
347.955
346.614
345.31
344.113
343.176
337.449
338.243
339.275
340.403
341.563
342.701
343.75
344.635
345.278
345.618
345.618
345.278
344.635
343.75
342.701
341.563
340.403
339.275
338.243
337.449
331.71
332.369
333.239
334.191
335.172
336.134
337.019
337.766
338.309
338.595
338.595
338.309
337.766
337.019
336.134
335.172
334.191
333.239
332.369
331.71
325.962
326.492
327.201
327.98
328.782
329.567
330.291
330.9
331.344
331.577
331.577
331.344
330.9
330.291
329.567
328.782
327.98
327.201
326.492
325.962
320.206
320.613
321.163
321.768
322.391
323.002
323.564
324.037
324.382
324.563
324.563
324.382
324.037
323.564
323.002
322.391
321.768
321.163
320.613
320.206
314.444
314.732
315.124
315.556
316.001
316.437
316.839
317.176
317.422
317.552
317.552
317.422
317.176
316.839
316.437
316.001
315.556
315.124
314.732
314.444
308.678
308.85
309.085
309.344
309.612
309.873
310.114
310.317
310.464
310.542
310.542
310.464
310.317
310.114
309.873
309.612
309.344
309.085
308.85
308.678
302.909
302.967
303.045
303.132
303.222
303.31
303.39
303.458
303.508
303.534
303.534
303.508
303.458
303.39
303.31
303.222
303.132
303.045
302.967
302.909
343.389
344.312
345.488
346.767
348.082
349.369
350.554
351.553
352.279
352.662
352.662
352.279
351.553
350.554
349.369
348.082
346.767
345.488
344.312
343.389
337.633
338.414
339.429
340.536
341.673
342.787
343.812
344.674
345.302
345.633
345.633
345.302
344.674
343.812
342.787
341.673
340.536
339.429
338.414
337.633
331.865
332.514
333.369
334.304
335.265
336.206
337.071
337.8
338.329
338.608
338.608
338.329
337.8
337.071
336.206
335.265
334.304
333.369
332.514
331.865
326.089
326.611
327.308
328.072
328.858
329.627
330.334
330.928
331.36
331.588
331.588
331.36
330.928
330.334
329.627
328.858
328.072
327.308
326.611
326.089
320.304
320.705
321.246
321.84
322.451
323.048
323.597
324.059
324.395
324.572
324.572
324.395
324.059
323.597
323.048
322.451
321.84
321.246
320.705
320.304
314.514
314.798
315.183
315.607
316.044
316.47
316.863
317.192
317.432
317.558
317.558
317.432
317.192
316.863
316.47
316.044
315.607
315.183
314.798
314.514
308.72
308.889
309.12
309.375
309.637
309.893
310.129
310.326
310.47
310.546
310.546
310.47
310.326
310.129
309.893
309.637
309.375
309.12
308.889
308.72
302.923
302.98
303.057
303.143
303.23
303.316
303.395
303.461
303.51
303.535
303.535
303.51
303.461
303.395
303.316
303.23
303.143
303.057
302.98
302.923
343.711
344.612
345.759
347.003
348.279
349.525
350.67
351.632
352.331
352.7
352.7
352.331
351.632
350.67
349.525
348.279
347.003
345.759
344.612
343.711
337.911
338.674
339.663
340.74
341.844
342.922
343.912
344.744
345.348
345.666
345.666
345.348
344.744
343.912
342.922
341.844
340.74
339.663
338.674
337.911
332.1
332.733
333.567
334.477
335.41
336.321
337.157
337.859
338.369
338.638
338.638
338.369
337.859
337.157
336.321
335.41
334.477
333.567
332.733
332.1
326.28
326.79
327.47
328.213
328.976
329.721
330.404
330.977
331.393
331.613
331.613
331.393
330.977
330.404
329.721
328.976
328.213
327.47
326.79
326.28
320.453
320.845
321.372
321.95
322.543
323.121
323.652
324.098
324.421
324.591
324.591
324.421
324.098
323.652
323.121
322.543
321.95
321.372
320.845
320.453
314.621
314.898
315.273
315.686
316.109
316.523
316.902
317.22
317.45
317.572
317.572
317.45
317.22
316.902
316.523
316.109
315.686
315.273
314.898
314.621
308.784
308.949
309.174
309.422
309.677
309.925
310.152
310.343
310.481
310.554
310.554
310.481
310.343
310.152
309.925
309.677
309.422
309.174
308.949
308.784
302.945
303
303.075
303.158
303.244
303.327
303.403
303.467
303.513
303.538
303.538
303.513
303.467
303.403
303.327
303.244
303.158
303.075
303
302.945
344.144
345.018
346.127
347.327
348.553
349.748
350.842
351.759
352.424
352.774
352.774
352.424
351.759
350.842
349.748
348.553
347.327
346.127
345.018
344.144
338.286
339.026
339.982
341.021
342.082
343.115
344.062
344.855
345.43
345.732
345.732
345.43
344.855
344.062
343.115
342.082
341.021
339.982
339.026
338.286
332.417
333.03
333.836
334.714
335.611
336.484
337.284
337.954
338.439
338.694
338.694
338.439
337.954
337.284
336.484
335.611
334.714
333.836
333.03
332.417
326.539
327.033
327.69
328.407
329.141
329.855
330.508
331.055
331.451
331.66
331.66
331.451
331.055
330.508
329.855
329.141
328.407
327.69
327.033
326.539
320.654
321.033
321.543
322.1
322.671
323.226
323.733
324.158
324.466
324.628
324.628
324.466
324.158
323.733
323.226
322.671
322.1
321.543
321.033
320.654
314.764
315.032
315.396
315.794
316.201
316.597
316.96
317.263
317.483
317.598
317.598
317.483
317.263
316.96
316.597
316.201
315.794
315.396
315.032
314.764
308.87
309.03
309.248
309.487
309.732
309.969
310.187
310.369
310.501
310.57
310.57
310.501
310.369
310.187
309.969
309.732
309.487
309.248
309.03
308.87
302.974
303.027
303.1
303.18
303.262
303.342
303.415
303.476
303.52
303.543
303.543
303.52
303.476
303.415
303.342
303.262
303.18
303.1
303.027
302.974
344.693
345.535
346.599
347.747
348.915
350.049
351.084
351.949
352.575
352.904
352.904
352.575
351.949
351.084
350.049
348.915
347.747
346.599
345.535
344.693
338.76
339.472
340.39
341.384
342.395
343.376
344.272
345.021
345.562
345.846
345.846
345.562
345.021
344.272
343.376
342.395
341.384
340.39
339.472
338.76
332.817
333.408
334.181
335.021
335.876
336.705
337.462
338.094
338.551
338.791
338.791
338.551
338.094
337.462
336.705
335.876
335.021
334.181
333.408
332.817
326.866
327.341
327.972
328.658
329.357
330.035
330.654
331.17
331.544
331.74
331.74
331.544
331.17
330.654
330.035
329.357
328.658
327.972
327.341
326.866
320.908
321.273
321.762
322.296
322.839
323.366
323.847
324.248
324.538
324.69
324.69
324.538
324.248
323.847
323.366
322.839
322.296
321.762
321.273
320.908
314.945
315.203
315.552
315.933
316.321
316.698
317.041
317.328
317.535
317.643
317.643
317.535
317.328
317.041
316.698
316.321
315.933
315.552
315.203
314.945
308.979
309.133
309.342
309.571
309.804
310.03
310.236
310.408
310.532
310.597
310.597
310.532
310.408
310.236
310.03
309.804
309.571
309.342
309.133
308.979
303.01
303.061
303.132
303.208
303.286
303.362
303.431
303.489
303.53
303.552
303.552
303.53
303.489
303.431
303.362
303.286
303.208
303.132
303.061
303.01
345.361
346.166
347.18
348.269
349.373
350.441
351.411
352.22
352.803
353.109
353.109
352.803
352.22
351.411
350.441
349.373
348.269
347.18
346.166
345.361
339.338
340.018
340.893
341.836
342.792
343.716
344.556
345.255
345.76
346.024
346.024
345.76
345.255
344.556
343.716
342.792
341.836
340.893
340.018
339.338
333.305
333.869
334.606
335.403
336.212
336.993
337.703
338.294
338.72
338.943
338.943
338.72
338.294
337.703
336.993
336.212
335.403
334.606
333.869
333.305
327.264
327.718
328.32
328.971
329.632
330.271
330.851
331.334
331.682
331.864
331.864
331.682
331.334
330.851
330.271
329.632
328.971
328.32
327.718
327.264
321.217
321.566
322.032
322.539
323.053
323.549
324
324.376
324.646
324.788
324.788
324.646
324.376
324
323.549
323.053
322.539
322.032
321.566
321.217
315.166
315.413
315.745
316.107
316.474
316.829
317.151
317.419
317.612
317.713
317.713
317.612
317.419
317.151
316.829
316.474
316.107
315.745
315.413
315.166
309.111
309.258
309.458
309.675
309.895
310.108
310.302
310.463
310.579
310.639
310.639
310.579
310.463
310.302
310.108
309.895
309.675
309.458
309.258
309.111
303.054
303.104
303.17
303.243
303.317
303.388
303.453
303.507
303.546
303.566
303.566
303.546
303.507
303.453
303.388
303.317
303.243
303.17
303.104
303.054
346.153
346.917
347.877
348.904
349.94
350.936
351.838
352.588
353.126
353.409
353.409
353.126
352.588
351.838
350.936
349.94
348.904
347.877
346.917
346.153
340.022
340.669
341.497
342.385
343.282
344.145
344.926
345.575
346.041
346.285
346.285
346.041
345.575
344.926
344.145
343.282
342.385
341.497
340.669
340.022
333.882
334.419
335.117
335.868
336.626
337.356
338.016
338.564
338.958
339.164
339.164
338.958
338.564
338.016
337.356
336.626
335.868
335.117
334.419
333.882
327.736
328.168
328.737
329.351
329.971
330.568
331.107
331.555
331.877
332.045
332.045
331.877
331.555
331.107
330.568
329.971
329.351
328.737
328.168
327.736
321.584
321.915
322.357
322.834
323.316
323.78
324.2
324.548
324.798
324.929
324.929
324.798
324.548
324.2
323.78
323.316
322.834
322.357
321.915
321.584
315.427
315.662
315.977
316.318
316.662
316.994
317.293
317.542
317.72
317.814
317.814
317.72
317.542
317.293
316.994
316.662
316.318
315.977
315.662
315.427
309.268
309.408
309.597
309.802
310.009
310.208
310.388
310.537
310.644
310.7
310.7
310.644
310.537
310.388
310.208
310.009
309.802
309.597
309.408
309.268
303.107
303.154
303.217
303.286
303.355
303.422
303.482
303.532
303.568
303.587
303.587
303.568
303.532
303.482
303.422
303.355
303.286
303.217
303.154
303.107
347.073
347.795
348.698
349.659
350.624
351.548
352.381
353.07
353.563
353.821
353.821
353.563
353.07
352.381
351.548
350.624
349.659
348.698
347.795
347.073
340.817
341.428
342.207
343.039
343.875
344.675
345.396
345.993
346.42
346.643
346.643
346.42
345.993
345.396
344.675
343.875
343.039
342.207
341.428
340.817
334.553
335.06
335.717
336.42
337.127
337.804
338.414
338.918
339.279
339.468
339.468
339.279
338.918
338.414
337.804
337.127
336.42
335.717
335.06
334.553
328.284
328.692
329.227
329.802
330.381
330.934
331.433
331.845
332.14
332.294
332.294
332.14
331.845
331.433
330.934
330.381
329.802
329.227
328.692
328.284
322.01
322.323
322.738
323.185
323.635
324.065
324.453
324.773
325.003
325.123
325.123
325.003
324.773
324.453
324.065
323.635
323.185
322.738
322.323
322.01
315.731
315.953
316.249
316.569
316.89
317.197
317.474
317.703
317.867
317.952
317.952
317.867
317.703
317.474
317.197
316.89
316.569
316.249
315.953
315.731
309.451
309.583
309.76
309.952
310.145
310.33
310.496
310.633
310.732
310.783
310.783
310.732
310.633
310.496
310.33
310.145
309.952
309.76
309.583
309.451
303.168
303.212
303.272
303.336
303.401
303.463
303.518
303.564
303.597
303.615
303.615
303.597
303.564
303.518
303.463
303.401
303.336
303.272
303.212
303.168
348.125
348.803
349.648
350.543
351.437
352.288
353.052
353.681
354.13
354.365
354.365
354.13
353.681
353.052
352.288
351.437
350.543
349.648
348.803
348.125
341.726
342.3
343.029
343.804
344.579
345.316
345.978
346.522
346.911
347.114
347.114
346.911
346.522
345.978
345.316
344.579
343.804
343.029
342.3
341.726
335.322
335.798
336.412
337.067
337.722
338.346
338.905
339.366
339.695
339.866
339.866
339.695
339.366
338.905
338.346
337.722
337.067
336.412
335.798
335.322
328.911
329.295
329.796
330.331
330.867
331.377
331.835
332.211
332.48
332.621
332.621
332.48
332.211
331.835
331.377
330.867
330.331
329.796
329.295
328.911
322.497
322.791
323.18
323.596
324.013
324.41
324.766
325.059
325.268
325.377
325.377
325.268
325.059
324.766
324.41
324.013
323.596
323.18
322.791
322.497
316.079
316.288
316.565
316.862
317.16
317.443
317.698
317.907
318.056
318.134
318.134
318.056
317.907
317.698
317.443
317.16
316.862
316.565
316.288
316.079
309.659
309.784
309.95
310.128
310.307
310.478
310.63
310.756
310.846
310.892
310.892
310.846
310.756
310.63
310.478
310.307
310.128
309.95
309.784
309.659
303.238
303.28
303.335
303.395
303.455
303.512
303.563
303.605
303.635
303.651
303.651
303.635
303.605
303.563
303.512
303.455
303.395
303.335
303.28
303.238
349.314
349.948
350.735
351.563
352.387
353.167
353.863
354.435
354.842
355.054
355.054
354.842
354.435
353.863
353.167
352.387
351.563
350.735
349.948
349.314
342.754
343.291
343.97
344.687
345.401
346.077
346.68
347.175
347.528
347.711
347.711
347.528
347.175
346.68
346.077
345.401
344.687
343.97
343.291
342.754
336.19
336.635
337.207
337.814
338.417
338.989
339.5
339.918
340.216
340.371
340.371
340.216
339.918
339.5
338.989
338.417
337.814
337.207
336.635
336.19
329.621
329.979
330.445
330.942
331.436
331.903
332.321
332.663
332.907
333.034
333.034
332.907
332.663
332.321
331.903
331.436
330.942
330.445
329.979
329.621
323.048
323.323
323.685
324.071
324.455
324.819
325.144
325.41
325.599
325.698
325.698
325.599
325.41
325.144
324.819
324.455
324.071
323.685
323.323
323.048
316.473
316.667
316.925
317.201
317.476
317.736
317.968
318.158
318.293
318.364
318.364
318.293
318.158
317.968
317.736
317.476
317.201
316.925
316.667
316.473
309.896
310.012
310.167
310.332
310.497
310.653
310.792
310.907
310.988
311.03
311.03
310.988
310.907
310.792
310.653
310.497
310.332
310.167
310.012
309.896
303.317
303.356
303.408
303.463
303.519
303.571
303.618
303.656
303.683
303.697
303.697
303.683
303.656
303.618
303.571
303.519
303.463
303.408
303.356
303.317
350.643
351.234
351.963
352.727
353.482
354.194
354.826
355.342
355.709
355.9
355.9
355.709
355.342
354.826
354.194
353.482
352.727
351.963
351.234
350.643
343.904
344.404
345.033
345.695
346.349
346.966
347.514
347.961
348.279
348.444
348.444
348.279
347.961
347.514
346.966
346.349
345.695
345.033
344.404
343.904
337.161
337.575
338.105
338.665
339.219
339.741
340.204
340.583
340.851
340.991
340.991
340.851
340.583
340.204
339.741
339.219
338.665
338.105
337.575
337.161
330.414
330.747
331.18
331.638
332.091
332.518
332.897
333.207
333.426
333.54
333.54
333.426
333.207
332.897
332.518
332.091
331.638
331.18
330.747
330.414
323.664
323.921
324.256
324.612
324.964
325.297
325.592
325.832
326.003
326.092
326.092
326.003
325.832
325.592
325.297
324.964
324.612
324.256
323.921
323.664
316.913
317.094
317.333
317.587
317.839
318.077
318.288
318.46
318.582
318.645
318.645
318.582
318.46
318.288
318.077
317.839
317.587
317.333
317.094
316.913
310.16
310.268
310.411
310.564
310.715
310.858
310.984
311.088
311.161
311.199
311.199
311.161
311.088
310.984
310.858
310.715
310.564
310.411
310.268
310.16
303.406
303.442
303.49
303.541
303.592
303.64
303.682
303.717
303.741
303.754
303.754
303.741
303.717
303.682
303.64
303.592
303.541
303.49
303.442
303.406
352.116
352.664
353.337
354.039
354.729
355.376
355.948
356.413
356.742
356.913
356.913
356.742
356.413
355.948
355.376
354.729
354.039
353.337
352.664
352.116
345.178
345.642
346.223
346.831
347.429
347.989
348.485
348.888
349.173
349.321
349.321
349.173
348.888
348.485
347.989
347.429
346.831
346.223
345.642
345.178
338.237
338.621
339.111
339.625
340.131
340.606
341.025
341.366
341.607
341.732
341.732
341.607
341.366
341.025
340.606
340.131
339.625
339.111
338.621
338.237
331.293
331.602
332.002
332.422
332.837
333.225
333.568
333.847
334.044
334.147
334.147
334.044
333.847
333.568
333.225
332.837
332.422
332.002
331.602
331.293
324.348
324.585
324.895
325.222
325.544
325.846
326.113
326.33
326.484
326.563
326.563
326.484
326.33
326.113
325.846
325.544
325.222
324.895
324.585
324.348
317.401
317.569
317.79
318.023
318.253
318.469
318.66
318.815
318.925
318.982
318.982
318.925
318.815
318.66
318.469
318.253
318.023
317.79
317.569
317.401
310.453
310.553
310.685
310.826
310.964
311.094
311.208
311.301
311.367
311.401
311.401
311.367
311.301
311.208
311.094
310.964
310.826
310.685
310.553
310.453
303.504
303.537
303.582
303.629
303.675
303.719
303.757
303.788
303.81
303.822
303.822
303.81
303.788
303.757
303.719
303.675
303.629
303.582
303.537
303.504
353.735
354.242
354.862
355.504
356.133
356.718
357.234
357.651
357.946
358.099
358.099
357.946
357.651
357.234
356.718
356.133
355.504
354.862
354.242
353.735
346.578
347.007
347.542
348.098
348.643
349.151
349.598
349.96
350.215
350.347
350.347
350.215
349.96
349.598
349.151
348.643
348.098
347.542
347.007
346.578
339.419
339.775
340.226
340.696
341.157
341.587
341.965
342.272
342.488
342.6
342.6
342.488
342.272
341.965
341.587
341.157
340.696
340.226
339.775
339.419
332.259
332.545
332.913
333.298
333.675
334.027
334.337
334.587
334.764
334.856
334.856
334.764
334.587
334.337
334.027
333.675
333.298
332.913
332.545
332.259
325.098
325.318
325.603
325.903
326.196
326.47
326.711
326.906
327.043
327.114
327.114
327.043
326.906
326.711
326.47
326.196
325.903
325.603
325.318
325.098
317.937
318.092
318.295
318.509
318.719
318.915
319.087
319.226
319.324
319.375
319.375
319.324
319.226
319.087
318.915
318.719
318.509
318.295
318.092
317.937
310.774
310.867
310.989
311.117
311.243
311.361
311.464
311.548
311.607
311.638
311.638
311.607
311.548
311.464
311.361
311.243
311.117
310.989
310.867
310.774
303.612
303.643
303.684
303.727
303.769
303.808
303.843
303.871
303.891
303.901
303.901
303.891
303.871
303.843
303.808
303.769
303.727
303.684
303.643
303.612
355.499
355.967
356.536
357.123
357.693
358.223
358.686
359.061
359.324
359.46
359.46
359.324
359.061
358.686
358.223
357.693
357.123
356.536
355.967
355.499
348.103
348.499
348.99
349.498
349.993
350.452
350.854
351.179
351.407
351.525
351.525
351.407
351.179
350.854
350.452
349.993
349.498
348.99
348.499
348.103
340.707
341.035
341.449
341.879
342.298
342.687
343.027
343.302
343.495
343.594
343.594
343.495
343.302
343.027
342.687
342.298
341.879
341.449
341.035
340.707
333.311
333.575
333.913
334.265
334.607
334.925
335.204
335.429
335.587
335.668
335.668
335.587
335.429
335.204
334.925
334.607
334.265
333.913
333.575
333.311
325.916
326.118
326.38
326.654
326.92
327.168
327.385
327.559
327.682
327.746
327.746
327.682
327.559
327.385
327.168
326.92
326.654
326.38
326.118
325.916
318.52
318.663
318.85
319.045
319.236
319.413
319.568
319.693
319.781
319.826
319.826
319.781
319.693
319.568
319.413
319.236
319.045
318.85
318.663
318.52
311.124
311.21
311.322
311.439
311.554
311.66
311.753
311.828
311.881
311.908
311.908
311.881
311.828
311.753
311.66
311.554
311.439
311.322
311.21
311.124
303.729
303.758
303.795
303.834
303.873
303.909
303.94
303.965
303.983
303.992
303.992
303.983
303.965
303.94
303.909
303.873
303.834
303.795
303.758
303.729
357.403
357.833
358.354
358.889
359.407
359.885
360.301
360.636
360.871
360.992
360.992
360.871
360.636
360.301
359.885
359.407
358.889
358.354
357.833
357.403
349.748
350.112
350.562
351.025
351.474
351.888
352.25
352.54
352.744
352.849
352.849
352.744
352.54
352.25
351.888
351.474
351.025
350.562
350.112
349.748
342.095
342.397
342.776
343.168
343.548
343.899
344.205
344.451
344.623
344.712
344.712
344.623
344.451
344.205
343.899
343.548
343.168
342.776
342.397
342.095
334.444
334.687
334.996
335.317
335.628
335.916
336.166
336.367
336.508
336.581
336.581
336.508
336.367
336.166
335.916
335.628
335.317
334.996
334.687
334.444
326.795
326.982
327.222
327.471
327.713
327.937
328.132
328.288
328.398
328.455
328.455
328.398
328.288
328.132
327.937
327.713
327.471
327.222
326.982
326.795
319.148
319.28
319.451
319.629
319.802
319.962
320.101
320.213
320.292
320.332
320.332
320.292
320.213
320.101
319.962
319.802
319.629
319.451
319.28
319.148
311.501
311.58
311.682
311.79
311.894
311.99
312.073
312.14
312.188
312.212
312.212
312.188
312.14
312.073
311.99
311.894
311.79
311.682
311.58
311.501
303.855
303.882
303.916
303.952
303.987
304.019
304.047
304.069
304.085
304.093
304.093
304.085
304.069
304.047
304.019
303.987
303.952
303.916
303.882
303.855
359.426
359.821
360.299
360.786
361.255
361.686
362.06
362.36
362.57
362.677
362.677
362.57
362.36
362.06
361.686
361.255
360.786
360.299
359.821
359.426
351.493
351.827
352.239
352.662
353.069
353.442
353.767
354.027
354.209
354.302
354.302
354.209
354.027
353.767
353.442
353.069
352.662
352.239
351.827
351.493
343.565
343.843
344.19
344.547
344.892
345.209
345.483
345.704
345.858
345.937
345.937
345.858
345.704
345.483
345.209
344.892
344.547
344.19
343.843
343.565
335.643
335.866
336.149
336.442
336.724
336.983
337.208
337.389
337.515
337.58
337.58
337.515
337.389
337.208
336.983
336.724
336.442
336.149
335.866
335.643
327.725
327.896
328.116
328.343
328.563
328.765
328.94
329.08
329.179
329.229
329.229
329.179
329.08
328.94
328.765
328.563
328.343
328.116
327.896
327.725
319.81
319.932
320.088
320.251
320.408
320.552
320.677
320.778
320.848
320.884
320.884
320.848
320.778
320.677
320.552
320.408
320.251
320.088
319.932
319.81
311.899
311.971
312.065
312.163
312.257
312.344
312.419
312.479
312.521
312.543
312.543
312.521
312.479
312.419
312.344
312.257
312.163
312.065
311.971
311.899
303.988
304.013
304.044
304.077
304.108
304.137
304.163
304.183
304.197
304.204
304.204
304.197
304.183
304.163
304.137
304.108
304.077
304.044
304.013
303.988
361.517
361.88
362.318
362.762
363.188
363.578
363.915
364.184
364.371
364.468
364.468
364.371
364.184
363.915
363.578
363.188
362.762
362.318
361.88
361.517
353.288
353.595
353.973
354.359
354.728
355.067
355.359
355.592
355.755
355.839
355.839
355.755
355.592
355.359
355.067
354.728
354.359
353.973
353.595
353.288
345.071
345.326
345.645
345.971
346.285
346.571
346.819
347.017
347.155
347.226
347.226
347.155
347.017
346.819
346.571
346.285
345.971
345.645
345.326
345.071
336.866
337.071
337.331
337.599
337.855
338.09
338.293
338.455
338.568
338.626
338.626
338.568
338.455
338.293
338.09
337.855
337.599
337.331
337.071
336.866
328.671
328.828
329.03
329.238
329.438
329.621
329.779
329.905
329.993
330.038
330.038
329.993
329.905
329.779
329.621
329.438
329.238
329.03
328.828
328.671
320.483
320.595
320.739
320.887
321.03
321.161
321.274
321.364
321.427
321.46
321.46
321.427
321.364
321.274
321.161
321.03
320.887
320.739
320.595
320.483
312.301
312.368
312.454
312.544
312.63
312.708
312.776
312.83
312.868
312.888
312.888
312.868
312.83
312.776
312.708
312.63
312.544
312.454
312.368
312.301
304.123
304.145
304.174
304.204
304.233
304.259
304.282
304.3
304.313
304.32
304.32
304.313
304.3
304.282
304.259
304.233
304.204
304.174
304.145
304.123
363.539
363.875
364.279
364.687
365.077
365.432
365.738
365.981
366.151
366.238
366.238
366.151
365.981
365.738
365.432
365.077
364.687
364.279
363.875
363.539
355.003
355.288
355.636
355.991
356.33
356.638
356.904
357.116
357.263
357.339
357.339
357.263
357.116
356.904
356.638
356.33
355.991
355.636
355.288
355.003
346.495
346.731
347.025
347.326
347.613
347.875
348.101
348.281
348.406
348.47
348.47
348.406
348.281
348.101
347.875
347.613
347.326
347.025
346.731
346.495
338.012
338.202
338.442
338.689
338.924
339.139
339.324
339.472
339.574
339.627
339.627
339.574
339.472
339.324
339.139
338.924
338.689
338.442
338.202
338.012
329.55
329.696
329.883
330.075
330.258
330.426
330.57
330.685
330.765
330.806
330.806
330.765
330.685
330.57
330.426
330.258
330.075
329.883
329.696
329.55
321.105
321.208
321.342
321.479
321.61
321.73
321.833
321.916
321.973
322.002
322.002
321.973
321.916
321.833
321.73
321.61
321.479
321.342
321.208
321.105
312.672
312.734
312.814
312.897
312.976
313.048
313.11
313.159
313.193
313.211
313.211
313.193
313.159
313.11
313.048
312.976
312.897
312.814
312.734
312.672
304.247
304.268
304.295
304.322
304.349
304.373
304.394
304.41
304.422
304.428
304.428
304.422
304.41
304.394
304.373
304.349
304.322
304.295
304.268
304.247
365.134
365.45
365.83
366.213
366.578
366.909
367.193
367.419
367.576
367.657
367.657
367.576
367.419
367.193
366.909
366.578
366.213
365.83
365.45
365.134
356.304
356.572
356.901
357.235
357.553
357.842
358.09
358.287
358.424
358.495
358.495
358.424
358.287
358.09
357.842
357.553
357.235
356.901
356.572
356.304
347.541
347.764
348.043
348.326
348.597
348.842
349.054
349.221
349.338
349.398
349.398
349.338
349.221
349.054
348.842
348.597
348.326
348.043
347.764
347.541
338.833
339.013
339.241
339.474
339.696
339.898
340.072
340.209
340.305
340.354
340.354
340.305
340.209
340.072
339.898
339.696
339.474
339.241
339.013
338.833
330.168
330.307
330.484
330.666
330.839
330.997
331.132
331.24
331.315
331.353
331.353
331.315
331.24
331.132
330.997
330.839
330.666
330.484
330.307
330.168
321.536
321.634
321.761
321.891
322.015
322.128
322.225
322.302
322.356
322.384
322.384
322.356
322.302
322.225
322.128
322.015
321.891
321.761
321.634
321.536
312.927
312.986
313.062
313.14
313.215
313.283
313.341
313.388
313.42
313.436
313.436
313.42
313.388
313.341
313.283
313.215
313.14
313.062
312.986
312.927
304.332
304.351
304.377
304.403
304.428
304.451
304.471
304.486
304.497
304.503
304.503
304.497
304.486
304.471
304.451
304.428
304.403
304.377
304.351
304.332
)
;

boundaryField
{
    hotSide
    {
        type            fixedGradient;
        gradient        nonuniform List<scalar> 
400
(
455.896
457.062
459.406
462.945
467.71
473.733
481.056
489.723
499.778
511.268
524.236
538.724
554.769
572.406
591.665
612.571
635.146
659.406
685.367
713.037
468.337
469.406
471.555
474.813
479.217
484.812
491.652
499.795
509.297
520.217
532.611
546.528
562.015
579.113
597.855
618.271
640.385
664.214
689.773
717.073
481.802
482.752
484.672
487.595
491.572
496.664
502.939
510.472
519.336
529.605
541.346
554.622
569.486
585.987
604.163
624.047
645.664
669.033
694.167
721.076
496.066
496.88
498.531
501.067
504.552
509.065
514.697
521.539
529.687
539.23
550.251
562.823
577.012
592.87
610.443
629.764
650.86
673.75
698.446
724.955
510.731
511.391
512.742
514.844
517.78
521.653
526.576
532.665
540.036
548.798
559.051
570.88
584.361
599.554
616.505
635.252
655.821
678.23
702.49
728.604
525.187
525.682
526.711
528.351
530.706
533.903
538.083
543.387
549.956
557.92
567.392
578.475
591.249
605.782
622.124
640.312
660.372
682.32
706.164
731.905
538.604
538.934
539.643
540.823
542.603
545.136
548.588
553.131
558.926
566.124
574.857
585.234
597.348
611.269
627.05
644.727
664.325
685.857
709.328
734.736
549.992
550.173
550.594
551.361
552.626
554.567
557.376
561.247
566.366
572.899
580.992
590.765
602.317
615.72
631.028
648.278
667.493
688.681
711.846
736.982
558.325
558.393
558.593
559.045
559.919
561.41
563.733
567.1
571.712
577.75
585.37
594.699
605.838
618.864
633.83
650.771
669.71
690.653
713.599
738.542
562.741
562.747
562.826
563.108
563.768
565.016
567.077
570.172
574.512
580.286
587.653
596.745
607.666
620.492
635.278
652.058
670.852
691.666
714.499
739.341
562.741
562.747
562.826
563.108
563.768
565.016
567.077
570.172
574.512
580.286
587.653
596.745
607.666
620.492
635.278
652.058
670.852
691.666
714.499
739.341
558.325
558.393
558.593
559.045
559.919
561.41
563.733
567.1
571.712
577.75
585.37
594.699
605.838
618.864
633.83
650.771
669.71
690.653
713.599
738.542
549.992
550.173
550.594
551.361
552.626
554.567
557.376
561.247
566.366
572.899
580.992
590.765
602.317
615.72
631.028
648.278
667.493
688.681
711.846
736.982
538.604
538.934
539.643
540.823
542.603
545.136
548.588
553.131
558.926
566.124
574.857
585.234
597.348
611.269
627.05
644.727
664.325
685.857
709.328
734.736
525.187
525.682
526.711
528.351
530.706
533.903
538.083
543.387
549.956
557.92
567.392
578.475
591.249
605.782
622.124
640.312
660.372
682.32
706.164
731.905
510.731
511.391
512.742
514.844
517.78
521.653
526.576
532.665
540.036
548.798
559.051
570.88
584.361
599.554
616.505
635.252
655.821
678.23
702.49
728.604
496.066
496.88
498.531
501.067
504.552
509.065
514.697
521.539
529.687
539.23
550.251
562.823
577.012
592.87
610.443
629.764
650.86
673.75
698.446
724.955
481.802
482.752
484.672
487.595
491.572
496.664
502.939
510.472
519.336
529.605
541.346
554.622
569.486
585.987
604.163
624.047
645.664
669.033
694.167
721.076
468.337
469.406
471.555
474.813
479.217
484.812
491.652
499.795
509.297
520.217
532.611
546.528
562.015
579.113
597.855
618.271
640.385
664.214
689.773
717.073
455.896
457.062
459.406
462.945
467.71
473.733
481.056
489.723
499.778
511.268
524.236
538.724
554.769
572.406
591.665
612.571
635.146
659.406
685.367
713.037
)
;
    }
    coldSide
    {
        type            mixed;
        refValue        uniform 300;
        refGradient     uniform 0;
        valueFraction   uniform 0.991591;
        source          uniform 0;
        value           nonuniform List<scalar> 
400
(
300.024
300.024
300.025
300.025
300.025
300.025
300.026
300.026
300.027
300.027
300.028
300.029
300.029
300.03
300.031
300.032
300.034
300.035
300.036
300.036
300.025
300.025
300.025
300.025
300.025
300.026
300.026
300.027
300.027
300.028
300.028
300.029
300.03
300.031