/*--------------------------------*- C++ -*----------------------------------*\
| =========                 |                                                 |
| \\      /  F ield         | OpenFOAM: The Open Source CFD Toolbox           |
|  \\    /   O peration     | Version:  2212                                  |
|   \\  /    A nd           | Website:  www.openfoam.com                      |
|    \\/     M anipulation  |                                                 |
\*---------------------------------------------------------------------------*/
FoamFile
{
    version     2.0;
    format      ascii;
    arch        "LSB;label=32;scalar=64";
    class       volScalarField;
    location    "./ITHACAoutput/true/17.8";
    object      error;
}
// * * * * * * * * * * * * * * * * * * * * * * * * * * * * * * * * * * * * * //

dimensions      [0 0 0 1 0 0 0];

internalField   nonuniform List<scalar> 
3200
(
-0.393178
1.44488
0.278738
2.41922
3.26307
2.21651
2.00067
1.33402
2.38671
2.76922
1.1909
3.52946
2.53837
1.6347
0.921421
2.60938
1.20681
2.19505
2.11612
1.92304
-0.666714
1.35162
2.60368
3.62001
3.01535
3.16656
1.92461
1.21208
1.04925
0.925821
2.25213
1.97207
1.09219
2.0441
3.10804
3.52468
3.25191
3.37526
2.39136
0.37533
1.62243
1.39878
1.15928
1.34387
2.31536
3.15916
2.29853
2.18965
0.765194
2.86858
2.45088
2.49721
2.93155
1.70209
0.242626
0.476657
1.94473
1.7229
1.44701
-1.21277
1.27
1.17471
1.2846
0.504788
2.30312
1.85203
1.63707
2.89483
2.16423
2.94576
1.03419
0.500178
1.22346
1.73968
1.77194
3.20843
0.453365
0.519104
0.0205529
0.91652
0.273004
0.787239
0.879179
2.31651
-0.0475682
0.402785
0.377537
2.23051
0.788856
1.12864
0.589954
-0.75026
-1.13432
-0.365683
0.424669
1.47334
1.80203
-0.517428
0.723743
-0.959653
0.496712
0.287748
0.704584
1.46036
1.53014
1.13324
0.0183599
0.664392
0.734922
-0.526672
0.974994
-0.949928
0.676072
-0.376977
0.381631
0.159864
-0.103103
1.30771
-0.507217
-0.777105
0.00686655
1.78747
0.854401
-0.271284
-0.0484134
0.587613
0.685621
2.47029
0.911872
-0.571983
-0.996943
0.131662
0.332375
0.484153
2.26901
-0.409352
-0.0762386
-0.801489
1.72148
-0.529444
-0.764491
0.3469
-0.589439
0.189594
-0.784437
-1.04421
-0.773976
0.848999
-1.56295
0.807245
-0.379669
-0.221013
0.461359
1.06574
0.0462126
-0.809493
0.883016
0.654228
0.519247
-0.162951
0.426299
2.22476
2.94468
3.4663
3.67162
1.84818
2.41853
2.44531
2.17158
3.12788
1.49987
2.15358
0.285217
3.10317
0.51932
3.28647
1.40098
3.09676
0.466826
-0.0421785
1.31716
0.309783
1.11133
0.482879
3.56025
0.353075
3.16507
-0.211123
4.12518
0.199044
0.278109
1.28848
0.036932
1.67206
-0.374435
1.52331
-0.213195
0.913712
-0.426432
0.88134
0.099201
1.87451
1.68594
1.6114
2.21017
1.11556
3.09066
0.644069
-0.0204934
-0.596808
0.953078
1.14878
1.09551
2.35938
1.8594
-0.0758601
2.96685
-0.742815
0.763893
1.03005
0.555941
0.533558
2.31688
3.12091
2.71912
1.05103
1.14413
1.8744
1.85451
0.458582
0.632883
1.64675
1.50172
0.554532
0.895945
1.28022
2.73129
3.17884
1.29793
1.01168
2.53905
1.32108
1.69063
1.43938
3.05779
1.86674
1.09665
0.804679
2.16067
0.418598
2.00528
-0.0551412
1.62005
1.61385
2.3687
-0.866518
3.62447
-0.195988
0.17508
1.63104
0.969309
0.959579
-0.154333
1.49762
1.76478
-0.460079
0.806372
-0.123739
0.417739
0.346955
-1.47745
1.39443
0.918869
0.99201
1.41989
-0.231714
0.615605
-0.227443
1.01767
0.164884
-0.181707
0.865861
0.610278
1.55783
-0.620421
-0.170008
0.222999
1.6447
1.29762
3.52979
0.700325
-0.681525
-0.464636
1.53921
-0.350487
0.356245
-0.665955
0.697989
0.211594
-0.52139
0.876089
-1.86556
0.675838
-0.363383
-0.184358
-0.0851301
-1.58231
-0.806217
0.197732
-2.07574
0.298297
-1.04842
-0.199379
-1.34849
-0.260282
-0.453195
-0.922787
-2.52823
0.106416
-0.707523
-1.09776
2.40075
1.10477
2.24837
3.80398
2.14081
1.74736
1.14926
2.32004
0.993467
1.8539
-0.955243
0.610941
1.62133
1.55652
3.26057
2.64781
3.04006
1.39299
0.210016
-1.07414
1.36252
2.13182
3.1523
1.34642
2.32796
0.575767
1.12979
1.35576
1.32131
1.81431
0.744258
1.44594
2.07537
2.07581
1.18637
2.19981
-0.111515
1.38563
0.675753
1.09005
0.850966
1.94308
0.358539
0.98865
1.95273
0.127565
1.62319
-0.128485
-0.329461
1.09718
0.43558
0.424923
0.908825
1.81997
1.01785
1.79746
3.66515
1.59342
0.124708
-1.29313
0.423247
1.60847
1.27023
0.80697
1.62756
0.890837
2.67406
2.24
1.59263
0.421394
1.19708
2.41483
0.226568
-0.233328
0.186185
0.773704
0.0729561
0.0449838
-0.237545
1.08269
1.1561
1.11013
1.24574
2.12402
1.86358
1.80547
1.47317
0.876436
0.19435
1.53613
0.660161
0.108415
1.04461
1.79662
0.993493
1.87893
0.980112
-0.389141
0.230727
0.917304
-1.37966
1.35135
0.649945
0.693849
1.63804
-0.14385
0.303896
0.857805
1.47436
1.52126
-0.373285
-0.280554
0.105726
-0.164729
1.06097
0.47652
-0.331945
0.17143
0.215838
-1.05196
-0.496356
1.19281
-0.497584
1.70296
0.624417
1.9021
-0.223117
0.344612
-0.737908
-0.721492
0.634597
0.158455
-0.685535
2.85247
1.33272
0.932734
-0.215308
0.590906
-0.344528
-0.336818
-1.79824
-0.0505257
0.987288
0.402188
0.319032
1.24986
0.612384
2.25065
0.918887
0.418859
-0.50322
0.285719
1.24869
-1.43378
0.0630709
2.61556
0.907447
0.968413
-1.97038
-0.276363
1.83577
-0.101949
0.949512
1.3341
1.99562
2.13871
1.79743
0.0509255
1.64826
1.26427
0.33245
0.457196
2.13259
0.902719
2.25772
2.24571
1.7101
0.152948
-1.51081
-0.181665
0.0434671
-0.238984
-0.046788
1.87748
0.0134785
1.53475
0.162083
2.15133
0.117036
-0.241413
0.0149638
0.416401
2.34041
0.898798
1.34913
0.319999
2.68757
0.345989
0.101682
0.412412
-0.0414401
-0.427719
0.0864567
0.0433051
0.814625
1.77971
2.4466
3.10625
1.64667
0.45452
1.87417
1.90263
0.51251
0.293698
1.7137
0.417289
1.8437
-0.655059
2.01599
-1.84451
0.294944
0.57979
1.64965
1.08111
0.878541
2.12312
2.46407
0.916515
-0.771405
0.208661
1.36672
-0.481988
0.0282977
0.243724
0.750604
1.47699
0.289537
0.688183
0.0302527
-2.15479
0.141868
1.72262
0.994772
-0.263702
3.28442
-0.553792
-0.289254
0.690227
-0.936102
0.463144
0.167347
0.30266
-0.818088
1.01324
0.439399
2.78349
1.23461
-0.310685
-0.82488
1.91226
-0.661682
0.0506951
1.81214
0.703095
1.59243
0.440788
-0.423464
1.32308
-0.0852384
0.384672
0.52623
1.27867
1.29039
-0.22362
0.846758
1.3265
0.581775
-1.33124
-2.32488
0.290644
-0.106382
-0.782198
0.795131
0.916395
1.56944
0.62273
0.659455
-0.262919
-0.451886
0.642067
-0.744461
-0.702112
-0.39806
-0.0799995
0.381447
-0.0575009
0.598193
1.52363
1.08742
-0.231002
0.11635
-1.25383
0.296458
1.65455
0.244832
0.336702
-0.0907521
0.272658
-0.366891
-1.54452
-0.269831
0.360805
-0.316293
0.288735
-0.898904
-0.0117132
0.109423
-0.976801
-0.109544
0.299017
0.718657
1.31273
1.31602
1.38544
2.47124
0.867932
0.16142
0.561999
-0.699815
1.51467
0.273397
1.19645
1.42849
0.650629
2.0717
4.07105
0.110939
1.57323
-0.397651
-0.233382
-0.571875
0.414417
-1.10829
0.0131972
1.69294
1.84128
3.09206
-1.11074
0.234284
1.76336
0.352282
0.717024
0.42794
1.74458
0.822681
1.71154
-0.666476
1.3657
-0.701987
-1.12725
-0.323068
0.0103299
1.04866
-0.0433963
1.07844
-1.15869
0.837502
-0.341675
0.845614
-0.191022
-0.208768
-0.581697
-0.641866
0.712773
-1.071
1.12023
0.23162
0.366986
-0.533903
1.03421
-1.07662
0.116982
0.921642
-0.391552
-0.112802
0.785275
1.40078
0.339509
0.643037
0.0433446
-0.989642
1.35172
-1.00083
0.331158
0.462843
-0.576441
0.269677
0.449281
0.0607372
0.292134
-0.619362
0.98821
1.57081
1.53952
1.02059
-0.460569
1.67998
0.0396486
-0.716287
0.953219
-1.01463
-0.323833
-0.153358
0.0817474
-0.278661
2.27524
0.622612
-0.457632
0.340165
0.340524
0.532627
2.41432
-0.636599
2.469
0.00786063
-1.75977
-0.557736
0.547154
-0.675865
0.463849
1.53485
-0.886027
-0.545106
0.779429
1.63238
-0.111991
-1.31585
-1.15623
-1.39126
1.23823
-0.303172
0.713163
-0.225907
-1.29574
0.513515
-0.871723
-0.386814
0.458427
-0.156722
-0.383517
0.783057
-1.55253
0.638999
0.140645
0.098478
-0.0594321
2.09735
-0.179079
-1.10529
-0.153485
1.60974
-2.64609
-0.755853
-0.718671
-0.385841
0.856734
1.21368
-0.400152
0.888657
0.625614
-0.562714
0.865122
-0.538701
0.246664
-0.344731
0.716234
0.0893521
-1.87456
1.08443
-0.290191
-0.420619
-0.177401
0.307797
1.3239
1.67397
0.313605
1.60389
0.636773
-0.0879203
-0.682931
-0.192613
0.466846
1.16657
1.69959
2.37581
1.06231
0.891162
2.51845
-1.17352
-0.833884
0.479289
0.390968
-0.50466
0.0859299
-0.0128406
1.85595
0.139697
0.825744
-0.117563
-0.126775
-2.25671
-0.353553
0.431486
0.00262617
1.36434
0.292896
1.03643
-0.498965
-1.78363
-1.36969
-0.651195
0.0866982
0.810215
2.07335
0.935139
0.432679
0.0370073
-0.78689
1.41726
-0.0529227
-1.78218
-0.733407
1.22857
1.21017
1.60123
0.421926
0.794527
-0.550225
-1.42154
1.67212
0.40784
1.24458
-0.672511
0.931262
1.56899
0.912598
0.200283
-0.606204
-1.05646
-1.61441
0.080587
1.67795
-0.905182
-0.62542
1.5495
1.09867
0.50565
-0.249623
-0.961605
-2.45375
-0.12238
0.22317
0.628173
1.76406
0.0489715
-1.68311
0.297401
-0.2022
1.45482
-1.47055
-0.963826
-0.790181
0.124795
0.24361
0.301819
0.939982
-0.0905897
-1.31519
-1.10102
-0.173119
-0.246664
0.648884
1.26731
0.863376
0.538534
-0.0389722
0.415531
-0.228396
1.63984
0.0991086
-1.61819
0.818491
0.373589
-1.51055
-1.97611
1.82283
1.5973
-0.175744
-0.77422
1.19658
-2.5005
-0.713878
1.64095
0.628272
0.224404
-0.331152
1.26522
0.696443
0.638735
-0.646312
0.26376
0.795197
1.98732
-1.2406
0.313574
0.472547
-0.541049
-1.16269
0.971841
-0.450446
-0.283477
1.33897
-0.790169
-0.248877
-0.890132
0.351819
-0.629377
1.52609
1.60405
-0.831677
-0.592952
-0.541647
-0.737035
0.35937
1.74119
-0.73451
-0.888208
0.391096
-1.11293
-1.33955
-0.409885
0.287671
1.35875
-0.340913
1.22795
1.40053
-0.609081
-0.976532
-1.30454
-0.999723
-1.33279
1.76302
-0.0181701
1.20461
-1.11606
0.696857
-0.506787
-1.40623
1.00454
0.0514054
-0.348505
0.531819
-1.22922
-0.829203
0.839981
0.313571
1.01605
1.1423
-0.251478
-0.922442
-0.98669
-0.484896
-0.0263245
0.957963
-0.154114
2.12604
-0.540177
0.741689
1.92517
-1.10339
0.129471
-0.0146058
1.83237
0.754721
0.773884
0.589003
-1.82417
-0.854816
0.454806
-0.123254
1.0985
1.35523
-0.654795
-0.606346
-0.252458
0.13116
0.490931
1.7277
-0.185577
-0.651683
-0.469765
-1.55687
-1.2373
-1.14071
-0.216486
-0.0839011
-0.913703
1.04581
-1.53782
-0.126156
-1.81761
-0.646448
-0.618743
0.160344
-0.376961
0.31159
-0.0807493
1.05179
-0.218016
-1.96835
3.00185
-0.608632
-1.18922
-0.771981
-0.724987
0.511398
0.671137
-0.77554
-1.28743
-1.26918
1.27689
0.222365
-0.552387
0.44927
1.06288
1.25386
-1.45284
-0.0308906
-0.25102
1.37763
-0.526834
-0.574412
1.80452
-0.105411
-0.795081
0.012526
0.176793
0.4351
-0.653877
-1.5157
-0.245133
0.0743762
0.627284
-0.320217
-0.113645
0.903858
1.05277
-0.621041
0.166622
-0.321294
-0.321117
0.861333
-0.68593
-1.7286
1.435
0.165564
-0.541098
-0.18909
-0.431914
-0.487139
-0.27067
-1.75367
-0.207754
-0.937729
-0.277738
0.481384
0.320526
-0.558635
-0.789907
-0.993604
1.19263
1.54488
0.0305537
0.483212
0.931165
0.578015
0.597269
0.491098
-1.49258
0.109412
-0.241573
0.869803
-0.220885
2.44662
-0.796101
-0.511461
0.861837
-1.47435
0.806744
-0.824553
0.392946
0.941823
2.49535
0.177544
-0.0418797
0.0498352
-0.0330396
0.0490001
-0.729328
-1.9851
-0.372651
-0.589735
-2.36839
0.545375
-2.33766
1.2403
-0.0322694
-1.82013
-1.10697
-1.16991
-0.195474
-0.346561
0.00174035
-0.471832
0.0551857
0.331423
0.132832
-0.613635
0.369709
-0.295479
-0.63004
0.0729225
-0.132103
-0.364843
-0.290694
0.374591
1.00242
-0.0500111
-0.0378409
-1.37958
1.11284
-1.09176
0.300223
1.47817
0.359852
0.933331
-2.24156
-1.41337
-2.69129
-2.04178
-1.26089
-1.86513
0.906229
-0.659707
-1.19129
0.51532
-0.574747
-2.5944
-0.88536
-0.708012
0.812162
-0.59036
1.11749
0.364571
-0.443423
-0.259366
0.0576425
-0.733341
-0.517116
-1.09472
1.71177
-0.372266
-0.532945
-0.000205287
0.898662
0.846097
-1.76293
-0.228215
-2.72108
-1.24288
-0.204906
-1.1461
-1.08553
-0.746504
0.773459
1.13058
1.14234
-1.34958
0.749709
0.45
-1.64357
-1.69143
-1.00382
1.69555
0.0869568
-1.15714
0.223296
-0.797368
-1.34631
-2.37363
-0.888431
-0.0712896
0.863247
-0.211003
1.05782
-1.45352
-2.34518
-2.6239
-0.0244563
1.11531
0.010093
-0.991697
-1.82754
-0.00230302
0.698113
0.322103
-1.25613
1.35513
1.24728
1.1389
-1.74947
0.329866
1.18018
-1.30673
-1.018
-0.0277187
-0.0873501
0.372499
-1.64757
0.435872
-0.596433
0.0739839
0.603737
-0.106789
0.0938402
-0.855961
-0.674673
-1.20125
-1.57468
-0.840644
-0.179609
1.07654
0.101223
-0.484938
1.98277
-0.121737
0.472881
-0.596822
-1.10947
0.802776
-0.595679
-0.620977
-1.19574
-1.22206
0.0148899
-0.79934
-0.679724
1.23479
-1.53142
-0.789741
-0.43874
0.213233
0.215654
-0.703783
-0.592072
-2.25223
1.20472
-0.114869
-2.1729
-1.88105
-2.81618
0.243028
-0.356074
1.30881
-0.726425
0.515218
-0.508583
0.606097
-1.66246
-2.06763
-1.87775
-0.306047
0.609002
-0.654502
-0.196362
-0.248625
0.462281
-1.01338
-1.42279
-1.81947
0.201322
-0.358714
-0.622368
-1.20843
0.409974
-0.255148
-1.24827
0.198447
-1.00974
-0.899067
-2.09457
0.765961
-0.628266
0.304359
0.967764
-0.907165
1.09666
-2.11894
-0.673231
0.417953
-2.55407
-0.918321
-0.333243
-0.913406
-1.16478
1.34573
-0.655705
-0.63669
-1.92118
-1.7947
0.377733
-1.45782
-0.670813
-0.504761
-0.105388
-1.06209
-0.75094
-2.32694
-1.12746
-0.141847
-1.77023
-1.13688
0.195494
-1.16848
-0.529875
-0.962613
-2.18199
-1.20721
0.252543
-0.579976
-1.21871
0.792632
-0.452212
-1.58454
0.45495
-0.27605
0.264355
-0.426333
-1.95644
-1.54206
-0.653733
-0.353879
-1.09909
2.4865
-1.14614
-1.10653
0.97724
-0.287241
1.08441
-1.33764
-0.112722
-0.722545
-0.476295
-0.248693
1.07617
-0.700685
0.744835
-0.499681
-0.779688
-1.41948
-0.554106
0.606991
0.421583
-1.45877
0.424131
-0.0456734
-1.34482
-0.884271
-0.94872
-2.11427
-1.05556
0.665571
-1.21419
1.13123
-2.07137
-0.949932
1.095
-0.273953
-0.821795
-0.382535
-0.127238
-0.546282
-0.431034
0.0277111
0.548233
0.520787
-0.628981
0.941433
-1.26885
0.414887
-0.13054
0.227994
0.508385
1.17864
0.658891
1.81074
-0.664861
-0.135201
1.25461
-2.23372
-0.59536
-1.45546
-0.419239
0.103256
1.57906
-0.43314
0.760995
-1.5382
0.803243
-3.78477
-1.77697
-2.21148
0.279408
-0.451803
0.805006
0.41729
-1.37347
-0.0445734
-0.763266
0.111154
-0.920689
-1.30711
-0.0974279
-1.50972
-0.990084
1.77686
0.948035
0.860176
-0.424318
-2.835
0.0190289
-0.369863
-0.361107
0.492751
0.354797
0.359465
0.42558
-2.10434
-0.151541
-0.387046
-2.14824
-0.0141059
-2.1186
0.439259
-0.544601
0.173829
-0.443186
-0.316784
-1.46856
-0.541997
-0.944239
-1.49076
-0.41819
-1.06695
-0.858637
-2.39763
-2.68622
0.441949
-0.0576249
-1.60404
-2.29169
0.543783
-1.40302
0.0367213
1.60278
0.0246468
-0.589611
-0.70514
-1.92984
-2.80604
-2.46706
-0.0691645
-0.316298
-0.293592
-0.995892
0.0675905
-0.297472
0.476043
-0.653112
-1.9428
-0.243387
-2.45133
1.37337
-0.888414
-1.26887
-0.00268912
-0.33885
-0.305751
-0.610654
-1.17321
-1.04111
-0.0255415
0.177097
0.138037
-0.209406
0.435019
-0.324336
-1.47471
-1.0942
0.278584
-1.11794
-0.31892
1.21256
-0.953918
0.217152
0.78163
-0.858326
-2.08111
-1.29184
-1.65827
-0.705058
-2.46519
-0.667197
-1.22846
-0.27747
-0.256902
-1.86314
-0.635773
1.48485
-1.33585
-0.905499
-0.895369
-0.880507
-0.100976
-0.425055
-1.22529
-0.837951
0.463259
-1.22067
-0.721996
-2.00243
-0.601076
-2.21913
0.802811
-0.155806
-1.33952
0.0338754
-0.371702
-0.341701
-1.21757
-0.957853
-0.936373
1.51134
-0.151165
-0.569795
-0.289717
0.254219
0.274386
-1.52813
0.269818
1.02102
0.514907
-1.6291
0.117742
0.855541
-0.238138
-0.273744
-0.409691
-0.882192
0.598452
0.234163
-0.1568
0.37266
0.0846959
-1.00433
0.0171308
-0.226777
-0.953593
-1.26535
-3.52577
-2.54192
-0.253875
1.00378
0.384213
-1.44008
-1.09291
-0.903673
-1.17387
-2.90649
-2.98318
-2.84477
-1.11759
-1.35836
-0.540757
0.558186
0.00408316
-1.02203
-0.527873
-0.829813
-0.968282
0.0363003
-0.177237
-0.00847602
-0.0309737
-0.636134
-1.1863
-0.163677
0.0363056
0.0610544
0.271245
-1.11131
-0.511211
-1.40722
-0.0420831
-0.157905
-0.278201
-0.439323
0.162359
-0.603569
-2.08476
-0.919628
-1.73511
0.475363
-0.811483
-0.0437445
-1.2316
-0.870378
-0.690506
-2.14594
-3.53118
-2.10656
-0.414994
-1.80562
-0.418109
-1.01575
-0.432013
-1.76187
-1.02087
-1.97767
0.0258594
-2.39601
-0.969184
-1.73591
-0.435542
1.42187
-1.34425
-1.21129
-1.13159
0.534133
-0.761007
-0.950996
-1.10222
1.69255
1.22676
-1.0286
-1.1751
0.530306
-0.431363
-0.459993
-1.97279
-0.032237
0.62225
-0.0871963
-2.01241
0.0988631
-1.31557
-2.21597
-0.335447
-0.515953
-1.73265
-1.06758
-0.0392442
-2.44442
-1.27374
0.0846917
-0.497854
-1.41405
-0.51689
0.119878
-0.474754
-0.445291
-0.623681
0.0344788
-1.06151
-0.362289
0.578158
-1.15575
-0.734438
-0.422995
-0.409829
-0.319806
1.05755
-1.42861
0.994092
-0.323048
-0.71824
0.182612
1.00837
-0.835269
-1.41272
-0.262066
-0.3584
0.0224447
0.377814
0.853448
1.24316
-1.24902
-0.516823
1.02788
-0.206857
-1.43982
-0.194683
-1.81299
0.312794
0.114917
0.024029
-1.96283
-0.855477
-2.08707
-1.78711
0.990323
-2.08741
1.29122
-0.339694
-0.963371
-1.09823
-1.26128
-0.857189
-0.143556
-0.816254
-0.777853
0.11635
-1.05013
-0.761367
0.543163
0.31574
-0.241571
1.04069
0.591119
-3.95621
-3.21274
-4.07903
-2.44859
-0.999689
1.00173
-1.8443
-1.29678
-0.834063
-2.27836
-0.767268
-0.911149
-1.80715
-0.81288
-2.20127
1.31479
-0.417359
0.0228575
0.0633387
-1.3498
-1.88201
-1.95533
-0.690895
-2.24181
-0.0681454
-0.901126
-0.737675
-2.72088
-1.80775
0.643912
-1.78729
-1.95505
-1.2173
-0.0128389
-2.61872
0.56744
1.24243
0.26662
-0.29999
-0.100574
-3.06633
-1.36122
-2.86961
-1.71744
-1.89948
-0.527051
1.44763
-1.30601
-1.61739
0.429473
-2.4849
-0.644919
-0.742481
-1.34982
0.966519
-0.378563
0.202687
-1.37811
-0.652287
-2.15951
-1.36779
-1.28243
-1.21812
-1.58593
-1.2426
-0.726094
-0.690217
0.188153
-0.468589
-1.27302
-1.48192
-2.36751
-1.24597
-1.91227
-0.695438
-0.295538
1.09357
-0.478212
0.396245
-2.7926
-1.55508
-1.33828
-0.786141
-0.075641
-1.36238
-0.357315
-0.516479
-0.687566
-0.779777
0.521371
-2.42801
-2.59595
-0.340185
-1.24545
0.946358
1.02381
-0.842908
-0.12783
-1.22466
1.16042
-0.909983
0.393602
0.558455
0.108797
-1.91887
-0.955842
-0.682242
-1.39916
0.485914
0.517977
-0.574829
-1.15459
-1.00795
1.39832
0.570266
-1.0317
1.34653
-1.41984
-1.12163
-0.791864
-0.47602
-3.55538
-0.0975214
-0.273795
0.920022
-1.08483
-0.536797
0.476976
-0.525299
-0.768238
1.25505
0.053875
-1.37431
-0.57798
-0.14632
-0.671277
-1.96227
-1.03082
-0.979503
0.433279
-1.38235
-1.59169
1.37765
0.483618
1.27251
0.199689
0.0669048
0.166968
0.157323
-0.349812
1.05526
0.156508
1.39333
-0.825348
-1.16027
-1.12492
-0.170142
0.439152
-0.657755
-0.369502
-3.26517
-2.33486
-1.62819
-0.448677
-2.08371
-1.10787
-1.72652
-1.13178
-1.15752
-0.803649
-0.0558783
-1.27806
-1.42711
0.458323
-0.470945
0.769205
-0.873251
-0.265794
0.0286912
-0.169307
-3.33008
-0.0644836
-1.8845
-0.11167
-0.116369
0.135183
-1.37281
0.102559
-0.352486
-0.0448794
-0.393907
0.366069
0.198818
-0.275672
-0.562338
0.174629
-0.0504073
-0.108356
-0.0567658
0.0746101
-3.55931
-1.74865
0.0921328
0.598722
-0.407871
-1.04272
-1.2614
0.592913
-0.345952
-2.07252
-0.652414
-1.16989
-1.0896
0.0667401
-1.50244
0.651579
-1.84145
-1.05175
-0.458066
-0.272313
-0.489496
-2.6788
-1.88085
-0.745801
-1.0978
0.531456
0.609083
-1.53631
-1.04917
-1.50766
-0.0139566
-0.0647488
-3.0003
0.589712
-0.000685283
-0.053372
-0.123947
0.876176
-1.38939
-0.959733
-1.21497
-2.31839
-0.775116
-0.194405
-1.33359
-0.0314923
-1.80186
-0.576287
-0.123184
0.00781417
-0.762573
0.977273
0.517936
-0.0745909
0.0214919
-1.14944
-1.32109
1.4226
-1.94402
-1.13221
-2.99534
-0.427854
-0.583598
-1.47132
0.608722
-0.480297
0.397196
-0.273064
-1.13362
-0.69496
-0.553769
0.974103
0.0474322
-0.416736
0.969024
0.016064
-0.267048
-0.471268
-1.2973
0.636254
-0.75157
1.31561
0.59026
-0.143097
0.124075
-1.87519
-0.969239
1.05221
0.407162
-1.66141
-1.12133
-1.0213
-0.929032
-0.338215
-0.506069
-1.32656
0.727413
-0.413602
-1.12446
0.461081
-0.185432
-1.61176
-0.628906
-0.740533
-0.749478
0.536519
-0.535229
0.264423
-1.38159
-1.07034
-2.06315
0.215256
-0.0755259
1.50324
-1.6939
-0.0358805
-0.23139
0.428178
1.02438
0.766266
-2.62946
-1.38466
-0.539183
0.0927433
-0.554625
0.310413
-0.097953
-0.531071
-0.055789
-1.95176
-1.11286
-1.87479
-0.717951
-1.80386
0.690051
0.927834
0.87895
1.58201
-1.93206
-2.02493
-3.84188
-0.643023
-1.88959
-1.42111
-0.547569
0.674932
0.480221
-0.454196
-0.169148
-1.47316
-1.8814
-2.24681
0.282287
-0.486043
-0.24799
1.17612
1.97419
-1.51922
1.20902
-0.23805
-2.15566
-1.08735
-0.863864
-3.40145
-0.649845
0.221813
0.396841
-1.533
0.735376
0.4383
-2.02468
-1.50908
1.05779
-1.64577
-1.10937
-0.78839
-1.4916
-0.455809
1.03086
-0.630105
-1.50918
-1.6551
0.280766
-0.92852
-3.2509
-1.30475
-1.55677
-1.59143
0.381151
0.430684
-0.941491
-1.2063
-0.423883
-0.159723
-0.256694
-0.201401
-1.86195
-0.559756
-0.735059
-0.915461
-1.82933
-0.113415
-1.70832
-1.54071
0.528941
0.669336
-0.0887141
1.4917
-1.0401
-0.431098
0.126296
-0.6961
1.09446
0.948302
-1.04521
0.210991
-0.726944
1.26386
-1.68438
-1.24733
-1.43961
-1.72993
-1.30576
0.320464
-0.520485
-0.456575
0.113271
-1.32979
-1.14065
0.205102
-0.990962
-1.45856
-0.512357
0.89002
-2.26602
0.00766916
1.08866
-1.10961
0.00493782
-1.14611
-1.20544
-0.107454
0.234557
-0.18399
-2.4957
-2.17705
-0.698421
0.661878
0.861451
-1.64186
-0.162603
-0.427047
-1.25594
0.0461641
0.093325
0.0720327
0.0271169
-0.444917
-0.282919
0.629003
-1.86927
-1.5397
1.6984
0.628534
-0.181099
1.03593
0.247728
-0.883454
-1.05818
0.251402
-0.382423
-0.251006
1.98417
0.0820101
0.645059
0.627221
-0.839573
0.0401797
-0.848294
-0.580542
-2.9969
-1.70636
-0.201817
-1.78101
-2.03386
-0.425485
0.0845603
-0.256248
0.506376
-0.987149
-0.979192
-0.880372
-0.607035
0.0987751
-1.03905
0.879688
-1.36568
0.841846
1.03081
-0.579949
-2.26148
0.0926784
-0.427048
0.134635
-0.533296
-0.037132
0.389339
-0.380337
-0.939705
0.239548
0.0698227
-0.229187
0.137472
-0.234855
-0.199825
1.70617
-0.308828
0.163163
0.160255
0.598927
-0.572125
-2.66915
-1.25181
-1.12418
0.447184
-1.40516
-0.867225
-2.89679
-0.904065
-1.19995
0.636018
-1.11971
0.976594
0.319127
0.845839
-0.958722
0.112171
-0.583689
-0.726935
-0.293515
-1.36909
-0.453751
-0.431482
-1.42373
-0.665666
-0.22391
-1.50938
-3.05848
-0.677057
-1.65092
-0.76074
-0.288577
-0.870307
-0.269423
-1.86762
-0.528739
1.37471
-1.80926
-1.00628
-1.60931
-0.913047
-2.14228
-1.16739
0.0144029
-0.116022
-1.18059
0.299122
-0.350088
-0.285305
-0.475113
-0.577142
0.278671
0.32422
-1.23945
0.241212
-0.233208
-0.659821
-0.358087
-0.794659
1.03632
-0.584128
0.0327229
0.558537
1.88854
-0.454854
0.729837
0.637709
-1.21775
-0.655599
0.584147
-2.04605
0.363421
-0.51773
-0.468272
-0.383902
0.753905
1.2748
0.268983
-0.917598
-1.20395
-1.67772
-0.728579
-0.0193173
0.408894
1.5707
0.0678771
0.26052
0.447669
-1.15183
-0.0449192
0.386549
0.0448509
-0.769151
0.673172
-0.347208
1.2466
0.23588
-0.494069
1.12097
0.476764
0.773616
-0.591897
0.856337
0.173612
-0.585476
1.42409
-0.507267
-0.252167
0.636326
-1.75271
-1.84054
-0.443368
0.100343
-0.769727
0.141536
1.33186
0.157791
1.07426
-0.127353
-0.566835
-1.08914
-1.52925
-2.97003
-0.52675
-0.719764
0.67986
-0.760902
-0.174527
0.0823494
-1.08215
-1.20876
0.255512
0.115492
0.381559
1.87607
-1.17814
1.28736
0.289806
-0.894726
0.702076
-1.87721
-1.661
-1.24734
-0.775448
0.274289
0.808401
-1.91838
-0.44526
-3.07561
-1.83809
-0.9381
-0.249233
-0.802182
-0.399445
1.5482
1.2129
1.88505
-0.204881
0.772662
1.6228
-1.51819
-2.6545
-0.495424
-1.17556
-1.66986
-1.07636
-2.40504
1.47866
-1.12691
-1.62958
-0.809193
-0.750468
0.739841
-0.347885
-0.289726
-0.043496
-1.42943
0.232874
1.36326
-0.598344
-2.1474
-1.43789
-0.877488
-0.352912
-0.000835256
-0.0648725
-0.283954
1.17199
-2.02477
0.483869
-1.26104
-0.665595
-1.21236
1.39386
0.364742
-0.333574
0.14561
-0.745569
0.219096
-0.637902
-1.49502
-1.00787
0.480086
-1.67469
-0.973778
-0.0734773
1.32391
1.77624
-0.133922
0.1762
-2.65205
-0.131354
1.40224
-1.21286
1.31304
2.38822
0.796068
-0.0631837
0.160517
0.975876
-1.96275
-1.44964
0.814823
-0.338096
-0.0347696
-0.788253
-0.258035
-0.0365069
-0.0927543
1.44876
-0.779833
0.940976
0.524827
-0.650497
0.161189
1.03848
-1.20101
-0.398823
-1.29156
-1.42984
-0.334817
-0.0665978
-0.3358
-0.384096
0.205886
-0.329679
1.59161
-1.4647
0.0925946
0.438391
1.7747
1.37048
0.876183
0.0968626
0.14249
-0.840749
1.23698
2.14702
-0.786432
-0.545707
-0.0898571
0.645677
-0.568163
0.401934
-0.810006
-0.587038
-0.1896
-0.94866
0.69453
-0.249429
-1.94366
-1.08288
0.217914
0.621724
-0.427532
1.46404
0.562999
-0.739765
0.410586
-0.440175
-2.50538
-1.68923
-2.06825
-0.435818
-0.372836
0.571824
-0.396619
2.08787
-0.253403
1.54457
2.43598
-0.275366
1.68106
0.124795
1.7055
0.987147
1.95374
1.13629
0.246588
1.25064
-1.87103
-0.68244
-1.28291
-0.269765
1.07525
-0.175633
0.994613
-0.192633
0.365992
0.0224331
0.110456
0.446271
-0.155508
1.00194
0.521526
1.01988
0.0961436
1.40927
0.394982
0.258014
-1.78854
-2.30837
-1.0957
-0.136884
-0.388276
-0.968789
0.49149
0.835496
-0.955164
1.67922
1.35462
0.477205
2.23192
1.31551
0.677439
0.554574
0.842447
-0.799548
0.514613
2.06392
-1.6588
-0.236003
-0.208586
-0.368497
-0.182617
0.709557
0.86004
-0.11251
1.10074
1.1613
-0.60583
-2.16717
1.53147
1.70269
-0.442562
2.24682
0.285097
0.864507
0.656753
0.940565
-0.101574
-1.41606
0.263171
0.0800391
1.45135
-0.450533
0.607952
-1.41179
0.964415
-1.84466
-0.0287465
-0.728578
1.73393
0.503868
-0.645597
0.700118
0.626947
1.06278
0.413346
0.576741
-1.92062
0.790914
-1.44432
-2.1488
0.0425476
0.220144
-0.50745
-0.171774
1.29152
-0.24816
-1.453
-1.19716
-0.923392
1.32014
1.63462
0.66702
-0.457349
0.0330339
2.55932
-0.936737
-0.461447
0.353492
-0.373693
0.165723
1.67008
-1.3225
1.27871
1.3824
-0.0941362
0.450456
0.979883
-0.837852
0.488455
-1.3883
0.176961
-1.04193
0.453255
-0.500012
1.95758
1.60861
0.637224
-0.725037
1.23084
0.551883
-0.0504409
1.20919
-0.446789
-0.0159562
-0.320961
1.35738
2.24061
-0.416861
-0.419037
1.57962
0.0635009
-2.63756
-0.667075
-0.660394
0.649774
0.43809
-2.71838
-0.158335
0.0652851
-0.303735
1.17405
0.187834
-0.782533
0.253634
1.26193
0.377122
3.14106
1.45506
1.91935
0.143718
1.52458
0.7888
1.6398
2.52608
1.86174
0.186583
-3.00934
-0.742045
0.226801
1.52386
-0.300353
1.34858
2.12934
-0.589951
0.351378
1.12517
1.44302
0.764167
1.25929
1.36708
1.96687
-0.0802187
3.01515
0.86783
2.09902
-0.0133563
-0.473525
-0.20285
0.040942
0.570725
-0.207701
0.573219
1.14577
0.703502
0.594295
2.07918
1.10084
3.20898
0.425101
0.805533
1.41198
1.26443
1.37552
0.857805
0.208793
0.211826
-1.69676
-2.5206
0.106061
0.889519
-1.9861
-0.0801728
0.576471
0.471293
1.21793
0.172464
-1.43026
1.8505
-0.265577
0.745824
1.20374
-1.04106
0.552491
-1.01173
1.91315
0.152978
-2.80204
-2.04275
0.470587
1.2539
1.12409
0.995705
0.348648
-1.51538
1.53412
-0.851155
1.01664
0.0227243
0.308699
2.52581
0.178701
0.657771
1.17852
0.120372
0.421371
0.840446
-0.380929
-0.54719
0.962558
-0.332084
0.291327
0.505421
1.92138
0.898856
0.0460884
0.0377271
0.426963
0.0596743
-0.256338
0.078316
0.286534
1.19494
-1.2868
0.23938
-0.347352
1.12221
-0.354158
0.998472
1.47803
-2.80214
0.572986
-0.075673
-0.0862185
-0.416907
0.83816
0.29124
-0.339818
-0.222491
-1.39318
2.12567
0.111543
1.59925
0.608101
0.022262
-0.837041
0.222778
-0.00692922
-0.553093
0.173448
1.93747
-0.0567389
-1.30726
-0.527312
1.23216
-0.659319
1.08172
-1.11326
-0.0542803
0.351308
0.0305318
-0.200978
1.36681
-0.00193972
0.547529
0.907708
0.183742
-0.599246
-3.256
0.0658798
0.932376
1.14406
0.764595
3.49221
2.46551
2.23997
2.27611
1.46938
1.93523
2.64258
2.91671
1.26039
2.19882
2.57682
1.32232
2.50783
2.74553
-1.07207
0.0627895
1.17959
-0.0446974
2.60949
0.056305
1.0097
-0.207486
0.890361
0.141634
0.221972
2.92843
0.148131
1.16558
0.0634221
0.540982
0.513057
2.2894
0.262684
1.37059
-0.958568
-1.38479
-0.099238
1.62186
0.185562
1.7122
1.89054
0.758926
-0.212292
0.237543
3.44068
2.87269
2.0975
1.06905
1.5132
0.945922
1.6124
0.0429747
1.59572
2.02941
0.519462
-0.995776
-0.982399
0.315061
-0.305539
0.751525
-0.487147
1.61348
0.984459
-0.265403
1.18296
-0.407333
1.50956
0.167768
1.71147
0.161116
0.774838
1.47382
1.66969
1.09952
-0.466857
-0.353693
-0.401167
1.02155
1.38351
1.2171
1.15943
1.21312
0.242284
-0.165642
-0.674609
2.39264
-0.81206
1.09496
0.957702
0.414253
0.807213
1.26248
0.862809
-0.55845
-0.2094
-1.41456
0.126129
0.446668
-0.0189066
0.689051
1.57553
1.47322
0.0753222
-0.553749
0.539234
-1.09723
-1.23338
-0.104162
0.0538268
-0.4052
1.19724
0.65768
-0.667963
0.951952
-0.166743
-0.0926667
0.167575
-1.28264
1.02542
-0.295468
-0.733632
1.03889
0.326609
0.249655
0.565891
1.80998
0.632706
1.38584
-0.579619
0.172299
-0.536843
0.468583
0.973409
1.05525
-0.0205757
-0.216799
0.545592
-1.78707
0.905089
0.381647
0.328576
-0.945947
-0.236707
-0.789946
-0.338822
0.377433
-0.73067
0.198999
1.87789
1.19701
-1.06904
1.01389
0.286298
0.60881
-1.78664
-0.683818
0.9709
0.546055
1.31638
0.962097
2.93359
1.42631
1.89351
2.98863
3.51795
2.01226
4.02812
3.68925
2.95642
2.63259
2.15342
4.78424
3.17737
0.88475
-2.49899
-0.484764
2.21273
-1.14637
-0.291415
2.05218
2.87443
1.42694
1.19761
2.16378
0.324993
2.30714
3.24687
3.54261
2.51556
1.67561
3.33694
3.17447
2.46909
2.55433
-0.847744
0.864605
-0.806327
0.795611
1.74155
1.15868
0.13355
1.01481
0.409831
2.63404
2.01506
2.49077
0.23542
1.69981
3.36054
3.99486
3.24542
1.63382
2.14727
1.47223
0.512595
-1.74435
-0.449712
-0.910434
0.725303
1.31396
2.15838
0.978546
2.3965
1.22205
2.77698
3.26691
1.22719
1.38398
2.77351
1.35097
2.21896
0.028715
1.97506
2.12937
0.688032
0.596992
0.295787
-0.464385
2.58803
1.08345
0.873905
-0.926707
2.3059
1.12533
1.47685
-0.703851
0.616377
1.18158
0.0434337
-0.508528
1.56348
1.45604
0.317545
1.34705
0.186285
-0.0213668
0.29915
-0.580916
-0.788233
-0.41281
1.48859
0.477643
-0.393011
0.663757
0.830264
-0.567087
-0.322897
0.964903
1.90553
0.925966
2.23704
1.54572
0.0824414
0.511588
-0.87746
-0.281186
-0.132417
-0.801023
-0.474824
0.859663
0.760684
1.86711
-0.330955
1.45328
0.302652
0.507581
1.39171
1.10114
-0.037079
2.88262
1.0567
-0.201919
-0.802563
1.05006
-1.41152
0.180578
-1.77719
-0.894656
1.35192
-0.414501
-0.40187
0.168888
-0.874146
0.21729
0.524802
-0.425216
-0.934213
-0.0748994
-1.21299
-1.79875
-2.17483
0.975424
0.102569
-0.987266
)
;

boundaryField
{
    hotSide
    {
        type            calculated;