/*--------------------------------*- C++ -*----------------------------------*\
| =========                 |                                                 |
| \\      /  F ield         | OpenFOAM: The Open Source CFD Toolbox           |
|  \\    /   O peration     | Version:  2212                                  |
|   \\  /    A nd           | Website:  www.openfoam.com                      |
|    \\/     M anipulation  |                                                 |
\*---------------------------------------------------------------------------*/
FoamFile
{
    version     2.0;
    format      ascii;
    arch        "LSB;label=32;scalar=64";
    class       volScalarField;
    location    "0";
    object      relativeErrorField;
}
// * * * * * * * * * * * * * * * * * * * * * * * * * * * * * * * * * * * * * //

dimensions      [0 0 0 1 0 0 0];

internalField   nonuniform List<scalar> 
3200
(
0.00120801
0.00443641
0.000855139
0.00741525
0.00999253
0.00678147
0.00611599
0.00407517
0.00728719
0.00845276
0.00363512
0.0107762
0.00775424
0.00499721
0.00281911
0.00799074
0.00369905
0.00673419
0.00649744
0.00590842
0.00206891
0.00419196
0.00806932
0.0112103
0.00933028
0.00979038
0.00594616
0.00374245
0.00323824
0.00285664
0.006949
0.0060863
0.00337227
0.00631533
0.00960943
0.0109063
0.0100704
0.0104606
0.00741666
0.0011647
0.00508668
0.00438344
0.00363071
0.00420598
0.00724146
0.00987381
0.00717947
0.00683577
0.00238792
0.00895008
0.00764682
0.00779297
0.00915187
0.0053165
0.000758317
0.00149078
0.0060865
0.00539586
0.00453459
0.0038023
0.0040241
0.00372078
0.00406676
0.00159717
0.00728299
0.00585327
0.00517122
0.0091403
0.00683129
0.00929662
0.00326383
0.00157879
0.00386301
0.00549536
0.00560014
0.0101458
0.00143446
0.00164337
6.5099e-05
0.00290407
0.000874486
0.00252094
0.00281425
0.00741189
0.000152131
0.0012876
0.0012064
0.00712506
0.00251927
0.00360389
0.00188381
0.00239601
0.00362342
0.00116852
0.00135756
0.00471197
0.00576576
0.00165628
0.00231761
0.00307396
0.00160885
0.000931817
0.002281
0.00472624
0.0049505
0.00366521
5.93638e-05
0.00214767
0.00237524
0.00170202
0.00315084
0.00307013
0.00218543
0.00121889
0.0012343
0.000517211
0.000333678
0.00423354
0.00164253
0.00251704
2.24941e-05
0.00585483
0.00279808
0.000888262
0.000158488
0.00192326
0.00224364
0.00808262
0.00298326
0.00187118
0.00326138
0.000430741
0.00108751
0.00158435
0.00742646
0.00134007
0.000249627
0.0026248
0.00563865
0.0017344
0.0025334
0.00114952
0.0019531
0.000628178
0.00259889
0.00345931
0.0025639
0.00281229
0.00517706
0.00267383
0.00125757
0.000732073
0.00152824
0.0035304
0.000153095
0.0026819
0.00292568
0.00216778
0.00172062
0.000539992
0.00130937
0.00682895
0.00903135
0.0106217
0.0112405
0.00565306
0.00739148
0.0074681
0.00662877
0.00954531
0.00457712
0.00657381
0.000871067
0.00948386
0.00158845
0.0100614
0.00429298
0.00949779
0.00143293
0.000129551
0.00408626
0.000960518
0.00344335
0.00149499
0.0110137
0.00109138
0.00977641
0.000651728
0.0127286
0.000614026
0.000857932
0.00397573
0.000114008
0.00516474
0.00115741
0.00471236
0.000660048
0.00283105
0.0013222
0.00273419
0.000310946
0.00587296
0.00527892
0.00504217
0.00691103
0.00348592
0.00965184
0.00201031
6.39414e-05
0.00186173
0.0029731
0.00358429
0.0034194
0.00736813
0.00581031
0.000237209
0.00928348
0.00232587
0.00239332
0.00322868
0.00176121
0.00168967
0.00733342
0.0098729
0.00859699
0.00332119
0.00361351
0.00591738
0.00585278
0.00144703
0.00199703
0.00519708
0.00474087
0.00175138
0.00283112
0.00404765
0.00864035
0.0100617
0.00411029
0.00320497
0.00813184
0.00422981
0.00541091
0.00460477
0.00977794
0.00596669
0.00350385
0.00257011
0.00689941
0.00133649
0.00640239
0.000176076
0.00517436
0.00515631
0.00757113
0.00277088
0.0115952
0.000627265
0.000560565
0.00522375
0.00313923
0.00310707
0.000499584
0.00484633
0.00570904
0.00148788
0.00260703
0.000399955
0.00135
0.00112114
0.00477419
0.00450635
0.00297002
0.0032072
0.0045919
0.000749591
0.00199211
0.000736244
0.00329518
0.000533998
0.000595213
0.00283592
0.00199847
0.00510045
0.00203091
0.000556405
0.000729706
0.00538103
0.00424503
0.0115467
0.00229091
0.00222954
0.00152017
0.00503667
0.00114708
0.00116615
0.00218039
0.0022857
0.000693025
0.0017079
0.00290315
0.00618174
0.00223933
0.00120397
0.000610777
0.000282017
0.00524152
0.00267052
0.000654947
0.00687533
0.000988025
0.00347266
0.000660426
0.00446697
0.000862253
0.00150143
0.00305739
0.00837709
0.000352621
0.00234456
0.0033697
0.00736475
0.00338635
0.0068857
0.0116393
0.00654467
0.00533753
0.00350819
0.00707855
0.00303031
0.00565483
0.00291449
0.00186493
0.00495256
0.00475844
0.00997663
0.00810901
0.00931841
0.00427326
0.00064467
0.00333054
0.00422239
0.00660181
0.00975457
0.00416314
0.00719256
0.00177765
0.00348608
0.00418157
0.00407438
0.00559457
0.0022955
0.0044616
0.00640759
0.00641349
0.00366825
0.00680715
0.000345341
0.00429401
0.00209527
0.00341516
0.00266491
0.00608137
0.0011214
0.00309014
0.00609949
0.000398217
0.00506452
0.000400737
0.00102737
0.0034214
0.00135855
0.0013258
0.00283706
0.00568479
0.0031814
0.00562192
0.011471
0.00498999
0.000390714
0.00409503
0.00133982
0.00508923
0.00401689
0.00255049
0.00514122
0.00281262
0.00843924
0.00706722
0.00502395
0.00132929
0.00377678
0.00762112
0.000715338
0.00073705
0.000588451
0.0024467
0.000230835
0.0001424
0.000752247
0.0034665
0.00370046
0.00355196
0.00398418
0.00679012
0.00595501
0.00576707
0.00470407
0.00279793
0.000620365
0.00490332
0.0021075
0.000346186
0.0033367
0.00574103
0.00317603
0.00600925
0.00313595
0.00124557
0.000738726
0.00297015
0.00446632
0.00437343
0.0021028
0.00224414
0.00529634
0.000464985
0.00098209
0.00277165
0.00476337
0.00491489
0.00120612
0.000906657
0.000341752
0.000532625
0.00343153
0.00154171
0.00107429
0.000554962
0.000698864
0.00344542
0.00162548
0.00390558
0.00162892
0.00557386
0.00204336
0.00622341
0.000729901
0.00112724
0.0024136
0.00235991
0.00207579
0.000518367
0.00224298
0.00933448
0.00436202
0.00305346
0.000704978
0.00193511
0.00112841
0.00111608
0.00595842
0.000167405
0.00327095
0.00133239
0.00105684
0.00414009
0.00202839
0.00745452
0.00304346
0.00138731
0.00166675
0.000946384
0.00413621
0.00474959
0.000208944
0.00866553
0.00300662
0.0032088
0.00652907
0.000847553
0.00562648
0.000312218
0.00290542
0.00407867
0.00609592
0.00652792
0.00548265
0.000155262
0.00502398
0.00385357
0.00101358
0.00139457
0.00650925
0.00275749
0.0069024
0.00687167
0.00523718
0.000468773
0.00463335
0.000562821
0.000134596
0.000739508
0.000144673
0.00580093
4.16142e-05
0.00473523
0.000499794
0.00663102
0.000360661
0.000743941
4.61227e-05
0.001284
0.00722096
0.00277499
0.00416845
0.000989465
0.00831639
0.00107136
0.000315025
0.0012912
0.000129686
0.00133776
0.000270235
0.000135269
0.00254298
0.00555241
0.00762926
0.00968282
0.00513204
0.00141657
0.00584216
0.00593301
0.00159895
0.000916824
0.00535297
0.00130431
0.00576645
0.00204999
0.00631179
0.00583772
0.000933138
0.00183345
0.00521389
0.00341513
0.00277378
0.00669998
0.0077728
0.00289026
0.00243227
0.000657917
0.00431
0.00152041
8.92997e-05
0.0007695
0.00237109
0.00466819
0.000915594
0.00217726
9.57474e-05
0.00689589
0.000453889
0.00550924
0.00318013
0.000842661
0.010491
0.00176824
0.000923286
0.00220267
0.00298695
0.00147782
0.000534043
0.00096608
0.00261213
0.00323648
0.0014041
0.0088984
0.0039485
0.000993998
0.00263983
0.00618965
0.00214133
0.000164014
0.00586109
0.00227336
0.00514737
0.00142441
0.00136812
0.00427387
0.000275316
0.00124247
0.00169985
0.00413109
0.00416991
0.000722828
0.00273787
0.00429038
0.00188223
0.00430814
0.00752524
0.000951732
0.000348311
0.00256063
0.0026025
0.00299884
0.00513496
0.00203714
0.00215697
0.000859877
0.00147782
0.00209977
0.00243477
0.00229649
0.00130217
0.000261746
0.00124826
0.000188203
0.00195826
0.00498862
0.00356084
0.000765395
0.000385497
0.00415401
0.000982125
0.00548094
0.000810991
0.00111524
0.00030058
0.000903038
0.00121512
0.00511534
0.000893677
0.00119502
0.00104765
0.000956417
0.00297776
3.88043e-05
0.000362526
0.00323638
0.00036296
0.000915903
0.00219997
0.00401551
0.00402229
0.00423092
0.00754065
0.00264641
0.000491879
0.00171174
0.002131
0.00461229
0.000832714
0.0036458
0.0043556
0.00198531
0.00632665
0.0124428
0.00033935
0.00481599
0.00121802
0.000722267
0.00176893
0.00128104
0.00342347
4.07356e-05
0.00522187
0.00567573
0.00952608
0.00342062
0.000721352
0.00542933
0.00108489
0.00220902
0.00131912
0.00538117
0.00253937
0.00528686
0.00206019
0.00422441
0.0021725
0.00352599
0.0010101
3.22795e-05
0.00327491
0.00013544
0.00336377
0.00361206
0.00260958
0.00106427
0.0026335
0.0005949
0.000650283
0.00181251
0.00200092
0.00222321
0.00334259
0.00349841
0.000723778
0.00114742
0.00167002
0.00327065
0.00340359
0.000369653
0.00291083
0.001236
0.000355901
0.00247647
0.00441585
0.00106998
0.00202627
0.000136583
0.0031189
0.0042612
0.00315627
0.00104483
0.00146105
0.00182058
0.000852155
0.00142034
0.000192079
0.000934337
0.00198037
0.00315859
0.00501874
0.00491679
0.00325818
0.00146981
0.00535969
0.000126464
0.00228443
0.00304007
0.00323629
0.00103313
0.000489411
0.000260974
0.000889964
0.00726941
0.00199004
0.00146325
0.00108795
0.00110173
0.00172293
0.00780773
0.00205812
0.00797993
2.53987e-05
0.00568453
0.00180125
0.0017668
0.00218223
0.00149768
0.00495614
0.00286149
0.00176084
0.00251843
0.00527595
0.000362067
0.00425535
0.00374013
0.00450126
0.00405359
0.000992372
0.00233402
0.000739215
0.00423918
0.00167974
0.00285101
0.00126492
0.00149896
0.00051242
0.00125395
0.00256043
0.00507692
0.00208987
0.000460058
0.000322183
0.000194474
0.00686417
0.000586179
0.00361836
0.000508508
0.00533297
0.00876587
0.00250381
0.0023805
0.00127797
0.0028375
0.00401952
0.0013252
0.00294294
0.00207183
0.00186356
0.00286515
0.00178417
0.000816993
0.00114188
0.00237257
0.000296002
0.00621033
0.00359279
0.000887507
0.00128566
0.00054185
0.000939395
0.00403733
0.00510097
0.000954951
0.0048811
0.00193706
0.000267394
0.00207701
0.000585928
0.00142075
0.0035523
0.00517904
0.00724521
0.00324216
0.00272195
0.0076979
0.00358905
0.00257721
0.00148057
0.00120697
0.00155688
0.000264912
3.95592e-05
0.00571429
0.000429893
0.00254013
0.000361574
0.000389905
0.00694205
0.00108799
0.0013285
8.09071e-06
0.0042061
0.000903589
0.0031996
0.00154135
0.00551251
0.00427932
0.00203369
0.000270614
0.00252747
0.006464
0.00291376
0.00134746
0.000115198
0.00244869
0.00440959
0.00016466
0.00554589
0.00228299
0.00382605
0.00377071
0.00499207
0.0013162
0.00247998
0.00171836
0.00444131
0.00528291
0.0012881
0.00392906
0.00212205
0.00293708
0.00494601
0.00287558
0.00063086
0.00190895
0.00332634
0.00508311
0.00025377
0.00528528
0.00285222
0.00197155
0.00488692
0.00346678
0.00159631
0.000788394
0.0030381
0.00784182
0.000391006
0.000712784
0.00200556
0.00562994
0.000156232
0.00536773
0.000948192
0.000644535
0.00463689
0.00468702
0.0030723
0.0025193
0.000397992
0.000777181
0.000963245
0.00300108
0.000289335
0.00420204
0.00351872
0.000559798
0.000797467
0.00209731
0.00409505
0.00278904
0.0017392
0.00012583
0.00134136
0.000737164
0.00529229
0.000319855
0.00522282
0.00264214
0.00120622
0.00487834
0.0063836
0.00589011
0.00516278
0.000568181
0.00250352
0.00391588
0.00818216
0.0023356
0.00536781
0.00205483
0.000733815
0.00108272
0.0041362
0.00227658
0.00208784
0.00211261
0.000862195
0.00259963
0.00649766
0.00405684
0.00102558
0.00154578
0.00177015
0.00380457
0.00318042
0.00149219
0.000939034
0.00443521
0.00261721
0.000824286
0.00294796
0.0011651
0.0020842
0.00505353
0.00531159
0.00275399
0.00196351
0.00179368
0.00244081
0.00119017
0.00576684
0.00243285
0.0029421
0.00129553
0.00368678
0.00408927
0.00125058
0.000877095
0.00413968
0.00103788
0.00373567
0.00425789
0.00185071
0.00296605
0.0039615
0.00303586
0.00404813
0.00535697
5.52405e-05
0.00366464
0.00339774
0.00212311
0.00154517
0.00429047
0.0030666
0.000158616
0.00107484
0.00163921
0.00378634
0.0025525
0.00258404
0.000964083
0.00312237
0.00350914
0.000772401
0.00283323
0.00303111
0.00149011
8.09355e-05
0.00294699
0.000474402
0.00654879
0.00166497
0.00228747
0.00594027
0.00344249
0.000403782
4.55278e-05
0.0057085
0.00234992
0.00240827
0.00183204
0.00567156
0.00265694
0.00141341
0.000383041
0.00341436
0.00421359
0.00203667
0.00188691
0.000786061
0.000408612
0.00153028
0.00538817
0.000578985
0.00205653
0.00148197
0.00490939
0.00389988
0.00359378
0.000681727
0.000264102
0.00287515
0.00329005
0.00483725
0.000396826
0.00571808
0.00203418
0.00194766
0.00050493
0.0011876
0.00098211
0.000254633
0.0033181
0.000687997
0.00628475
0.00958224
0.00194218
0.00379351
0.00246164
0.00231098
0.00162962
0.00213807
0.00247019
0.0041002
0.00404209
0.00406707
0.000708395
0.00176023
0.0014321
0.00338924
0.00399968
0.00463608
9.86064e-05
0.000801483
0.00445172
0.00170213
0.0018554
0.00582723
0.000340308
0.00256618
4.0419e-05
0.000570369
0.00140352
0.00210909
0.00488891
0.000790736
0.000239953
0.00202413
0.00103352
0.000366891
0.00291878
0.00340055
0.0020065
0.000538427
0.00105103
0.00105034
0.00281691
0.00224291
0.00565141
0.00469082
0.000541129
0.00176832
0.000617898
0.00141132
0.00159177
0.00088448
0.00573103
0.000679024
0.00306531
0.000908028
0.00157407
0.00104825
0.00182723
0.00258397
0.00329105
0.00395013
0.00511657
0.000101187
0.0016002
0.00308347
0.00191396
0.00197763
0.00162604
0.0049419
0.00036226
0.000799854
0.00288003
0.000731408
0.00810175
0.00263636
0.00169384
0.00285436
0.00488322
0.00267213
0.00251171
0.00119636
0.00286559
0.00758701
0.000539436
0.000127159
0.000151221
0.000100205
0.000148558
0.00221074
0.00601725
0.0011298
0.0017886
0.00718672
0.00165591
0.00710259
0.0037711
9.81828e-05
0.00554153
0.00337201
0.00360297
0.000601736
0.00106623
5.35107e-06
0.00144986
0.000169476
0.00101726
0.000407528
0.00188203
0.00113372
0.000906092
0.00193235
0.000223726
0.000405474
0.00112044
0.000893254
0.00115176
0.00308404
0.000153951
0.000116539
0.00429714
0.00346499
0.00339771
0.00093385
0.00459546
0.00111817
0.00289882
0.0069594
0.00438692
0.00835221
0.00633652
0.00391365
0.00579068
0.00281465
0.00204991
0.00370358
0.00160291
0.00178869
0.00807806
0.00275773
0.00223124
0.00255869
0.00185916
0.00351769
0.00114711
0.00139463
0.000815438
0.000181169
0.00230435
0.00162472
0.00343948
0.00537882
0.00117002
0.00167556
6.45658e-07
0.00282761
0.00266338
0.00555182
0.000718981
0.00857525
0.00396412
0.000653386
0.00365344
0.00345918
0.00237802
0.00246307
0.00359925
0.00363578
0.00429462
0.00238549
0.00143185
0.00523015
0.00538341
0.00319569
0.00539947
0.000277004
0.00368737
0.000711804
0.00254258
0.004294
0.00766425
0.00286817
0.000230097
0.00278556
0.000680704
0.00341174
0.00468698
0.00756084
0.00845837
7.88316e-05
0.00359504
3.25357e-05
0.00319723
0.00589301
7.42786e-06
0.00225214
0.00103938
0.00405431
0.00437484
0.00402736
0.00372383
0.00571962
0.00107829
0.0038573
0.00427028
0.00332624
9.05572e-05
0.000285342
0.00121673
0.00538139
0.00142368
0.00194819
0.00024168
0.00197242
0.000348926
0.000306661
0.00279762
0.00220543
0.00392731
0.00514867
0.00278396
0.000594791
0.00356487
0.000335175
0.00160568
0.0065648
0.000403043
0.00156554
0.00197582
0.00367294
0.00265761
0.00197204
0.00205584
0.00395882
0.00404616
4.93018e-05
0.00264682
0.00225085
0.0040891
0.00507159
0.00239974
0.00133252
0.000647227
0.000654151
0.00213341
0.00179366
0.00681919
0.00364588
0.000347517
0.00657262
0.00568982
0.00851988
0.000735487
0.0010781
0.00396499
0.00220205
0.00156282
0.0015437
0.00184081
0.00505162
0.00635385
0.00576792
0.00093959
0.00186862
0.00200708
0.000601829
0.000761633
0.00141557
0.00310222
0.00435484
0.00556899
0.000616296
0.00109843
0.00190655
0.00370371
0.00125722
0.000782878
0.00383229
0.000609574
0.00310295
0.00279517
0.00650966
0.00237943
0.00195073
0.000944556
0.00300198
0.00281282
0.00339918
0.00656621
0.00208594
0.00129499
0.00791459
0.00284641
0.00103328
0.00283336
0.0036148
0.00417843
0.00203692
0.00197875
0.00597288
0.00564699
0.00118819
0.00458399
0.00210846
0.00158589
0.000330988
0.00333448
0.00235693
0.00730193
0.00353757
0.000445067
0.00555496
0.00356827
0.000613763
0.00366977
0.0016648
0.00302563
0.00686105
0.00379738
0.000794622
0.00184753
0.00388137
0.00252364
0.00143933
0.00504177
0.00144714
0.000877838
0.000840457
0.00135521
0.00621851
0.00490141
0.00207806
0.00112508
0.0034951
0.00790925
0.00364685
0.00352194
0.00311141
0.000914809
0.0034544
0.00431524
0.000363585
0.00233007
0.00153561
0.000801618
0.00346806
0.00225758
0.00239943
0.0016095
0.00251127
0.00457195
0.00178481
0.00195538
0.00135833
0.00470104
0.00136711
0.000147254
0.00433679
0.00285221
0.00306057
0.00690919
0.00344911
0.00217452
0.00396639
0.00369486
0.00676466
0.0031019
0.00357524
0.000894412
0.00268292
0.00124887
0.00041541
0.00178365
0.0014075
9.04989e-05
0.00179066
0.00170125
0.00205498
0.0030762
0.00414646
0.00137372
0.000432214
0.000754848
0.00168309
0.00390189
0.00218117
0.00599397
0.00220076
0.00044752
0.00415273
0.00739359
0.00197066
0.00481774
0.00138778
0.000341814
0.00522748
0.00143398
0.00251953
0.00509293
0.0026596
0.0114687
0.00538214
0.00669437
0.000845284
0.001366
0.0024325
0.00126028
0.00414633
0.000134521
0.00230314
0.000335405
0.00277861
0.00394602
0.000294247
0.00456193
0.00299347
0.00537547
0.0028698
0.00260532
0.00128578
0.00869062
5.83097e-05
0.00113279
0.00110539
0.00150757
0.00108496
0.00109873
0.00130034
0.00642801
0.000462839
0.00118212
0.00656211
4.30999e-05
0.00647568
0.00134324
0.00166621
0.000532112
0.00135736
0.000970713
0.00450183
0.00168149
0.00292844
0.00462144
0.00129582
0.0033046
0.00265826
0.00742001
0.00831044
0.00136696
0.000178214
0.00496077
0.00708824
0.00168232
0.00434195
0.000113686
0.00496421
7.63717e-05
0.00182783
0.0021869
0.00598713
0.00881361
0.00774683
0.000217107
0.000992488
0.000920895
0.00312264
0.000211864
0.000932187
0.00149149
0.00204607
0.00608642
0.000762557
0.00768171
0.00430484
0.00278564
0.00398
8.438e-06
0.00106365
0.000960089
0.00191803
0.00373207
0.00331116
8.12101e-05
0.00056292
0.000438634
0.000665232
0.0013816
0.00102987
0.00468195
0.00347364
0.00088439
0.00354927
0.00101267
0.00385105
0.00303037
0.000690035
0.00248449
0.00272908
0.0066188
0.00410945
0.00534417
0.00227188
0.00794191
0.00214899
0.00395593
0.000893338
0.000826965
0.00599653
0.00204602
0.00477825
0.00429875
0.00291405
0.00288175
0.00283435
0.000325101
0.00136878
0.00394656
0.00269956
0.00149274
0.00393391
0.00235794
0.00653907
0.00196262
0.00724492
0.00262064
0.000508539
0.00437159
0.000110544
0.00121288
0.00111495
0.00397285
0.00312552
0.00305563
0.00493236
0.000493391
0.00186
0.000945856
0.000830069
0.000896027
0.00499065
0.0008932
0.00337987
0.00170442
0.00539232
0.000389709
0.0028316
0.00078814
0.000905952
0.00135584
0.0029195
0.0019805
0.000774943
0.000518928
0.00123335
0.000280319
0.0033242
5.67031e-05
0.000750665
0.00315666
0.00418878
0.0106509
0.0076755
0.000766185
0.0030277
0.00115826
0.004339
0.00329143
0.00272048
0.00353294
0.00874628
0.00897705
0.00856174
0.00336447
0.00409085
0.00162932
0.00168272
1.2316e-05
0.00308446
0.00159395
0.00250675
0.00296014
0.000110933
0.000541383
2.5878e-05
9.45192e-05
0.00194033
0.00361695
0.000498871
0.00011063
0.000186021
0.000826429
0.00338638
0.00155812
0.00429053
0.000128362
0.000481862
0.000849371
0.00134194
0.000496167
0.00184517
0.0064525
0.00284545
0.00536655
0.00146964
0.00250775
0.000135132
0.00380321
0.00268698
0.00213125
0.00662275
0.0108978
0.00650191
0.00128115
0.00557582
0.00129159
0.003139
0.00133562
0.00544931
0.0031587
0.00612107
8.10634e-05
0.0075091
0.00303642
0.00543669
0.00136359
0.00445016
0.004206
0.00378906
0.00353914
0.0016704
0.00237991
0.00297433
0.00344787
0.00529578
0.00383949
0.00322035
0.00368029
0.00166143
0.00135189
0.00144198
0.00626585
0.000102369
0.00197546
0.000276747
0.00638532
0.000313609
0.00417223
0.00702647
0.0010635
0.00163567
0.00549281
0.00338465
0.000124437
0.00775229
0.00404051
0.000268724
0.00158011
0.00448919
0.00164139
0.000380748
0.00152828
0.00143324
0.00200704
0.000110933
0.00341466
0.00116519
0.00185915
0.00371598
0.00236114
0.00135981
0.00131749
0.00102814
0.00340024
0.00459391
0.00319718
0.00103917
0.00231088
0.000587656
0.00324558
0.00268881
0.00461056
0.000855208
0.00116945
7.32275e-05
0.0012325
0.00278379
0.00405453
0.00407334
0.00168537
0.00335183
0.000674544
0.00469529
0.000634902
0.00591303
0.00102028
0.000374881
7.83965e-05
0.00640467
0.00279171
0.0068114
0.00591462
0.00327749
0.00690804
0.00427297
0.00112409
0.00318779
0.00363389
0.0041733
0.0028362
0.000474982
0.00270073
0.0025737
0.000384977
0.00347475
0.00251935
0.00179739
0.00104486
0.000799451
0.00344419
0.00195637
0.0119106
0.00966843
0.0122694
0.00736141
0.00300393
0.00300862
0.00553688
0.00389179
0.00250251
0.0068351
0.00230181
0.00273379
0.00542348
0.00244039
0.00661134
0.00395075
0.00125474
6.87536e-05
0.000190612
0.00406369
0.00573622
0.00595765
0.00210417
0.00682454
0.000207357
0.00274085
0.00224286
0.00827022
0.00549352
0.00195655
0.00543075
0.00594115
0.00370002
3.90359e-05
0.00796506
0.00172664
0.00378222
0.000812013
0.000914034
0.00030654
0.00946593
0.00420098
0.00885291
0.00529637
0.00585552
0.00162415
0.00445958
0.00402226
0.00498032
0.00132232
0.00765086
0.00198586
0.00228669
0.00415826
0.00297841
0.00116699
0.000625061
0.00425155
0.00201308
0.00666654
0.00427844
0.0040105
0.00380824
0.00495656
0.00388232
0.0022679
0.00215526
0.000587398
0.00146267
0.00397334
0.00462536
0.00739003
0.00388981
0.00597124
0.00217214
0.000923362
0.00341778
0.00149505
0.00123917
0.00873525
0.00493068
0.00424252
0.00249157
0.000239674
0.00431574
0.00113163
0.00163537
0.00217672
0.00246835
0.00165027
0.00768527
0.00821738
0.00107697
0.00394356
0.00299716
0.0032432
0.00267081
0.00040514
0.00388233
0.00367933
0.00292568
0.0012653
0.00179494
0.000349623
0.00616526
0.00307055
0.00219131
0.00449344
0.00156039
0.00166327
0.00184583
0.00370769
0.00323706
0.0044913
0.00183193
0.00331481
0.00432712
0.00456353
0.00360567
0.00254592
0.00155237
0.0115937
0.000317972
0.00089262
0.0029991
0.00353599
0.00174952
0.00155443
0.00171183
0.00250343
0.00408978
0.000175566
0.00447878
0.00188374
0.000476925
0.00218824
0.00639735
0.00336103
0.00319404
0.00141298
0.00457385
0.00526635
0.00455801
0.00160001
0.00420984
0.000660607
0.000221326
0.000552328
0.000520414
0.00115714
0.00349068
0.000517717
0.00460914
0.00273031
0.00383838
0.00372156
0.0005629
0.00145295
0.00217629
0.00122259
0.00979368
0.00700069
0.00487965
0.00134405
0.00623904
0.00331575
0.00516534
0.00338496
0.0034612
0.00240278
0.000167067
0.00382162
0.00426824
0.00137119
0.0014095
0.00230315
0.00261589
0.000796579
8.6026e-05
0.000507826
0.0101165
0.000195835
0.0057209
0.000338866
0.00035298
0.000409895
0.00416118
0.000310785
0.00106793
0.000135958
0.00119331
0.00110908
0.000602479
0.000835597
0.00170509
0.000529699
0.000152962
0.000328944
0.000172396
0.000226659
0.0109567
0.0053815
0.000283445
0.0018413
0.00125393
0.00320461
0.00387559
0.00182127
0.00106249
0.0063646
0.00200353
0.00359299
0.00334694
0.000205055
0.00461749
0.00200316
0.00566318
0.00323568
0.0014097
0.000838267
0.00152753
0.00835771
0.00586652
0.00232553
0.00342213
0.00165624
0.00189771
0.00478572
0.0032678
0.00469551
4.34668e-05
0.00020167
0.00934618
0.00183736
2.13563e-06
0.000166375
0.000386487
0.00273286
0.00433483
0.00299495
0.00384509
0.00733595
0.00245211
0.000614864
0.00421694
9.95603e-05
0.00569537
0.00182126
0.000389261
2.46914e-05
0.00240959
0.00308818
0.00163685
0.000235769
6.79449e-05
0.00363464
0.00417835
0.00450044
0.00615134
0.00358317
0.00961719
0.00137356
0.00187324
0.00472188
0.00195324
0.00154092
0.00127413
0.000875841
0.00363576
0.00222879
0.00177598
0.00312416
0.000152137
0.00133681
0.00310889
5.15455e-05
0.000857032
0.00151268
0.00416476
0.00204283
0.00244893
0.00428651
0.00192299
0.000466145
0.000404139
0.00610732
0.00315645
0.00342643
0.00132583
0.00540985
0.00365124
0.0033256
0.00302532
0.00110144
0.00164822
0.00432088
0.00236958
0.00134746
0.00366371
0.0015024
0.000613372
0.00533127
0.00208019
0.00244932
0.00247882
0.00177443
0.00177011
0.000874478
0.00456899
0.00353965
0.00682293
0.000711867
0.000249773
0.0049715
0.00560222
0.000118671
0.000765326
0.00141625
0.00338837
0.00253466
0.00785527
0.00413514
0.00160955
0.000276736
0.00165425
0.000925488
0.000291945
0.0015824
0.000166198
0.00581378
0.00331492
0.00558507
0.00213923
0.00537632
0.00205737
0.0027674
0.00262269
0.00472256
0.00576992
0.0060493
0.0116299
0.00194595
0.00571632
0.00429748
0.00165526
0.00203957
0.00145074
0.00137178
0.000510779
0.00444813
0.00568081
0.00678475
0.000852576
0.00146832
0.000749397
0.00355531
0.00597003
0.00459589
0.0036588
0.00072061
0.00661549
0.00333615
0.00264964
0.0104296
0.00199194
0.000679712
0.00121574
0.00469545
0.00225206
0.00134217
0.00620002
0.00462149
0.00323992
0.00504191
0.00339948
0.00241661
0.00457355
0.00139806
0.00316284
0.00193372
0.00469754
0.00515069
0.000873527
0.00288806
0.0101089
0.00405624
0.00483868
0.00494555
0.00118432
0.00133815
0.00292525
0.00374826
0.00131727
0.000496443
0.000798015
0.000626272
0.00579139
0.00174153
0.00228752
0.0028495
0.00577767
0.000358149
0.00539354
0.00486335
0.00166929
0.00211195
0.000279872
0.00470531
0.00328051
0.00135963
0.000398321
0.00219552
0.0034523
0.00299167
0.00329796
0.000665867
0.00229464
0.00399029
0.00531905
0.00393949
0.00461537
0.00554549
0.00418516
0.00102698
0.00166773
0.00146275
0.000362846
0.00425934
0.00365327
0.000656876
0.00317374
0.00467147
0.00164109
0.00285104
0.00725975
2.45734e-05
0.00348879
0.00355649
1.58288e-05
0.0036744
0.00392429
0.00034979
0.000763478
0.000598825
0.00812194
0.00708431
0.00227256
0.00215352
0.00280274
0.00534168
0.000529021
0.0013894
0.00408639
0.000150211
0.000303688
0.000234421
8.82566e-05
0.00144819
0.000920977
0.00204771
0.0061813
0.00509137
0.00561598
0.00207826
0.000598788
0.0034251
0.000819047
0.00292085
0.00349847
0.000831157
0.00126432
0.000829854
0.00655999
0.000271144
0.00213277
0.00207385
0.00277606
0.000132859
0.00280507
0.00191974
0.00891448
0.0050741
0.000599906
0.00529203
0.00604104
0.00126335
0.000250999
0.000760426
0.00150243
0.00292863
0.00290503
0.00261208
0.0018014
0.000293193
0.00308515
0.00261288
0.00405794
0.0025024
0.00306527
0.00172509
0.00681977
0.000279408
0.00128705
0.000405625
0.00160617
0.000111799
0.00117193
0.00114458
0.00282751
0.000720724
0.000210075
0.000689609
0.000413706
0.000706923
0.000601645
0.00513862
0.000930431
0.000491743
0.000483141
0.00180613
0.00175001
0.00816256
0.0038271
0.0034359
0.00136637
0.00429232
0.00264848
0.00884506
0.00276011
0.00366318
0.00194162
0.00341848
0.00298193
0.000974604
0.00258376
0.00292936
0.000342834
0.00178448
0.00222305
0.000897802
0.00424979
0.00140823
0.00133881
0.00441648
0.00206444
0.000694263
0.00467914
0.00947994
0.00209834
0.00511626
0.00235756
0.000894359
0.00269757
0.000835222
0.00579079
0.00163979
0.00426441
0.00561377
0.00312303
0.00499547
0.00287744
0.00675037
0.00367782
4.5367e-05
0.000365383
0.00371732
0.0009417
0.00110202
0.000898016
0.00149538
0.00181651
0.000877136
0.00102059
0.00390207
0.000759505
0.000734429
0.00207833
0.00112814
0.00250399
0.00326594
0.00186974
0.000104732
0.0017874
0.00604278
0.0014552
0.00233465
0.00203972
0.00389464
0.00209662
0.00186805
0.0065431
0.00116223
0.00165582
0.00149777
0.00122805
0.00241194
0.004079
0.000860785
0.00293684
0.00385374
0.00545648
0.00236943
6.28172e-05
0.00132956
0.00510684
0.000220673
0.000846912
0.00145522
0.00374407
0.000146009
0.00125647
0.00014579
0.00250026
0.00218838
0.0011288
0.00405308
0.000766985
0.00160664
0.00364553
0.00155059
0.00255735
0.00195659
0.00283066
0.000573864
0.00193521
0.00470702
0.00167662
0.000833445
0.00210311
0.00579281
0.00608312
0.00146537
0.000331647
0.0025441
0.000467816
0.00440226
0.000521571
0.00355101
0.000420981
0.00187379
0.00322493
0.00452679
0.00878864
0.00155816
0.00212838
0.00200976
0.00224871
0.000515668
0.000243277
0.00319664
0.00357066
0.000754836
0.00034124
0.00112763
0.00554591
0.00348383
0.00380812
0.000857569
0.0026485
0.00207883
0.00563806
0.00498749
0.00374426
0.00232701
0.000822856
0.0024245
0.00575209
0.00133481
0.00921887
0.00550912
0.00281167
0.000747053
0.0024048
0.0011977
0.00464326
0.00363864
0.00565678
0.00061501
0.00232007
0.00487397
0.00462765
0.00808962
0.00150942
0.00358065
0.00508492
0.00327687
0.00732038
0.00449994
0.00342908
0.00495835
0.00246214
0.0022836
0.00225152
0.00105888
0.000882039
0.000132451
0.0043539
0.0007095
0.00415455
0.00182383
0.00664633
0.00444961
0.00271484
0.00109162
2.58305e-06
0.00020058
0.000877811
0.00362256
0.00625787
0.00149539
0.00389724
0.00205712
0.00374733
0.00430895
0.00112775
0.00103159
0.000450398
0.0023067
0.000678001
0.00197434
0.00470063
0.00316852
0.00150904
0.00526307
0.00305978
0.000230842
0.00415873
0.005579
0.000420603
0.000553361
0.00832886
0.000412539
0.0044043
0.00380989
0.00412515
0.00750422
0.00250181
0.000198603
0.000504632
0.00306835
0.00627202
0.00463192
0.00260322
0.00108002
0.000111055
0.00251741
0.000823994
0.00011657
0.000296156
0.00462562
0.00248986
0.00300445
0.00167582
0.00207726
0.000514782
0.00331695
0.00383652
0.00127417
0.0041268
0.00456907
0.00108781
0.000216363
0.00109086
0.00124766
0.000668729
0.00107074
0.00516898
0.0047566
0.000300688
0.00142359
0.00576301
0.00445046
0.00284539
0.000314575
0.000462784
0.0027308
0.00401807
0.0069747
0.00255496
0.00177299
0.000296936
0.00213362
0.00187744
0.00132811
0.00267644
0.00193966
0.000626455
0.0031344
0.00229472
0.000824103
0.00642179
0.00357783
0.000719994
0.00205423
0.00141263
0.0048375
0.00186032
0.00244448
0.00135677
0.00145458
0.00738294
0.00497658
0.00609129
0.00128314
0.00109737
0.00168257
0.00116675
0.00614077
0.000745197
0.00454189
0.00716314
0.000809785
0.00494428
0.000367115
0.00501837
0.00290547
0.0057522
0.00334653
0.000726467
0.00368544
0.00559582
0.00204056
0.00383497
0.000806173
0.00321245
0.000524593
0.00297014
0.000575147
0.00109261
6.69665e-05
0.000329728
0.00133228
0.000464302
0.00299201
0.00155773
0.00304702
0.000287318
0.0042127
0.00118103
0.00077166
0.00543188
0.0070093
0.00332627
0.000415447
0.00117815
0.00293897
0.00149074
0.00253376
0.00289637
0.00509168
0.00410743
0.00144704
0.00676861
0.00399006
0.00205512
0.00168275
0.00255684
0.00242723
0.00156261
0.00626822
0.0051185