/*--------------------------------*- C++ -*----------------------------------*\
| =========                 |                                                 |
| \\      /  F ield         | OpenFOAM: The Open Source CFD Toolbox           |
|  \\    /   O peration     | Version:  2212                                  |
|   \\  /    A nd           | Website:  www.openfoam.com                      |
|    \\/     M anipulation  |                                                 |
\*---------------------------------------------------------------------------*/
FoamFile
{
    version     2.0;
    format      ascii;
    arch        "LSB;label=32;scalar=64";
    class       volScalarField;
    location    "0";
    object      Tdirect;
}
// * * * * * * * * * * * * * * * * * * * * * * * * * * * * * * * * * * * * * //

dimensions      [0 0 0 1 0 0 0];

internalField   nonuniform List<scalar> 
3200
(
325.643
325.961
326.367
326.809
327.264
327.712
328.124
328.473
328.727
328.861
328.861
328.727
328.473
328.124
327.712
327.264
326.809
326.367
325.961
325.643
322.14
322.409
322.759
323.142
323.536
323.923
324.28
324.581
324.8
324.916
324.916
324.8
324.581
324.28
323.923
323.536
323.142
322.759
322.409
322.14
318.674
318.898
319.193
319.516
319.849
320.176
320.477
320.731
320.916
321.014
321.014
320.916
320.731
320.477
320.176
319.849
319.516
319.193
318.898
318.674
315.24
315.419
315.66
315.924
316.196
316.463
316.709
316.917
317.068
317.148
317.148
317.068
316.917
316.709
316.463
316.196
315.924
315.66
315.419
315.24
311.83
311.968
312.155
312.36
312.572
312.779
312.97
313.131
313.249
313.31
313.31
313.249
313.131
312.97
312.779
312.572
312.36
312.155
311.968
311.83
308.44
308.538
308.671
308.817
308.969
309.117
309.253
309.368
309.452
309.496
309.496
309.452
309.368
309.253
309.117
308.969
308.817
308.671
308.538
308.44
305.064
305.123
305.202
305.29
305.381
305.47
305.552
305.621
305.671
305.698
305.698
305.671
305.621
305.552
305.47
305.381
305.29
305.202
305.123
305.064
301.697
301.716
301.743
301.772
301.803
301.833
301.86
301.883
301.9
301.909
301.909
301.9
301.883
301.86
301.833
301.803
301.772
301.743
301.716
301.697
325.732
326.047
326.45
326.888
327.339
327.781
328.189
328.533
328.783
328.916
328.916
328.783
328.533
328.189
327.781
327.339
326.888
326.45
326.047
325.732
322.217
322.484
322.831
323.21
323.6
323.983
324.335
324.633
324.849
324.963
324.963
324.849
324.633
324.335
323.983
323.6
323.21
322.831
322.484
322.217
318.739
318.96
319.253
319.573
319.903
320.226
320.524
320.775
320.957
321.054
321.054
320.957
320.775
320.524
320.226
319.903
319.573
319.253
318.96
318.739
315.292
315.47
315.709
315.97
316.24
316.504
316.747
316.952
317.101
317.18
317.18
317.101
316.952
316.747
316.504
316.24
315.97
315.709
315.47
315.292
311.871
312.008
312.193
312.396
312.605
312.811
313
313.159
313.275
313.336
313.336
313.275
313.159
313
312.811
312.605
312.396
312.193
312.008
311.871
308.469
308.566
308.698
308.843
308.993
309.139
309.274
309.388
309.47
309.514
309.514
309.47
309.388
309.274
309.139
308.993
308.843
308.698
308.566
308.469
305.082
305.139
305.218
305.306
305.395
305.483
305.564
305.633
305.682
305.708
305.708
305.682
305.633
305.564
305.483
305.395
305.306
305.218
305.139
305.082
301.702
301.722
301.748
301.777
301.808
301.837
301.864
301.887
301.904
301.912
301.912
301.904
301.887
301.864
301.837
301.808
301.777
301.748
301.722
301.702
325.91
326.22
326.616
327.046
327.488
327.921
328.319
328.655
328.899
329.028
329.028
328.899
328.655
328.319
327.921
327.488
327.046
326.616
326.22
325.91
322.37
322.633
322.974
323.346
323.729
324.103
324.447
324.738
324.948
325.06
325.06
324.948
324.738
324.447
324.103
323.729
323.346
322.974
322.633
322.37
318.868
319.086
319.373
319.688
320.011
320.327
320.618
320.863
321.041
321.135
321.135
321.041
320.863
320.618
320.327
320.011
319.688
319.373
319.086
318.868
315.397
315.572
315.807
316.064
316.328
316.586
316.824
317.024
317.169
317.246
317.246
317.169
317.024
316.824
316.586
316.328
316.064
315.807
315.572
315.397
311.952
312.087
312.269
312.468
312.674
312.874
313.059
313.214
313.327
313.387
313.387
313.327
313.214
313.059
312.874
312.674
312.468
312.269
312.087
311.952
308.527
308.622
308.752
308.895
309.041
309.185
309.317
309.427
309.508
309.55
309.55
309.508
309.427
309.317
309.185
309.041
308.895
308.752
308.622
308.527
305.116
305.173
305.251
305.337
305.425
305.511
305.59
305.656
305.705
305.73
305.73
305.705
305.656
305.59
305.511
305.425
305.337
305.251
305.173
305.116
301.714
301.733
301.759
301.788
301.817
301.846
301.873
301.895
301.911
301.92
301.92
301.911
301.895
301.873
301.846
301.817
301.788
301.759
301.733
301.714
326.178
326.481
326.867
327.285
327.714
328.133
328.518
328.841
329.076
329.2
329.2
329.076
328.841
328.518
328.133
327.714
327.285
326.867
326.481
326.178
322.601
322.858
323.19
323.552
323.923
324.286
324.619
324.898
325.101
325.208
325.208
325.101
324.898
324.619
324.286
323.923
323.552
323.19
322.858
322.601
319.062
319.275
319.555
319.861
320.175
320.481
320.762
320.998
321.169
321.26
321.26
321.169
320.998
320.762
320.481
320.175
319.861
319.555
319.275
319.062
315.555
315.726
315.955
316.205
316.461
316.712
316.941
317.134
317.274
317.348
317.348
317.274
317.134
316.941
316.712
316.461
316.205
315.955
315.726
315.555
312.074
312.206
312.383
312.577
312.777
312.971
313.15
313.3
313.408
313.465
313.465
313.408
313.3
313.15
312.971
312.777
312.577
312.383
312.206
312.074
308.614
308.707
308.834
308.972
309.115
309.254
309.381
309.488
309.566
309.606
309.606
309.566
309.488
309.381
309.254
309.115
308.972
308.834
308.707
308.614
305.169
305.224
305.3
305.383
305.469
305.552
305.629
305.693
305.739
305.764
305.764
305.739
305.693
305.629
305.552
305.469
305.383
305.3
305.224
305.169
301.732
301.75
301.776
301.803
301.832
301.86
301.886
301.907
301.923
301.931
301.931
301.923
301.907
301.886
301.86
301.832
301.803
301.776
301.75
301.732
326.537
326.831
327.204
327.608
328.02
328.421
328.789
329.098
329.321
329.439
329.439
329.321
329.098
328.789
328.421
328.02
327.608
327.204
326.831
326.537
322.91
323.159
323.48
323.829
324.186
324.534
324.852
325.118
325.312
325.413
325.413
325.312
325.118
324.852
324.534
324.186
323.829
323.48
323.159
322.91
319.322
319.528
319.799
320.094
320.396
320.689
320.958
321.183
321.346
321.432
321.432
321.346
321.183
320.958
320.689
320.396
320.094
319.799
319.528
319.322
315.767
315.933
316.154
316.395
316.641
316.881
317.101
317.285
317.418
317.488
317.488
317.418
317.285
317.101
316.881
316.641
316.395
316.154
315.933
315.767
312.238
312.366
312.537
312.725
312.916
313.103
313.274
313.416
313.52
313.574
313.574
313.52
313.416
313.274
313.103
312.916
312.725
312.537
312.366
312.238
308.731
308.821
308.943
309.077
309.214
309.347
309.469
309.571
309.645
309.684
309.684
309.645
309.571
309.469
309.347
309.214
309.077
308.943
308.821
308.731
305.239
305.292
305.366
305.446
305.528
305.608
305.681
305.743
305.787
305.81
305.81
305.787
305.743
305.681
305.608
305.528
305.446
305.366
305.292
305.239
301.755
301.773
301.798
301.824
301.852
301.879
301.903
301.924
301.939
301.947
301.947
301.939
301.924
301.903
301.879
301.852
301.824
301.798
301.773
301.755
326.989
327.271
327.629
328.015
328.408
328.789
329.137
329.428
329.639
329.749
329.749
329.639
329.428
329.137
328.789
328.408
328.015
327.629
327.271
326.989
323.298
323.538
323.846
324.18
324.52
324.85
325.151
325.403
325.585
325.68
325.68
325.585
325.403
325.151
324.85
324.52
324.18
323.846
323.538
323.298
319.648
319.847
320.107
320.389
320.677
320.955
321.21
321.422
321.576
321.657
321.657
321.576
321.422
321.21
320.955
320.677
320.389
320.107
319.847
319.648
316.032
316.192
316.404
316.635
316.87
317.098
317.306
317.48
317.605
317.671
317.671
317.605
317.48
317.306
317.098
316.87
316.635
316.404
316.192
316.032
312.444
312.567
312.731
312.911
313.094
313.271
313.432
313.567
313.665
313.716
313.716
313.665
313.567
313.432
313.271
313.094
312.911
312.731
312.567
312.444
308.878
308.965
309.082
309.21
309.34
309.467
309.582
309.679
309.748
309.785
309.785
309.748
309.679
309.582
309.467
309.34
309.21
309.082
308.965
308.878
305.326
305.378
305.449
305.526
305.604
305.68
305.749
305.807
305.849
305.871
305.871
305.849
305.807
305.749
305.68
305.604
305.526
305.449
305.378
305.326
301.784
301.802
301.825
301.851
301.877
301.903
301.926
301.945
301.959
301.967
301.967
301.959
301.945
301.926
301.903
301.877
301.851
301.825
301.802
301.784
327.533
327.804
328.145
328.511
328.882
329.241
329.567
329.839
330.035
330.138
330.138
330.035
329.839
329.567
329.241
328.882
328.511
328.145
327.804
327.533
323.767
323.996
324.29
324.607
324.928
325.239
325.521
325.756
325.926
326.015
326.015
325.926
325.756
325.521
325.239
324.928
324.607
324.29
323.996
323.767
320.042
320.232
320.48
320.748
321.02
321.282
321.521
321.72
321.863
321.938
321.938
321.863
321.72
321.521
321.282
321.02
320.748
320.48
320.232
320.042
316.353
316.506
316.708
316.927
317.149
317.364
317.559
317.721
317.838
317.9
317.9
317.838
317.721
317.559
317.364
317.149
316.927
316.708
316.506
316.353
312.693
312.81
312.967
313.137
313.31
313.477
313.628
313.755
313.846
313.893
313.893
313.846
313.755
313.628
313.477
313.31
313.137
312.967
312.81
312.693
309.055
309.138
309.25
309.371
309.495
309.614
309.722
309.812
309.877
309.911
309.911
309.877
309.812
309.722
309.614
309.495
309.371
309.25
309.138
309.055
305.433
305.482
305.549
305.622
305.696
305.768
305.833
305.887
305.926
305.946
305.946
305.926
305.887
305.833
305.768
305.696
305.622
305.549
305.482
305.433
301.82
301.837
301.859
301.883
301.908
301.932
301.954
301.972
301.985
301.992
301.992
301.985
301.972
301.954
301.932
301.908
301.883
301.859
301.837
301.82
328.173
328.43
328.752
329.097
329.446
329.781
330.084
330.336
330.517
330.612
330.612
330.517
330.336
330.084
329.781
329.446
329.097
328.752
328.43
328.173
324.317
324.535
324.813
325.112
325.413
325.703
325.966
326.184
326.341
326.423
326.423
326.341
326.184
325.966
325.703
325.413
325.112
324.813
324.535
324.317
320.505
320.686
320.92
321.173
321.428
321.673
321.895
322.079
322.212
322.281
322.281
322.212
322.079
321.895
321.673
321.428
321.173
320.92
320.686
320.505
316.73
316.875
317.066
317.273
317.482
317.682
317.864
318.014
318.122
318.179
318.179
318.122
318.014
317.864
317.682
317.482
317.273
317.066
316.875
316.73
312.985
313.096
313.245
313.405
313.567
313.723
313.864
313.981
314.065
314.109
314.109
314.065
313.981
313.864
313.723
313.567
313.405
313.245
313.096
312.985
309.263
309.342
309.447
309.562
309.678
309.789
309.89
309.974
310.034
310.065
310.065
310.034
309.974
309.89
309.789
309.678
309.562
309.447
309.342
309.263
305.557
305.604
305.668
305.737
305.806
305.873
305.934
305.984
306.02
306.039
306.039
306.02
305.984
305.934
305.873
305.806
305.737
305.668
305.604
305.557
301.862
301.877
301.899
301.922
301.945
301.968
301.988
302.005
302.017
302.023
302.023
302.017
302.005
301.988
301.968
301.945
301.922
301.899
301.877
301.862
328.908
329.151
329.455
329.778
330.102
330.413
330.693
330.925
331.091
331.177
331.177
331.091
330.925
330.693
330.413
330.102
329.778
329.455
329.151
328.908
324.95
325.156
325.418
325.697
325.979
326.248
326.49
326.69
326.834
326.909
326.909
326.834
326.69
326.49
326.248
325.979
325.697
325.418
325.156
324.95
321.038
321.208
321.429
321.665
321.903
322.131
322.336
322.505
322.626
322.69
322.69
322.626
322.505
322.336
322.131
321.903
321.665
321.429
321.208
321.038
317.164
317.301
317.481
317.674
317.869
318.055
318.222
318.361
318.46
318.512
318.512
318.46
318.361
318.222
318.055
317.869
317.674
317.481
317.301
317.164
313.321
313.426
313.566
313.716
313.867
314.012
314.142
314.25
314.327
314.367
314.367
314.327
314.25
314.142
314.012
313.867
313.716
313.566
313.426
313.321
309.502
309.577
309.676
309.784
309.892
309.995
310.088
310.165
310.22
310.249
310.249
310.22
310.165
310.088
309.995
309.892
309.784
309.676
309.577
309.502
305.701
305.745
305.805
305.869
305.934
305.996
306.052
306.099
306.132
306.149
306.149
306.132
306.099
306.052
305.996
305.934
305.869
305.805
305.745
305.701
301.91
301.925
301.945
301.966
301.988
302.009
302.028
302.043
302.054
302.06
302.06
302.054
302.043
302.028
302.009
301.988
301.966
301.945
301.925
301.91
329.742
329.97
330.254
330.555
330.856
331.142
331.399
331.61
331.761
331.84
331.84
331.761
331.61
331.399
331.142
330.856
330.555
330.254
329.97
329.742
325.668
325.861
326.106
326.366
326.627
326.875
327.097
327.28
327.411
327.479
327.479
327.411
327.28
327.097
326.875
326.627
326.366
326.106
325.861
325.668
321.641
321.801
322.008
322.228
322.448
322.658
322.846
323.001
323.112
323.169
323.169
323.112
323.001
322.846
322.658
322.448
322.228
322.008
321.801
321.641
317.655
317.784
317.952
318.132
318.313
318.484
318.638
318.765
318.855
318.902
318.902
318.855
318.765
318.638
318.484
318.313
318.132
317.952
317.784
317.655
313.702
313.801
313.931
314.071
314.211
314.345
314.464
314.563
314.633
314.67
314.67
314.633
314.563
314.464
314.345
314.211
314.071
313.931
313.801
313.702
309.774
309.844
309.937
310.037
310.137
310.232
310.318
310.388
310.438
310.464
310.464
310.438
310.388
310.318
310.232
310.137
310.037
309.937
309.844
309.774
305.864
305.905
305.961
306.021
306.081
306.139
306.19
306.232
306.262
306.278
306.278
306.262
306.232
306.19
306.139
306.081
306.021
305.961
305.905
305.864
301.964
301.978
301.997
302.017
302.037
302.056
302.074
302.088
302.098
302.103
302.103
302.098
302.088
302.074
302.056
302.037
302.017
301.997
301.978
301.964
330.675
330.888
331.153
331.431
331.708
331.97
332.205
332.397
332.533
332.605
332.605
332.533
332.397
332.205
331.97
331.708
331.431
331.153
330.888
330.675
326.471
326.651
326.88
327.121
327.361
327.588
327.791
327.957
328.076
328.137
328.137
328.076
327.957
327.791
327.588
327.361
327.121
326.88
326.651
326.471
322.317
322.467
322.659
322.863
323.066
323.258
323.43
323.57
323.671
323.723
323.723
323.671
323.57
323.43
323.258
323.066
322.863
322.659
322.467
322.317
318.205
318.326
318.483
318.649
318.815
318.973
319.113
319.228
319.31
319.353
319.353
319.31
319.228
319.113
318.973
318.815
318.649
318.483
318.326
318.205
314.128
314.22
314.342
314.472
314.601
314.723
314.832
314.922
314.986
315.019
315.019
314.986
314.922
314.832
314.723
314.601
314.472
314.342
314.22
314.128
310.077
310.143
310.229
310.322
310.414
310.502
310.58
310.644
310.689
310.713
310.713
310.689
310.644
310.58
310.502
310.414
310.322
310.229
310.143
310.077
306.046
306.085
306.137
306.192
306.248
306.3
306.347
306.385
306.413
306.427
306.427
306.413
306.385
306.347
306.3
306.248
306.192
306.137
306.085
306.046
302.025
302.038
302.056
302.074
302.093
302.111
302.126
302.139
302.148
302.153
302.153
302.148
302.139
302.126
302.111
302.093
302.074
302.056
302.038
302.025
331.708
331.907
332.152
332.409
332.663
332.902
333.115
333.288
333.412
333.476
333.476
333.412
333.288
333.115
332.902
332.663
332.409
332.152
331.907
331.708
327.36
327.528
327.74
327.962
328.183
328.39
328.574
328.724
328.831
328.887
328.887
328.831
328.724
328.574
328.39
328.183
327.962
327.74
327.528
327.36
323.065
323.205
323.383
323.571
323.757
323.933
324.089
324.216
324.306
324.353
324.353
324.306
324.216
324.089
323.933
323.757
323.571
323.383
323.205
323.065
318.815
318.927
319.072
319.226
319.378
319.522
319.649
319.754
319.827
319.866
319.866
319.827
319.754
319.649
319.522
319.378
319.226
319.072
318.927
318.815
314.6
314.686
314.799
314.919
315.037
315.149
315.248
315.329
315.386
315.416
315.416
315.386
315.329
315.248
315.149
315.037
314.919
314.799
314.686
314.6
310.414
310.475
310.555
310.641
310.725
310.805
310.876
310.934
310.975
310.996
310.996
310.975
310.934
310.876
310.805
310.725
310.641
310.555
310.475
310.414
306.247
306.284
306.332
306.383
306.434
306.482
306.525
306.559
306.584
306.597
306.597
306.584
306.559
306.525
306.482
306.434
306.383
306.332
306.284
306.247
302.093
302.105
302.121
302.138
302.155
302.171
302.186
302.197
302.206
302.21
302.21
302.206
302.197
302.186
302.171
302.155
302.138
302.121
302.105
302.093
332.843
333.027
333.254
333.49
333.722
333.939
334.131
334.288
334.398
334.456
334.456
334.398
334.288
334.131
333.939
333.722
333.49
333.254
333.027
332.843
328.337
328.493
328.689
328.893
329.094
329.282
329.449
329.585
329.68
329.73
329.73
329.68
329.585
329.449
329.282
329.094
328.893
328.689
328.493
328.337
323.887
324.016
324.181
324.354
324.524
324.684
324.825
324.939
325.02
325.062
325.062
325.02
324.939
324.825
324.684
324.524
324.354
324.181
324.016
323.887
319.484
319.588
319.722
319.864
320.003
320.133
320.249
320.343
320.409
320.443
320.443
320.409
320.343
320.249
320.133
320.003
319.864
319.722
319.588
319.484
315.119
315.199
315.303
315.413
315.521
315.623
315.712
315.785
315.837
315.864
315.864
315.837
315.785
315.712
315.623
315.521
315.413
315.303
315.199
315.119
310.783
310.84
310.914
310.993
311.07
311.143
311.207
311.259
311.296
311.315
311.315
311.296
311.259
311.207
311.143
311.07
310.993
310.914
310.84
310.783
306.469
306.503
306.547
306.594
306.641
306.684
306.723
306.754
306.776
306.788
306.788
306.776
306.754
306.723
306.684
306.641
306.594
306.547
306.503
306.469
302.167
302.178
302.193
302.209
302.225
302.239
302.252
302.263
302.27
302.274
302.274
302.27
302.263
302.252
302.239
302.225
302.209
302.193
302.178
302.167
334.08
334.25
334.458
334.674
334.886
335.083
335.256
335.396
335.495
335.547
335.547
335.495
335.396
335.256
335.083
334.886
334.674
334.458
334.25
334.08
329.402
329.546
329.726
329.913
330.096
330.267
330.417
330.539
330.624
330.669
330.669
330.624
330.539
330.417
330.267
330.096
329.913
329.726
329.546
329.402
324.783
324.902
325.054
325.212
325.367
325.512
325.639
325.742
325.814
325.852
325.852
325.814
325.742
325.639
325.512
325.367
325.212
325.054
324.902
324.783
320.213
320.309
320.433
320.562
320.689
320.807
320.912
320.996
321.055
321.086
321.086
321.055
320.996
320.912
320.807
320.689
320.562
320.433
320.309
320.213
315.684
315.758
315.854
315.954
316.053
316.145
316.226
316.292
316.338
316.362
316.362
316.338
316.292
316.226
316.145
316.053
315.954
315.854
315.758
315.684
311.186
311.238
311.307
311.378
311.449
311.515
311.573
311.619
311.653
311.67
311.67
311.653
311.619
311.573
311.515
311.449
311.378
311.307
311.238
311.186
306.71
306.741
306.782
306.826
306.868
306.907
306.942
306.97
306.99
307
307
306.99
306.97
306.942
306.907
306.868
306.826
306.782
306.741
306.71
302.248
302.258
302.272
302.286
302.301
302.314
302.326
302.335
302.342
302.345
302.345
302.342
302.335
302.326
302.314
302.301
302.286
302.272
302.258
302.248
335.416
335.574
335.765
335.962
336.154
336.332
336.488
336.614
336.702
336.748
336.748
336.702
336.614
336.488
336.332
336.154
335.962
335.765
335.574
335.416
330.552
330.685
330.85
331.021
331.188
331.342
331.477
331.586
331.663
331.702
331.702
331.663
331.586
331.477
331.342
331.188
331.021
330.85
330.685
330.552
325.75
325.861
326
326.144
326.285
326.416
326.53
326.623
326.687
326.721
326.721
326.687
326.623
326.53
326.416
326.285
326.144
326
325.861
325.75
321.001
321.09
321.203
321.321
321.437
321.544
321.637
321.713
321.766
321.793
321.793
321.766
321.713
321.637
321.544
321.437
321.321
321.203
321.09
321.001
316.294
316.362
316.45
316.542
316.632
316.715
316.788
316.847
316.888
316.91
316.91
316.888
316.847
316.788
316.715
316.632
316.542
316.45
316.362
316.294
311.621
311.669
311.732
311.797
311.862
311.921
311.973
312.015
312.045
312.06
312.06
312.045
312.015
311.973
311.921
311.862
311.797
311.732
311.669
311.621
306.971
307
307.037
307.077
307.115
307.151
307.182
307.208
307.225
307.234
307.234
307.225
307.208
307.182
307.151
307.115
307.077
307.037
307
306.971
302.335
302.345
302.357
302.371
302.383
302.395
302.406
302.414
302.42
302.423
302.423
302.42
302.414
302.406
302.395
302.383
302.371
302.357
302.345
302.335
336.849
336.993
337.169
337.349
337.523
337.683
337.823
337.936
338.015
338.055
338.055
338.015
337.936
337.823
337.683
337.523
337.349
337.169
336.993
336.849
331.784
331.906
332.058
332.214
332.364
332.504
332.625
332.723
332.791
332.827
332.827
332.791
332.723
332.625
332.504
332.364
332.214
332.058
331.906
331.784
326.786
326.887
327.015
327.147
327.274
327.392
327.495
327.578
327.636
327.666
327.666
327.636
327.578
327.495
327.392
327.274
327.147
327.015
326.887
326.786
321.844
321.925
322.029
322.137
322.242
322.338
322.422
322.49
322.537
322.562
322.562
322.537
322.49
322.422
322.338
322.242
322.137
322.029
321.925
321.844
316.947
317.01
317.09
317.174
317.255
317.331
317.396
317.449
317.486
317.505
317.505
317.486
317.449
317.396
317.331
317.255
317.174
317.09
317.01
316.947
312.086
312.13
312.187
312.247
312.306
312.359
312.406
312.444
312.47
312.484
312.484
312.47
312.444
312.406
312.359
312.306
312.247
312.187
312.13
312.086
307.249
307.276
307.31
307.346
307.381
307.414
307.442
307.464
307.48
307.488
307.488
307.48
307.464
307.442
307.414
307.381
307.346
307.31
307.276
307.249
302.428
302.437
302.449
302.461
302.473
302.483
302.493
302.5
302.506
302.508
302.508
302.506
302.5
302.493
302.483
302.473
302.461
302.449
302.437
302.428
338.363
338.495
338.656
338.82
338.978
339.122
339.248
339.349
339.419
339.456
339.456
339.419
339.349
339.248
339.122
338.978
338.82
338.656
338.495
338.363
333.084
333.196
333.335
333.477
333.614
333.739
333.848
333.936
333.997
334.028
334.028
333.997
333.936
333.848
333.739
333.614
333.477
333.335
333.196
333.084
327.877
327.97
328.087
328.207
328.323
328.429
328.522
328.596
328.647
328.674
328.674
328.647
328.596
328.522
328.429
328.323
328.207
328.087
327.97
327.877
322.73
322.805
322.9
322.999
323.093
323.181
323.256
323.317
323.359
323.381
323.381
323.359
323.317
323.256
323.181
323.093
322.999
322.9
322.805
322.73
317.633
317.69
317.764
317.841
317.914
317.982
318.041
318.088
318.121
318.138
318.138
318.121
318.088
318.041
317.982
317.914
317.841
317.764
317.69
317.633
312.573
312.614
312.667
312.722
312.774
312.823
312.865
312.899
312.922
312.934
312.934
312.922
312.899
312.865
312.823
312.774
312.722
312.667
312.614
312.573
307.542
307.566
307.598
307.63
307.662
307.691
307.717
307.737
307.751
307.758
307.758
307.751
307.737
307.717
307.691
307.662
307.63
307.598
307.566
307.542
302.526
302.534
302.545
302.556
302.567
302.576
302.585
302.592
302.596
302.599
302.599
302.596
302.592
302.585
302.576
302.567
302.556
302.545
302.534
302.526
339.921
340.043
340.19
340.34
340.483
340.614
340.727
340.817
340.881
340.913
340.913
340.881
340.817
340.727
340.614
340.483
340.34
340.19
340.043
339.921
334.416
334.519
334.646
334.776
334.9
335.014
335.112
335.191
335.245
335.274
335.274
335.245
335.191
335.112
335.014
334.9
334.776
334.646
334.519
334.416
328.99
329.076
329.183
329.293
329.398
329.494
329.578
329.644
329.691
329.714
329.714
329.691
329.644
329.578
329.494
329.398
329.293
329.183
329.076
328.99
323.631
323.701
323.788
323.878
323.964
324.043
324.111
324.166
324.204
324.223
324.223
324.204
324.166
324.111
324.043
323.964
323.878
323.788
323.701
323.631
318.328
318.381
318.449
318.519
318.586
318.647
318.7
318.743
318.772
318.788
318.788
318.772
318.743
318.7
318.647
318.586
318.519
318.449
318.381
318.328
313.067
313.105
313.153
313.203
313.251
313.295
313.333
313.363
313.384
313.395
313.395
313.384
313.363
313.333
313.295
313.251
313.203
313.153
313.105
313.067
307.837
307.859
307.888
307.918
307.947
307.974
307.996
308.015
308.027
308.034
308.034
308.027
308.015
307.996
307.974
307.947
307.918
307.888
307.859
307.837
302.625
302.632
302.642
302.652
302.662
302.671
302.678
302.685
302.689
302.691
302.691
302.689
302.685
302.678
302.671
302.662
302.652
302.642
302.632
302.625
341.426
341.539
341.675
341.812
341.943
342.063
342.166
342.247
342.304
342.334
342.334
342.304
342.247
342.166
342.063
341.943
341.812
341.675
341.539
341.426
335.687
335.783
335.9
336.019
336.133
336.237
336.327
336.398
336.447
336.473
336.473
336.447
336.398
336.327
336.237
336.133
336.019
335.9
335.783
335.687
330.041
330.121
330.22
330.321
330.418
330.506
330.581
330.642
330.684
330.705
330.705
330.684
330.642
330.581
330.506
330.418
330.321
330.22
330.121
330.041
324.475
324.539
324.62
324.703
324.782
324.854
324.916
324.966
325
325.018
325.018
325
324.966
324.916
324.854
324.782
324.703
324.62
324.539
324.475
318.974
319.023
319.085
319.15
319.212
319.268
319.317
319.355
319.382
319.396
319.396
319.382
319.355
319.317
319.268
319.212
319.15
319.085
319.023
318.974
313.523
313.558
313.602
313.649
313.693
313.733
313.768
313.795
313.815
313.824
313.824
313.815
313.795
313.768
313.733
313.693
313.649
313.602
313.558
313.523
308.108
308.129
308.156
308.184
308.21
308.234
308.255
308.272
308.284
308.289
308.289
308.284
308.272
308.255
308.234
308.21
308.184
308.156
308.129
308.108
302.716
302.723
302.732
302.741
302.75
302.758
302.765
302.77
302.774
302.776
302.776
302.774
302.77
302.765
302.758
302.75
302.741
302.732
302.723
302.716
342.616
342.723
342.85
342.979
343.102
343.213
343.309
343.385
343.437
343.465
343.465
343.437
343.385
343.309
343.213
343.102
342.979
342.85
342.723
342.616
336.654
336.744
336.855
336.967
337.074
337.171
337.254
337.321
337.367
337.39
337.39
337.367
337.321
337.254
337.171
337.074
336.967
336.855
336.744
336.654
330.816
330.891
330.984
331.08
331.171
331.253
331.324
331.381
331.42
331.44
331.44
331.42
331.381
331.324
331.253
331.171
331.08
330.984
330.891
330.816
325.081
325.141
325.218
325.296
325.371
325.439
325.497
325.543
325.576
325.592
325.592
325.576
325.543
325.497
325.439
325.371
325.296
325.218
325.141
325.081
319.428
319.475
319.534
319.596
319.654
319.707
319.752
319.789
319.814
319.827
319.827
319.814
319.789
319.752
319.707
319.654
319.596
319.534
319.475
319.428
313.839
313.872
313.915
313.959
314
314.038
314.071
314.097
314.115
314.124
314.124
314.115
314.097
314.071
314.038
314
313.959
313.915
313.872
313.839
308.295
308.315
308.34
308.367
308.392
308.415
308.434
308.45
308.461
308.466
308.466
308.461
308.45
308.434
308.415
308.392
308.367
308.34
308.315
308.295
302.778
302.784
302.793
302.802
302.81
302.818
302.824
302.83
302.833
302.835
302.835
302.833
302.83
302.824
302.818
302.81
302.802
302.793
302.784
302.778
)
;

boundaryField
{
    hotSide
    {
        type            fixedGradient;
        gradient        nonuniform List<scalar> 
400
(
283.622
284.64
286.678
289.744
293.847
298.998
305.212
312.503
320.886
330.376
340.989
352.738
365.636
379.695
394.923
411.331
428.926
447.712
467.695
488.879
287.805
288.79
290.763
293.734
297.716
302.723
308.775
315.889
324.086
333.385
343.805
355.362
368.072
381.949
397.004
413.248
430.687
449.328
469.177
490.235
292.332
293.277
295.173
298.032
301.87
306.708
312.57
319.479
327.462
336.542
346.742
358.083
370.584
384.261
399.125
415.19
432.462
450.949
470.654
491.581
297.128
298.027
299.833
302.561
306.234
310.878
316.523
323.2
330.942
339.778
349.736
360.841
373.114
386.575
401.237
417.112
434.209
452.535
472.093
492.886
302.059
302.906
304.611
307.193
310.682
315.11
320.517
326.941
334.421
342.995
352.694
363.55
375.585
388.822
403.275
418.957
435.877
454.041
473.452
494.112
306.919
307.711
309.307
311.734
315.027
319.229
324.386
330.546
337.757
346.061
355.499
366.103
377.901
390.916
405.164
420.658
437.407
455.416
474.688
495.222
311.43
312.166
313.655
315.928
319.027
323.005
327.918
333.822
340.772
348.82
358.009
368.376
379.952
392.761
406.82
422.143
438.736
456.605
475.751
496.174
315.259
315.945
317.337
319.471
322.397
326.176
330.872
336.551
343.274
351.098
360.071
370.235
381.622
394.257
408.158
423.337
439.801
457.555
476.598
496.929
318.061
318.709
320.026
322.054
324.849
328.477
333.01
338.518
345.071
352.729
361.543
371.558
382.806
395.314
409.1
424.175
440.547
458.218
477.187
497.454
319.546
320.173
321.45
323.42
326.143
329.689
334.134
339.551
346.013
353.581
362.311
372.246
383.421
395.862
409.587
424.608
440.931
458.558
477.49
497.722
319.546
320.173
321.45
323.42
326.143
329.689
334.134
339.551
346.013
353.581
362.311
372.246
383.421
395.862
409.587
424.608
440.931
458.558
477.49
497.722
318.061
318.709
320.026
322.054
324.849
328.477
333.01
338.518
345.071
352.729
361.543
371.558
382.806
395.314
409.1
424.175
440.547
458.218
477.187
497.454
315.259
315.945
317.337
319.471
322.397
326.176
330.872
336.551
343.274
351.098
360.071
370.235
381.622
394.257
408.158
423.337
439.801
457.555
476.598
496.929
311.43
312.166
313.655
315.928
319.027
323.005
327.918
333.822
340.772
348.82
358.009
368.376
379.952
392.761
406.82
422.143
438.736
456.605
475.751
496.174
306.919
307.711
309.307
311.734
315.027
319.229
324.386
330.546
337.757
346.061
355.499
366.103
377.901
390.916
405.164
420.658
437.407
455.416
474.688
495.222
302.059
302.906
304.611
307.193
310.682
315.11
320.517
326.941
334.421
342.995
352.694
363.55
375.585
388.822
403.275
418.957
435.877
454.041
473.452
494.112
297.128
298.027
299.833
302.561
306.234
310.878
316.523
323.2
330.942
339.778
349.736
360.841
373.114
386.575
401.237
417.112
434.209
452.535
472.093
492.886
292.332
293.277
295.173
298.032
301.87
306.708
312.57
319.479
327.462
336.542
346.742
358.083
370.584
384.261
399.125
415.19
432.462
450.949
470.654
491.581
287.805
288.79
290.763
293.734
297.716
302.723
308.775
315.889
324.086
333.385
343.805
355.362
368.072
381.949
397.004
413.248
430.687
449.328
469.177
490.235
283.622
284.64
286.678
289.744
293.847
298.998
305.212
312.503
320.886
330.376
340.989
352.738
365.636
379.695
394.923
411.331
428.926
447.712
467.695
488.879
)
;
    }
    coldSide
    {
        type            mixed;
        refValue        uniform 300;
        refGradient     uniform 0;
        valueFraction   uniform 0.991591;
        source          uniform 0;
        value           nonuniform List<scalar> 
400
(
300.014
300.014
300.014
300.015
300.015
300.015
300.015
300.016
300.016
300.017
300.017
300.018
300.018
300.019
300.02
300.02
300.021
300.022
300.023
300.023
300.014
300.014
300.015
300.015
300.015
300.015
300.015
300.016
300.016
300.017
300.017
300.018
300.018
300.019
300.02
300.02
300.021
300.022
300.023
300.023