/*--------------------------------*- C++ -*----------------------------------*\
| =========                 |                                                 |
| \\      /  F ield         | OpenFOAM: The Open Source CFD Toolbox           |
|  \\    /   O peration     | Version:  2212                                  |
|   \\  /    A nd           | Website:  www.openfoam.com                      |
|    \\/     M anipulation  |                                                 |
\*---------------------------------------------------------------------------*/
FoamFile
{
    version     2.0;
    format      ascii;
    arch        "LSB;label=32;scalar=64";
    class       volScalarField;
    location    "0";
    object      stateMean;
}
// * * * * * * * * * * * * * * * * * * * * * * * * * * * * * * * * * * * * * //

dimensions      [0 0 0 1 0 0 0];

internalField   nonuniform List<scalar> 
3200
(
318.023
318.275
318.55
318.813
319.041
319.266
319.454
319.601
319.783
319.782
319.897
319.914
320.001
319.919
319.88
319.737
319.606
319.469
319.243
319.025
315.559
315.821
316.018
316.336
316.544
316.685
316.869
317.041
317.028
317.117
317.256
317.27
317.302
317.304
317.205
317.057
317.012
316.874
316.709
316.516
313.115
313.333
313.616
313.724
314.071
314.161
314.235
314.287
314.423
314.539
314.619
314.561
314.659
314.61
314.535
314.497
314.419
314.27
314.081
313.988
310.767
310.984
311.089
311.292
311.394
311.526
311.68
311.831
311.846
311.882
312
311.973
311.953
311.904
311.962
311.879
311.82
311.672
311.502
311.421
308.374
308.497
308.641
308.734
308.853
309.023
309.122
309.156
309.17
309.255
309.236
309.338
309.274
309.282
309.223
309.233
309.167
309.057
309.044
308.944
305.943
306.181
306.13
306.234
306.35
306.404
306.444
306.593
306.56
306.593
306.592
306.654
306.604
306.665
306.63
306.594
306.592
306.515
306.423
306.404
303.57
303.717
303.659
303.711
303.803
303.835
303.889
303.912
303.936
303.906
303.973
304.027
304.02
304.002
303.969
304.026
303.975
303.931
303.861
303.867
301.252
301.23
301.255
301.271
301.253
301.31
301.277
301.277
301.334
301.382
301.346
301.33
301.363
301.358
301.35
301.329
301.343
301.3
301.336
301.246
318.616
318.878
319.131
319.47
319.756
319.947
320.124
320.255
320.438
320.525
320.597
320.661
320.62
320.667
320.573
320.493
320.275
320.155
319.909
319.72
316.06
316.337
316.585
316.827
317.024
317.223
317.433
317.566
317.688
317.723
317.837
317.912
317.839
317.886
317.764
317.687
317.571
317.448
317.24
317.092
313.59
313.739
313.968
314.172
314.382
314.59
314.738
314.751
315.005
314.976
315.042
315.067
315.074
315.08
314.96
314.925
314.891
314.766
314.564
314.409
311.081
311.278
311.417
311.554
311.772
311.933
312.061
312.133
312.247
312.235
312.302
312.318
312.313
312.328
312.314
312.258
312.036
312.068
311.915
311.771
308.664
308.646
308.835
308.994
309.191
309.307
309.299
309.398
309.486
309.466
309.557
309.58
309.585
309.569
309.542
309.499
309.463
309.35
309.218
309.207
306.153
306.17
306.353
306.391
306.488
306.547
306.688
306.726
306.732
306.734
306.791
306.876
306.876
306.885
306.793
306.785
306.776
306.695
306.599
306.499
303.697
303.726
303.856
303.94
303.904
303.921
303.9
303.995
304.056
304.154
304.109
304.072
304.122
304.094
304.079
304.069
304.082
304.059
303.997
303.965
301.226
301.253
301.279
301.288
301.336
301.34
301.3
301.385
301.364
301.419
301.42
301.378
301.399
301.354
301.342
301.318
301.407
301.45
301.38
301.296
319.389
319.662
319.927
320.332
320.645
320.848
321.093
321.236
321.329
321.484
321.46
321.572
321.591
321.545
321.462
321.444
321.228
320.996
320.755
320.556
316.719
316.946
317.281
317.504
317.79
318.006
318.231
318.347
318.449
318.541
318.525
318.647
318.694
318.678
318.571
318.442
318.319
318.337
317.934
317.824
314.107
314.311
314.589
314.744
315.02
315.211
315.34
315.514
315.597
315.646
315.62
315.783
315.721
315.796
315.65
315.593
315.474
315.35
315.129
315.006
311.438
311.747
311.885
312.111
312.339
312.362
312.556
312.645
312.733
312.746
312.841
312.816
312.855
312.811
312.816
312.75
312.629
312.512
312.396
312.258
308.933
309.069
309.224
309.396
309.527
309.634
309.657
309.799
309.869
309.948
310.002
310.001
310.03
309.928
310.009
309.946
309.787
309.76
309.671
309.509
306.407
306.4
306.599
306.743
306.823
306.861
306.991
306.948
307.074
307.007
307.026
307.151
307.169
307.17
307.112
307.078
306.985
306.886
306.885
306.918
303.873
303.934
303.985
304.017
304.135
304.113
304.16
304.27
304.228
304.292
304.269
304.243
304.194
304.315
304.278
304.273
304.173
304.167
304.139
304.046
301.288
301.319
301.343
301.334
301.381
301.376
301.396
301.448
301.471
301.436
301.463
301.384
301.453
301.448
301.413
301.423
301.476
301.359
301.335
301.417
320.187
320.524
320.897
321.216
321.484
321.764
321.972
322.276
322.383
322.485
322.548
322.619
322.686
322.51
322.48
322.344
322.245
321.95
321.678
321.45
317.473
317.664
318.075
318.395
318.606
318.815
318.968
319.209
319.342
319.408
319.622
319.478
319.568
319.581
319.394
319.278
319.153
318.973
318.73
318.574
314.713
314.944
315.22
315.446
315.712
315.781
316.082
316.188
316.331
316.398
316.453
316.439
316.516
316.492
316.386
316.293
316.159
316.011
315.842
315.717
312.031
312.179
312.384
312.623
312.771
313
313.119
313.244
313.306
313.335
313.471
313.514
313.429
313.447
313.397
313.349
313.237
313.071
312.962
312.844
309.355
309.454
309.631
309.806
309.948
310.109
310.109
310.222
310.247
310.384
310.324
310.482
310.51
310.462
310.404
310.343
310.266
310.178
310.038
309.997
306.629
306.789
306.823
306.965
307.095
307.241
307.279
307.333
307.292
307.394
307.387
307.46
307.443
307.407
307.454
307.434
307.26
307.292
307.182
307.093
303.984
304.095
304.107
304.152
304.227
304.311
304.323
304.355
304.411
304.408
304.507
304.513
304.527
304.444
304.465
304.414
304.414
304.406
304.343
304.289
301.328
301.324
301.379
301.37
301.402
301.391
301.465
301.47
301.49
301.478
301.468
301.492
301.546
301.484
301.502
301.476
301.445
301.476
301.479
301.399
321.066
321.498
321.783
322.191
322.503
322.724
323.059
323.268
323.323
323.525
323.551
323.696
323.694
323.606
323.442
323.396
323.199
322.962
322.68
322.406
318.239
318.433
318.84
319.185
319.474
319.617
319.892
320.039
320.18
320.321
320.399
320.397
320.435
320.383
320.269
320.183
320.104
319.848
319.702
319.368
315.348
315.638
315.943
316.195
316.401
316.611
316.817
316.9
317
317.13
317.241
317.184
317.247
317.242
317.188
317.017
316.952
316.808
316.581
316.384
312.585
312.702
312.96
313.153
313.367
313.564
313.62
313.797
313.931
313.964
314.052
314.058
314.072
314.004
314.03
314.015
313.875
313.69
313.539
313.412
309.741
309.928
310.111
310.2
310.39
310.476
310.643
310.686
310.801
310.8
310.953
310.949
310.951
310.934
310.933
310.817
310.676
310.605
310.544
310.368
306.932
307.113
307.125
307.282
307.438
307.516
307.617
307.67
307.737
307.772
307.718
307.804
307.749
307.792
307.739
307.731
307.584
307.573
307.533
307.395
304.161
304.233
304.334
304.357
304.489
304.525
304.573
304.605
304.606
304.575
304.641
304.653
304.706
304.647
304.724
304.593
304.597
304.58
304.579
304.529
301.35
301.435
301.436
301.433
301.518
301.571
301.56
301.539
301.523
301.556
301.606
301.531
301.539
301.619
301.565
301.562
301.502
301.572
301.533
301.537
322.013
322.358
322.737
323.08
323.484
323.832
324.024
324.228
324.433
324.557
324.609
324.689
324.727
324.648
324.557
324.389
324.165
323.944
323.627
323.347
318.995
319.302
319.669
319.942
320.294
320.502
320.682
320.972
321.114
321.226
321.3
321.33
321.353
321.28
321.242
321.021
320.934
320.736
320.406
320.188
315.994
316.267
316.535
316.808
317.138
317.352
317.501
317.653
317.759
317.88
317.988
318.004
318.009
317.983
317.932
317.82
317.581
317.52
317.268
317.057
313.11
313.266
313.645
313.761
313.981
314.139
314.295
314.426
314.549
314.64
314.701
314.725
314.67
314.708
314.566
314.571
314.46
314.278
314.157
313.943
310.126
310.304
310.5
310.691
310.808
310.961
311.047
311.245
311.26
311.296
311.424
311.359
311.366
311.392
311.34
311.33
311.175
311.103
311.058
310.809
307.195
307.319
307.456
307.58
307.735
307.832
307.905
307.972
308.102
308.114
308.164
308.03
308.193
308.124
308.151
308.035
307.976
307.856
307.787
307.741
304.413
304.381
304.45
304.542
304.6
304.655
304.753
304.818
304.822
304.852
304.866
304.868
304.889
304.867
304.837
304.807
304.756
304.775
304.737
304.67
301.481
301.472
301.517
301.464
301.525
301.534
301.55
301.604
301.593
301.66
301.595
301.548
301.603
301.64
301.631
301.665
301.604
301.56
301.606
301.596
322.801
323.215
323.641
324.08
324.415
324.677
325.037
325.296
325.459
325.581
325.73
325.69
325.725
325.727
325.505
325.394
325.204
324.876
324.672
324.329
319.737
320.112
320.492
320.802
321.081
321.352
321.617
321.813
321.949
322.132
322.226
322.283
322.171
322.151
322.05
321.925
321.85
321.555
321.277
321.013
316.678
316.906
317.243
317.541
317.818
318.037
318.237
318.479
318.543
318.636
318.703
318.79
318.753
318.657
318.674
318.54
318.414
318.211
317.996
317.766
313.589
313.824
314.031
314.255
314.539
314.706
314.878
314.925
315.119
315.159
315.315
315.298
315.211
315.304
315.211
315.118
314.977
314.863
314.641
314.462
310.608
310.623
310.843
311.128
311.28
311.426
311.594
311.677
311.76
311.828
311.805
311.805
311.893
311.911
311.786
311.769
311.679
311.564
311.395
311.25
307.543
307.628
307.73
307.92
308.103
308.156
308.245
308.34
308.413
308.456
308.451
308.454
308.505
308.473
308.405
308.403
308.345
308.245
308.078
308.059
304.532
304.553
304.687
304.789
304.837
304.962
304.956
304.965
305.086
305.095
305.044
305.122
305.081
305.068
305.077
304.871
305.008
304.91
304.863
304.791
301.551
301.526
301.546
301.576
301.578
301.704
301.729
301.698
301.636
301.717
301.685
301.722
301.687
301.7
301.68
301.639
301.722
301.715
301.653
301.621
323.743
324.097
324.505
325.004
325.37
325.75
326.017
326.256
326.461
326.587
326.671
326.789
326.733
326.652
326.611
326.43
326.145
325.869
325.533
325.261
320.472
320.87
321.139
321.57
321.938
322.254
322.535
322.644
322.845
322.901
322.988
323.183
323.03
322.992
322.901
322.848
322.65
322.315
322.1
321.793
317.235
317.556
317.916
318.232
318.479
318.76
318.895
319.12
319.227
319.37
319.473
319.522
319.516
319.457
319.387
319.259
319.103
318.877
318.611
318.344
314.074
314.327
314.696
314.91
315.091
315.322
315.473
315.655
315.756
315.779
315.846
315.882
315.928
315.939
315.808
315.748
315.63
315.436
315.207
314.97
310.98
311.093
311.287
311.526
311.634
311.863
311.961
312.088
312.204
312.293
312.363
312.386
312.317
312.28
312.244
312.217
312.132
311.959
311.772
311.725
307.821
307.912
308.093
308.251
308.282
308.46
308.513
308.614
308.778
308.752
308.789
308.839
308.863
308.792
308.771
308.705
308.629
308.564
308.464
308.342
304.666
304.72
304.861
304.912
305.02
305.155
305.168
305.133
305.212
305.272
305.264
305.301
305.273
305.313
305.253
305.261
305.171
305.061
305.083
305.113
301.534
301.602
301.636
301.669
301.708
301.715
301.678
301.683
301.775
301.781
301.745
301.784
301.759
301.737
301.703
301.784
301.751
301.737
301.783
301.652
324.497
324.942
325.419
325.966
326.233
326.606
326.907
327.244
327.467
327.608
327.68
327.643
327.722
327.688
327.532
327.38
327.096
326.871
326.427
326.161
321.17
321.524
321.992
322.328
322.779
322.995
323.311
323.451
323.647
323.777
323.898
323.942
323.95
323.945
323.809
323.647
323.44
323.128
322.83
322.63
317.845
318.194
318.54
318.865
319.109
319.43
319.574
319.816
319.96
320.112
320.223
320.203
320.217
320.18
320.038
319.96
319.725
319.621
319.268
319.09
314.64
314.845
315.184
315.377
315.604
315.875
316
316.191
316.346
316.411
316.422
316.422
316.438
316.497
316.446
316.312
316.163
316.025
315.78
315.543
311.271
311.475
311.728
311.936
312.162
312.281
312.48
312.606
312.657
312.73
312.769
312.744
312.794
312.759
312.761
312.703
312.563
312.392
312.23
312.146
308.081
308.214
308.391
308.541
308.688
308.737
308.895
308.969
308.997
309.109
309.108
309.138
309.142
309.18
309.062
309.028
308.882
308.833
308.765
308.654
304.891
304.943
305.005
305.204
305.22
305.286
305.265
305.39
305.412
305.457
305.442
305.461
305.462
305.557
305.475
305.45
305.315
305.345
305.167
305.286
301.616
301.641
301.694
301.737
301.75
301.726
301.813
301.847
301.833
301.862
301.805
301.751
301.851
301.815
301.881
301.772
301.799
301.783
301.777
301.66
325.289
325.747
326.222
326.725
327.152
327.538
327.81
328.085
328.354
328.53
328.663
328.659
328.657
328.63
328.461
328.267
328.013
327.668
327.354
326.972
321.85
322.238
322.69
323.101
323.432
323.821
324.066
324.322
324.494
324.616
324.684
324.791
324.76
324.701
324.573
324.453
324.249
323.929
323.642
323.321
318.398
318.714
319.116
319.415
319.823
320.086
320.265
320.552
320.651
320.786
320.844
320.855
320.935
320.886
320.769
320.624
320.452
320.221
320
319.74
315.067
315.252
315.669
315.928
316.137
316.339
316.583
316.72
316.865
316.936
317.031
317.074
317.076
317.027
317.055
316.852
316.653
316.514
316.298
316.131
311.596
311.907
312.16
312.363
312.568
312.79
312.864
313.054
313.109
313.227
313.206
313.243
313.292
313.242
313.164
313.141
312.983
312.807
312.709
312.488
308.457
308.338
308.651
308.822
308.914
309.009
309.162
309.261
309.351
309.36
309.421
309.475
309.486
309.413
309.349
309.363
309.292
309.187
309.022
308.944
304.995
305.1
305.154
305.261
305.372
305.399
305.545
305.573
305.636
305.606
305.584
305.705
305.716
305.654
305.614
305.602
305.591
305.459
305.417
305.332
301.6
301.727
301.729
301.755
301.785
301.8
301.862
301.853
301.969
301.9
301.889
301.97
301.922
301.95
301.894
301.835
301.892
301.826
301.813
301.789
326.061
326.539
327.024
327.579
327.993
328.37
328.777
329.057
329.271
329.452
329.504
329.555
329.53
329.533
329.371
329.178
328.903
328.544
328.151
327.765
322.592
322.906
323.334
323.719
324.164
324.544
324.822
325.075
325.336
325.422
325.443
325.515
325.575
325.511
325.36
325.158
324.926
324.696
324.288
324.057
318.939
319.388
319.642
320.098
320.471
320.697
320.94
321.225
321.308
321.449
321.504
321.571
321.578
321.484
321.417
321.239
321.068
320.861
320.612
320.266
315.536
315.755
316.099
316.357
316.622
316.897
317.058
317.267
317.378
317.507
317.597
317.607
317.568
317.601
317.516
317.372
317.187
317.007
316.806
316.591
312.092
312.28
312.477
312.731
312.94
313.095
313.266
313.396
313.489
313.612
313.672
313.697
313.665
313.617
313.626
313.495
313.319
313.252
313.066
312.865
308.649
308.657
308.942
309.135
309.162
309.364
309.484
309.613
309.7
309.655
309.689
309.754
309.764
309.716
309.671
309.553
309.499
309.393
309.373
309.193
305.118
305.249
305.361
305.426
305.496
305.639
305.696
305.713
305.775
305.816
305.821
305.904
305.889
305.836
305.884
305.769
305.807
305.65
305.624
305.446
301.721
301.858
301.79
301.831
301.804
301.85
301.92
301.909
301.953
301.966
301.976
301.985
301.959
301.994
301.973
301.908
301.893
301.938
301.889
301.843
326.782
327.266
327.776
328.313
328.766
329.161
329.548
329.87
330.095
330.35
330.402
330.463
330.398
330.349
330.251
329.983
329.684
329.37
328.931
328.606
323.145
323.55
323.978
324.495
324.846
325.256
325.55
325.807
326.009
326.201
326.223
326.312
326.299
326.225
326.206
325.896
325.664
325.407
325.025
324.684
319.543
319.84
320.234
320.65
320.894
321.302
321.57
321.782
321.917
322.079
322.147
322.224
322.227
322.201
322.046
321.922
321.778
321.46
321.156
320.882
315.912
316.127
316.548
316.846
317.127
317.37
317.631
317.843
317.952
317.969
318.058
318.136
318.115
318.032
318.003
317.835
317.742
317.514
317.277
317.015
312.412
312.565
312.877
313.057
313.335
313.487
313.643
313.843
313.917
313.999
314.038
314.031
314.065
314.068
313.992
313.912
313.759
313.643
313.411
313.24
308.796
308.945
309.093
309.317
309.521
309.591
309.771
309.902
309.911
309.92
310.019
310.099
310.092
310.031
310.027
309.894
309.843
309.755
309.552
309.481
305.288
305.372
305.48
305.595
305.688
305.762
305.828
305.924
306.004
306.046
305.99
305.972
306.067
306.09
305.925
305.933
305.97
305.854
305.757
305.662
301.751
301.816
301.871
301.886
301.898
301.932
301.923
301.996
302.015
301.985
302.051
302.012
301.993
302.009
302.025
302.017
301.966
301.97
301.895
301.907
327.42
327.959
328.465
329.059
329.526
329.993
330.374
330.667
330.909
331.065
331.287
331.257
331.241
331.189
331.059
330.736
330.436
330.124
329.789
329.283
323.692
324.247
324.544
325.056
325.522
325.867
326.214
326.444
326.695
326.833
326.944
326.964
327.019
326.864
326.809
326.565
326.341
326.025
325.598
325.337
319.994
320.353
320.711
321.232
321.537
321.862
322.046
322.345
322.488
322.663
322.751
322.796
322.796
322.689
322.585
322.465
322.31
321.993
321.694
321.461
316.321
316.608
316.986
317.272
317.599
317.855
318.099
318.252
318.421
318.534
318.534
318.667
318.676
318.502
318.472
318.364
318.209
318.026
317.742
317.542
312.705
312.844
313.125
313.405
313.637
313.948
313.976
314.16
314.283
314.427
314.467
314.465
314.497
314.41
314.379
314.267
314.117
313.959
313.779
313.593
309.084
309.186
309.366
309.515
309.727
309.873
310.061
310.153
310.168
310.204
310.336
310.275
310.349
310.297
310.266
310.194
310.068
309.983
309.814
309.733
305.343
305.514
305.648
305.693
305.816
305.961
306.01
306.06
306.084
306.149
306.213
306.186
306.206
306.175
306.17
306.108
306.108
305.964
305.898
305.839
301.855
301.794
301.907
301.892
301.97
301.963
301.997
302.084
301.978
302.044
302.096
302.005
302.072
302.072
302.043
302.009
301.991
301.955
301.979
301.924
328.025
328.605
329.222
329.78
330.303
330.749
331.157
331.38
331.635
331.809
331.996
332.048
332.099
331.994
331.773
331.55
331.278
330.909
330.488
330.02
324.261
324.66
325.231
325.713
326.082
326.545
326.886
327.123
327.341
327.494
327.661
327.689
327.684
327.627
327.538
327.286
327.048
326.673
326.298
325.954
320.4
320.808
321.266
321.637
322.077
322.38
322.687
322.963
323.074
323.229
323.331
323.377
323.445
323.346
323.165
323
322.802
322.458
322.209
321.899
316.736
316.973
317.358
317.685
318.086
318.308
318.519
318.687
318.86
318.963
318.999
319.176
319.021
319.068
318.947
318.804
318.578
318.413
318.141
317.921
312.965
313.218
313.386
313.733
313.934
314.156
314.302
314.541
314.587
314.677
314.76
314.856
314.782
314.792
314.688
314.589
314.455
314.285
314.147
313.983
309.26
309.468
309.61
309.757
309.943
310.155
310.256
310.309
310.487
310.45
310.499
310.528
310.549
310.574
310.421
310.529
310.276
310.264
310.084
309.991
305.609
305.648
305.733
305.822
305.98
306.056
306.244
306.233
306.26
306.308
306.344
306.371
306.366
306.358
306.272
306.256
306.209
306.182
306.028
305.947
301.885
301.865
301.939
301.962
301.935
302.016
302.096
302.112
302.054
302.151
302.104
302.182
302.106
302.126
302.162
302.053
302.063
302.059
302.021
301.956
328.647
329.175
329.776
330.37
330.874
331.324
331.752
332.058
332.381
332.552
332.744
332.767
332.769
332.608
332.552
332.27
331.869
331.504
330.994
330.711
324.782
325.242
325.806
326.238
326.69
327.136
327.423
327.812
327.958
328.149
328.264
328.258
328.318
328.24
328.055
327.838
327.635
327.227
326.834
326.518
320.897
321.2
321.735
322.163
322.528
322.85
323.177
323.339
323.599
323.726
323.902
323.888
323.99
323.79
323.71
323.553
323.296
322.939
322.759
322.361
317.005
317.349
317.757
318.078
318.346
318.696
318.812
319.115
319.258
319.412
319.475
319.523
319.584
319.469
319.412
319.185
319.015
318.799
318.606
318.389
313.218
313.451
313.756
313.96
314.277
314.48
314.725
314.822
315.015
315.063
315.191
315.187
315.155
315.13
315.094
314.949
314.802
314.601
314.364
314.195
309.472
309.579
309.755
310.064
310.165
310.295
310.548
310.636
310.65
310.763
310.786
310.853
310.766
310.782
310.682
310.673
310.541
310.44
310.346
310.224
305.747
305.781
305.888
305.973
306.161
306.183
306.29
306.39
306.388
306.482
306.432
306.567
306.513
306.48
306.503
306.372
306.33
306.228
306.158
306.089
301.884
301.971
301.952
301.983
302.015
302.145
302.091
302.122
302.142
302.171
302.157
302.133
302.259
302.153
302.15
302.172
302.177
302.052
302.049
302.037
329.135
329.696
330.342
330.992
331.444
331.965
332.402
332.741
332.983
333.226
333.405
333.429
333.438
333.321
333.148
332.969
332.538
332.125
331.665
331.204
325.206
325.658
326.14
326.783
327.233
327.644
328.004
328.316
328.486
328.693
328.877
328.87
328.851
328.82
328.616
328.399
328.15
327.746
327.423
327.032
321.287
321.677
322.153
322.551
322.995
323.296
323.7
323.883
324.093
324.235
324.332
324.445
324.418
324.346
324.184
324.017
323.79
323.508
323.147
322.825
317.362
317.677
318.097
318.431
318.744
319.064
319.335
319.499
319.679
319.753
319.87
319.874
319.87
319.81
319.723
319.65
319.437
319.127
318.984
318.64
313.486
313.737
314.006
314.346
314.595
314.803
314.938
315.188
315.263
315.366
315.38
315.513
315.485
315.408
315.392
315.268
315.1
314.969
314.705
314.498
309.714
309.796
310.011
310.185
310.399
310.565
310.723
310.735
310.862
310.964
311.006
310.97
311.047
310.993
310.972
310.864
310.772
310.633
310.5
310.387
305.73
305.831
305.993
306.127
306.223
306.337
306.338
306.466
306.537
306.575
306.635
306.635
306.629
306.581
306.532
306.522
306.506
306.368
306.302
306.276
301.896
301.929
302.006
302.098
302.094
302.055
302.095
302.18
302.177
302.203
302.274
302.183
302.211
302.276
302.236
302.187
302.123
302.119
302.094
302.106
329.679
330.191
330.9
331.459
332.02
332.503
332.925
333.301
333.616
333.793
333.909
333.969
333.968
333.879
333.692
333.468
333.11
332.666
332.204
331.728
325.544
326.122
326.66
327.253
327.704
328.046
328.425
328.761
329.043
329.174
329.275
329.48
329.364
329.317
329.149
328.92
328.594
328.235
327.87
327.415
321.544
322.002
322.475
322.916
323.437
323.634
323.957
324.249
324.492
324.63
324.767
324.929
324.768
324.706
324.641
324.375
324.173
323.786
323.535
323.26
317.595
317.932
318.328
318.766
319.086
319.402
319.598
319.832
319.997
320.148
320.264
320.303
320.279
320.179
320.109
319.948
319.698
319.521
319.176
318.967
313.68
313.923
314.252
314.591
314.795
315.067
315.207
315.436
315.57
315.586
315.692
315.776
315.731
315.718
315.626
315.502
315.293
315.098
314.888
314.756
309.78
309.957
310.242
310.369
310.571
310.727
310.818
311.043
311.068
311.24
311.208
311.166
311.179
311.232
311.147
311.066
310.965
310.771
310.723
310.538
305.849
305.989
306.071
306.287
306.395
306.451
306.465
306.616
306.655
306.708
306.599
306.807
306.652
306.724
306.708
306.617
306.527
306.466
306.395
306.355
301.956
302.079
302.029
302.112
302.127
302.15
302.181
302.253
302.154
302.264
302.274
302.276
302.261
302.21
302.256
302.193
302.185
302.208
302.066
302.077
330.024
330.61
331.33
331.939
332.586
332.97
333.402
333.681
334.152
334.304
334.422
334.478
334.472
334.307
334.223
333.972
333.593
333.186
332.569
332.193
325.912
326.466
327.039
327.635
328.097
328.571
328.824
329.28
329.437
329.727
329.818
329.897
329.865
329.722
329.579
329.288
329.063
328.694
328.221
327.839
321.93
322.278
322.849
323.256
323.58
324.028
324.36
324.636
324.858
325.043
325.086
325.238
325.173
325.108
324.913
324.756
324.464
324.233
323.824
323.508
317.919
318.263
318.615
318.97
319.349
319.625
319.865
320.147
320.349
320.512
320.54
320.501
320.457
320.442
320.39
320.295
320
319.786
319.471
319.19
313.816
314.183
314.437
314.767
315.069
315.271
315.46
315.653
315.71
315.877
315.937
315.938
315.913
315.881
315.797
315.703
315.565
315.281
315.087
314.96
309.851
310.084
310.319
310.567
310.714
310.861
310.984
311.094
311.26
311.38
311.387
311.347
311.412
311.304
311.279
311.201
311.069
310.981
310.775
310.652
305.926
306.072
306.127
306.388
306.453
306.597
306.641
306.725
306.809
306.818
306.767
306.806
306.765
306.836
306.783
306.673
306.649
306.524
306.466
306.482
301.954
302.043
302.072
302.092
302.145
302.196
302.271
302.25
302.312
302.287
302.251
302.317
302.231
302.293
302.329
302.207
302.204
302.244
302.036
302.177
330.34
330.978
331.625
332.218
332.865
333.405
333.784
334.221
334.434
334.654
334.882
334.929
334.924
334.791
334.637
334.331
333.932
333.483
332.976
332.563
326.194
326.706
327.38
327.887
328.373
328.839
329.209
329.496
329.851
330.065
330.117
330.238
330.108
330.163
329.968
329.61
329.398
328.971
328.54
328.096
322.159
322.6
323.117
323.537
323.957
324.372
324.638
324.965
325.193
325.31
325.456
325.483
325.492
325.382
325.301
325.047
324.809
324.465
324.125
323.774
318.053
318.413
318.825
319.245
319.549
319.877
320.115
320.43
320.602
320.62
320.703
320.766
320.792
320.768
320.559
320.426
320.269
320.034
319.672
319.426
314.02
314.271
314.598
314.933
315.198
315.468
315.62
315.772
316.005
316.007
316.108
316.123
316.093
316.168
315.985
315.906
315.73
315.52
315.323
315.057
310.014
310.197
310.447
310.598
310.835
310.969
311.197
311.242
311.423
311.496
311.493
311.559
311.508
311.486
311.465
311.365
311.118
311.107
310.918
310.717
305.969
306.131
306.267
306.384
306.554
306.569
306.681
306.785
306.89
306.873
306.842
306.914
306.883
306.89
306.796
306.786
306.704
306.666
306.551
306.474
301.995
302.029
302.076
302.072
302.206
302.182
302.23
302.331
302.269
302.323
302.318
302.375
302.265
302.312
302.292
302.251
302.271
302.247
302.198
302.173
330.53
331.181
331.84
332.416
333.104
333.616
334.133
334.441
334.866
334.98
335.163
335.177
335.162
335.083
334.87
334.537
334.24
333.811
333.253
332.784
326.374
326.934
327.511
328.105
328.567
329.038
329.432
329.755
330.015
330.22
330.309
330.386
330.385
330.28
330.119
329.923
329.584
329.262
328.742
328.354
322.246
322.758
323.251
323.652
324.135
324.55
324.889
325.099
325.321
325.434
325.705
325.685
325.623
325.606
325.474
325.199
324.99
324.62
324.316
323.947
318.175
318.517
318.887
319.319
319.703
320.004
320.378
320.546
320.697
320.786
320.907
320.948
320.921
320.845
320.82
320.538
320.384
320.177
319.823
319.608
314.117
314.3
314.767
314.989
315.283
315.474
315.785
315.942
316.09
316.142
316.245
316.246
316.324
316.224
316.162
316.067
315.864
315.601
315.41
315.189
310.115
310.279
310.479
310.693
310.924
311.036
311.235
311.385
311.431
311.536
311.494
311.56
311.562
311.609
311.532
311.355
311.243
311.13
310.969
310.926
306.072
306.173
306.219
306.41
306.508
306.662
306.69
306.831
306.828
306.91
306.946
306.988
306.974
307.004
306.819
306.863
306.779
306.755
306.572
306.525
302.039
302.128
302.167
302.181
302.192
302.198
302.296
302.175
302.319
302.334
302.333
302.287
302.394
302.316
302.262
302.243
302.282
302.296
302.186
302.21
)
;

boundaryField
{
    hotSide
    {
        type            fixedGradient;
        gradient        nonuniform List<scalar> 
400
(
321.511
322.87
325.591
329.677
335.133
341.965
350.181
359.788
370.794
383.208
397.037
412.289
428.971
447.088
466.647
487.651
510.105
534.011
559.372
586.191
323.738
325.08
327.767
331.802
337.194
343.949
352.078
361.591
372.498
384.81
398.537
413.687
430.268
448.289
467.755
488.672
511.043
534.872
560.161
586.913
326.149
327.47
330.116
334.091
339.406
346.071
354.099
363.503
374.296
386.491
400.101
415.136
431.606
449.52
468.885
489.706
511.988
535.735
560.948
587.63
328.704
330
332.597
336.503
341.73
348.292
356.205
365.485
376.15
388.215
401.695
416.604
432.954
450.753
470.009
490.73
512.919
536.579
561.714
588.325
331.33
332.599
335.142
338.97
344.099
350.546
358.332
367.477
378.003
389.928
403.271
418.047
434.27
451.949
471.095
491.712
513.807
537.382
562.439
588.978
333.918
335.158
337.643
341.389
346.414
352.74
360.392
369.397
379.779
391.562
404.765
419.407
435.503
453.065
472.101
492.618
514.622
538.114
563.096
589.569
336.321
337.531
339.959
343.622
348.544
354.751
362.274
371.142
381.385
393.031
406.101
420.618
436.595
454.047
472.983
493.409
515.33
538.747
563.663
590.076
338.36
339.543
341.92
345.509
350.339
356.44
363.847
372.595
382.718
394.244
407.2
421.608
437.485
454.844
473.695
494.045
515.897
539.253
564.114
590.478
339.852
341.015
343.352
346.885
351.645
357.665
364.985
373.643
383.675
395.113
407.984
422.312
438.116
455.407
474.197
494.491
516.294
539.606
564.428
590.758
340.643
341.795
344.11
347.613
352.334
358.311
365.584
374.193
384.176
395.567
408.393
422.679
438.443
455.699
474.456
494.722
516.498
539.788
564.589
590.901
340.643
341.795
344.11
347.613
352.334
358.311
365.584
374.193
384.176
395.567
408.393
422.679
438.443
455.699
474.456
494.722
516.498
539.788
564.589
590.901
339.852
341.015
343.352
346.885
351.645
357.665
364.985
373.643
383.675
395.113
407.984
422.312
438.116
455.407
474.197
494.491
516.294
539.606
564.428
590.758
338.36
339.543
341.92
345.509
350.339
356.44
363.847
372.595
382.718
394.244
407.2
421.608
437.485
454.844
473.695
494.045
515.897
539.253
564.114
590.478
336.321
337.531
339.959
343.622
348.544
354.751
362.274
371.142
381.385
393.031
406.101
420.618
436.595
454.047
472.983
493.409
515.33
538.747
563.663
590.076
333.918
335.158
337.643
341.389
346.414
352.74
360.392
369.397
379.779
391.562
404.765
419.407
435.503
453.065
472.101
492.618
514.622
538.114
563.096
589.569
331.33
332.599
335.142
338.97
344.099
350.546
358.332
367.477
378.003
389.928
403.271
418.047
434.27
451.949
471.095
491.712
513.807
537.382
562.439
588.978
328.704
330
332.597
336.503
341.73
348.292
356.205
365.485
376.15
388.215
401.695
416.604
432.954
450.753
470.009
490.73
512.919
536.579
561.714
588.325
326.149
327.47
330.116
334.091
339.406
346.071
354.099
363.503
374.296
386.491
400.101
415.136
431.606
449.52
468.885
489.706
511.988
535.735
560.948
587.63
323.738
325.08
327.767
331.802
337.194
343.949
352.078
361.591
372.498
384.81
398.537
413.687
430.268
448.289
467.755
488.672
511.043
534.872
560.161
586.913
321.511
322.87
325.591
329.677
335.133
341.965
350.181
359.788
370.794
383.208
397.037
412.289
428.971
447.088
466.647
487.651
510.105
534.011
559.372
586.191
)
;
    }
    coldSide
    {
        type            mixed;
        refValue        uniform 300;
        refGradient     uniform 0;
        valueFraction   uniform 0.991591;
        source          uniform 0;
        value           nonuniform List<scalar> 
400
(
300.011
300.01
300.011
300.011
300.011
300.012
300.013
300.013
300.014
300.013
300.014
300.015
300.016
300.016
300.016
300.016
300.016
300.016
300.017
300.017
300.01
300.011
300.011
300.011
300.012
300.012
300.013
300.013
300.014
300.015
300.016
300.015
300.015
300.016
300.017
300.016
300.017
300.017
300.017
300.018
300.011
300.011