/*--------------------------------*- C++ -*----------------------------------*\
| =========                 |                                                 |
| \\      /  F ield         | OpenFOAM: The Open Source CFD Toolbox           |
|  \\    /   O peration     | Version:  2212                                  |
|   \\  /    A nd           | Website:  www.openfoam.com                      |
|    \\/     M anipulation  |                                                 |
\*---------------------------------------------------------------------------*/
FoamFile
{
    version     2.0;
    format      ascii;
    arch        "LSB;label=32;scalar=64";
    class       volScalarField;
    location    "./ITHACAoutput/true/1";
    object      error;
}
// * * * * * * * * * * * * * * * * * * * * * * * * * * * * * * * * * * * * * //

dimensions      [0 0 0 1 0 0 0];

internalField   nonuniform List<scalar> 
3200
(
1.19928
1.45288
1.98153
2.72694
3.58218
4.62091
5.6204
6.56181
7.25899
7.64906
7.7674
7.45432
6.83009
6.11926
5.32969
4.45479
3.65834
3.02787
2.57044
2.38958
0.931371
1.12677
1.61945
2.26081
3.00687
3.8556
4.75399
5.58633
6.19631
6.45389
6.5641
6.38363
5.93343
5.27248
4.5048
3.78805
3.09809
2.60477
2.14273
1.97122
0.779676
0.919715
1.34347
1.86515
2.46266
3.22266
3.91309
4.6769
5.06288
5.38298
5.52589
5.31609
4.93719
4.33512
3.76717
3.1048
2.56406
2.08006
1.76434
1.62561
0.601592
0.727865
1.06045
1.45481
2.03417
2.5456
3.17392
3.69246
4.23579
4.37074
4.46721
4.25853
3.96814
3.55835
2.96741
2.501
2.05102
1.67725
1.38427
1.25698
0.370769
0.5588
0.768196
1.06759
1.54308
1.96599
2.37283
2.96168
3.15203
3.41582
3.36868
3.28052
3.07098
2.68516
2.28565
1.91339
1.60054
1.32455
1.12885
1.04273
0.265466
0.366659
0.562829
0.758472
1.0432
1.38636
1.72002
2.03804
2.28651
2.4642
2.47978
2.36393
2.12542
1.99291
1.61215
1.28443
1.13026
0.879948
0.787106
0.628582
0.140067
0.192951
0.384473
0.490585
0.614203
0.804869
1.0877
1.26606
1.34691
1.43774
1.51168
1.44605
1.29723
1.192
1.00853
0.845442
0.658256
0.570283
0.43937
0.383914
0.034197
0.0535609
0.174897
0.186186
0.147969
0.286152
0.418251
0.422035
0.436897
0.470801
0.486206
0.509926
0.423375
0.355748
0.323821
0.264595
0.177834
0.182702
0.202897
0.154153
0.472654
0.75056
1.23558
1.9476
2.76049
3.77597
4.71692
5.62383
6.35115
6.79691
6.86836
6.63973
6.13744
5.37415
4.5188
3.72595
2.89276
2.36485
1.93897
1.77685
0.358695
0.595828
1.08447
1.60506
2.40765
3.25561
4.12213
4.86313
5.46499
5.78207
5.88528
5.6689
5.20074
4.61458
3.83847
3.07028
2.60657
1.98154
1.63246
1.41463
0.270385
0.475199
0.857963
1.29371
2.01049
2.67441
3.4482
4.07741
4.61534
4.8508
4.90748
4.74039
4.33491
3.85744
3.25585
2.62557
2.05999
1.63704
1.36189
1.2248
0.212645
0.384294
0.659328
1.10691
1.58175
2.2357
2.72883
3.28582
3.68738
3.9242
4.03143
3.89421
3.53905
3.12474
2.64198
2.12054
1.68253
1.29787
1.06907
0.96355
0.235044
0.25715
0.489871
0.853415
1.21995
1.67224
2.16429
2.56702
2.80597
3.09347
3.10738
2.97564
2.74416
2.40471
2.01689
1.68333
1.25832
1.02621
0.839409
0.778478
0.116635
0.174919
0.320486
0.589501
0.845222
1.17817
1.50937
1.82075
2.05729
2.14148
2.24686
2.06525
1.96624
1.69737
1.42068
1.12115
0.874573
0.689896
0.621213
0.465772
0.0660088
0.087429
0.225719
0.300282
0.520322
0.719837
0.910421
1.05413
1.21673
1.32803
1.29998
1.2634
1.15259
0.985076
0.87094
0.7287
0.534674
0.476716
0.321257
0.285222
0.0360639
0.0663199
0.0735018
0.0442074
0.12604
0.246148
0.295377
0.348965
0.47526
0.434596
0.464794
0.482106
0.410164
0.372568
0.334539
0.202224
0.19839
0.130842
0.102186
0.096922
-0.29275
-0.131601
0.382682
1.02967
1.86942
2.81816
3.74481
4.51355
5.17654
5.66373
5.67941
5.49179
4.96959
4.29088
3.53301
2.76084
2.09962
1.50034
1.11842
0.992363
-0.330876
-0.117428
0.280486
0.87161
1.53164
2.36055
3.19212
3.8499
4.42071
4.8578
4.95409
4.64631
4.29271
3.67857
3.02663
2.32176
1.73989
1.19121
0.939812
0.897661
-0.30064
-0.0590544
0.246242
0.684052
1.3498
1.95494
2.66282
3.2699
3.74652
4.08416
4.13675
3.91997
3.56712
3.13402
2.47944
1.93344
1.41146
1.14559
0.750861
0.636438
-0.241763
-0.117627
0.166155
0.608823
1.11315
1.57206
2.11865
2.60764
3.02555
3.30287
3.38827
3.17707
2.95322
2.60396
2.03269
1.53184
1.13117
0.853834
0.576805
0.568208
-0.22831
-0.116848
0.136685
0.40845
0.768191
1.21805
1.63656
2.02896
2.31757
2.54449
2.54909
2.45319
2.23439
1.97077
1.61014
1.19547
0.931229
0.657452
0.451877
0.415274
-0.126212
-0.0120416
0.0859204
0.30168
0.575423
0.872806
1.15032
1.43498
1.64622
1.82703
1.79895
1.77957
1.54757
1.36838
1.14543
0.874242
0.580063
0.464136
0.337201
0.24457
-0.0128826
-0.0527639
0.0883759
0.187064
0.367219
0.513769
0.664617
0.830642
0.972631
1.05511
1.13599
1.09897
0.95322
0.835802
0.618594
0.515689
0.413969
0.305081
0.214135
0.164745
-0.00640221
-0.00763746
0.0580563
0.134602
0.0552119
0.133584
0.207101
0.223592
0.321495
0.332913
0.391621
0.389827
0.264559
0.280386
0.255466
0.181118
0.127109
0.138418
0.0648794
0.0823008
-1.12233
-0.988476
-0.500196
0.106105
0.822835
1.75187
2.52458
3.3672
4.0318
4.41984
4.42932
4.19727
3.84955
3.18331
2.51303
1.7773
1.1768
0.70282
0.381652
0.319675
-0.994009
-0.83011
-0.41126
0.062786
0.760803
1.45272
2.27467
2.93304
3.42231
3.77719
3.8703
3.67085
3.31741
2.70428
2.10917
1.46406
0.988595
0.547761
0.332313
0.0951409
-0.84185
-0.707177
-0.387635
0.0226408
0.575925
1.23507
1.81762
2.41053
2.90136
3.14948
3.21061
3.08477
2.77058
2.28848
1.73104
1.23898
0.746969
0.509277
0.253761
0.220379
-0.645082
-0.599577
-0.331403
0.0498553
0.442899
0.910341
1.50644
1.92581
2.33104
2.58524
2.5986
2.49996
2.22503
1.82312
1.38653
0.962529
0.637317
0.351168
0.128238
0.0961347
-0.535911
-0.432216
-0.323189
0.00743503
0.287724
0.752957
1.21889
1.4253
1.79905
1.99887
2.06554
1.98065
1.7702
1.45988
1.13857
0.800756
0.486614
0.322043
0.130886
0.125867
-0.401372
-0.326721
-0.168903
0.0168075
0.263624
0.543027
0.795079
1.09173
1.25909
1.37208
1.39176
1.33108
1.19755
0.984907
0.835685
0.573857
0.343381
0.168447
0.101443
0.057006
-0.175418
-0.183665
-0.105137
-0.0117981
0.120995
0.354482
0.467241
0.590734
0.735232
0.903412
0.930686
0.819627
0.702762
0.51761
0.515922
0.358912
0.187313
0.121446
0.104658
0.017468
-0.0809407
0.0186281
0.0075776
-0.0314576
0.099275
0.11163
0.176479
0.324386
0.235066
0.337533
0.31382
0.270458
0.28576
0.232681
0.145997
0.122345
0.105824
0.0893795
0.0731851
-0.0122818
-1.81677
-1.56876
-1.33786
-0.820611
-0.193917
0.641469
1.45628
2.17539
2.81127
3.17442
3.3416
3.03089
2.71635
2.10314
1.44087
0.854722
0.349344
-0.0364438
-0.314615
-0.377533
-1.50017
-1.45019
-1.19236
-0.721447
-0.0634006
0.549656
1.22148
1.86653
2.34578
2.65229
2.76999
2.61395
2.21701
1.78808
1.31448
0.663658
0.241085
-0.00642454
-0.212606
-0.309002
-1.3136
-1.1692
-0.988764
-0.604379
-0.0256463
0.412979
1.06089
1.53602
1.94808
2.31793
2.37829
2.20878
1.84483
1.5252
1.06512
0.548794
0.166803
-0.172936
-0.284299
-0.355957
-1.06116
-0.978952
-0.809939
-0.603854
-0.145746
0.370108
0.869255
1.26544
1.67717
1.87441
1.83922
1.72931
1.52837
1.2325
0.815336
0.48003
0.0986745
-0.0214309
-0.250782
-0.271292
-0.814902
-0.748481
-0.632655
-0.523467
-0.0307388
0.256815
0.659119
0.973988
1.31205
1.42146
1.39835
1.3602
1.1306
0.910775
0.710673
0.381496
0.0960775
-0.133295
-0.197818
-0.198181
-0.603742
-0.5314
-0.387549
-0.367824
-0.051416
0.207115
0.478465
0.697389
0.883011
1.09128
1.07057
0.938501
0.892657
0.647325
0.435259
0.268136
0.0979271
-0.0895538
-0.15196
-0.175637
-0.395953
-0.326623
-0.314103
-0.0978851
-0.0847867
0.104937
0.291884
0.365915
0.545717
0.576697
0.621238
0.589708
0.506182
0.381086
0.295066
0.136736
0.0191337
-0.0293029
-0.102669
-0.162278
-0.111346
-0.16184
-0.0679457
-0.122454
0.0446815
0.013065
0.0361726
0.146118
0.147129
0.245504
0.224312
0.2067
0.186877
0.127099
0.057697
0.0676716
0.0297098
0.0435508
-0.0588855
-0.00215789
-2.33577
-2.2547
-1.96132
-1.54094
-0.938708
-0.24907
0.475354
1.16489
1.66629
2.01201
2.16263
1.90002
1.56493
1.16693
0.589974
0.0475362
-0.40107
-0.669211
-0.901425
-0.781685
-2.0215
-1.87141
-1.74638
-1.38491
-0.858942
-0.264544
0.336667
0.985008
1.40946
1.72215
1.78604
1.64607
1.34363
0.947736
0.396631
0.0428986
-0.384307
-0.617973
-0.806439
-0.752047
-1.70064
-1.59659
-1.49655
-1.11106
-0.682672
-0.204248
0.333053
0.796755
1.12709
1.44531
1.58202
1.34614
1.09641
0.70681
0.353885
-0.0388809
-0.281326
-0.614799
-0.753886
-0.686214
-1.42011
-1.35979
-1.20981
-0.962915
-0.594305
-0.147326
0.268346
0.625471
0.947412
1.05813
1.24795
1.16627
0.912369
0.592643
0.268073
-0.0160342
-0.297146
-0.456608
-0.631344
-0.557673
-1.08603
-1.0268
-0.989209
-0.758553
-0.406884
-0.203129
0.223622
0.489266
0.762825
0.834049
0.971481
0.894439
0.677085
0.414245
0.197299
-0.0384502
-0.263877
-0.347492
-0.456457
-0.521509
-0.81059
-0.769982
-0.683108
-0.486609
-0.360985
-0.08332
0.144408
0.358928
0.457904
0.700009
0.637622
0.587255
0.512317
0.365031
0.18347
0.00402959
-0.205383
-0.251947
-0.302938
-0.368126
-0.420213
-0.46646
-0.460334
-0.327003
-0.225229
0.00332837
0.0357136
0.206719
0.326163
0.36401
0.448044
0.329205
0.275771
0.161724
0.0447515
0.0137077
-0.0706093
-0.171671
-0.174627
-0.269113
-0.179157
-0.171371
-0.121665
-0.081784
0.00504149
-0.0728255
0.063101
0.070916
0.0925993
0.0908316
0.199869
0.165214
0.10839
0.065226
-0.000990026
0.0245198
-0.0451685
-0.0392813
-0.081325
-0.10022
-2.66849
-2.64455
-2.48109
-2.17169
-1.56995
-1.01753
-0.368045
0.245646
0.683285
0.96777
1.06505
0.956035
0.596309
0.191491
-0.219099
-0.63672
-0.945589
-1.20759
-1.3067
-1.23445
-2.33043
-2.32574
-2.19945
-1.85476
-1.44197
-0.902612
-0.416195
0.059958
0.529828
0.790949
0.927372
0.743697
0.458434
0.226324
-0.23316
-0.561959
-0.929687
-1.07426
-1.05788
-1.05816
-1.94521
-1.96183
-1.79328
-1.55221
-1.24522
-0.83696
-0.310538
0.0907116
0.442283
0.634773
0.729568
0.626961
0.408746
0.149149
-0.199063
-0.525267
-0.729349
-0.871305
-1.03311
-0.936992
-1.53875
-1.63887
-1.52066
-1.28639
-0.981032
-0.671591
-0.252369
0.0782675
0.310712
0.508657
0.564002
0.517116
0.388837
0.0613594
-0.139551
-0.428293
-0.655175
-0.856462
-0.79933
-0.751091
-1.2669
-1.30705
-1.16214
-1.03239
-0.791346
-0.499665
-0.230801
0.056073
0.23846
0.41316
0.39096
0.354621
0.25597
0.0900344
-0.155929
-0.372545
-0.549673
-0.635506
-0.632623
-0.651034
-0.923313
-0.917364
-0.832852
-0.691594
-0.544042
-0.388323
-0.181095
0.014839
0.173147
0.317832
0.182337
0.258183
0.173835
0.109081
-0.149866
-0.225567
-0.355837
-0.407639
-0.450346
-0.483701
-0.524338
-0.545089
-0.523466
-0.42887
-0.379101
-0.159584
-0.1057
-0.0200379
0.127672
0.178793
0.171922
0.20522
0.138549
0.0251524
-0.0687001
-0.13083
-0.173238
-0.282616
-0.31517
-0.27513
-0.182477
-0.164678
-0.153442
-0.183451
-0.121875
-0.0509052
-0.0722893
-0.0664551
0.03511
0.0914083
0.0748282
0.113973
0.0208474
-0.0508143
-0.0569692
0.0558668
-0.111344
-0.0972331
-0.0806285
-0.0867932
-2.89767
-2.87433
-2.8672
-2.6412
-2.20456
-1.7505
-1.22995
-0.685496
-0.210205
0.0287291
0.0778221
0.0851784
-0.124847
-0.510011
-0.891899
-1.21562
-1.42488
-1.60144
-1.56039
-1.35499
-2.51813
-2.51489
-2.49166
-2.24786
-1.9619
-1.5417
-1.03416
-0.596946
-0.263456
0.0194217
0.172046
-0.0556478
-0.322171
-0.444366
-0.750214
-1.06722
-1.27167
-1.34041
-1.36342
-1.23648
-2.15387
-2.22355
-2.11424
-1.9677
-1.64836
-1.29477
-0.833126
-0.556404
-0.197635
-0.0874085
0.029961
-0.00218046
-0.175004
-0.500771
-0.69223
-0.914718
-1.1293
-1.20666
-1.18716
-1.0943
-1.76235
-1.77218
-1.7016
-1.60223
-1.30332
-1.15268
-0.721176
-0.50044
-0.163581
0.03956
0.0330982
0.0388966
-0.131792
-0.366878
-0.637988
-0.745155
-0.873153
-1.02695
-1.02629
-0.842077
-1.3852
-1.39282
-1.39271
-1.19716
-1.10769
-0.945295
-0.598973
-0.325523
-0.189829
-0.0578646
0.0157322
-0.0324634
-0.119363
-0.263637
-0.37104
-0.56397
-0.738649
-0.810689
-0.811851
-0.719324
-0.969191
-1.00827
-0.989903
-0.968981
-0.800848
-0.57234
-0.416125
-0.227919
-0.0945252
-0.0109757
0.00168535
-0.0232949
-0.149374
-0.173271
-0.315068
-0.459212
-0.524507
-0.5064
-0.60498
-0.452057
-0.565993
-0.623828
-0.612695
-0.513482
-0.457414
-0.322548
-0.285834
-0.204355
-0.109197
0.0143111
-0.0479121
-0.025346
-0.0676387
-0.09193
-0.138053
-0.281667
-0.378441
-0.32528
-0.403041
-0.308735
-0.145461
-0.19071
-0.259052
-0.0982189
-0.146572
-0.152205
-0.0628923
-0.110749
0.0280026
-0.0358216
-0.0416869
0.0349801
-0.0987425
-0.0703686
-0.0694131
-0.0674928
-0.0969678
-0.109793
-0.094764
-0.135394
-2.93519
-3.10122
-3.06589
-2.89665
-2.60192
-2.2459
-1.76114
-1.27342
-0.955588
-0.773743
-0.59825
-0.603265
-0.88606
-1.08267
-1.2813
-1.58309
-1.69858
-1.74851
-1.61037
-1.43272
-2.59274
-2.70071
-2.65792
-2.55206
-2.31351
-1.94803
-1.56041
-1.17731
-0.844147
-0.632989
-0.600043
-0.563246
-0.825038
-0.947686
-1.16128
-1.40802
-1.50125
-1.50101
-1.41515
-1.26011
-2.25994
-2.31805
-2.2523
-2.11292
-1.86482
-1.66983
-1.33605
-1.00368
-0.742214
-0.601818
-0.549986
-0.490536
-0.699944
-0.799
-1.07072
-1.15109
-1.25911
-1.40738
-1.3192
-1.04041
-1.84139
-1.83435
-1.88338
-1.73207
-1.59547
-1.33194
-1.10731
-0.769078
-0.638155
-0.467071
-0.464767
-0.493548
-0.529922
-0.713616
-0.828728
-1.03144
-1.0489
-1.11512
-1.03767
-0.904425
-1.3095
-1.4786
-1.42979
-1.41615
-1.30308
-1.08327
-0.879453
-0.656705
-0.500024
-0.391311
-0.309563
-0.35616
-0.419966
-0.474771
-0.662094
-0.839383
-0.846053
-0.858679
-0.780071
-0.727394
-0.997816
-1.05943
-1.04854
-1.02153
-0.908338
-0.776827
-0.574316
-0.463577
-0.284403
-0.29994
-0.222895
-0.275165
-0.304932
-0.356182
-0.480831
-0.616474
-0.592737
-0.678515
-0.532685
-0.519607
-0.636177
-0.640364
-0.615347
-0.576484
-0.570059
-0.397745
-0.34042
-0.224895
-0.257404
-0.142069
-0.0502645
-0.151991
-0.139949
-0.250414
-0.27549
-0.325849
-0.422719
-0.317789
-0.290231
-0.328095
-0.28476
-0.215862
-0.177042
-0.236186
-0.142577
-0.241121
-0.0624803
-0.0427477
-0.0922681
0.0154447
-0.11125
-0.0743459
-0.100358
-0.0922257
-0.102892
-0.0576219
-0.0670874
-0.14746
-0.199355
-0.091194
-2.81854
-2.9754
-3.04922
-3.0735
-2.85805
-2.5629
-2.07797
-1.79939
-1.54669
-1.23119
-1.15504
-1.15461
-1.27559
-1.41441
-1.57242
-1.81525
-1.81081
-1.74894
-1.51004
-1.27535
-2.44002
-2.63657
-2.66237
-2.63031
-2.45663
-2.23068
-1.87466
-1.61243
-1.30778
-1.10394
-1.05494
-1.02208
-1.13624
-1.35369
-1.38703
-1.5784
-1.54021
-1.54816
-1.38863
-1.09599
-2.04606
-2.29913
-2.24367
-2.23832
-2.11603
-1.84548
-1.65353
-1.38284
-1.14304
-0.941559
-0.924247
-0.899567
-1.04594
-1.03841
-1.245
-1.37314
-1.34344
-1.29884
-1.18777
-0.980982
-1.68586
-1.83324
-1.83231
-1.82533
-1.74875
-1.57154
-1.30843
-1.06565
-0.940456
-0.783919
-0.73076
-0.768316
-0.7845
-0.958563
-0.989888
-1.11948
-1.17669
-1.05215
-0.985947
-0.81589
-1.34373
-1.40246
-1.44666
-1.38929
-1.26566
-1.2341
-0.963923
-0.879442
-0.679605
-0.676723
-0.613214
-0.589336
-0.64009
-0.752003
-0.815858
-0.85521
-0.944769
-0.840467
-0.789672
-0.674679
-0.840057
-1.02889
-1.04093
-1.02411
-0.971664
-0.830538
-0.757704
-0.615124
-0.529958
-0.42743
-0.403148
-0.417797
-0.455109
-0.537494
-0.545241
-0.623587
-0.650422
-0.600489
-0.560965
-0.447998
-0.551251
-0.647688
-0.61835
-0.55216
-0.590886
-0.489932
-0.436624
-0.36275
-0.391413
-0.253905
-0.293804
-0.310964
-0.299184
-0.260177
-0.332503
-0.355775
-0.395154
-0.366896
-0.333254
-0.283854
-0.253547
-0.239047
-0.235134
-0.183747
-0.239863
-0.14631
-0.158328
-0.0476621
-0.0784662
-0.113827
-0.0918505
-0.119654
-0.029526
-0.115383
-0.10529
-0.080299
-0.136467
-0.138793
-0.0709995
-0.00615049
-2.5315
-2.76776
-2.8449
-2.93972
-2.88119
-2.6719
-2.4072
-2.1017
-1.79484
-1.66258
-1.50608
-1.4773
-1.54478
-1.61376
-1.75109
-1.75171
-1.67257
-1.53295
-1.25641
-0.879366
-2.21166
-2.40953
-2.61429
-2.60283
-2.45943
-2.31718
-2.0471
-1.8264
-1.60539
-1.36458
-1.36354
-1.2767
-1.41155
-1.50928
-1.52495
-1.52789
-1.50047
-1.28509
-1.09779
-0.821118
-1.80704
-1.91114
-2.16357
-2.15604
-2.09769
-1.94744
-1.82562
-1.62217
-1.39821
-1.18266
-1.16956
-1.16215
-1.13801
-1.22821
-1.34539
-1.22341
-1.29601
-1.14723
-0.91746
-0.734797
-1.50927
-1.65523
-1.81122
-1.75804
-1.75569
-1.52352
-1.42352
-1.28836
-1.12362
-0.988826
-0.98336
-0.966095
-1.00149
-1.07242
-1.05475
-1.08379
-1.08829
-0.904777
-0.708376
-0.645361
-1.19283
-1.32475
-1.41951
-1.35772
-1.33536
-1.22266
-1.08713
-1.02675
-0.905495
-0.746174
-0.771433
-0.698495
-0.743576
-0.781952
-0.894422
-0.858759
-0.778844
-0.808431
-0.630218
-0.455674
-0.883929
-0.920217
-1.06597
-1.07164
-0.988627
-0.879275
-0.814708
-0.702847
-0.666706
-0.592849
-0.519465
-0.52482
-0.560601
-0.584343
-0.607398
-0.697938
-0.637209
-0.55186
-0.513014
-0.367664
-0.450097
-0.556992
-0.568525
-0.617664
-0.56455
-0.540432
-0.505644
-0.423329
-0.391662
-0.342739
-0.394168
-0.285126
-0.305563
-0.336908
-0.375657
-0.376659
-0.426321
-0.299971
-0.252966
-0.241401
-0.138232
-0.199772
-0.220632
-0.135979
-0.203732
-0.210167
-0.166734
-0.130093
-0.0598344
-0.0667693
-0.0573649
-0.13352
-0.220745
-0.156122
-0.116676
-0.149671
-0.129643
-0.123916
-0.0655536
-0.14145
-1.99559
-2.29394
-2.49212
-2.62246
-2.6064
-2.49661
-2.33248
-2.09647
-1.93911
-1.70095
-1.61773
-1.58606
-1.5816
-1.55039
-1.61334
-1.46951
-1.35071
-1.10978
-0.68044
-0.300014
-1.68486
-1.91858
-2.22274
-2.30095
-2.3025
-2.16324
-2.04862
-1.874
-1.72061
-1.50088
-1.38803
-1.36881
-1.38548
-1.3885
-1.37692
-1.3058
-1.24189
-1.03839
-0.646631
-0.312344
-1.49649
-1.65604
-1.90187
-1.94197
-1.97111
-1.8928
-1.6716
-1.57996
-1.4647
-1.3025
-1.23198
-1.2008
-1.19247
-1.15544
-1.23065
-1.20005
-1.15695
-0.857975
-0.564559
-0.309349
-1.25709
-1.32119
-1.46411
-1.55893
-1.56118
-1.4943
-1.45587
-1.26846
-1.19001
-1.08033
-1.04069
-1.03281
-0.959696
-1.04268
-1.02369
-0.962191
-0.888369
-0.709057
-0.500339
-0.257446
-0.91163
-1.07205
-1.21956
-1.22923
-1.32856
-1.22862
-1.12426
-0.963894
-0.892341
-0.923971
-0.759386
-0.707158
-0.790143
-0.772799
-0.792473
-0.80353
-0.66547
-0.581328
-0.386374
-0.2617
-0.66622
-0.79051
-0.894648
-0.854686
-0.878174
-0.864657
-0.822616
-0.782179
-0.593585
-0.625212
-0.597811
-0.607986
-0.557887
-0.549174
-0.509358
-0.567064
-0.470029
-0.465287
-0.312958
-0.175689
-0.423628
-0.445501
-0.494517
-0.608047
-0.570408
-0.515347
-0.519061
-0.44866
-0.440259
-0.342312
-0.333768
-0.317151
-0.319074
-0.328488
-0.319172
-0.375264
-0.310482
-0.301939
-0.153577
-0.145357
-0.118682
-0.220039
-0.121353
-0.146709
-0.180641
-0.109551
-0.218959
-0.100544
-0.0718309
-0.0842626
-0.181709
-0.0548376
-0.130814
-0.0792319
-0.11488
-0.0814922
-0.067312
-0.0652742
0.00957501
-0.100586
-1.13443
-1.60622
-1.85607
-2.08331
-2.24793
-2.21046
-2.06771
-1.92385
-1.80598
-1.62365
-1.53831
-1.37053
-1.32113
-1.30719
-1.27449
-1.07996
-0.831865
-0.461001
0.0128308
0.495557
-1.10776
-1.43346
-1.67273
-1.84481
-1.88909
-1.92804
-1.83201
-1.7235
-1.6241
-1.37887
-1.33858
-1.27623
-1.31874
-1.18682
-1.13178
-1.01153
-0.76639
-0.469048
-0.0696679
0.29445
-0.930017
-1.14456
-1.45267
-1.568
-1.6624
-1.57391
-1.57948
-1.47762
-1.28614
-1.23182
-1.13573
-1.11776
-1.14995
-1.02017
-0.942101
-0.812276
-0.746105
-0.385537
-0.0573744
0.264866
-0.761647
-1.06383
-1.16398
-1.25225
-1.36794
-1.34645
-1.33337
-1.19323
-1.10132
-1.00261
-0.922196
-0.907971
-0.795731
-0.929846
-0.819416
-0.726296
-0.619891
-0.422057
-0.0692967
0.169149
-0.615734
-0.688125
-0.95094
-0.981001
-1.0815
-1.01448
-1.00927
-1.01308
-0.874105
-0.806401
-0.810484
-0.689961
-0.690097
-0.615011
-0.647543
-0.579414
-0.44698
-0.26
-0.0611603
0.113577
-0.484084
-0.55365
-0.649545
-0.742466
-0.76414
-0.757222
-0.754846
-0.654325
-0.617945
-0.511208
-0.502303
-0.481782
-0.536015
-0.471362
-0.438049
-0.420529
-0.325039
-0.220043
-0.157701
0.0684292
-0.293925
-0.294699
-0.401421
-0.425417
-0.460485
-0.424436
-0.433128
-0.374817
-0.347291
-0.303414
-0.30858
-0.351504
-0.242597
-0.353371
-0.310963
-0.189863
-0.192799
-0.107961
0.0081964
0.0128006
-0.114395
-0.117253
-0.11404
-0.197754
-0.170043
-0.0957547
-0.123864
-0.123329
-0.135864
-0.0479052
-0.127016
-0.114714
-0.102207
-0.0524328
-0.0821053
-0.0545513
-0.0445289
-0.0473219
-0.0689918
0.00388955
-0.252496
-0.678294
-1.10411
-1.33001
-1.58645
-1.61695
-1.50116
-1.40087
-1.32545
-1.19213
-1.08776
-1.03415
-0.99154
-0.818574
-0.622034
-0.441347
-0.111465
0.415238
0.839456
1.44587
-0.258452
-0.575571
-0.965983
-1.27497
-1.3707
-1.39641
-1.37821
-1.31248
-1.20663
-1.07942
-1.00792
-0.895706
-0.840597
-0.627447
-0.68096
-0.40758
-0.111632
0.258423
0.810642
1.13769
-0.2816
-0.515126
-0.768809
-1.02902
-1.17926
-1.23733
-1.17517
-1.17436
-1.07527
-0.934164
-0.860667
-0.793147
-0.656654
-0.660054
-0.451826
-0.36865
-0.109108
0.213913
0.618991
0.946862
-0.187715
-0.435828
-0.670611
-0.876686
-0.958378
-0.945044
-0.964984
-0.87361
-0.868711
-0.812794
-0.670425
-0.693176
-0.556723
-0.505817
-0.380771
-0.302625
-0.0777876
0.190396
0.521103
0.752527
-0.156944
-0.348603
-0.512536
-0.642488
-0.740875
-0.816519
-0.789864
-0.732473
-0.689316
-0.645583
-0.552604
-0.53802
-0.477405
-0.413168
-0.342084
-0.157513
-0.0750398
0.0811022
0.439929
0.532292
-0.0811851
-0.310851
-0.39304
-0.52875
-0.584433
-0.5325
-0.540666
-0.488898
-0.449902
-0.461207
-0.427423
-0.467968
-0.261395
-0.296545
-0.282702
-0.159298
-0.132618
0.0312051
0.253868
0.420738
-0.039205
-0.0996708
-0.214509
-0.240937
-0.338809
-0.379858
-0.316562
-0.347212
-0.319822
-0.238795
-0.239047
-0.222727
-0.250034
-0.162039
-0.12638
-0.141146
-0.110852
0.0706819
0.142678
0.240974
-0.0692334
-0.107201
-0.0777184
-0.128152
-0.14013
-0.0849958
-0.0999625
-0.0689557
-0.11476
-0.11124
-0.0301592
-0.090864
-0.119534
-0.0675499
0.031717
0.0498019
-0.0336204
0.0905855
0.0467996
0.107171
0.912124
0.415524
-0.0500642
-0.412914
-0.657792
-0.751046
-0.791035
-0.705495
-0.703514
-0.594494
-0.498971
-0.36373
-0.215239
-0.0143857
0.197828
0.482331
0.892027
1.44599
2.11876
2.58025
0.821676
0.403956
-0.0741995
-0.343576
-0.520014
-0.64534
-0.704908
-0.681046
-0.572855
-0.492725
-0.515315
-0.298814
-0.214651
-0.0868424
0.174713
0.344757
0.722525
1.16158
1.77297
2.17462
0.652212
0.282151
-0.0626033
-0.312707
-0.486766
-0.587234
-0.66887
-0.555086
-0.526643
-0.443437
-0.335706
-0.345591
-0.284979
-0.0631403
0.0456567
0.291989
0.641332
0.998154
1.38864
1.83231
0.464866
0.253588
-0.012878
-0.248027
-0.433425
-0.500993
-0.44655
-0.526125
-0.449379
-0.377889
-0.33428
-0.255023
-0.137165
-0.0292132
0.0197799
0.253629
0.482211
0.743166
1.13359
1.47711
0.309191
0.183124
0.00917503
-0.195135
-0.330072
-0.382894
-0.352093
-0.354766
-0.284415
-0.273622
-0.298303
-0.245756
-0.202739
-0.111148
0.0699056
0.180827
0.404694
0.533019
0.891555
1.15233
0.301146
0.100796
-0.012998
-0.157751
-0.207966
-0.239715
-0.25678
-0.378673
-0.194274
-0.1445
-0.230655
-0.162707
-0.163038
0.0275111
0.0224854
0.174458
0.27593
0.43139
0.638607
0.73259
0.173524
0.0830162
-0.0955654
-0.0835244
-0.164484
-0.227938
-0.178293
-0.198371
-0.130638
-0.11043
-0.108992
-0.0255933
-0.0476972
0.00186691
0.0281071
0.0709276
0.160849
0.260658
0.344346
0.449829
0.0841946
-0.011799
0.0633853
-0.0794602
-0.00495479
-0.098289
-0.0124868
-0.00405599
-0.0279645
-0.0710121
0.0264488
-0.0144948
0.0152599
-0.0370227
0.0558436
0.0805506
0.0701232
0.0990375
0.138024
0.177446
2.33835
1.73786
1.22924
0.824872
0.535329
0.34941
0.228705
0.132125
0.175844
0.369125
0.471133
0.618361
0.75333
0.941625
1.2756
1.64615
2.16363
2.69249
3.38273
4.07098
1.9631
1.47474
0.942527
0.724077
0.34367
0.328865
0.125915
0.184473
0.242547
0.32076
0.414484
0.521243
0.605817
0.843889
1.04743
1.36644
1.83509
2.28815
2.84383
3.43051
1.64671
1.29685
0.816693
0.490507
0.273689
0.198556
0.11697
0.0903775
0.136898
0.180778
0.263752
0.332009
0.573263
0.643822
0.895655
1.12166
1.48996
1.94379
2.41746
2.84408
1.3639
1.03275
0.722534
0.486596
0.269981
0.168273
0.0459568
0.0508657
0.142957
0.164338
0.263131
0.335404
0.414294
0.465582
0.703345
0.927567
1.16277
1.56412
1.98949
2.35472
0.999546
0.821319
0.491979
0.348319
0.186562
0.168633
0.0635264
0.0762111
0.0954019
0.049205
0.164699
0.247748
0.273979
0.376195
0.506014
0.644131
1.01521
1.19569
1.49967
1.77513
0.683692
0.581936
0.44333
0.241686
0.148309
0.12187
0.128288
0.0484918
0.0439198
0.0819553
0.0904198
0.153159
0.185411
0.25635
0.410627
0.487892
0.624572
0.747946
1.05714
1.2406
0.503008
0.320628
0.29411
0.134039
0.108481
0.0123021
-0.0142463
0.0132776
0.0314661
0.0606022
0.064794
0.0439742
0.0911895
0.155254
0.262414
0.252347
0.426149
0.548892
0.73296
0.72161
0.129749
0.108545
0.106727
-0.00943726
-0.00268909
-0.0179688
-0.0389679
-0.0486109
0.0436387
-0.0712017
-0.00252634
0.0609228
0.0151036
0.0612344
0.114509
0.0599585
0.175708
0.164389
0.237768
0.263131
3.87579
3.35705
2.71657
2.22459
1.87504
1.66598
1.43095
1.4076
1.48738
1.50818
1.52999
1.70336
1.93244
2.3191
2.57725
3.00323
3.49847
4.27894
4.9231
5.64787
3.35044
2.91709
2.35197
1.94347
1.59783
1.35096
1.27304
1.20893
1.20477
1.22913
1.36001
1.48596
1.70731
1.91944
2.19616
2.5636
3.03975
3.59236
4.18642
4.71367
2.75175
2.35365
1.98208
1.59245
1.31629
1.12151
0.996247
1.00598
1.0146
1.06355
1.14528
1.23792
1.39745
1.57421
1.82317
2.17517
2.53724
3.0431
3.50214
4.01033
2.24328
1.97169
1.64193
1.26889
1.06478
0.905887
0.851132
0.756477
0.755998
0.81796
0.92062
0.955081
1.08907
1.24884
1.43307
1.73473
2.03686
2.41459
2.83989
3.30515
1.75268
1.51626
1.2589
1.01678
0.848984
0.72572
0.597607
0.58384
0.614947
0.615012
0.724408
0.793502
0.813474
0.978339
1.14049
1.40001
1.58041
1.91834
2.24479
2.45765
1.18858
1.06646
0.884298
0.705402
0.578365
0.500733
0.471982
0.479752
0.419092
0.424383
0.498863
0.509524
0.63768
0.646165
0.810206
0.896948
1.1083
1.35453
1.60022
1.7856
0.734985
0.588105
0.500623
0.459733
0.299207
0.304492
0.25343
0.134716
0.28541
0.282714
0.292788
0.29096
0.320268
0.413103
0.498606
0.580408
0.659642
0.796077
1.02351
1.08207
0.212107
0.223842
0.223603
0.125536
0.126601
0.119048
0.079464
0.0508588
0.0613084
0.0659438
0.0268518
0.0538457
0.125305
0.105999
0.215441
0.162487
0.217991
0.252331
0.31374
0.32508
5.62351
5.01746
4.39939
3.80107
3.41591
3.13607
2.91849
2.87785
2.7966
2.92305
2.96376
3.13773
3.40812
3.71976
4.07528
4.54936
5.1482
5.91905
6.67948
7.35203
4.90101
4.3561
3.69188
3.3302
2.93874
2.6658
2.47629
2.39239
2.31316
2.44393
2.47955
2.66607
2.89247
3.11757
3.40825
3.8673
4.38295
5.00159
5.699
6.31827
4.02959
3.56871
3.15936
2.71919
2.46471
2.18468
2.13168
2.00122
1.96875
2.08299
2.0599
2.2204
2.35723
2.54051
2.88122
3.23562
3.70122
4.21125
4.74955
5.24446
3.25129
2.9569
2.57918
2.15537
1.9728
1.80306
1.68241
1.61595
1.60697
1.63427
1.72515
1.81867
1.92019
2.11826
2.27937
2.65762
2.99678
3.3919
3.9103
4.2402
2.47343
2.26137
1.91685
1.7293
1.52367
1.4392
1.27556
1.30562
1.27039
1.2386
1.29551
1.36954
1.47296
1.58188
1.83451
2.02111
2.30484
2.57844
2.98381
3.23744
1.78848
1.63471
1.41475
1.26852
1.07308
0.975625
0.907728
0.849944
0.937574
0.894752
0.931161
0.98829
1.01147
1.19371
1.28772
1.40117
1.66228
1.86926
2.1069
2.33529
1.08305
0.972109
0.768996
0.693237
0.666529
0.521524
0.491181
0.516118
0.503617
0.497063
0.593568
0.594327
0.614045
0.711247
0.802707
0.867083
1.02042
1.11951
1.29677
1.49476
0.419761
0.293262
0.296451
0.198264
0.161111
0.220564
0.2851
0.197054
0.155107
0.133413
0.178749
0.216098
0.226428
0.195395
0.236414
0.327488
0.302714
0.428845
0.383502
0.496142
7.39561
6.80136
6.11441
5.37351
4.97864
4.64083
4.41142
4.31608
4.24108
4.28278
4.41986
4.58589
4.8387
5.23269
5.66572
6.15484
6.77789
7.51838
8.39416
9.18898
6.29104
5.71993
5.19638
4.69591
4.32609
3.97169
3.77809
3.65555
3.69534
3.68743
3.7134
3.86725
4.11575
4.37905
4.76997
5.23662
5.88391
6.4786
7.13357
7.69724
5.28834
4.81567
4.32056
3.85767
3.57633
3.32352
3.09298
3.03357
2.98978
2.98265
3.13091
3.25983
3.44762
3.66598
3.95277
4.39455
4.82959
5.34733
5.97696
6.54484
4.26862
3.88532
3.48624
3.12658
2.87783
2.6469
2.46417
2.48025
2.49295
2.42059
2.50819
2.62311
2.77255
2.96015
3.23944
3.58296
3.95808
4.33763
4.83834
5.24669
3.24952
3.04619
2.70403
2.46113
2.18169
2.14932
1.88145
1.84038
1.86375
1.92621
1.96264
2.01485
2.13347
2.24886
2.49524
2.70442
2.99398
3.35011
3.79087
4.09364
2.34508
2.18447
1.94446
1.70586
1.63733
1.40736
1.39731
1.31314
1.31344
1.29791
1.3734
1.47615
1.50431
1.5997
1.77642
1.91747
2.14737
2.44302
2.61012
2.81728
1.42784
1.31341
1.14128
1.01086
0.970002
0.86084
0.845982
0.717307
0.83259
0.761235
0.823866
0.795588
0.866992
0.930786
1.04805
1.12291
1.24102
1.42528
1.58845
1.73803
0.425668
0.422235
0.426857
0.36987
0.283278
0.228024
0.225339
0.309333
0.328912
0.24301
0.248172
0.299308
0.245478
0.391808
0.417742
0.433999
0.461725
0.436422
0.5111
0.638084
8.84395
8.23485
7.51614
6.80716
6.37857
5.93808
5.71834
5.57174
5.50057
5.51255
5.63748
5.85319
6.15324
6.46948
6.99354
7.42391
8.17039
8.88286
9.77283
10.505
7.45472
6.90222
6.35474
5.75249
5.40306
5.01464
4.83551
4.72191
4.62582
4.63884
4.79893
4.88206
5.08307
5.48315
5.82433
6.24098
6.85831
7.56469
8.3348
8.9921
6.22144
5.77691
5.19873
4.75184
4.40408
4.15276
3.96943
3.89462
3.75457
3.80346
3.89829
3.99491
4.2114
4.57631
4.8768
5.25777
5.75893
6.24657
6.93057
7.5334
4.9644
4.61881
4.20287
3.93744
3.52862
3.34867
3.11219
3.06519
3.0578
3.03472
3.16287
3.23684
3.42516
3.62821
3.81928
4.15979
4.59435
5.11326
5.52086
5.99297
3.83466
3.50131
3.21246
2.95809
2.76007
2.59608
2.49191
2.31835
2.2947
2.32498
2.36636
2.45135
2.56452
2.76256
2.99772
3.22838
3.55341
3.86935
4.23857
4.53339
2.70286
2.54992
2.24158
2.15764
1.95971
1.79831
1.72568
1.65408
1.72535
1.64061
1.72882
1.7277
1.82524
1.93518
2.09471
2.28617
2.48326
2.72657
3.01072
3.2391
1.61701
1.5045
1.37435
1.25287
1.14702
1.12239
1.03645
1.01037
0.937569
0.966909
0.978573
1.0511
1.10724
1.16328
1.28806
1.35893
1.46662
1.61707
1.80927
1.97848
0.563068
0.473694
0.478827
0.421594
0.394003
0.379408
0.301207
0.320525
0.339216
0.310977
0.361969
0.302072
0.273455
0.355144
0.481616
0.465971
0.513685
0.571513
0.656474
0.638421
)
;

boundaryField
{
    hotSide
    {
        type            calculated;
        value           nonuniform List<scalar> 
400
(
1.98676
1.25742
0.486655
-0.350821
-1.0555
-1.58687
-1.93382
-2.17882
-2.23347
-2.13495
-1.86679
-1.35022
-0.50862
0.35374
1.49896
2.90614
4.42501
6.15474
7.90954
9.34131