/*--------------------------------*- C++ -*----------------------------------*\
| =========                 |                                                 |
| \\      /  F ield         | OpenFOAM: The Open Source CFD Toolbox           |
|  \\    /   O peration     | Version:  2212                                  |
|   \\  /    A nd           | Website:  www.openfoam.com                      |
|    \\/     M anipulation  |                                                 |
\*---------------------------------------------------------------------------*/
FoamFile
{
    version     2.0;
    format      ascii;
    arch        "LSB;label=32;scalar=64";
    class       volScalarField;
    location    "./ITHACAoutput/true/1";
    object      trueState;
}
// * * * * * * * * * * * * * * * * * * * * * * * * * * * * * * * * * * * * * //

dimensions      [0 0 0 1 0 0 0];

internalField   nonuniform List<scalar> 
3200
(
342.88
344.01
345.452
347.022
348.639
350.226
351.691
352.928
353.829
354.305
354.305
353.829
352.928
351.691
350.226
348.639
347.022
345.452
344.01
342.88
337.248
338.204
339.447
340.805
342.204
343.577
344.843
345.911
346.689
347.1
347.1
346.689
345.911
344.843
343.577
342.204
340.805
339.447
338.204
337.248
331.582
332.375
333.422
334.569
335.751
336.91
337.979
338.88
339.536
339.882
339.882
339.536
338.88
337.979
336.91
335.751
334.569
333.422
332.375
331.582
325.886
326.524
327.378
328.315
329.28
330.227
331.1
331.836
332.371
332.654
332.654
332.371
331.836
331.1
330.227
329.28
328.315
327.378
326.524
325.886
320.166
320.656
321.317
322.045
322.796
323.531
324.209
324.78
325.196
325.415
325.415
325.196
324.78
324.209
323.531
322.796
322.045
321.317
320.656
320.166
314.425
314.772
315.244
315.763
316.299
316.824
317.308
317.716
318.012
318.169
318.169
318.012
317.716
317.308
316.824
316.299
315.763
315.244
314.772
314.425
308.671
308.878
309.16
309.472
309.794
310.109
310.4
310.644
310.822
310.916
310.916
310.822
310.644
310.4
310.109
309.794
309.472
309.16
308.878
308.671
302.908
302.977
303.071
303.176
303.284
303.389
303.487
303.569
303.628
303.66
303.66
303.628
303.569
303.487
303.389
303.284
303.176
303.071
302.977
302.908
342.964
344.085
345.514
347.069
348.67
350.24
351.688
352.909
353.798
354.268
354.268
353.798
352.909
351.688
350.24
348.67
347.069
345.514
344.085
342.964
337.32
338.269
339.501
340.846
342.231
343.589
344.84
345.895
346.663
347.068
347.068
346.663
345.895
344.84
343.589
342.231
340.846
339.501
338.269
337.32
331.643
332.43
333.467
334.604
335.774
336.92
337.976
338.867
339.514
339.856
339.856
339.514
338.867
337.976
336.92
335.774
334.604
333.467
332.43
331.643
325.936
326.569
327.415
328.343
329.299
330.236
331.098
331.825
332.354
332.632
332.632
332.354
331.825
331.098
330.236
329.299
328.343
327.415
326.569
325.936
320.204
320.69
321.346
322.067
322.81
323.538
324.208
324.772
325.182
325.399
325.399
325.182
324.772
324.208
323.538
322.81
322.067
321.346
320.69
320.204
314.453
314.797
315.264
315.779
316.31
316.829
317.307
317.71
318.003
318.157
318.157
318.003
317.71
317.307
316.829
316.31
315.779
315.264
314.797
314.453
308.687
308.892
309.173
309.482
309.8
310.112
310.399
310.641
310.816
310.909
310.909
310.816
310.641
310.399
310.112
309.8
309.482
309.173
308.892
308.687
302.913
302.982
303.076
303.179
303.286
303.39
303.486
303.567
303.626
303.657
303.657
303.626
303.567
303.486
303.39
303.286
303.179
303.076
302.982
302.913
343.132
344.235
345.64
347.167
348.735
350.271
351.685
352.877
353.743
354.201
354.201
353.743
352.877
351.685
350.271
348.735
347.167
345.64
344.235
343.132
337.466
338.399
339.611
340.931
342.288
343.616
344.839
345.868
346.616
347.011
347.011
346.616
345.868
344.839
343.616
342.288
340.931
339.611
338.399
337.466
331.765
332.54
333.56
334.675
335.822
336.944
337.976
338.844
339.475
339.808
339.808
339.475
338.844
337.976
336.944
335.822
334.675
333.56
332.54
331.765
326.036
326.659
327.491
328.402
329.339
330.255
331.098
331.807
332.322
332.594
332.594
332.322
331.807
331.098
330.255
329.339
328.402
327.491
326.659
326.036
320.282
320.76
321.405
322.113
322.841
323.553
324.208
324.758
325.158
325.369
325.369
325.158
324.758
324.208
323.553
322.841
322.113
321.405
320.76
320.282
314.508
314.847
315.306
315.812
316.332
316.84
317.307
317.7
317.986
318.136
318.136
317.986
317.7
317.307
316.84
316.332
315.812
315.306
314.847
314.508
308.72
308.922
309.198
309.502
309.814
310.119
310.399
310.635
310.806
310.896
310.896
310.806
310.635
310.399
310.119
309.814
309.502
309.198
308.922
308.72
302.924
302.992
303.084
303.186
303.29
303.393
303.486
303.565
303.623
303.653
303.653
303.623
303.565
303.486
303.393
303.29
303.186
303.084
302.992
302.924
343.388
344.465
345.834
347.319
348.841
350.328
351.694
352.843
353.677
354.117
354.117
353.677
352.843
351.694
350.328
348.841
347.319
345.834
344.465
343.388
337.686
338.598
339.779
341.063
342.38
343.666
344.847
345.839
346.56
346.94
346.94
346.56
345.839
344.847
343.666
342.38
341.063
339.779
338.598
337.686
331.952
332.708
333.702
334.787
335.9
336.986
337.983
338.821
339.429
339.749
339.749
339.429
338.821
337.983
336.986
335.9
334.787
333.702
332.708
331.952
326.188
326.796
327.607
328.493
329.403
330.29
331.105
331.789
332.285
332.546
332.546
332.285
331.789
331.105
330.29
329.403
328.493
327.607
326.796
326.188
320.4
320.867
321.495
322.184
322.891
323.581
324.213
324.744
325.13
325.333
325.333
325.13
324.744
324.213
323.581
322.891
322.184
321.495
320.867
320.4
314.592
314.923
315.371
315.863
316.367
316.86
317.311
317.69
317.965
318.11
318.11
317.965
317.69
317.311
316.86
316.367
315.863
315.371
314.923
314.592
308.771
308.968
309.237
309.532
309.835
310.131
310.402
310.629
310.794
310.881
310.881
310.794
310.629
310.402
310.131
309.835
309.532
309.237
308.968
308.771
302.941
303.007
303.097
303.196
303.297
303.397
303.487
303.564
303.619
303.648
303.648
303.619
303.564
303.487
303.397
303.297
303.196
303.097
303.007
302.941
343.733
344.778
346.102
347.534
348.997
350.422
351.727
352.822
353.616
354.034
354.034
353.616
352.822
351.727
350.422
348.997
347.534
346.102
344.778
343.733
337.985
338.869
340.011
341.249
342.515
343.748
344.877
345.823
346.509
346.87
346.87
346.509
345.823
344.877
343.748
342.515
341.249
340.011
338.869
337.985
332.203
332.936
333.898
334.945
336.015
337.056
338.009
338.808
339.387
339.691
339.691
339.387
338.808
338.009
337.056
336.015
334.945
333.898
332.936
332.203
326.393
326.983
327.767
328.622
329.497
330.348
331.126
331.779
332.251
332.5
332.5
332.251
331.779
331.126
330.348
329.497
328.622
327.767
326.983
326.393
320.559
321.012
321.62
322.285
322.964
323.625
324.23
324.737
325.104
325.297
325.297
325.104
324.737
324.23
323.625
322.964
322.285
321.62
321.012
320.559
314.706
315.027
315.46
315.934
316.42
316.892
317.324
317.685
317.947
318.085
318.085
317.947
317.685
317.324
316.892
316.42
315.934
315.46
315.027
314.706
308.839
309.031
309.29
309.575
309.867
310.15
310.409
310.626
310.783
310.866
310.866
310.783
310.626
310.409
310.15
309.867
309.575
309.29
309.031
308.839
302.964
303.028
303.115
303.21
303.308
303.403
303.49
303.563
303.615
303.643
303.643
303.615
303.563
303.49
303.403
303.308
303.21
303.115
303.028
302.964
344.174
345.179
346.45
347.819
349.213
350.566
351.801
352.834
353.581
353.974
353.974
353.581
352.834
351.801
350.566
349.213
347.819
346.45
345.179
344.174
338.365
339.216
340.312
341.497
342.703
343.874
344.942
345.835
346.48
346.819
346.819
346.48
345.835
344.942
343.874
342.703
341.497
340.312
339.216
338.365
332.524
333.23
334.153
335.154
336.174
337.163
338.065
338.819
339.364
339.65
339.65
339.364
338.819
338.065
337.163
336.174
335.154
334.153
333.23
332.524
326.655
327.223
327.975
328.793
329.627
330.435
331.173
331.788
332.233
332.467
332.467
332.233
331.788
331.173
330.435
329.627
328.793
327.975
327.223
326.655
320.763
321.198
321.782
322.418
323.066
323.694
324.267
324.745
325.09
325.272
325.272
325.09
324.745
324.267
323.694
323.066
322.418
321.782
321.198
320.763
314.851
315.16
315.576
316.03
316.492
316.941
317.35
317.691
317.938
318.067
318.067
317.938
317.691
317.35
316.941
316.492
316.03
315.576
315.16
314.851
308.926
309.11
309.36
309.632
309.91
310.179
310.425
310.63
310.778
310.856
310.856
310.778
310.63
310.425
310.179
309.91
309.632
309.36
309.11
308.926
302.993
303.055
303.138
303.229
303.323
303.413
303.495
303.564
303.613
303.639
303.639
303.613
303.564
303.495
303.413
303.323
303.229
303.138
303.055
302.993
344.713
345.674
346.885
348.185
349.503
350.776
351.934
352.899
353.595
353.96
353.96
353.595
352.899
351.934
350.776
349.503
348.185
346.885
345.674
344.713
338.831
339.644
340.689
341.813
342.954
344.056
345.058
345.892
346.494
346.809
346.809
346.494
345.892
345.058
344.056
342.954
341.813
340.689
339.644
338.831
332.918
333.592
334.472
335.422
336.386
337.317
338.164
338.868
339.376
339.643
339.643
339.376
338.868
338.164
337.317
336.386
335.422
334.472
333.592
332.918
326.976
327.519
328.236
329.013
329.801
330.562
331.254
331.829
332.244
332.462
332.462
332.244
331.829
331.254
330.562
329.801
329.013
328.236
327.519
326.976
321.012
321.429
321.985
322.588
323.201
323.793
324.33
324.777
325.099
325.269
325.269
325.099
324.777
324.33
323.793
323.201
322.588
321.985
321.429
321.012
315.029
315.324
315.72
316.151
316.589
317.011
317.395
317.714
317.944
318.065
318.065
317.944
317.714
317.395
317.011
316.589
316.151
315.72
315.324
315.029
309.033
309.209
309.447
309.705
309.968
310.222
310.452
310.644
310.782
310.854
310.854
310.782
310.644
310.452
310.222
309.968
309.705
309.447
309.209
309.033
303.029
303.088
303.167
303.254
303.342
303.427
303.504
303.569
303.615
303.639
303.639
303.615
303.569
303.504
303.427
303.342
303.254
303.167
303.088
303.029
345.357
346.27
347.416
348.641
349.877
351.066
352.143
353.037
353.68
354.016
354.016
353.68
353.037
352.143
351.066
349.877
348.641
347.416
346.27
345.357
339.387
340.16
341.149
342.209
343.279
344.308
345.239
346.013
346.568
346.86
346.86
346.568
346.013
345.239
344.308
343.279
342.209
341.149
340.16
339.387
333.387
334.028
334.861
335.756
336.661
337.531
338.318
338.971
339.441
339.687
339.687
339.441
338.971
338.318
337.531
336.661
335.756
334.861
334.028
333.387
327.36
327.875
328.554
329.286
330.026
330.737
331.38
331.914
332.298
332.498
332.498
332.298
331.914
331.38
330.737
330.026
329.286
328.554
327.875
327.36
321.31
321.705
322.232
322.801
323.376
323.929
324.429
324.843
325.141
325.297
325.297
325.141
324.843
324.429
323.929
323.376
322.801
322.232
321.705
321.31
315.242
315.522
315.897
316.303
316.714
317.109
317.466
317.762
317.975
318.086
318.086
317.975
317.762
317.466
317.109
316.714
316.303
315.897
315.522
315.242
309.161
309.328
309.553
309.797
310.043
310.28
310.495
310.673
310.8
310.867
310.867
310.8
310.673
310.495
310.28
310.043
309.797
309.553
309.328
309.161
303.072
303.127
303.203
303.285
303.367
303.447
303.519
303.578
303.621
303.643
303.643
303.621
303.578
303.519
303.447
303.367
303.285
303.203
303.127
303.072
346.111
346.973
348.051
349.198
350.35
351.452
352.446
353.268
353.857
354.165
354.165
353.857
353.268
352.446
351.452
350.35
349.198
348.051
346.973
346.111
340.039
340.768
341.699
342.691
343.688
344.643
345.503
346.214
346.723
346.99
346.99
346.723
346.214
345.503
344.643
343.688
342.691
341.699
340.768
340.039
333.937
334.542
335.325
336.164
337.008
337.814
338.541
339.142
339.573
339.798
339.798
339.573
339.142
338.541
337.814
337.008
336.164
335.325
334.542
333.937
327.809
328.296
328.934
329.62
330.309
330.969
331.563
332.054
332.406
332.59
332.59
332.406
332.054
331.563
330.969
330.309
329.62
328.934
328.296
327.809
321.658
322.032
322.528
323.06
323.597
324.109
324.571
324.953
325.226
325.369
325.369
325.226
324.953
324.571
324.109
323.597
323.06
322.528
322.032
321.658
315.491
315.755
316.108
316.489
316.872
317.238
317.568
317.84
318.036
318.138
318.138
318.036
317.84
317.568
317.238
316.872
316.489
316.108
315.755
315.491
309.31
309.468
309.68
309.908
310.138
310.358
310.556
310.72
310.837
310.898
310.898
310.837
310.72
310.556
310.358
310.138
309.908
309.68
309.468
309.31
303.122
303.174
303.245
303.322
303.399
303.473
303.539
303.594
303.633
303.654
303.654
303.633
303.594
303.539
303.473
303.399
303.322
303.245
303.174
303.122
346.979
347.79
348.799
349.866
350.933
351.948
352.86
353.61
354.147
354.427
354.427
354.147
353.61
352.86
351.948
350.933
349.866
348.799
347.79
346.979
340.79
341.475
342.345
343.27
344.193
345.073
345.862
346.511
346.975
347.218
347.218
346.975
346.511
345.862
345.073
344.193
343.27
342.345
341.475
340.79
334.571
335.139
335.872
336.654
337.435
338.178
338.845
339.394
339.786
339.991
339.991
339.786
339.394
338.845
338.178
337.435
336.654
335.872
335.139
334.571
328.326
328.784
329.381
330.02
330.659
331.267
331.812
332.261
332.582
332.749
332.749
332.582
332.261
331.812
331.267
330.659
330.02
329.381
328.784
328.326
322.061
322.412
322.875
323.372
323.868
324.341
324.765
325.114
325.363
325.493
325.493
325.363
325.114
324.765
324.341
323.868
323.372
322.875
322.412
322.061
315.778
316.026
316.357
316.711
317.066
317.404
317.706
317.955
318.133
318.226
318.226
318.133
317.955
317.706
317.404
317.066
316.711
316.357
316.026
315.778
309.482
309.631
309.829
310.042
310.255
310.457
310.639
310.789
310.896
310.951
310.951
310.896
310.789
310.639
310.457
310.255
310.042
309.829
309.631
309.482
303.179
303.229
303.295
303.367
303.438
303.506
303.567
303.617
303.653
303.672
303.672
303.653
303.617
303.567
303.506
303.438
303.367
303.295
303.229
303.179
347.968
348.726
349.665
350.654
351.637
352.568
353.399
354.08
354.566
354.818
354.818
354.566
354.08
353.399
352.568
351.637
350.654
349.665
348.726
347.968
341.645
342.286
343.096
343.952
344.803
345.609
346.329
346.919
347.339
347.558
347.558
347.339
346.919
346.329
345.609
344.803
343.952
343.096
342.286
341.645
335.293
335.824
336.507
337.23
337.95
338.632
339.24
339.739
340.095
340.28
340.28
340.095
339.739
339.24
338.632
337.95
337.23
336.507
335.824
335.293
328.916
329.344
329.9
330.492
331.08
331.638
332.136
332.544
332.834
332.985
332.985
332.834
332.544
332.136
331.638
331.08
330.492
329.9
329.344
328.916
322.519
322.847
323.278
323.738
324.196
324.63
325.017
325.334
325.559
325.677
325.677
325.559
325.334
325.017
324.63
324.196
323.738
323.278
322.847
322.519
316.105
316.337
316.645
316.973
317.3
317.61
317.886
318.113
318.274
318.358
318.358
318.274
318.113
317.886
317.61
317.3
316.973
316.645
316.337
316.105
309.679
309.817
310.002
310.199
310.395
310.581
310.747
310.883
310.98
311.03
311.03
310.98
310.883
310.747
310.581
310.395
310.199
310.002
309.817
309.679
303.245
303.292
303.353
303.419
303.485
303.548
303.603
303.649
303.681
303.698
303.698
303.681
303.649
303.603
303.548
303.485
303.419
303.353
303.292
303.245
349.082
349.788
350.659
351.57
352.471
353.32
354.075
354.691
355.128
355.356
355.356
355.128
354.691
354.075
353.32
352.471
351.57
350.659
349.788
349.082
342.608
343.205
343.956
344.745
345.526
346.261
346.914
347.448
347.827
348.024
348.024
347.827
347.448
346.914
346.261
345.526
344.745
343.956
343.205
342.608
336.106
336.601
337.234
337.901
338.561
339.183
339.736
340.187
340.507
340.674
340.674
340.507
340.187
339.736
339.183
338.561
337.901
337.234
336.601
336.106
329.58
329.979
330.494
331.04
331.58
332.089
332.541
332.91
333.172
333.308
333.308
333.172
332.91
332.541
332.089
331.58
331.04
330.494
329.979
329.58
323.035
323.34
323.74
324.165
324.585
324.98
325.332
325.619
325.822
325.928
325.928
325.822
325.619
325.332
324.98
324.585
324.165
323.74
323.34
323.035
316.473
316.689
316.975
317.277
317.578
317.86
318.111
318.316
318.462
318.537
318.537
318.462
318.316
318.111
317.86
317.578
317.277
316.975
316.689
316.473
309.9
310.029
310.2
310.382
310.562
310.732
310.883
311.006
311.093
311.138
311.138
311.093
311.006
310.883
310.732
310.562
310.382
310.2
310.029
309.9
303.319
303.362
303.42
303.481
303.541
303.598
303.649
303.69
303.719
303.734
303.734
303.719
303.69
303.649
303.598
303.541
303.481
303.42
303.362
303.319
350.325
350.98
351.784
352.621
353.444
354.216
354.898
355.453
355.845
356.049
356.049
355.845
355.453
354.898
354.216
353.444
352.621
351.784
350.98
350.325
343.682
344.236
344.93
345.655
346.368
347.036
347.627
348.108
348.448
348.624
348.624
348.448
348.108
347.627
347.036
346.368
345.655
344.93
344.236
343.682
337.014
337.473
338.057
338.67
339.274
339.839
340.339
340.745
341.033
341.182
341.182
341.033
340.745
340.339
339.839
339.274
338.67
338.057
337.473
337.014
330.322
330.691
331.168
331.669
332.163
332.625
333.034
333.366
333.602
333.724
333.724
333.602
333.366
333.034
332.625
332.163
331.669
331.168
330.691
330.322
323.611
323.894
324.264
324.654
325.037
325.397
325.715
325.974
326.157
326.252
326.252
326.157
325.974
325.715
325.397
325.037
324.654
324.264
323.894
323.611
316.884
317.085
317.348
317.627
317.901
318.158
318.385
318.57
318.701
318.768
318.768
318.701
318.57
318.385
318.158
317.901
317.627
317.348
317.085
316.884
310.147
310.266
310.424
310.591
310.756
310.911
311.047
311.158
311.236
311.277
311.277
311.236
311.158
311.047
310.911
310.756
310.591
310.424
310.266
310.147
303.402
303.442
303.495
303.551
303.606
303.658
303.704
303.741
303.767
303.781
303.781
303.767
303.741
303.704
303.658
303.606
303.551
303.495
303.442
303.402
351.7
352.305
353.045
353.812
354.562
355.26
355.875
356.373
356.725
356.907
356.907
356.725
356.373
355.875
355.26
354.562
353.812
353.045
352.305
351.7
344.871
345.383
346.022
346.686
347.335
347.941
348.474
348.905
349.21
349.367
349.367
349.21
348.905
348.474
347.941
347.335
346.686
346.022
345.383
344.871
338.017
338.442
338.98
339.541
340.091
340.603
341.054
341.419
341.677
341.81
341.81
341.677
341.419
341.054
340.603
340.091
339.541
338.98
338.442
338.017
331.142
331.483
331.922
332.381
332.831
333.25
333.619
333.917
334.128
334.237
334.237
334.128
333.917
333.619
333.25
332.831
332.381
331.922
331.483
331.142
324.248
324.51
324.85
325.207
325.557
325.883
326.17
326.402
326.566
326.651
326.651
326.566
326.402
326.17
325.883
325.557
325.207
324.85
324.51
324.248
317.339
317.525
317.767
318.022
318.272
318.505
318.71
318.876
318.993
319.054
319.054
318.993
318.876
318.71
318.505
318.272
318.022
317.767
317.525
317.339
310.42
310.53
310.676
310.829
310.979
311.119
311.242
311.342
311.412
311.448
311.448
311.412
311.342
311.242
311.119
310.979
310.829
310.676
310.53
310.42
303.494
303.53
303.579
303.631
303.681
303.728
303.769
303.802
303.826
303.838
303.838
303.826
303.802
303.769
303.728
303.681
303.631
303.579
303.53
303.494
353.207
353.765
354.445
355.145
355.826
356.457
357.01
357.457
357.77
357.933
357.933
357.77
357.457
357.01
356.457
355.826
355.145
354.445
353.765
353.207
346.174
346.646
347.232
347.839
348.429
348.976
349.456
349.842
350.114
350.255
350.255
350.114
349.842
349.456
348.976
348.429
347.839
347.232
346.646
346.174
339.118
339.509
340.003
340.516
341.015
341.478
341.884
342.211
342.441
342.56
342.56
342.441
342.211
341.884
341.478
341.015
340.516
340.003
339.509
339.118
332.041
332.355
332.758
333.178
333.586
333.965
334.297
334.565
334.753
334.85
334.85
334.753
334.565
334.297
333.965
333.586
333.178
332.758
332.355
332.041
324.946
325.188
325.5
325.826
326.144
326.439
326.697
326.905
327.052
327.128
327.128
327.052
326.905
326.697
326.439
326.144
325.826
325.5
325.188
324.946
317.837
318.008
318.231
318.464
318.691
318.902
319.086
319.235
319.34
319.394
319.394
319.34
319.235
319.086
318.902
318.691
318.464
318.231
318.008
317.837
310.719
310.821
310.954
311.094
311.231
311.357
311.468
311.557
311.62
311.653
311.653
311.62
311.557
311.468
311.357
311.231
311.094
310.954
310.821
310.719
303.594
303.628
303.673
303.719
303.765
303.808
303.845
303.875
303.896
303.907
303.907
303.896
303.875
303.845
303.808
303.765
303.719
303.673
303.628
303.594
354.842
355.356
355.978
356.617
357.234
357.804
358.301
358.7
358.98
359.124
359.124
358.98
358.7
358.301
357.804
357.234
356.617
355.978
355.356
354.842
347.587
348.021
348.558
349.111
349.646
350.14
350.571
350.917
351.16
351.285
351.285
351.16
350.917
350.571
350.14
349.646
349.111
348.558
348.021
347.587
340.31
340.67
341.123
341.59
342.043
342.461
342.826
343.119
343.324
343.43
343.43
343.324
343.119
342.826
342.461
342.043
341.59
341.123
340.67
340.31
333.014
333.303
333.673
334.055
334.426
334.768
335.066
335.306
335.474
335.561
335.561
335.474
335.306
335.066
334.768
334.426
334.055
333.673
333.303
333.014
325.702
325.924
326.21
326.508
326.796
327.062
327.294
327.481
327.612
327.679
327.679
327.612
327.481
327.294
327.062
326.796
326.508
326.21
325.924
325.702
318.377
318.534
318.738
318.951
319.157
319.347
319.513
319.646
319.74
319.788
319.788
319.74
319.646
319.513
319.347
319.157
318.951
318.738
318.534
318.377
311.042
311.136
311.259
311.386
311.51
311.624
311.724
311.804
311.86
311.889
311.889
311.86
311.804
311.724
311.624
311.51
311.386
311.259
311.136
311.042
303.702
303.734
303.775
303.817
303.859
303.897
303.93
303.957
303.976
303.986
303.986
303.976
303.957
303.93
303.897
303.859
303.817
303.775
303.734
303.702
356.588
357.061
357.631
358.212
358.772
359.286
359.732
360.089
360.339
360.468
360.468
360.339
360.089
359.732
359.286
358.772
358.212
357.631
357.061
356.588
349.093
349.492
349.984
350.488
350.973
351.419
351.806
352.116
352.332
352.444
352.444
352.332
352.116
351.806
351.419
350.973
350.488
349.984
349.492
349.093
341.579
341.91
342.324
342.751
343.161
343.539
343.866
344.129
344.312
344.407
344.407
344.312
344.129
343.866
343.539
343.161
342.751
342.324
341.91
341.579
334.048
334.315
334.653
335.001
335.338
335.646
335.915
336.129
336.28
336.357
336.357
336.28
336.129
335.915
335.646
335.338
335.001
334.653
334.315
334.048
326.504
326.708
326.971
327.242
327.503
327.744
327.952
328.12
328.236
328.297
328.297
328.236
328.12
327.952
327.744
327.503
327.242
326.971
326.708
326.504
318.949
319.093
319.28
319.474
319.661
319.833
319.982
320.101
320.185
320.228
320.228
320.185
320.101
319.982
319.833
319.661
319.474
319.28
319.093
318.949
311.385
311.472
311.584
311.7
311.812
311.916
312.005
312.077
312.127
312.153
312.153
312.127
312.077
312.005
311.916
311.812
311.7
311.584
311.472
311.385
303.817
303.846
303.883
303.922
303.96
303.995
304.025
304.049
304.066
304.074
304.074
304.066
304.049
304.025
303.995
303.96
303.922
303.883
303.846
303.817
358.401
358.836
359.358
359.888
360.396
360.861
361.263
361.583
361.807
361.922
361.922
361.807
361.583
361.263
360.861
360.396
359.888
359.358
358.836
358.401
350.649
351.017
351.468
351.927
352.368
352.771
353.12
353.398
353.592
353.692
353.692
353.592
353.398
353.12
352.771
352.368
351.927
351.468
351.017
350.649
342.885
343.189
343.569
343.959
344.332
344.674
344.969
345.204
345.369
345.453
345.453
345.369
345.204
344.969
344.674
344.332
343.959
343.569
343.189
342.885
335.109
335.354
335.664
335.983
336.289
336.568
336.81
337.003
337.138
337.207
337.207
337.138
337.003
336.81
336.568
336.289
335.983
335.664
335.354
335.109
327.324
327.512
327.753
328.001
328.239
328.457
328.645
328.795
328.9
328.954
328.954
328.9
328.795
328.645
328.457
328.239
328.001
327.753
327.512
327.324
319.532
319.665
319.837
320.014
320.184
320.34
320.474
320.582
320.657
320.695
320.695
320.657
320.582
320.474
320.34
320.184
320.014
319.837
319.665
319.532
311.735
311.814
311.917
312.023
312.126
312.219
312.3
312.365
312.41
312.433
312.433
312.41
312.365
312.3
312.219
312.126
312.023
311.917
311.814
311.735
303.934
303.961
303.995
304.031
304.065
304.096
304.123
304.145
304.16
304.168
304.168
304.16
304.145
304.123
304.096
304.065
304.031
303.995
303.961
303.934
360.162
360.563
361.045
361.532
361.997
362.42
362.785
363.075
363.277
363.381
363.381
363.277
363.075
362.785
362.42
361.997
361.532
361.045
360.563
360.162
352.142
352.482
352.898
353.321
353.725
354.093
354.41
354.662
354.838
354.928
354.928
354.838
354.662
354.41
354.093
353.725
353.321
352.898
352.482
352.142
344.124
344.406
344.757
345.115
345.458
345.77
346.039
346.253
346.402
346.478
346.478
346.402
346.253
346.039
345.77
345.458
345.115
344.757
344.406
344.124
336.106
336.333
336.62
336.914
337.194
337.45
337.671
337.846
337.968
338.031
338.031
337.968
337.846
337.671
337.45
337.194
336.914
336.62
336.333
336.106
328.089
328.264
328.487
328.715
328.934
329.133
329.305
329.442
329.537
329.586
329.586
329.537
329.442
329.305
329.133
328.934
328.715
328.487
328.264
328.089
320.073
320.197
320.356
320.519
320.676
320.818
320.941
321.039
321.107
321.142
321.142
321.107
321.039
320.941
320.818
320.676
320.519
320.356
320.197
320.073
312.057
312.131
312.227
312.325
312.419
312.504
312.578
312.637
312.678
312.699
312.699
312.678
312.637
312.578
312.504
312.419
312.325
312.227
312.131
312.057
304.042
304.066
304.098
304.131
304.163
304.192
304.216
304.236
304.25
304.257
304.257
304.25
304.236
304.216
304.192
304.163
304.131
304.098
304.066
304.042
361.554
361.932
362.384
362.841
363.276
363.671
364.01
364.279
364.467
364.563
364.563
364.467
364.279
364.01
363.671
363.276
362.841
362.384
361.932
361.554
353.277
353.598
353.991
354.389
354.768
355.112
355.408
355.643
355.806
355.89
355.89
355.806
355.643
355.408
355.112
354.768
354.389
353.991
353.598
353.277
345.036
345.303
345.635
345.974
346.296
346.588
346.84
347.04
347.179
347.25
347.25
347.179
347.04
346.84
346.588
346.296
345.974
345.635
345.303
345.036
336.822
337.038
337.309
337.587
337.852
338.092
338.299
338.463
338.577
338.636
338.636
338.577
338.463
338.299
338.092
337.852
337.587
337.309
337.038
336.822
328.629
328.794
329.006
329.222
329.428
329.616
329.777
329.906
329.995
330.04
330.04
329.995
329.906
329.777
329.616
329.428
329.222
329.006
328.794
328.629
320.449
320.567
320.718
320.872
321.02
321.155
321.27
321.362
321.426
321.459
321.459
321.426
321.362
321.27
321.155
321.02
320.872
320.718
320.567
320.449
312.28
312.35
312.44
312.534
312.622
312.703
312.773
312.828
312.867
312.886
312.886
312.867
312.828
312.773
312.703
312.622
312.534
312.44
312.35
312.28
304.116
304.139
304.169
304.201
304.231
304.258
304.281
304.3
304.312
304.319
304.319
304.312
304.3
304.281
304.258
304.231
304.201
304.169
304.139
304.116
)
;

boundaryField
{
    hotSide
    {
        type            fixedGradient;
        gradient        nonuniform List<scalar> 
400
(
447.508
448.433
450.296
453.119
456.936
461.79
467.728
474.803
483.069
492.581
503.391
515.549
529.101
544.086
560.541
578.497
597.979
619.008
641.6
665.769
462.404
463.211
464.842
467.328
470.713
475.054
480.414
486.861
494.465
503.296
513.418
524.893
537.776
552.115
567.952
585.321
604.251
624.764
646.876
670.6
478.523
479.19
480.545
482.63
485.505
489.243
493.927
499.644
506.485
514.535
523.876
534.583
546.72
560.345
575.504
592.236
610.571
630.533
652.136
675.393
495.601
496.103
497.138
498.759
501.045
504.091
508.003
512.895
518.877
526.058
534.537
544.401
555.73
568.586
583.022
599.081
616.792
636.18
657.259
680.037
513.158
513.477
514.151
515.253
516.882
519.161
522.225
526.214
531.266
537.513
545.072
554.048
564.529
576.587
590.28
605.651
622.732
641.544
662.1
684.405
530.465
530.586
530.875
531.423
532.357
533.827
536.002
539.051
543.144
548.433
555.059
563.14
572.775
584.044
597.007
611.709
628.181
646.441
666.499
688.357
546.528
546.452
546.358
546.356
546.6
547.275
548.579
550.717
553.882
558.256
563.995
571.233
580.077
590.613
602.904
616.994
632.913
650.675
670.287
691.747
560.162
559.908
559.468
558.972
558.6
558.566
559.1
560.434
562.789
566.367
571.34
577.854
586.025
595.942
607.667
621.246
636.705
654.056
673.302
694.435
570.139
569.749
569.044
568.172
567.331
566.759
566.71
567.441
569.19
572.175
576.582
582.564
590.241
599.705
611.021
624.231
639.36
656.416
675.401
696.303
575.426
574.961
574.113
573.035
571.939
571.076
570.713
571.118
572.542
575.211
579.315
585.014
592.43
601.655
612.755
625.772
640.727
657.63
676.478
697.26
575.426
574.961
574.113
573.035
571.939
571.076
570.713
571.118
572.542
575.211
579.315
585.014
592.43
601.655
612.755
625.772
640.727
657.63
676.478
697.26
570.139
569.749
569.044
568.172
567.331
566.759
566.71
567.441
569.19
572.175
576.582
582.564
590.241
599.705
611.021
624.231
639.36
656.416
675.401
696.303
560.162
559.908
559.468
558.972
558.6
558.566
559.1
560.434
562.789
566.367
571.34
577.854
586.025
595.942
607.667
621.246
636.705
654.056
673.302
694.435
546.528
546.452
546.358
546.356
546.6
547.275
548.579
550.717
553.882
558.256
563.995
571.233
580.077
590.613
602.904
616.994
632.913
650.675
670.287
691.747
530.465
530.586
530.875
531.423
532.357
533.827
536.002
539.051
543.144
548.433
555.059
563.14
572.775
584.044
597.007
611.709
628.181
646.441
666.499
688.357
513.158
513.477
514.151
515.253
516.882
519.161
522.225
526.214
531.266
537.513
545.072
554.048
564.529
576.587
590.28
605.651
622.732
641.544
662.1
684.405
495.601
496.103
497.138
498.759
501.045
504.091
508.003
512.895
518.877
526.058
534.537
544.401
555.73
568.586
583.022
599.081
616.792
636.18
657.259
680.037
478.523
479.19
480.545
482.63
485.505
489.243
493.927
499.644
506.485
514.535
523.876
534.583
546.72
560.345
575.504
592.236
610.571
630.533
652.136
675.393
462.404
463.211
464.842
467.328
470.713
475.054
480.414
486.861
494.465
503.296
513.418
524.893
537.776
552.115
567.952
585.321
604.251
624.764
646.876
670.6
447.508
448.433
450.296
453.119
456.936
461.79
467.728
474.803
483.069
492.581
503.391
515.549
529.101
544.086
560.541
578.497
597.979
619.008
641.6
665.769
)
;
    }
    coldSide
    {
        type            mixed;
        refValue        uniform 300;
        refGradient     uniform 0;
        valueFraction   uniform 0.991591;
        source          uniform 0;
        value           nonuniform List<scalar> 
400
(
300.024
300.024
300.025
300.025
300.025
300.025
300.025
300.026
300.026
300.027
300.027
300.028
300.029
300.029
300.03
300.031
300.032
300.033
300.034
300.035
300.025
300.025
300.025
300.025
300.025
300.026
300.026
300.026
300.027
300.027
300.028
300.028
300.029
300.03
300.031
300.031
300.032
300.033
300.034
300.035
300.026
300.026
300.026