/*--------------------------------*- C++ -*----------------------------------*\
| =========                 |                                                 |
| \\      /  F ield         | OpenFOAM: The Open Source CFD Toolbox           |
|  \\    /   O peration     | Version:  2212                                  |
|   \\  /    A nd           | Website:  www.openfoam.com                      |
|    \\/     M anipulation  |                                                 |
\*---------------------------------------------------------------------------*/
FoamFile
{
    version     2.0;
    format      ascii;
    arch        "LSB;label=32;scalar=64";
    class       volScalarField;
    location    "0";
    object      T;
}
// * * * * * * * * * * * * * * * * * * * * * * * * * * * * * * * * * * * * * //

dimensions      [0 0 0 1 0 0 0];

internalField   nonuniform List<scalar> 
3200
(
353.511
352.559
351.737
351.595
351.831
352.331
352.997
353.544
353.952
354.295
354.103
353.595
352.85
351.887
350.622
349.556
348.458
348.047
348.201
349.016
346.527
345.784
345.076
344.951
345.167
345.603
346.169
346.67
347.013
347.355
347.165
346.75
346.093
345.263
344.176
343.283
342.305
341.969
342.104
342.754
339.53
338.913
338.325
338.21
338.38
338.788
339.239
339.702
339.973
340.287
340.123
339.784
339.241
338.52
337.613
336.882
336.02
335.764
335.858
336.381
332.468
331.969
331.488
331.388
331.515
331.872
332.232
332.658
332.837
333.119
332.99
332.706
332.261
331.679
330.937
330.342
329.644
329.44
329.501
329.926
325.322
324.97
324.562
324.5
324.599
324.893
325.155
325.519
325.621
325.87
325.752
325.538
325.199
324.744
324.158
323.719
323.17
322.999
323.084
323.392
318.117
317.905
317.588
317.555
317.63
317.851
318.05
318.312
318.347
318.539
318.458
318.296
318.055
317.759
317.312
317.005
316.617
316.483
316.58
316.781
310.884
310.779
310.577
310.571
310.615
310.753
310.888
311.021
311.044
311.165
311.103
311.018
310.863
310.695
310.427
310.236
310.001
309.916
309.989
310.113
303.66
303.615
303.544
303.55
303.56
303.612
303.649
303.701
303.721
303.752
303.732
303.7
303.643
303.59
303.501
303.45
303.357
303.336
303.353
303.386
353.519
352.499
351.628
351.543
351.905
352.53
353.218
353.806
354.37
354.534
354.55
353.98
353.128
352.114
350.874
349.543
348.571
348.085
348.281
348.809
346.551
345.735
344.996
344.927
345.233
345.776
346.376
346.869
347.396
347.518
347.526
347.07
346.312
345.455
344.39
343.223
342.403
342.008
342.184
342.641
339.529
338.885
338.261
338.191
338.428
338.919
339.438
339.832
340.298
340.403
340.396
340.054
339.395
338.683
337.784
336.788
336.125
335.775
335.959
336.306
332.448
331.951
331.441
331.377
331.534
331.974
332.397
332.722
333.086
333.206
333.187
332.944
332.352
331.807
331.077
330.256
329.722
329.438
329.607
329.86
325.307
324.926
324.546
324.481
324.606
324.961
325.268
325.534
325.807
325.939
325.909
325.763
325.272
324.83
324.259
323.625
323.234
322.997
323.136
323.331
318.111
317.858
317.608
317.558
317.634
317.879
318.095
318.304
318.5
318.572
318.549
318.473
318.112
317.785
317.379
316.933
316.679
316.471
316.602
316.726
310.887
310.766
310.598
310.578
310.608
310.749
310.884
311.023
311.137
311.174
311.156
311.133
310.904
310.712
310.464
310.186
310.056
309.898
309.993
310.072
303.652
303.622
303.556
303.546
303.558
303.613
303.645
303.707
303.734
303.754
303.75
303.724
303.659
303.593
303.503
303.43
303.382
303.315
303.353
303.38
353.537
352.636
351.727
351.765
352.259
352.9
353.533
354.277
354.852
355.171
355.07
354.586
353.695
352.555
351.236
349.804
348.878
348.323
348.488
348.979
346.574
345.866
345.071
345.115
345.532
346.088
346.624
347.272
347.804
348.04
347.992
347.556
346.797
345.805
344.709
343.462
342.693
342.231
342.395
342.762
339.532
338.973
338.317
338.371
338.72
339.152
339.62
340.179
340.641
340.8
340.818
340.45
339.801
338.952
338.056
336.993
336.363
335.989
336.158
336.412
332.46
332.032
331.489
331.523
331.81
332.136
332.546
332.996
333.366
333.513
333.532
333.242
332.699
332.024
331.294
330.452
329.903
329.624
329.779
329.924
325.339
325.004
324.599
324.596
324.808
325.056
325.408
325.78
326.019
326.174
326.174
325.963
325.523
324.987
324.437
323.787
323.348
323.141
323.301
323.368
318.171
317.921
317.634
317.636
317.776
317.948
318.196
318.462
318.643
318.755
318.736
318.614
318.275
317.891
317.52
317.044
316.719
316.597
316.704
316.748
310.935
310.779
310.604
310.624
310.695
310.792
310.951
311.121
311.227
311.291
311.256
311.19
310.994
310.757
310.552
310.261
310.058
309.974
310.053
310.077
303.671
303.624
303.559
303.572
303.586
303.615
303.667
303.729
303.751
303.794
303.775
303.758
303.683
303.611
303.534
303.437
303.369
303.346
303.375
303.389
353.716
352.803
352.137
352.118
352.551
353.209
354.003
354.795
355.573
355.925
355.892
355.357
354.38
353.305
351.748
350.324
349.294
348.615
348.658
349.151
346.726
346.002
345.401
345.418
345.802
346.339
347.017
347.7
348.375
348.689
348.685
348.203
347.378
346.471
345.147
343.915
343.037
342.449
342.525
342.902
339.68
339.104
338.608
338.624
338.956
339.409
339.936
340.516
341.107
341.37
341.386
340.99
340.285
339.531
338.432
337.398
336.648
336.171
336.233
336.541
332.595
332.121
331.711
331.729
332.008
332.374
332.789
333.276
333.767
333.967
333.984
333.688
333.112
332.506
331.614
330.749
330.139
329.769
329.834
330.045
325.422
325.075
324.742
324.737
324.978
325.282
325.568
325.988
326.318
326.501
326.514
326.293
325.839
325.399
324.718
324.037
323.546
323.285
323.314
323.475
318.209
317.994
317.723
317.709
317.874
318.116
318.321
318.637
318.822
318.995
318.984
318.823
318.522
318.213
317.729
317.241
316.905
316.713
316.718
316.837
310.937
310.831
310.663
310.643
310.752
310.901
311.017
311.206
311.328
311.429
311.411
311.312
311.155
310.975
310.668
310.38
310.173
310.064
310.077
310.146
303.668
303.639
303.587
303.573
303.604
303.664
303.689
303.752
303.801
303.835
303.826
303.792
303.746
303.69
303.584
303.484
303.414
303.385
303.382
303.406
354.183
353.246
352.728
352.606
352.999
353.753
354.683
355.479
356.32
356.743
356.748
356.27
355.276
354.015
352.433
351.032
349.981
349.144
349.075
349.586
347.135
346.364
345.917
345.852
346.155
346.811
347.611
348.295
349.033
349.426
349.438
349.006
348.155
347.063
345.72
344.546
343.645
342.938
342.881
343.283
340.002
339.415
339.019
339.004
339.232
339.792
340.451
341.026
341.684
342.011
342.007
341.639
340.95
340.012
338.884
337.93
337.19
336.593
336.536
336.851
332.805
332.382
332.029
332.036
332.214
332.684
333.235
333.687
334.236
334.498
334.495
334.176
333.662
332.891
331.98
331.209
330.593
330.122
330.073
330.323
325.577
325.278
324.978
324.976
325.145
325.512
325.938
326.302
326.703
326.921
326.922
326.645
326.284
325.694
324.992
324.391
323.907
323.555
323.498
323.709
318.315
318.08
317.87
317.892
318.014
318.281
318.585
318.84
319.131
319.274
319.288
319.083
318.846
318.416
317.911
317.496
317.152
316.898
316.866
317.007
311.027
310.855
310.739
310.755
310.844
311
311.171
311.334
311.505
311.603
311.585
311.474
311.331
311.078
310.797
310.536
310.315
310.18
310.163
310.258
303.699
303.639
303.6
303.613
303.639
303.706
303.743
303.796
303.867
303.895
303.88
303.846
303.797
303.712
303.629
303.535
303.465
303.415
303.407
303.446
354.708
353.767
353.373
353.25
353.657
354.46
355.391
356.347
357.167
357.649
357.685
357.27
356.301
354.769
353.321
351.903
350.688
349.863
349.75
350.202
347.583
346.814
346.459
346.377
346.725
347.404
348.239
349.045
349.769
350.164
350.215
349.864
349.055
347.74
346.479
345.291
344.257
343.545
343.438
343.824
340.384
339.782
339.456
339.386
339.729
340.292
340.991
341.684
342.291
342.609
342.665
342.359
341.701
340.602
339.531
338.537
337.688
337.108
337
337.318
333.122
332.68
332.385
332.328
332.627
333.112
333.659
334.215
334.711
334.996
335.036
334.8
334.249
333.364
332.497
331.689
330.999
330.537
330.446
330.708
325.814
325.506
325.254
325.205
325.479
325.841
326.266
326.664
327.075
327.3
327.338
327.169
326.737
326.054
325.383
324.765
324.225
323.854
323.789
323.997
318.465
318.272
318.068
318.069
318.267
318.515
318.83
319.064
319.397
319.562
319.573
319.454
319.142
318.685
318.186
317.739
317.377
317.112
317.057
317.218
311.097
311.005
310.87
310.887
310.985
311.137
311.308
311.471
311.666
311.761
311.772
311.701
311.503
311.254
310.943
310.671
310.452
310.302
310.253
310.358
303.718
303.689
303.653
303.651
303.688
303.737
303.787
303.847
303.913
303.939
303.953
303.921
303.846
303.778
303.676
303.573
303.502
303.455
303.443
303.481
355.251
354.407
353.925
354.016
354.497
355.268
356.268
357.234
358.001
358.642
358.703
358.226
357.183
355.749
354.2
352.805
351.555
350.795
350.584
350.852
348.03
347.359
346.943
347.018
347.461
348.102
348.964
349.831
350.479
351.015
351.1
350.695
349.804
348.571
347.261
346.059
344.987
344.348
344.144
344.366
340.756
340.227
339.852
339.945
340.342
340.855
341.57
342.335
342.87
343.313
343.405
343.067
342.318
341.268
340.198
339.185
338.27
337.766
337.589
337.775
333.415
333.029
332.706
332.796
333.147
333.533
334.094
334.754
335.204
335.545
335.651
335.344
334.76
333.899
333.046
332.192
331.47
331.079
330.906
331.031
326.051
325.751
325.518
325.596
325.86
326.149
326.555
327.124
327.455
327.724
327.828
327.58
327.13
326.448
325.809
325.097
324.591
324.284
324.129
324.23
318.651
318.439
318.262
318.34
318.545
318.721
318.988
319.423
319.646
319.846
319.915
319.749
319.447
318.967
318.485
317.978
317.627
317.422
317.31
317.367
311.21
311.086
310.977
311.034
311.161
311.261
311.42
311.677
311.812
311.933
311.977
311.893
311.706
311.429
311.129
310.807
310.611
310.501
310.425
310.435
303.757
303.718
303.678
303.699
303.751
303.782
303.832
303.915
303.962
304.005
304.011
303.995
303.924
303.844
303.735
303.632
303.558
303.534
303.499
303.504
355.869
355.259
354.828
354.78
355.238
356.021
357.011
358.012
358.802
359.438
359.596
359.179
358.086
356.646
355.065
353.654
352.364
351.677
351.368
351.519
348.593
348.071
347.729
347.648
348.062
348.743
349.598
350.485
351.154
351.704
351.858
351.487
350.564
349.336
347.987
346.766
345.677
345.073
344.83
344.932
341.243
340.806
340.529
340.465
340.808
341.421
342.124
342.882
343.428
343.887
344.037
343.714
342.958
341.926
340.809
339.779
338.849
338.352
338.169
338.237
333.831
333.49
333.262
333.239
333.5
333.996
334.543
335.203
335.66
336.017
336.15
335.89
335.271
334.426
333.518
332.682
331.938
331.524
331.383
331.429
326.374
326.132
325.945
325.936
326.137
326.533
326.916
327.471
327.835
328.084
328.2
328.008
327.538
326.872
326.189
325.49
324.946
324.611
324.521
324.549
318.879
318.714
318.568
318.571
318.736
319.004
319.256
319.688
319.931
320.091
320.183
320.064
319.741
319.253
318.767
318.248
317.876
317.636
317.553
317.581
311.358
311.262
311.159
311.16
311.282
311.454
311.57
311.842
311.969
312.055
312.127
312.068
311.886
311.59
311.323
310.981
310.764
310.615
310.557
310.584
303.816
303.774
303.749
303.748
303.787
303.85
303.881
303.965
304.01
304.045
304.066
304.051
303.996
303.886
303.805
303.688
303.614
303.561
303.546
303.543
356.739
356.093
355.661
355.594
356.028
356.736
357.814
358.834
359.653
360.272
360.608
360.11
358.989
357.545
355.896
354.459
353.151
352.377
352.257
352.425
349.32
348.797
348.446
348.369
348.749
349.367
350.3
351.195
351.891
352.391
352.735
352.299
351.347
350.136
348.706
347.47
346.358
345.68
345.595
345.718
341.841
341.433
341.145
341.072
341.4
341.942
342.709
343.48
344.072
344.456
344.771
344.415
343.626
342.622
341.417
340.366
339.453
338.852
338.817
338.886
334.311
334.006
333.766
333.715
334
334.43
335.051
335.704
336.18
336.473
336.731
336.45
335.814
334.991
334.033
333.138
332.422
331.929
331.946
331.957
326.749
326.523
326.327
326.28
326.519
326.842
327.358
327.853
328.235
328.449
328.636
328.438
327.904
327.314
326.566
325.861
325.305
324.943
324.967
324.948
319.132
318.997
318.848
318.792
318.984
319.219
319.599
319.947
320.211
320.367
320.482
320.359
319.951
319.576
319.014
318.542
318.144
317.889
317.892
317.89
311.493
311.427
311.326
311.297
311.421
311.551
311.801
312.001
312.164
312.264
312.329
312.259
311.982
311.782
311.441
311.165
310.915
310.771
310.757
310.76
303.853
303.828
303.804
303.79
303.833
303.87
303.965
304.012
304.095
304.121
304.141
304.118
304.015
303.945
303.849
303.747
303.67
303.615
303.613
303.611
357.62
356.921
356.508
356.478
356.924
357.601
358.713
359.586
360.43
361.085
361.427
360.965
359.826
358.343
356.653
355.169
354.049
353.396
353.223
353.357
350.078
349.497
349.151
349.149
349.538
350.116
351.075
351.835
352.566
353.119
353.435
353.049
352.091
350.791
349.347
348.085
347.11
346.558
346.412
346.511
342.489
342.013
341.738
341.734
342.067
342.573
343.365
344.029
344.649
345.083
345.36
345.053
344.259
343.144
341.939
340.881
340.059
339.593
339.482
339.548
334.839
334.455
334.274
334.249
334.543
334.963
335.565
336.125
336.655
336.974
337.218
336.982
336.332
335.421
334.433
333.565
332.92
332.545
332.46
332.521
327.15
326.85
326.723
326.72
326.933
327.261
327.716
328.185
328.588
328.818
329.01
328.85
328.338
327.633
326.844
326.18
325.689
325.403
325.368
325.389
319.432
319.217
319.128
319.146
319.274
319.509
319.833
320.185
320.48
320.622
320.756
320.651
320.294
319.777
319.223
318.735
318.399
318.207
318.176
318.209
311.681
311.544
311.516
311.519
311.584
311.726
311.943
312.142
312.326
312.405
312.474
312.41
312.197
311.885
311.571
311.254
311.064
310.984
310.939
310.953
303.911
303.874
303.871
303.869
303.887
303.94
304.004
304.075
304.12
304.155
304.183
304.158
304.098
303.983
303.893
303.777
303.708
303.699
303.674
303.672
358.601
357.795
357.407
357.43
357.834
358.446
359.383
360.288
361.135
361.722
362.066
361.503
360.429
358.977
357.342
356.058
354.869
354.224
354.007
354.256
350.914
350.271
349.93
349.954
350.304
350.85
351.693
352.444
353.182
353.693
353.978
353.5
352.587
351.343
349.943
348.842
347.848
347.262
347.1
347.297
343.178
342.69
342.387
342.418
342.722
343.184
343.914
344.543
345.146
345.573
345.794
345.442
344.692
343.633
342.437
341.508
340.704
340.209
340.062
340.239
335.412
335.055
334.802
334.809
335.067
335.441
336.052
336.556
337.066
337.376
337.551
337.329
336.707
335.833
334.875
334.09
333.447
333.06
332.921
333.084
327.601
327.355
327.149
327.129
327.348
327.657
328.125
328.477
328.928
329.142
329.258
329.13
328.653
327.968
327.226
326.58
326.101
325.817
325.706
325.843
319.772
319.592
319.444
319.434
319.584
319.81
320.127
320.367
320.739
320.865
320.922
320.861
320.516
320.047
319.507
319.024
318.704
318.492
318.435
318.514
311.894
311.785
311.688
311.695
311.782
311.93
312.099
312.232
312.479
312.552
312.583
312.556
312.344
312.056
311.731
311.457
311.259
311.119
311.096
311.135
303.991
303.957
303.924
303.924
303.959
304.013
304.047
304.103
304.186
304.211
304.221
304.222
304.138
304.051
303.933
303.851
303.78
303.73
303.718
303.733
359.585
358.775
358.254
358.318
358.733
359.174
360.122
361.011
361.805
362.329
362.476
361.956
360.984
359.592
358.149
356.856
355.799
355.121
354.802
355.062
351.765
351.108
350.654
350.722
351.101
351.454
352.3
353.084
353.761
354.209
354.333
353.919
353.05
351.862
350.632
349.538
348.641
348.038
347.782
348.016
343.907
343.358
343.008
343.069
343.392
343.662
344.397
345.072
345.639
346.003
346.125
345.816
345.063
344.056
343.015
342.124
341.369
340.854
340.665
340.855
335.981
335.553
335.294
335.354
335.624
335.821
336.412
336.981
337.456
337.743
337.858
337.624
337.001
336.183
335.304
334.604
333.983
333.563
333.414
333.597
328.028
327.736
327.53
327.556
327.762
327.934
328.378
328.837
329.21
329.44
329.514
329.371
328.869
328.246
327.524
327.008
326.527
326.22
326.071
326.237
320.051
319.839
319.732
319.729
319.854
320.012
320.299
320.657
320.91
321.074
321.108
321.053
320.669
320.228
319.714
319.357
319.016
318.792
318.674
318.817
312.053
311.924
311.867
311.876
311.932
312.033
312.205
312.427
312.593
312.674
312.678
312.676
312.441
312.171
311.848
311.667
311.438
311.307
311.232
311.321
304.038
303.996
303.972
303.989
303.998
304.04
304.094
304.168
304.219
304.244
304.244
304.26
304.18
304.089
303.97
303.914
303.833
303.788
303.781
303.793
360.496
359.726
359.186
359.143
359.548
360.017
360.722
361.629
362.425
362.75
362.912
362.463
361.513
360.197
358.822
357.538
356.629
355.937
355.715
355.976
352.548
351.917
351.44
351.407
351.795
352.185
352.826
353.603
354.31
354.559
354.742
354.325
353.516
352.41
351.226
350.12
349.368
348.743
348.583
348.798
344.588
344.069
343.653
343.642
343.99
344.281
344.837
345.496
346.094
346.303
346.486
346.122
345.438
344.536
343.535
342.617
342
341.452
341.342
341.501
336.577
336.159
335.811
335.84
336.124
336.329
336.771
337.332
337.831
338
338.148
337.843
337.304
336.572
335.762
335.018
334.532
334.06
333.98
334.105
328.494
328.204
327.936
327.97
328.179
328.307
328.667
329.07
329.517
329.643
329.764
329.51
329.103
328.537
327.903
327.334
326.954
326.608
326.511
326.62
320.382
320.192
320.002
320.037
320.164
320.251
320.526
320.822
321.131
321.224
321.322
321.143
320.854
320.428
320.003
319.585
319.314
319.09
318.986
319.064
312.24
312.137
312.036
312.051
312.122
312.16
312.339
312.534
312.694
312.774
312.829
312.726
312.545
312.28
312.044
311.785
311.613
311.493
311.417
311.469
304.098
304.075
304.031
304.038
304.07
304.074
304.141
304.212
304.253
304.287
304.308
304.271
304.211
304.11
304.043
303.946
303.898
303.862
303.827
303.84
361.449
360.72
360.175
360.013
360.364
360.772
361.389
362.155
362.892
363.202
363.204
362.762
362.039
360.809
359.476
358.264
357.443
356.778
356.585
356.849
353.388
352.791
352.296
352.174
352.486
352.856
353.379
354.036
354.717
354.945
354.979
354.587
353.989
352.943
351.779
350.759
350.062
349.489
349.324
349.551
345.275
344.806
344.381
344.289
344.529
344.846
345.279
345.852
346.457
346.664
346.669
346.325
345.856
344.972
343.996
343.141
342.546
342.084
341.955
342.153
337.147
336.734
336.415
336.331
336.538
336.803
337.129
337.6
338.13
338.31
338.3
338.009
337.66
336.918
336.144
335.415
334.971
334.584
334.478
334.651
328.964
328.643
328.386
328.326
328.466
328.689
328.935
329.326
329.737
329.911
329.872
329.642
329.407
328.794
328.211
327.614
327.309
327.008
326.911
327.045
320.746
320.483
320.334
320.304
320.373
320.518
320.7
320.999
321.299
321.445
321.386
321.208
321.081
320.611
320.205
319.771
319.576
319.354
319.266
319.379
312.463
312.3
312.236
312.211
312.236
312.329
312.463
312.622
312.808
312.905
312.852
312.752
312.692
312.391
312.167
311.895
311.782
311.658
311.578
311.656
304.178
304.12
304.095
304.089
304.103
304.125
304.176
304.241
304.292
304.333
304.31
304.274
304.27
304.153
304.086
303.99
303.951
303.908
303.883
303.922
362.438
361.558
361.063
360.93
361.161
361.443
362.117
362.785
363.318
363.664
363.61
363.171
362.413
361.314
360.129
359.018
358.21
357.548
357.512
357.816
354.236
353.487
353.051
352.955
353.155
353.393
354.002
354.598
355.074
355.37
355.327
354.926
354.309
353.373
352.35
351.428
350.725
350.174
350.131
350.372
345.995
345.379
345.011
344.909
345.107
345.304
345.824
346.352
346.747
347.01
346.964
346.602
346.134
345.35
344.475
343.699
343.124
342.673
342.636
342.813
337.72
337.248
336.923
336.817
336.995
337.169
337.599
338.038
338.337
338.571
338.551
338.211
337.876
337.226
336.514
335.885
335.446
335.081
335.04
335.161
329.388
329.042
328.789
328.675
328.854
328.996
329.313
329.664
329.881
330.08
330.067
329.781
329.553
329.028
328.472
327.999
327.671
327.402
327.368
327.434
321.027
320.788
320.61
320.502
320.657
320.763
320.972
321.231
321.394
321.53
321.513
321.309
321.176
320.769
320.406
320.049
319.839
319.632
319.615
319.662
312.63
312.493
312.407
312.311
312.424
312.494
312.611
312.77
312.856
312.946
312.924
312.815
312.742
312.48
312.287
312.068
311.95
311.804
311.798
311.841
304.232
304.181
304.173
304.116
304.172
304.193
304.228
304.283
304.305
304.34
304.338
304.311
304.284
304.187
304.14
304.044
304.011
303.958
303.948
303.979
363.325
362.555
362.116
361.93
361.999
362.279
362.836
363.371
363.75
364.141
364.029
363.614
362.894
362.003
360.781
359.782
358.902
358.586
358.369
358.617
354.982
354.344
353.982
353.843
353.865
354.121
354.613
355.104
355.413
355.787
355.696
355.34
354.717
353.971
352.923
352.066
351.343
351.048
350.854
351.056
346.611
346.096
345.804
345.666
345.682
345.908
346.344
346.774
347.002
347.343
347.276
346.982
346.469
345.836
344.975
344.269
343.685
343.409
343.236
343.408
338.215
337.834
337.589
337.443
337.464
337.638
338.027
338.394
338.537
338.83
338.808
338.542
338.166
337.64
336.939
336.365
335.921
335.669
335.513
335.672
329.775
329.504
329.299
329.176
329.219
329.336
329.635
329.942
330.042
330.242
330.244
330.053
329.773
329.369
328.821
328.382
328.053
327.857
327.712
327.848
321.297
321.123
320.963
320.881
320.944
320.993
321.223
321.411
321.493
321.646
321.645
321.53
321.323
321.038
320.639
320.314
320.116
319.949
319.853
319.947
312.808
312.7
312.605
312.557
312.603
312.615
312.762
312.861
312.925
313.023
313.019
312.952
312.824
312.657
312.419
312.206
312.098
312
311.922
312.014
304.287
304.256
304.219
304.211
304.236
304.229
304.277
304.318
304.336
304.367
304.365
304.339
304.303
304.249
304.169
304.083
304.053
304.037
303.999
304.043
364.337
363.653
363.113
362.933
362.898
363.164
363.615
364.084
364.296
364.546
364.422
363.951
363.304
362.408
361.368
360.623
359.756
359.354
359.379
359.678
355.828
355.282
354.84
354.7
354.67
354.88
355.27
355.718
355.876
356.119
356.04
355.602
355.082
354.311
353.395
352.801
352.053
351.727
351.735
351.967
347.305
346.886
346.532
346.421
346.409
346.563
346.87
347.296
347.394
347.595
347.562
347.179
346.786
346.123
345.37
344.886
344.24
344.001
343.972
344.147
338.767
338.455
338.157
338.095
338.084
338.193
338.416
338.805
338.845
339.048
339.022
338.702
338.413
337.865
337.249
336.87
336.342
336.147
336.121
336.234
330.21
329.967
329.729
329.678
329.684
329.753
329.928
330.252
330.269
330.436
330.42
330.163
329.95
329.536
329.042
328.754
328.355
328.2
328.186
328.251
321.616
321.441
321.269
321.235
321.242
321.265
321.421
321.648
321.676
321.781
321.78
321.588
321.446
321.172
320.792
320.585
320.296
320.191
320.17
320.226
313.004
312.904
312.776
312.772
312.771
312.786
312.879
313.021
313.044
313.098
313.123
312.99
312.9
312.752
312.516
312.383
312.182
312.138
312.12
312.144
304.358
304.331
304.278
304.288
304.27
304.29
304.315
304.372
304.373
304.393
304.404
304.358
304.32
304.272
304.187
304.149
304.088
304.067
304.064
304.069
365.393
364.638
364.237
363.912
363.964
364.092
364.357
364.721
364.881
365.067
364.901
364.442
363.773
362.953
362.034
361.451
360.702
360.378
360.39
360.739
356.767
356.127
355.828
355.533
355.586
355.718
355.916
356.269
356.405
356.57
356.439
356.063
355.478
354.789
353.992
353.52
352.871
352.617
352.62
352.887
348.108
347.58
347.379
347.104
347.146
347.254
347.425
347.773
347.871
348.007
347.904
347.603
347.113
346.521
345.851
345.49
344.947
344.738
344.712
344.941
339.409
339.013
338.889
338.641
338.648
338.74
338.89
339.206
339.273
339.393
339.302
339.062
338.658
338.174
337.611
337.353
336.923
336.734
336.719
336.904
330.693
330.414
330.327
330.132
330.116
330.164
330.324
330.568
330.614
330.711
330.663
330.458
330.177
329.75
329.338
329.144
328.83
328.659
328.666
328.785
321.967
321.763
321.714
321.56
321.529
321.574
321.707
321.885
321.891
321.966
321.967
321.813
321.635
321.304
321.014
320.869
320.651
320.524
320.528
320.595
313.204
313.079
313.067
312.964
312.927
312.955
313.055
313.17
313.166
313.203
313.229
313.11
313.009
312.82
312.643
312.568
312.416
312.353
312.353
312.382
304.425
304.391
304.388
304.349
304.331
304.338
304.384
304.419
304.413
304.426
304.443
304.394
304.356
304.305
304.244
304.197
304.163
304.129
304.146
304.151
366.522
365.686
364.992
364.718
364.818
364.812
364.998
365.323
365.439
365.489
365.255
364.928
364.241
363.626
362.743
362.146
361.519
361.246
361.336
361.79
357.732
357.034
356.431
356.215
356.32
356.323
356.465
356.772
356.842
356.928
356.728
356.477
355.859
355.351
354.583
354.105
353.553
353.31
353.412
353.777
348.905
348.335
347.851
347.675
347.786
347.743
347.873
348.16
348.199
348.316
348.125
347.931
347.412
346.974
346.345
345.981
345.486
345.28
345.399
345.666
340.07
339.588
339.2
339.083
339.196
339.137
339.24
339.508
339.52
339.628
339.47
339.312
338.909
338.551
338.028
337.75
337.355
337.143
337.272
337.491
331.224
330.84
330.534
330.438
330.525
330.477
330.586
330.791
330.793
330.893
330.769
330.644
330.336
330.047
329.647
329.426
329.145
328.945
329.09
329.233
322.361
322.086
321.823
321.781
321.834
321.795
321.898
322.044
322.04
322.11
322.024
321.941
321.687
321.507
321.208
321.069
320.875
320.695
320.83
320.915
313.434
313.277
313.11
313.094
313.112
313.109
313.164
313.255
313.262
313.306
313.235
313.183
313.032
312.928
312.753
312.682
312.561
312.452
312.535
312.567
304.512
304.452
304.398
304.394
304.391
304.404
304.415
304.447
304.448
304.461
304.44
304.422
304.378
304.334
304.282
304.251
304.209
304.19
304.209
304.222
367.38
366.582
365.767
365.506
365.398
365.447
365.557
365.785
365.936
365.838
365.578
365.292
364.717
364.049
363.311
362.634
362.12
361.938
362.133
362.491
358.449
357.787
357.044
356.849
356.781
356.821
356.923
357.132
357.253
357.21
356.982
356.723
356.248
355.67
355.072
354.502
354.037
353.885
354.046
354.332
349.49
348.956
348.31
348.165
348.133
348.169
348.254
348.44
348.547
348.534
348.326
348.106
347.695
347.244
346.744
346.298
345.873
345.742
345.894
346.119
340.523
340.115
339.577
339.462
339.454
339.472
339.554
339.689
339.81
339.813
339.642
339.438
339.094
338.751
338.328
338.026
337.628
337.518
337.637
337.842
331.555
331.233
330.794
330.74
330.736
330.715
330.806
330.924
331.016
331.042
330.9
330.74
330.465
330.19
329.852
329.67
329.327
329.236
329.342
329.523
322.565
322.354
322.02
321.998
321.978
321.957
322.04
322.106
322.187
322.226
322.113
322.017
321.803
321.583
321.347
321.25
320.991
320.911
321.001
321.14
313.557
313.431
313.228
313.223
313.198
313.204
313.253
313.277
313.325
313.377
313.308
313.245
313.093
312.954
312.827
312.792
312.629
312.585
312.628
312.719
304.549
304.501
304.43
304.428
304.42
304.424
304.437
304.455
304.473
304.484
304.461
304.436
304.39
304.336
304.314
304.289
304.247
304.22
304.244
304.284
)
;

boundaryField
{
    hotSide
    {
        type            fixedGradient;
        gradient        nonuniform List<scalar> 
400
(
551.576
549.623
550.055
552.8
557.602
564.102
571.916
580.699
590.17
600.119
610.398
620.918
631.639
642.565
653.74
665.243
677.175
689.645
702.738
716.494
535.29
533.639
534.536
537.889
543.387
550.6
559.088
568.462
578.419
588.737
599.266
609.92
620.666
631.52
642.543
653.833
665.52
677.74
690.603
704.166
526.099
525.033
526.473
530.316
536.246
543.831
552.627
562.241
572.362
582.763
593.293
603.867
614.457
625.089
635.834
646.802
658.132
669.969
682.434
695.589
523.509
523.296
525.375
529.632
535.788
543.466
552.262
561.809
571.805
582.024
592.313
602.59
612.834
623.077
633.397
643.909
654.75
666.057
677.947
690.487
525.727
526.543
529.38
534.113
540.501
548.221
556.924
566.278
575.997
585.862
595.728
605.517
615.219
624.878
634.584
644.454
654.624
665.225
676.365
688.119
530.692
532.628
536.354
541.726
548.516
556.433
565.158
574.38
583.825
593.282
602.615
611.762
620.736
629.604
638.478
647.492
656.79
666.502
676.742
687.589
536.642
539.735
544.462
550.658
558.085
566.451
575.431
584.706
593.991
603.073
611.826
620.215
628.294
636.175
644.011
651.973
660.222
668.907
678.144
688.022
542.152
546.373
552.158
559.32
567.598
576.669
586.17
595.733
605.031
613.823
621.99
629.541
636.591
643.329
649.977
656.754
663.858
671.454
679.669
688.593
546.024
551.244
558.035
566.194
575.433
585.385
595.621
605.688
615.175
623.785
631.398
638.079
644.043
649.581
655.005
660.594
666.585
673.159
680.446
688.535
547.254
553.204
560.783
569.779
579.888
590.7
601.715
612.377
622.164
630.699
637.852
643.758
648.746
653.228
657.603
662.208
667.306
673.089
679.685
687.177
545.106
551.368
559.326
568.769
579.383
590.734
602.272
613.368
623.41
631.956
638.864
644.32
648.74
652.616
656.406
660.48
665.117
670.511
676.79
684.031
539.264
545.321
553.125
562.463
573.015
584.34
595.882
607.007
617.101
625.72
632.718
638.274
642.795
646.77
650.656
654.827
659.569
665.081
671.497
678.896
529.951
535.299
542.433
551.139
561.095
571.869
582.936
593.721
603.686
612.443
619.847
626.018
631.269
636.004
640.627
645.489
650.872
656.985
663.973
671.925
517.957
522.204
528.306
536.054
545.13
555.12
565.541
575.891
585.719
594.699
602.685
609.724
616.02
621.869
627.597
633.514
639.89
646.941
654.823
663.639
504.576
507.487
512.395
519.104
527.299
536.572
546.463
556.515
566.332
575.622
584.232
592.155
599.51
606.504
613.396
620.455
627.939
636.068
645.01
654.874
491.561
493.051
496.769
502.536
510.023
518.799
528.39
538.347
548.288
557.935
567.125
575.818
584.079
592.058
599.968
608.054
616.569
625.742
635.757
646.723
481.145
481.262
483.894
488.876
495.845
504.315
513.772
523.744
533.849
543.812
553.467
562.754
571.708
580.446
589.152
598.06
607.428
617.505
628.491
640.498
475.937
474.869
476.553
480.84
487.33
495.486
504.756
514.653
524.796
534.916
544.848
554.524
563.959
573.248
582.555
592.103
602.152
612.968
624.763
637.647
478.225
476.299
477.171
480.711
486.53
494.101
502.884
512.407
522.307
532.322
542.291
552.14
561.871
571.558
581.345
591.431
602.06
613.485
625.905
639.419
488.757
486.332
486.519
489.214
494.1
500.737
508.659
517.452
526.782
536.406
546.167
555.983
565.845
575.807
585.982
596.536
607.668
619.583
632.439
646.313
)
;
    }
    coldSide
    {
        type            mixed;
        refValue        uniform 300;
        refGradient     uniform 0;
        valueFraction   uniform 0.991591;
        source          uniform 0;
        value           nonuniform List<scalar> 
400
(
300.031
300.031
300.031
300.031
300.031
300.031
300.032
300.032
300.032
300.033
300.034
300.034
300.034
300.035
300.036
300.036
300.037
300.037
300.038
300.038
300.03
300.03
300.03
300.031
300.031
300.031
300.031
300.032
300.032
300.033
300.033
300.034
300.034
300.035
300.035
300.036
300.036
300.037