/*--------------------------------*- C++ -*----------------------------------*\
| =========                 |                                                 |
| \\      /  F ield         | OpenFOAM: The Open Source CFD Toolbox           |
|  \\    /   O peration     | Version:  2212                                  |
|   \\  /    A nd           | Website:  www.openfoam.com                      |
|    \\/     M anipulation  |                                                 |
\*---------------------------------------------------------------------------*/
FoamFile
{
    version     2.0;
    format      ascii;
    arch        "LSB;label=32;scalar=64";
    class       volScalarField;
    location    "0";
    object      Tdirect;
}
// * * * * * * * * * * * * * * * * * * * * * * * * * * * * * * * * * * * * * //

dimensions      [0 0 0 1 0 0 0];

internalField   nonuniform List<scalar> 
3200
(
326.688
327.002
327.404
327.842
328.293
328.736
329.145
329.49
329.741
329.874
329.874
329.741
329.49
329.145
328.736
328.293
327.842
327.404
327.002
326.688
323.04
323.307
323.653
324.032
324.422
324.805
325.159
325.457
325.674
325.788
325.788
325.674
325.457
325.159
324.805
324.422
324.032
323.653
323.307
323.04
319.432
319.653
319.945
320.265
320.595
320.918
321.217
321.468
321.651
321.748
321.748
321.651
321.468
321.217
320.918
320.595
320.265
319.945
319.653
319.432
315.857
316.035
316.273
316.534
316.804
317.068
317.312
317.517
317.667
317.746
317.746
317.667
317.517
317.312
317.068
316.804
316.534
316.273
316.035
315.857
312.308
312.445
312.63
312.833
313.043
313.248
313.437
313.597
313.713
313.774
313.774
313.713
313.597
313.437
313.248
313.043
312.833
312.63
312.445
312.308
308.781
308.878
309.009
309.155
309.304
309.451
309.586
309.7
309.783
309.826
309.826
309.783
309.7
309.586
309.451
309.304
309.155
309.009
308.878
308.781
305.269
305.326
305.405
305.492
305.582
305.67
305.751
305.82
305.869
305.896
305.896
305.869
305.82
305.751
305.67
305.582
305.492
305.405
305.326
305.269
301.765
301.784
301.811
301.84
301.87
301.9
301.927
301.95
301.966
301.975
301.975
301.966
301.95
301.927
301.9
301.87
301.84
301.811
301.784
301.765
326.782
327.094
327.493
327.926
328.373
328.811
329.215
329.555
329.803
329.934
329.934
329.803
329.555
329.215
328.811
328.373
327.926
327.493
327.094
326.782
323.121
323.386
323.729
324.105
324.491
324.87
325.219
325.513
325.727
325.841
325.841
325.727
325.513
325.219
324.87
324.491
324.105
323.729
323.386
323.121
319.5
319.719
320.009
320.326
320.653
320.973
321.267
321.516
321.697
321.792
321.792
321.697
321.516
321.267
320.973
320.653
320.326
320.009
319.719
319.5
315.912
316.089
316.325
316.584
316.851
317.112
317.353
317.556
317.704
317.781
317.781
317.704
317.556
317.353
317.112
316.851
316.584
316.325
316.089
315.912
312.351
312.487
312.67
312.871
313.079
313.282
313.469
313.627
313.741
313.802
313.802
313.741
313.627
313.469
313.282
313.079
312.871
312.67
312.487
312.351
308.812
308.908
309.038
309.182
309.33
309.475
309.609
309.721
309.803
309.846
309.846
309.803
309.721
309.609
309.475
309.33
309.182
309.038
308.908
308.812
305.287
305.344
305.422
305.509
305.598
305.685
305.765
305.833
305.882
305.907
305.907
305.882
305.833
305.765
305.685
305.598
305.509
305.422
305.344
305.287
301.771
301.79
301.817
301.846
301.875
301.905
301.931
301.954
301.97
301.979
301.979
301.97
301.954
301.931
301.905
301.875
301.846
301.817
301.79
301.771
326.971
327.278
327.67
328.096
328.533
328.961
329.356
329.688
329.93
330.058
330.058
329.93
329.688
329.356
328.961
328.533
328.096
327.67
327.278
326.971
323.284
323.544
323.882
324.25
324.629
324.999
325.341
325.628
325.837
325.947
325.947
325.837
325.628
325.341
324.999
324.629
324.25
323.882
323.544
323.284
319.637
319.853
320.137
320.449
320.769
321.082
321.37
321.612
321.788
321.881
321.881
321.788
321.612
321.37
321.082
320.769
320.449
320.137
319.853
319.637
316.024
316.197
316.429
316.684
316.945
317.201
317.436
317.634
317.778
317.854
317.854
317.778
317.634
317.436
317.201
316.945
316.684
316.429
316.197
316.024
312.438
312.571
312.751
312.949
313.152
313.351
313.534
313.687
313.799
313.858
313.858
313.799
313.687
313.534
313.351
313.152
312.949
312.751
312.571
312.438
308.873
308.968
309.096
309.237
309.382
309.524
309.655
309.764
309.844
309.886
309.886
309.844
309.764
309.655
309.524
309.382
309.237
309.096
308.968
308.873
305.324
305.38
305.457
305.542
305.629
305.714
305.793
305.858
305.906
305.931
305.931
305.906
305.858
305.793
305.714
305.629
305.542
305.457
305.38
305.324
301.784
301.802
301.828
301.857
301.886
301.914
301.941
301.963
301.979
301.987
301.987
301.979
301.963
301.941
301.914
301.886
301.857
301.828
301.802
301.784
327.255
327.555
327.937
328.351
328.776
329.19
329.571
329.892
330.124
330.247
330.247
330.124
329.892
329.571
329.19
328.776
328.351
327.937
327.555
327.255
323.528
323.782
324.112
324.47
324.838
325.196
325.526
325.803
326.004
326.11
326.11
326.004
325.803
325.526
325.196
324.838
324.47
324.112
323.782
323.528
319.843
320.053
320.331
320.633
320.944
321.247
321.526
321.759
321.929
322.018
322.018
321.929
321.759
321.526
321.247
320.944
320.633
320.331
320.053
319.843
316.191
316.361
316.587
316.834
317.088
317.336
317.563
317.754
317.893
317.966
317.966
317.893
317.754
317.563
317.336
317.088
316.834
316.587
316.361
316.191
312.567
312.698
312.873
313.065
313.263
313.455
313.632
313.78
313.888
313.945
313.945
313.888
313.78
313.632
313.455
313.263
313.065
312.873
312.698
312.567
308.966
309.058
309.183
309.32
309.461
309.599
309.725
309.831
309.907
309.948
309.948
309.907
309.831
309.725
309.599
309.461
309.32
309.183
309.058
308.966
305.379
305.434
305.509
305.592
305.676
305.759
305.835
305.898
305.944
305.968
305.968
305.944
305.898
305.835
305.759
305.676
305.592
305.509
305.434
305.379
301.802
301.821
301.846
301.873
301.902
301.929
301.955
301.976
301.991
302
302
301.991
301.976
301.955
301.929
301.902
301.873
301.846
301.821
301.802
327.636
327.926
328.296
328.695
329.103
329.501
329.865
330.17
330.391
330.508
330.508
330.391
330.17
329.865
329.501
329.103
328.695
328.296
327.926
327.636
323.856
324.102
324.42
324.766
325.119
325.463
325.778
326.042
326.234
326.334
326.334
326.234
326.042
325.778
325.463
325.119
324.766
324.42
324.102
323.856
320.118
320.322
320.59
320.882
321.181
321.472
321.738
321.961
322.122
322.207
322.207
322.122
321.961
321.738
321.472
321.181
320.882
320.59
320.322
320.118
316.415
316.579
316.798
317.037
317.281
317.519
317.736
317.918
318.05
318.119
318.119
318.05
317.918
317.736
317.519
317.281
317.037
316.798
316.579
316.415
312.741
312.867
313.037
313.222
313.412
313.597
313.766
313.907
314.01
314.064
314.064
314.01
313.907
313.766
313.597
313.412
313.222
313.037
312.867
312.741
309.089
309.179
309.3
309.432
309.568
309.699
309.82
309.921
309.994
310.033
310.033
309.994
309.921
309.82
309.699
309.568
309.432
309.3
309.179
309.089
305.453
305.507
305.579
305.659
305.74
305.819
305.892
305.952
305.996
306.019
306.019
305.996
305.952
305.892
305.819
305.74
305.659
305.579
305.507
305.453
301.827
301.845
301.869
301.896
301.923
301.95
301.974
301.994
302.009
302.017
302.017
302.009
301.994
301.974
301.95
301.923
301.896
301.869
301.845
301.827
328.113
328.393
328.748
329.13
329.518
329.896
330.24
330.528
330.737
330.846
330.846
330.737
330.528
330.24
329.896
329.518
329.13
328.748
328.393
328.113
324.267
324.504
324.81
325.14
325.477
325.803
326.102
326.351
326.531
326.625
326.625
326.531
326.351
326.102
325.803
325.477
325.14
324.81
324.504
324.267
320.464
320.66
320.918
321.197
321.482
321.758
322.01
322.22
322.372
322.452
322.452
322.372
322.22
322.01
321.758
321.482
321.197
320.918
320.66
320.464
316.696
316.855
317.065
317.293
317.526
317.752
317.957
318.129
318.253
318.319
318.319
318.253
318.129
317.957
317.752
317.526
317.293
317.065
316.855
316.696
312.959
313.081
313.243
313.421
313.602
313.777
313.937
314.071
314.167
314.218
314.218
314.167
314.071
313.937
313.777
313.602
313.421
313.243
313.081
312.959
309.245
309.331
309.447
309.573
309.703
309.828
309.942
310.038
310.106
310.143
310.143
310.106
310.038
309.942
309.828
309.703
309.573
309.447
309.331
309.245
305.546
305.598
305.667
305.743
305.821
305.896
305.965
306.022
306.064
306.085
306.085
306.064
306.022
305.965
305.896
305.821
305.743
305.667
305.598
305.546
301.858
301.875
301.899
301.924
301.95
301.975
301.998
302.018
302.031
302.039
302.039
302.031
302.018
301.998
301.975
301.95
301.924
301.899
301.875
301.858
328.69
328.957
329.295
329.658
330.025
330.38
330.703
330.973
331.167
331.269
331.269
331.167
330.973
330.703
330.38
330.025
329.658
329.295
328.957
328.69
324.763
324.99
325.281
325.595
325.913
326.22
326.5
326.733
326.901
326.989
326.989
326.901
326.733
326.5
326.22
325.913
325.595
325.281
324.99
324.763
320.881
321.069
321.314
321.579
321.848
322.108
322.345
322.541
322.683
322.758
322.758
322.683
322.541
322.345
322.108
321.848
321.579
321.314
321.069
320.881
317.036
317.187
317.388
317.604
317.824
318.037
318.23
318.391
318.507
318.567
318.567
318.507
318.391
318.23
318.037
317.824
317.604
317.388
317.187
317.036
313.222
313.338
313.494
313.662
313.833
313.998
314.149
314.273
314.363
314.411
314.411
314.363
314.273
314.149
313.998
313.833
313.662
313.494
313.338
313.222
309.432
309.514
309.625
309.745
309.867
309.986
310.093
310.182
310.246
310.28
310.28
310.246
310.182
310.093
309.986
309.867
309.745
309.625
309.514
309.432
305.659
305.708
305.774
305.847
305.92
305.991
306.055
306.109
306.147
306.167
306.167
306.147
306.109
306.055
305.991
305.92
305.847
305.774
305.708
305.659
301.896
301.912
301.934
301.959
301.983
302.007
302.029
302.046
302.059
302.066
302.066
302.059
302.046
302.029
302.007
301.983
301.959
301.934
301.912
301.896
329.366
329.621
329.94
330.282
330.627
330.958
331.259
331.508
331.687
331.781
331.781
331.687
331.508
331.259
330.958
330.627
330.282
329.94
329.621
329.366
325.345
325.56
325.836
326.132
326.43
326.718
326.978
327.193
327.349
327.43
327.43
327.349
327.193
326.978
326.718
326.43
326.132
325.836
325.56
325.345
321.37
321.549
321.781
322.031
322.284
322.527
322.746
322.929
323.06
323.129
323.129
323.06
322.929
322.746
322.527
322.284
322.031
321.781
321.549
321.37
317.435
317.579
317.768
317.972
318.179
318.378
318.557
318.706
318.813
318.869
318.869
318.813
318.706
318.557
318.378
318.179
317.972
317.768
317.579
317.435
313.531
313.642
313.788
313.947
314.108
314.262
314.402
314.518
314.601
314.645
314.645
314.601
314.518
314.402
314.262
314.108
313.947
313.788
313.642
313.531
309.652
309.73
309.835
309.948
310.063
310.173
310.273
310.356
310.415
310.447
310.447
310.415
310.356
310.273
310.173
310.063
309.948
309.835
309.73
309.652
305.791
305.837
305.9
305.968
306.037
306.103
306.163
306.213
306.249
306.267
306.267
306.249
306.213
306.163
306.103
306.037
305.968
305.9
305.837
305.791
301.94
301.956
301.977
301.999
302.022
302.045
302.065
302.081
302.093
302.1
302.1
302.093
302.081
302.065
302.045
302.022
301.999
301.977
301.956
301.94
330.144
330.385
330.685
331.005
331.326
331.634
331.911
332.14
332.305
332.391
332.391
332.305
332.14
331.911
331.634
331.326
331.005
330.685
330.385
330.144
326.015
326.218
326.478
326.755
327.033
327.299
327.539
327.738
327.88
327.954
327.954
327.88
327.738
327.539
327.299
327.033
326.755
326.478
326.218
326.015
321.934
322.103
322.321
322.555
322.791
323.016
323.219
323.387
323.507
323.57
323.57
323.507
323.387
323.219
323.016
322.791
322.555
322.321
322.103
321.934
317.894
318.029
318.208
318.399
318.592
318.776
318.942
319.079
319.177
319.228
319.228
319.177
319.079
318.942
318.776
318.592
318.399
318.208
318.029
317.894
313.887
313.991
314.129
314.278
314.428
314.571
314.7
314.806
314.883
314.923
314.923
314.883
314.806
314.7
314.571
314.428
314.278
314.129
313.991
313.887
309.905
309.979
310.078
310.184
310.291
310.393
310.485
310.562
310.616
310.645
310.645
310.616
310.562
310.485
310.393
310.291
310.184
310.078
309.979
309.905
305.943
305.987
306.046
306.11
306.174
306.235
306.291
306.336
306.369
306.386
306.386
306.369
306.336
306.291
306.235
306.174
306.11
306.046
305.987
305.943
301.991
302.005
302.025
302.047
302.068
302.089
302.107
302.123
302.134
302.139
302.139
302.134
302.123
302.107
302.089
302.068
302.047
302.025
302.005
301.991
331.026
331.251
331.533
331.83
332.128
332.411
332.666
332.875
333.025
333.103
333.103
333.025
332.875
332.666
332.411
332.128
331.83
331.533
331.251
331.026
326.773
326.964
327.207
327.465
327.723
327.968
328.188
328.37
328.499
328.567
328.567
328.499
328.37
328.188
327.968
327.723
327.465
327.207
326.964
326.773
322.572
322.73
322.935
323.153
323.371
323.579
323.765
323.918
324.028
324.085
324.085
324.028
323.918
323.765
323.579
323.371
323.153
322.935
322.73
322.572
318.413
318.541
318.707
318.886
319.064
319.234
319.386
319.512
319.601
319.648
319.648
319.601
319.512
319.386
319.234
319.064
318.886
318.707
318.541
318.413
314.289
314.387
314.516
314.655
314.794
314.926
315.044
315.142
315.211
315.248
315.248
315.211
315.142
315.044
314.926
314.794
314.655
314.516
314.387
314.289
310.192
310.262
310.354
310.453
310.552
310.646
310.731
310.8
310.85
310.876
310.876
310.85
310.8
310.731
310.646
310.552
310.453
310.354
310.262
310.192
306.115
306.156
306.211
306.271
306.33
306.387
306.438
306.479
306.509
306.525
306.525
306.509
306.479
306.438
306.387
306.33
306.271
306.211
306.156
306.115
302.048
302.062
302.081
302.101
302.121
302.14
302.157
302.171
302.181
302.186
302.186
302.181
302.171
302.157
302.14
302.121
302.101
302.081
302.062
302.048
332.011
332.222
332.484
332.76
333.034
333.294
333.526
333.716
333.851
333.922
333.922
333.851
333.716
333.526
333.294
333.034
332.76
332.484
332.222
332.011
327.622
327.801
328.027
328.265
328.503
328.728
328.929
329.093
329.211
329.272
329.272
329.211
329.093
328.929
328.728
328.503
328.265
328.027
327.801
327.622
323.286
323.434
323.624
323.826
324.027
324.218
324.388
324.527
324.626
324.678
324.678
324.626
324.527
324.388
324.218
324.027
323.826
323.624
323.434
323.286
318.994
319.114
319.269
319.434
319.599
319.754
319.893
320.007
320.088
320.13
320.13
320.088
320.007
319.893
319.754
319.599
319.434
319.269
319.114
318.994
314.74
314.831
314.952
315.08
315.208
315.329
315.437
315.526
315.589
315.622
315.622
315.589
315.526
315.437
315.329
315.208
315.08
314.952
314.831
314.74
310.513
310.578
310.664
310.756
310.847
310.934
311.011
311.074
311.119
311.143
311.143
311.119
311.074
311.011
310.934
310.847
310.756
310.664
310.578
310.513
306.307
306.346
306.397
306.452
306.507
306.559
306.605
306.643
306.671
306.685
306.685
306.671
306.643
306.605
306.559
306.507
306.452
306.397
306.346
306.307
302.113
302.126
302.143
302.161
302.18
302.197
302.213
302.226
302.235
302.239
302.239
302.235
302.226
302.213
302.197
302.18
302.161
302.143
302.126
302.113
333.103
333.299
333.542
333.796
334.048
334.285
334.495
334.667
334.789
334.852
334.852
334.789
334.667
334.495
334.285
334.048
333.796
333.542
333.299
333.103
328.561
328.728
328.937
329.158
329.375
329.581
329.763
329.912
330.018
330.073
330.073
330.018
329.912
329.763
329.581
329.375
329.158
328.937
328.728
328.561
324.076
324.214
324.391
324.577
324.761
324.935
325.089
325.215
325.305
325.351
325.351
325.305
325.215
325.089
324.935
324.761
324.577
324.391
324.214
324.076
319.638
319.749
319.893
320.045
320.196
320.338
320.465
320.568
320.641
320.679
320.679
320.641
320.568
320.465
320.338
320.196
320.045
319.893
319.749
319.638
315.239
315.324
315.435
315.554
315.671
315.782
315.88
315.96
316.017
316.047
316.047
316.017
315.96
315.88
315.782
315.671
315.554
315.435
315.324
315.239
310.869
310.929
311.009
311.093
311.177
311.256
311.326
311.383
311.424
311.445
311.445
311.424
311.383
311.326
311.256
311.177
311.093
311.009
310.929
310.869
306.52
306.556
306.604
306.655
306.705
306.752
306.795
306.829
306.853
306.866
306.866
306.853
306.829
306.795
306.752
306.705
306.655
306.604
306.556
306.52
302.184
302.196
302.212
302.229
302.246
302.262
302.276
302.288
302.296
302.3
302.3
302.296
302.288
302.276
302.262
302.246
302.229
302.212
302.196
302.184
334.301
334.483
334.707
334.941
335.17
335.386
335.576
335.731
335.84
335.897
335.897
335.84
335.731
335.576
335.386
335.17
334.941
334.707
334.483
334.301
329.593
329.747
329.941
330.143
330.342
330.528
330.693
330.828
330.922
330.972
330.972
330.922
330.828
330.693
330.528
330.342
330.143
329.941
329.747
329.593
324.944
325.072
325.235
325.406
325.574
325.732
325.872
325.985
326.066
326.107
326.107
326.066
325.985
325.872
325.732
325.574
325.406
325.235
325.072
324.944
320.345
320.448
320.581
320.721
320.858
320.988
321.102
321.195
321.26
321.295
321.295
321.26
321.195
321.102
320.988
320.858
320.721
320.581
320.448
320.345
315.786
315.865
315.968
316.077
316.184
316.285
316.374
316.446
316.497
316.524
316.524
316.497
316.446
316.374
316.285
316.184
316.077
315.968
315.865
315.786
311.259
311.315
311.388
311.466
311.543
311.615
311.678
311.73
311.766
311.785
311.785
311.766
311.73
311.678
311.615
311.543
311.466
311.388
311.315
311.259
306.754
306.787
306.831
306.878
306.924
306.967
307.005
307.036
307.058
307.07
307.07
307.058
307.036
307.005
306.967
306.924
306.878
306.831
306.787
306.754
302.263
302.274
302.288
302.304
302.32
302.334
302.347
302.357
302.365
302.368
302.368
302.365
302.357
302.347
302.334
302.32
302.304
302.288
302.274
302.263
335.605
335.774
335.98
336.194
336.403
336.598
336.77
336.909
337.007
337.058
337.058
337.007
336.909
336.77
336.598
336.403
336.194
335.98
335.774
335.605
330.716
330.859
331.037
331.222
331.403
331.572
331.721
331.841
331.926
331.97
331.97
331.926
331.841
331.721
331.572
331.403
331.222
331.037
330.859
330.716
325.889
326.007
326.157
326.314
326.467
326.61
326.736
326.838
326.91
326.947
326.947
326.91
326.838
326.736
326.61
326.467
326.314
326.157
326.007
325.889
321.114
321.209
321.332
321.46
321.586
321.703
321.806
321.889
321.948
321.978
321.978
321.948
321.889
321.806
321.703
321.586
321.46
321.332
321.209
321.114
316.382
316.455
316.55
316.65
316.748
316.839
316.919
316.984
317.03
317.053
317.053
317.03
316.984
316.919
316.839
316.748
316.65
316.55
316.455
316.382
311.684
311.735
311.803
311.874
311.944
312.009
312.067
312.113
312.146
312.163
312.163
312.146
312.113
312.067
312.009
311.944
311.874
311.803
311.735
311.684
307.009
307.039
307.08
307.123
307.165
307.204
307.238
307.266
307.286
307.296
307.296
307.286
307.266
307.238
307.204
307.165
307.123
307.08
307.039
307.009
302.348
302.358
302.372
302.386
302.4
302.413
302.425
302.434
302.441
302.444
302.444
302.441
302.434
302.425
302.413
302.4
302.386
302.372
302.358
302.348
337.015
337.171
337.36
337.556
337.746
337.922
338.076
338.201
338.288
338.334
338.334
338.288
338.201
338.076
337.922
337.746
337.556
337.36
337.171
337.015
331.93
332.061
332.225
332.394
332.559
332.711
332.845
332.953
333.029
333.068
333.068
333.029
332.953
332.845
332.711
332.559
332.394
332.225
332.061
331.93
326.91
327.019
327.157
327.3
327.439
327.568
327.682
327.773
327.837
327.871
327.871
327.837
327.773
327.682
327.568
327.439
327.3
327.157
327.019
326.91
321.945
322.033
322.145
322.263
322.377
322.483
322.575
322.65
322.703
322.73
322.73
322.703
322.65
322.575
322.483
322.377
322.263
322.145
322.033
321.945
317.026
317.094
317.181
317.272
317.361
317.443
317.515
317.573
317.614
317.636
317.636
317.614
317.573
317.515
317.443
317.361
317.272
317.181
317.094
317.026
312.142
312.19
312.252
312.317
312.381
312.44
312.491
312.533
312.562
312.577
312.577
312.562
312.533
312.491
312.44
312.381
312.317
312.252
312.19
312.142
307.284
307.312
307.349
307.388
307.427
307.462
307.493
307.518
307.535
307.545
307.545
307.535
307.518
307.493
307.462
307.427
307.388
307.349
307.312
307.284
302.44
302.449
302.462
302.475
302.488
302.5
302.51
302.518
302.524
302.527
302.527
302.524
302.518
302.51
302.5
302.488
302.475
302.462
302.449
302.44
338.526
338.669
338.842
339.021
339.193
339.352
339.49
339.602
339.68
339.72
339.72
339.68
339.602
339.49
339.352
339.193
339.021
338.842
338.669
338.526
333.228
333.35
333.499
333.654
333.803
333.941
334.061
334.158
334.226
334.261
334.261
334.226
334.158
334.061
333.941
333.803
333.654
333.499
333.35
333.228
328.002
328.102
328.228
328.359
328.485
328.602
328.704
328.786
328.843
328.873
328.873
328.843
328.786
328.704
328.602
328.485
328.359
328.228
328.102
328.002
322.834
322.915
323.018
323.124
323.228
323.323
323.407
323.474
323.521
323.545
323.545
323.521
323.474
323.407
323.323
323.228
323.124
323.018
322.915
322.834
317.714
317.776
317.856
317.939
318.02
318.094
318.159
318.211
318.248
318.267
318.267
318.248
318.211
318.159
318.094
318.02
317.939
317.856
317.776
317.714
312.632
312.676
312.733
312.793
312.85
312.903
312.95
312.987
313.013
313.027
313.027
313.013
312.987
312.95
312.903
312.85
312.793
312.733
312.676
312.632
307.577
307.603
307.638
307.673
307.708
307.74
307.768
307.79
307.806
307.814
307.814
307.806
307.79
307.768
307.74
307.708
307.673
307.638
307.603
307.577
302.538
302.547
302.558
302.57
302.582
302.593
302.602
302.61
302.615
302.617
302.617
302.615
302.61
302.602
302.593
302.582
302.57
302.558
302.547
302.538
340.121
340.253
340.412
340.574
340.73
340.874
340.998
341.098
341.168
341.204
341.204
341.168
341.098
340.998
340.874
340.73
340.574
340.412
340.253
340.121
334.599
334.71
334.847
334.988
335.123
335.248
335.356
335.442
335.503
335.534
335.534
335.503
335.442
335.356
335.248
335.123
334.988
334.847
334.71
334.599
329.151
329.244
329.359
329.478
329.593
329.698
329.79
329.863
329.914
329.941
329.941
329.914
329.863
329.79
329.698
329.593
329.478
329.359
329.244
329.151
323.768
323.842
323.937
324.034
324.128
324.214
324.289
324.349
324.391
324.413
324.413
324.391
324.349
324.289
324.214
324.128
324.034
323.937
323.842
323.768
318.437
318.494
318.567
318.643
318.716
318.783
318.842
318.888
318.921
318.938
318.938
318.921
318.888
318.842
318.783
318.716
318.643
318.567
318.494
318.437
313.147
313.187
313.239
313.293
313.346
313.394
313.435
313.469
313.492
313.504
313.504
313.492
313.469
313.435
313.394
313.346
313.293
313.239
313.187
313.147
307.885
307.909
307.941
307.973
308.005
308.033
308.059
308.079
308.093
308.1
308.1
308.093
308.079
308.059
308.033
308.005
307.973
307.941
307.909
307.885
302.641
302.649
302.66
302.671
302.681
302.691
302.699
302.706
302.711
302.713
302.713
302.711
302.706
302.699
302.691
302.681
302.671
302.66
302.649
302.641
341.763
341.884
342.03
342.178
342.32
342.45
342.562
342.651
342.714
342.746
342.746
342.714
342.651
342.562
342.45
342.32
342.178
342.03
341.884
341.763
336.002
336.105
336.23
336.359
336.482
336.594
336.692
336.769
336.824
336.851
336.851
336.824
336.769
336.692
336.594
336.482
336.359
336.23
336.105
336.002
330.325
330.41
330.516
330.624
330.729
330.824
330.906
330.972
331.018
331.042
331.042
331.018
330.972
330.906
330.824
330.729
330.624
330.516
330.41
330.325
324.718
324.787
324.873
324.962
325.047
325.126
325.193
325.247
325.285
325.304
325.304
325.285
325.247
325.193
325.126
325.047
324.962
324.873
324.787
324.718
319.17
319.222
319.29
319.359
319.425
319.486
319.539
319.581
319.61
319.625
319.625
319.61
319.581
319.539
319.486
319.425
319.359
319.29
319.222
319.17
313.667
313.704
313.752
313.801
313.849
313.893
313.93
313.96
313.981
313.992
313.992
313.981
313.96
313.93
313.893
313.849
313.801
313.752
313.704
313.667
308.196
308.219
308.247
308.277
308.306
308.332
308.354
308.372
308.385
308.392
308.392
308.385
308.372
308.354
308.332
308.306
308.277
308.247
308.219
308.196
302.745
302.753
302.762
302.772
302.782
302.791
302.798
302.804
302.809
302.811
302.811
302.809
302.804
302.798
302.791
302.782
302.772
302.762
302.753
302.745
343.35
343.462
343.596
343.732
343.862
343.98
344.081
344.163
344.219
344.248
344.248
344.219
344.163
344.081
343.98
343.862
343.732
343.596
343.462
343.35
337.342
337.436
337.553
337.671
337.783
337.886
337.975
338.045
338.094
338.119
338.119
338.094
338.045
337.975
337.886
337.783
337.671
337.553
337.436
337.342
331.432
331.511
331.609
331.709
331.805
331.892
331.967
332.027
332.068
332.09
332.09
332.068
332.027
331.967
331.892
331.805
331.709
331.609
331.511
331.432
325.607
325.67
325.75
325.832
325.911
325.982
326.044
326.093
326.127
326.144
326.144
326.127
326.093
326.044
325.982
325.911
325.832
325.75
325.67
325.607
319.85
319.899
319.961
320.025
320.086
320.142
320.19
320.228
320.255
320.268
320.268
320.255
320.228
320.19
320.142
320.086
320.025
319.961
319.899
319.85
314.147
314.182
314.226
314.272
314.315
314.355
314.39
314.417
314.436
314.446
314.446
314.436
314.417
314.39
314.355
314.315
314.272
314.226
314.182
314.147
308.482
308.503
308.53
308.557
308.583
308.607
308.628
308.644
308.656
308.662
308.662
308.656
308.644
308.628
308.607
308.583
308.557
308.53
308.503
308.482
302.841
302.848
302.857
302.866
302.875
302.883
302.89
302.895
302.899
302.901
302.901
302.899
302.895
302.89
302.883
302.875
302.866
302.857
302.848
302.841
344.603
344.708
344.835
344.962
345.084
345.194
345.288
345.364
345.416
345.443
345.443
345.416
345.364
345.288
345.194
345.084
344.962
344.835
344.708
344.603
338.36
338.449
338.559
338.67
338.775
338.872
338.954
339.02
339.066
339.089
339.089
339.066
339.02
338.954
338.872
338.775
338.67
338.559
338.449
338.36
332.248
332.322
332.415
332.509
332.599
332.681
332.751
332.807
332.846
332.866
332.866
332.846
332.807
332.751
332.681
332.599
332.509
332.415
332.322
332.248
326.245
326.305
326.381
326.458
326.532
326.599
326.657
326.703
326.735
326.751
326.751
326.735
326.703
326.657
326.599
326.532
326.458
326.381
326.305
326.245
320.329
320.375
320.434
320.495
320.553
320.605
320.65
320.686
320.711
320.724
320.724
320.711
320.686
320.65
320.605
320.553
320.495
320.434
320.375
320.329
314.481
314.513
314.555
314.599
314.64
314.678
314.71
314.736
314.754
314.763
314.763
314.754
314.736
314.71
314.678
314.64
314.599
314.555
314.513
314.481
308.679
308.699
308.724
308.75
308.775
308.798
308.817
308.833
308.843
308.849
308.849
308.843
308.833
308.817
308.798
308.775
308.75
308.724
308.699
308.679
302.906
302.913
302.921
302.93
302.938
302.946
302.952
302.958
302.961
302.963
302.963
302.961
302.958
302.952
302.946
302.938
302.93
302.921
302.913
302.906
)
;

boundaryField
{
    hotSide
    {
        type            fixedGradient;
        gradient        nonuniform List<scalar> 
400
(
295.429
296.507
298.665
301.911
306.254
311.705
318.278
325.987
334.848
344.876
356.085
368.489
382.101
396.932
412.991
430.289
448.831
468.623
489.671
511.977
299.571
300.615
302.709
305.862
310.084
315.393
321.805
329.34
338.017
347.855
358.873
371.087
384.513
399.164
415.052
432.186
450.575
470.224
491.138
513.32
304.052
305.058
307.076
310.116
314.197
319.338
325.562
332.894
341.359
350.98
361.781
373.781
387
401.452
417.152
434.109
452.332
471.828
492.6
514.653
308.801
309.761
311.689
314.601
318.518
323.466
329.476
336.578
344.804
354.184
364.745
376.511
389.505
403.743
419.242
436.012
454.062
473.398
494.024
515.944
313.682
314.591
316.419
319.187
322.921
327.656
333.43
340.282
348.249
357.369
367.674
379.193
391.951
405.968
421.26
437.839
455.713
474.889
495.37
517.158
318.494
319.348
321.069
323.683
327.223
331.734
337.261
343.851
351.551
360.405
370.451
381.721
394.244
408.041
423.13
439.523
457.228
476.251
496.594
518.257
322.96
323.759
325.374
327.834
331.184
335.473
340.758
347.094
354.537
363.136
372.935
383.971
396.274
409.868
424.77
440.992
458.544
477.428
497.647
519.2
326.751
327.501
329.019
331.342
334.52
338.612
343.683
349.796
357.013
365.391
374.977
385.812
397.928
411.349
426.094
442.175
459.598
478.368
498.485
519.947
329.525
330.237
331.682
333.9
336.948
340.89
345.799
351.744
358.793
367.006
376.435
387.121
399.1
412.396
427.027
443.005
460.336
479.024
499.069
520.466
330.995
331.686
333.091
335.252
338.229
342.091
346.912
352.767
359.725
367.85
377.195
387.803
399.709
412.938
427.509
443.433
460.716
479.362
499.368
520.733
330.995
331.686
333.091
335.252
338.229
342.091
346.912
352.767
359.725
367.85
377.195
387.803
399.709
412.938
427.509
443.433
460.716
479.362
499.368
520.733
329.525
330.237
331.682
333.9
336.948
340.89
345.799
351.744
358.793
367.006
376.435
387.121
399.1
412.396
427.027
443.005
460.336
479.024
499.069
520.466
326.751
327.501
329.019
331.342
334.52
338.612
343.683
349.796
357.013
365.391
374.977
385.812
397.928
411.349
426.094
442.175
459.598
478.368
498.485
519.947
322.96
323.759
325.374
327.834
331.184
335.473
340.758
347.094
354.537
363.136
372.935
383.971
396.274
409.868
424.77
440.992
458.544
477.428
497.647
519.2
318.494
319.348
321.069
323.683
327.223
331.734
337.261
343.851
351.551
360.405
370.451
381.721
394.244
408.041
423.13
439.523
457.228
476.251
496.594
518.257
313.682
314.591
316.419
319.187
322.921
327.656
333.43
340.282
348.249
357.369
367.674
379.193
391.951
405.968
421.26
437.839
455.713
474.889
495.37
517.158
308.801
309.761
311.689
314.601
318.518
323.466
329.476
336.578
344.804
354.184
364.745
376.511
389.505
403.743
419.242
436.012
454.062
473.398
494.024
515.944
304.052
305.058
307.076
310.116
314.197
319.338
325.562
332.894
341.359
350.98
361.781
373.781
387
401.452
417.152
434.109
452.332
471.828
492.6
514.653
299.571
300.615
302.709
305.862
310.084
315.393
321.805
329.34
338.017
347.855
358.873
371.087
384.513
399.164
415.052
432.186
450.575
470.224
491.138
513.32
295.429
296.507
298.665
301.911
306.254
311.705
318.278
325.987
334.848
344.876
356.085
368.489
382.101
396.932
412.991
430.289
448.831
468.623
489.671
511.977
)
;
    }
    coldSide
    {
        type            mixed;
        refValue        uniform 300;
        refGradient     uniform 0;
        valueFraction   uniform 0.991591;
        source          uniform 0;
        value           nonuniform List<scalar> 
400
(
300.015
300.015
300.015
300.015
300.015
300.016
300.016
300.016
300.017
300.017
300.018
300.018
300.019
300.02
300.021
300.021
300.022
300.023
300.024
300.024
300.015
300.015
300.015
300.015
300.016
300.016
300.016
300.016
300.017
300.017
300.018
300.018
300.019
300.02
300.021
300.021
300.022