/*--------------------------------*- C++ -*----------------------------------*\
| =========                 |                                                 |
| \\      /  F ield         | OpenFOAM: The Open Source CFD Toolbox           |
|  \\    /   O peration     | Version:  2212                                  |
|   \\  /    A nd           | Website:  www.openfoam.com                      |
|    \\/     M anipulation  |                                                 |
\*---------------------------------------------------------------------------*/
FoamFile
{
    version     2.0;
    format      ascii;
    arch        "LSB;label=32;scalar=64";
    class       volScalarField;
    location    "0";
    object      T;
}
// * * * * * * * * * * * * * * * * * * * * * * * * * * * * * * * * * * * * * //

dimensions      [0 0 0 1 0 0 0];

internalField   nonuniform List<scalar> 
3200
(
332.561
333.433
334.315
335.024
335.486
335.58
336.304
336.585
336.888
336.844
336.722
336.663
336.524
336.413
335.945
335.387
335.039
334.012
333.449
332.922
328.305
329.065
329.852
330.445
330.829
330.914
331.577
331.816
332.062
331.993
331.892
331.85
331.755
331.702
331.25
330.79
330.429
329.542
329.071
328.619
323.972
324.659
325.294
325.808
326.187
326.197
326.79
327.014
327.204
327.132
326.988
327.017
326.942
326.904
326.537
326.149
325.759
325.026
324.653
324.315
319.621
320.232
320.765
321.182
321.464
321.465
321.965
322.184
322.286
322.23
322.103
322.163
322.145
322.072
321.782
321.409
321.095
320.483
320.167
319.972
315.289
315.818
316.176
316.523
316.75
316.711
317.128
317.307
317.286
317.314
317.22
317.286
317.244
317.218
316.988
316.622
316.387
315.929
315.676
315.579
310.966
311.362
311.538
311.891
312.011
311.979
312.272
312.398
312.335
312.409
312.307
312.394
312.314
312.331
312.173
311.826
311.741
311.383
311.214
311.171
306.612
306.838
306.938
307.196
307.24
307.222
307.391
307.464
307.415
307.495
307.388
307.418
307.411
307.426
307.314
307.081
307.046
306.83
306.738
306.715
302.214
302.304
302.344
302.439
302.456
302.424
302.476
302.486
302.486
302.523
302.479
302.488
302.483
302.481
302.438
302.373
302.365
302.285
302.254
302.252
333.677
334.32
335.276
335.843
336.546
336.707
337.245
337.596
337.708
337.694
337.692
337.63
337.641
337.222
336.888
336.508
335.972
335.264
334.533
333.73
329.211
329.776
330.61
331.073
331.753
331.811
332.335
332.646
332.746
332.701
332.695
332.641
332.645
332.282
331.971
331.651
331.215
330.556
329.974
329.303
324.745
325.21
325.938
326.286
326.961
326.935
327.456
327.718
327.755
327.685
327.697
327.688
327.637
327.317
327.032
326.798
326.451
325.869
325.402
324.867
320.24
320.637
321.229
321.489
322.14
322.037
322.563
322.759
322.73
322.678
322.723
322.7
322.594
322.343
322.142
321.96
321.631
321.078
320.777
320.412
315.69
316.097
316.483
316.77
317.271
317.144
317.607
317.784
317.695
317.644
317.659
317.702
317.568
317.412
317.225
317.117
316.829
316.379
316.124
315.923
311.168
311.534
311.793
312.035
312.372
312.243
312.645
312.744
312.615
312.611
312.59
312.693
312.578
312.477
312.313
312.242
312.007
311.704
311.529
311.411
306.692
306.963
307.103
307.228
307.444
307.38
307.628
307.673
307.556
307.594
307.533
307.65
307.561
307.529
307.401
307.35
307.216
307.009
306.93
306.823
302.239
302.349
302.391
302.428
302.512
302.491
302.567
302.566
302.54
302.53
302.537
302.568
302.535
302.514
302.468
302.465
302.416
302.36
302.325
302.266
334.942
335.568
336.422
337.117
337.873
338.005
338.5
338.784
339.105
339.138
338.993
339.178
339.035
338.638
338.094
337.756
337.117
336.404
335.674
334.927
330.365
330.867
331.613
332.17
332.859
332.936
333.38
333.627
333.879
333.928
333.804
333.959
333.786
333.49
333.037
332.696
332.146
331.528
330.948
330.274
325.747
326.148
326.756
327.207
327.788
327.848
328.271
328.484
328.686
328.713
328.67
328.757
328.617
328.344
327.968
327.678
327.187
326.702
326.196
325.647
321.059
321.401
321.909
322.248
322.73
322.781
323.127
323.321
323.451
323.498
323.462
323.578
323.44
323.243
322.873
322.671
322.248
321.862
321.458
320.995
316.367
316.662
317.028
317.318
317.702
317.727
318.015
318.176
318.247
318.29
318.227
318.354
318.237
318.122
317.756
317.664
317.322
317.017
316.675
316.321
311.698
311.93
312.161
312.378
312.692
312.671
312.897
313.017
313.021
313.107
313.007
313.107
313.032
312.961
312.705
312.639
312.4
312.159
311.905
311.671
307.03
307.184
307.295
307.441
307.599
307.609
307.742
307.868
307.832
307.898
307.798
307.847
307.839
307.821
307.6
307.599
307.459
307.317
307.143
307.019
302.338
302.408
302.424
302.483
302.54
302.539
302.599
302.657
302.642
302.653
302.617
302.627
302.637
302.617
302.542
302.553
302.491
302.456
302.4
302.355
336.391
337.019
337.854
338.49
339.07
339.597
340.045
340.438
340.573
340.759
340.585
340.736
340.504
340.187
339.559
339.108
338.675
337.845
336.912
336.285
331.552
332.078
332.786
333.332
333.906
334.269
334.682
335.05
335.191
335.377
335.173
335.326
335.091
334.855
334.285
333.885
333.555
332.819
331.984
331.46
326.725
327.141
327.77
328.184
328.739
328.963
329.339
329.65
329.789
329.955
329.792
329.9
329.679
329.425
329.064
328.639
328.412
327.818
327.066
326.618
321.877
322.224
322.747
323.104
323.514
323.676
323.979
324.238
324.387
324.547
324.408
324.478
324.253
324.088
323.851
323.407
323.243
322.825
322.164
321.747
317.073
317.3
317.728
317.985
318.298
318.433
318.656
318.831
318.957
319.106
318.999
319.087
318.875
318.757
318.592
318.203
318.06
317.766
317.264
316.882
312.274
312.38
312.701
312.844
313.076
313.174
313.328
313.48
313.527
313.671
313.583
313.615
313.494
313.434
313.306
313.002
312.894
312.668
312.325
312.026
307.368
307.445
307.628
307.701
307.852
307.923
307.982
308.096
308.108
308.252
308.214
308.142
308.124
308.088
308.006
307.818
307.748
307.597
307.373
307.184
302.481
302.504
302.546
302.557
302.617
302.644
302.685
302.691
302.705
302.771
302.757
302.737
302.74
302.717
302.686
302.619
302.577
302.565
302.465
302.402
337.605
338.284
339.235
339.776
340.661
341.081
341.517
341.847
342.089
342.219
342.244
342.189
341.852
341.533
341.13
340.562
339.92
339.088
338.398
337.711
332.623
333.204
333.981
334.452
335.246
335.567
335.974
336.268
336.489
336.554
336.588
336.538
336.251
335.982
335.63
335.095
334.614
333.887
333.246
332.671
327.64
328.09
328.764
329.187
329.821
330.084
330.458
330.672
330.901
330.93
330.971
330.918
330.634
330.45
330.118
329.676
329.293
328.71
328.137
327.607
322.609
322.973
323.519
323.919
324.396
324.605
324.911
325.102
325.301
325.319
325.365
325.315
325.045
324.883
324.606
324.304
323.977
323.527
322.997
322.607
317.606
317.824
318.303
318.614
318.952
319.111
319.373
319.536
319.73
319.673
319.748
319.693
319.486
319.323
319.117
318.913
318.684
318.335
317.876
317.634
312.581
312.734
313.124
313.359
313.547
313.678
313.852
313.996
314.101
314.073
314.084
314.088
313.929
313.805
313.603
313.505
313.372
313.096
312.751
312.593
307.56
307.617
307.904
308.061
308.152
308.249
308.313
308.447
308.41
308.419
308.436
308.463
308.379
308.307
308.12
308.14
308.023
307.871
307.631
307.564
302.544
302.533
302.653
302.69
302.746
302.779
302.786
302.835
302.788
302.817
302.827
302.838
302.808
302.782
302.723
302.725
302.688
302.647
302.538
302.53
338.978
339.846
340.654
341.214
342.079
342.562
342.953
343.504
343.577
343.809
343.742
343.511
343.159
342.769
342.568
341.869
341.302
340.506
339.7
339.024
333.775
334.534
335.232
335.725
336.482
336.865
337.196
337.698
337.746
337.95
337.99
337.663
337.398
337.039
336.87
336.261
335.747
335.103
334.383
333.857
328.578
329.209
329.831
330.221
330.889
331.146
331.457
331.868
331.929
332.094
332.191
331.86
331.663
331.332
331.163
330.635
330.2
329.718
329.063
328.674
323.433
323.872
324.433
324.761
325.301
325.45
325.743
326.03
326.123
326.255
326.389
326.055
325.955
325.654
325.478
325.031
324.677
324.296
323.775
323.487
318.244
318.533
319.04
319.317
319.662
319.789
320.026
320.234
320.35
320.397
320.567
320.292
320.173
319.955
319.802
319.455
319.156
318.961
318.479
318.301
313.033
313.193
313.655
313.858
314.046
314.125
314.317
314.467
314.545
314.619
314.752
314.504
314.365
314.247
314.144
313.873
313.7
313.563
313.211
313.093
307.81
307.889
308.194
308.324
308.42
308.503
308.618
308.695
308.752
308.796
308.882
308.714
308.594
308.557
308.476
308.309
308.219
308.163
307.938
307.882
302.623
302.62
302.76
302.785
302.822
302.846
302.876
302.916
302.921
302.956
302.978
302.932
302.883
302.871
302.848
302.788
302.775
302.749
302.675
302.645
340.33
341.09
341.905
342.766
343.349
344.049
344.383
344.869
345.034
345.263
345.259
345.151
344.927
344.337
344.081
343.492
342.606
341.909
340.973
340.021
335.022
335.645
336.308
337.083
337.603
338.166
338.46
338.877
339.043
339.217
339.226
339.067
338.871
338.412
338.159
337.652
336.86
336.278
335.473
334.656
329.669
330.174
330.698
331.371
331.851
332.276
332.565
332.917
333.069
333.188
333.169
333.044
332.878
332.512
332.275
331.803
331.159
330.697
329.945
329.261
324.282
324.668
325.071
325.688
326.052
326.364
326.709
326.975
327.067
327.131
327.142
326.995
326.858
326.604
326.401
325.987
325.444
325.105
324.505
323.925
318.91
319.169
319.459
320.02
320.306
320.49
320.819
320.985
321.016
321.087
321.122
320.986
320.9
320.705
320.534
320.21
319.787
319.537
319.084
318.598
313.526
313.687
313.868
314.333
314.528
314.614
314.959
314.985
314.974
315.052
315.065
315.005
314.954
314.767
314.684
314.461
314.117
313.934
313.666
313.32
308.152
308.226
308.32
308.644
308.709
308.758
309.011
308.963
308.976
309.022
309.053
309.034
308.979
308.893
308.82
308.721
308.478
308.375
308.229
308.011
302.748
302.762
302.793
302.894
302.915
302.932
303.03
303.012
302.998
303.019
303.038
303.027
303.025
302.986
302.952
302.932
302.835
302.811
302.748
302.685
341.57
342.403
343.204
344.139
345.09
345.398
345.888
346.347
346.454
346.564
346.637
346.754
346.295
345.654
345.569
344.752
343.956
343.354
342.321
341.412
336.099
336.803
337.408
338.262
339.076
339.301
339.785
340.155
340.231
340.309
340.469
340.538
340.079
339.588
339.497
338.74
338.072
337.529
336.642
335.919
330.589
331.138
331.609
332.389
333.077
333.218
333.66
333.969
333.996
334.066
334.258
334.317
333.853
333.513
333.424
332.739
332.222
331.784
331.008
330.393
325.055
325.449
325.844
326.538
327.066
327.173
327.569
327.804
327.798
327.924
327.998
328.087
327.665
327.385
327.369
326.767
326.387
326.018
325.407
324.895
319.506
319.754
320.128
320.646
321.055
321.108
321.452
321.617
321.613
321.741
321.784
321.869
321.511
321.258
321.317
320.779
320.532
320.282
319.771
319.392
313.945
314.071
314.394
314.753
315.09
315.04
315.311
315.42
315.453
315.531
315.552
315.64
315.34
315.197
315.253
314.846
314.678
314.484
314.139
313.858
308.38
308.432
308.632
308.849
309.055
309.03
309.177
309.246
309.3
309.329
309.347
309.402
309.232
309.137
309.17
308.916
308.843
308.682
308.506
308.313
302.818
302.824
302.91
302.967
303.037
303.031
303.077
303.08
303.117
303.135
303.134
303.163
303.104
303.073
303.053
302.994
302.997
302.935
302.852
302.783
342.845
343.755
344.629
345.372
346.417
346.729
347.276
347.678
347.844
348.021
348.179
347.946
347.474
347.159
346.979
346.103
345.217
344.567
343.599
342.614
337.169
337.949
338.711
339.303
340.234
340.495
340.97
341.292
341.412
341.59
341.752
341.519
341.054
340.817
340.716
339.91
339.151
338.601
337.781
336.972
331.486
332.154
332.764
333.271
334.01
334.236
334.668
334.936
335.011
335.194
335.354
335.122
334.685
334.498
334.43
333.746
333.098
332.653
331.97
331.318
325.803
326.302
326.794
327.246
327.808
327.974
328.41
328.623
328.617
328.769
328.957
328.683
328.363
328.207
328.172
327.61
327.101
326.692
326.132
325.646
320.089
320.415
320.872
321.2
321.675
321.758
322.14
322.292
322.268
322.38
322.511
322.289
322.053
321.905
321.88
321.434
321.082
320.785
320.294
319.95
314.353
314.556
314.911
315.124
315.488
315.537
315.851
315.936
315.905
316.029
316.107
315.896
315.75
315.632
315.636
315.293
315.07
314.843
314.501
314.26
308.601
308.736
308.962
309.076
309.328
309.358
309.555
309.582
309.547
309.633
309.667
309.539
309.453
309.371
309.376
309.192
309.049
308.89
308.695
308.552
302.909
302.921
303.008
303.049
303.13
303.148
303.204
303.211
303.202
303.22
303.247
303.181
303.177
303.126
303.154
303.083
303.04
302.983
302.928
302.858
343.824
344.861
346.03
346.566
347.721
347.901
348.531
348.901
349.157
349.374
349.431
349.239
349.015
348.425
348.001
347.303
346.517
345.805
344.818
343.825
337.987
338.909
339.922
340.35
341.356
341.535
342.023
342.361
342.552
342.774
342.832
342.614
342.443
341.914
341.619
341.013
340.326
339.636
338.844
337.949
332.169
332.915
333.757
334.124
334.985
335.179
335.553
335.825
336.001
336.155
336.245
336.031
335.924
335.488
335.215
334.737
334.096
333.546
332.85
332.119
326.349
326.942
327.612
327.913
328.64
328.789
329.079
329.301
329.445
329.549
329.625
329.457
329.38
329.044
328.813
328.398
327.893
327.444
326.877
326.29
320.52
320.917
321.448
321.681
322.305
322.389
322.579
322.793
322.935
322.983
323.05
322.902
322.853
322.58
322.424
322.076
321.708
321.371
320.909
320.461
314.665
314.943
315.3
315.46
315.932
316.031
316.113
316.28
316.378
316.391
316.454
316.322
316.312
316.131
316.062
315.749
315.505
315.303
314.916
314.601
308.824
308.98
309.182
309.28
309.579
309.657
309.671
309.791
309.816
309.866
309.883
309.744
309.794
309.685
309.684
309.454
309.316
309.202
308.972
308.757
302.976
303.012
303.09
303.108
303.202
303.244
303.227
303.286
303.3
303.323
303.333
303.251
303.291
303.25
303.259
303.171
303.136
303.072
303.007
302.941
344.798
345.665
347.139
347.633
348.664
349.082
349.788
350.12
350.483
350.723
350.556
350.468
350.261
349.684
349.074
348.495
347.666
346.935
345.917
344.988
338.865
339.58
340.861
341.289
342.171
342.529
343.099
343.429
343.773
343.938
343.789
343.725
343.537
343.011
342.469
341.996
341.252
340.666
339.807
338.985
332.949
333.528
334.597
334.933
335.697
336.008
336.483
336.744
337.042
337.132
337.007
336.99
336.855
336.376
335.944
335.52
334.895
334.37
333.684
333.008
326.999
327.49
328.297
328.607
329.235
329.439
329.793
330.121
330.32
330.318
330.24
330.296
330.152
329.773
329.411
329.018
328.56
328.099
327.544
327.07
321.044
321.429
321.997
322.22
322.761
322.873
323.154
323.452
323.597
323.559
323.496
323.576
323.455
323.156
322.88
322.538
322.232
321.866
321.418
321.07
315.064
315.323
315.712
315.881
316.281
316.351
316.5
316.759
316.878
316.832
316.816
316.864
316.722
316.519
316.354
316.116
315.901
315.643
315.307
315.048
309.055
309.224
309.433
309.546
309.768
309.82
309.906
310.073
310.134
310.115
310.12
310.101
310.019
309.877
309.845
309.691
309.57
309.398
309.158
309.04
303.025
303.088
303.166
303.204
303.279
303.288
303.317
303.392
303.387
303.376
303.407
303.387
303.362
303.3
303.307
303.265
303.208
303.17
303.055
303.045
346.061
346.969
348.124
349.064
349.783
350.251
350.654
351.176
351.667
351.779
351.701
351.618
351.348
350.708
350.142
349.654
349.031
347.933
347.066
345.915
339.964
340.751
341.738
342.527
343.155
343.491
343.854
344.343
344.769
344.897
344.765
344.743
344.459
343.871
343.405
343.016
342.478
341.5
340.814
339.782
333.838
334.472
335.319
335.972
336.519
336.75
337.114
337.509
337.845
338.026
337.846
337.841
337.583
337.115
336.704
336.362
335.907
335.029
334.539
333.664
327.678
328.211
328.935
329.389
329.877
330.022
330.352
330.745
330.964
331.133
330.933
330.951
330.768
330.36
330.046
329.734
329.35
328.636
328.27
327.494
321.469
321.967
322.49
322.833
323.258
323.314
323.574
323.942
324.107
324.227
324.021
324.039
323.98
323.624
323.416
323.16
322.789
322.274
321.962
321.353
315.319
315.707
316.046
316.272
316.64
316.63
316.786
317.147
317.259
317.31
317.161
317.139
317.147
316.897
316.78
316.543
316.272
315.908
315.711
315.238
309.189
309.455
309.622
309.745
310.003
309.954
310.048
310.343
310.386
310.387
310.312
310.316
310.324
310.161
310.104
309.92
309.77
309.572
309.467
309.152
303.091
303.171
303.239
303.256
303.381
303.328
303.36
303.462
303.484
303.476
303.468
303.465
303.459
303.417
303.395
303.338
303.272
303.215
303.186
303.087
346.834
347.797
349.129
349.938
350.801
350.978
351.777
352.253
352.672
352.737
352.908
352.684
352.389
352.086
351.297
350.642
349.766
348.855
347.95
346.896
340.623
341.426
342.594
343.293
344.013
344.095
344.837
345.315
345.602
345.67
345.815
345.629
345.342
345.096
344.43
343.836
343.109
342.331
341.557
340.626
334.417
335.044
336.059
336.669
337.19
337.311
337.92
338.356
338.584
338.602
338.784
338.558
338.344
338.111
337.597
337.06
336.48
335.776
335.175
334.392
328.2
328.681
329.526
330.004
330.398
330.496
331.016
331.403
331.611
331.57
331.767
331.485
331.374
331.149
330.766
330.3
329.835
329.258
328.819
328.082
321.964
322.289
322.971
323.331
323.652
323.702
324.134
324.426
324.58
324.533
324.763
324.496
324.41
324.193
323.928
323.547
323.149
322.746
322.442
321.85
315.694
315.925
316.436
316.653
316.88
316.93
317.246
317.446
317.562
317.518
317.715
317.513
317.422
317.268
317.087
316.821
316.513
316.23
316.062
315.585
309.416
309.603
309.865
309.987
310.1
310.21
310.376
310.491
310.558
310.547
310.651
310.52
310.453
310.359
310.254
310.12
309.906
309.746
309.672
309.371
303.165
303.22
303.313
303.338
303.376
303.435
303.479
303.522
303.538
303.543
303.575
303.515
303.51
303.469
303.437
303.393
303.315
303.268
303.244
303.153
347.709
348.658
349.731
350.774
351.5
352.286
353.106
353.219
353.699
353.77
353.806
353.621
353.568
353.144
352.334
351.61
350.808
349.715
348.895
347.732
341.43
342.182
343.114
344.017
344.642
345.274
345.963
346.099
346.476
346.534
346.626
346.451
346.397
346.005
345.328
344.668
344.016
343.024
342.372
341.349
335.1
335.694
336.476
337.3
337.789
338.262
338.869
339.013
339.285
339.392
339.426
339.285
339.234
338.932
338.332
337.731
337.206
336.373
335.846
334.976
328.79
329.206
329.906
330.561
330.935
331.323
331.801
331.959
332.155
332.249
332.237
332.123
332.059
331.869
331.341
330.846
330.453
329.751
329.342
328.632
322.46
322.73
323.286
323.823
324.054
324.367
324.711
324.892
325.006
325.085
325.069
324.966
324.884
324.762
324.346
323.963
323.682
323.139
322.846
322.279
316.106
316.237
316.673
317.01
317.191
317.386
317.665
317.75
317.867
317.946
317.872
317.829
317.754
317.646
317.359
317.131
316.912
316.503
316.326
315.886
309.679
309.769
310.041
310.191
310.325
310.429
310.624
310.648
310.719
310.771
310.681
310.718
310.644
310.577
310.395
310.311
310.134
309.912
309.793
309.55
303.267
303.299
303.366
303.41
303.448
303.509
303.56
303.588
303.604
303.619
303.56
303.595
303.586
303.529
303.485
303.469
303.387
303.317
303.279
303.214
348.688
349.575
350.573
351.462
352.28
353.091
353.905
354.109
354.468
354.905
354.816
354.585
354.407
354.037
353.271
352.46
351.602
350.527
349.86
348.469
342.232
342.962
343.819
344.595
345.268
346.018
346.691
346.894
347.192
347.541
347.487
347.25
347.152
346.865
346.122
345.431
344.697
343.763
343.198
341.998
335.752
336.357
337.016
337.746
338.275
338.94
339.478
339.699
339.948
340.193
340.141
340.01
339.922
339.622
339.006
338.451
337.797
336.975
336.562
335.53
329.241
329.763
330.241
330.915
331.285
331.879
332.324
332.479
332.69
332.862
332.783
332.715
332.647
332.371
331.942
331.459
330.949
330.235
329.921
329.079
322.752
323.088
323.524
324.056
324.314
324.796
325.127
325.295
325.412
325.556
325.512
325.446
325.382
325.151
324.853
324.435
324.071
323.473
323.296
322.616
316.268
316.475
316.802
317.2
317.374
317.729
317.995
318.112
318.151
318.272
318.237
318.133
318.124
317.978
317.751
317.439
317.211
316.766
316.668
316.181
309.749
309.897
310.137
310.308
310.415
310.679
310.849
310.893
310.883
310.997
310.937
310.877
310.897
310.794
310.659
310.52
310.31
310.04
310.007
309.698
303.253
303.308
303.412
303.437
303.504
303.565
303.636
303.644
303.657
303.675
303.657
303.655
303.647
303.604
303.571
303.535
303.434
303.353
303.344
303.258
349.181
350.156
351.348
352.47
353.217
353.925
354.669
355.162
355.527
355.648
355.645
355.322
355.157
354.86
354.143
353.583
352.366
351.295
350.265
349.251
342.645
343.484
344.519
345.472
346.136
346.785
347.373
347.786
348.1
348.194
348.188
347.923
347.779
347.508
346.863
346.402
345.322
344.415
343.574
342.658
336.114
336.847
337.665
338.44
338.982
339.581
340.083
340.447
340.719
340.739
340.804
340.537
340.394
340.191
339.629
339.25
338.302
337.527
336.923
336.092
329.571
330.206
330.798
331.433
331.893
332.399
332.801
333.107
333.307
333.311
333.391
333.166
333.085
332.882
332.409
332.119
331.299
330.677
330.235
329.542
323.02
323.56
323.931
324.461
324.786
325.21
325.524
325.738
325.92
325.878
325.992
325.804
325.775
325.555
325.189
324.975
324.327
323.879
323.522
322.995
316.443
316.89
317.102
317.496
317.709
318.021
318.244
318.377
318.533
318.498
318.586
318.406
318.459
318.275
317.941
317.812
317.329
317.058
316.805
316.434
309.882
310.152
310.277
310.505
310.627
310.86
310.942
311.073
311.12
311.094
311.173
311.039
311.122
310.99
310.739
310.681
310.416
310.248
310.082
309.877
303.312
303.401
303.444
303.523
303.549
303.642
303.67
303.728
303.723
303.696
303.751
303.689
303.72
303.697
303.587
303.584
303.477
303.433
303.374
303.312
349.811
351.005
352.108
352.966
353.943
354.785
355.37
355.841
356.317
356.554
356.324
356.186
355.562
355.401
354.685
354.241
353.1
352.041
350.837
349.8
343.2
344.24
345.188
345.908
346.764
347.513
347.974
348.417
348.82
349.017
348.811
348.681
348.141
348.011
347.383
346.986
345.978
345.033
344.065
343.153
336.589
337.467
338.26
338.84
339.548
340.2
340.602
340.997
341.277
341.463
341.27
341.173
340.727
340.612
340.101
339.721
338.874
338.048
337.27
336.496
329.967
330.656
331.282
331.749
332.343
332.896
333.246
333.557
333.737
333.931
333.743
333.652
333.31
333.242
332.809
332.486
331.797
331.111
330.506
329.863
323.368
323.814
324.336
324.713
325.126
325.606
325.896
326.091
326.197
326.416
326.211
326.17
325.922
325.865
325.534
325.275
324.756
324.184
323.749
323.221
316.711
316.987
317.416
317.661
317.959
318.28
318.522
318.628
318.682
318.848
318.715
318.706
318.517
318.49
318.258
318.064
317.691
317.255
316.954
316.584
310.024
310.188
310.462
310.608
310.774
310.972
311.136
311.154
311.181
311.308
311.237
311.244
311.133
311.098
310.941
310.867
310.633
310.364
310.176
309.978
303.362
303.432
303.504
303.561
303.62
303.669
303.737
303.723
303.74
303.801
303.778
303.787
303.716
303.731
303.685
303.669
303.572
303.473
303.413
303.346
350.232
351.261
352.612
353.391
354.58
355.307
356.003
356.365
356.774
357.184
356.877
356.75
356.3
355.939
355.242
354.603
353.547
352.465
351.374
350.471
343.562
344.47
345.609
346.268
347.281
347.942
348.524
348.832
349.197
349.577
349.25
349.135
348.762
348.446
347.834
347.281
346.331
345.43
344.459
343.714
336.898
337.68
338.621
339.165
339.984
340.562
341.069
341.361
341.61
341.982
341.641
341.544
341.227
341.004
340.418
339.937
339.17
338.397
337.519
336.918
330.221
330.893
331.599
332.036
332.737
333.172
333.616
333.866
334.046
334.394
334.071
333.955
333.681
333.565
333.056
332.693
332.041
331.416
330.645
330.17
323.528
324.091
324.579
324.933
325.5
325.789
326.154
326.372
326.492
326.757
326.486
326.408
326.182
326.124
325.712
325.448
324.909
324.457
323.795
323.434
316.804
317.23
317.631
317.896
318.252
318.421
318.696
318.854
318.922
319.119
318.941
318.882
318.668
318.638
318.395
318.188
317.764
317.499
316.944
316.749
310.085
310.342
310.627
310.773
310.998
311.098
311.24
311.348
311.35
311.468
311.372
311.347
311.173
311.172
311.085
310.896
310.683
310.507
310.165
310.062
303.378
303.473
303.586
303.613
303.703
303.718
303.782
303.775
303.814
303.822
303.8
303.806
303.734
303.737
303.718
303.652
303.607
303.51
303.393
303.377
350.676
351.508
352.638
353.787
354.901
355.65
356.388
356.892
357.17
357.345
357.718
357.339
356.845
356.451
355.758
354.993
353.959
352.843
351.573
350.617
343.912
344.637
345.63
346.607
347.551
348.244
348.853
349.277
349.503
349.673
350.014
349.664
349.194
348.842
348.302
347.62
346.75
345.77
344.633
343.843
337.134
337.783
338.657
339.453
340.209
340.845
341.334
341.646
341.826
342.04
342.357
342.073
341.589
341.31
340.8
340.301
339.552
338.678
337.724
337.093
330.377
330.932
331.636
332.245
332.886
333.445
333.843
334.054
334.206
334.437
334.668
334.413
334.012
333.762
333.304
333
332.329
331.646
330.849
330.318
323.617
324.081
324.647
325.098
325.57
326.003
326.366
326.458
326.583
326.802
326.998
326.779
326.411
326.255
325.846
325.688
325.114
324.631
323.959
323.616
316.892
317.205
317.611
317.91
318.286
318.552
318.882
318.922
318.964
319.186
319.348
319.158
318.897
318.754
318.42
318.325
317.939
317.617
317.118
316.906
310.126
310.353
310.584
310.759
311.008
311.117
311.387
311.405
311.366
311.524
311.62
311.52
311.361
311.281
311.07
310.997
310.764
310.601
310.268
310.139
303.371
303.49
303.569
303.59
303.682
303.713
303.824
303.836
303.804
303.849
303.903
303.865
303.815
303.793
303.712
303.674
303.59
303.549
303.43
303.379
350.967
351.758
352.92
354.239
355.049
356.205
356.477
356.993
357.432
357.716
357.809
357.71
357.131
356.72
356.154
355.257
354.055
353.17
351.924
350.969
344.181
344.874
345.836
347
347.67
348.663
348.913
349.346
349.76
349.984
350.071
349.985
349.494
349.093
348.601
347.858
346.823
345.977
344.972
344.136
337.383
337.991
338.781
339.759
340.286
341.197
341.358
341.729
342.076
342.278
342.345
342.304
341.865
341.513
341.086
340.512
339.578
338.836
338.033
337.367
330.663
331.111
331.687
332.507
332.985
333.742
333.84
334.124
334.424
334.57
334.675
334.648
334.267
333.928
333.542
333.14
332.383
331.736
331.127
330.557
323.908
324.233
324.633
325.292
325.639
326.254
326.342
326.538
326.783
326.866
327.017
326.95
326.599
326.355
326.036
325.746
325.185
324.614
324.253
323.721
317.104
317.348
317.598
318.08
318.308
318.74
318.856
318.983
319.145
319.225
319.333
319.269
319.01
318.823
318.576
318.396
318.014
317.585
317.342
316.92
310.258
310.455
310.592
310.854
311.008
311.251
311.343
311.411
311.496
311.526
311.626
311.589
311.403
311.286
311.13
311.049
310.838
310.547
310.409
310.197
303.436
303.523
303.556
303.648
303.715
303.77
303.799
303.824
303.848
303.861
303.903
303.886
303.791
303.798
303.717
303.704
303.637
303.528
303.478
303.438
)
;

boundaryField
{
    hotSide
    {
        type            fixedGradient;
        gradient        nonuniform List<scalar> 
400
(
339.801
354.933
369.915
384.682
399.165
413.296
427.009
440.236
452.91
464.968
476.349
486.993
496.845
505.853
513.969
521.151
527.361
532.568
536.743
539.868
348.276
363.86
379.294
394.51
409.437
424.006
438.147
451.791
464.87
477.318
489.071
500.069
510.253
519.571
527.973
535.415
541.858
547.269
551.62
554.889
355.89
371.887
387.733
403.359
418.692
433.662
448.195
462.222
475.672
488.477
500.573
511.895
522.385
531.989
540.655
548.337
554.996
560.598
565.112
568.517
362.611
378.978
395.194
411.188
426.887
442.216
457.103
471.474
485.259
498.387
510.791
522.407
533.175
543.037
551.942
559.844
566.699
572.474
577.139
580.669
368.413
385.105
401.646
417.964
433.984
449.63
464.828
479.504
493.583
506.996
519.674
531.55
542.563
552.655
561.773
569.869
576.901
582.831
587.63
591.273
373.276
390.246
407.066
423.661
439.955
455.873
471.338
486.274
500.607
514.265
527.177
539.277
550.502
560.793
570.095
578.36
585.544
591.609
596.526
600.269
377.187
394.385
411.434
428.257
444.778
460.92
476.605
491.756
506.299
520.16
533.267
545.553
556.954
567.41
576.865
585.271
592.583
598.762
603.778
607.606
380.136
397.511
414.737
431.738
448.435
464.752
480.609
495.929
510.636
524.655
537.915
550.348
561.887
572.474
582.051
590.568
597.981
604.252
609.348
613.244
382.116
399.616
416.967
434.093
450.916
467.356
483.335
498.775
513.599
527.733
541.102
553.64
565.279
575.96
585.625
594.224
601.712
608.049
613.204
617.151
383.124
400.695
418.118
435.317
452.212
468.725
484.775
500.286
515.179
529.38
542.815
555.415
567.115
577.853
587.572
596.221
603.755
610.135
615.327
619.308
383.157
400.746
418.188
435.406
452.32
468.853
484.924
500.455
515.368
529.589
543.045
555.665
567.385
578.142
587.88
596.548
604.1
610.496
615.705
619.7
382.219
399.771
417.178
434.361
451.241
467.741
483.78
499.281
514.166
528.36
541.791
554.389
566.088
576.827
586.548
595.202
602.743
609.13
614.333
618.324
380.311
397.773
415.09
432.184
448.978
465.392
481.348
496.769
511.577
525.698
539.058
551.59
563.228
573.91
583.581
592.189
599.689
606.043
611.217
615.187
377.438
394.757
411.931
428.884
445.538
461.815
477.637
492.928
507.61
521.611
534.857
547.281
558.817
569.405
578.99
587.521
594.952
601.247
606.371
610.3
373.61
390.733
407.712
424.47
440.933
457.022
472.66
487.772
502.282
516.116
529.204
541.478
552.874
563.332
572.797
581.219
588.554
594.764
599.818
603.689
368.837
385.712
402.444
418.958
435.179
451.03
466.436
481.321
495.612
509.236
522.123
534.207
545.424
555.717
565.029
573.313
580.525
586.628
591.59
595.386
363.133
379.712
396.148
412.368
428.298
443.863
458.99
473.603
487.631
501.001
513.647
525.502
536.505
546.597
555.726
563.843
570.907
576.879
581.731
585.436
356.519
372.754
388.846
404.725
420.318
435.552
450.354
464.651
478.373
491.45
503.816
515.405
526.158
536.019
544.934
552.858
559.749
565.571
570.293
573.894
349.02
364.865
380.569
396.062
411.274
426.133
440.568
454.508
467.885
480.63
492.678
503.968
514.439
524.038
532.712
540.418
547.114
552.765
557.344
560.826
340.666
356.079
371.352
386.418
401.207
415.651
429.68
443.225
456.219
468.597
480.295
491.252
501.412
510.721
519.13
526.594
533.075
538.539
542.957
546.309
)
;
    }
    coldSide
    {
        type            mixed;
        refValue        uniform 300;
        refGradient     uniform 0;
        valueFraction   uniform 0.991591;
        source          uniform 0;
        value           nonuniform List<scalar> 
400
(
300.019
300.019
300.02
300.021
300.021
300.022
300.023
300.024
300.024
300.025
300.025
300.026
300.027
300.027
300.027
300.028
300.028
300.028
300.028
300.029
300.019
300.02
300.02
300.021
300.021
300.022
300.023
300.024
300.025
300.025
300.026
300.027
300.027
300.028
300.028
300.029
300.029
300.029
300.029