/*--------------------------------*- C++ -*----------------------------------*\
| =========                 |                                                 |
| \\      /  F ield         | OpenFOAM: The Open Source CFD Toolbox           |
|  \\    /   O peration     | Version:  2212                                  |
|   \\  /    A nd           | Website:  www.openfoam.com                      |
|    \\/     M anipulation  |                                                 |
\*---------------------------------------------------------------------------*/
FoamFile
{
    version     2.0;
    format      ascii;
    arch        "LSB;label=32;scalar=64";
    class       volScalarField;
    location    "0";
    object      Ttrue;
}
// * * * * * * * * * * * * * * * * * * * * * * * * * * * * * * * * * * * * * //

dimensions      [0 0 0 1 0 0 0];

internalField   nonuniform List<scalar> 
3200
(
328.945
329.254
329.648
330.077
330.519
330.953
331.354
331.692
331.938
332.068
332.068
331.938
331.692
331.354
330.953
330.519
330.077
329.648
329.254
328.945
324.991
325.252
325.592
325.963
326.346
326.721
327.067
327.359
327.572
327.685
327.685
327.572
327.359
327.067
326.721
326.346
325.963
325.592
325.252
324.991
321.078
321.295
321.581
321.895
322.218
322.535
322.828
323.074
323.254
323.348
323.348
323.254
323.074
322.828
322.535
322.218
321.895
321.581
321.295
321.078
317.201
317.375
317.608
317.865
318.129
318.388
318.627
318.828
318.975
319.052
319.052
318.975
318.828
318.627
318.388
318.129
317.865
317.608
317.375
317.201
313.352
313.486
313.667
313.866
314.072
314.273
314.458
314.615
314.729
314.789
314.789
314.729
314.615
314.458
314.273
314.072
313.866
313.667
313.486
313.352
309.526
309.621
309.75
309.892
310.039
310.182
310.315
310.426
310.508
310.55
310.55
310.508
310.426
310.315
310.182
310.039
309.892
309.75
309.621
309.526
305.715
305.772
305.849
305.935
306.023
306.109
306.189
306.256
306.304
306.33
306.33
306.304
306.256
306.189
306.109
306.023
305.935
305.849
305.772
305.715
301.915
301.934
301.96
301.988
302.018
302.047
302.073
302.096
302.112
302.121
302.121
302.112
302.096
302.073
302.047
302.018
301.988
301.96
301.934
301.915
329.051
329.357
329.748
330.173
330.61
331.04
331.436
331.769
332.013
332.141
332.141
332.013
331.769
331.436
331.04
330.61
330.173
329.748
329.357
329.051
325.082
325.341
325.678
326.046
326.424
326.796
327.138
327.426
327.636
327.747
327.747
327.636
327.426
327.138
326.796
326.424
326.046
325.678
325.341
325.082
321.155
321.369
321.653
321.964
322.284
322.598
322.887
323.13
323.308
323.401
323.401
323.308
323.13
322.887
322.598
322.284
321.964
321.653
321.369
321.155
317.263
317.436
317.667
317.921
318.183
318.439
318.675
318.874
319.019
319.095
319.095
319.019
318.874
318.675
318.439
318.183
317.921
317.667
317.436
317.263
313.4
313.533
313.713
313.91
314.113
314.313
314.496
314.65
314.763
314.822
314.822
314.763
314.65
314.496
314.313
314.113
313.91
313.713
313.533
313.4
309.56
309.654
309.782
309.923
310.068
310.211
310.341
310.452
310.532
310.574
310.574
310.532
310.452
310.341
310.211
310.068
309.923
309.782
309.654
309.56
305.736
305.792
305.869
305.954
306.041
306.126
306.205
306.271
306.319
306.344
306.344
306.319
306.271
306.205
306.126
306.041
305.954
305.869
305.792
305.736
301.922
301.94
301.966
301.995
302.024
302.052
302.079
302.101
302.117
302.125
302.125
302.117
302.101
302.079
302.052
302.024
301.995
301.966
301.94
301.922
329.263
329.564
329.948
330.365
330.794
331.214
331.601
331.926
332.163
332.288
332.288
332.163
331.926
331.601
331.214
330.794
330.365
329.948
329.564
329.263
325.264
325.519
325.85
326.211
326.582
326.946
327.28
327.562
327.766
327.874
327.874
327.766
327.562
327.28
326.946
326.582
326.211
325.85
325.519
325.264
321.308
321.519
321.798
322.104
322.417
322.724
323.007
323.244
323.417
323.508
323.508
323.417
323.244
323.007
322.724
322.417
322.104
321.798
321.519
321.308
317.388
317.558
317.785
318.035
318.291
318.542
318.773
318.967
319.108
319.182
319.182
319.108
318.967
318.773
318.542
318.291
318.035
317.785
317.558
317.388
313.497
313.628
313.804
313.998
314.197
314.392
314.571
314.722
314.832
314.889
314.889
314.832
314.722
314.571
314.392
314.197
313.998
313.804
313.628
313.497
309.629
309.722
309.847
309.986
310.128
310.267
310.395
310.503
310.581
310.622
310.622
310.581
310.503
310.395
310.267
310.128
309.986
309.847
309.722
309.629
305.777
305.833
305.908
305.991
306.077
306.16
306.237
306.302
306.348
306.373
306.373
306.348
306.302
306.237
306.16
306.077
305.991
305.908
305.833
305.777
301.936
301.954
301.979
302.007
302.036
302.064
302.09
302.111
302.127
302.135
302.135
302.127
302.111
302.09
302.064
302.036
302.007
301.979
301.954
301.936
329.581
329.875
330.25
330.656
331.072
331.478
331.852
332.166
332.394
332.514
332.514
332.394
332.166
331.852
331.478
331.072
330.656
330.25
329.875
329.581
325.538
325.787
326.11
326.461
326.821
327.173
327.496
327.768
327.965
328.069
328.069
327.965
327.768
327.496
327.173
326.821
326.461
326.11
325.787
325.538
321.539
321.745
322.017
322.314
322.618
322.916
323.188
323.418
323.584
323.671
323.671
323.584
323.418
323.188
322.916
322.618
322.314
322.017
321.745
321.539
317.576
317.742
317.964
318.206
318.455
318.698
318.921
319.108
319.244
319.315
319.315
319.244
319.108
318.921
318.698
318.455
318.206
317.964
317.742
317.576
313.643
313.77
313.942
314.131
314.324
314.513
314.686
314.832
314.937
314.993
314.993
314.937
314.832
314.686
314.513
314.324
314.131
313.942
313.77
313.643
309.733
309.823
309.946
310.08
310.219
310.353
310.477
310.581
310.656
310.696
310.696
310.656
310.581
310.477
310.353
310.219
310.08
309.946
309.823
309.733
305.84
305.894
305.967
306.048
306.131
306.212
306.286
306.348
306.393
306.417
306.417
306.393
306.348
306.286
306.212
306.131
306.048
305.967
305.894
305.84
301.956
301.974
301.999
302.026
302.054
302.081
302.106
302.127
302.142
302.15
302.15
302.142
302.127
302.106
302.081
302.054
302.026
301.999
301.974
301.956
330.007
330.292
330.654
331.046
331.446
331.836
332.193
332.492
332.709
332.823
332.823
332.709
332.492
332.193
331.836
331.446
331.046
330.654
330.292
330.007
325.905
326.146
326.458
326.797
327.144
327.481
327.79
328.048
328.236
328.335
328.335
328.236
328.048
327.79
327.481
327.144
326.797
326.458
326.146
325.905
321.847
322.047
322.31
322.597
322.889
323.174
323.435
323.654
323.812
323.895
323.895
323.812
323.654
323.435
323.174
322.889
322.597
322.31
322.047
321.847
317.827
317.988
318.202
318.436
318.676
318.909
319.122
319.3
319.43
319.498
319.498
319.43
319.3
319.122
318.909
318.676
318.436
318.202
317.988
317.827
313.837
313.961
314.127
314.309
314.495
314.676
314.842
314.981
315.081
315.134
315.134
315.081
314.981
314.842
314.676
314.495
314.309
314.127
313.961
313.837
309.872
309.959
310.078
310.208
310.34
310.47
310.588
310.687
310.759
310.796
310.796
310.759
310.687
310.588
310.47
310.34
310.208
310.078
309.959
309.872
305.923
305.975
306.046
306.124
306.204
306.282
306.353
306.412
306.455
306.478
306.478
306.455
306.412
306.353
306.282
306.204
306.124
306.046
305.975
305.923
301.984
302.002
302.026
302.052
302.078
302.104
302.128
302.148
302.163
302.17
302.17
302.163
302.148
302.128
302.104
302.078
302.052
302.026
302.002
301.984
330.542
330.817
331.164
331.538
331.92
332.289
332.627
332.91
333.114
333.221
333.221
333.114
332.91
332.627
332.289
331.92
331.538
331.164
330.817
330.542
326.365
326.598
326.897
327.221
327.551
327.872
328.164
328.408
328.585
328.677
328.677
328.585
328.408
328.164
327.872
327.551
327.221
326.897
326.598
326.365
322.234
322.427
322.68
322.953
323.233
323.503
323.75
323.956
324.105
324.184
324.184
324.105
323.956
323.75
323.503
323.233
322.953
322.68
322.427
322.234
318.142
318.297
318.503
318.727
318.955
319.176
319.378
319.547
319.669
319.733
319.733
319.669
319.547
319.378
319.176
318.955
318.727
318.503
318.297
318.142
314.082
314.201
314.36
314.534
314.712
314.884
315.041
315.172
315.266
315.316
315.316
315.266
315.172
315.041
314.884
314.712
314.534
314.36
314.201
314.082
310.046
310.13
310.244
310.368
310.495
310.618
310.73
310.823
310.891
310.926
310.926
310.891
310.823
310.73
310.618
310.495
310.368
310.244
310.13
310.046
306.027
306.078
306.146
306.22
306.296
306.37
306.437
306.494
306.534
306.555
306.555
306.534
306.494
306.437
306.37
306.296
306.22
306.146
306.078
306.027
302.019
302.036
302.059
302.084
302.109
302.134
302.157
302.175
302.189
302.196
302.196
302.189
302.175
302.157
302.134
302.109
302.084
302.059
302.036
302.019
331.187
331.449
331.78
332.136
332.496
332.844
333.161
333.425
333.615
333.715
333.715
333.615
333.425
333.161
332.844
332.496
332.136
331.78
331.449
331.187
326.92
327.143
327.428
327.736
328.048
328.349
328.623
328.851
329.016
329.102
329.102
329.016
328.851
328.623
328.349
328.048
327.736
327.428
327.143
326.92
322.702
322.886
323.126
323.386
323.65
323.905
324.137
324.329
324.468
324.541
324.541
324.468
324.329
324.137
323.905
323.65
323.386
323.126
322.886
322.702
318.523
318.671
318.867
319.08
319.295
319.504
319.693
319.851
319.964
320.024
320.024
319.964
319.851
319.693
319.504
319.295
319.08
318.867
318.671
318.523
314.377
314.49
314.643
314.808
314.975
315.137
315.285
315.407
315.495
315.542
315.542
315.495
315.407
315.285
315.137
314.975
314.808
314.643
314.49
314.377
310.256
310.336
310.445
310.563
310.683
310.798
310.903
310.991
311.054
311.087
311.087
311.054
310.991
310.903
310.798
310.683
310.563
310.445
310.336
310.256
306.153
306.201
306.266
306.337
306.409
306.479
306.542
306.594
306.632
306.652
306.652
306.632
306.594
306.542
306.479
306.409
306.337
306.266
306.201
306.153
302.061
302.077
302.099
302.123
302.147
302.17
302.192
302.209
302.222
302.228
302.228
302.222
302.209
302.192
302.17
302.147
302.123
302.099
302.077
302.061
331.943
332.193
332.506
332.841
333.179
333.504
333.798
334.043
334.218
334.311
334.311
334.218
334.043
333.798
333.504
333.179
332.841
332.506
332.193
331.943
327.572
327.783
328.053
328.343
328.635
328.917
329.172
329.383
329.535
329.615
329.615
329.535
329.383
329.172
328.917
328.635
328.343
328.053
327.783
327.572
323.249
323.424
323.652
323.897
324.145
324.383
324.598
324.777
324.905
324.973
324.973
324.905
324.777
324.598
324.383
324.145
323.897
323.652
323.424
323.249
318.969
319.11
319.295
319.496
319.698
319.893
320.069
320.215
320.32
320.375
320.375
320.32
320.215
320.069
319.893
319.698
319.496
319.295
319.11
318.969
314.722
314.83
314.974
315.13
315.288
315.439
315.576
315.69
315.771
315.814
315.814
315.771
315.69
315.576
315.439
315.288
315.13
314.974
314.83
314.722
310.502
310.579
310.681
310.793
310.905
311.013
311.111
311.192
311.25
311.281
311.281
311.25
311.192
311.111
311.013
310.905
310.793
310.681
310.579
310.502
306.301
306.347
306.408
306.475
306.542
306.607
306.666
306.715
306.75
306.768
306.768
306.75
306.715
306.666
306.607
306.542
306.475
306.408
306.347
306.301
302.111
302.126
302.147
302.169
302.192
302.214
302.233
302.25
302.261
302.267
302.267
302.261
302.25
302.233
302.214
302.192
302.169
302.147
302.126
302.111
332.812
333.048
333.343
333.656
333.971
334.273
334.544
334.769
334.93
335.014
335.014
334.93
334.769
334.544
334.273
333.971
333.656
333.343
333.048
332.812
328.32
328.519
328.774
329.045
329.318
329.579
329.814
330.009
330.148
330.221
330.221
330.148
330.009
329.814
329.579
329.318
329.045
328.774
328.519
328.32
323.879
324.044
324.259
324.488
324.719
324.94
325.139
325.303
325.421
325.482
325.482
325.421
325.303
325.139
324.94
324.719
324.488
324.259
324.044
323.879
319.482
319.615
319.789
319.977
320.166
320.346
320.509
320.644
320.74
320.79
320.79
320.74
320.644
320.509
320.346
320.166
319.977
319.789
319.615
319.482
315.12
315.222
315.357
315.503
315.65
315.791
315.917
316.022
316.096
316.136
316.136
316.096
316.022
315.917
315.791
315.65
315.503
315.357
315.222
315.12
310.785
310.858
310.954
311.059
311.163
311.264
311.354
311.429
311.482
311.51
311.51
311.482
311.429
311.354
311.264
311.163
311.059
310.954
310.858
310.785
306.471
306.514
306.572
306.634
306.697
306.758
306.812
306.857
306.889
306.905
306.905
306.889
306.857
306.812
306.758
306.697
306.634
306.572
306.514
306.471
302.168
302.182
302.202
302.223
302.244
302.264
302.282
302.297
302.308
302.313
302.313
302.308
302.297
302.282
302.264
302.244
302.223
302.202
302.182
302.168
333.796
334.017
334.293
334.585
334.876
335.154
335.403
335.609
335.755
335.832
335.832
335.755
335.609
335.403
335.154
334.876
334.585
334.293
334.017
333.796
329.167
329.354
329.592
329.845
330.097
330.338
330.554
330.732
330.859
330.925
330.925
330.859
330.732
330.554
330.338
330.097
329.845
329.592
329.354
329.167
324.592
324.747
324.948
325.161
325.375
325.579
325.761
325.911
326.019
326.075
326.075
326.019
325.911
325.761
325.579
325.375
325.161
324.948
324.747
324.592
320.062
320.187
320.351
320.525
320.7
320.867
321.016
321.139
321.227
321.272
321.272
321.227
321.139
321.016
320.867
320.7
320.525
320.351
320.187
320.062
315.57
315.666
315.792
315.928
316.064
316.194
316.31
316.405
316.474
316.509
316.509
316.474
316.405
316.31
316.194
316.064
315.928
315.792
315.666
315.57
311.106
311.174
311.264
311.361
311.459
311.551
311.634
311.702
311.751
311.776
311.776
311.751
311.702
311.634
311.551
311.459
311.361
311.264
311.174
311.106
306.663
306.703
306.758
306.816
306.874
306.93
306.98
307.021
307.05
307.065
307.065
307.05
307.021
306.98
306.93
306.874
306.816
306.758
306.703
306.663
302.232
302.246
302.264
302.283
302.303
302.322
302.338
302.352
302.362
302.367
302.367
302.362
302.352
302.338
302.322
302.303
302.283
302.264
302.246
302.232
334.895
335.102
335.359
335.629
335.898
336.152
336.38
336.566
336.699
336.768
336.768
336.699
336.566
336.38
336.152
335.898
335.629
335.359
335.102
334.895
330.113
330.289
330.51
330.744
330.977
331.197
331.394
331.556
331.671
331.731
331.731
331.671
331.556
331.394
331.197
330.977
330.744
330.51
330.289
330.113
325.388
325.534
325.72
325.918
326.115
326.302
326.468
326.605
326.702
326.753
326.753
326.702
326.605
326.468
326.302
326.115
325.918
325.72
325.534
325.388
320.711
320.828
320.98
321.142
321.303
321.456
321.592
321.704
321.783
321.825
321.825
321.783
321.704
321.592
321.456
321.303
321.142
320.98
320.828
320.711
316.073
316.162
316.28
316.406
316.532
316.65
316.756
316.843
316.905
316.937
316.937
316.905
316.843
316.756
316.65
316.532
316.406
316.28
316.162
316.073
311.464
311.528
311.612
311.702
311.792
311.876
311.952
312.014
312.058
312.081
312.081
312.058
312.014
311.952
311.876
311.792
311.702
311.612
311.528
311.464
306.878
306.916
306.966
307.02
307.074
307.125
307.17
307.208
307.234
307.248
307.248
307.234
307.208
307.17
307.125
307.074
307.02
306.966
306.916
306.878
302.304
302.317
302.334
302.352
302.37
302.387
302.402
302.415
302.423
302.428
302.428
302.423
302.415
302.402
302.387
302.37
302.352
302.334
302.317
302.304
336.111
336.304
336.542
336.791
337.037
337.27
337.476
337.644
337.764
337.826
337.826
337.764
337.644
337.476
337.27
337.037
336.791
336.542
336.304
336.111
331.161
331.324
331.529
331.745
331.958
332.16
332.338
332.484
332.588
332.642
332.642
332.588
332.484
332.338
332.16
331.958
331.745
331.529
331.324
331.161
326.27
326.405
326.578
326.76
326.941
327.111
327.263
327.386
327.474
327.519
327.519
327.474
327.386
327.263
327.111
326.941
326.76
326.578
326.405
326.27
321.429
321.538
321.679
321.828
321.976
322.115
322.239
322.34
322.412
322.449
322.449
322.412
322.34
322.239
322.115
321.976
321.828
321.679
321.538
321.429
316.629
316.713
316.822
316.938
317.053
317.162
317.258
317.336
317.392
317.421
317.421
317.392
317.336
317.258
317.162
317.053
316.938
316.822
316.713
316.629
311.861
311.92
311.998
312.081
312.163
312.241
312.309
312.366
312.405
312.426
312.426
312.405
312.366
312.309
312.241
312.163
312.081
311.998
311.92
311.861
307.115
307.151
307.198
307.247
307.297
307.343
307.385
307.418
307.442
307.455
307.455
307.442
307.418
307.385
307.343
307.297
307.247
307.198
307.151
307.115
302.384
302.395
302.411
302.428
302.444
302.46
302.474
302.485
302.493
302.497
302.497
302.493
302.485
302.474
302.46
302.444
302.428
302.411
302.395
302.384
337.445
337.624
337.843
338.072
338.297
338.508
338.695
338.847
338.954
339.01
339.01
338.954
338.847
338.695
338.508
338.297
338.072
337.843
337.624
337.445
332.309
332.46
332.65
332.848
333.044
333.226
333.388
333.52
333.613
333.661
333.661
333.613
333.52
333.388
333.226
333.044
332.848
332.65
332.46
332.309
327.236
327.362
327.522
327.689
327.854
328.009
328.146
328.257
328.336
328.377
328.377
328.336
328.257
328.146
328.009
327.854
327.689
327.522
327.362
327.236
322.216
322.317
322.447
322.585
322.72
322.846
322.958
323.049
323.114
323.147
323.147
323.114
323.049
322.958
322.846
322.72
322.585
322.447
322.317
322.216
317.239
317.317
317.418
317.525
317.63
317.728
317.815
317.886
317.936
317.962
317.962
317.936
317.886
317.815
317.728
317.63
317.525
317.418
317.317
317.239
312.296
312.351
312.423
312.499
312.574
312.645
312.707
312.757
312.793
312.812
312.812
312.793
312.757
312.707
312.645
312.574
312.499
312.423
312.351
312.296
307.376
307.409
307.452
307.498
307.543
307.585
307.623
307.653
307.675
307.686
307.686
307.675
307.653
307.623
307.585
307.543
307.498
307.452
307.409
307.376
302.471
302.482
302.496
302.512
302.527
302.541
302.554
302.564
302.571
302.575
302.575
302.571
302.564
302.554
302.541
302.527
302.512
302.496
302.482
302.471
338.896
339.062
339.264
339.474
339.679
339.87
340.038
340.174
340.27
340.32
340.32
340.27
340.174
340.038
339.87
339.679
339.474
339.264
339.062
338.896
333.559
333.699
333.874
334.055
334.233
334.399
334.544
334.662
334.746
334.789
334.789
334.746
334.662
334.544
334.399
334.233
334.055
333.874
333.699
333.559
328.288
328.404
328.551
328.705
328.855
328.996
329.119
329.219
329.289
329.326
329.326
329.289
329.219
329.119
328.996
328.855
328.705
328.551
328.404
328.288
323.073
323.166
323.286
323.412
323.535
323.65
323.751
323.833
323.89
323.92
323.92
323.89
323.833
323.751
323.65
323.535
323.412
323.286
323.166
323.073
317.903
317.975
318.068
318.166
318.262
318.351
318.429
318.493
318.538
318.561
318.561
318.538
318.493
318.429
318.351
318.262
318.166
318.068
317.975
317.903
312.769
312.82
312.886
312.956
313.024
313.088
313.144
313.19
313.222
313.238
313.238
313.222
313.19
313.144
313.088
313.024
312.956
312.886
312.82
312.769
307.66
307.69
307.73
307.772
307.813
307.851
307.885
307.912
307.932
307.942
307.942
307.932
307.912
307.885
307.851
307.813
307.772
307.73
307.69
307.66
302.566
302.576
302.589
302.604
302.617
302.63
302.641
302.651
302.657
302.66
302.66
302.657
302.651
302.641
302.63
302.617
302.604
302.589
302.576
302.566
340.464
340.616
340.802
340.994
341.18
341.353
341.504
341.626
341.712
341.756
341.756
341.712
341.626
341.504
341.353
341.18
340.994
340.802
340.616
340.464
334.909
335.038
335.198
335.364
335.525
335.675
335.806
335.912
335.987
336.025
336.025
335.987
335.912
335.806
335.675
335.525
335.364
335.198
335.038
334.909
329.424
329.531
329.666
329.806
329.943
330.069
330.18
330.27
330.333
330.366
330.366
330.333
330.27
330.18
330.069
329.943
329.806
329.666
329.531
329.424
323.998
324.084
324.194
324.309
324.42
324.524
324.615
324.688
324.74
324.767
324.767
324.74
324.688
324.615
324.524
324.42
324.309
324.194
324.084
323.998
318.62
318.686
318.771
318.861
318.948
319.028
319.099
319.156
319.196
319.217
319.217
319.196
319.156
319.099
319.028
318.948
318.861
318.771
318.686
318.62
313.28
313.326
313.387
313.451
313.513
313.571
313.622
313.662
313.691
313.706
313.706
313.691
313.662
313.622
313.571
313.513
313.451
313.387
313.326
313.28
307.966
307.994
308.03
308.069
308.106
308.141
308.171
308.196
308.213
308.222
308.222
308.213
308.196
308.171
308.141
308.106
308.069
308.03
307.994
307.966
302.669
302.678
302.69
302.703
302.715
302.727
302.737
302.745
302.751
302.754
302.754
302.751
302.745
302.737
302.727
302.715
302.703
302.69
302.678
302.669
342.142
342.282
342.452
342.627
342.796
342.951
343.087
343.197
343.273
343.313
343.313
343.273
343.197
343.087
342.951
342.796
342.627
342.452
342.282
342.142
336.352
336.471
336.618
336.769
336.915
337.051
337.168
337.263
337.33
337.364
337.364
337.33
337.263
337.168
337.051
336.915
336.769
336.618
336.471
336.352
330.637
330.736
330.859
330.987
331.111
331.226
331.326
331.406
331.462
331.491
331.491
331.462
331.406
331.326
331.226
331.111
330.987
330.859
330.736
330.637
324.985
325.065
325.166
325.27
325.372
325.465
325.547
325.613
325.659
325.683
325.683
325.659
325.613
325.547
325.465
325.372
325.27
325.166
325.065
324.985
319.385
319.446
319.524
319.606
319.685
319.757
319.821
319.872
319.908
319.926
319.926
319.908
319.872
319.821
319.757
319.685
319.606
319.524
319.446
319.385
313.825
313.868
313.923
313.982
314.038
314.09
314.136
314.172
314.198
314.211
314.211
314.198
314.172
314.136
314.09
314.038
313.982
313.923
313.868
313.825
308.293
308.318
308.352
308.387
308.421
308.452
308.479
308.501
308.517
308.525
308.525
308.517
308.501
308.479
308.452
308.421
308.387
308.352
308.318
308.293
302.778
302.786
302.798
302.809
302.821
302.831
302.84
302.848
302.853
302.856
302.856
302.853
302.848
302.84
302.831
302.821
302.809
302.798
302.786
302.778
343.913
344.042
344.198
344.357
344.51
344.651
344.773
344.87
344.939
344.974
344.974
344.939
344.87
344.773
344.651
344.51
344.357
344.198
344.042
343.913
337.874
337.983
338.117
338.255
338.388
338.51
338.616
338.7
338.76
338.79
338.79
338.76
338.7
338.616
338.51
338.388
338.255
338.117
337.983
337.874
331.915
332.005
332.118
332.235
332.347
332.451
332.54
332.612
332.662
332.688
332.688
332.662
332.612
332.54
332.451
332.347
332.235
332.118
332.005
331.915
326.024
326.096
326.189
326.284
326.376
326.461
326.534
326.593
326.634
326.655
326.655
326.634
326.593
326.534
326.461
326.376
326.284
326.189
326.096
326.024
320.188
320.244
320.316
320.39
320.462
320.528
320.585
320.631
320.663
320.679
320.679
320.663
320.631
320.585
320.528
320.462
320.39
320.316
320.244
320.188
314.396
314.436
314.487
314.54
314.591
314.638
314.679
314.712
314.735
314.746
314.746
314.735
314.712
314.679
314.638
314.591
314.54
314.487
314.436
314.396
308.635
308.659
308.689
308.721
308.752
308.78
308.805
308.824
308.838
308.845
308.845
308.838
308.824
308.805
308.78
308.752
308.721
308.689
308.659
308.635
302.892
302.9
302.911
302.921
302.932
302.941
302.949
302.956
302.961
302.963
302.963
302.961
302.956
302.949
302.941
302.932
302.921
302.911
302.9
302.892
345.735
345.853
345.996
346.141
346.28
346.407
346.517
346.605
346.666
346.698
346.698
346.666
346.605
346.517
346.407
346.28
346.141
345.996
345.853
345.735
339.431
339.532
339.655
339.781
339.901
340.012
340.107
340.183
340.236
340.264
340.264
340.236
340.183
340.107
340.012
339.901
339.781
339.655
339.532
339.431
333.217
333.3
333.404
333.511
333.613
333.706
333.787
333.852
333.897
333.92
333.92
333.897
333.852
333.787
333.706
333.613
333.511
333.404
333.3
333.217
327.078
327.145
327.23
327.317
327.401
327.478
327.544
327.597
327.634
327.653
327.653
327.634
327.597
327.544
327.478
327.401
327.317
327.23
327.145
327.078
321.002
321.053
321.119
321.187
321.252
321.312
321.363
321.405
321.433
321.448
321.448
321.433
321.405
321.363
321.312
321.252
321.187
321.119
321.053
321.002
314.974
315.01
315.057
315.106
315.152
315.195
315.232
315.261
315.282
315.292
315.292
315.282
315.261
315.232
315.195
315.152
315.106
315.057
315.01
314.974
308.981
309.002
309.03
309.06
309.088
309.113
309.135
309.153
309.165
309.172
309.172
309.165
309.153
309.135
309.113
309.088
309.06
309.03
309.002
308.981
303.008
303.015
303.025
303.035
303.044
303.053
303.06
303.066
303.07
303.072
303.072
303.07
303.066
303.06
303.053
303.044
303.035
303.025
303.015
303.008
347.493
347.603
347.735
347.868
347.995
348.111
348.211
348.29
348.345
348.374
348.374
348.345
348.29
348.211
348.111
347.995
347.868
347.735
347.603
347.493
340.917
341.01
341.123
341.239
341.35
341.45
341.537
341.606
341.654
341.679
341.679
341.654
341.606
341.537
341.45
341.35
341.239
341.123
341.01
340.917
334.445
334.523
334.619
334.717
334.811
334.896
334.97
335.028
335.069
335.09
335.09
335.069
335.028
334.97
334.896
334.811
334.717
334.619
334.523
334.445
328.064
328.126
328.205
328.285
328.362
328.432
328.493
328.541
328.574
328.591
328.591
328.574
328.541
328.493
328.432
328.362
328.285
328.205
328.126
328.064
321.757
321.804
321.865
321.928
321.988
322.043
322.09
322.127
322.153
322.167
322.167
322.153
322.127
322.09
322.043
321.988
321.928
321.865
321.804
321.757
315.507
315.541
315.584
315.629
315.672
315.711
315.744
315.771
315.79
315.8
315.8
315.79
315.771
315.744
315.711
315.672
315.629
315.584
315.541
315.507
309.298
309.318
309.344
309.371
309.397
309.42
309.441
309.457
309.468
309.474
309.474
309.468
309.457
309.441
309.42
309.397
309.371
309.344
309.318
309.298
303.114
303.121
303.13
303.139
303.147
303.155
303.162
303.167
303.171
303.173
303.173
303.171
303.167
303.162
303.155
303.147
303.139
303.13
303.121
303.114
348.882
348.985
349.109
349.234
349.353
349.461
349.554
349.627
349.679
349.705
349.705
349.679
349.627
349.554
349.461
349.353
349.234
349.109
348.985
348.882
342.045
342.132
342.24
342.349
342.452
342.547
342.628
342.692
342.737
342.76
342.76
342.737
342.692
342.628
342.547
342.452
342.349
342.24
342.132
342.045
335.349
335.422
335.513
335.606
335.694
335.774
335.843
335.898
335.936
335.955
335.955
335.936
335.898
335.843
335.774
335.694
335.606
335.513
335.422
335.349
328.772
328.83
328.905
328.981
329.053
329.119
329.176
329.221
329.252
329.268
329.268
329.252
329.221
329.176
329.119
329.053
328.981
328.905
328.83
328.772
322.288
322.333
322.391
322.45
322.507
322.558
322.603
322.638
322.662
322.675
322.675
322.662
322.638
322.603
322.558
322.507
322.45
322.391
322.333
322.288
315.877
315.909
315.95
315.992
316.033
316.07
316.101
316.127
316.144
316.153
316.153
316.144
316.127
316.101
316.07
316.033
315.992
315.95
315.909
315.877
309.516
309.536
309.56
309.586
309.61
309.632
309.651
309.667
309.677
309.683
309.683
309.677
309.667
309.651
309.632
309.61
309.586
309.56
309.536
309.516
303.187
303.193
303.201
303.21
303.218
303.225
303.232
303.237
303.24
303.242
303.242
303.24
303.237
303.232
303.225
303.218
303.21
303.201
303.193
303.187
)
;

boundaryField
{
    hotSide
    {
        type            fixedGradient;
        gradient        nonuniform List<scalar> 
400
(
320.236
321.439
323.849
327.472
332.317
338.395
345.72
354.306
364.168
375.321
387.779
401.555
416.662
433.111
450.912
470.072
490.6
512.501
535.779
560.437
324.295
325.466
327.813
331.344
336.071
342.01
349.178
357.593
367.274
378.241
390.511
404.101
419.026
435.299
452.931
471.932
492.309
514.069
537.216
561.754
328.688
329.821
332.093
335.514
340.102
345.877
352.86
361.077
370.55
381.304
393.362
406.742
421.464
437.542
454.989
473.817
494.032
515.642
538.65
563.06
333.342
334.43
336.615
339.91
344.337
349.923
356.696
364.688
373.927
384.445
396.267
409.418
423.919
439.788
457.038
475.682
495.727
517.181
540.046
564.326
338.127
339.165
341.251
344.405
348.654
354.031
360.572
368.318
377.304
387.566
399.138
412.047
426.317
441.968
459.016
477.473
497.346
518.643
541.365
565.516
342.844
343.828
345.809
348.812
352.871
358.027
364.327
371.816
380.541
390.543
401.86
414.525
428.565
444.001
460.85
479.124
498.831
519.977
542.564
566.593
347.222
348.152
350.029
352.882
356.753
361.692
367.755
374.995
383.467
393.22
404.295
416.73
430.555
445.791
462.457
480.564
500.121
521.131
543.597
567.517
350.937
351.819
353.602
356.32
360.023
364.77
370.622
377.644
385.895
395.43
406.297
418.535
432.176
447.243
463.755
481.723
501.154
522.053
544.418
568.25
353.656
354.501
356.211
358.827
362.402
367.002
372.696
379.553
387.639
397.013
407.726
419.818
433.325
448.269
464.669
482.536
501.878
522.696
544.99
568.759
355.097
355.922
357.593
360.152
363.658
368.179
373.787
380.555
388.553
397.84
408.47
420.486
433.921
448.8
465.141
482.956
502.25
523.026
545.284
569.02
355.097
355.922
357.593
360.152
363.658
368.179
373.787
380.555
388.553
397.84
408.47
420.486
433.921
448.8
465.141
482.956
502.25
523.026
545.284
569.02
353.656
354.501
356.211
358.827
362.402
367.002
372.696
379.553
387.639
397.013
407.726
419.818
433.325
448.269
464.669
482.536
501.878
522.696
544.99
568.759
350.937
351.819
353.602
356.32
360.023
364.77
370.622
377.644
385.895
395.43
406.297
418.535
432.176
447.243
463.755
481.723
501.154
522.053
544.418
568.25
347.222
348.152
350.029
352.882
356.753
361.692
367.755
374.995
383.467
393.22
404.295
416.73
430.555
445.791
462.457
480.564
500.121
521.131
543.597
567.517
342.844
343.828
345.809
348.812
352.871
358.027
364.327
371.816
380.541
390.543
401.86
414.525
428.565
444.001
460.85
479.124
498.831
519.977
542.564
566.593
338.127
339.165
341.251
344.405
348.654
354.031
360.572
368.318
377.304
387.566
399.138
412.047
426.317
441.968
459.016
477.473
497.346
518.643
541.365
565.516
333.342
334.43
336.615
339.91
344.337
349.923
356.696
364.688
373.927
384.445
396.267
409.418
423.919
439.788
457.038
475.682
495.727
517.181
540.046
564.326
328.688
329.821
332.093
335.514
340.102
345.877
352.86
361.077
370.55
381.304
393.362
406.742
421.464
437.542
454.989
473.817
494.032
515.642
538.65
563.06
324.295
325.466
327.813
331.344
336.071
342.01
349.178
357.593
367.274
378.241
390.511
404.101
419.026
435.299
452.931
471.932
492.309
514.069
537.216
561.754
320.236
321.439
323.849
327.472
332.317
338.395
345.72
354.306
364.168
375.321
387.779
401.555
416.662
433.111
450.912
470.072
490.6
512.501
535.779
560.437
)
;
    }
    coldSide
    {
        type            mixed;
        refValue        uniform 300;
        refGradient     uniform 0;
        valueFraction   uniform 0.991591;
        source          uniform 0;
        value           nonuniform List<scalar> 
400
(
300.016
300.016
300.016
300.016
300.017
300.017
300.017
300.018
300.018
300.019
300.019
300.02
300.021
300.022
300.022
300.023
300.024
300.025
300.026
300.027
300.016
300.016
300.016
300.017
300.017
300.017
300.017
300.018
300.018
300.019
300.019
300.02
300.021
300.022
300.023