/*--------------------------------*- C++ -*----------------------------------*\
| =========                 |                                                 |
| \\      /  F ield         | OpenFOAM: The Open Source CFD Toolbox           |
|  \\    /   O peration     | Version:  2212                                  |
|   \\  /    A nd           | Website:  www.openfoam.com                      |
|    \\/     M anipulation  |                                                 |
\*---------------------------------------------------------------------------*/
FoamFile
{
    version     2.0;
    format      ascii;
    arch        "LSB;label=32;scalar=64";
    class       volScalarField;
    location    "0";
    object      Tdirect;
}
// * * * * * * * * * * * * * * * * * * * * * * * * * * * * * * * * * * * * * //

dimensions      [0 0 0 1 0 0 0];

internalField   nonuniform List<scalar> 
3200
(
347.662
348.406
349.355
350.39
351.456
352.502
353.468
354.283
354.877
355.191
355.191
354.877
354.283
353.468
352.502
351.456
350.39
349.355
348.406
347.662
341.323
341.952
342.771
343.667
344.589
345.494
346.329
347.033
347.546
347.817
347.817
347.546
347.033
346.329
345.494
344.589
343.667
342.771
341.952
341.323
334.978
335.501
336.191
336.947
337.727
338.491
339.196
339.791
340.223
340.452
340.452
340.223
339.791
339.196
338.491
337.727
336.947
336.191
335.501
334.978
328.629
329.05
329.612
330.23
330.868
331.492
332.068
332.554
332.907
333.093
333.093
332.907
332.554
332.068
331.492
330.868
330.23
329.612
329.05
328.629
322.277
322.6
323.036
323.516
324.012
324.497
324.944
325.321
325.595
325.74
325.74
325.595
325.321
324.944
324.497
324.012
323.516
323.036
322.6
322.277
315.922
316.15
316.461
316.804
317.158
317.504
317.824
318.093
318.288
318.392
318.392
318.288
318.093
317.824
317.504
317.158
316.804
316.461
316.15
315.922
309.564
309.701
309.887
310.093
310.306
310.514
310.705
310.867
310.984
311.046
311.046
310.984
310.867
310.705
310.514
310.306
310.093
309.887
309.701
309.564
303.206
303.252
303.314
303.383
303.454
303.524
303.588
303.643
303.682
303.703
303.703
303.682
303.643
303.588
303.524
303.454
303.383
303.314
303.252
303.206
347.811
348.549
349.49
350.516
351.571
352.605
353.56
354.365
354.951
355.261
355.261
354.951
354.365
353.56
352.605
351.571
350.516
349.49
348.549
347.811
341.452
342.076
342.888
343.775
344.688
345.584
346.409
347.104
347.611
347.878
347.878
347.611
347.104
346.409
345.584
344.688
343.775
342.888
342.076
341.452
335.087
335.605
336.29
337.039
337.811
338.567
339.264
339.851
340.278
340.503
340.503
340.278
339.851
339.264
338.567
337.811
337.039
336.29
335.605
335.087
328.718
329.135
329.693
330.306
330.936
331.554
332.123
332.603
332.951
333.135
333.135
332.951
332.603
332.123
331.554
330.936
330.306
329.693
329.135
328.718
322.346
322.666
323.099
323.575
324.065
324.545
324.987
325.36
325.63
325.773
325.773
325.63
325.36
324.987
324.545
324.065
323.575
323.099
322.666
322.346
315.971
316.198
316.506
316.846
317.196
317.539
317.854
318.12
318.313
318.415
318.415
318.313
318.12
317.854
317.539
317.196
316.846
316.506
316.198
315.971
309.594
309.729
309.914
310.118
310.329
310.534
310.724
310.883
310.999
311.06
311.06
310.999
310.883
310.724
310.534
310.329
310.118
309.914
309.729
309.594
303.216
303.261
303.323
303.392
303.462
303.531
303.595
303.648
303.687
303.707
303.707
303.687
303.648
303.595
303.531
303.462
303.392
303.323
303.261
303.216
348.11
348.836
349.762
350.768
351.802
352.814
353.747
354.532
355.103
355.405
355.405
355.103
354.532
353.747
352.814
351.802
350.768
349.762
348.836
348.11
341.711
342.325
343.124
343.994
344.889
345.765
346.571
347.249
347.743
348.003
348.003
347.743
347.249
346.571
345.765
344.889
343.994
343.124
342.325
341.711
335.306
335.816
336.488
337.224
337.98
338.72
339.401
339.974
340.39
340.61
340.61
340.39
339.974
339.401
338.72
337.98
337.224
336.488
335.816
335.306
328.897
329.307
329.856
330.457
331.075
331.68
332.236
332.704
333.043
333.223
333.223
333.043
332.704
332.236
331.68
331.075
330.457
329.856
329.307
328.897
322.485
322.8
323.225
323.692
324.173
324.643
325.075
325.438
325.702
325.841
325.841
325.702
325.438
325.075
324.643
324.173
323.692
323.225
322.8
322.485
316.07
316.293
316.596
316.93
317.273
317.609
317.917
318.176
318.365
318.464
318.464
318.365
318.176
317.917
317.609
317.273
316.93
316.596
316.293
316.07
309.654
309.787
309.968
310.169
310.375
310.576
310.761
310.917
311.03
311.09
311.09
311.03
310.917
310.761
310.576
310.375
310.169
309.968
309.787
309.654
303.236
303.281
303.341
303.409
303.478
303.545
303.607
303.659
303.697
303.717
303.717
303.697
303.659
303.607
303.545
303.478
303.409
303.341
303.281
303.236
348.561
349.27
350.172
351.151
352.154
353.134
354.035
354.792
355.342
355.632
355.632
355.342
354.792
354.035
353.134
352.154
351.151
350.172
349.27
348.561
342.1
342.701
343.479
344.326
345.194
346.042
346.821
347.475
347.95
348.201
348.201
347.95
347.475
346.821
346.042
345.194
344.326
343.479
342.701
342.1
335.635
336.133
336.789
337.504
338.238
338.955
339.612
340.165
340.566
340.777
340.777
340.566
340.165
339.612
338.955
338.238
337.504
336.789
336.133
335.635
329.166
329.567
330.101
330.686
331.286
331.872
332.409
332.86
333.188
333.36
333.36
333.188
332.86
332.409
331.872
331.286
330.686
330.101
329.567
329.166
322.694
323.001
323.416
323.871
324.337
324.792
325.21
325.56
325.814
325.948
325.948
325.814
325.56
325.21
324.792
324.337
323.871
323.416
323.001
322.694
316.219
316.437
316.733
317.057
317.39
317.715
318.013
318.264
318.445
318.54
318.54
318.445
318.264
318.013
317.715
317.39
317.057
316.733
316.437
316.219
309.743
309.873
310.05
310.245
310.445
310.64
310.819
310.969
311.078
311.136
311.136
311.078
310.969
310.819
310.64
310.445
310.245
310.05
309.873
309.743
303.266
303.31
303.369
303.434
303.501
303.567
303.627
303.677
303.713
303.733
303.733
303.713
303.677
303.627
303.567
303.501
303.434
303.369
303.31
303.266
349.166
349.853
350.725
351.669
352.634
353.573
354.434
355.155
355.678
355.954
355.954
355.678
355.155
354.434
353.573
352.634
351.669
350.725
349.853
349.166
342.623
343.205
343.958
344.774
345.609
346.422
347.166
347.79
348.242
348.48
348.48
348.242
347.79
347.166
346.422
345.609
344.774
343.958
343.205
342.623
336.077
336.559
337.193
337.884
338.589
339.276
339.905
340.432
340.813
341.014
341.014
340.813
340.432
339.905
339.276
338.589
337.884
337.193
336.559
336.077
329.527
329.915
330.432
330.996
331.573
332.135
332.648
333.079
333.39
333.554
333.554
333.39
333.079
332.648
332.135
331.573
330.996
330.432
329.915
329.527
322.974
323.272
323.673
324.112
324.56
324.997
325.396
325.73
325.972
326.1
326.1
325.972
325.73
325.396
324.997
324.56
324.112
323.673
323.272
322.974
316.419
316.63
316.916
317.229
317.55
317.861
318.146
318.385
318.558
318.649
318.649
318.558
318.385
318.146
317.861
317.55
317.229
316.916
316.63
316.419
309.863
309.989
310.161
310.349
310.541
310.728
310.899
311.043
311.146
311.201
311.201
311.146
311.043
310.899
310.728
310.541
310.349
310.161
309.989
309.863
303.306
303.348
303.406
303.469
303.533
303.596
303.653
303.701
303.736
303.754
303.754
303.736
303.701
303.653
303.596
303.533
303.469
303.406
303.348
303.306
349.926
350.588
351.425
352.328
353.247
354.139
354.953
355.634
356.126
356.385
356.385
356.126
355.634
354.953
354.139
353.247
352.328
351.425
350.588
349.926
343.281
343.841
344.564
345.345
346.14
346.912
347.617
348.206
348.631
348.855
348.855
348.631
348.206
347.617
346.912
346.14
345.345
344.564
343.841
343.281
336.632
337.097
337.706
338.366
339.038
339.691
340.286
340.783
341.143
341.332
341.332
341.143
340.783
340.286
339.691
339.038
338.366
337.706
337.097
336.632
329.981
330.355
330.851
331.39
331.941
332.474
332.96
333.367
333.66
333.814
333.814
333.66
333.367
332.96
332.474
331.941
331.39
330.851
330.355
329.981
323.327
323.614
323.999
324.418
324.846
325.26
325.639
325.954
326.182
326.302
326.302
326.182
325.954
325.639
325.26
324.846
324.418
323.999
323.614
323.327
316.671
316.874
317.149
317.448
317.754
318.05
318.32
318.545
318.708
318.793
318.793
318.708
318.545
318.32
318.05
317.754
317.448
317.149
316.874
316.671
310.014
310.136
310.3
310.48
310.664
310.841
311.003
311.139
311.236
311.288
311.288
311.236
311.139
311.003
310.841
310.664
310.48
310.3
310.136
310.014
303.357
303.398
303.453
303.513
303.574
303.634
303.688
303.734
303.766
303.784
303.784
303.766
303.734
303.688
303.634
303.574
303.513
303.453
303.398
303.357
350.847
351.48
352.277
353.134
354.003
354.842
355.605
356.242
356.7
356.941
356.941
356.7
356.242
355.605
354.842
354.003
353.134
352.277
351.48
350.847
344.077
344.613
345.301
346.042
346.795
347.521
348.182
348.732
349.129
349.337
349.337
349.129
348.732
348.182
347.521
346.795
346.042
345.301
344.613
344.077
337.305
337.749
338.329
338.956
339.592
340.206
340.764
341.229
341.564
341.74
341.74
341.564
341.229
340.764
340.206
339.592
338.956
338.329
337.749
337.305
330.53
330.888
331.36
331.873
332.393
332.895
333.351
333.731
334.005
334.149
334.149
334.005
333.731
333.351
332.895
332.393
331.873
331.36
330.888
330.53
323.754
324.028
324.395
324.793
325.198
325.588
325.943
326.238
326.451
326.562
326.562
326.451
326.238
325.943
325.588
325.198
324.793
324.395
324.028
323.754
316.976
317.17
317.432
317.716
318.005
318.284
318.537
318.748
318.9
318.98
318.98
318.9
318.748
318.537
318.284
318.005
317.716
317.432
317.17
316.976
310.197
310.313
310.47
310.641
310.814
310.982
311.134
311.261
311.352
311.399
311.399
311.352
311.261
311.134
310.982
310.814
310.641
310.47
310.313
310.197
303.418
303.457
303.51
303.567
303.625
303.681
303.732
303.775
303.805
303.821
303.821
303.805
303.775
303.732
303.681
303.625
303.567
303.51
303.457
303.418
351.93
352.531
353.287
354.094
354.909
355.693
356.402
356.992
357.415
357.637
357.637
357.415
356.992
356.402
355.693
354.909
354.094
353.287
352.531
351.93
345.014
345.523
346.175
346.873
347.579
348.258
348.872
349.382
349.749
349.941
349.941
349.749
349.382
348.872
348.258
347.579
346.873
346.175
345.523
345.014
338.096
338.518
339.067
339.658
340.255
340.829
341.348
341.779
342.089
342.251
342.251
342.089
341.779
341.348
340.829
340.255
339.658
339.067
338.518
338.096
331.177
331.517
331.964
332.447
332.935
333.404
333.829
334.181
334.434
334.567
334.567
334.434
334.181
333.829
333.404
332.935
332.447
331.964
331.517
331.177
324.256
324.517
324.864
325.24
325.619
325.984
326.314
326.588
326.785
326.888
326.888
326.785
326.588
326.314
325.984
325.619
325.24
324.864
324.517
324.256
317.335
317.519
317.767
318.035
318.306
318.567
318.803
318.998
319.139
319.212
319.212
319.139
318.998
318.803
318.567
318.306
318.035
317.767
317.519
317.335
310.413
310.523
310.671
310.832
310.995
311.152
311.293
311.411
311.495
311.539
311.539
311.495
311.411
311.293
311.152
310.995
310.832
310.671
310.523
310.413
303.491
303.527
303.577
303.631
303.686
303.738
303.786
303.825
303.853
303.868
303.868
303.853
303.825
303.786
303.738
303.686
303.631
303.577
303.527
303.491
353.18
353.748
354.458
355.214
355.974
356.7
357.355
357.897
358.286
358.489
358.489
358.286
357.897
357.355
356.7
355.974
355.214
354.458
353.748
353.18
346.096
346.576
347.189
347.843
348.501
349.13
349.698
350.167
350.503
350.678
350.678
350.503
350.167
349.698
349.13
348.501
347.843
347.189
346.576
346.096
339.01
339.408
339.925
340.478
341.034
341.567
342.046
342.443
342.727
342.875
342.875
342.727
342.443
342.046
341.567
341.034
340.478
339.925
339.408
339.01
331.923
332.244
332.665
333.118
333.573
334.008
334.4
334.724
334.956
335.078
335.078
334.956
334.724
334.4
334.008
333.573
333.118
332.665
332.244
331.923
324.836
325.083
325.409
325.761
326.115
326.453
326.758
327.01
327.191
327.285
327.285
327.191
327.01
326.758
326.453
326.115
325.761
325.409
325.083
324.836
317.749
317.923
318.156
318.407
318.66
318.902
319.12
319.3
319.429
319.496
319.496
319.429
319.3
319.12
318.902
318.66
318.407
318.156
317.923
317.749
310.661
310.765
310.905
311.056
311.208
311.353
311.484
311.592
311.669
311.71
311.71
311.669
311.592
311.484
311.353
311.208
311.056
310.905
310.765
310.661
303.574
303.609
303.655
303.706
303.757
303.806
303.849
303.886
303.912
303.925
303.925
303.912
303.886
303.849
303.806
303.757
303.706
303.655
303.609
303.574
354.6
355.134
355.798
356.502
357.205
357.875
358.476
358.97
359.324
359.508
359.508
359.324
358.97
358.476
357.875
357.205
356.502
355.798
355.134
354.6
347.324
347.775
348.349
348.958
349.567
350.147
350.668
351.096
351.402
351.562
351.562
351.402
351.096
350.668
350.147
349.567
348.958
348.349
347.775
347.324
340.047
340.422
340.905
341.42
341.936
342.426
342.866
343.229
343.487
343.622
343.622
343.487
343.229
342.866
342.426
341.936
341.42
340.905
340.422
340.047
332.771
333.073
333.467
333.888
334.309
334.711
335.071
335.367
335.578
335.689
335.689
335.578
335.367
335.071
334.711
334.309
333.888
333.467
333.073
332.771
325.495
325.727
326.032
326.36
326.688
327
327.28
327.51
327.674
327.76
327.76
327.674
327.51
327.28
327
326.688
326.36
326.032
325.727
325.495
318.22
318.383
318.601
318.835
319.069
319.292
319.492
319.657
319.774
319.836
319.836
319.774
319.657
319.492
319.292
319.069
318.835
318.601
318.383
318.22
310.944
311.042
311.172
311.313
311.454
311.587
311.708
311.806
311.877
311.914
311.914
311.877
311.806
311.708
311.587
311.454
311.313
311.172
311.042
310.944
303.669
303.701
303.745
303.792
303.839
303.884
303.924
303.957
303.981
303.993
303.993
303.981
303.957
303.924
303.884
303.839
303.792
303.745
303.701
303.669
356.193
356.692
357.311
357.963
358.611
359.224
359.772
360.221
360.542
360.708
360.708
360.542
360.221
359.772
359.224
358.611
357.963
357.311
356.692
356.193
348.702
349.124
349.658
350.223
350.784
351.316
351.79
352.179
352.457
352.601
352.601
352.457
352.179
351.79
351.316
350.784
350.223
349.658
349.124
348.702
341.212
341.562
342.012
342.489
342.964
343.414
343.815
344.145
344.379
344.501
344.501
344.379
344.145
343.815
343.414
342.964
342.489
342.012
341.562
341.212
333.723
334.005
334.372
334.762
335.15
335.518
335.847
336.116
336.308
336.407
336.407
336.308
336.116
335.847
335.518
335.15
334.762
334.372
334.005
333.723
326.235
326.451
326.736
327.039
327.341
327.628
327.883
328.092
328.241
328.319
328.319
328.241
328.092
327.883
327.628
327.341
327.039
326.736
326.451
326.235
318.748
318.901
319.104
319.32
319.536
319.741
319.923
320.073
320.179
320.235
320.235
320.179
320.073
319.923
319.741
319.536
319.32
319.104
318.901
318.748
311.261
311.352
311.474
311.604
311.734
311.857
311.966
312.056
312.12
312.153
312.153
312.12
312.056
311.966
311.857
311.734
311.604
311.474
311.352
311.261
303.775
303.805
303.846
303.89
303.933
303.974
304.011
304.041
304.063
304.074
304.074
304.063
304.041
304.011
303.974
303.933
303.89
303.846
303.805
303.775
357.963
358.427
359.001
359.602
360.196
360.756
361.253
361.659
361.948
362.098
362.098
361.948
361.659
361.253
360.756
360.196
359.602
359.001
358.427
357.963
350.233
350.626
351.121
351.641
352.156
352.641
353.072
353.424
353.674
353.804
353.804
353.674
353.424
353.072
352.641
352.156
351.641
351.121
350.626
350.233
342.505
342.831
343.248
343.689
344.124
344.535
344.899
345.197
345.408
345.518
345.518
345.408
345.197
344.899
344.535
344.124
343.689
343.248
342.831
342.505
334.78
335.042
335.382
335.742
336.099
336.435
336.733
336.976
337.149
337.239
337.239
337.149
336.976
336.733
336.435
336.099
335.742
335.382
335.042
334.78
327.056
327.258
327.521
327.801
328.079
328.34
328.572
328.761
328.896
328.966
328.966
328.896
328.761
328.572
328.34
328.079
327.801
327.521
327.258
327.056
319.334
319.477
319.665
319.865
320.063
320.25
320.415
320.551
320.647
320.697
320.697
320.647
320.551
320.415
320.25
320.063
319.865
319.665
319.477
319.334
311.613
311.698
311.811
311.931
312.05
312.162
312.262
312.343
312.401
312.431
312.431
312.401
312.343
312.262
312.162
312.05
311.931
311.811
311.698
311.613
303.893
303.921
303.959
303.999
304.039
304.077
304.11
304.137
304.157
304.167
304.167
304.157
304.137
304.11
304.077
304.039
303.999
303.959
303.921
303.893
359.911
360.342
360.871
361.423
361.966
362.475
362.924
363.29
363.549
363.683
363.683
363.549
363.29
362.924
362.475
361.966
361.423
360.871
360.342
359.911
351.918
352.283
352.74
353.218
353.688
354.129
354.519
354.836
355.06
355.177
355.177
355.06
354.836
354.519
354.129
353.688
353.218
352.74
352.283
351.918
343.929
344.231
344.617
345.021
345.419
345.792
346.122
346.39
346.58
346.678
346.678
346.58
346.39
346.122
345.792
345.419
345.021
344.617
344.231
343.929
335.943
336.187
336.501
336.832
337.157
337.463
337.733
337.952
338.107
338.188
338.188
338.107
337.952
337.733
337.463
337.157
336.832
336.501
336.187
335.943
327.961
328.147
328.391
328.648
328.902
329.139
329.349
329.52
329.641
329.703
329.703
329.641
329.52
329.349
329.139
328.902
328.648
328.391
328.147
327.961
319.98
320.112
320.286
320.47
320.651
320.82
320.97
321.092
321.179
321.223
321.223
321.179
321.092
320.97
320.82
320.651
320.47
320.286
320.112
319.98
312.001
312.08
312.184
312.294
312.403
312.505
312.595
312.668
312.72
312.747
312.747
312.72
312.668
312.595
312.505
312.403
312.294
312.184
312.08
312.001
304.023
304.049
304.084
304.121
304.157
304.192
304.222
304.246
304.264
304.273
304.273
304.264
304.246
304.222
304.192
304.157
304.121
304.084
304.049
304.023
362.038
362.436
362.924
363.429
363.924
364.384
364.79
365.118
365.35
365.47
365.47
365.35
365.118
364.79
364.384
363.924
363.429
362.924
362.436
362.038
353.758
354.095
354.516
354.954
355.382
355.782
356.133
356.418
356.619
356.723
356.723
356.619
356.418
356.133
355.782
355.382
354.954
354.516
354.095
353.758
345.484
345.763
346.118
346.488
346.851
347.189
347.486
347.727
347.897
347.985
347.985
347.897
347.727
347.486
347.189
346.851
346.488
346.118
345.763
345.484
337.214
337.439
337.728
338.031
338.328
338.604
338.848
339.045
339.184
339.256
339.256
339.184
339.045
338.848
338.604
338.328
338.031
337.728
337.439
337.214
328.948
329.12
329.345
329.58
329.811
330.027
330.216
330.369
330.478
330.534
330.534
330.478
330.369
330.216
330.027
329.811
329.58
329.345
329.12
328.948
320.685
320.807
320.967
321.135
321.3
321.454
321.59
321.699
321.776
321.816
321.816
321.776
321.699
321.59
321.454
321.3
321.135
320.967
320.807
320.685
312.424
312.497
312.593
312.694
312.793
312.885
312.967
313.033
313.079
313.103
313.103
313.079
313.033
312.967
312.885
312.793
312.694
312.593
312.497
312.424
304.165
304.189
304.221
304.255
304.288
304.319
304.346
304.368
304.384
304.392
304.392
304.384
304.368
304.346
304.319
304.288
304.255
304.221
304.189
304.165
364.342
364.71
365.158
365.619
366.068
366.485
366.849
367.144
367.351
367.458
367.458
367.351
367.144
366.849
366.485
366.068
365.619
365.158
364.71
364.342
355.751
356.062
356.448
356.848
357.238
357.599
357.915
358.17
358.35
358.442
358.442
358.35
358.17
357.915
357.599
357.238
356.848
356.448
356.062
355.751
347.167
347.425
347.751
348.089
348.418
348.724
348.992
349.208
349.36
349.438
349.438
349.36
349.208
348.992
348.724
348.418
348.089
347.751
347.425
347.167
338.589
338.797
339.062
339.339
339.609
339.859
340.078
340.255
340.379
340.443
340.443
340.379
340.255
340.078
339.859
339.609
339.339
339.062
338.797
338.589
330.016
330.176
330.382
330.597
330.807
331.001
331.172
331.309
331.406
331.456
331.456
331.406
331.309
331.172
331.001
330.807
330.597
330.382
330.176
330.016
321.448
321.56
321.707
321.861
322.011
322.15
322.272
322.37
322.439
322.475
322.475
322.439
322.37
322.272
322.15
322.011
321.861
321.707
321.56
321.448
312.882
312.949
313.037
313.13
313.22
313.303
313.377
313.436
313.477
313.499
313.499
313.477
313.436
313.377
313.303
313.22
313.13
313.037
312.949
312.882
304.318
304.34
304.37
304.401
304.431
304.459
304.484
304.503
304.517
304.525
304.525
304.517
304.503
304.484
304.459
304.431
304.401
304.37
304.34
304.318
366.815
367.154
367.564
367.985
368.392
368.767
369.095
369.358
369.543
369.638
369.638
369.543
369.358
369.095
368.767
368.392
367.985
367.564
367.154
366.815
357.888
358.175
358.528
358.893
359.246
359.572
359.856
360.085
360.245
360.327
360.327
360.245
360.085
359.856
359.572
359.246
358.893
358.528
358.175
357.888
348.971
349.208
349.507
349.815
350.114
350.39
350.63
350.824
350.959
351.029
351.029
350.959
350.824
350.63
350.39
350.114
349.815
349.507
349.208
348.971
340.062
340.253
340.496
340.749
340.993
341.219
341.416
341.574
341.685
341.743
341.743
341.685
341.574
341.416
341.219
340.993
340.749
340.496
340.253
340.062
331.16
331.307
331.496
331.692
331.882
332.058
332.211
332.335
332.421
332.465
332.465
332.421
332.335
332.211
332.058
331.882
331.692
331.496
331.307
331.16
322.264
322.368
322.502
322.643
322.779
322.904
323.014
323.102
323.164
323.196
323.196
323.164
323.102
323.014
322.904
322.779
322.643
322.502
322.368
322.264
313.372
313.434
313.514
313.599
313.68
313.756
313.822
313.875
313.912
313.931
313.931
313.912
313.875
313.822
313.756
313.68
313.599
313.514
313.434
313.372
304.482
304.503
304.53
304.558
304.585
304.611
304.633
304.651
304.663
304.669
304.669
304.663
304.651
304.633
304.611
304.585
304.558
304.53
304.503
304.482
369.431
369.742
370.117
370.501
370.87
371.209
371.503
371.739
371.903
371.988
371.988
371.903
371.739
371.503
371.209
370.87
370.501
370.117
369.742
369.431
360.145
360.408
360.732
361.064
361.384
361.678
361.933
362.138
362.281
362.355
362.355
362.281
362.138
361.933
361.678
361.384
361.064
360.732
360.408
360.145
350.872
351.09
351.364
351.645
351.916
352.165
352.381
352.554
352.675
352.738
352.738
352.675
352.554
352.381
352.165
351.916
351.645
351.364
351.09
350.872
341.612
341.788
342.011
342.241
342.463
342.667
342.844
342.985
343.085
343.136
343.136
343.085
342.985
342.844
342.667
342.463
342.241
342.011
341.788
341.612
332.363
332.497
332.67
332.849
333.022
333.181
333.319
333.429
333.506
333.546
333.546
333.506
333.429
333.319
333.181
333.022
332.849
332.67
332.497
332.363
323.121
323.217
323.34
323.468
323.591
323.705
323.803
323.882
323.938
323.966
323.966
323.938
323.882
323.803
323.705
323.591
323.468
323.34
323.217
323.121
313.886
313.943
314.017
314.094
314.168
314.236
314.295
314.343
314.376
314.393
314.393
314.376
314.343
314.295
314.236
314.168
314.094
314.017
313.943
313.886
304.654
304.673
304.698
304.724
304.749
304.772
304.791
304.807
304.818
304.824
304.824
304.818
304.807
304.791
304.772
304.749
304.724
304.698
304.673
304.654
372.121
372.408
372.752
373.101
373.437
373.743
374.008
374.219
374.367
374.443
374.443
374.367
374.219
374.008
373.743
373.437
373.101
372.752
372.408
372.121
362.455
362.697
362.994
363.298
363.588
363.854
364.084
364.268
364.396
364.462
364.462
364.396
364.268
364.084
363.854
363.588
363.298
362.994
362.697
362.455
352.811
353.012
353.263
353.52
353.766
353.991
354.186
354.342
354.45
354.506
354.506
354.45
354.342
354.186
353.991
353.766
353.52
353.263
353.012
352.811
343.188
343.349
343.554
343.764
343.966
344.15
344.31
344.438
344.527
344.572
344.572
344.527
344.438
344.31
344.15
343.966
343.764
343.554
343.349
343.188
333.581
333.705
333.864
334.027
334.185
334.328
334.453
334.552
334.621
334.657
334.657
334.621
334.552
334.453
334.328
334.185
334.027
333.864
333.705
333.581
323.988
324.076
324.189
324.306
324.418
324.521
324.61
324.681
324.731
324.756
324.756
324.731
324.681
324.61
324.521
324.418
324.306
324.189
324.076
323.988
314.405
314.457
314.525
314.596
314.663
314.725
314.778
314.821
314.851
314.866
314.866
314.851
314.821
314.778
314.725
314.663
314.596
314.525
314.457
314.405
304.828
304.846
304.868
304.892
304.915
304.935
304.953
304.967
304.977
304.983
304.983
304.977
304.967
304.953
304.935
304.915
304.892
304.868
304.846
304.828
374.715
374.979
375.296
375.618
375.924
376.204
376.444
376.636
376.769
376.837
376.837
376.769
376.636
376.444
376.204
375.924
375.618
375.296
374.979
374.715
364.655
364.879
365.153
365.432
365.699
365.941
366.151
366.317
366.433
366.492
366.492
366.433
366.317
366.151
365.941
365.699
365.432
365.153
364.879
364.655
354.638
354.823
355.055
355.292
355.518
355.724
355.901
356.042
356.141
356.191
356.191
356.141
356.042
355.901
355.724
355.518
355.292
355.055
354.823
354.638
344.658
344.807
344.997
345.19
345.376
345.545
345.69
345.806
345.887
345.928
345.928
345.887
345.806
345.69
345.545
345.376
345.19
344.997
344.807
344.658
334.709
334.824
334.971
335.122
335.267
335.398
335.512
335.602
335.665
335.697
335.697
335.665
335.602
335.512
335.398
335.267
335.122
334.971
334.824
334.709
324.786
324.868
324.973
325.08
325.184
325.278
325.359
325.424
325.469
325.492
325.492
325.469
325.424
325.359
325.278
325.184
325.08
324.973
324.868
324.786
314.881
314.93
314.993
315.058
315.12
315.176
315.225
315.264
315.291
315.305
315.305
315.291
315.264
315.225
315.176
315.12
315.058
314.993
314.93
314.881
304.987
305.003
305.024
305.046
305.067
305.086
305.102
305.115
305.125
305.129
305.129
305.125
305.115
305.102
305.086
305.067
305.046
305.024
305.003
304.987
376.753
377.002
377.3
377.602
377.888
378.149
378.373
378.55
378.674
378.737
378.737
378.674
378.55
378.373
378.149
377.888
377.602
377.3
377.002
376.753
366.318
366.529
366.788
367.051
367.301
367.528
367.723
367.878
367.986
368.041
368.041
367.986
367.878
367.723
367.528
367.301
367.051
366.788
366.529
366.318
355.976
356.151
356.37
356.593
356.806
356.999
357.166
357.298
357.389
357.436
357.436
357.389
357.298
357.166
356.999
356.806
356.593
356.37
356.151
355.976
345.708
345.85
346.029
346.212
346.387
346.546
346.683
346.791
346.867
346.905
346.905
346.867
346.791
346.683
346.546
346.387
346.212
346.029
345.85
345.708
335.501
335.61
335.749
335.892
336.028
336.152
336.259
336.344
336.403
336.433
336.433
336.403
336.344
336.259
336.152
336.028
335.892
335.749
335.61
335.501
325.338
325.416
325.515
325.617
325.715
325.804
325.88
325.941
325.983
326.005
326.005
325.983
325.941
325.88
325.804
325.715
325.617
325.515
325.416
325.338
315.207
315.254
315.313
315.375
315.434
315.487
315.533
315.57
315.595
315.608
315.608
315.595
315.57
315.533
315.487
315.434
315.375
315.313
315.254
315.207
305.096
305.111
305.131
305.152
305.171
305.189
305.205
305.217
305.226
305.23
305.23
305.226
305.217
305.205
305.189
305.171
305.152
305.131
305.111
305.096
)
;

boundaryField
{
    hotSide
    {
        type            fixedGradient;
        gradient        nonuniform List<scalar> 
400
(
506.593
508.22
511.483
516.397
522.984
531.272
541.291
553.078
566.666
582.093
599.392
618.597
639.737
662.839
687.926
715.019
744.134
775.286
808.484
843.737
516.38
517.93
521.041
525.733
532.036
539.987
549.627
561
574.154
589.133
605.98
624.736
645.437
668.114
692.795
719.503
748.255
779.067
811.95
846.912
526.971
528.429
531.358
535.788
541.755
549.31
558.505
569.399
582.051
596.518
612.852
631.103
651.314
673.522
697.758
724.046
752.408
782.858
815.406
850.061
538.192
539.542
542.261
546.385
551.965
559.065
567.754
578.105
590.194
604.089
619.856
637.554
657.234
678.936
702.697
728.543
756.496
786.569
818.772
853.112
549.728
550.957
553.439
557.222
562.371
568.967
577.098
586.857
598.334
611.615
626.779
643.893
663.015
684.194
707.466
732.861
760.398
790.093
821.953
855.983
561.099
562.198
564.428
567.847
572.539
578.603
586.15
595.292
606.138
618.79
633.341
649.866
668.433
689.093
711.886
736.841
763.978
793.31
824.844
858.579
571.653
572.623
574.6
577.658
581.898
587.439
594.414
602.956
613.194
625.245
639.212
655.184
673.231
693.409
715.761
740.314
767.087
796.093
827.333
860.806
580.611
581.464
583.214
585.948
589.782
594.858
601.327
609.341
619.046
630.574
644.038
659.535
677.139
696.91
718.89
743.107
769.579
798.314
829.313
862.573
587.167
587.93
589.507
591.992
595.518
600.241
606.327
613.945
623.252
634.39
647.482
662.629
679.909
699.383
721.094
745.068
771.323
799.865
830.692
863.8
590.641
591.355
592.837
595.188
598.547
603.078
608.957
616.361
625.454
636.384
649.278
664.239
681.347
700.665
722.233
746.081
772.222
800.662
831.4
864.429
590.641
591.355
592.837
595.188
598.547
603.078
608.957
616.361
625.454
636.384
649.278
664.239
681.347
700.665
722.233
746.081
772.222
800.662
831.4
864.429
587.167
587.93
589.507
591.992
595.518
600.241
606.327
613.945
623.252
634.39
647.482
662.629
679.909
699.383
721.094
745.068
771.323
799.865
830.692
863.8
580.611
581.464
583.214
585.948
589.782
594.858
601.327
609.341
619.046
630.574
644.038
659.535
677.139
696.91
718.89
743.107
769.579
798.314
829.313
862.573
571.653
572.623
574.6
577.658
581.898
587.439
594.414
602.956
613.194
625.245
639.212
655.184
673.231
693.409
715.761
740.314
767.087
796.093
827.333
860.806
561.099
562.198
564.428
567.847
572.539
578.603
586.15
595.292
606.138
618.79
633.341
649.866
668.433
689.093
711.886
736.841
763.978
793.31
824.844
858.579
549.728
550.957
553.439
557.222
562.371
568.967
577.098
586.857
598.334
611.615
626.779
643.893
663.015
684.194
707.466
732.861
760.398
790.093
821.953
855.983
538.192
539.542
542.261
546.385
551.965
559.065
567.754
578.105
590.194
604.089
619.856
637.554
657.234
678.936
702.697
728.543
756.496
786.569
818.772
853.112
526.971
528.429
531.358
535.788
541.755
549.31
558.505
569.399
582.051
596.518
612.852
631.103
651.314
673.522
697.758
724.046
752.408
782.858
815.406
850.061
516.38
517.93
521.041
525.733
532.036
539.987
549.627
561
574.154
589.133
605.98
624.736
645.437
668.114
692.795
719.503
748.255
779.067
811.95
846.912
506.593
508.22
511.483
516.397
522.984
531.272
541.291
553.078
566.666
582.093
599.392
618.597
639.737
662.839
687.926
715.019
744.134
775.286
808.484
843.737
)
;
    }
    coldSide
    {
        type            mixed;
        refValue        uniform 300;
        refGradient     uniform 0;
        valueFraction   uniform 0.991591;
        source          uniform 0;
        value           nonuniform List<scalar> 
400
(
300.027
300.027
300.027
300.027
300.028
300.028
300.029
300.029
300.03
300.031
300.032
300.033
300.034
300.035
300.036
300.038
300.039
300.041
300.042
300.043
300.027
300.027
300.028
300.028
300.028
300.029
300.029
300.03
300.03
300.031
300.032
300.033
300.034
300.035
300.036