/*--------------------------------*- C++ -*----------------------------------*\
| =========                 |                                                 |
| \\      /  F ield         | OpenFOAM: The Open Source CFD Toolbox           |
|  \\    /   O peration     | Version:  2212                                  |
|   \\  /    A nd           | Website:  www.openfoam.com                      |
|    \\/     M anipulation  |                                                 |
\*---------------------------------------------------------------------------*/
FoamFile
{
    version     2.0;
    format      ascii;
    arch        "LSB;label=32;scalar=64";
    class       volScalarField;
    location    "0";
    object      T;
}
// * * * * * * * * * * * * * * * * * * * * * * * * * * * * * * * * * * * * * //

dimensions      [0 0 0 1 0 0 0];

internalField   nonuniform List<scalar> 
3200
(
337.279
336.253
335.626
335.649
336.173
336.978
337.975
338.93
339.805
340.34
340.973
341.204
341.175
340.877
340.537
340.348
340.293
340.655
341.399
342.738
332.26
331.405
330.877
330.91
331.356
332.032
332.894
333.719
334.472
334.943
335.498
335.644
335.619
335.349
335.039
334.862
334.794
335.131
335.746
336.862
327.272
326.575
326.144
326.153
326.547
327.108
327.809
328.534
329.162
329.567
330.039
330.136
330.093
329.861
329.592
329.431
329.361
329.666
330.168
331.09
322.297
321.737
321.41
321.396
321.758
322.199
322.73
323.372
323.859
324.183
324.564
324.638
324.604
324.401
324.201
324.048
323.987
324.228
324.627
325.375
317.338
316.884
316.656
316.641
316.967
317.266
317.661
318.194
318.559
318.812
319.093
319.139
319.119
318.953
318.8
318.699
318.636
318.808
319.144
319.706
312.377
312.043
311.904
311.879
312.156
312.326
312.614
313.009
313.262
313.44
313.655
313.674
313.638
313.524
313.406
313.355
313.313
313.428
313.674
314.061
307.428
307.228
307.137
307.142
307.325
307.395
307.585
307.83
307.975
308.089
308.194
308.212
308.175
308.118
308.055
308.006
308.003
308.068
308.204
308.429
302.492
302.425
302.392
302.401
302.458
302.482
302.547
302.627
302.673
302.714
302.748
302.747
302.736
302.717
302.706
302.687
302.68
302.699
302.744
302.822
337.518
336.376
335.945
335.874
336.455
337.366
338.402
339.41
340.238
340.977
341.542
341.745
341.698
341.402
340.962
340.649
340.573
340.928
341.561
342.754
332.481
331.526
331.191
331.099
331.598
332.388
333.278
334.146
334.856
335.48
335.962
336.148
336.053
335.807
335.398
335.142
335.057
335.347
335.876
336.88
327.469
326.667
326.42
326.327
326.725
327.415
328.172
328.893
329.478
330.003
330.414
330.558
330.457
330.257
329.882
329.682
329.588
329.852
330.25
331.094
322.456
321.81
321.628
321.529
321.882
322.458
323.037
323.644
324.133
324.54
324.905
324.96
324.867
324.736
324.43
324.243
324.174
324.399
324.689
325.354
317.457
316.961
316.809
316.734
317.029
317.469
317.913
318.395
318.779
319.085
319.379
319.392
319.298
319.233
318.976
318.823
318.789
318.954
319.163
319.653
312.487
312.123
312.013
311.938
312.168
312.49
312.778
313.137
313.422
313.634
313.844
313.841
313.773
313.744
313.542
313.421
313.421
313.531
313.661
314.019
307.491
307.276
307.22
307.155
307.309
307.496
307.663
307.888
308.06
308.187
308.3
308.311
308.274
308.238
308.126
308.041
308.059
308.113
308.196
308.405
302.522
302.424
302.422
302.397
302.449
302.514
302.585
302.643
302.688
302.744
302.784
302.784
302.773
302.76
302.72
302.692
302.701
302.723
302.748
302.81
337.907
336.985
336.434
336.363
337.07
337.948
339.11
340.029
341.007
341.71
342.269
342.556
342.375
342.047
341.747
341.329
341.036
341.342
341.973
343.097
332.833
332.074
331.591
331.53
332.131
332.88
333.878
334.672
335.511
336.123
336.57
336.807
336.654
336.355
336.083
335.713
335.443
335.739
336.236
337.175
327.763
327.156
326.75
326.682
327.175
327.81
328.661
329.323
330.024
330.551
330.907
331.096
330.953
330.733
330.463
330.159
329.915
330.175
330.567
331.332
322.713
322.235
321.92
321.84
322.247
322.743
323.458
323.982
324.537
325.011
325.261
325.413
325.313
325.135
324.882
324.653
324.433
324.642
324.925
325.564
317.664
317.301
317.057
316.996
317.305
317.673
318.269
318.647
319.072
319.457
319.642
319.738
319.695
319.554
319.319
319.167
318.971
319.133
319.319
319.832
312.616
312.382
312.206
312.131
312.376
312.627
313.053
313.31
313.623
313.898
314.015
314.076
314.06
313.986
313.784
313.68
313.542
313.665
313.752
314.136
307.596
307.433
307.353
307.294
307.429
307.583
307.839
307.991
308.18
308.347
308.415
308.443
308.447
308.416
308.282
308.211
308.122
308.188
308.244
308.476
302.553
302.489
302.472
302.445
302.489
302.533
302.623
302.685
302.747
302.779
302.816
302.828
302.832
302.811
302.776
302.751
302.722
302.745
302.759
302.847
338.429
337.487
337.145
337.079
337.809
338.757
339.825
340.802
341.784
342.665
343.192
343.556
343.38
342.942
342.51
342.095
341.824
341.944
342.628
343.57
333.278
332.516
332.225
332.162
332.774
333.584
334.494
335.327
336.183
336.954
337.351
337.683
337.532
337.142
336.77
336.396
336.156
336.219
336.817
337.597
328.153
327.553
327.296
327.236
327.767
328.422
329.206
329.878
330.592
331.257
331.559
331.841
331.729
331.378
331.072
330.756
330.529
330.571
331.047
331.703
323.03
322.541
322.357
322.307
322.734
323.259
323.933
324.442
325.017
325.555
325.789
326.024
325.951
325.65
325.412
325.159
324.951
324.952
325.321
325.879
317.925
317.516
317.396
317.368
317.686
318.093
318.623
318.994
319.461
319.868
320.048
320.233
320.194
319.938
319.75
319.572
319.392
319.379
319.661
320.084
312.835
312.509
312.451
312.412
312.654
312.931
313.314
313.552
313.899
314.176
314.332
314.453
314.44
314.252
314.103
313.993
313.854
313.817
314.02
314.336
307.735
307.504
307.488
307.458
307.613
307.783
307.998
308.137
308.353
308.51
308.599
308.675
308.671
308.553
308.47
308.394
308.328
308.284
308.424
308.609
302.595
302.512
302.507
302.494
302.555
302.601
302.681
302.735
302.807
302.848
302.877
302.901
302.903
302.866
302.84
302.803
302.784
302.772
302.814
302.871
339.29
338.413
338.004
338.082
338.798
339.634
340.839
341.78
342.825
343.718
344.336
344.616
344.407
343.973
343.429
343.075
342.657
342.713
343.484
344.356
334.026
333.315
332.978
333.028
333.616
334.355
335.396
336.195
337.093
337.849
338.372
338.614
338.421
338.043
337.542
337.226
336.851
336.896
337.569
338.243
328.769
328.211
327.928
327.982
328.45
329.055
329.962
330.605
331.371
332.003
332.436
332.647
332.477
332.145
331.699
331.429
331.103
331.157
331.696
332.224
323.537
323.112
322.868
322.904
323.284
323.758
324.525
325.036
325.667
326.167
326.506
326.709
326.574
326.29
325.888
325.67
325.4
325.448
325.865
326.288
318.321
317.999
317.816
317.81
318.105
318.492
319.071
319.458
319.992
320.355
320.614
320.794
320.673
320.441
320.101
319.947
319.729
319.759
320.116
320.421
313.105
312.86
312.745
312.726
312.938
313.226
313.623
313.884
314.314
314.508
314.715
314.876
314.796
314.61
314.333
314.234
314.075
314.075
314.381
314.575
307.891
307.72
307.689
307.642
307.78
307.957
308.178
308.336
308.611
308.687
308.828
308.948
308.877
308.772
308.583
308.54
308.438
308.441
308.631
308.762
302.656
302.59
302.578
302.576
302.612
302.662
302.744
302.79
302.888
302.907
302.965
303.001
302.975
302.943
302.864
302.874
302.832
302.822
302.899
302.935
340.488
339.59
339.189
339.244
339.801
340.772
341.965
343.003
344.092
344.924
345.532
345.875
345.623
345.018
344.529
344.15
343.825
343.917
344.481
345.24
335.051
334.317
333.982
334.03
334.505
335.331
336.357
337.245
338.191
338.902
339.402
339.698
339.467
338.929
338.495
338.177
337.882
337.963
338.436
339.044
329.653
329.057
328.768
328.815
329.227
329.91
330.77
331.525
332.289
332.895
333.321
333.545
333.382
332.877
332.519
332.225
331.999
332.07
332.445
332.933
324.248
323.775
323.57
323.595
323.935
324.454
325.2
325.788
326.412
326.912
327.249
327.444
327.309
326.857
326.556
326.338
326.155
326.197
326.505
326.875
318.881
318.512
318.364
318.363
318.642
319.022
319.628
320.038
320.538
320.921
321.207
321.319
321.229
320.876
320.622
320.465
320.336
320.357
320.589
320.874
313.494
313.23
313.123
313.117
313.332
313.595
314.024
314.313
314.669
314.942
315.177
315.216
315.168
314.898
314.712
314.615
314.515
314.534
314.686
314.877
308.119
307.938
307.9
307.874
308.011
308.172
308.434
308.604
308.795
308.968
309.124
309.14
309.125
308.931
308.825
308.77
308.724
308.753
308.806
308.922
302.72
302.669
302.655
302.635
302.693
302.74
302.831
302.88
302.942
303.005
303.056
303.067
303.058
302.989
302.953
302.939
302.924
302.938
302.957
302.98
341.708
340.945
340.585
340.663
341.076
341.978
343.003
344.217
345.34
346.271
346.853
347.118
346.912
346.201
345.789
345.312
344.999
345.136
345.662
346.37
336.116
335.486
335.204
335.249
335.597
336.375
337.288
338.304
339.26
340.054
340.551
340.781
340.582
339.938
339.62
339.2
338.925
339.037
339.459
340.015
330.532
330.055
329.804
329.849
330.116
330.794
331.567
332.408
333.204
333.86
334.283
334.455
334.326
333.727
333.486
333.127
332.893
332.99
333.306
333.745
324.965
324.603
324.411
324.452
324.637
325.224
325.832
326.507
327.154
327.705
328.029
328.145
328.081
327.555
327.377
327.1
326.892
326.967
327.197
327.536
319.427
319.141
319.002
319.059
319.171
319.631
320.098
320.617
321.1
321.551
321.806
321.858
321.812
321.408
321.287
321.067
320.893
320.952
321.123
321.371
313.878
313.668
313.597
313.658
313.703
314.023
314.382
314.718
315.076
315.409
315.594
315.609
315.572
315.289
315.203
315.04
314.93
314.947
315.071
315.254
308.345
308.221
308.176
308.208
308.221
308.421
308.652
308.828
309.045
309.245
309.373
309.373
309.343
309.185
309.135
309.018
308.978
308.965
309.045
309.159
302.801
302.761
302.739
302.752
302.75
302.824
302.909
302.955
303.033
303.101
303.147
303.135
303.131
303.077
303.051
303.023
303.006
303.007
303.031
303.063
343.034
342.385
342.043
342.046
342.436
343.319
344.307
345.54
346.725
347.521
348.184
348.377
348.298
347.573
347.064
346.582
346.224
346.309
346.849
347.584
337.258
336.734
336.472
336.46
336.755
337.551
338.409
339.447
340.458
341.14
341.697
341.898
341.796
341.153
340.716
340.309
339.977
340.045
340.474
341.06
331.52
331.074
330.907
330.868
331.097
331.789
332.516
333.391
334.222
334.756
335.27
335.452
335.335
334.781
334.402
334.071
333.782
333.822
334.157
334.638
325.81
325.426
325.307
325.28
325.46
326.013
326.583
327.329
327.974
328.387
328.845
329.011
328.869
328.437
328.106
327.841
327.605
327.631
327.892
328.276
320.097
319.785
319.685
319.675
319.804
320.247
320.662
321.263
321.755
322.07
322.457
322.584
322.436
322.116
321.817
321.631
321.44
321.485
321.651
321.939
314.368
314.132
314.098
314.065
314.158
314.51
314.755
315.191
315.543
315.769
316.042
316.144
316.018
315.798
315.578
315.44
315.306
315.349
315.437
315.655
308.635
308.472
308.487
308.438
308.509
308.726
308.848
309.145
309.32
309.482
309.61
309.699
309.624
309.49
309.34
309.263
309.197
309.21
309.258
309.375
302.894
302.83
302.856
302.817
302.858
302.918
302.96
303.065
303.12
303.188
303.208
303.244
303.236
303.175
303.13
303.101
303.089
303.086
303.099
303.138
344.6
343.923
343.453
343.496
343.846
344.565
345.719
346.846
347.974
348.847
349.483
349.669
349.575
349.016
348.343
347.855
347.604
347.66
348.165
348.917
338.649
338.077
337.695
337.732
337.995
338.597
339.613
340.587
341.552
342.288
342.832
342.989
342.911
342.44
341.826
341.391
341.172
341.198
341.63
342.229
332.708
332.228
331.928
331.945
332.132
332.66
333.536
334.337
335.14
335.757
336.225
336.355
336.295
335.874
335.356
334.976
334.795
334.798
335.142
335.612
326.779
326.376
326.146
326.148
326.283
326.73
327.457
328.087
328.73
329.233
329.644
329.723
329.696
329.31
328.908
328.589
328.456
328.44
328.688
329.037
320.855
320.522
320.346
320.346
320.445
320.788
321.391
321.845
322.35
322.708
323.047
323.119
323.096
322.791
322.468
322.235
322.137
322.105
322.297
322.53
314.912
314.676
314.557
314.541
314.622
314.878
315.294
315.592
315.962
316.2
316.453
316.537
316.514
316.258
316.055
315.89
315.813
315.792
315.909
316.07
308.96
308.825
308.751
308.717
308.801
308.945
309.168
309.357
309.58
309.74
309.879
309.949
309.935
309.756
309.635
309.552
309.484
309.482
309.537
309.643
302.996
302.946
302.93
302.914
302.953
303.002
303.073
303.137
303.198
303.267
303.312
303.34
303.328
303.266
303.235
303.204
303.179
303.175
303.194
303.23
346.201
345.37
345.078
345.087
345.351
346.045
347.071
348.146
349.202
350.162
350.743
350.865
350.743
350.243
349.61
349.032
348.985
348.935
349.504
350.13
340.029
339.352
339.086
339.095
339.316
339.899
340.781
341.709
342.607
343.429
343.932
344.031
343.925
343.47
342.93
342.444
342.382
342.311
342.8
343.288
333.885
333.33
333.083
333.1
333.293
333.751
334.516
335.297
336.017
336.718
337.137
337.246
337.146
336.744
336.279
335.882
335.818
335.749
336.126
336.538
327.766
327.283
327.08
327.096
327.258
327.618
328.251
328.897
329.462
330.007
330.379
330.47
330.371
330.038
329.676
329.336
329.281
329.234
329.503
329.834
321.623
321.225
321.075
321.089
321.218
321.5
321.988
322.491
322.927
323.327
323.6
323.713
323.61
323.353
323.085
322.809
322.766
322.733
322.922
323.182
315.441
315.165
315.07
315.059
315.154
315.388
315.736
316.086
316.377
316.656
316.835
316.935
316.884
316.687
316.501
316.303
316.266
316.249
316.358
316.556
309.272
309.109
309.041
309.036
309.099
309.245
309.444
309.665
309.833
309.997
310.104
310.169
310.132
310.027
309.919
309.807
309.781
309.761
309.825
309.937
303.094
303.055
303.032
303.019
303.049
303.112
303.16
303.246
303.288
303.351
303.381
303.411
303.404
303.372
303.331
303.29
303.28
303.271
303.287
303.325
347.649
346.928
346.522
346.552
347.028
347.529
348.518
349.482
350.424
351.324
351.929
352.153
351.926
351.398
350.852
350.316
350.163
350.339
350.801
351.6
341.32
340.7
340.327
340.357
340.79
341.193
342.029
342.878
343.668
344.447
344.973
345.157
344.966
344.495
344.022
343.536
343.398
343.525
343.919
344.578
334.981
334.452
334.137
334.182
334.547
334.864
335.561
336.256
336.93
337.583
338.014
338.191
338.019
337.616
337.216
336.806
336.689
336.763
337.088
337.642
328.647
328.196
327.951
328.001
328.286
328.534
329.069
329.636
330.215
330.742
331.068
331.247
331.106
330.761
330.435
330.086
330.003
330.046
330.297
330.763
322.31
321.94
321.747
321.818
322.027
322.192
322.595
323.039
323.487
323.907
324.144
324.299
324.202
323.916
323.671
323.397
323.315
323.348
323.532
323.908
315.951
315.675
315.556
315.615
315.768
315.843
316.147
316.465
316.772
317.086
317.247
317.37
317.312
317.094
316.917
316.707
316.637
316.687
316.785
317.067
309.586
309.409
309.341
309.394
309.481
309.519
309.698
309.89
310.066
310.252
310.353
310.426
310.408
310.269
310.154
310.055
309.979
310.028
310.07
310.244
303.205
303.146
303.121
303.149
303.179
303.195
303.249
303.315
303.369
303.441
303.466
303.489
303.487
303.44
303.396
303.376
303.345
303.366
303.37
303.44
349.184
348.548
348.159
348.214
348.587
348.956
349.897
350.696
351.653
352.39
353.009
353.261
353.001
352.595
352.11
351.636
351.561
351.636
352.174
352.974
342.624
342.082
341.751
341.812
342.115
342.426
343.263
343.925
344.756
345.382
345.894
346.137
345.88
345.545
345.103
344.677
344.629
344.672
345.129
345.759
336.089
335.613
335.334
335.393
335.652
335.917
336.614
337.151
337.845
338.396
338.802
339.031
338.817
338.49
338.097
337.768
337.701
337.753
338.138
338.626
329.543
329.177
328.923
328.974
329.171
329.398
329.939
330.348
330.939
331.39
331.735
331.944
331.764
331.469
331.107
330.88
330.82
330.852
331.181
331.57
322.973
322.718
322.513
322.549
322.707
322.86
323.282
323.578
324.049
324.403
324.675
324.872
324.744
324.458
324.171
324
323.96
323.966
324.244
324.528
316.413
316.247
316.093
316.132
316.234
316.348
316.649
316.836
317.198
317.429
317.633
317.786
317.695
317.471
317.263
317.12
317.09
317.129
317.341
317.507
309.856
309.757
309.663
309.685
309.755
309.826
310.009
310.102
310.329
310.473
310.593
310.7
310.629
310.516
310.364
310.273
310.271
310.292
310.41
310.52
303.299
303.271
303.246
303.238
303.268
303.297
303.366
303.374
303.459
303.522
303.558
303.596
303.558
303.528
303.471
303.443
303.442
303.461
303.482
303.518
350.753
350.223
349.722
349.685
350.087
350.511
351.171
351.978
352.849
353.492
354.006
354.259
354.091
353.78
353.242
352.923
352.892
353.108
353.536
354.224
343.971
343.527
343.097
343.066
343.407
343.805
344.326
345.012
345.77
346.334
346.757
347.005
346.846
346.558
346.084
345.781
345.734
345.955
346.305
346.853
337.192
336.843
336.486
336.438
336.738
337.077
337.501
338.08
338.706
339.177
339.536
339.783
339.608
339.353
338.932
338.706
338.644
338.828
339.141
339.578
330.448
330.161
329.853
329.826
330.067
330.339
330.683
331.147
331.657
332.048
332.35
332.584
332.382
332.173
331.822
331.649
331.57
331.757
332.022
332.34
323.702
323.463
323.248
323.223
323.408
323.601
323.856
324.22
324.617
324.933
325.179
325.347
325.179
325.003
324.757
324.613
324.523
324.697
324.887
325.148
316.956
316.787
316.629
316.624
316.722
316.885
317.069
317.304
317.581
317.809
318.012
318.118
317.991
317.854
317.689
317.594
317.521
317.646
317.8
317.964
310.184
310.085
309.992
309.976
310.046
310.147
310.249
310.394
310.552
310.702
310.827
310.898
310.8
310.716
310.627
310.569
310.523
310.601
310.709
310.778
303.401
303.373
303.351
303.338
303.379
303.403
303.438
303.476
303.533
303.588
303.63
303.655
303.618
303.587
303.565
303.54
303.518
303.569
303.599
303.603
352.387
351.893
351.399
351.302
351.596
351.984
352.501
353.33
354.089
354.619
355.14
355.308
355.169
354.934
354.531
354.133
354.193
354.389
354.808
355.521
345.376
344.955
344.555
344.505
344.735
345.077
345.512
346.21
346.872
347.312
347.8
347.914
347.756
347.6
347.196
346.864
346.875
347.052
347.391
347.996
338.396
338.035
337.703
337.698
337.872
338.154
338.535
339.092
339.64
340.015
340.444
340.523
340.394
340.292
339.903
339.638
339.608
339.768
340.053
340.532
331.433
331.103
330.869
330.876
330.986
331.236
331.546
331.987
332.426
332.725
333.104
333.165
333.04
332.975
332.636
332.418
332.38
332.495
332.769
333.117
324.473
324.206
324.004
324.02
324.113
324.316
324.561
324.892
325.232
325.46
325.746
325.796
325.729
325.632
325.382
325.218
325.147
325.273
325.479
325.726
317.503
317.288
317.14
317.159
317.235
317.376
317.561
317.786
318.009
318.197
318.383
318.43
318.381
318.298
318.144
318.025
317.941
318.037
318.186
318.365
310.52
310.358
310.295
310.307
310.347
310.437
310.549
310.677
310.804
310.943
311.048
311.078
311.034
310.982
310.905
310.839
310.768
310.831
310.914
311.019
303.525
303.459
303.45
303.461
303.481
303.497
303.546
303.574
303.615
303.672
303.69
303.718
303.692
303.685
303.652
303.63
303.605
303.622
303.655
303.689
353.972
353.491
353.088
352.894
353.145
353.521
353.948
354.613
355.271
355.79
356.242
356.227
356.238
355.978
355.73
355.514
355.396
355.626
356.134
356.899
346.752
346.362
346.02
345.839
346.078
346.386
346.755
347.346
347.91
348.33
348.735
348.712
348.718
348.479
348.235
348.047
347.938
348.143
348.555
349.196
339.551
339.216
338.957
338.777
339.019
339.254
339.567
340.085
340.554
340.877
341.228
341.207
341.221
341.02
340.759
340.625
340.512
340.693
341.031
341.576
332.363
332.075
331.878
331.733
331.972
332.134
332.358
332.827
333.183
333.412
333.733
333.711
333.729
333.574
333.314
333.226
333.115
333.277
333.567
333.975
325.194
324.923
324.791
324.667
324.892
324.996
325.163
325.539
325.813
325.981
326.231
326.208
326.25
326.126
325.894
325.855
325.731
325.884
326.098
326.401
318.021
317.809
317.71
317.624
317.782
317.868
317.993
318.24
318.438
318.541
318.743
318.733
318.761
318.653
318.471
318.485
318.371
318.512
318.64
318.846
310.852
310.698
310.633
310.567
310.686
310.747
310.824
310.958
311.063
311.127
311.253
311.25
311.265
311.202
311.068
311.107
311.047
311.121
311.198
311.305
303.64
303.588
303.56
303.536
303.578
303.607
303.63
303.676
303.705
303.731
303.769
303.779
303.777
303.76
303.701
303.729
303.706
303.724
303.753
303.792
355.607
355.27
354.656
354.385
354.558
354.884
355.295
355.878
356.481
356.895
357.243
357.264
357.362
357.066
356.866
356.718
356.705
356.908
357.607
358.258
348.15
347.878
347.362
347.116
347.285
347.553
347.918
348.447
348.934
349.285
349.587
349.591
349.667
349.422
349.221
349.097
349.075
349.241
349.845
350.368
340.739
340.496
340.077
339.877
340.026
340.234
340.534
340.996
341.394
341.683
341.944
341.936
341.981
341.778
341.596
341.534
341.456
341.619
342.129
342.541
333.31
333.115
332.793
332.636
332.776
332.931
333.175
333.567
333.878
334.086
334.33
334.312
334.339
334.183
334.012
333.977
333.887
334.031
334.453
334.754
325.892
325.758
325.513
325.4
325.523
325.636
325.817
326.114
326.334
326.509
326.725
326.694
326.713
326.575
326.416
326.427
326.333
326.47
326.79
327.007
318.496
318.396
318.243
318.147
318.235
318.33
318.455
318.676
318.817
318.949
319.108
319.079
319.09
318.965
318.853
318.913
318.796
318.91
319.122
319.292
311.095
311.041
310.954
310.894
310.957
311.008
311.111
311.219
311.284
311.387
311.488
311.473
311.467
311.383
311.323
311.367
311.277
311.358
311.485
311.58
303.723
303.696
303.684
303.64
303.68
303.688
303.727
303.752
303.781
303.824
303.836
303.856
303.85
303.817
303.791
303.828
303.777
303.812
303.854
303.874
357.34
356.76
356.205
356.046
356.135
356.241
356.611
357.049
357.591
357.887
358.218
358.331
358.33
358.155
358.083
358.065
358.039
358.236
359.05
359.68
349.667
349.197
348.695
348.576
348.668
348.741
349.042
349.438
349.904
350.155
350.423
350.529
350.523
350.353
350.294
350.266
350.21
350.394
351.093
351.593
342.018
341.651
341.207
341.096
341.195
341.245
341.499
341.843
342.231
342.442
342.658
342.735
342.739
342.592
342.512
342.489
342.437
342.592
343.189
343.582
334.36
334.111
333.715
333.628
333.695
333.746
333.95
334.246
334.556
334.717
334.9
334.955
334.967
334.83
334.75
334.735
334.7
334.803
335.3
335.615
326.719
326.552
326.239
326.172
326.206
326.24
326.396
326.64
326.881
326.997
327.151
327.201
327.21
327.082
327.017
327.023
326.973
327.063
327.451
327.689
319.08
318.979
318.753
318.714
318.738
318.746
318.864
319.052
319.202
319.293
319.403
319.443
319.451
319.331
319.311
319.324
319.26
319.334
319.605
319.771
311.45
311.392
311.277
311.244
311.271
311.272
311.336
311.448
311.524
311.601
311.647
311.679
311.699
311.59
311.584
311.615
311.551
311.607
311.784
311.875
303.837
303.807
303.778
303.773
303.777
303.774
303.806
303.83
303.849
303.888
303.903
303.911
303.928
303.875
303.878
303.899
303.873
303.892
303.956
303.978
358.878
358.286
357.856
357.524
357.367
357.559
357.917
358.327
358.599
359.033
359.211
359.391
359.422
359.304
359.157
359.328
359.258
359.626
360.362
361.129
350.995
350.526
350.144
349.842
349.708
349.876
350.161
350.543
350.766
351.14
351.269
351.44
351.434
351.357
351.229
351.35
351.274
351.586
352.199
352.837
343.13
342.778
342.46
342.167
342.05
342.23
342.441
342.761
342.941
343.235
343.343
343.498
343.481
343.451
343.341
343.388
343.351
343.585
344.107
344.622
335.272
335.039
334.782
334.503
334.409
334.591
334.73
334.976
335.147
335.372
335.441
335.578
335.563
335.541
335.467
335.493
335.46
335.625
336.064
336.467
327.429
327.281
327.083
326.868
326.772
326.924
327.026
327.196
327.332
327.507
327.583
327.662
327.653
327.62
327.569
327.588
327.576
327.718
328.053
328.337
319.62
319.5
319.368
319.215
319.14
319.237
319.309
319.409
319.509
319.654
319.707
319.768
319.765
319.707
319.677
319.714
319.711
319.814
320.059
320.251
311.773
311.711
311.628
311.542
311.507
311.551
311.595
311.645
311.712
311.804
311.834
311.871
311.88
311.814
311.811
311.859
311.837
311.911
312.047
312.16
303.935
303.926
303.895
303.859
303.862
303.866
303.885
303.909
303.928
303.961
303.96
303.97
303.988
303.954
303.958
303.976
303.963
303.999
304.044
304.09
360.296
359.717
359.244
359.017
358.745
358.854
359.077
359.391
359.635
359.976
360.092
360.313
360.457
360.38
360.339
360.293
360.363
360.901
361.595
362.386
352.202
351.694
351.311
351.14
350.86
350.973
351.159
351.442
351.663
351.92
351.982
352.195
352.336
352.263
352.22
352.17
352.245
352.689
353.254
353.91
344.135
343.72
343.41
343.256
343.01
343.102
343.282
343.518
343.712
343.9
343.924
344.118
344.251
344.182
344.149
344.108
344.155
344.503
344.973
345.509
336.09
335.768
335.497
335.376
335.168
335.249
335.397
335.601
335.771
335.901
335.901
336.101
336.174
336.124
336.107
336.069
336.096
336.37
336.722
337.168
328.044
327.825
327.61
327.501
327.33
327.397
327.522
327.689
327.818
327.92
327.878
328.067
328.118
328.064
328.084
328.043
328.057
328.263
328.522
328.884
320.041
319.873
319.713
319.633
319.526
319.568
319.674
319.766
319.869
319.963
319.918
320.056
320.072
320.027
320.074
320.006
320.046
320.18
320.381
320.617
312.026
311.946
311.812
311.78
311.727
311.752
311.812
311.872
311.923
312.013
311.955
312.043
312.058
312.001
312.057
312.021
312.05
312.133
312.241
312.375
304.027
304.001
303.954
303.941
303.936
303.94
303.956
303.978
304.01
304.031
304.008
304.042
304.042
304.022
304.035
304.037
304.053
304.061
304.095
304.156
361.32
360.839
360.201
360.059
359.736
359.842
360.007
360.293
360.553
360.68
360.866
360.997
361.189
361.238
361.161
361.066
361.435
361.87
362.585
363.14
353.026
352.654
352.082
351.972
351.674
351.763
351.921
352.19
352.413
352.483
352.628
352.739
352.952
352.962
352.899
352.786
353.098
353.487
354.07
354.531
344.803
344.498
343.999
343.947
343.629
343.76
343.898
344.128
344.32
344.352
344.454
344.558
344.742
344.756
344.695
344.581
344.817
345.151
345.647
345.999
336.627
336.385
335.946
335.933
335.657
335.77
335.911
336.099
336.235
336.257
336.336
336.444
336.561
336.57
336.546
336.43
336.608
336.87
337.286
337.554
328.478
328.305
327.941
327.91
327.699
327.814
327.928
328.065
328.162
328.191
328.242
328.347
328.404
328.42
328.405
328.296
328.446
328.641
328.957
329.151
320.346
320.213
319.953
319.929
319.773
319.872
319.948
320.042
320.105
320.146
320.146
320.249
320.274
320.293
320.29
320.2
320.314
320.452
320.676
320.795
312.206
312.124
311.98
311.95
311.887
311.938
311.967
312.049
312.076
312.09
312.083
312.173
312.171
312.173
312.177
312.123
312.21
312.269
312.406
312.477
304.094
304.054
304.007
304
303.992
304.003
304.007
304.037
304.046
304.053
304.053
304.077
304.077
304.089
304.077
304.056
304.091
304.106
304.162
304.183
)
;

boundaryField
{
    hotSide
    {
        type            fixedGradient;
        gradient        nonuniform List<scalar> 
400
(
403.607
404.204
407.807
414.343
423.518
434.904
448.04
462.506
477.955
494.111
510.771
527.783
545.044
562.482
580.058
597.752
615.562
633.495
651.561
669.765
387.68
388.463
392.462
399.588
409.483
421.641
435.537
450.705
466.773
483.456
500.547
517.9
535.415
553.033
570.723
588.476
606.304
624.225
642.261
660.427
380.041
381.285
385.699
393.188
403.396
415.822
429.944
445.296
461.502
478.273
495.399
512.736
530.185
547.693
565.234
582.809
600.436
618.142
635.954
653.894
380.194
382.151
387.014
394.685
404.862
417.12
430.997
446.066
461.965
478.413
495.196
512.168
529.232
546.337
563.464
580.616
597.818
615.099
632.492
650.021
386.107
388.916
394.291
402.128
412.183
424.114
437.536
452.077
467.405
483.251
499.41
515.738
532.143
548.581
565.041
581.536
598.095
614.752
631.544
648.499
395.478
399.186
405.152
413.265
423.311
435.004
448.017
462.02
476.715
491.848
507.228
522.725
538.266
553.822
569.401
585.033
600.758
616.619
632.658
648.909
406.433
411.038
417.672
426.208
436.442
448.108
460.904
474.519
488.666
503.104
517.659
532.227
546.765
561.282
575.818
590.43
605.178
620.121
635.306
650.771
417.571
423.028
430.369
439.452
450.067
461.942
474.764
488.209
501.974
515.815
529.573
543.178
556.641
570.024
583.421
596.926
610.629
624.602
638.901
653.564
427.813
434.013
442.027
451.705
462.822
475.086
488.149
501.641
515.213
528.594
541.63
554.301
566.689
578.935
591.196
603.613
616.305
629.357
642.828
656.755
436.316
443.057
451.6
461.787
473.385
486.079
499.479
513.152
526.68
539.743
552.19
564.052
575.498
586.752
598.038
609.539
621.394
633.696
646.504
659.85
442.487
449.469
458.263
468.712
480.578
493.531
507.153
520.963
534.487
547.364
559.439
570.783
581.627
592.255
602.932
613.867
625.21
637.057
649.468
662.472
446.063
452.919
461.601
471.951
483.728
496.599
510.141
523.872
537.319
550.122
562.124
573.395
584.16
594.703
605.289
616.132
627.383
639.147
651.485
664.428
447.188
453.558
461.775
471.681
483.033
495.502
508.686
522.142
535.449
548.286
560.498
572.111
583.289
594.257
605.241
616.44
628.002
640.037
652.614
665.773
446.427
452.029
459.534
468.787
479.546
491.491
504.245
517.413
530.629
543.613
556.209
568.393
580.252
591.934
603.614
615.456
627.601
640.159
653.209
666.799
444.739
449.397
456.078
464.636
474.826
486.327
498.769
511.782
525.034
538.265
551.313
564.116
576.702
589.157
601.605
614.181
627.012
640.208
653.852
667.996
443.469
447.107
452.962
460.899
470.657
481.886
494.197
507.216
520.614
534.14
547.623
560.981
574.202
587.335
600.469
613.716
627.195
641.015
655.264
669.996
444.38
447.017
452.108
459.529
468.984
480.07
492.356
505.442
518.998
532.77
546.589
560.359
574.051
587.692
601.349
615.121
629.123
643.468
658.248
673.519
449.582
451.346
455.757
462.697
471.837
482.725
494.894
507.927
521.492
535.341
549.306
563.289
577.25
591.203
605.2
619.33
633.705
648.438
663.625
679.319
460.943
462.075
465.878
472.247
480.86
491.269
503.013
515.687
528.969
542.619
556.474
570.433
584.449
598.522
612.692
627.034
641.644
656.63
672.076
688.029
479.041
479.809
483.069
488.74
496.553
506.135
517.084
529.041
541.709
554.862
568.34
582.038
595.9
609.913
624.102
638.518
653.238
668.341
683.892
699.923
)
;
    }
    coldSide
    {
        type            mixed;
        refValue        uniform 300;
        refGradient     uniform 0;
        valueFraction   uniform 0.991591;
        source          uniform 0;
        value           nonuniform List<scalar> 
400
(
300.021
300.021
300.021
300.022
300.022
300.023
300.024
300.024
300.025
300.026
300.027
300.028
300.029
300.03
300.031
300.031
300.032
300.033
300.034
300.034
300.02
300.02
300.021
300.021
300.022
300.022
300.023
300.024
300.025
300.026
300.026
300.028
300.028
300.029
300.03
300.031
300.032