/*--------------------------------*- C++ -*----------------------------------*\
| =========                 |                                                 |
| \\      /  F ield         | OpenFOAM: The Open Source CFD Toolbox           |
|  \\    /   O peration     | Version:  2212                                  |
|   \\  /    A nd           | Website:  www.openfoam.com                      |
|    \\/     M anipulation  |                                                 |
\*---------------------------------------------------------------------------*/
FoamFile
{
    version     2.0;
    format      ascii;
    arch        "LSB;label=32;scalar=64";
    class       volScalarField;
    location    "0";
    object      relativeErrorField;
}
// * * * * * * * * * * * * * * * * * * * * * * * * * * * * * * * * * * * * * //

dimensions      [0 0 0 1 0 0 0];

internalField   nonuniform List<scalar> 
3200
(
0.00563014
0.00436171
0.00349177
0.00316874
0.0031915
0.00356291
0.00431038
0.00492517
0.00558753
0.00609945
0.0061615
0.00586081
0.00578135
0.00523738
0.00522621
0.00473255
0.00494875
0.00579839
0.00684279
0.0078999
0.00425708
0.00344904
0.00249896
0.00223322
0.0020694
0.0026272
0.00320447
0.00364332
0.00425483
0.00470635
0.00473388
0.00482063
0.00436171
0.00393042
0.00379433
0.0036951
0.00394608
0.00426925
0.00544717
0.00636409
0.00315797
0.00243735
0.00195541
0.00152256
0.00145883
0.0015838
0.00215516
0.00281682
0.0031915
0.00352078
0.00347829
0.00357372
0.00325648
0.00301123
0.00277903
0.0024948
0.00284172
0.00333892
0.00410031
0.00518031
0.00249031
0.00196114
0.00120428
0.000916243
0.00109895
0.00105268
0.00141978
0.00185275
0.00245235
0.00257322
0.00262776
0.00255259
0.00248853
0.00207253
0.00194252
0.0018455
0.0020493
0.00248344
0.00305164
0.00404397
0.001738
0.00121693
0.000982851
0.000682251
0.000535656
0.000545107
0.000903653
0.00117379
0.00175356
0.00162259
0.00203842
0.00189928
0.00163825
0.00159232
0.00140496
0.00140323
0.00137553
0.00188236
0.00235113
0.00292231
0.00132169
0.000895464
0.000600409
0.000315245
0.000368588
0.000413466
0.000496198
0.00085472
0.00100925
0.000936862
0.00118075
0.00125023
0.00101618
0.000966109
0.000949626
0.000682231
0.000915977
0.00118707
0.00170511
0.00196955
0.000760665
0.000516077
0.000174738
0.000226417
0.000138416
0.000218697
0.00015049
0.000706583
0.000648772
0.000760773
0.000800072
0.000737122
0.000656406
0.000305985
0.000527294
0.000717531
0.000631883
0.000749724
0.00105149
0.00132254
0.0002875
0.000165806
7.27455e-05
3.89282e-05
6.50596e-05
7.26761e-05
8.91495e-05
0.000320353
4.25154e-05
0.000152259
0.000332281
0.000207149
0.00032698
7.99281e-05
9.69192e-05
0.000267384
0.000131527
0.00047601
0.000435623
0.000300163
0.00304951
0.00192282
0.000891746
0.000267015
0.000374236
0.000689868
0.00129465
0.00170012
0.00248914
0.00286685
0.00309225
0.00300432
0.00237946
0.00249153
0.00213426
0.00212544
0.00251604
0.00303841
0.00416176
0.00550524
0.00192493
0.00114678
0.000185944
0.000204632
7.34234e-05
9.11623e-05
0.000422049
0.00121784
0.00165738
0.00213098
0.00209308
0.00212095
0.00176274
0.00148502
0.00144364
0.00131488
0.00159595
0.00214926
0.0033373
0.00443067
0.00153145
0.000444126
9.52637e-05
0.000403121
0.000502888
0.000222139
9.55897e-05
0.000477161
0.00104885
0.00103457
0.00157472
0.00145276
0.00133974
0.000809745
0.000651708
0.000912237
0.00118758
0.00166147
0.0025234
0.00361327
0.0010619
0.000419559
0.000253384
0.00054744
0.000818563
0.000500051
0.000164426
0.000286766
0.000557513
0.00110902
0.000944209
0.000899088
0.00073852
0.00059655
0.00027978
0.000348816
0.000598217
0.00109344
0.00170998
0.00269835
0.00068916
1.80932e-05
0.000393024
0.000761235
0.000770381
0.00063832
0.00023625
4.74068e-05
0.000331027
0.000594362
0.000644596
0.000325122
0.000620313
0.000447502
8.43348e-05
3.20915e-05
0.000329791
0.000709078
0.00132696
0.0017585
0.00049795
0.000249223
0.000483449
0.000770332
0.000652746
0.000473538
0.000415411
0.000114643
0.000253184
1.92175e-05
0.000485734
0.000554829
2.38886e-05
0.000249745
8.82032e-05
9.21877e-05
0.000250704
0.000384696
0.00069067
0.001238
0.000218082
0.000164864
0.000166253
0.000625007
0.000601062
0.000370798
0.000212447
0.000125143
0.00020859
5.97988e-05
6.64554e-05
9.70562e-05
0.000416523
0.000133634
6.74664e-05
1.49422e-05
5.33318e-05
0.000316037
0.000410226
0.000864973
3.81607e-06
1.17689e-06
0.000133617
6.67068e-05
0.000260318
1.20654e-05
8.1583e-05
3.77911e-05
9.70193e-05
6.83218e-05
0.00010407
0.0001518
7.58501e-05
9.17851e-05
5.25744e-05
4.51179e-05
9.87497e-05
0.000194206
5.71683e-05
0.000339767
5.82866e-05
0.00120481
0.0024139
0.00289404
0.00325755
0.00302238
0.00252173
0.00188637
0.00137721
0.000965058
0.00063954
0.000690375
0.00101524
0.00119184
0.00143605
0.00130177
0.000967688
0.000195541
0.000983102
0.00247663
0.000520235
0.00158756
0.00250109
0.00303076
0.00327936
0.0031093
0.00276725
0.00212923
0.00161657
0.00138546
0.00120549
0.00130584
0.00150332
0.00167495
0.00187581
0.00161823
0.00138979
0.000515095
0.000515349
0.00190793
0.000602667
0.00159083
0.00240701
0.00297643
0.00311746
0.00310812
0.00257247
0.00229163
0.00182716
0.00154374
0.00126137
0.00137447
0.00143726
0.00168884
0.00174519
0.00173015
0.00156896
0.000721996
0.000294804
0.00110311
0.000825662
0.00171384
0.00229618
0.00254833
0.00266443
0.00267624
0.00253152
0.00182205
0.00167613
0.00125326
0.00141849
0.00139068
0.00134355
0.00156902
0.00180161
0.00151211
0.00124781
0.000613059
0.000110747
0.000863047
0.000700809
0.00130005
0.00206993
0.00219451
0.00225882
0.00213889
0.00188618
0.00174058
0.00140171
0.00138495
0.00126025
0.00122129
0.00141064
0.00148481
0.00146198
0.00139553
0.00148585
0.00068827
0.000174168
0.000412304
0.000688577
0.00101413
0.00123226
0.00150387
0.00186867
0.00168893
0.00152168
0.00133897
0.00118571
0.000847515
0.00125777
0.000976261
0.000903197
0.00120859
0.00120793
0.00113715
0.000932001
0.00055405
4.73674e-05
0.000322679
0.000515658
0.000579517
0.000887591
0.00130553
0.00110095
0.000898603
0.00108439
0.000930541
0.000571013
0.000711191
0.0008323
0.000633694
0.000624084
0.00095234
0.000698317
0.000857461
0.000798219
0.000329094
3.27597e-05
0.000184467
5.38465e-05
0.000147177
0.00012369
0.000471767
0.000652311
0.000462961
0.000288748
0.000117072
0.000149186
0.000224934
0.000302939
0.000386749
0.000246288
0.000230691
0.000239922
0.000295761
0.000374792
0.000261512
3.48496e-05
0.000281725
0.00284953
0.0043331
0.00543958
0.00617835
0.00648669
0.00646466
0.00603107
0.00574397
0.00509369
0.00463819
0.00476374
0.00472531
0.00476587
0.00490911
0.00474185
0.00482449
0.00409636
0.00300938
0.00148328
0.000221027
0.00312015
0.00417467
0.00517343
0.00601083
0.00625794
0.00629658
0.00589816
0.00546528
0.00495394
0.00470701
0.00454297
0.00455209
0.00458065
0.00464129
0.00457635
0.00460107
0.0041907
0.00317714
0.0016772
0.000456021
0.00303995
0.0036931
0.00454865
0.00553871
0.00568527
0.00579284
0.0054089
0.005004
0.00463005
0.00440475
0.00403572
0.00419952
0.00422083
0.00437124
0.00456619
0.00419615
0.00388661
0.00290589
0.00183173
0.000826204
0.00241167
0.00334492
0.00415163
0.00464711
0.00498807
0.0048869
0.00468164
0.00447882
0.00422323
0.00384446
0.00380701
0.00371891
0.00390867
0.00397763
0.00394444
0.00392217
0.00326945
0.00271597
0.00184511
0.00090268
0.00219546
0.00283431
0.00347546
0.00399491
0.0039597
0.00418762
0.00394862
0.00351782
0.00326428
0.00298052
0.00315524
0.00316022
0.00299567
0.00306476
0.0032082
0.00301235
0.00281052
0.00219886
0.00146073
0.000676848
0.00171397
0.00195052
0.00256812
0.00277863
0.00311741
0.00317544
0.00285513
0.00273614
0.00272252
0.0024308
0.00204389
0.00241147
0.00236062
0.00233357
0.00237699
0.00235602
0.00211731
0.0018058
0.00116119
0.000840286
0.000934119
0.00143813
0.00162279
0.00181521
0.00192447
0.0017125
0.00176569
0.00145263
0.00160555
0.00147786
0.00144926
0.0015935
0.00139245
0.00145171
0.00143269
0.00116631
0.00131661
0.00120873
0.000784197
0.000469262
0.000378436
0.000428464
0.000576326
0.000595333
0.000628254
0.000692175
0.000394103
0.000463727
0.000374547
0.000674384
0.000612537
0.000650541
0.000572917
0.000445811
0.000333706
0.000434377
0.000389967
0.000458506
7.15676e-05
0.000265882
0.00545691
0.00689448
0.00806404
0.00916224
0.00965943
0.00971546
0.0094649
0.0090807
0.0084755
0.00831682
0.00795878
0.00800407
0.00794543
0.00812829
0.00798412
0.00757298
0.00669486
0.00562567
0.00399509
0.00215978
0.00501132
0.0064924
0.00756601
0.00856148
0.00894241
0.00898575
0.0086389
0.00860465
0.00809928
0.0077533
0.00757435
0.0075982
0.0076297
0.00764986
0.0074582
0.00696097
0.00624674
0.00511492
0.00393957
0.00250181
0.0045471
0.00580234
0.00678875
0.00750115
0.00814716
0.0080962
0.00785338
0.0076037
0.00721901
0.00701572
0.00714282
0.00696509
0.0068658
0.00679504
0.00653502
0.00646766
0.00584103
0.00474213
0.00356145
0.00234079
0.00401851
0.0050874
0.00596363
0.00631844
0.00698292
0.00684009
0.00667307
0.00669622
0.00646324
0.00611849
0.00589739
0.00605726
0.00593109
0.0059906
0.00591473
0.00548242
0.00515818
0.0043794
0.00314292
0.00219777
0.00323765
0.00434584
0.00468388
0.00526862
0.00558122
0.00549307
0.00553563
0.00523819
0.0052414
0.00501231
0.00449187
0.00488494
0.00499197
0.00474413
0.00474791
0.0044532
0.00422661
0.00336303
0.002514
0.00195353
0.00263744
0.00309458
0.00361691
0.00401136
0.00393141
0.00410103
0.00400707
0.00381135
0.00402625
0.00378921
0.0035596
0.00366486
0.00372969
0.00358634
0.00377845
0.00354361
0.00301159
0.00259872
0.00216507
0.00118077
0.00151684
0.00186795
0.00229165
0.00249077
0.00238392
0.00248376
0.00249026
0.00244369
0.00256954
0.00218168
0.0022472
0.00219823
0.00212864
0.00232329
0.00212741
0.00212178
0.00191427
0.001633
0.00134697
0.000970315
0.000411714
0.000573653
0.000785789
0.00070268
0.00098311
0.000828915
0.000889404
0.00082103
0.000783872
0.00106358
0.000841982
0.00069338
0.000800581
0.000692517
0.000776067
0.000886629
0.000615427
0.000406245
0.000555896
0.000393254
0.00683946
0.00861739
0.0101064
0.0112599
0.0120849
0.0123013
0.0122315
0.0120447
0.0116597
0.0114696
0.0111749
0.0111367
0.0109049
0.0107482
0.0104874
0.0100343
0.00888495
0.00745766
0.00560468
0.00407258
0.00661702
0.00779591
0.0094187
0.0104449
0.0108477
0.0111773
0.0111135
0.0107973
0.0106553
0.0104352
0.010324
0.0101418
0.0103174
0.00976703
0.00972811
0.00928215
0.00831804
0.00707267
0.00536244
0.00372149
0.0059996
0.00716969
0.00837158
0.00918326
0.009784
0.00991868
0.00978011
0.00956519
0.00967533
0.00939683
0.00918474
0.00909878
0.0088899
0.00890486
0.00855102
0.00814161
0.00765226
0.00643177
0.00494099
0.00358726
0.00514644
0.00619497
0.00731546
0.00795523
0.00838671
0.00842285
0.0086622
0.00840272
0.00822032
0.00778068
0.00779516
0.00771471
0.00765038
0.00739308
0.00746815
0.00705399
0.00655164
0.00573638
0.00412147
0.00327655
0.00412688
0.00505227
0.00581355
0.00638749
0.00669028
0.00678446
0.00687984
0.00672622
0.00661776
0.00650173
0.00635736
0.00633551
0.00635427
0.00627182
0.00582498
0.00552834
0.0051096
0.00459847
0.00341031
0.00272627
0.00287165
0.00371522
0.00444606
0.00471391
0.00500751
0.00511853
0.00494431
0.00499443
0.00489415
0.00481329
0.004602
0.00469254
0.00469427
0.00452089
0.00436973
0.00434404
0.00394593
0.00349334
0.00255032
0.00209339
0.00183734
0.00242185
0.00257916
0.00291823
0.0032614
0.00297731
0.00317363
0.00299366
0.00303162
0.00284343
0.00289768
0.00299196
0.0028576
0.00307641
0.0025243
0.00284662
0.00237564
0.00194371
0.00168436
0.00112547
0.000677117
0.000770598
0.000894983
0.00104231
0.000960604
0.0010728
0.00120642
0.00125498
0.00097678
0.000894907
0.00107968
0.0011281
0.000977532
0.000955796
0.00102076
0.000860309
0.000907183
0.000799206
0.000682581
0.000668669
0.00799451
0.0100098
0.0116118
0.0129968
0.0136656
0.0142586
0.0142266
0.0140759
0.0140464
0.0136456
0.0135649
0.013394
0.0131415
0.0128844
0.0123703
0.0114079
0.0102237
0.00869618
0.00666823
0.00466535
0.00741648
0.00904017
0.0105925
0.011801
0.0126496
0.012992
0.0129533
0.0129477
0.0126669
0.0124498
0.0121587
0.0120035
0.012048
0.0116659
0.0113712
0.0106735
0.00943924
0.00820556
0.00642855
0.00481592
0.00676585
0.00823648
0.00933009
0.0103601
0.01123
0.0113507
0.0116079
0.0114719
0.0114579
0.0112101
0.0110899
0.0107417
0.0106776
0.0104135
0.00998549
0.0094069
0.00848918
0.00743101
0.00582246
0.00432377
0.0058288
0.00675796
0.00826474
0.00903115
0.00947165
0.00981848
0.00996027
0.00980076
0.00965917
0.00959331
0.00949687
0.00926515
0.00911256
0.00887405
0.00876915
0.00802299
0.00734643
0.00613857
0.00497156
0.00373387
0.00471513
0.00558479
0.00647818
0.00691561
0.00784821
0.00811157
0.00780901
0.00798163
0.00782395
0.00774474
0.0075735
0.00747526
0.00730976
0.00704425
0.00706197
0.00634722
0.00594718
0.00512748
0.00425887
0.00325887
0.00331583
0.00428906
0.00477826
0.00515503
0.0058131
0.00562191
0.00589206
0.00599408
0.00581019
0.00569141
0.00557596
0.00559218
0.00556342
0.00517004
0.00504141
0.00479116
0.0041898
0.00377008
0.0028574
0.00240017
0.002127
0.00254973
0.00304943
0.00337763
0.00339981
0.00354029
0.00354855
0.00353259
0.00354403
0.00358674
0.00335872
0.00341303
0.00339165
0.00324291
0.0033347
0.00323286
0.00269995
0.00226658
0.00179548
0.00162174
0.000846459
0.00101408
0.000974135
0.0010995
0.00109787
0.0013642
0.00113853
0.00118363
0.00123904
0.00133998
0.00134572
0.00119282
0.000954666
0.0014063
0.00106388
0.000994389
0.00106879
0.000693859
0.000842369
0.000531959
0.00855338
0.010318
0.0124606
0.0138664
0.0148158
0.0153402
0.0157238
0.0158318
0.0155058
0.0152936
0.015385
0.0147545
0.0146216
0.0142032
0.0136994
0.0124733
0.0111117
0.00927974
0.00715255
0.00494427
0.00772415
0.00963935
0.0111547
0.0125897
0.0137326
0.0140499
0.0142356
0.0144544
0.0144654
0.0142435
0.0138024
0.01371
0.0132694
0.0130994
0.01247
0.0114618
0.0103897
0.00862704
0.00675844
0.00465653
0.00727565
0.00847605
0.00992881
0.0112309
0.0119669
0.0125864
0.0126277
0.0126664
0.0126808
0.0125318
0.0123982
0.0121663
0.0119985
0.0116949
0.0110307
0.0102858
0.00919444
0.00770822
0.00609012
0.00453995
0.00624651
0.00733886
0.00861763
0.00963024
0.0102232
0.0107255
0.0106176
0.0107348
0.0108952
0.010574
0.0104019
0.0105635
0.0100683
0.00995708
0.0093924
0.00869563
0.00766015
0.00652383
0.00538112
0.00378583
0.00485088
0.00589511
0.00674898
0.00762137
0.00818248
0.00842846
0.00869243
0.00887028
0.00855294
0.00867208
0.00847321
0.00835068
0.00804421
0.00783019
0.00753641
0.0070281
0.00622536
0.00516006
0.00429512
0.00327254
0.00352846
0.00448491
0.00503134
0.005706
0.00607789
0.00625985
0.00644102
0.00668045
0.00625952
0.00641323
0.00613883
0.00612349
0.00615705
0.00579622
0.00538616
0.00516091
0.00465245
0.00382659
0.00313744
0.00247574
0.00233495
0.00253755
0.0029953
0.00360996
0.00390727
0.00384284
0.00394373
0.00387377
0.00391838
0.00381733
0.00390352
0.00397424
0.00375003
0.00370266
0.00334724
0.00315413
0.00303798
0.00259619
0.00190975
0.00155317
0.000722108
0.00115802
0.00106791
0.00114077
0.00136079
0.00139256
0.0014371
0.00128616
0.00127479
0.00135618
0.00124726
0.0011661
0.00140789
0.00141541
0.00104338
0.00103364
0.000883787
0.000753321
0.000646214
0.00066027
0.00815582
0.0100813
0.0123124
0.0139429
0.0151283
0.0160747
0.0163054
0.0165061
0.0166503
0.016381
0.0161479
0.015812
0.0152332
0.0148332
0.0138622
0.0127152
0.0111299
0.00910517
0.00666549
0.00455622
0.0075113
0.00928179
0.0111377
0.0127918
0.0139531
0.0145542
0.0149272
0.0150064
0.0150146
0.0148903
0.0147406
0.0143101
0.0141191
0.0136167
0.0127204
0.0115619
0.0102803
0.00855975
0.00622493
0.00428539
0.00687292
0.00820911
0.00975945
0.0112047
0.0123921
0.0127825
0.0131467
0.0136021
0.0132911
0.0130381
0.0130062
0.0126941
0.0124713
0.0120076
0.0112303
0.0103505
0.00918963
0.00761191
0.00570651
0.0038859
0.00577372
0.0071607
0.0081925
0.00959414
0.0103277
0.0108354
0.011231
0.0113325
0.0113832
0.0112655
0.0112287
0.0109928
0.0108449
0.0101695
0.00961207
0.00879773
0.00795942
0.00664515
0.00502413
0.00341403
0.00449156
0.00568431
0.00663088
0.00776207
0.00820996
0.00870166
0.00912292
0.00918338
0.00909441
0.00891917
0.00882398
0.00863466
0.00864126
0.00832455
0.00783665
0.00705606
0.00631422
0.00513862
0.00416501
0.00315984
0.00352279
0.00421707
0.00504342
0.00561501
0.0065458
0.00646147
0.00660522
0.0067327
0.00689055
0.00679926
0.0064176
0.00659568
0.00634217
0.00624814
0.00591802
0.00534088
0.00481055
0.00391735
0.00291395
0.00240716
0.00223464
0.00259368
0.00314889
0.00338734
0.00371745
0.00417394
0.00420308
0.00434343
0.00410282
0.00412074
0.00417307
0.00414511
0.00387712
0.00382154
0.00351139
0.00306409
0.00278464
0.00249786
0.00194746
0.0014957
0.000865768
0.000779382
0.000887989
0.00138261
0.00140089
0.00154497
0.00126358
0.00121707
0.0012794
0.00126811
0.00128104
0.00114858
0.00172172
0.00125941
0.00098811
0.00103527
0.000946271
0.000916732
0.000502739
0.000546732
0.0066751
0.00895022
0.0111806
0.0133377
0.0145904
0.015593
0.0163443
0.0166097
0.0164906
0.0166226
0.0161812
0.0158226
0.0151817
0.0146029
0.0136579
0.012099
0.0101464
0.00807178
0.00540066
0.00295276
0.00646898
0.00847752
0.0105345
0.0121607
0.0135157
0.0142691
0.0148007
0.0148049
0.0152638
0.0149574
0.0148513
0.0145904
0.014061
0.0132581
0.0124243
0.0111369
0.00964543
0.00753408
0.00514513
0.00318577
0.00573622
0.00747731
0.00912518
0.0106618
0.0118689
0.0125908
0.0129723
0.0134272
0.0133584
0.0132888
0.0131203
0.0126561
0.0124331
0.0117692
0.01091
0.00998072
0.00853036
0.00668853
0.00490939
0.0029319
0.00512365
0.00642989
0.00780314
0.00916869
0.0100422
0.0107523
0.0110874
0.0113448
0.0114182
0.0114214
0.0110303
0.0108793
0.0103947
0.0101704
0.00930128
0.0086586
0.00724421
0.00601422
0.00418024
0.00276833
0.00394235
0.00521669
0.00656626
0.00737225
0.00795496
0.00865956
0.00900411
0.00920539
0.00917776
0.0091966
0.00915087
0.00891107
0.00862946
0.00811665
0.00763735
0.00682338
0.00592136
0.00491257
0.00357364
0.00226721
0.00295185
0.00396858
0.0046172
0.00556883
0.00599813
0.00637291
0.00666686
0.00697959
0.00677559
0.00670687
0.00680705
0.00676458
0.00644288
0.00615003
0.00562474
0.00525366
0.00431431
0.00355629
0.00268732
0.00175111
0.00205061
0.00233111
0.00285341
0.00329489
0.00373194
0.00403623
0.00417753
0.00440106
0.00438922
0.00407821
0.00425978
0.00418276
0.00388477
0.00374451
0.00348969
0.00325931
0.00277095
0.00224407
0.00160815
0.00129225
0.000649798
0.000852674
0.000998045
0.00109729
0.00105859
0.00136027
0.00127775
0.00160428
0.00147216
0.00144443
0.00115323
0.00146458
0.001335
0.00124471
0.00126335
0.00111492
0.000980805
0.000744545
0.000354738
0.000560939
0.00468282
0.00719874
0.00993243
0.0118569
0.0134788
0.014664
0.0152832
0.0156169
0.015922
0.0157298
0.0156748
0.0151291
0.0144389
0.0135611
0.0124008
0.0108929
0.00876472
0.00635297
0.00368699
0.00103638
0.00467268
0.0067812
0.00885672
0.0108957
0.0121266
0.0133073
0.0141052
0.0143903
0.0143334
0.0144704
0.0143099
0.0139053
0.0131748
0.0123832
0.011409
0.00990284
0.00816985
0.00614666
0.00345775
0.00115819
0.00446138
0.00622488
0.00782321
0.00954101
0.0108057
0.011533
0.0122677
0.0125661
0.0130172
0.0128525
0.0125803
0.0124551
0.0117336
0.0109911
0.0100864
0.00891516
0.00752359
0.00549554
0.00338239
0.00144754
0.00378734
0.00534508
0.00692476
0.00826331
0.00924015
0.0100247
0.0105072
0.0109145
0.0109155
0.0110109
0.0106955
0.0104051
0.0101415
0.00945644
0.00878505
0.00787266
0.00623772
0.00480524
0.00278111
0.00147413
0.00315869
0.0041553
0.00567305
0.0065999
0.00769905
0.00810349
0.00855077
0.00893573
0.00904031
0.0089797
0.008673
0.00846002
0.00817253
0.00758854
0.00713301
0.00612057
0.0053627
0.00379305
0.00215073
0.00126438
0.00253247
0.00327641
0.00415453
0.00469958
0.00556236
0.00604493
0.0062673
0.0064168
0.00658775
0.00644587
0.00625516
0.00634501
0.00596076
0.00566735
0.00527641
0.00454996
0.00390757
0.00294915
0.0017344
0.000919823
0.00172596
0.00202901
0.00248683
0.00292807
0.00354191
0.00359965
0.004101
0.00400754
0.00420503
0.00408176
0.00399922
0.00401859
0.0037662
0.00320193
0.00306501
0.00269683
0.00221751
0.00206266
0.00109334
0.000857581
0.000646943
0.000752489
0.000911549
0.000977786
0.00105974
0.0013128
0.00122392
0.00137061
0.00133997
0.00145188
0.00135269
0.00144747
0.00127872
0.00128953
0.00126078
0.000958267
0.000820206
0.00067315
0.000254172
0.000128452
0.0021308
0.00454405
0.00727607
0.0095515
0.0114175
0.0125922
0.0135905
0.0140871
0.0142283
0.0143015
0.0140084
0.0134123
0.0127146
0.0118791
0.0103944
0.00886854
0.00635667
0.00374263
0.000837288
0.00190975
0.00223854
0.00448697
0.00680234
0.00861386
0.0106141
0.0115986
0.012341
0.0129893
0.0131185
0.0129509
0.012924
0.0125231
0.0117338
0.0108714
0.00939409
0.00818483
0.00604265
0.00359634
0.000971165
0.00138679
0.00218655
0.00417652
0.00586821
0.00783898
0.0093147
0.0104025
0.0109763
0.0115071
0.0116386
0.0117418
0.0115371
0.0110941
0.0104133
0.00973749
0.00875997
0.00719928
0.00543881
0.00356792
0.00125429
0.000501528
0.00203813
0.00357034
0.00525753
0.00666971
0.00796116
0.00876662
0.00932231
0.00970992
0.00993344
0.00984193
0.00984699
0.00946361
0.00880594
0.00817493
0.00759064
0.0061878
0.00471307
0.00302547
0.0011804
0.000522761
0.0016887
0.00296183
0.00437387
0.00531406
0.00671627
0.00704035
0.00764376
0.00789642
0.00825056
0.00807142
0.00789168
0.00751711
0.00737063
0.00668529
0.00602758
0.00541437
0.00383166
0.00263524
0.00109589
0.000287518
0.00124841
0.00224398
0.00330066
0.00413582
0.00475672
0.00540321
0.00570364
0.00595186
0.0060061
0.00611101
0.00588698
0.00589291
0.00553502
0.00516652
0.00436613
0.00409702
0.0029564
0.00189409
0.000811001
0.000130259
0.000874326
0.00126953
0.00180934
0.00258148
0.00289815
0.00327497
0.0033522
0.00356383
0.00387314
0.00362896
0.00349218
0.00365699
0.00341263
0.00321273
0.00295821
0.00249798
0.00173617
0.00101971
0.000606404
0.000231787
0.000357639
0.000460007
0.000752387
0.00107224
0.00115456
0.000957196
0.00113344
0.00114192
0.00130626
0.00133798
0.00150403
0.00113267
0.000979478
0.00100816
0.00103944
0.00076213
0.000444385
0.000483545
0.000133297
3.39401e-05
0.00155917
0.00142897
0.00401604
0.00650666
0.00840308
0.00989137
0.0109084
0.011438
0.0120842
0.0118957
0.0117286
0.0109339
0.0102937
0.00891478
0.00751561
0.00564478
0.0033039
0.000450186
0.00272562
0.00557068
0.000695797
0.00141319
0.00391461
0.00616828
0.00785554
0.00913644
0.0101067
0.0106967
0.0109053
0.011115
0.010672
0.0101849
0.00956203
0.00834494
0.00721968
0.00541188
0.00322349
0.0006554
0.00213284
0.00449107
0.000560237
0.00145299
0.00362169
0.00541852
0.00698034
0.00814019
0.00904499
0.00961012
0.00980878
0.00975662
0.00964438
0.00903548
0.00849387
0.00748121
0.00621603
0.0049068
0.003115
0.000826844
0.00156958
0.00368108
0.000334919
0.00142517
0.00324208
0.00489184
0.00585421
0.00693454
0.00765109
0.00794252
0.00834113
0.00826976
0.0084234
0.00769075
0.00723794
0.00664247
0.00573385
0.00432756
0.00270558
0.000898701
0.00101457
0.00284944
8.32956e-05
0.00131221
0.00283784
0.00401487
0.00482907
0.00567761
0.00622436
0.00669132
0.00682613
0.00683387
0.00640959
0.00608822
0.00593939
0.00532578
0.00438373
0.00346921
0.00220005
0.00101996
0.000797419
0.00207763
0.000172646
0.00106959
0.00200086
0.0028237
0.00364013
0.00416397
0.00466783
0.0048167
0.00497901
0.00518315
0.00491524
0.00493419
0.00447378
0.00379073
0.00329518
0.00256392
0.00172708
0.000743336
0.000554904
0.0013551
0.000141517
0.00082936
0.00114611
0.00177508
0.00248891
0.00263742
0.0026589
0.00306106
0.00313975
0.00318675
0.00314831
0.00297876
0.00289277
0.00246411
0.0018489
0.00144095
0.00107063
0.00047707
0.000184447
0.00091485
0.000161678
0.000374477
0.00036672
0.000514071
0.000836118
0.00090324
0.00110038
0.000828388
0.00101485
0.00125236
0.0013181
0.000856115
0.000946371
0.000994927
0.00081641
0.00074151
0.000275187
0.000231439
7.4103e-05
0.00020088
0.00569803
0.00297569
1.86248e-05
0.00252277
0.00439073
0.00632749
0.00744304
0.00806853
0.0085202
0.00850501
0.00835933
0.00752782
0.0067453
0.00557866
0.00393345
0.00176007
0.000840408
0.00372431
0.00715037
0.00995031
0.00474711
0.00239538
0.000328168
0.00275512
0.00446154
0.00584917
0.00695266
0.00760313
0.00814544
0.00790023
0.0077557
0.00728936
0.00640469
0.00516122
0.00375569
0.00196945
0.000476927
0.00279491
0.00559611
0.00847972
0.00387958
0.00195101
0.000290986
0.00262827
0.00412022
0.00534074
0.00630743
0.00685455
0.00709325
0.00739195
0.00711607
0.00655443
0.00585926
0.00472408
0.00357959
0.00187826
4.45158e-05
0.00217193
0.00469266
0.00704359
0.00313215
0.00143193
0.000526823
0.00214223
0.00369302
0.00453055
0.00556113
0.00584605
0.00626078
0.00613916
0.0062903
0.00570026
0.00512283
0.00408108
0.00305414
0.00201922
9.03038e-05
0.00153866
0.00400662
0.00581831
0.00224638
0.00127765
0.000474355
0.00191928
0.00302604
0.00377237
0.00435669
0.00486192
0.0051789
0.00505634
0.00475501
0.00467157
0.00408557
0.00356222
0.00273398
0.00153105
0.000237429
0.00137353
0.00307771
0.0043693
0.00153172
0.000663562
0.0005626
0.0015007
0.00219082
0.00283845
0.00316505
0.00346357
0.00366132
0.00391488
0.00390333
0.00313175
0.0030402
0.00256827
0.00198487
0.00117953
0.000214515
0.000960255
0.00212093
0.00313417
0.00113452
0.000409053
0.000292304
0.000957581
0.00153033
0.00183277
0.00212239
0.00236677
0.00243694
0.00236028
0.00224627
0.00223309
0.00182655
0.00174848
0.00137631
0.000874661
0.000109061
0.000483837
0.00127193
0.0017847
0.000245058
0.000129386
0.000185357
0.000502023
0.000552942
0.000707652
0.000678325
0.000589637
0.000570922
0.000824914
0.000678716
0.000694506
0.000850315
0.000562062
0.000398952
0.000108034
0.000184917
7.31617e-06
0.000561645
0.000798633
0.010679
0.00787084
0.00479148
0.00225467
0.000202353
0.00163208
0.00285892
0.00398266
0.00427447
0.0044847
0.00398805
0.00365895
0.00249573
0.00116551
0.000849287
0.00292351
0.00573599
0.00856985
0.0120163
0.0151193
0.00925908
0.00697329
0.00412511
0.0016903
0.000226282
0.00187986
0.00311802
0.00366543
0.00425357
0.00427
0.00395314
0.00322511
0.00262549
0.00151495
0.000291514
0.00223249
0.00453863
0.00742834
0.0103427
0.0131445
0.00756016
0.00565335
0.00328527
0.001206
0.000523126
0.00196871
0.00301402
0.00350933
0.0038885
0.0040204
0.00379418
0.00322801
0.00244027
0.00155986
9.22484e-05
0.00153802
0.00371967
0.00604323
0.00874241
0.0110927
0.00616479
0.00461213
0.0024945
0.000887332
0.00066703
0.00190434
0.00265651
0.00320638
0.00349558
0.00363552
0.00341095
0.0029814
0.00220874
0.00135076
0.000241217
0.0012034
0.0030787
0.00478886
0.00716767
0.0090487
0.00475778
0.00366803
0.00195278
0.000500441
0.000671675
0.00146761
0.0021854
0.00242077
0.00283492
0.00313533
0.00304816
0.0025026
0.00185837
0.00116479
0.000253675
0.000582238
0.0020985
0.00412625
0.00568969
0.00694282
0.0034772
0.00258278
0.0013682
0.000543168
0.000224225
0.000904583
0.00155537
0.00207544
0.00207746
0.00231205
0.002225
0.0018713
0.00149343
0.00109757
0.000221226
0.000655754
0.0017584
0.0028643
0.00412466
0.00494579
0.00216557
0.00172161
0.000993107
0.000203023
0.000296523
0.000609351
0.00104405
0.00122678
0.00140433
0.0011832
0.00130047
0.00108024
0.000888481
0.000455727
7.928e-05
0.000168324
0.000978261
0.0015802
0.00235139
0.00305232
0.00106221
0.000554449
0.000256682
3.64891e-05
0.000435232
0.00014339
0.000373133
0.000563511
0.000453686
0.000646073
0.000393858
0.000284653
0.000329073
0.000206407
8.89745e-05
0.000194793
0.000215909
0.000431296
0.000918529
0.00124045
0.0167761
0.0137221
0.0106273
0.00774478
0.00537364
0.00355473
0.00206207
0.00132399
0.000673875
0.000718859
0.000883171
0.00154936
0.00270901
0.00402621
0.0061167
0.00844536
0.0111972
0.0143405
0.0177393
0.0211715
0.0144447
0.0118487
0.0089338
0.006491
0.00446165
0.00271291
0.00157189
0.00078846
0.000136068
0.000214453
0.000444372
0.000957266
0.00191364
0.00329468
0.00513088
0.00720454
0.00964882
0.0125441
0.015468
0.0182191
0.0121266
0.0100914
0.00751839
0.00554563
0.00372116
0.00203624
0.00135535
0.000461196
2.24004e-05
0.000290853
3.38171e-06
0.000600019
0.00144767
0.00276513
0.00404632
0.00605763
0.0080324
0.0106272
0.0132355
0.0157752
0.0101677
0.00804631
0.00604499
0.00453932
0.00304041
0.00181392
0.000770682
0.000144939
9.30921e-05
0.000140047
0.000190969
0.000271282
0.0011187
0.00185495
0.00331153
0.00482397
0.00657868
0.00881013
0.0107569
0.0127948
0.00785732
0.00664759
0.00489836
0.00349425
0.0022506
0.001258
0.000350285
7.13451e-05
0.000118055
0.000484804
5.52393e-05
5.17625e-05
0.000715523
0.00143339
0.00258536
0.00373629
0.00516078
0.00697293
0.00861576
0.0100429
0.00587169
0.00484908
0.00355659
0.00234404
0.00159664
0.000935457
0.000208614
0.000120772
0.000305615
0.000588537
0.00027952
1.54357e-05
0.000430982
0.00105192
0.00171026
0.00276937
0.00373109
0.00504985
0.00640388
0.00723672
0.00362165
0.00290275
0.00223656
0.001676
0.00107382
0.000711233
0.000128151
0.000177099
0.000374935
0.000140799
0.000109907
5.35537e-05
0.000243166
0.000129536
0.0011272
0.00176568
0.00244568
0.00326228
0.00387369
0.00456379
0.00123183
0.000929606
0.000984661
0.000379066
0.0003119
0.00019071
8.58876e-05
2.95081e-05
0.00010881
0.000142263
0.00011998
0.000121383
2.49047e-05
0.000339673
0.00023544
0.000322633
0.000668945
0.00106701
0.00141778
0.00156093
0.0230265
0.0201054
0.0169338
0.0138464
0.0113578
0.00939842
0.0080651
0.00700659
0.00664506
0.00613017
0.0067232
0.00737717
0.00856822
0.0102184
0.0121341
0.0146361
0.0173208
0.0205805
0.0242465
0.027496
0.0201324
0.0178146
0.0146144
0.0121447
0.0098597
0.00811206
0.00685346
0.00594533
0.00550485
0.00520624
0.00577645
0.0061339
0.00706933
0.00859113
0.0103129
0.0124352
0.0150565
0.0181733
0.021019
0.0241189
0.0171783
0.0148273
0.0124436
0.0103153
0.00830653
0.0067098
0.00573868
0.00494112
0.00435794
0.00451826
0.00461431
0.00506906
0.00593548
0.00699767
0.00893248
0.0105421
0.0128309
0.0154305
0.0182208
0.0206021
0.0142915
0.0124231
0.0101641
0.0083842
0.00673679
0.0055294
0.00466881
0.0037349
0.00349271
0.00345926
0.00359885
0.00416587
0.00485585
0.00573164
0.00714723
0.00872943
0.0106495
0.0127182
0.0150999
0.0172857
0.0111663
0.00989921
0.00813364
0.00672571
0.00528112
0.00452491
0.00343193
0.00315212
0.00277728
0.00254377
0.00288714
0.00318538
0.00372277
0.00446385
0.0056164
0.00694046
0.00841588