/*--------------------------------*- C++ -*----------------------------------*\
| =========                 |                                                 |
| \\      /  F ield         | OpenFOAM: The Open Source CFD Toolbox           |
|  \\    /   O peration     | Version:  2212                                  |
|   \\  /    A nd           | Website:  www.openfoam.com                      |
|    \\/     M anipulation  |                                                 |
\*---------------------------------------------------------------------------*/
FoamFile
{
    version     2.0;
    format      ascii;
    arch        "LSB;label=32;scalar=64";
    class       volScalarField;
    location    "0";
    object      stateMean;
}
// * * * * * * * * * * * * * * * * * * * * * * * * * * * * * * * * * * * * * //

dimensions      [0 0 0 1 0 0 0];

internalField   nonuniform List<scalar> 
3200
(
351.795
347.873
354.331
348.271
349.888
348.989
351.895
353.264
356.002
353.145
356.907
351.185
349.833
353.248
352.653
353.441
350.879
350.04
346.441
343.276
342.67
346.176
344.661
343.157
349.437
346.084
346.259
347.117
344.685
344.721
341.255
342.778
347.499
345.276
342.749
342.115
339.014
344.682
340.059
337.374
336.93
331.906
342.547
337.848
339.288
338.358
336.75
337.168
340.076
339.891
340.35
340.596
335.886
342.65
341.994
338.212
334.422
336.45
331.828
335.569
331.195
330.978
328.353
328.783
329.179
330.797
330.983
334.223
331.033
334.086
330.425
330.23
326.986
326.397
331.697
335.429
326.019
323.897
326.909
328.749
320.222
321.18
321.332
325.432
323.853
324.17
329.67
326.591
326.376
327.425
327.685
325.764
324.987
322.35
321.051
325.545
322.561
323.067
319.219
321.969
315.235
315.293
318.41
319.614
320.232
320.403
320.869
321.608
315.119
323.74
320.706
322.426
315.87
319.488
313.694
319.588
318.065
317.509
314.924
318.453
309.546
310.646
315.182
310.855
312.271
312.975
308.528
312.078
311.752
313.649
315.271
311.342
307.877
308.203
314.414
308.83
310.987
309.957
307.811
309.528
300.331
302.624
304.362
304.831
303.472
305.542
302.755
300.839
306.265
307.178
305.863
303.181
301.813
304.522
304.006
299.053
302.948
305.393
307.278
305.604
351.581
348.532
349.071
352.564
351.43
354.021
358.695
351.999
354.178
353.587
357.018
356.152
356.547
352.928
350.397
350.402
349.884
352.764
345.208
348.537
344.491
344.75
347.846
348.805
350.068
346.573
347.271
346.657
345.772
348.496
347.538
346.829
346.62
349.683
346.198
345.082
343.505
344.148
342.784
338.05
336.309
339.833
334.798
339.746
338.01
339.959
341.776
338.51
338.579
341.59
338.393
339.498
342.496
337.424
341.552
338.143
336.578
336.762
338.295
336.922
333.655
327.776
334.158
334.776
330.816
331.367
333.274
335.251
331.04
337.995
337.741
334.688
331.86
328.498
332.87
330.735
330.058
330.124
328.844
326.272
321.046
324.273
324.269
325.48
325.524
325.742
322.358
326.948
325.245
325.097
324.474
325.945
321.729
327.255
324.825
319.371
323.488
321.306
321.689
324.111
317.057
310.783
312.581
315.942
320.031
313.692
317.978
318.841
321.294
319.873
318.53
319.747
317.686
321.565
312.682
315.292
312.942
317.524
312.845
313.543
310.613
306.821
307.709
307.93
310.853
311.111
316.005
312.089
313.072
307.152
311.421
308.719
314.634
311.644
308.136
311.534
312.051
308.734
310.332
310.333
300.443
303.926
299.462
305.661
303.983
300.374
301.471
304.553
304.385
301.613
309.136
302.309
302.328
301.241
302.83
300.803
303.179
304.492
305.07
303.227
354.445
351.82
351.753
353.842
351.114
360.997
355.747
354.412
352.859
360.134
359.891
355.476
350.938
352.031
353.089
350.363
350.345
346.624
350.27
349.339
343.715
346.222
341.89
343.805
351.112
346.994
349.638
346.878
342.249
352.368
350.056
351.085
348.129
347.229
344.543
346.428
345.476
342.915
341.299
339.763
337.292
337.782
337.672
339.45
340.527
347.152
339.339
339.361
342.594
342.892
339.93
342.831
343.269
341.632
341.763
335.195
337.864
337.356
334.621
335.25
333.635
328.006
330.105
330.776
329.598
335.344
334.535
332.276
333.812
335.963
337.891
331.369
336.45
330.16
331.05
331.108
329.893
329.952
328.739
329.325
324.906
319.954
322.227
321.059
328.151
324.521
322.066
321.608
325.062
324.529
328.86
324.077
324.902
328.078
327.729
322.904
322.238
320.937
319.182
323.049
313.848
315.879
320.021
317.644
318.924
322.376
318.262
319.064
318.722
322.848
316.808
321.886
319.853
317.762
316.445
315.875
317.832
317.118
318.299
315.786
311.209
310.251
312.399
312.602
307.757
313.464
311.212
309.204
313.281
317.769
312.198
305.679
307.051
314.103
307.682
314.201
310.34
305.588
309.74
312.697
303.727
305.867
305.757
297.891
305.831
305.214
298.578
303.924
306.442
306.575
303.681
298.294
305.957
305.861
309.373
300.327
304.813
305.175
301.341
299.082
355.458
355.049
353.712
354.687
354.164
352.579
359.873
358.433
363.955
359.415
355.939
358.298
356.735
358.653
354.007
356.018
353.226
351.575
349.968
349.824
346.937
348.153
352.818
348.726
350.434
346.106
352.945
347.909
349.75
349.97
348.278
347.199
347.055
349.847
346.858
348.415
345.291
343.156
344.782
342.703
338.486
340.678
340.807
341.914
341.651
344.137
337.732
344.318
342.432
344.721
343.606
343.313
340.348
338.733
341.338
339.862
335.243
338.465
338.129
334.663
332.367
335.011
338.815
334.836
336.879
335.798
334.714
335.567
334.509
337.923
336.041
335.558
339.571
334.308
337.592
333.301
328.82
336.157
332.153
330.156
322.999
323.019
326.369
325.01
326.043
325.108
323.08
328.848
327.82
330.498
327.473
327.889
327.243
325.802
323.324
318.9
326.674
325.539
325.059
322.126
317.078
315.097
320.346
319.756
319.091
317.133
320.693
318.565
316.092
316.231
319.719
315.839
318.567
324.026
312.228
315.208
317.187
315.835
319.265
312.216
310.787
314.703
306.027
314.076
314.569
313.845
312.617
310.324
312.359
315.652
312.675
312.221
311.753
311.071
310.21
310.294
311.787
312.99
310.143
310.066
302.228
306.749
302.933
305.826
303.689
304.275
303.226
300.55
307.108
301.523
307.324
305.849
309.623
304.388
301.844
301.089
305.52
307.906
306.173
299.165
354.919
353.978
358.362
356.337
359.97
356.507
358.745
357.487
362.405
360.767
359.531
356.458
358.417
353.578
355.445
355.491
354.804
349.577
351.77
351.446
348.955
350.225
347.098
348.766
347.104
346.594
351.522
351.145
354.342
351.296
347.195
351.211
352.913
349.077
350.276
345.047
350.32
343.211
342.64
346.399
339.807
339.787
340.113
342.313
343.249
339.07
343.305
342.024
345.994
344.623
341.684
343.987
344.838
339.36
342.032
344.146
341.07
339.351
335.921
340.474
333.83
334.759
333.219
333.424
334.443
330.939
332.172
337.552
337.554
334.744
334.076
331.035
335.894
334.654
330.119
332.465
333.071
332.513
329.55
325.822
320.35
322.13
327.502
329.665
323.965
326.501
327.412
329.801
330.951
322.441
326.605
327.04
323.831
321.002
325.032
324.855
325.261
325.546
328.028
321.984
315.116
320.286
319.407
320.921
321.559
319.159
317.469
318.328
321.639
322.413
322.718
313.48
318.334
317.266
320.478
317.135
317.412
317.927
317.981
320.431
308.118
316.166
307.622
311.885
310.78
308.428
315.854
311.391
312.934
314.479
313.092
307.6
310.426
309.6
312.456
312.006
308.622
311.122
306.551
309.827
302.338
303.438
303.193
303.419
302.845
303.44
303.993
303.993
305.919
305.289
304.092
306.222
300.766
300.962
304.131
310.884
304.716
307.369
305.228
296.149
353.383
358.982
360.611
360.741
356.2
357.986
363.784
358.857
363.616
358.948
359.808
363.039
361.865
359.715
361.305
357.184
358.843
355.415
352.24
354.525
346.032
345.584
352.136
351.251
350.068
348.23
355.188
349.738
353.928
349.244
348.047
351.998
349.424
350.28
348.673
351.829
346.358
346.755
345.344
346.101
341.241
344.342
341.327
342.977
341.284
346.083
345.668
345.467
346.37
349.731
343.678
344.889
343.094
341.88
342.385
344.676
343.534
335.694
344.887
339.199
331.905
340.651
333.948
333.246
332.511
335.212
337.403
335.459
334.69
338.905
338.839
335.567
337.539
335.714
333.685
333.959
332.603
330.171
332.467
332.309
329.555
324.519
325.321
325.165
326.768
328.134
329.677
330.538
331.102
328.637
327.587
330.436
330.491
324.974
325.548
326.519
323.124
328.869
326.132
328.401
320.227
318.484
317.523
319.34
320.711
322.428
323.554
322.263
324.395
319.162
319.334
319.356
320.984
320.425
314.471
317.072
318.764
314.294
319.973
316.989
313.815
308.816
309.858
311.264
308.812
318.507
311.556
312.548
310.41
314.874
306.87
305.136
312.043
314.168
308.689
309.306
315.039
309.752
313.105
312.535
303.449
304.099
305.375
304.046
305.352
302.98
302.563
307.773
309.85
301.116
303.331
301.333
305.037
302.009
304.698
302.676
302.837
304.776
305.884
304.633
361.396
358.347
356.822
358.706
359.516
361.439
361.492
361.541
366.307
361.148
363.591
359.294
366.11
359.109
359.597
358.717
360.84
354.424
353.25
352.689
347.185
355.068
351.245
353.019
356.605
354.58
347.703
351.463
354.633
354.992
354.817
349.631
353.639
349.327
354.325
351.943
349.942
350.765
350.783
345.122
340.595
345.983
347.937
343.298
345.859
342.836
345.483
346.437
346.483
346.477
348.697
347.954
344.369
342.38
341.476
342.021
346.335
341.743
340.806
342.471
333.239
337.522
335.075
329.667
336.719
337.991
340.52
335.915
335.563
336.476
340.08
340.214
335.808
335.146
337.139
335.958
333.541
336.26
333.047
327.385
325.063
327.311
325.349
330.262
325.919
332.857
327.819
330.136
329.946
327.726
332.076
332.882
326.839
330.586
328.319
328.134
324.886
327.104
325.33
326.468
316.824
322.733
319.144
322.642
318.787
320.938
320.838
315.94
320.563
321.843
322.783
323.802
315.106
318.549
320.037
323.489
316.488
323.341
319.458
314.743
314.472
308.426
310.538
311.684
310.039
312.916
312.23
314.937
310.376
315.561
315.227
314.629
313.952
312.037
315.223
310.615
310.801
312.841
307.491
307.607
307.984
302.318
301.706
304.427
303.599
305.147
303.328
305.969
303.813
304.401
302.127
304.766
303.901
305.39
299.525
307.659
304.332
303.606
301.366
301.405
359.248
360.085
355.424
363.684
366.222
364.342
364.175
361.956
363.265
367.942
361.282
364.071
362.704
364.088
356.921
360.241
358.901
356.663
358.108
351.531
350.272
352.3
349.515
351.262
354.081
349.434
359.915
350.864
353.668
351.657
350.826
358.427
349.981
355.246
349.738
354.095
349.489
349.788
347.439
346.502
341.124
341.557
346.821
347.572
349.174
348.831
343.522
347.836
347.523
349.4
346.651
345.282
343.061
344.11
347.229
341.246
343.576
342.659
341.317
334.279
331.325
336.387
334.789
338.424
333.916
335.332
342.645
339.288
339.889
339.552
337.504
337.872
338.871
336.837
333.847
335.377
339.744
334.72
335.447
336.868
328.258
329.086
331.16
331.61
331.303
324.003
337.839
325.162
331.115
330.693
331.739
330.379
330.013
331.598
327.907
325.471
330.875
327.767
329.432
327.289
319.251
320.322
318.654
322.9
320.589
324.234
320.978
321.687
320.07
320.798
323.316
322.394
325.963
317.159
320.91
316.416
319.954
319.85
318.886
320.015
314.442
312.932
314.085
313.372
311.825
310.39
310.837
315.387
315.83
311.107
317.001
315.139
314.959
316.427
310.235
310.904
310.731
312.634
312.212
308.582
299.848
306.052
307.207
303.113
306.145
304.364
305.125
301.871
302.989
304.269
301.99
309.417
304.383
303.111
307.062
304.825
302.955
307.3
305.312
303.279
357.487
360.826
364.18
357.744
365.966
364.956
364.628
367.207
366.967
366.149
368.751
365.705
363.995
371.107
366.003
358.858
355.267
356.09
357.985
355.008
352.691
350.043
353.522
354.189
357.396
357.962
357.963
357.265
358.152
354.722
359.879
354.966
359.969
351.825
356.781
358.141
351.798
353.546
352.451
349.21
349.513
345.26
342.836
349.07
351.574
351.392
347.413
349.552
349.517
348.879
348.146
345.276
348.779
347.059
351.389
344.868
341.874
340.568
340.713
340.349
339.436
335.653
337.864
337.583
341.039
337.102
337.136
345.236
338.333
336.42
340.031
337.069
338.842
338.331
340.642
336.205
332.478
337.411
334.815
331.218
324.829
334.932
324.653
325.931
329.585
329.6
326.37
329.461
333.436
328.726
331.63
330.258
332.46
333.173
327.664
331.499
327.969
328.314
324.758
325.082
319.676
319.665
317.687
321.848
322.776
323.619
324.514
323.205
322.155
318.663
320.954
322.238
323.079
319.894
320.392
322.312
321.256
322.183
317.45
321.204
310.351
310.666
309.542
314.742
313.636
314.28
312.197
312.66
315.467
312.589
314.095
313.049
315.04
311.48
307.536
313.132
309.141
310.481
311.781
306.352
304.911
300.263
303.561
305.58
302.827
306.272
301.917
304.446
300.799
305.132
302.212
307.158
303.191
303.132
303.85
306.807
304.996
304.912
308.198
306.677
358.56
363.976
360.603
362.163
359.985
367.338
365.199
367.055
363.282
370.313
362.989
365.461
362.161
367.978
359.97
364.999
362.162
363.19
362.695
355.863
358.665
357.09
355.925
355.301
360.093
351.727
361.133
353.428
361.013
353.43
353.004
357.381
353.709
361.99
352.231
355.121
350.161
356.417
349.478
346.65
347.821
345.872
349.175
351.267
352.882
351.116
349.617
350.897
351.924
350.03
348.125
351.082
353.032
346.798
349.374
346.906
346.107
345.424
344.177
345.852
337.366
339.039
340.368
338.286
339.759
338.054
337.999
342.946
345.094
336.632
341.617
338.723
339.098
339.23
338.742
336.575
336.066
337.563
334.81
337.144
330.844
325.772
330.983
328.533
331.194
330.849
329.231
329.899
332.025
331.881
330.482
328.124
331.568
329.71
328.208
331.684
324.789
325.229
325.52
325.399
321.401
320.401
315.269
322.51
321.425
319.962
323.998
323.567
324.859
323.727
326.074
320.794
321.081
322.052
322.376
317.287
319.465
316.377
318.82
321.152
310.981
312.55
310.302
313.305
313.266
312.343
310.234
309.236
312.551
316.548
314.359
314.036
314.565
315.088
311.835
310.57
312.947
308.701
315.673
317.319
306.476
304.187
303.036
303.933
302.779
302.471
308.073
304.28
305.147
306.499
305.705
300.372
302.514
305.09
306.862
299.905
308.737
305.759
302.965
305.7
364.979
365.281
363.937
364.375
362.937
367.375
364.035
367.902
368.827
368.882
369.613
365.356
370.04
365.38
365.151
365.585
364.156
360.324
361.579
355.849
359.901
353.497
354.008
354.5
360.529
353.237
359.159
355.073
363.623
354.14
355.036
361.439
353.724
356.126
352.398
356.937
352.652
357.638
351.239
350.906
343.538
345.387
346.235
346.721
350.645
355.478
345.205
347.365
353.679
349.428
352.691
347.691
350.827
351.209
347.27
349.336
343.214
343.484
341.516
344.5
337.914
341.516
343.65
339.736
340.335
336.763
340.867
335.72
345.952
340.299
343.857
337.224
343.88
340.198
336.903
339.779
338.319
336.777
337.081
334.612
330.714
331.753
333.388
331.925
335.63
330.912
333.466
331.628
330.424
331.141
333.102
332.828
328.756
328.166
330.278
330.63
328.032
325.619
326.897
324.182
320.476
318.876
319.87
322.721
325.634
323.181
326.475
323.525
320.414
321.784
320.818
322.803
321.798
320.947
320.211
326.47
313.964
320.988
317.01
322.169
317.067
312.618
311.298
312.213
312.176
313.486
313.325
315.104
313.151
315.022
313.862
309.785
314.942
315.202
310.714
315.87
312.705
316.787
311.549
313.844
302.838
305.603
304.058
303.587
303.819
306.969
301.398
306.034
305.474
300.097
300.694
305.427
304.213
303.997
305.667
307.385
304.241
304.971
301.837
306.549
366.527
362.027
363.66
366.379
364.77
371.588
369.792
368.8
371.954
372.226
367.417
366.56
366.476
373.768
367.876
366.848
364.726
360.766
358.471
366.953
358.382
354.5
354.577
357.158
358.028
357.434
355.486
360.483
361.913
361.388
361.224
360.142
355.756
360.309
358.149
354.219
355.624
353.99
350.782
352.805
346.562
349.422
350.518
350.315
347.251
350.586
350.988
349.187
348.691
349.019
351.927
348.421
354.751
350.469
345.47
343.841
346.461
346.446
342.499
345.989
339.226
338.871
342.612
339.378
341.191
342.664
343.661
338.937
341.706
343.339
339.319
343.529
336.204
339.313
338.903
339.776
334.961
337.21
336.469
334.046
325.773
330.632
330.548
327.037
331.92
330.548
328.679
332.122
332.256
332.24
328.726
330.211
333.825
331.246
335.416
329.879
328.514
332.404
325.852
330.152
318.158
321.176
319.737
322.573
318.715
319.329
323.005
323.045
323.479
325.097
327.805
323.148
325.063
324.84
320.006
322.993
322.85
321.99
322.204
317.236
309.32
309.113
309.031
315.407
318.099
312.011
315.909
316.281
316.341
312.339
313.173
313.649
314.642
316.304
311
312.312
313.793
312.358
307.838
312.099
305.16
304.592
304.084
305.182
307.436
302.837
307.79
304.464
308.253
304.742
306.638
306.691
307.138
309.887
301.458
306.773
306.425
304.597
305.158
302.268
362.723
367.377
369.634
366.265
366.796
367.642
371.623
369.12
371.743
367.979
369.252
371.007
367.519
376.014
366.402
368.336
362.946
361.677
360.889
365.503
350.848
356.182
359.348
355.699
358.718
355.372
361.051
357.189
358.145
357.023
358.205
363.608
357.337
360.729
357.029
362.2
355.9
353.019
354.176
356.794
347.747
348.475
347.125
350.811
349.545
353.164
351.098
353.286
353.871
351.245
351.263
353.032
350.704
352.62
348.073
347.415
347.965
348.719
343.784
341.771
336.821
337.955
338.478
336.883
338.127
345.343
342.212
344.026
343.222
343.899
340.653
342.495
344.829
340.007
337.942
339.421
340.215
338.571
338.714
333.66
331.567
329.428
329.235
332.593
331.933
333.77
335.554
331.383
335.492
333.829
334.957
335.144
331.946
332.354
336.57
334.144
333.639
331.258
326.762
331.505
321.619
321.025
325.16
323.815
324.042
321.521
324.691
319.879
322.066
324.463
324.239
323.96
322.784
321.537
323.094
324.098
320.95
321.452
323.533
321.022
314.413
315.996
309.076
313.671
310.603
313.894
313.762
312.193
310.388
315.186
315.875
314.203
311.92
317.334
313.913
311.38
314.029
310.006
313.736
316.564
303.513
304.744
303.41
302.722
305.622
307.32
303.532
303.577
302.652
307.131
304.933
303.061
304.645
311.728
302.894
302.561
303.74
305.747
301.887
304.397
363.221
366.876
365.534
364.398
370.336
371.385
374.725
372.357
371.743
373.419
370.783
371.377
373.58
364.916
367.987
365.723
362.167
364.743
362.805
360.391
355.356
360.191
357.307
363.684
359.381
359.112
362.577
360.059
362.101
359.614
362.194
365.152
360.777
359.786
359.168
356.736
356.473
355.68
352.982
352.787
344.718
347.859
349.236
346.138
349.475
349.204
350.143
352.57
351.164
353.754
356.493
348.408
347.77
354.495
353.065
346.672
347.421
345.894
345.144
347.659
337.961
341.016
339.872
340.59
339.577
341.168
341.621
343.535
342.026
344.85
344.448
341.347
345.882
342.975
342.466
336.36
337.467
337.266
338.372
336.94
332.181
334.173
333.701
335.506
333.241
333.59
332.804
333.294
331.799
334.91
330.339
331.396
329.498
338.328
329.619
330.637
328.442
332.212
328.867
330.963
322.939
318.714
320.722
323.611
319.28
326.01
321.96
319.37
323.366
326.82
322.382
320.525
322.706
322.691
323.139
323.544
324.405
318.911
319.313
322.215
314.579
313.822
311.513
306.328
316.448
310.814
311.869
314.996
312.87
313.915
313.526
315.392
310.941
313.952
314.178
314.46
312.596
312.464
314.482
311.53
303.211
300.37
302.233
307.793
309.913
305.027
304.539
302.706
308.568
302.442
301.623
303.001
306.046
305.951
304.258
303.319
303.886
302.8
306.032
302.361
364.685
367.863
366.006
374.342
374.092
371.277
372.111
375.24
372.041
374.435
375.807
375.756
372.755
371.387
370.357
371.669
365.781
364.752
366.336
364.074
356.376
360.915
357.399
360.419
362.358
361.82
362.572
361.341
362.495
361.514
360.883
361.742
361.649
362.149
360.481
364.731
360.194
355.177
359.275
351.655
350.96
352.563
349.179
354.517
351.094
353.6
352.794
355.52
358.703
356.935
350.795
351.243
352.215
351.844
350.02
349.718
344.034
344.605
346.932
345.389
339.246
341.433
341.409
340.624
346.923
343.877
345.652
342.945
346.603
343.232
342.048
343.399
347.705
341.999
342.609
342.557
339.016
339.405
336.182
339.652
332.446
330.318
329.745
333.615
331.041
334.027
333.042
334.422
338.217
339.33
336.094
332.883
333.071
334.708
327.297
328.119
332.517
328.404
331.444
330.791
324.161
321.597
324.268
324.674
322.085
323.246
320.974
325.963
318.72
322.96
320.721
330.063
318.621
325.961
324.635
319.994
321.046
319.546
317.884
320.845
313.678
315.477
313.752
314.228
315.965
316.655
313.139
313.491
316.502
316.033
313.418
318.133
315.821
316.798
315.352
310.787
313.549
313.794
314.186
309.197
305.819
306.209
304.284
306.305
302.267
305.649
304.591
302.304
306.299
304.66
303.761
304.524
301.588
305.279
301.172
306.186
307.403
305.968
307.378
302.784
371.636
367.479
372.292
369.38
374.112
375.188
370.912
371.332
376.563
373.003
376.176
369.833
371.624
365.879
369.105
367.914
366.003
369.127
363.262
365.689
357.014
361.195
361.315
360.398
367.056
361.075
362.373
362.186
363.882
367.424
360.563
361.783
360.314
361.742
355.759
357.653
358.645
358.116
355.756
354.918
347.063
353.04
345.546
348.367
355.818
352.148
352.949
353.571
354.967
356.376
354.157
353.256
350.047
351.881
352.122
349.613
351.983
349.947
346.767
350.578
338.995
340.377
346.465
344.93
346.49
343.371
346.545
342.316
344.981
344.793
339.221
341.837
347.279
338.703
342.381
338.498
339.364
336.486
340.644
337.513
330.64
336.048
332.712
333.05
329.841
333.848
338.214
332.759
336.286
334.287
331.973
333.241
335.26
335.62
335.208
331
326.751
328.491
326.726
327.274
322.845
320.68
325.422
323.774
326.783
321.689
323.658
322.745
324.541
325.463
324.731
326.533
323.746
320.221
321.85
322.991
323.457
319.943
321.06
325.445
316.467
314.94
316.268
313.971
313.936
312.617
318.318
314.664
315.108
312.365
312.328
315.478
317.868
313.174
315.457
315.337
311.13
316.552
315.033
314.272
303.19
307.771
300.453
306.27
303.371
304.083
304.321
310.733
305.19
306.598
305.536
307.477
301.709
306.325
304.542
305.445
303.651
305.341
306.584
308.436
369.374
365.298
369.722
372.282
374.721
374.438
371.291
376.19
371.075
376.496
376.646
372.403
374.033
372.978
370.173
373.048
364.345
364.438
368.03
364.742
360.029
366.788
360.327
364.675
361.88
364.886
365.718
365.485
361.921
365.872
365.795
362.282
365.796
359.997
364.312
358.199
364.502
359.242
363.834
352.671
351.964
351.54
349.631
350.116
352.083
350.837
355.155
359.99
352.972
352.761
354.508
354.662
351.337
352.188
355.917
349.726
347.357
351.475
347.647
348.015
340.545
340.523
341.74
347.314
344.179
342.138
343.261
343.103
345.593
345.162
343.007
343.102
344.539
341.801
342.591
338.355
340.695
341.179
342.39
335.12
328.096
333.532
335.077
333.651
336.014
330.31
338.14
335.778
329.847
334.773
335.736
332.383
329.88
334.883
332.339
334.412
330.507
333.596
327.92
331.535
323.682
319.745
327.007
323.019
328.325
322.437
324.908
323.352
323.258
325.622
322.912
323.23
324.863
324.102
323.075
326.564
321.454
321.908
320.158
324.086
311.035
314.115
316.101
316.286
317.728
313.306
315.496
315.05
313.63
314.938
315.715
309.469
314.878
311.826
312.162
311.665
313.146
310.065
311.491
311.578
309.625
307.074
305.079
307.124
305.164
306.911
301.125
299.881
307.566
303.569
304.37
308.466
304.61
307.721
301.54
305.812
305.768
300.463
301.23
299.624
367.17
368.456
367.144
371.496
372.494
373.751
370.632
375.103
375.084
373.055
372.839
370.401
370.619
371.383
368.738
367.432
369.799
367.72
367.037
367.318
358.42
363.014
364.247
364.067
360.942
365.977
365.811
365.216
363.887
367.553
363.922
368.634
361.703
362.624
363.817
358.733
357.552
356.397
356.441
357.768
349.488
350.474
350.235
348.27
358.508
353.096
352.532
355.542
355.424
353.912
356.109
354.658
352.493
352.355
353.403
350.733
352.852
350.57
344.845
347.345
342.446
342.334
344.036
343.959
347.691
345.452
346.13
342.528
345.627
346.668
343.754
341.861
343.286
348.727
347.097
340.492
342.702
341.084
341.115
335.126
338.301
337.158
328.675
331.673
329.688
331.726
333.871
330.663
332.39
336.542
334.058
332.516
337.022
333.13
334.732
329.919
331.499
329.444
326.403
328.629
324.103
321.455
323.743
321.145
324.366
326.205
321.577
324.593
326.764
325.606
322.345
325.812
324.6
328.514
323.005
320.855
324.826
320.717
319.987
318.102
314.935
312.904
314.712
313.12
316.314
317.747
315.334
310.913
310.704
318.148
318.428
316.819
317.645
315.717
311.599
313.616
312.715
313.034
312.155
311.819
302.42
302.621
304.659
306.194
306.481
302.525
302.441
304.397
300.557
307.236
305.377
304.932
304.979
309.751
304.747
307.092
304.709
303.127
306.368
302.577
366.968
368.226
366.39
374.681
373.694
370.308
375.506
378.619
376.949
373.47
372.349
376.289
368.416
371.656
371.809
371.795
372.557
368.673
367.743
365.109
360.421
373.508
360.182
369.527
365.364
369.857
362.728
369.633
364.083
370.006
369.557
368.471
369.587
363.797
369.565
360.539
368.813
357.158
367.876
353.295
351.468
351.378
351.376
353.852
355.279
352.927
356.407
352
354.667
354.01
356.334
355.341
351.209
351.391
353.895
351.497
352.821
349.487
349.592
342.698
340.564
342.512
341.51
345.569
345.893
345.611
344.766
347.341
344.988
342.473
350.614
344.756
342.309
341.906
341.895
348.18
343.185
341.604
337.021
337.237
333.8
336.171
336.627
331.528
331.698
335.82
337.224
336.696
337.123
336.439
338.749
330.942
334.094
330.71
336.811
331.167
332.45
333.934
331.546
330.405
322.987
325.547
321.428
321.023
323.568
326.505
326.389
327.106
319.783
323.692
325.654
325.638
322.986
325.301
327.82
325.33
317.848
324.186
322.658
321.649
314.856
317.501
311.345
316.806
317.12
313.754
315.165
314.227
317.943
315.323
318.144
314.23
314.246
313.384
313.028
313.796
310.545
313.787
313.766
317.065
305.902
309.729
303.538
310.287
303.747
302.876
308.777
303.16
303.752
304.285
303.967
306.712
303.138
306.23
309.606
302.607
304.64
305.17
305.62
302.844
365.817
367.077
373.07
373.92
376.579
374.726
371.101
376.342
373.614
375.331
376.674
371.131
376.797
373.009
371.938
370.808
369.183
370.925
364.742
362.636
358.187
359.692
360.601
366.068
362.264
362.334
364.352
362.41
359.758
369.036
361.51
363.225
366.039
363.09
360.856
359.849
359.75
358.729
357.426
357.068
349.232
348.694
352.226
351.196
353.629
352.817
350.668
355.985
352.68
356.495
356.431
353.661
354.169
354.186
353.02
350.719
348.06
350.333
351.241
347.251
334.787
337.809
340.891
340.454
341.769
344.328
345.386
346.103
344.418
342.449
346.479
344.028
350.612
343.595
343.656
340.122
339.478
344.875
337.07
338.934
333.653
328.391
335.471
332.879
332.041
333.669
337.01
335.321
335.277
333.877
334.725
337.29
333.588
334.745
338.616
331.47
335.003
329.27
329.817
329.192
323.789
320.623
322.237
323.789
326.988
322.858
319.786
326.443
326.064
321.94
327.7
325.861
328.442
325.73
320.584
322.34
322.296
321.428
325.283
320.038
312.658
309.961
314.878
313.382
313.982
309.968
312.001
311.663
313.664
312.377
312.972
310.508
314.998
313.989
308.242
316.989
315.84
313.992
314.074
314.346
301.142
306.325
305.08
305.36
305.371
306.101
306.449
303.708
302.863
304.28
304.977
303.653
307.292
309.457
302.47
304.748
305.25
304.991
302.458
299.426
)
;

boundaryField
{
    hotSide
    {
        type            fixedGradient;
        gradient        nonuniform List<scalar> 
400
(
321.511
322.87
325.591
329.677
335.133
341.965
350.181
359.788
370.794
383.208
397.037
412.289
428.971
447.088
466.647
487.651
510.105
534.011
559.372
586.191
323.738
325.08
327.767
331.802
337.194
343.949
352.078
361.591
372.498
384.81
398.537
413.687
430.268
448.289
467.755
488.672
511.043
534.872
560.161
586.913
326.149
327.47
330.116
334.091
339.406
346.071
354.099
363.503
374.296
386.491
400.101
415.136
431.606
449.52
468.885
489.706
511.988
535.735
560.948
587.63
328.704
330
332.597
336.503
341.73
348.292
356.205
365.485
376.15
388.215
401.695
416.604
432.954
450.753
470.009
490.73
512.919
536.579
561.714
588.325
331.33
332.599
335.142
338.97
344.099
350.546
358.332
367.477
378.003
389.928
403.271
418.047
434.27
451.949
471.095
491.712
513.807
537.382
562.439
588.978
333.918
335.158
337.643
341.389
346.414
352.74
360.392
369.397
379.779
391.562
404.765
419.407
435.503
453.065
472.101
492.618
514.622
538.114
563.096
589.569
336.321
337.531
339.959
343.622
348.544
354.751
362.274
371.142
381.385
393.031
406.101
420.618
436.595
454.047
472.983
493.409
515.33
538.747
563.663
590.076
338.36
339.543
341.92
345.509
350.339
356.44
363.847
372.595
382.718
394.244
407.2
421.608
437.485
454.844
473.695
494.045
515.897
539.253
564.114
590.478
339.852
341.015
343.352
346.885
351.645
357.665
364.985
373.643
383.675
395.113
407.984
422.312
438.116
455.407
474.197
494.491
516.294
539.606
564.428
590.758
340.643
341.795
344.11
347.613
352.334
358.311
365.584
374.193
384.176
395.567
408.393
422.679
438.443
455.699
474.456
494.722
516.498
539.788
564.589
590.901
340.643
341.795
344.11
347.613
352.334
358.311
365.584
374.193
384.176
395.567
408.393
422.679
438.443
455.699
474.456
494.722
516.498
539.788
564.589
590.901
339.852
341.015
343.352
346.885
351.645
357.665
364.985
373.643
383.675
395.113
407.984
422.312
438.116
455.407
474.197
494.491
516.294
539.606
564.428
590.758
338.36
339.543
341.92
345.509
350.339
356.44
363.847
372.595
382.718
394.244
407.2
421.608
437.485
454.844
473.695
494.045
515.897
539.253
564.114
590.478
336.321
337.531
339.959
343.622
348.544
354.751
362.274
371.142
381.385
393.031
406.101
420.618
436.595
454.047
472.983
493.409
515.33
538.747
563.663
590.076
333.918
335.158
337.643
341.389
346.414
352.74
360.392
369.397
379.779
391.562
404.765
419.407
435.503
453.065
472.101
492.618
514.622
538.114
563.096
589.569
331.33
332.599
335.142
338.97
344.099
350.546
358.332
367.477
378.003
389.928
403.271
418.047
434.27
451.949
471.095
491.712
513.807
537.382
562.439
588.978
328.704
330
332.597
336.503
341.73
348.292
356.205
365.485
376.15
388.215
401.695
416.604
432.954
450.753
470.009
490.73
512.919
536.579
561.714
588.325
326.149
327.47
330.116
334.091
339.406
346.071
354.099
363.503
374.296
386.491
400.101
415.136
431.606
449.52
468.885
489.706
511.988
535.735
560.948
587.63
323.738
325.08
327.767
331.802
337.194
343.949
352.078
361.591
372.498
384.81
398.537
413.687
430.268
448.289
467.755
488.672
511.043
534.872
560.161
586.913
321.511
322.87
325.591
329.677
335.133
341.965
350.181
359.788
370.794
383.208
397.037
412.289
428.971
447.088
466.647
487.651
510.105
534.011
559.372
586.191
)
;
    }
    coldSide
    {
        type            mixed;
        refValue        uniform 300;
        refGradient     uniform 0;
        valueFraction   uniform 0.991591;
        source          uniform 0;
        value           nonuniform List<scalar> 
400
(
300.003
300.004
300.031
300.019
300.02
300.029
300.067
299.999
300.041
300.054
300.024
300.043
300.03
300.027
300.049
300.027
300.081
300.02
300.05
300.01
300.022
300.033
300.049
300.057
300.029
300.034
300.019
300.051
300.002
300.035
300.047
300.039
300.04
300.003
300.052
300.065
300.059