/*--------------------------------*- C++ -*----------------------------------*\
| =========                 |                                                 |
| \\      /  F ield         | OpenFOAM: The Open Source CFD Toolbox           |
|  \\    /   O peration     | Version:  2212                                  |
|   \\  /    A nd           | Website:  www.openfoam.com                      |
|    \\/     M anipulation  |                                                 |
\*---------------------------------------------------------------------------*/
FoamFile
{
    version     2.0;
    format      ascii;
    arch        "LSB;label=32;scalar=64";
    class       volScalarField;
    location    "./ITHACAoutput/true/7.7";
    object      trueState;
}
// * * * * * * * * * * * * * * * * * * * * * * * * * * * * * * * * * * * * * //

dimensions      [0 0 0 1 0 0 0];

internalField   nonuniform List<scalar> 
3200
(
349.103
349.682
350.422
351.228
352.058
352.873
353.625
354.26
354.722
354.967
354.967
354.722
354.26
353.625
352.873
352.058
351.228
350.422
349.682
349.103
342.614
343.105
343.742
344.44
345.158
345.863
346.513
347.062
347.461
347.672
347.672
347.461
347.062
346.513
345.863
345.158
344.44
343.742
343.105
342.614
336.102
336.508
337.046
337.635
338.242
338.837
339.386
339.849
340.186
340.364
340.364
340.186
339.849
339.386
338.837
338.242
337.635
337.046
336.508
336.102
329.569
329.897
330.335
330.816
331.312
331.799
332.247
332.625
332.901
333.046
333.046
332.901
332.625
332.247
331.799
331.312
330.816
330.335
329.897
329.569
323.021
323.272
323.612
323.986
324.372
324.75
325.098
325.392
325.606
325.718
325.718
325.606
325.392
325.098
324.75
324.372
323.986
323.612
323.272
323.021
316.46
316.638
316.88
317.148
317.423
317.693
317.942
318.151
318.304
318.384
318.384
318.304
318.151
317.942
317.693
317.423
317.148
316.88
316.638
316.46
309.891
309.997
310.142
310.303
310.468
310.63
310.779
310.905
310.997
311.045
311.045
310.997
310.905
310.779
310.63
310.468
310.303
310.142
309.997
309.891
303.316
303.352
303.4
303.454
303.509
303.564
303.614
303.656
303.687
303.703
303.703
303.687
303.656
303.614
303.564
303.509
303.454
303.4
303.352
303.316
349.277
349.851
350.584
351.383
352.204
353.01
353.754
354.381
354.837
355.078
355.078
354.837
354.381
353.754
353.01
352.204
351.383
350.584
349.851
349.277
342.764
343.251
343.883
344.574
345.285
345.982
346.625
347.167
347.561
347.769
347.769
347.561
347.167
346.625
345.982
345.285
344.574
343.883
343.251
342.764
336.229
336.632
337.165
337.749
338.35
338.939
339.481
339.938
340.271
340.447
340.447
340.271
339.938
339.481
338.939
338.35
337.749
337.165
336.632
336.229
329.673
329.998
330.432
330.909
331.401
331.882
332.325
332.699
332.97
333.113
333.113
332.97
332.699
332.325
331.882
331.401
330.909
330.432
329.998
329.673
323.102
323.351
323.688
324.059
324.441
324.815
325.159
325.449
325.66
325.771
325.771
325.66
325.449
325.159
324.815
324.441
324.059
323.688
323.351
323.102
316.518
316.695
316.935
317.199
317.472
317.739
317.985
318.192
318.342
318.422
318.422
318.342
318.192
317.985
317.739
317.472
317.199
316.935
316.695
316.518
309.926
310.031
310.175
310.334
310.498
310.658
310.805
310.93
311.02
311.067
311.067
311.02
310.93
310.805
310.658
310.498
310.334
310.175
310.031
309.926
303.328
303.363
303.411
303.464
303.519
303.573
303.622
303.664
303.694
303.71
303.71
303.694
303.664
303.622
303.573
303.519
303.464
303.411
303.363
303.328
349.624
350.189
350.91
351.694
352.499
353.287
354.014
354.625
355.07
355.305
355.305
355.07
354.625
354.014
353.287
352.499
351.694
350.91
350.189
349.624
343.066
343.544
344.166
344.844
345.541
346.223
346.851
347.379
347.763
347.966
347.966
347.763
347.379
346.851
346.223
345.541
344.844
344.166
343.544
343.066
336.483
336.881
337.404
337.977
338.566
339.142
339.673
340.119
340.443
340.614
340.614
340.443
340.119
339.673
339.142
338.566
337.977
337.404
336.881
336.483
329.882
330.201
330.628
331.097
331.578
332.049
332.482
332.846
333.111
333.251
333.251
333.111
332.846
332.482
332.049
331.578
331.097
330.628
330.201
329.882
323.264
323.509
323.841
324.204
324.579
324.945
325.281
325.564
325.77
325.878
325.878
325.77
325.564
325.281
324.945
324.579
324.204
323.841
323.509
323.264
316.634
316.808
317.044
317.304
317.571
317.832
318.072
318.274
318.421
318.498
318.498
318.421
318.274
318.072
317.832
317.571
317.304
317.044
316.808
316.634
309.995
310.099
310.24
310.396
310.557
310.714
310.858
310.979
311.067
311.114
311.114
311.067
310.979
310.858
310.714
310.557
310.396
310.24
310.099
309.995
303.351
303.386
303.433
303.485
303.539
303.592
303.64
303.681
303.71
303.726
303.726
303.71
303.681
303.64
303.592
303.539
303.485
303.433
303.386
303.351
350.147
350.699
351.402
352.164
352.945
353.708
354.41
354.999
355.428
355.653
355.653
355.428
354.999
354.41
353.708
352.945
352.164
351.402
350.699
350.147
343.518
343.986
344.592
345.252
345.928
346.588
347.195
347.704
348.074
348.269
348.269
348.074
347.704
347.195
346.588
345.928
345.252
344.592
343.986
343.518
336.867
337.254
337.765
338.322
338.894
339.452
339.964
340.395
340.707
340.871
340.871
340.707
340.395
339.964
339.452
338.894
338.322
337.765
337.254
336.867
330.195
330.507
330.924
331.379
331.846
332.303
332.721
333.072
333.327
333.462
333.462
333.327
333.072
332.721
332.303
331.846
331.379
330.924
330.507
330.195
323.508
323.748
324.07
324.424
324.788
325.142
325.467
325.74
325.938
326.042
326.042
325.938
325.74
325.467
325.142
324.788
324.424
324.07
323.748
323.508
316.808
316.978
317.208
317.461
317.72
317.973
318.205
318.4
318.542
318.616
318.616
318.542
318.4
318.205
317.973
317.72
317.461
317.208
316.978
316.808
310.1
310.201
310.339
310.491
310.647
310.799
310.938
311.055
311.14
311.184
311.184
311.14
311.055
310.938
310.799
310.647
310.491
310.339
310.201
310.1
303.386
303.42
303.466
303.517
303.569
303.62
303.667
303.706
303.735
303.749
303.749
303.735
303.706
303.667
303.62
303.569
303.517
303.466
303.42
303.386
350.846
351.382
352.061
352.796
353.547
354.279
354.949
355.511
355.918
356.133
356.133
355.918
355.511
354.949
354.279
353.547
352.796
352.061
351.382
350.846
344.125
344.578
345.164
345.8
346.45
347.083
347.663
348.149
348.501
348.686
348.686
348.501
348.149
347.663
347.083
346.45
345.8
345.164
344.578
344.125
337.38
337.755
338.249
338.787
339.336
339.871
340.361
340.771
341.069
341.225
341.225
341.069
340.771
340.361
339.871
339.336
338.787
338.249
337.755
337.38
330.615
330.917
331.32
331.759
332.209
332.646
333.046
333.381
333.624
333.752
333.752
333.624
333.381
333.046
332.646
332.209
331.759
331.32
330.917
330.615
323.834
324.067
324.379
324.72
325.07
325.41
325.72
325.981
326.169
326.269
326.269
326.169
325.981
325.72
325.41
325.07
324.72
324.379
324.067
323.834
317.041
317.206
317.428
317.672
317.922
318.165
318.387
318.572
318.707
318.778
318.778
318.707
318.572
318.387
318.165
317.922
317.672
317.428
317.206
317.041
310.24
310.338
310.472
310.618
310.768
310.913
311.047
311.158
311.239
311.282
311.282
311.239
311.158
311.047
310.913
310.768
310.618
310.472
310.338
310.24
303.433
303.466
303.511
303.56
303.61
303.659
303.703
303.741
303.768
303.782
303.782
303.768
303.741
303.703
303.659
303.61
303.56
303.511
303.466
303.433
351.725
352.24
352.892
353.595
354.311
355.006
355.64
356.17
356.553
356.755
356.755
356.553
356.17
355.64
355.006
354.311
353.595
352.892
352.24
351.725
344.886
345.322
345.885
346.493
347.113
347.714
348.263
348.721
349.052
349.227
349.227
349.052
348.721
348.263
347.714
347.113
346.493
345.885
345.322
344.886
338.024
338.386
338.859
339.374
339.898
340.406
340.869
341.256
341.536
341.683
341.683
341.536
341.256
340.869
340.406
339.898
339.374
338.859
338.386
338.024
331.142
331.433
331.82
332.24
332.668
333.084
333.462
333.779
334.007
334.127
334.127
334.007
333.779
333.462
333.084
332.668
332.24
331.82
331.433
331.142
324.244
324.468
324.768
325.094
325.427
325.75
326.045
326.29
326.468
326.561
326.561
326.468
326.29
326.045
325.75
325.427
325.094
324.768
324.468
324.244
317.334
317.493
317.706
317.94
318.177
318.408
318.618
318.794
318.921
318.987
318.987
318.921
318.794
318.618
318.408
318.177
317.94
317.706
317.493
317.334
310.416
310.51
310.638
310.778
310.921
311.06
311.186
311.291
311.367
311.407
311.407
311.367
311.291
311.186
311.06
310.921
310.778
310.638
310.51
310.416
303.492
303.524
303.567
303.614
303.661
303.708
303.75
303.785
303.811
303.824
303.824
303.811
303.785
303.75
303.708
303.661
303.614
303.567
303.524
303.492
352.785
353.278
353.899
354.566
355.243
355.896
356.491
356.986
357.344
357.531
357.531
357.344
356.986
356.491
355.896
355.243
354.566
353.899
353.278
352.785
345.805
346.222
346.758
347.335
347.921
348.487
349.001
349.43
349.739
349.901
349.901
349.739
349.43
349.001
348.487
347.921
347.335
346.758
346.222
345.805
338.801
339.147
339.599
340.087
340.582
341.06
341.495
341.857
342.118
342.255
342.255
342.118
341.857
341.495
341.06
340.582
340.087
339.599
339.147
338.801
331.778
332.056
332.424
332.823
333.229
333.62
333.975
334.271
334.484
334.596
334.596
334.484
334.271
333.975
333.62
333.229
332.823
332.424
332.056
331.778
324.739
324.953
325.238
325.548
325.863
326.168
326.444
326.674
326.839
326.926
326.926
326.839
326.674
326.444
326.168
325.863
325.548
325.238
324.953
324.739
317.688
317.839
318.043
318.264
318.489
318.706
318.904
319.068
319.186
319.248
319.248
319.186
319.068
318.904
318.706
318.489
318.264
318.043
317.839
317.688
310.628
310.718
310.841
310.974
311.109
311.239
311.358
311.456
311.527
311.564
311.564
311.527
311.456
311.358
311.239
311.109
310.974
310.841
310.718
310.628
303.563
303.593
303.634
303.679
303.724
303.768
303.808
303.841
303.864
303.877
303.877
303.864
303.841
303.808
303.768
303.724
303.679
303.634
303.593
303.563
354.029
354.497
355.085
355.714
356.349
356.959
357.512
357.971
358.301
358.474
358.474
358.301
357.971
357.512
356.959
356.349
355.714
355.085
354.497
354.029
346.883
347.279
347.786
348.331
348.88
349.409
349.887
350.284
350.57
350.719
350.719
350.57
350.284
349.887
349.409
348.88
348.331
347.786
347.279
346.883
339.713
340.042
340.469
340.929
341.394
341.841
342.246
342.581
342.822
342.949
342.949
342.822
342.581
342.246
341.841
341.394
340.929
340.469
340.042
339.713
332.524
332.789
333.137
333.513
333.894
334.259
334.59
334.864
335.061
335.164
335.164
335.061
334.864
334.59
334.259
333.894
333.513
333.137
332.789
332.524
325.32
325.523
325.793
326.085
326.381
326.665
326.922
327.135
327.289
327.369
327.369
327.289
327.135
326.922
326.665
326.381
326.085
325.793
325.523
325.32
318.103
318.247
318.439
318.648
318.859
319.062
319.246
319.398
319.507
319.565
319.565
319.507
319.398
319.246
319.062
318.859
318.648
318.439
318.247
318.103
310.877
310.963
311.079
311.204
311.331
311.453
311.563
311.655
311.72
311.755
311.755
311.72
311.655
311.563
311.453
311.331
311.204
311.079
310.963
310.877
303.647
303.675
303.714
303.756
303.799
303.84
303.877
303.907
303.929
303.941
303.941
303.929
303.907
303.877
303.84
303.799
303.756
303.714
303.675
303.647
355.46
355.902
356.456
357.044
357.636
358.202
358.712
359.134
359.436
359.594
359.594
359.436
359.134
358.712
358.202
357.636
357.044
356.456
355.902
355.46
348.123
348.497
348.975
349.484
349.996
350.487
350.928
351.294
351.555
351.692
351.692
351.555
351.294
350.928
350.487
349.996
349.484
348.975
348.497
348.123
340.763
341.073
341.475
341.906
342.339
342.754
343.127
343.436
343.657
343.773
343.773
343.657
343.436
343.127
342.754
342.339
341.906
341.475
341.073
340.763
333.383
333.633
333.961
334.313
334.667
335.006
335.312
335.564
335.745
335.839
335.839
335.745
335.564
335.312
335.006
334.667
334.313
333.961
333.633
333.383
325.988
326.179
326.434
326.708
326.983
327.247
327.484
327.681
327.821
327.894
327.894
327.821
327.681
327.484
327.247
326.983
326.708
326.434
326.179
325.988
318.58
318.716
318.897
319.093
319.29
319.478
319.648
319.788
319.888
319.941
319.941
319.888
319.788
319.648
319.478
319.29
319.093
318.897
318.716
318.58
311.164
311.245
311.354
311.471
311.59
311.703
311.805
311.889
311.949
311.98
311.98
311.949
311.889
311.805
311.703
311.59
311.471
311.354
311.245
311.164
303.743
303.77
303.806
303.846
303.885
303.923
303.957
303.986
304.006
304.016
304.016
304.006
303.986
303.957
303.923
303.885
303.846
303.806
303.77
303.743
357.081
357.496
358.014
358.562
359.11
359.631
360.099
360.484
360.76
360.903
360.903
360.76
360.484
360.099
359.631
359.11
358.562
358.014
357.496
357.081
349.527
349.879
350.326
350.8
351.275
351.726
352.132
352.465
352.704
352.828
352.828
352.704
352.465
352.132
351.726
351.275
350.8
350.326
349.879
349.527
341.951
342.243
342.619
343.02
343.422
343.804
344.146
344.428
344.63
344.735
344.735
344.63
344.428
344.146
343.804
343.422
343.02
342.619
342.243
341.951
334.355
334.59
334.897
335.225
335.553
335.866
336.146
336.377
336.542
336.627
336.627
336.542
336.377
336.146
335.866
335.553
335.225
334.897
334.59
334.355
326.744
326.924
327.162
327.417
327.673
327.916
328.134
328.313
328.441
328.508
328.508
328.441
328.313
328.134
327.916
327.673
327.417
327.162
326.924
326.744
319.121
319.248
319.418
319.6
319.783
319.956
320.112
320.24
320.332
320.379
320.379
320.332
320.24
320.112
319.956
319.783
319.6
319.418
319.248
319.121
311.489
311.565
311.667
311.776
311.886
311.99
312.083
312.16
312.215
312.244
312.244
312.215
312.16
312.083
311.99
311.886
311.776
311.667
311.565
311.489
303.852
303.877
303.911
303.948
303.985
304.02
304.051
304.077
304.095
304.105
304.105
304.095
304.077
304.051
304.02
303.985
303.948
303.911
303.877
303.852
358.894
359.282
359.764
360.272
360.776
361.254
361.681
362.031
362.28
362.41
362.41
362.28
362.031
361.681
361.254
360.776
360.272
359.764
359.282
358.894
351.098
351.427
351.843
352.283
352.72
353.134
353.503
353.807
354.022
354.135
354.135
354.022
353.807
353.503
353.134
352.72
352.283
351.843
351.427
351.098
343.28
343.553
343.903
344.275
344.645
344.995
345.308
345.564
345.747
345.842
345.842
345.747
345.564
345.308
344.995
344.645
344.275
343.903
343.553
343.28
335.443
335.662
335.948
336.252
336.555
336.841
337.097
337.307
337.456
337.534
337.534
337.456
337.307
337.097
336.841
336.555
336.252
335.948
335.662
335.443
327.59
327.759
327.98
328.217
328.452
328.675
328.874
329.037
329.153
329.213
329.213
329.153
329.037
328.874
328.675
328.452
328.217
327.98
327.759
327.59
319.725
319.845
320.003
320.171
320.34
320.499
320.641
320.757
320.84
320.884
320.884
320.84
320.757
320.641
320.499
320.34
320.171
320.003
319.845
319.725
311.852
311.923
312.018
312.119
312.22
312.316
312.401
312.471
312.521
312.547
312.547
312.521
312.471
312.401
312.316
312.22
312.119
312.018
311.923
311.852
303.974
303.997
304.029
304.063
304.097
304.129
304.158
304.181
304.198
304.206
304.206
304.198
304.181
304.158
304.129
304.097
304.063
304.029
303.997
303.974
360.9
361.262
361.709
362.177
362.64
363.076
363.463
363.779
364.004
364.121
364.121
364.004
363.779
363.463
363.076
362.64
362.177
361.709
361.262
360.9
352.838
353.144
353.529
353.935
354.336
354.714
355.049
355.323
355.518
355.619
355.619
355.518
355.323
355.049
354.714
354.336
353.935
353.529
353.144
352.838
344.752
345.006
345.331
345.674
346.013
346.333
346.617
346.848
347.013
347.099
347.099
347.013
346.848
346.617
346.333
346.013
345.674
345.331
345.006
344.752
336.647
336.852
337.117
337.397
337.675
337.936
338.168
338.358
338.493
338.563
338.563
338.493
338.358
338.168
337.936
337.675
337.397
337.117
336.852
336.647
328.527
328.684
328.889
329.107
329.323
329.527
329.708
329.855
329.96
330.014
330.014
329.96
329.855
329.708
329.527
329.323
329.107
328.889
328.684
328.527
320.395
320.506
320.652
320.808
320.962
321.108
321.237
321.342
321.417
321.456
321.456
321.417
321.342
321.237
321.108
320.962
320.808
320.652
320.506
320.395
312.254
312.32
312.408
312.502
312.594
312.682
312.759
312.823
312.868
312.891
312.891
312.868
312.823
312.759
312.682
312.594
312.502
312.408
312.32
312.254
304.108
304.13
304.16
304.191
304.222
304.252
304.278
304.299
304.314
304.322
304.322
304.314
304.299
304.278
304.252
304.222
304.191
304.16
304.13
304.108
363.103
363.439
363.851
364.281
364.704
365.1
365.45
365.735
365.937
366.042
366.042
365.937
365.735
365.45
365.1
364.704
364.281
363.851
363.439
363.103
354.747
355.031
355.387
355.759
356.125
356.469
356.772
357.019
357.194
357.285
357.285
357.194
357.019
356.772
356.469
356.125
355.759
355.387
355.031
354.747
346.367
346.603
346.903
347.218
347.528
347.819
348.075
348.284
348.432
348.509
348.509
348.432
348.284
348.075
347.819
347.528
347.218
346.903
346.603
346.367
337.969
338.159
338.403
338.661
338.915
339.152
339.363
339.533
339.654
339.717
339.717
339.654
339.533
339.363
339.152
338.915
338.661
338.403
338.159
337.969
329.555
329.701
329.891
330.091
330.288
330.473
330.637
330.77
330.864
330.913
330.913
330.864
330.77
330.637
330.473
330.288
330.091
329.891
329.701
329.555
321.13
321.232
321.368
321.511
321.652
321.784
321.901
321.996
322.063
322.098
322.098
322.063
321.996
321.901
321.784
321.652
321.511
321.368
321.232
321.13
312.695
312.757
312.838
312.924
313.009
313.088
313.158
313.215
313.256
313.277
313.277
313.256
313.215
313.158
313.088
313.009
312.924
312.838
312.757
312.695
304.256
304.277
304.304
304.333
304.361
304.388
304.411
304.43
304.444
304.451
304.451
304.444
304.43
304.411
304.388
304.361
304.333
304.304
304.277
304.256
365.502
365.812
366.192
366.586
366.97
367.329
367.645
367.901
368.081
368.175
368.175
368.081
367.901
367.645
367.329
366.97
366.586
366.192
365.812
365.502
356.825
357.088
357.415
357.756
358.09
358.401
358.675
358.897
359.053
359.134
359.134
359.053
358.897
358.675
358.401
358.09
357.756
357.415
357.088
356.825
348.126
348.344
348.62
348.908
349.191
349.454
349.686
349.873
350.006
350.074
350.074
350.006
349.873
349.686
349.454
349.191
348.908
348.62
348.344
348.126
339.408
339.583
339.808
340.044
340.275
340.491
340.68
340.834
340.942
340.998
340.998
340.942
340.834
340.68
340.491
340.275
340.044
339.808
339.583
339.408
330.674
330.809
330.984
331.167
331.347
331.515
331.662
331.782
331.866
331.909
331.909
331.866
331.782
331.662
331.515
331.347
331.167
330.984
330.809
330.674
321.929
322.024
322.149
322.28
322.409
322.528
322.634
322.719
322.779
322.811
322.811
322.779
322.719
322.634
322.528
322.409
322.28
322.149
322.024
321.929
313.176
313.233
313.307
313.386
313.463
313.535
313.598
313.65
313.686
313.705
313.705
313.686
313.65
313.598
313.535
313.463
313.386
313.307
313.233
313.176
304.417
304.436
304.461
304.488
304.513
304.538
304.559
304.576
304.588
304.594
304.594
304.588
304.576
304.559
304.538
304.513
304.488
304.461
304.436
304.417
368.093
368.379
368.728
369.087
369.437
369.761
370.045
370.274
370.436
370.519
370.519
370.436
370.274
370.045
369.761
369.437
369.087
368.728
368.379
368.093
359.07
359.312
359.613
359.924
360.227
360.509
360.755
360.954
361.093
361.166
361.166
361.093
360.954
360.755
360.509
360.227
359.924
359.613
359.312
359.07
350.024
350.225
350.479
350.742
350.999
351.237
351.445
351.614
351.732
351.793
351.793
351.732
351.614
351.445
351.237
350.999
350.742
350.479
350.225
350.024
340.961
341.122
341.329
341.545
341.755
341.95
342.12
342.258
342.355
342.405
342.405
342.355
342.258
342.12
341.95
341.755
341.545
341.329
341.122
340.961
331.882
332.006
332.167
332.334
332.498
332.649
332.782
332.889
332.965
333.003
333.003
332.965
332.889
332.782
332.649
332.498
332.334
332.167
332.006
331.882
322.792
322.88
322.994
323.114
323.231
323.339
323.434
323.511
323.564
323.592
323.592
323.564
323.511
323.434
323.339
323.231
323.114
322.994
322.88
322.792
313.694
313.746
313.815
313.887
313.957
314.022
314.079
314.125
314.157
314.174
314.174
314.157
314.125
314.079
314.022
313.957
313.887
313.815
313.746
313.694
304.591
304.608
304.631
304.656
304.679
304.701
304.72
304.735
304.746
304.752
304.752
304.746
304.735
304.72
304.701
304.679
304.656
304.631
304.608
304.591
370.865
371.129
371.448
371.776
372.093
372.386
372.641
372.846
372.99
373.064
373.064
372.99
372.846
372.641
372.386
372.093
371.776
371.448
371.129
370.865
361.47
361.693
361.968
362.252
362.527
362.781
363.002
363.18
363.305
363.369
363.369
363.305
363.18
363.002
362.781
362.527
362.252
361.968
361.693
361.47
352.053
352.238
352.47
352.711
352.943
353.158
353.346
353.496
353.602
353.656
353.656
353.602
353.496
353.346
353.158
352.943
352.711
352.47
352.238
352.053
342.619
342.768
342.957
343.154
343.344
343.52
343.674
343.797
343.884
343.928
343.928
343.884
343.797
343.674
343.52
343.344
343.154
342.957
342.768
342.619
333.171
333.285
333.432
333.585
333.734
333.871
333.99
334.086
334.153
334.188
334.188
334.153
334.086
333.99
333.871
333.734
333.585
333.432
333.285
333.171
323.713
323.793
323.898
324.008
324.114
324.211
324.297
324.365
324.413
324.438
324.438
324.413
324.365
324.297
324.211
324.114
324.008
323.898
323.793
323.713
314.247
314.295
314.358
314.423
314.487
314.546
314.597
314.638
314.667
314.682
314.682
314.667
314.638
314.597
314.546
314.487
314.423
314.358
314.295
314.247
304.776
304.792
304.813
304.835
304.857
304.876
304.894
304.907
304.917
304.922
304.922
304.917
304.907
304.894
304.876
304.857
304.835
304.813
304.792
304.776
373.79
374.032
374.325
374.623
374.911
375.175
375.404
375.587
375.716
375.782
375.782
375.716
375.587
375.404
375.175
374.911
374.623
374.325
374.032
373.79
363.997
364.202
364.454
364.713
364.962
365.191
365.39
365.549
365.66
365.718
365.718
365.66
365.549
365.39
365.191
364.962
364.713
364.454
364.202
363.997
354.185
354.355
354.568
354.787
354.998
355.192
355.361
355.495
355.59
355.638
355.638
355.59
355.495
355.361
355.192
354.998
354.787
354.568
354.355
354.185
344.36
344.496
344.67
344.849
345.022
345.181
345.319
345.429
345.506
345.546
345.546
345.506
345.429
345.319
345.181
345.022
344.849
344.67
344.496
344.36
334.523
334.628
334.762
334.902
335.036
335.16
335.267
335.353
335.413
335.444
335.444
335.413
335.353
335.267
335.16
335.036
334.902
334.762
334.628
334.523
324.677
324.751
324.847
324.947
325.043
325.131
325.208
325.27
325.313
325.335
325.335
325.313
325.27
325.208
325.131
325.043
324.947
324.847
324.751
324.677
314.825
314.87
314.927
314.987
315.045
315.098
315.144
315.181
315.207
315.22
315.22
315.207
315.181
315.144
315.098
315.045
314.987
314.927
314.87
314.825
304.97
304.985
305.004
305.024
305.044
305.061
305.077
305.089
305.098
305.102
305.102
305.098
305.089
305.077
305.061
305.044
305.024
305.004
304.985
304.97
376.79
377.013
377.281
377.553
377.814
378.053
378.259
378.424
378.539
378.598
378.598
378.539
378.424
378.259
378.053
377.814
377.553
377.281
377.013
376.79
366.577
366.766
366.997
367.233
367.46
367.667
367.846
367.989
368.089
368.14
368.14
368.089
367.989
367.846
367.667
367.46
367.233
366.997
366.766
366.577
356.354
356.51
356.705
356.905
357.097
357.273
357.425
357.546
357.63
357.674
357.674
357.63
357.546
357.425
357.273
357.097
356.905
356.705
356.51
356.354
346.123
346.249
346.409
346.572
346.729
346.873
346.998
347.097
347.166
347.202
347.202
347.166
347.097
346.998
346.873
346.729
346.572
346.409
346.249
346.123
335.888
335.984
336.108
336.235
336.358
336.47
336.567
336.644
336.698
336.726
336.726
336.698
336.644
336.567
336.47
336.358
336.235
336.108
335.984
335.888
325.649
325.717
325.805
325.896
325.984
326.064
326.133
326.189
326.227
326.247
326.247
326.227
326.189
326.133
326.064
325.984
325.896
325.805
325.717
325.649
315.407
315.448
315.501
315.556
315.608
315.657
315.698
315.731
315.755
315.767
315.767
315.755
315.731
315.698
315.657
315.608
315.556
315.501
315.448
315.407
305.165
305.179
305.196
305.215
305.232
305.248
305.262
305.273
305.281
305.285
305.285
305.281
305.273
305.262
305.248
305.232
305.215
305.196
305.179
305.165
379.672
379.878
380.125
380.376
380.614
380.832
381.019
381.168
381.272
381.325
381.325
381.272
381.168
381.019
380.832
380.614
380.376
380.125
379.878
379.672
369.026
369.2
369.414
369.631
369.839
370.028
370.191
370.32
370.411
370.457
370.457
370.411
370.32
370.191
370.028
369.839
369.631
369.414
369.2
369.026
358.39
358.534
358.715
358.899
359.075
359.236
359.374
359.484
359.56
359.6
359.6
359.56
359.484
359.374
359.236
359.075
358.899
358.715
358.534
358.39
347.764
347.881
348.028
348.179
348.323
348.455
348.568
348.659
348.721
348.754
348.754
348.721
348.659
348.568
348.455
348.323
348.179
348.028
347.881
347.764
337.148
337.238
337.352
337.47
337.583
337.685
337.773
337.844
337.893
337.918
337.918
337.893
337.844
337.773
337.685
337.583
337.47
337.352
337.238
337.148
326.541
326.605
326.686
326.77
326.851
326.924
326.987
327.038
327.073
327.091
327.091
327.073
327.038
326.987
326.924
326.851
326.77
326.686
326.605
326.541
315.94
315.978
316.027
316.077
316.126
316.17
316.208
316.238
316.259
316.27
316.27
316.259
316.238
316.208
316.17
316.126
316.077
316.027
315.978
315.94
305.343
305.356
305.372
305.389
305.405
305.42
305.433
305.443
305.45
305.453
305.453
305.45
305.443
305.433
305.42
305.405
305.389
305.372
305.356
305.343
381.929
382.123
382.355
382.59
382.813
383.016
383.191
383.329
383.425
383.475
383.475
383.425
383.329
383.191
383.016
382.813
382.59
382.355
382.123
381.929
370.871
371.035
371.237
371.441
371.636
371.813
371.965
372.086
372.17
372.213
372.213
372.17
372.086
371.965
371.813
371.636
371.441
371.237
371.035
370.871
359.876
360.013
360.184
360.357
360.523
360.674
360.803
360.906
360.977
361.014
361.014
360.977
360.906
360.803
360.674
360.523
360.357
360.184
360.013
359.876
348.933
349.043
349.183
349.326
349.462
349.585
349.692
349.776
349.835
349.865
349.865
349.835
349.776
349.692
349.585
349.462
349.326
349.183
349.043
348.933
338.03
338.115
338.223
338.334
338.441
338.537
338.62
338.686
338.732
338.756
338.756
338.732
338.686
338.62
338.537
338.441
338.334
338.223
338.115
338.03
327.156
327.217
327.294
327.374
327.45
327.519
327.579
327.626
327.659
327.676
327.676
327.659
327.626
327.579
327.519
327.45
327.374
327.294
327.217
327.156
316.304
316.34
316.386
316.434
316.48
316.522
316.558
316.586
316.606
316.616
316.616
316.606
316.586
316.558
316.522
316.48
316.434
316.386
316.34
316.304
305.464
305.476
305.492
305.508
305.523
305.537
305.549
305.558
305.565
305.569
305.569
305.565
305.558
305.549
305.537
305.523
305.508
305.492
305.476
305.464
)
;

boundaryField
{
    hotSide
    {
        type            fixedGradient;
        gradient        nonuniform List<scalar> 
400
(
516.9
518.754
522.47
528.058
535.535
544.925
556.25
569.538
584.817
602.114
621.457
642.871
666.379
692.001
719.757
749.662
781.729
815.969
852.39
890.998
524.522
526.316
529.913
535.328
542.585
551.712
562.742
575.708
590.648
607.597
626.588
647.652
670.818
696.11
723.549
753.154
784.939
818.914
855.089
893.47
532.77
534.493
537.948
543.159
550.154
558.973
569.656
582.25
596.799
613.348
631.939
652.61
675.395
700.321
727.414
756.693
788.173
821.866
857.781
895.923
541.509
543.147
546.439
551.412
558.106
566.57
576.859
589.03
603.14
619.245
637.394
657.635
680.005
704.538
731.261
760.195
791.356
824.756
860.402
898.299
550.493
552.038
555.145
559.852
566.21
574.282
584.136
595.845
609.48
625.106
642.785
662.571
684.507
708.632
734.975
763.557
794.396
827.501
862.88
900.535
559.349
560.792
563.703
568.127
574.129
581.787
591.186
602.414
615.557
630.694
647.896
667.223
688.727
712.448
738.417
766.657
797.184
830.007
865.131
902.557
567.569
568.911
571.625
575.768
581.417
588.668
597.622
608.384
621.053
635.721
652.469
671.364
692.464
715.81
741.435
769.362
799.605
832.173
867.069
904.291
574.545
575.797
578.334
582.223
587.558
594.446
603.005
613.356
625.61
639.871
656.227
674.753
695.507
718.536
743.872
771.537
801.546
833.903
868.612
905.667
579.651
580.832
583.234
586.931
592.025
598.638
606.9
616.941
628.886
642.843
658.909
677.163
697.665
720.462
745.588
773.065
802.904
835.111
869.686
906.623
582.356
583.5
585.828
589.42
594.383
600.847
608.948
618.823
630.601
644.396
660.308
678.416
698.785
721.46
746.476
773.853
803.604
835.732
870.237
907.113
582.356
583.5
585.828
589.42
594.383
600.847
608.948
618.823
630.601
644.396
660.308
678.416
698.785
721.46
746.476
773.853
803.604
835.732
870.237
907.113
579.651
580.832
583.234
586.931
592.025
598.638
606.9
616.941
628.886
642.843
658.909
677.163
697.665
720.462
745.588
773.065
802.904
835.111
869.686
906.623
574.545
575.797
578.334
582.223
587.558
594.446
603.005
613.356
625.61
639.871
656.227
674.753
695.507
718.536
743.872
771.537
801.546
833.903
868.612
905.667
567.569
568.911
571.625
575.768
581.417
588.668
597.622
608.384
621.053
635.721
652.469
671.364
692.464
715.81
741.435
769.362
799.605
832.173
867.069
904.291
559.349
560.792
563.703
568.127
574.129
581.787
591.186
602.414
615.557
630.694
647.896
667.223
688.727
712.448
738.417
766.657
797.184
830.007
865.131
902.557
550.493
552.038
555.145
559.852
566.21
574.282
584.136
595.845
609.48
625.106
642.785
662.571
684.507
708.632
734.975
763.557
794.396
827.501
862.88
900.535
541.509
543.147
546.439
551.412
558.106
566.57
576.859
589.03
603.14
619.245
637.394
657.635
680.005
704.538
731.261
760.195
791.356
824.756
860.402
898.299
532.77
534.493
537.948
543.159
550.154
558.973
569.656
582.25
596.799
613.348
631.939
652.61
675.395
700.321
727.414
756.693
788.173
821.866
857.781
895.923
524.522
526.316
529.913
535.328
542.585
551.712
562.742
575.708
590.648
607.597
626.588
647.652
670.818
696.11
723.549
753.154
784.939
818.914
855.089
893.47
516.9
518.754
522.47
528.058
535.535
544.925
556.25
569.538
584.817
602.114
621.457
642.871
666.379
692.001
719.757
749.662
781.729
815.969
852.39
890.998
)
;
    }
    coldSide
    {
        type            mixed;
        refValue        uniform 300;
        refGradient     uniform 0;
        valueFraction   uniform 0.991591;
        source          uniform 0;
        value           nonuniform List<scalar> 
400
(
300.028
300.028
300.028
300.028
300.029
300.029
300.03
300.031
300.031
300.032
300.033
300.035
300.036
300.037
300.039
300.04
300.042
300.043
300.045
300.046
300.028
300.028
300.028
300.029
300.029
300.03
300.03
300.031
300.032
300.033
300.034