/*--------------------------------*- C++ -*----------------------------------*\
| =========                 |                                                 |
| \\      /  F ield         | OpenFOAM: The Open Source CFD Toolbox           |
|  \\    /   O peration     | Version:  2212                                  |
|   \\  /    A nd           | Website:  www.openfoam.com                      |
|    \\/     M anipulation  |                                                 |
\*---------------------------------------------------------------------------*/
FoamFile
{
    version     2.0;
    format      ascii;
    arch        "LSB;label=32;scalar=64";
    class       volScalarField;
    location    "0";
    object      Tdirect;
}
// * * * * * * * * * * * * * * * * * * * * * * * * * * * * * * * * * * * * * //

dimensions      [0 0 0 1 0 0 0];

internalField   nonuniform List<scalar> 
3200
(
342.232
342.505
342.855
343.236
343.628
344.013
344.368
344.668
344.886
345.002
345.002
344.886
344.668
344.368
344.013
343.628
343.236
342.855
342.505
342.232
336.531
336.762
337.064
337.393
337.732
338.065
338.373
338.632
338.82
338.92
338.92
338.82
338.632
338.373
338.065
337.732
337.393
337.064
336.762
336.531
330.861
331.053
331.307
331.585
331.872
332.153
332.412
332.631
332.79
332.874
332.874
332.79
332.631
332.412
332.153
331.872
331.585
331.307
331.053
330.861
325.217
325.372
325.579
325.806
326.041
326.27
326.482
326.661
326.791
326.859
326.859
326.791
326.661
326.482
326.27
326.041
325.806
325.579
325.372
325.217
319.595
319.714
319.875
320.052
320.234
320.412
320.577
320.716
320.816
320.87
320.87
320.816
320.716
320.577
320.412
320.234
320.052
319.875
319.714
319.595
313.991
314.075
314.19
314.316
314.446
314.573
314.691
314.79
314.862
314.9
314.9
314.862
314.79
314.691
314.573
314.446
314.316
314.19
314.075
313.991
308.399
308.449
308.518
308.594
308.672
308.748
308.819
308.878
308.921
308.944
308.944
308.921
308.878
308.819
308.748
308.672
308.594
308.518
308.449
308.399
302.815
302.831
302.854
302.88
302.906
302.932
302.955
302.975
302.99
302.997
302.997
302.99
302.975
302.955
302.932
302.906
302.88
302.854
302.831
302.815
342.405
342.676
343.022
343.4
343.788
344.168
344.52
344.816
345.031
345.145
345.145
345.031
344.816
344.52
344.168
343.788
343.4
343.022
342.676
342.405
336.68
336.91
337.209
337.535
337.871
338.2
338.504
338.76
338.946
339.044
339.044
338.946
338.76
338.504
338.2
337.871
337.535
337.209
336.91
336.68
330.987
331.177
331.429
331.705
331.989
332.267
332.523
332.739
332.896
332.979
332.979
332.896
332.739
332.523
332.267
331.989
331.705
331.429
331.177
330.987
325.32
325.473
325.679
325.904
326.136
326.363
326.573
326.749
326.877
326.945
326.945
326.877
326.749
326.573
326.363
326.136
325.904
325.679
325.473
325.32
319.675
319.793
319.952
320.127
320.308
320.484
320.647
320.784
320.884
320.936
320.936
320.884
320.784
320.647
320.484
320.308
320.127
319.952
319.793
319.675
314.048
314.131
314.245
314.37
314.499
314.625
314.741
314.839
314.91
314.947
314.947
314.91
314.839
314.741
314.625
314.499
314.37
314.245
314.131
314.048
308.433
308.483
308.551
308.626
308.704
308.779
308.849
308.908
308.95
308.973
308.973
308.95
308.908
308.849
308.779
308.704
308.626
308.551
308.483
308.433
302.826
302.843
302.866
302.891
302.917
302.942
302.965
302.985
302.999
303.007
303.007
302.999
302.985
302.965
302.942
302.917
302.891
302.866
302.843
302.826
342.751
343.018
343.358
343.728
344.109
344.481
344.824
345.113
345.323
345.434
345.434
345.323
345.113
344.824
344.481
344.109
343.728
343.358
343.018
342.751
336.979
337.205
337.499
337.819
338.148
338.47
338.767
339.017
339.198
339.294
339.294
339.198
339.017
338.767
338.47
338.148
337.819
337.499
337.205
336.979
331.239
331.426
331.674
331.944
332.223
332.495
332.745
332.956
333.109
333.19
333.19
333.109
332.956
332.745
332.495
332.223
331.944
331.674
331.426
331.239
325.526
325.677
325.878
326.1
326.327
326.549
326.754
326.926
327.051
327.117
327.117
327.051
326.926
326.754
326.549
326.327
326.1
325.878
325.677
325.526
319.835
319.951
320.107
320.279
320.456
320.629
320.788
320.922
321.019
321.07
321.07
321.019
320.922
320.788
320.629
320.456
320.279
320.107
319.951
319.835
314.162
314.244
314.356
314.478
314.605
314.728
314.842
314.937
315.006
315.043
315.043
315.006
314.937
314.842
314.728
314.605
314.478
314.356
314.244
314.162
308.502
308.551
308.618
308.691
308.767
308.841
308.909
308.967
309.008
309.03
309.03
309.008
308.967
308.909
308.841
308.767
308.691
308.618
308.551
308.502
302.849
302.865
302.888
302.912
302.938
302.963
302.986
303.005
303.019
303.026
303.026
303.019
303.005
302.986
302.963
302.938
302.912
302.888
302.865
302.849
343.27
343.531
343.863
344.223
344.592
344.953
345.284
345.563
345.765
345.872
345.872
345.765
345.563
345.284
344.953
344.592
344.223
343.863
343.531
343.27
337.428
337.649
337.935
338.246
338.566
338.878
339.164
339.405
339.58
339.672
339.672
339.58
339.405
339.164
338.878
338.566
338.246
337.935
337.649
337.428
331.617
331.801
332.042
332.305
332.575
332.839
333.081
333.284
333.431
333.509
333.509
333.431
333.284
333.081
332.839
332.575
332.305
332.042
331.801
331.617
325.835
325.982
326.179
326.394
326.615
326.83
327.028
327.194
327.314
327.378
327.378
327.314
327.194
327.028
326.83
326.615
326.394
326.179
325.982
325.835
320.075
320.188
320.341
320.508
320.68
320.847
321.001
321.13
321.223
321.272
321.272
321.223
321.13
321.001
320.847
320.68
320.508
320.341
320.188
320.075
314.333
314.413
314.522
314.642
314.764
314.884
314.993
315.085
315.152
315.187
315.187
315.152
315.085
314.993
314.884
314.764
314.642
314.522
314.413
314.333
308.604
308.652
308.718
308.789
308.863
308.935
309
309.056
309.096
309.117
309.117
309.096
309.056
309
308.935
308.863
308.789
308.718
308.652
308.604
302.883
302.899
302.921
302.945
302.97
302.994
303.016
303.035
303.048
303.055
303.055
303.048
303.035
303.016
302.994
302.97
302.945
302.921
302.899
302.883
343.964
344.217
344.538
344.886
345.24
345.586
345.903
346.168
346.361
346.462
346.462
346.361
346.168
345.903
345.586
345.24
344.886
344.538
344.217
343.964
338.027
338.241
338.518
338.819
339.126
339.425
339.699
339.928
340.095
340.182
340.182
340.095
339.928
339.699
339.425
339.126
338.819
338.518
338.241
338.027
332.123
332.301
332.534
332.788
333.048
333.3
333.532
333.726
333.866
333.94
333.94
333.866
333.726
333.532
333.3
333.048
332.788
332.534
332.301
332.123
326.248
326.391
326.581
326.788
327.001
327.207
327.396
327.555
327.669
327.729
327.729
327.669
327.555
327.396
327.207
327.001
326.788
326.581
326.391
326.248
320.396
320.505
320.653
320.814
320.979
321.14
321.287
321.41
321.499
321.546
321.546
321.499
321.41
321.287
321.14
320.979
320.814
320.653
320.505
320.396
314.562
314.64
314.745
314.86
314.978
315.093
315.197
315.285
315.349
315.382
315.382
315.349
315.285
315.197
315.093
314.978
314.86
314.745
314.64
314.562
308.742
308.788
308.851
308.92
308.991
309.06
309.123
309.176
309.214
309.234
309.234
309.214
309.176
309.123
309.06
308.991
308.92
308.851
308.788
308.742
302.929
302.945
302.966
302.989
303.013
303.036
303.057
303.075
303.088
303.094
303.094
303.088
303.075
303.057
303.036
303.013
302.989
302.966
302.945
302.929
344.834
345.078
345.386
345.718
346.056
346.384
346.683
346.934
347.115
347.21
347.21
347.115
346.934
346.683
346.384
346.056
345.718
345.386
345.078
344.834
338.778
338.984
339.25
339.538
339.83
340.114
340.373
340.59
340.747
340.829
340.829
340.747
340.59
340.373
340.114
339.83
339.538
339.25
338.984
338.778
332.757
332.928
333.152
333.395
333.642
333.882
334.101
334.284
334.416
334.486
334.486
334.416
334.284
334.101
333.882
333.642
333.395
333.152
332.928
332.757
326.765
326.903
327.085
327.284
327.486
327.682
327.861
328.011
328.119
328.175
328.175
328.119
328.011
327.861
327.682
327.486
327.284
327.085
326.903
326.765
320.797
320.903
321.044
321.199
321.356
321.509
321.648
321.764
321.848
321.892
321.892
321.848
321.764
321.648
321.509
321.356
321.199
321.044
320.903
320.797
314.849
314.923
315.024
315.135
315.247
315.356
315.455
315.538
315.598
315.629
315.629
315.598
315.538
315.455
315.356
315.247
315.135
315.024
314.923
314.849
308.914
308.958
309.019
309.085
309.152
309.218
309.278
309.327
309.363
309.382
309.382
309.363
309.327
309.278
309.218
309.152
309.085
309.019
308.958
308.914
302.987
303.002
303.022
303.044
303.067
303.089
303.109
303.126
303.138
303.144
303.144
303.138
303.126
303.109
303.089
303.067
303.044
303.022
303.002
302.987
345.88
346.113
346.407
346.722
347.041
347.35
347.631
347.865
348.034
348.123
348.123
348.034
347.865
347.631
347.35
347.041
346.722
346.407
346.113
345.88
339.682
339.879
340.132
340.405
340.682
340.949
341.192
341.395
341.541
341.617
341.617
341.541
341.395
341.192
340.949
340.682
340.405
340.132
339.879
339.682
333.519
333.683
333.896
334.127
334.361
334.587
334.792
334.963
335.086
335.151
335.151
335.086
334.963
334.792
334.587
334.361
334.127
333.896
333.683
333.519
327.387
327.519
327.693
327.881
328.073
328.257
328.425
328.565
328.666
328.719
328.719
328.666
328.565
328.425
328.257
328.073
327.881
327.693
327.519
327.387
321.28
321.381
321.516
321.663
321.812
321.955
322.086
322.194
322.273
322.314
322.314
322.273
322.194
322.086
321.955
321.812
321.663
321.516
321.381
321.28
315.193
315.265
315.361
315.466
315.572
315.675
315.768
315.845
315.901
315.931
315.931
315.901
315.845
315.768
315.675
315.572
315.466
315.361
315.265
315.193
309.121
309.163
309.221
309.284
309.348
309.409
309.465
309.512
309.545
309.563
309.563
309.545
309.512
309.465
309.409
309.348
309.284
309.221
309.163
309.121
303.056
303.071
303.09
303.111
303.132
303.153
303.172
303.187
303.199
303.205
303.205
303.199
303.187
303.172
303.153
303.132
303.111
303.09
303.071
303.056
347.105
347.326
347.604
347.901
348.2
348.489
348.75
348.967
349.123
349.204
349.204
349.123
348.967
348.75
348.489
348.2
347.901
347.604
347.326
347.105
340.74
340.927
341.166
341.423
341.683
341.933
342.159
342.346
342.481
342.552
342.552
342.481
342.346
342.159
341.933
341.683
341.423
341.166
340.927
340.74
334.412
334.567
334.769
334.986
335.206
335.417
335.608
335.766
335.88
335.94
335.94
335.88
335.766
335.608
335.417
335.206
334.986
334.769
334.567
334.412
328.116
328.241
328.405
328.583
328.762
328.935
329.091
329.221
329.314
329.363
329.363
329.314
329.221
329.091
328.935
328.762
328.583
328.405
328.241
328.116
321.846
321.942
322.07
322.208
322.347
322.482
322.603
322.704
322.776
322.814
322.814
322.776
322.704
322.603
322.482
322.347
322.208
322.07
321.942
321.846
315.597
315.665
315.756
315.854
315.954
316.05
316.137
316.209
316.26
316.288
316.288
316.26
316.209
316.137
316.05
315.954
315.854
315.756
315.665
315.597
309.363
309.403
309.458
309.517
309.577
309.635
309.687
309.73
309.761
309.777
309.777
309.761
309.73
309.687
309.635
309.577
309.517
309.458
309.403
309.363
303.137
303.151
303.169
303.189
303.209
303.229
303.246
303.26
303.271
303.276
303.276
303.271
303.26
303.246
303.229
303.209
303.189
303.169
303.151
303.137
348.508
348.717
348.978
349.256
349.536
349.803
350.044
350.243
350.386
350.461
350.461
350.386
350.243
350.044
349.803
349.536
349.256
348.978
348.717
348.508
341.952
342.129
342.354
342.595
342.837
343.068
343.277
343.449
343.573
343.638
343.638
343.573
343.449
343.277
343.068
342.837
342.595
342.354
342.129
341.952
335.434
335.581
335.771
335.975
336.179
336.375
336.552
336.697
336.802
336.856
336.856
336.802
336.697
336.552
336.375
336.179
335.975
335.771
335.581
335.434
328.95
329.068
329.223
329.39
329.557
329.717
329.862
329.981
330.066
330.111
330.111
330.066
329.981
329.862
329.717
329.557
329.39
329.223
329.068
328.95
322.494
322.585
322.705
322.834
322.964
323.089
323.201
323.294
323.36
323.395
323.395
323.36
323.294
323.201
323.089
322.964
322.834
322.705
322.585
322.494
316.059
316.124
316.209
316.302
316.395
316.484
316.564
316.63
316.677
316.702
316.702
316.677
316.63
316.564
316.484
316.395
316.302
316.209
316.124
316.059
309.64
309.679
309.73
309.785
309.841
309.895
309.943
309.983
310.011
310.026
310.026
310.011
309.983
309.943
309.895
309.841
309.785
309.73
309.679
309.64
303.23
303.243
303.26
303.279
303.298
303.316
303.332
303.345
303.355
303.36
303.36
303.355
303.345
303.332
303.316
303.298
303.279
303.26
303.243
303.23
350.092
350.288
350.533
350.792
351.05
351.297
351.518
351.7
351.83
351.898
351.898
351.83
351.7
351.518
351.297
351.05
350.792
350.533
350.288
350.092
343.32
343.486
343.697
343.921
344.145
344.359
344.55
344.708
344.82
344.879
344.879
344.82
344.708
344.55
344.359
344.145
343.921
343.697
343.486
343.32
336.589
336.726
336.904
337.094
337.283
337.464
337.626
337.759
337.854
337.904
337.904
337.854
337.759
337.626
337.464
337.283
337.094
336.904
336.726
336.589
329.893
330.004
330.149
330.304
330.459
330.606
330.739
330.848
330.926
330.966
330.966
330.926
330.848
330.739
330.606
330.459
330.304
330.149
330.004
329.893
323.226
323.311
323.423
323.544
323.664
323.779
323.882
323.967
324.028
324.059
324.059
324.028
323.967
323.882
323.779
323.664
323.544
323.423
323.311
323.226
316.582
316.642
316.722
316.808
316.894
316.976
317.05
317.11
317.154
317.176
317.176
317.154
317.11
317.05
316.976
316.894
316.808
316.722
316.642
316.582
309.954
309.99
310.038
310.089
310.141
310.19
310.234
310.271
310.297
310.31
310.31
310.297
310.271
310.234
310.19
310.141
310.089
310.038
309.99
309.954
303.335
303.347
303.364
303.381
303.398
303.415
303.43
303.442
303.45
303.455
303.455
303.45
303.442
303.43
303.415
303.398
303.381
303.364
303.347
303.335
351.857
352.041
352.269
352.508
352.747
352.972
353.174
353.339
353.457
353.518
353.518
353.457
353.339
353.174
352.972
352.747
352.508
352.269
352.041
351.857
344.845
345
345.197
345.404
345.611
345.806
345.981
346.124
346.226
346.279
346.279
346.226
346.124
345.981
345.806
345.611
345.404
345.197
345
344.845
337.875
338.004
338.17
338.345
338.52
338.686
338.833
338.954
339.041
339.086
339.086
339.041
338.954
338.833
338.686
338.52
338.345
338.17
338.004
337.875
330.943
331.047
331.182
331.325
331.468
331.604
331.725
331.824
331.894
331.931
331.931
331.894
331.824
331.725
331.604
331.468
331.325
331.182
331.047
330.943
324.041
324.121
324.226
324.337
324.448
324.554
324.648
324.725
324.78
324.808
324.808
324.78
324.725
324.648
324.554
324.448
324.337
324.226
324.121
324.041
317.163
317.22
317.294
317.374
317.454
317.529
317.596
317.651
317.69
317.711
317.711
317.69
317.651
317.596
317.529
317.454
317.374
317.294
317.22
317.163
310.303
310.336
310.381
310.429
310.477
310.522
310.562
310.595
310.619
310.631
310.631
310.619
310.595
310.562
310.522
310.477
310.429
310.381
310.336
310.303
303.452
303.464
303.479
303.495
303.511
303.526
303.539
303.55
303.558
303.562
303.562
303.558
303.55
303.539
303.526
303.511
303.495
303.479
303.464
303.452
353.805
353.976
354.187
354.408
354.627
354.833
355.016
355.165
355.271
355.326
355.326
355.271
355.165
355.016
354.833
354.627
354.408
354.187
353.976
353.805
346.527
346.672
346.854
347.046
347.235
347.414
347.572
347.702
347.793
347.841
347.841
347.793
347.702
347.572
347.414
347.235
347.046
346.854
346.672
346.527
339.295
339.415
339.569
339.731
339.891
340.042
340.176
340.286
340.363
340.404
340.404
340.363
340.286
340.176
340.042
339.891
339.731
339.569
339.415
339.295
332.102
332.199
332.324
332.456
332.587
332.711
332.821
332.91
332.974
333.007
333.007
332.974
332.91
332.821
332.711
332.587
332.456
332.324
332.199
332.102
324.941
325.015
325.112
325.215
325.317
325.414
325.499
325.569
325.618
325.644
325.644
325.618
325.569
325.499
325.414
325.317
325.215
325.112
325.015
324.941
317.806
317.858
317.927
318.001
318.074
318.142
318.203
318.253
318.289
318.307
318.307
318.289
318.253
318.203
318.142
318.074
318.001
317.927
317.858
317.806
310.688
310.719
310.761
310.805
310.849
310.89
310.927
310.957
310.978
310.989
310.989
310.978
310.957
310.927
310.89
310.849
310.805
310.761
310.719
310.688
303.582
303.592
303.606
303.621
303.635
303.649
303.662
303.672
303.679
303.682
303.682
303.679
303.672
303.662
303.649
303.635
303.621
303.606
303.592
303.582
355.936
356.095
356.29
356.493
356.692
356.879
357.045
357.179
357.275
357.324
357.324
357.275
357.179
357.045
356.879
356.692
356.493
356.29
356.095
355.936
348.368
348.502
348.67
348.846
349.019
349.182
349.325
349.442
349.524
349.567
349.567
349.524
349.442
349.325
349.182
349.019
348.846
348.67
348.502
348.368
340.848
340.96
341.101
341.25
341.396
341.534
341.655
341.754
341.824
341.86
341.86
341.824
341.754
341.655
341.534
341.396
341.25
341.101
340.96
340.848
333.37
333.459
333.575
333.697
333.816
333.929
334.028
334.109
334.166
334.196
334.196
334.166
334.109
334.028
333.929
333.816
333.697
333.575
333.459
333.37
325.926
325.994
326.084
326.179
326.272
326.359
326.436
326.499
326.544
326.567
326.567
326.544
326.499
326.436
326.359
326.272
326.179
326.084
325.994
325.926
318.508
318.557
318.621
318.688
318.755
318.817
318.872
318.917
318.949
318.966
318.966
318.949
318.917
318.872
318.817
318.755
318.688
318.621
318.557
318.508
311.11
311.139
311.177
311.218
311.258
311.295
311.328
311.355
311.374
311.384
311.384
311.374
311.355
311.328
311.295
311.258
311.218
311.177
311.139
311.11
303.723
303.732
303.745
303.759
303.772
303.785
303.796
303.805
303.811
303.815
303.815
303.811
303.805
303.796
303.785
303.772
303.759
303.745
303.732
303.723
358.249
358.396
358.575
358.761
358.943
359.112
359.262
359.382
359.468
359.512
359.512
359.468
359.382
359.262
359.112
358.943
358.761
358.575
358.396
358.249
350.366
350.49
350.645
350.806
350.963
351.11
351.24
351.344
351.418
351.456
351.456
351.418
351.344
351.24
351.11
350.963
350.806
350.645
350.49
350.366
342.534
342.637
342.767
342.903
343.037
343.161
343.271
343.359
343.422
343.454
343.454
343.422
343.359
343.271
343.161
343.037
342.903
342.767
342.637
342.534
334.746
334.828
334.935
335.046
335.155
335.257
335.347
335.419
335.47
335.497
335.497
335.47
335.419
335.347
335.257
335.155
335.046
334.935
334.828
334.746
326.994
327.057
327.14
327.226
327.311
327.391
327.46
327.517
327.556
327.577
327.577
327.556
327.517
327.46
327.391
327.311
327.226
327.14
327.057
326.994
319.27
319.315
319.374
319.436
319.496
319.553
319.603
319.643
319.672
319.686
319.686
319.672
319.643
319.603
319.553
319.496
319.436
319.374
319.315
319.27
311.567
311.594
311.629
311.666
311.703
311.737
311.767
311.791
311.808
311.817
311.817
311.808
311.791
311.767
311.737
311.703
311.666
311.629
311.594
311.567
303.876
303.885
303.897
303.909
303.921
303.933
303.943
303.951
303.957
303.96
303.96
303.957
303.951
303.943
303.933
303.921
303.909
303.897
303.885
303.876
360.741
360.876
361.041
361.21
361.376
361.529
361.663
361.771
361.847
361.887
361.887
361.847
361.771
361.663
361.529
361.376
361.21
361.041
360.876
360.741
352.517
352.632
352.774
352.921
353.064
353.197
353.313
353.407
353.473
353.507
353.507
353.473
353.407
353.313
353.197
353.064
352.921
352.774
352.632
352.517
344.348
344.443
344.563
344.687
344.809
344.921
345.02
345.099
345.155
345.184
345.184
345.155
345.099
345.02
344.921
344.809
344.687
344.563
344.443
344.348
336.226
336.303
336.4
336.502
336.601
336.693
336.774
336.839
336.885
336.908
336.908
336.885
336.839
336.774
336.693
336.601
336.502
336.4
336.303
336.226
328.143
328.202
328.277
328.357
328.434
328.505
328.568
328.619
328.654
328.673
328.673
328.654
328.619
328.568
328.505
328.434
328.357
328.277
328.202
328.143
320.09
320.132
320.186
320.242
320.297
320.348
320.393
320.429
320.455
320.468
320.468
320.455
320.429
320.393
320.348
320.297
320.242
320.186
320.132
320.09
312.059
312.084
312.116
312.15
312.183
312.214
312.241
312.263
312.278
312.286
312.286
312.278
312.263
312.241
312.214
312.183
312.15
312.116
312.084
312.059
304.041
304.049
304.06
304.071
304.082
304.093
304.102
304.109
304.114
304.117
304.117
304.114
304.109
304.102
304.093
304.082
304.071
304.06
304.049
304.041
363.401
363.525
363.676
363.831
363.981
364.119
364.239
364.336
364.404
364.439
364.439
364.404
364.336
364.239
364.119
363.981
363.831
363.676
363.525
363.401
354.812
354.917
355.048
355.182
355.312
355.432
355.536
355.62
355.679
355.709
355.709
355.679
355.62
355.536
355.432
355.312
355.182
355.048
354.917
354.812
346.283
346.37
346.48
346.593
346.703
346.805
346.893
346.964
347.014
347.04
347.04
347.014
346.964
346.893
346.805
346.703
346.593
346.48
346.37
346.283
337.804
337.874
337.964
338.057
338.147
338.23
338.302
338.36
338.401
338.422
338.422
338.401
338.36
338.302
338.23
338.147
338.057
337.964
337.874
337.804
329.367
329.421
329.49
329.563
329.633
329.697
329.754
329.799
329.831
329.847
329.847
329.831
329.799
329.754
329.697
329.633
329.563
329.49
329.421
329.367
320.963
321.001
321.051
321.102
321.152
321.199
321.239
321.271
321.294
321.306
321.306
321.294
321.271
321.239
321.199
321.152
321.102
321.051
321.001
320.963
312.582
312.605
312.635
312.666
312.696
312.724
312.748
312.767
312.781
312.788
312.788
312.781
312.767
312.748
312.724
312.696
312.666
312.635
312.605
312.582
304.216
304.224
304.234
304.244
304.254
304.264
304.272
304.278
304.283
304.285
304.285
304.283
304.278
304.272
304.264
304.254
304.244
304.234
304.224
304.216
366.201
366.316
366.454
366.595
366.731
366.855
366.964
367.05
367.111
367.142
367.142
367.111
367.05
366.964
366.855
366.731
366.595
366.454
366.316
366.201
357.224
357.321
357.44
357.563
357.68
357.789
357.883
357.958
358.01
358.038
358.038
358.01
357.958
357.883
357.789
357.68
357.563
357.44
357.321
357.224
348.313
348.393
348.494
348.597
348.697
348.788
348.868
348.932
348.976
348.999
348.999
348.976
348.932
348.868
348.788
348.697
348.597
348.494
348.393
348.313
339.457
339.522
339.604
339.689
339.77
339.845
339.91
339.963
339.999
340.018
340.018
339.999
339.963
339.91
339.845
339.77
339.689
339.604
339.522
339.457
330.648
330.698
330.762
330.827
330.891
330.949
331
331.041
331.069
331.084
331.084
331.069
331.041
331
330.949
330.891
330.827
330.762
330.698
330.648
321.876
321.911
321.956
322.003
322.049
322.091
322.127
322.156
322.176
322.187
322.187
322.176
322.156
322.127
322.091
322.049
322.003
321.956
321.911
321.876
313.13
313.151
313.178
313.206
313.233
313.259
313.28
313.298
313.31
313.316
313.316
313.31
313.298
313.28
313.259
313.233
313.206
313.178
313.151
313.13
304.399
304.406
304.416
304.425
304.434
304.443
304.45
304.456
304.46
304.462
304.462
304.46
304.456
304.45
304.443
304.434
304.425
304.416
304.406
304.399
369.073
369.178
369.305
369.433
369.557
369.669
369.767
369.845
369.899
369.927
369.927
369.899
369.845
369.767
369.669
369.557
369.433
369.305
369.178
369.073
359.686
359.775
359.885
359.996
360.103
360.201
360.286
360.353
360.401
360.425
360.425
360.401
360.353
360.286
360.201
360.103
359.996
359.885
359.775
359.686
350.376
350.45
350.542
350.637
350.727
350.81
350.882
350.939
350.979
351
351
350.979
350.939
350.882
350.81
350.727
350.637
350.542
350.45
350.376
341.132
341.191
341.267
341.344
341.418
341.486
341.545
341.592
341.624
341.641
341.641
341.624
341.592
341.545
341.486
341.418
341.344
341.267
341.191
341.132
331.942
331.988
332.046
332.106
332.164
332.217
332.263
332.299
332.325
332.338
332.338
332.325
332.299
332.263
332.217
332.164
332.106
332.046
331.988
331.942
322.796
322.828
322.87
322.913
322.954
322.992
323.025
323.051
323.069
323.078
323.078
323.069
323.051
323.025
322.992
322.954
322.913
322.87
322.828
322.796
313.68
313.7
313.725
313.75
313.775
313.798
313.818
313.833
313.844
313.85
313.85
313.844
313.833
313.818
313.798
313.775
313.75
313.725
313.7
313.68
304.584
304.59
304.598
304.607
304.615
304.623
304.63
304.635
304.639
304.641
304.641
304.639
304.635
304.63
304.623
304.615
304.607
304.598
304.59
304.584
371.834
371.931
372.048
372.166
372.279
372.382
372.47
372.541
372.59
372.615
372.615
372.59
372.541
372.47
372.382
372.279
372.166
372.048
371.931
371.834
362.025
362.108
362.209
362.311
362.409
362.499
362.576
362.637
362.679
362.701
362.701
362.679
362.637
362.576
362.499
362.409
362.311
362.209
362.108
362.025
352.315
352.384
352.469
352.556
352.639
352.715
352.78
352.832
352.868
352.887
352.887
352.868
352.832
352.78
352.715
352.639
352.556
352.469
352.384
352.315
342.691
342.746
342.816
342.887
342.955
343.018
343.071
343.114
343.143
343.159
343.159
343.143
343.114
343.071
343.018
342.955
342.887
342.816
342.746
342.691
333.138
333.18
333.234
333.29
333.343
333.392
333.433
333.467
333.49
333.502
333.502
333.49
333.467
333.433
333.392
333.343
333.29
333.234
333.18
333.138
323.641
323.671
323.71
323.749
323.787
323.822
323.852
323.876
323.892
323.901
323.901
323.892
323.876
323.852
323.822
323.787
323.749
323.71
323.671
323.641
314.184
314.202
314.225
314.249
314.272
314.293
314.311
314.325
314.335
314.34
314.34
314.335
314.325
314.311
314.293
314.272
314.249
314.225
314.202
314.184
304.752
304.758
304.766
304.774
304.781
304.788
304.794
304.799
304.803
304.804
304.804
304.803
304.799
304.794
304.788
304.781
304.774
304.766
304.758
304.752
374.002
374.094
374.204
374.315
374.42
374.516
374.598
374.664
374.709
374.732
374.732
374.709
374.664
374.598
374.516
374.42
374.315
374.204
374.094
374.002
363.792
363.87
363.965
364.062
364.154
364.238
364.309
364.367
364.406
364.427
364.427
364.406
364.367
364.309
364.238
364.154
364.062
363.965
363.87
363.792
353.735
353.8
353.881
353.963
354.041
354.112
354.173
354.222
354.256
354.273
354.273
354.256
354.222
354.173
354.112
354.041
353.963
353.881
353.8
353.735
343.805
343.857
343.923
343.99
344.055
344.113
344.163
344.203
344.231
344.245
344.245
344.231
344.203
344.163
344.113
344.055
343.99
343.923
343.857
343.805
333.976
334.016
334.067
334.12
334.17
334.216
334.255
334.286
334.308
334.319
334.319
334.308
334.286
334.255
334.216
334.17
334.12
334.067
334.016
333.976
324.225
324.254
324.29
324.328
324.364
324.397
324.425
324.447
324.463
324.47
324.47
324.463
324.447
324.425
324.397
324.364
324.328
324.29
324.254
324.225
314.53
314.547
314.569
314.591
314.613
314.632
314.649
314.663
314.672
314.677
314.677
314.672
314.663
314.649
314.632
314.613
314.591
314.569
314.547
314.53
304.867
304.872
304.88
304.887
304.895
304.901
304.907
304.911
304.915
304.916
304.916
304.915
304.911
304.907
304.901
304.895
304.887
304.88
304.872
304.867
)
;

boundaryField
{
    hotSide
    {
        type            fixedGradient;
        gradient        nonuniform List<scalar> 
400
(
458.894
460.8
464.615
470.345
477.998
487.583
499.114
512.601
528.059
545.5
564.938
586.384
609.849
635.343
662.875
692.453
724.081
757.766
793.512
831.32
462.495
464.372
468.131
473.78
481.328
490.79
502.18
515.516
530.813
548.09
567.361
588.642
611.946
637.284
664.667
694.102
725.597
759.157
794.787
832.488
466.391
468.235
471.927
477.478
484.903
494.219
505.446
518.605
533.719
550.807
569.889
590.984
614.108
639.273
666.492
695.774
727.125
760.552
796.058
833.647
470.519
472.323
475.938
481.377
488.659
497.808
508.849
521.808
536.714
553.592
572.466
593.358
616.286
641.265
668.309
697.428
728.629
761.917
797.296
834.769
474.763
476.522
480.05
485.364
492.488
501.451
512.286
525.028
539.709
556.361
575.013
595.689
618.412
643.199
670.064
699.016
730.064
763.214
798.467
835.825
478.946
480.658
484.093
489.272
496.228
504.996
515.616
528.131
542.58
559
577.427
597.887
620.406
645.002
671.69
700.48
731.381
764.397
799.53
836.78
482.829
484.493
487.835
492.882
499.671
508.246
518.656
530.95
545.175
561.375
579.587
599.843
622.171
646.59
673.115
701.758
732.525
765.421
800.446
837.6
486.124
487.745
491.004
495.931
502.571
510.975
521.199
533.299
547.328
563.335
581.362
601.444
623.608
647.877
674.266
702.786
733.442
766.238
801.174
838.25
488.536
490.124
493.319
498.155
504.682
512.956
523.039
534.993
548.875
564.739
582.629
602.582
624.627
648.787
675.077
703.507
734.083
766.808
801.682
838.701
489.814
491.384
494.544
499.331
505.796
513.999
524.007
535.882
549.686
565.473
583.29
603.174
625.157
649.259
675.496
703.879
734.414
767.102
801.942
838.932
489.814
491.384
494.544
499.331
505.796
513.999
524.007
535.882
549.686
565.473
583.29
603.174
625.157
649.259
675.496
703.879
734.414
767.102
801.942
838.932
488.536
490.124
493.319
498.155
504.682
512.956
523.039
534.993
548.875
564.739
582.629
602.582
624.627
648.787
675.077
703.507
734.083
766.808
801.682
838.701
486.124
487.745
491.004
495.931
502.571
510.975
521.199
533.299
547.328
563.335
581.362
601.444
623.608
647.877
674.266
702.786
733.442
766.238
801.174
838.25
482.829
484.493
487.835
492.882
499.671
508.246
518.656
530.95
545.175
561.375
579.587
599.843
622.171
646.59
673.115
701.758
732.525
765.421
800.446
837.6
478.946
480.658
484.093
489.272
496.228
504.996
515.616
528.131
542.58
559
577.427
597.887
620.406
645.002
671.69
700.48
731.381
764.397
799.53
836.78
474.763
476.522
480.05
485.364
492.488
501.451
512.286
525.028
539.709
556.361
575.013
595.689
618.412
643.199
670.064
699.016
730.064
763.214
798.467
835.825
470.519
472.323
475.938
481.377
488.659
497.808
508.849
521.808
536.714
553.592
572.466
593.358
616.286
641.265
668.309
697.428
728.629
761.917
797.296
834.769
466.391
468.235
471.927
477.478
484.903
494.219
505.446
518.605
533.719
550.807
569.889
590.984
614.108
639.273
666.492
695.774
727.125
760.552
796.058
833.647
462.495
464.372
468.131
473.78
481.328
490.79
502.18
515.516
530.813
548.09
567.361
588.642
611.946
637.284
664.667
694.102
725.597
759.157
794.787
832.488
458.894
460.8
464.615
470.345
477.998
487.583
499.114
512.601
528.059
545.5
564.938
586.384
609.849
635.343
662.875
692.453
724.081
757.766
793.512
831.32
)
;
    }
    coldSide
    {
        type            mixed;
        refValue        uniform 300;
        refGradient     uniform 0;
        valueFraction   uniform 0.991591;
        source          uniform 0;
        value           nonuniform List<scalar> 
400
(
300.024
300.024
300.024
300.024
300.025
300.025
300.026
300.026
300.027
300.028
300.029
300.03
300.031
300.033
300.034
300.035
300.037
300.039
300.04
300.041
300.024
300.024
300.024
300.024
300.025
300.025
300.026
300.026
300.027
300.028
300.029
300.03
300.031
300.033
300.034
300.036
300.037
300.039
300.04