/*--------------------------------*- C++ -*----------------------------------*\
| =========                 |                                                 |
| \\      /  F ield         | OpenFOAM: The Open Source CFD Toolbox           |
|  \\    /   O peration     | Version:  2212                                  |
|   \\  /    A nd           | Website:  www.openfoam.com                      |
|    \\/     M anipulation  |                                                 |
\*---------------------------------------------------------------------------*/
FoamFile
{
    version     2.0;
    format      ascii;
    arch        "LSB;label=32;scalar=64";
    class       volScalarField;
    location    "0";
    object      relativeErrorField;
}
// * * * * * * * * * * * * * * * * * * * * * * * * * * * * * * * * * * * * * //

dimensions      [0 0 0 1 0 0 0];

internalField   nonuniform List<scalar> 
3200
(
0.00829275
0.00762453
0.00696791
0.00624602
0.00643195
0.00626831
0.00642996
0.00685282
0.00742795
0.00747211
0.00791211
0.00819206
0.00821116
0.00838534
0.00865306
0.00905328
0.00950052
0.0105231
0.0115348
0.0128539
0.00730243
0.00651549
0.00601032
0.00553583
0.00540258
0.00520203
0.00570182
0.00608498
0.00634761
0.00670508
0.00695248
0.00717303
0.00722912
0.00732497
0.00747874
0.00792484
0.00839519
0.00905879
0.0101355
0.0110707
0.0063678
0.00560866
0.00510129
0.00481307
0.00447355
0.00472254
0.00486665
0.00512695
0.00560209
0.0056923
0.00592019
0.00588322
0.0060901
0.00626005
0.00639461
0.00666495
0.00716136
0.00779271
0.00844453
0.00933922
0.00521769
0.00486137
0.0042028
0.00382859
0.00402778
0.00394092
0.00394391
0.00424515
0.00448326
0.00465338
0.00470657
0.00505901
0.0050018
0.00506392
0.00523468
0.00537937
0.00585515
0.00649126
0.00700726
0.007649
0.00403649
0.00372355
0.00327762
0.00303314
0.00310474
0.00326913
0.0033136
0.00347564
0.00378143
0.00390666
0.00381549
0.00390314
0.00375141
0.00386103
0.00396836
0.00445624
0.00455447
0.00500571
0.00570018
0.00591898
0.00288169
0.00269797
0.00270472
0.00208655
0.00213518
0.00239682
0.00210998
0.00236283
0.00241883
0.00274046
0.0027779
0.00301959
0.00312124
0.00316097
0.00294388
0.00308283
0.0033297
0.0037946
0.00388348
0.0044024
0.00190942
0.00155095
0.00173629
0.00136065
0.00135127
0.0014235
0.00120737
0.00172444
0.00147398
0.00175761
0.00164371
0.0015776
0.00164432
0.00178022
0.00200034
0.00192503
0.00224962
0.0020537
0.00235205
0.0024439
0.00047638
0.000395355
0.000449834
0.00029585
0.00014289
0.000256554
0.00042081
0.000474217
0.00042971
0.000449146
0.000745798
0.00048501
0.000581252
0.0005144
0.000707375
0.000586674
0.000646772
0.000689899
0.000854309
0.000818245
0.00638784
0.00544113
0.00432897
0.00413746
0.00346096
0.00378135
0.00395344
0.00435359
0.00477032
0.00495731
0.00522032
0.00546077
0.00576956
0.00587656
0.00597634
0.00640323
0.0072863
0.00820559
0.00918371
0.0104423
0.00561287
0.00466475
0.00403479
0.00336043
0.00340103
0.00327834
0.00347504
0.00388854
0.00426452
0.00443628
0.0047674
0.00500713
0.0049797
0.0051416
0.00540578
0.00553667
0.00635617
0.00717116
0.00816523
0.00921108
0.00498435
0.0042569
0.00361742
0.00305067
0.00290681
0.00297212
0.00322526
0.00355547
0.00373157
0.00392441
0.0040908
0.00446227
0.00443764
0.00430042
0.00463558
0.0047121
0.00541388
0.00627923
0.00695435
0.00774172
0.0038866
0.00347756
0.00303385
0.00257602
0.00259032
0.00258753
0.00266698
0.00295964
0.00305621
0.00337923
0.00333866
0.00353203
0.0037496
0.00356389
0.00391658
0.00417649
0.00467667
0.0050214
0.00591408
0.00641183
0.00336773
0.00292285
0.00251605
0.00212899
0.00196535
0.00208027
0.00206211
0.00221255
0.00254967
0.00274393
0.00283991
0.00296212
0.00300125
0.00304854
0.00321391
0.00355335
0.00354221
0.00400324
0.00459493
0.00507105
0.00230093
0.00181333
0.00188658
0.00159101
0.00137082
0.00147506
0.00181251
0.00204628
0.00185821
0.00207951
0.00214064
0.00195367
0.00222534
0.0021882
0.00231132
0.00272029
0.0025468
0.00310779
0.00344525
0.00344178
0.00120663
0.00140078
0.00106962
0.0008111
0.000900443
0.000989
0.00129649
0.000855497
0.00101675
0.0014214
0.00115368
0.0012149
0.00137093
0.0010767
0.00155567
0.00135052
0.00147693
0.00161007
0.00201008
0.00240025
0.000432834
0.00026141
0.000409675
0.000359651
0.000297672
0.000208032
0.000252852
0.000169307
0.000370964
0.000354914
0.000487507
0.000523282
0.000614244
0.000382729
0.000518176
0.000565153
0.000568936
0.000557568
0.000576431
0.000582158
0.00399713
0.00266592
0.00192989
0.00111037
0.000762211
0.000739502
0.000692344
0.00117891
0.00164905
0.00199407
0.00206322
0.00237139
0.00256375
0.00270379
0.00317534
0.00354803
0.00431054
0.00524998
0.00634629
0.00793987
0.00346207
0.00248736
0.00183618
0.000889699
0.000673806
0.000757506
0.000786172
0.00112041
0.0015563
0.00156709
0.00200389
0.00228142
0.00260068
0.00250692
0.00277352
0.00325203
0.00396554
0.00475747
0.00585491
0.00691467
0.00302782
0.0024699
0.00162394
0.00131936
0.00092196
0.00104169
0.000630587
0.00113175
0.00160218
0.00171711
0.00162367
0.00196799
0.00233338
0.00225699
0.00251747
0.00282411
0.00344159
0.00428921
0.00513916
0.00595224
0.0023767
0.00188418
0.00152297
0.000927046
0.000971058
0.00105433
0.000843831
0.00103176
0.00127985
0.00116893
0.00161963
0.0017439
0.00194921
0.00218638
0.00244105
0.00238161
0.00290428
0.00370959
0.00444716
0.0051157
0.00224604
0.00162776
0.00125471
0.000855676
0.000644683
0.000918242
0.000819463
0.000697333
0.00114116
0.00136413
0.00126716
0.00150523
0.00145631
0.00151521
0.00191551
0.00214149
0.00226816
0.00281582
0.00353715
0.00394722
0.00144518
0.00127321
0.000983563
0.000610936
0.000471172
0.000603602
0.000487926
0.000594153
0.000943769
0.00087648
0.000973825
0.00110674
0.000962389
0.00119129
0.00134513
0.00146289
0.00186911
0.00202153
0.00244307
0.00299236
0.000924855
0.000981261
0.000513469
0.00042672
0.000341488
7.0476e-05
0.000346242
0.000769972
0.000376258
0.000679175
0.00059638
0.000898134
0.000664095
0.000697241
0.000998421
0.000949601
0.00104364
0.00126851
0.00153608
0.00175867
0.000119859
0.000165002
2.3136e-05
0.000356215
0.000247731
0.000112254
2.19504e-05
0.000157234
0.000134785
3.84774e-05
9.14185e-05
0.000502145
0.000217315
0.000133442
2.6282e-05
0.000368687
0.000338901
0.00028543
0.000535937
0.000374336
0.00139167
0.000125447
0.000708764
0.00152716
0.00204914
0.00227293
0.00216796
0.00187166
0.0014434
0.00125241
0.00089637
0.000982944
0.000628985
0.000355984
3.83787e-05
0.00074535
0.00161243
0.00290601
0.00407068
0.00540828
0.00146591
0.000351752
0.000507229
0.00110773
0.00147385
0.00177096
0.00156495
0.0015025
0.00124928
0.000804312
0.000573809
0.000619368
0.000300767
0.000191327
0.000370729
0.000847827
0.00152092
0.00268678
0.00384191
0.00473423
0.00122128
0.000436782
0.000202397
0.000724577
0.00101471
0.00130806
0.00126762
0.00128971
0.000879913
0.000697724
0.000309729
0.00035977
0.000179652
0.000166811
0.000388522
0.00092824
0.00147449
0.00236694
0.00348835
0.00394014
0.00112292
0.000698933
7.17273e-05
0.000587973
0.000836823
0.00111317
0.000918843
0.000632511
0.000561062
0.000362529
0.000262564
9.01209e-05
0.000165696
0.000295117
0.000478041
0.000840014
0.00126368
0.00215037
0.00299096
0.00354237
0.000822505
0.00034554
0.000145624
0.000618164
0.000659273
0.000635003
0.000650438
0.000542189
0.00033729
0.00024242
2.42491e-05
8.71773e-05
9.37252e-05
0.0002076
0.000306578
0.000735123
0.00107915
0.00150876
0.00222043
0.00277267
0.000724977
0.000531646
6.08092e-05
0.000108676
0.000424584
0.000542357
0.000364452
0.000446173
0.000253035
0.000247704
6.34931e-05
0.000242663
0.000300334
2.36549e-05
8.56247e-05
0.000465804
0.000612035
0.00127165
0.00167674
0.00205983
0.000412841
0.000238506
0.000146532
8.38155e-05
0.000221194
7.10568e-05
0.000172524
0.000262109
7.85216e-05
2.06961e-05
0.000225811
6.20747e-05
0.000131054
1.79117e-05
0.000344115
0.000417505
0.000595827
0.00055329
0.00123491
0.00121307
0.000261168
1.93468e-05
0.00010308
9.01706e-05
0.000103748
7.24204e-05
5.27643e-05
3.18497e-05
8.06454e-05
3.69068e-06
2.34451e-05
0.000186971
0.000120832
2.14768e-05
9.79619e-05
8.68739e-06
0.000438071
0.000339285
0.000421077
0.00046362
0.000686267
0.00188327
0.00268543
0.00371087
0.00432988
0.00478597
0.00464866
0.00456389
0.00421946
0.0040048
0.00363736
0.00355774
0.00325208
0.00288566
0.00223555
0.0017432
0.000617371
0.000607351
0.00195029
0.00349314
0.000464339
0.00136599
0.00247965
0.00305309
0.00367956
0.00397997
0.00387914
0.00374084
0.00370668
0.00330157
0.00312258
0.00287174
0.00251535
0.00238516
0.0020053
0.00126447
0.0004612
0.000556305
0.00190873
0.00303568
0.000118921
0.000937999
0.00160807
0.00252539
0.00309474
0.00316628
0.00309654
0.00312448
0.00273084
0.0028824
0.00246464
0.00225862
0.00211817
0.00198625
0.00153583
0.000839827
0.000364364
0.000466989
0.00201361
0.0027271
1.59439e-05
0.000942805
0.0014993
0.00195796
0.00220064
0.00253627
0.00233686
0.00248362
0.00232271
0.0018508
0.00207029
0.00188375
0.00163042
0.00135994
0.00112095
0.000835702
0.000193279
0.00028656
0.0014463
0.00228409
9.46646e-05
0.000412863
0.00134077
0.00160546
0.00171226
0.00194936
0.00197385
0.00165696
0.00149553
0.00151763
0.00153674
0.00132015
0.00121746
0.00115983
0.000860391
0.000246497
0.000153021
0.000560843
0.00120138
0.00180006
0.000172817
0.000337968
0.00060874
0.00122641
0.00122756
0.0013458
0.00131233
0.00124308
0.00107329
0.00112259
0.00099379
0.000737805
0.000960626
0.000808684
0.000495817
0.000287705
0.000117545
0.000330187
0.000737306
0.0013251
0.000165805
0.000280683
0.0004661
0.000581328
0.000761314
0.000755799
0.000730972
0.00072103
0.00060048
0.000823778
0.000666646
0.000379397
0.000627035
0.000469928
0.000581192
0.000187185
0.000125407
0.000287692
0.00064162
0.00113578
2.88167e-05
8.99458e-06
0.000148894
7.63454e-05
0.000270066
0.00019188
0.000217496
0.000425936
0.00020432
0.000269923
0.000231948
0.000184691
0.000161452
0.000126231
1.07621e-05
0.000154214
0.000148493
3.74647e-05
0.000325408
0.000396886
0.00204466
0.00360293
0.00471347
0.00560597
0.00639105
0.00669087
0.00671926
0.00690994
0.00662043
0.00645224
0.00623513
0.00582984
0.00546266
0.00508318
0.00443125
0.00359993
0.00248465
0.00124672
0.000305134
0.00186461
0.00177202
0.00258073
0.00368698
0.00479174
0.00538711
0.00548954
0.00592215
0.0057446
0.00563822
0.00548416
0.00522726
0.00502409
0.00484845
0.00423136
0.00375075
0.00296145
0.00222094
0.000963301
0.00033794
0.00182827
0.00128543
0.0023682
0.0032023
0.0037605
0.00448207
0.00468758
0.00473828
0.00472063
0.00468528
0.0045507
0.00425498
0.00396919
0.0038938
0.00351763
0.00304366
0.00256073
0.00161487
0.000715074
0.000512379
0.00155844
0.00107035
0.00172435
0.00242443
0.00279951
0.00334235
0.00382373
0.00381638
0.00378602
0.0039198
0.0037071
0.00358802
0.00321427
0.00300596
0.00303046
0.0024566
0.00207265
0.00140189
0.000578816
0.000428371
0.00128479
0.000830405
0.0013342
0.00199544
0.00218196
0.00277614
0.00286627
0.00312404
0.00307611
0.0029526
0.00293488
0.00252622
0.00256527
0.00239411
0.00223304
0.00182549
0.00140539
0.00101487
0.000658323
0.000553057
0.00121546
0.000563962
0.000653366
0.00117999
0.00150558
0.00200912
0.0020924
0.00226948
0.00221396
0.00203689
0.00211862
0.00192204
0.00176418
0.00154776
0.00155501
0.00117298
0.0009617
0.000541335
0.000367609
0.000411909
0.00106095
0.000379663
0.000640466
0.000803271
0.000890664
0.00130074
0.00124684
0.00129051
0.0013706
0.00126497
0.00128594
0.00135025
0.00120132
0.00101136
0.000920235
0.0010914
0.000476104
0.000461024
0.000115119
0.000184798
0.000381797
2.26548e-06
0.000249974
6.36015e-05
0.000127945
0.000305834
0.000415725
0.000371989
0.00032292
0.000397608
0.000345213
0.000454088
0.000307282
0.000407308
0.00028054
0.000368839
0.000181086
6.22795e-05
0.000109402
1.41571e-05
0.000219742
0.00280748
0.00443781
0.0059696
0.00692414
0.00778579
0.0081263
0.0085663
0.00847835
0.00858929
0.0084802
0.00816007
0.00773663
0.00750411
0.0066744
0.00604072
0.00549183
0.00393677
0.00241431
0.000673172
0.00082252
0.00231339
0.00375603
0.00497633
0.00599126
0.00656392
0.00690318
0.00723648
0.00728514
0.00728352
0.00702817
0.00678366
0.00647085
0.00608942
0.00579993
0.00517032
0.00410215
0.00316198
0.00211421
0.000486655
0.000879857
0.00202306
0.00322844
0.00412291
0.00492227
0.00551047
0.00592648
0.00624268
0.00618259
0.00591161
0.00590686
0.00593729
0.00554817
0.00529059
0.00486623
0.00441493
0.00370772
0.00249978
0.00175073
0.000511585
0.000747048
0.0014977
0.00224603
0.00331971
0.00416127
0.00433015
0.00483793
0.00489187
0.00503738
0.0049383
0.00472166
0.00443498
0.00432322
0.00420383
0.00383821
0.00339843
0.00278194
0.00231363
0.00128564
0.000237737
0.000784382
0.00128678
0.0019703
0.0025682
0.00299935
0.00345684
0.0035547
0.00384923
0.0038062
0.00392668
0.00390118
0.00342283
0.00356537
0.00345617
0.00304861
0.002589
0.00243856
0.00177475
0.000909348
0.000166729
0.000500203
0.000795346
0.00128286
0.00178182
0.00210871
0.00253957
0.00267461
0.00260985
0.00261552
0.00260395
0.00258724
0.00236802
0.00264648
0.00236034
0.00220959
0.00196396
0.00150773
0.00116539
0.00061239
0.000179375
0.000462069
0.000556031
0.000820747
0.00109538
0.00148671
0.00133989
0.00166317
0.00168158
0.00145518
0.00161407
0.00153041
0.00143447
0.00144987
0.00124835
0.00142238
0.000960543
0.000935143
0.000660808
0.000347817
0.000116097
0.000213556
0.000263275
0.000378325
0.000394314
0.000335307
0.000677712
0.000706016
0.000571453
0.000381106
0.000501408
0.000571705
0.00052977
0.000705178
0.000413729
0.000719807
0.000507678
0.000248877
0.000269773
0.00013904
2.95144e-05
1.39463e-05
0.00312761
0.0047168
0.00629158
0.00759127
0.00867219
0.00921503
0.00945021
0.00975524
0.0096335
0.00958
0.00901607
0.00894085
0.00857392
0.00778213
0.00717953
0.00594845
0.00476097
0.00323497
0.00138132
0.000564182
0.00246907
0.00399854
0.00536629
0.00656811
0.00727734
0.00778958
0.00817705
0.00846975
0.00832321
0.00816862
0.00800578
0.00787109
0.00712139
0.00713135
0.00585766
0.00524266
0.00414011
0.00249622
0.000979382
0.000559315
0.00212196
0.00307464
0.00445562
0.0054495
0.00610613
0.0063649
0.00687365
0.0069236
0.0068167
0.0067931
0.00648158
0.00659412
0.00620412
0.00573095
0.00499044
0.00418948
0.00315586
0.00210498
0.000751307
0.000358412
0.00174078
0.00245163
0.00360927
0.00454863
0.00489631
0.00518249
0.00568415
0.0054854
0.00560821
0.00552831
0.00546992
0.00525935
0.0049907
0.00452716
0.00422099
0.0035735
0.00276382
0.00166089
0.000612521
0.00022984
0.00102041
0.00226838
0.00264484
0.00329597
0.00373459
0.00407164
0.00432667
0.00437217
0.00454293
0.00442865
0.00431012
0.00417215
0.00379138
0.00343751
0.003172
0.00257141
0.00194933
0.00125419
0.000284441
0.000384352
0.000843313
0.0014024
0.00192445
0.00246888
0.00264107
0.00298662
0.00313598
0.00311048
0.0030112
0.00306241
0.00289814
0.00289449
0.00278686
0.00251801
0.00226332
0.00186902
0.00146055
0.000929949
0.000386313
0.000198593
0.000597993
0.000871256
0.00101835
0.00118971
0.0015738
0.00173414
0.00176184
0.00186623
0.00177186
0.00190942
0.00172863
0.00158913
0.00176927
0.00162595
0.00115825
0.00121022
0.000867511
0.00039911
0.000350215
0.000129083
6.46364e-05
0.00025234
6.32404e-05
0.00041508
0.00052788
0.000594475
0.00077781
0.00056038
0.000520267
0.000447293
0.000681825
0.000554116
0.000549643
0.00060224
0.000424558
0.000339994
5.68195e-05
0.000185274
0.000158079
1.47625e-05
0.00281272
0.00449319
0.0064247
0.00776188
0.00866163
0.00955659
0.0100688
0.0101802
0.0102645
0.0102678
0.00997686
0.0094986
0.00903741
0.00837417
0.00761338
0.00657561
0.0049826
0.00305207
0.00111012
0.000696526
0.00234021
0.00372654
0.00533807
0.00631204
0.00758269
0.00816313
0.00859747
0.00876433
0.00882574
0.00894562
0.00858985
0.00806699
0.00756855
0.00722253
0.00645841
0.00543222
0.00413505
0.00243228
0.000827834
0.000745215
0.00175438
0.0031781
0.00446136
0.00541766
0.00616697
0.00674352
0.00725404
0.00729406
0.00712762
0.00744524
0.00703788
0.00682646
0.00651401
0.00621827
0.00526282
0.00443663
0.00338414
0.00206059
0.000592455
0.000630588
0.00144556
0.00236831
0.00366418
0.00443308
0.00496004
0.00568025
0.00583543
0.00584812
0.00592625
0.00584654
0.00576796
0.0054116
0.00560364
0.00492555
0.00451246
0.00351004
0.00261904
0.00177864
0.000337283
0.000843588
0.000991686
0.00186752
0.00264436
0.00336311
0.00378021
0.00426735
0.00442767
0.00468633
0.00462167
0.00468606
0.00442735
0.00446675
0.00422574
0.00401497
0.00326378
0.00294018
0.00217106
0.00112029
0.000325428
0.000587673
0.000706717
0.00131709
0.00177314
0.0023506
0.00293019
0.00314864
0.00305571
0.00344333
0.00310465
0.00301918
0.00330556
0.00309205
0.00295329
0.00272573
0.00238721
0.00209035
0.00163477
0.000873612
0.000424641
0.000261269
0.000418554
0.000939972
0.00124784
0.00170088
0.0016698
0.00194416
0.00200598
0.00197398
0.00192034
0.00184181
0.00199341
0.00177812
0.00164901
0.00138959
0.00162697
0.00113421
0.00105461
0.000786272
0.000129137
0.000358178
2.15472e-05
0.000380935
0.000516782
0.00033504
0.000608537
0.000541517
0.00077441
0.000704466
0.000680389
0.000790689
0.000798751
0.000688249
0.000522952
0.000649404
0.000317246
0.000403727
0.000265376
0.000236944
0.0002445
0.000164701
0.00193638
0.00367669
0.00542537
0.00716949
0.00838849
0.00907609
0.00988312
0.010272
0.0101281
0.0100662
0.00992186
0.00957063
0.00897
0.0081548
0.00717666
0.0058723
0.00435103
0.00255201
0.0004767
0.00161716
0.00171299
0.00322291
0.00473968
0.00592477
0.007091
0.00806774
0.00833465
0.00864914
0.00882362
0.00882915
0.00858511
0.00813897
0.00761263
0.00713425
0.00627377
0.00503894
0.00374934
0.00208675
0.00025104
0.00152958
0.00106341
0.0024476
0.00404023
0.0050675
0.00580901
0.00673465
0.00704652
0.00729204
0.00748006
0.00734463
0.00701189
0.00687461
0.00668357
0.00589444
0.00503606
0.00426497
0.00296796
0.00168606
0.00017051
0.00127684
0.000906006
0.0019211
0.00317411
0.00409318
0.00482559
0.00514432
0.005829
0.00593689
0.00613022
0.00603544
0.00575151
0.00544251
0.00525968
0.00473894
0.00441928
0.00349909
0.00239093
0.00130172
6.15095e-08
0.00120366
0.000676934
0.00133807
0.00233201
0.00310395
0.00377598
0.00399955
0.00430079
0.00467547
0.00469928
0.00460151
0.00442263
0.00431386
0.00407359
0.00377525
0.00338393
0.00257868
0.00194563
0.00112631
0.000142508
0.000917684
0.000634494
0.00108062
0.00150422
0.00226349
0.00250508
0.00301037
0.00314627
0.00346817
0.00349829
0.0031199
0.00306701
0.00325325
0.00317773
0.0024306
0.0023717
0.00169169
0.001423
0.000566763
0.000205446
0.00064885
0.000241792
0.000728901
0.000954369
0.00132127
0.001528
0.00169301
0.00186051
0.00193401
0.00187658
0.00186393
0.0017726
0.00193499
0.00191232
0.001616
0.00130758
0.00126272
0.000981383
0.000447775
3.26238e-05
0.000401293
3.87149e-05
0.000181976
0.000290567
0.000427958
0.00061971
0.000534779
0.000628092
0.00076162
0.000778477
0.000447026
0.00068721
0.000781114
0.000538106
0.000672931
0.000504833
0.000522768
0.000344095
0.000156411
1.81776e-05
3.47735e-05
0.00021283
0.00204692
0.00409937
0.00589513
0.00717272
0.00817571
0.00881159
0.0093313
0.00965386
0.00952829
0.0093963
0.00874917
0.00848885
0.00745981
0.00619733
0.00499932
0.00341504
0.00133448
0.00104879
0.00292733
0.000108503
0.00188703
0.00353688
0.00487566
0.00616903
0.00711844
0.00747898
0.00790782
0.00818008
0.00814236
0.00794218
0.00766295
0.00710911
0.00628763
0.00546503
0.00430212
0.00272883
0.00121262
0.0010274
0.00281528
0.000195068
0.00151344
0.00301762
0.00379521
0.00515793
0.00579226
0.00647802
0.00657691
0.00697815
0.00675844
0.00659005
0.00658721
0.00598814
0.00546673
0.00446695
0.0035587
0.00213769
0.000718871
0.000804399
0.00253906
2.54828e-06
0.0010191
0.00232098
0.00338069
0.0041074
0.0049893
0.00507885
0.00567415
0.00568719
0.00561603
0.00547543
0.00522799
0.00487441
0.00432325
0.00357993
0.00268474
0.00183314
0.000689666
0.000731283
0.00199661
0.000202934
0.000511121
0.00175159
0.00255034
0.00334555
0.00362786
0.00415912
0.00431513
0.00434228
0.00409211
0.00420632
0.00404314
0.00377159
0.00317345
0.00279671
0.0021202
0.00129117
0.000340318
0.000712301
0.00160551
0.000181487
0.000529841
0.00133614
0.00187922
0.0022959
0.00291324
0.0026689
0.00309182
0.00322668
0.00304694
0.00307483
0.00290542
0.00291685
0.00232052
0.00201364
0.00166931
0.000803062
0.00015034
0.000386974
0.00117931
0.000404025
0.000409263
0.000844125
0.00136982
0.00134162
0.00173059
0.00180285
0.00178239
0.00177234
0.00183521
0.00157305
0.00188733
0.0015636
0.00151404
0.00126728
0.00100662
0.000546046
0.000114437
0.000233597
0.00049359
4.7997e-05
0.000283232
0.000314804
0.000168465
0.000308515
0.00060636
0.000696275
0.000646971
0.00076546
0.000619926
0.000367196
0.000547209
0.00046528
0.000289227
0.000402463
0.000356236
0.000107887
0.000149506
0.000142815
0.000336409
0.00210116
9.95118e-06
0.00209541
0.00410873
0.00540825
0.00650205
0.00745593
0.00779179
0.00834125
0.00811954
0.00784202
0.00764205
0.00695335
0.00609217
0.0050055
0.0033931
0.00145544
0.00065149
0.00289289
0.00515342
0.00163164
0.000327148
0.00196821
0.00313679
0.00474925
0.00571649
0.0062423
0.00667762
0.00708881
0.00708795
0.00687901
0.00640865
0.00567343
0.00503313
0.00396917
0.00290199
0.0011528
0.000536806
0.00247022
0.0042938
0.00173471
0.000128357
0.00121448
0.00270443
0.00399603
0.00467035
0.00520479
0.00561576
0.00596126
0.00602417
0.00574217
0.00539458
0.00484114
0.0043382
0.00326105
0.00220899
0.000887193
0.000614475
0.00227788
0.0038508
0.0015962
0.000228237
0.00094266
0.0023287
0.00300178
0.00379327
0.00422756
0.00475915
0.00488713
0.00465067
0.004626
0.00424605
0.00390109
0.00342536
0.00270845
0.00184769
0.000679779
0.000855005
0.00207951
0.00344963
0.0013309
0.000350017
0.000758393
0.00176642
0.00225887
0.00278117
0.0031713
0.00345044
0.0036137
0.00359587
0.00337774
0.00336959
0.00297033
0.00276565
0.00203196
0.0012585
0.00021367
0.000552211
0.00150893
0.00258129
0.000699569
7.27301e-05
0.000602658
0.00115837
0.00161621
0.00195334
0.00224888
0.00253059
0.00270665
0.00247019
0.00238743
0.0025194
0.00220964
0.00170051
0.00138879
0.000820316
0.000317974
0.000485115
0.00123101
0.00178294
0.000497824
0.000167965
0.000164887
0.000612419
0.000908185
0.00137394
0.0012615
0.00166232
0.0014427
0.0015441
0.00176102
0.00123958
0.00130696
0.00137457
0.000921828
0.000357086
0.000386495
0.000209529
0.0010387
0.00102585
0.000295865
2.70983e-05
0.000297813
0.000165238
0.000330924
0.000349442
0.000523605
0.000457546
0.000596399
0.000603661
0.000463071
0.000625855
0.000484506
0.000421936
0.000379369
3.26846e-05
0.000171521
9.89541e-06
6.79284e-05
0.000371476
0.00473381
0.00272806
0.000397023
0.00158473
0.00321412
0.00440164
0.00508623
0.00574751
0.00612597
0.00607945
0.005911
0.0052428
0.00477558
0.00362055
0.00245932
0.000866855
0.000952461
0.00307286
0.00551085
0.0075908
0.00416301
0.00261017
0.000737858
0.00112197
0.00238694
0.00352828
0.00426411
0.00481607
0.00525773
0.00530973
0.00487343
0.00464321
0.00399603
0.00329717
0.00216217
0.000703145
0.000850717
0.00283576
0.00489022
0.00684883
0.00393961
0.0021953
0.000696748
0.000757859
0.00199495
0.00287782
0.00366491
0.00405391
0.00441854
0.00432102
0.00423425
0.0038213
0.00336483
0.0026661
0.00174087
0.000592908
0.0009581
0.00261074
0.00445897
0.00594727
0.00311045
0.00187146
0.000684158
0.000484607
0.00151318
0.00239111
0.00294394
0.00337478
0.00342969
0.00356245
0.00342418
0.00308441
0.00268055
0.00213768
0.00140803
0.00031342
0.000820332
0.00208661
0.00371472
0.00501947
0.00260677
0.0017826
0.000612088
0.000327474
0.00131368
0.00161887
0.00231901
0.0023583
0.00270987
0.00256483
0.00259368
0.00229577
0.00214574
0.00148411
0.00102855
4.14868e-05
0.000742739
0.00163067
0.00309572
0.00397575
0.00178837
0.00112061
0.000669456
8.89637e-05
0.000906216
0.00116406
0.00162155
0.00171253
0.00190725
0.00187984
0.00186496
0.00149617
0.00162032
0.00102406
0.000755155
5.15779e-05
0.000541911
0.00135773
0.00214267
0.00277677
0.00111604
0.000758133
0.00048294
0.000107962
0.000372237
0.000746985
0.000931271
0.000766389
0.00120158
0.00106157
0.00102209
0.000703619
0.000791092
0.000703628
0.000500933
0.000139938
0.000422864
0.000830636
0.00138107
0.00162628
0.000454518
0.000346861
0.000225925
7.48588e-05
0.000204523
0.000137118
0.000307581
0.000423742
0.000540503
0.000458883
0.000461354
0.000364365
0.000427512
6.53332e-05
5.80456e-05
3.42538e-05
0.000133169
0.000341622
0.000427756
0.00063612
0.00836213
0.00607994
0.0038276
0.00183201
4.13476e-05
0.00142414
0.00214491
0.00289711
0.0031611
0.00346725
0.00322741
0.00273052
0.00198744
0.000934832
0.000426935
0.00213427
0.00389127
0.00620984
0.00865371
0.0109658
0.00728982
0.00538494
0.0034462
0.00187051
0.000132581
0.000812369
0.00186844
0.00242467
0.00280823
0.00291434
0.00258504
0.00218899
0.00129762
0.000783425
0.000338442
0.00207261
0.0036293
0.00578466
0.00790768
0.00977463
0.00651906
0.00499538
0.00306338
0.00182876
0.000330893
0.000701802
0.00160908
0.00216641
0.00227712
0.00236569
0.00231782
0.00178192
0.00122724
0.000539747
0.000473094
0.00172267
0.00326709
0.00484865
0.00689714
0.00855408
0.005446
0.00425505
0.00263858
0.00144229
0.000250156
0.000350633
0.00114767
0.0016375
0.00185704
0.00176
0.00135489
0.00148757
0.000920919
0.000313802
0.000583663
0.00171819
0.00294723
0.00415782
0.00574536
0.00699719
0.00445676
0.00344476
0.00231977
0.00145635
0.000247428
0.000316399
0.000665998
0.00126476
0.00135306
0.00111131
0.00127469
0.00107563
0.000558833
0.000184737
0.000373495
0.00133543
0.00209594
0.003343
0.00451336
0.00562064
0.00313056
0.00240706
0.00152389
0.0011228
0.000342267
1.77262e-05
0.000466513
0.000681585
0.00103958
0.000871137
0.000940369
0.000566632
0.000364919
3.36251e-05
0.000264018
0.000653549
0.00143824
0.00229513
0.00335829
0.00413604
0.00206281
0.00158554
0.00107447
0.000548546
0.000232878
0.00013228
0.000380165
0.000581999
0.000690009
0.000763789
0.000411722
0.000381035
0.000423521
2.65695e-05
0.000312607
0.000489577
0.000920485
0.00136013
0.00207778
0.00243533
0.000681569
0.000763033
0.000206094
5.03534e-05
6.54482e-05
0.000175689
0.000139946
0.000229427
0.000306628
9.32752e-05
0.000353584
5.35653e-05
0.000148721
7.49053e-05
0.000283942
0.000208592
0.000175193
0.000382989
0.000637041
0.00103127
0.012272
0.0102666
0.00776669
0.00590316
0.00382877
0.00244036
0.00127513
0.000510384
0.000248173
5.50373e-05
0.000314512
0.000589433
0.00127954
0.00256293
0.00396352
0.00566388
0.00767285
0.0102341
0.0127
0.0152344
0.0110937
0.0091383
0.00702372
0.00526821
0.00348417
0.00226183
0.00133321
0.000668111
0.0003316
0.000187129
0.000450683
0.000834767
0.00134604
0.00256587
0.00346082
0.00520302
0.00698245
0.00893771
0.0112506
0.013434
0.00952661
0.00809651
0.00620297
0.00469917
0.00315416
0.00211186
0.00146016
0.00069256
0.000398797
0.000479122
0.000493327
0.000824417
0.0013691
0.00219965
0.00335671
0.00453652
0.00626318
0.00773135
0.00970337
0.0114066
0.00805554
0.00662776
0.00498776
0.00401986
0.00285556
0.00210413
0.00142389
0.000830818
0.000281257
0.000626705
0.000527079
0.000807102
0.00123799
0.00183785
0.00279602
0.00381887
0.00527504
0.00668475
0.00819509
0.00967277
0.00635937
0.00549984
0.00427432
0.00310366
0.00250936
0.00151619
0.000945346
0.000801764
0.000897877
0.000296567
0.000449943
0.000619283
0.00129758
0.00167658
0.00210637
0.00333171
0.00412423
0.00532386
0.00652872
0.00776163
0.00484055
0.00389198
0.00287071
0.00233598
0.00190851
0.000981168
0.000664749
0.000460553
0.000713694
0.000550067
0.000456744
0.0007374
0.0010347
0.0011356
0.00181993
0.00220059
0.00291685
0.0039455
0.00474953
0.00560133
0.00282804
0.00232733
0.00208124
0.00149636
0.00104947
0.000646693
0.00053959
0.000331172
2.69873e-05
0.000256089
0.000305006
0.000408494
0.000474049
0.00061719
0.00101904
0.00132198
0.00180491
0.00234116
0.00296234
0.00345362
0.000906938
0.000803619
0.000446112
0.000634363
0.000470673
0.000126291
0.000272026
0.000218935
2.2426e-05
5.43774e-06
0.000100889
0.000348177
0.000298508
0.000178771
0.000329411
0.000486541
0.000732737
0.000769994
0.00109483
0.00109685
0.0170266
0.0147442
0.0124897
0.0100923
0.00818725
0.00681261
0.00548947
0.0048505
0.00436906
0.00424223
0.00459079
0.00483114
0.00550574
0.00662596
0.0083894
0.0100772
0.0120508
0.0145335
0.0171711
0.0198466
0.0152042
0.0133546
0.0111009
0.00913323
0.00751995
0.00610053
0.00523821
0.00435101
0.00402432
0.0039187
0.00415346
0.00425632
0.00512104
0.00623867
0.00749017
0.00885443
0.0108542
0.0127749
0.0152697
0.0173829
0.0130856
0.0114537
0.00968066
0.00779545
0.00661106
0.00525478
0.00479378
0.00394381
0.00353307
0.00333977
0.00362296
0.00403399
0.00441083
0.00512848
0.00636501
0.00766745
0.00918568
0.0111627
0.013256
0.0149473
0.0110832
0.00965462
0.00835206
0.00673519
0.00558425
0.00445106
0.00403745
0.00319156
0.00306273
0.00297303
0.00319329
0.00350535
0.00391317
0.00466295
0.00541664
0.00648564
0.00800835
0.00946026
0.0110867
0.0126191
0.00859411
0.0076416
0.00675273
0.00556862
0.00443809
0.00368886
0.00292896
0.00279993
0.00252587
0.00246719
0.00268659
0.00260263
0.00304709
0.00350528
0.00451965
0.005257
0.00633477
0.00777462
0.00865864
0.0099642
0.00646396
0.00568284
0.00467117
0.00393142
0.00327564
0.00281006
0.00244396
0.00189688
0.00191895
0.00192059
0.00197706
0.00211145
0.00232545
0.00265576
0.00326522
0.00389421
0.00484336
0.00546625
0.00650691
0.00746709
0.00378733
0.00343088
0.00283633
0.00239357
0.0020281
0.00187718
0.00134532
0.00115589
0.00100762
0.00123207
0.00130295
0.00131197
0.00155338
0.00165884
0.00202906
0.00221785
0.0029653
0.00312013
0.00410733
0.00453284
0.00154082
0.00114461
0.000935609
0.000757593
0.000756313
0.000520949
0.000702266
0.000408092
0.000692145
0.000460083
0.000301352
0.000606969
0.000467049
0.000577853
0.000438599
0.000746669
0.000925755
0.00121476
0.0013213
0.00155173
0.0224735
0.020083
0.0174998
0.0151454
0.0131089
0.0115582
0.0104811
0.00955866
0.00915179
0.00898402
0.0091015
0.00954597
0.0104502
0.0114766
0.0130533
0.0148697
0.0172684
0.0196077
0.0223502
0.0248495
0.0199834
0.0176655
0.0155161
0.013517
0.0117924
0.0105705
0.00947237
0.00870278
0.00813607
0.00817507
0.00814376
0.00851318
0.00947983
0.0102087
0.0116012
0.0132854
0.0150693
0.0173095
0.0198199
0.0218203
0.0173058
0.0154275
0.0136145
0.0118371
0.010303
0.00909024
0.00825486