/*--------------------------------*- C++ -*----------------------------------*\
| =========                 |                                                 |
| \\      /  F ield         | OpenFOAM: The Open Source CFD Toolbox           |
|  \\    /   O peration     | Version:  2212                                  |
|   \\  /    A nd           | Website:  www.openfoam.com                      |
|    \\/     M anipulation  |                                                 |
\*---------------------------------------------------------------------------*/
FoamFile
{
    version     2.0;
    format      ascii;
    arch        "LSB;label=32;scalar=64";
    class       volScalarField;
    location    "0";
    object      stateMean;
}
// * * * * * * * * * * * * * * * * * * * * * * * * * * * * * * * * * * * * * //

dimensions      [0 0 0 1 0 0 0];

internalField   nonuniform List<scalar> 
3200
(
334.443
334.955
335.541
336.182
336.529
336.986
337.303
337.472
337.505
337.61
337.461
337.245
337.011
336.639
336.178
335.642
335.081
334.339
333.635
332.905
329.75
330.254
330.736
331.239
331.638
332.053
332.207
332.35
332.459
332.444
332.361
332.183
331.968
331.665
331.293
330.797
330.287
329.722
329.051
328.499
325.072
325.521
325.953
326.339
326.75
326.963
327.186
327.329
327.34
327.398
327.323
327.247
327.012
326.728
326.413
326.03
325.569
325.071
324.593
324.1
320.49
320.767
321.195
321.554
321.736
322.004
322.225
322.315
322.373
322.39
322.373
322.187
322.07
321.863
321.586
321.299
320.9
320.457
320.075
319.707
315.937
316.16
316.47
316.733
316.901
317.036
317.194
317.288
317.297
317.313
317.342
317.258
317.201
317.02
316.814
316.471
316.25
315.922
315.533
315.339
311.387
311.532
311.651
311.976
312.097
312.149
312.363
312.387
312.444
312.384
312.372
312.256
312.15
312.034
311.978
311.801
311.587
311.31
311.162
310.912
306.787
306.95
306.965
307.159
307.244
307.303
307.443
307.346
307.469
307.406
307.441
307.437
307.371
307.267
307.125
307.068
306.886
306.867
306.704
306.623
302.327
302.368
302.376
302.449
302.524
302.516
302.491
302.495
302.525
302.527
302.437
302.508
302.463
302.462
302.38
302.389
302.343
302.303
302.23
302.224
335.233
335.836
336.574
337.034
337.669
337.959
338.268
338.442
338.526
338.582
338.493
338.292
337.961
337.615
337.215
336.672
335.968
335.263
334.572
333.865
330.438
330.994
331.516
332.082
332.421
332.806
333.059
333.188
333.258
333.303
333.192
333.009
332.823
332.502
332.096
331.708
331.084
330.472
329.83
329.242
325.631
326.069
326.541
327.016
327.362
327.631
327.817
327.935
328.041
328.064
328.01
327.801
327.645
327.464
327.085
326.769
326.241
325.669
325.186
324.728
321.007
321.299
321.657
322.04
322.279
322.518
322.712
322.803
322.906
322.872
322.885
322.752
322.547
322.422
322.089
321.767
321.362
321.016
320.513
320.193
316.216
316.481
316.777
317.083
317.325
317.474
317.651
317.746
317.743
317.737
317.706
317.611
317.495
317.337
317.114
316.82
316.634
316.305
315.951
315.676
311.616
311.856
311.952
312.177
312.38
312.48
312.497
312.526
312.659
312.63
312.61
312.629
312.47
312.379
312.219
311.958
311.878
311.571
311.347
311.26
307.032
307.024
307.198
307.356
307.41
307.462
307.441
307.638
307.633
307.532
307.615
307.572
307.479
307.509
307.287
307.271
307.151
307.032
306.837
306.665
302.349
302.419
302.398
302.439
302.485
302.539
302.55
302.596
302.55
302.563
302.522
302.504
302.461
302.511
302.445
302.404
302.376
302.353
302.324
302.304
336.333
337.063
337.669
338.335
338.853
339.251
339.628
339.766
339.827
339.825
339.801
339.581
339.295
338.944
338.424
337.908
337.251
336.546
335.819
335.002
331.407
331.968
332.492
333.144
333.562
333.873
334.175
334.325
334.37
334.467
334.321
334.127
333.83
333.6
333.199
332.702
332.119
331.519
330.848
330.258
326.485
326.865
327.401
327.786
328.208
328.454
328.853
328.909
328.915
328.962
328.993
328.795
328.514
328.318
327.969
327.583
327.089
326.527
325.99
325.528
321.667
321.984
322.312
322.738
322.962
323.169
323.452
323.572
323.622
323.727
323.581
323.472
323.275
323.017
322.72
322.506
322.099
321.607
321.157
320.784
316.708
317.026
317.308
317.616
317.869
317.963
318.161
318.341
318.301
318.284
318.315
318.185
318.099
317.94
317.645
317.393
317.167
316.812
316.42
316.168
311.98
312.12
312.329
312.574
312.75
312.838
312.993
313.061
313.024
313.083
313.053
312.973
312.946
312.773
312.606
312.439
312.18
312.004
311.754
311.497
307.177
307.21
307.425
307.529
307.635
307.796
307.782
307.712
307.877
307.807
307.832
307.716
307.744
307.674
307.511
307.448
307.339
307.193
307.04
306.92
302.464
302.467
302.548
302.458
302.518
302.585
302.636
302.615
302.719
302.674
302.714
302.526
302.597
302.603
302.611
302.481
302.463
302.455
302.355
302.387
337.656
338.359
338.99
339.647
340.213
340.669
340.982
341.174
341.241
341.288
341.167
341.084
340.751
340.365
339.883
339.264
338.582
337.766
337.023
336.298
332.453
333.056
333.643
334.171
334.629
335.057
335.29
335.522
335.622
335.57
335.492
335.411
335.12
334.702
334.341
333.854
333.293
332.578
331.893
331.365
327.399
327.849
328.312
328.76
329.14
329.513
329.755
329.976
329.996
330.018
329.89
329.825
329.61
329.283
328.955
328.501
328.038
327.469
326.848
326.507
322.334
322.625
323.081
323.474
323.787
324.103
324.249
324.33
324.434
324.436
324.403
324.281
324.179
323.855
323.588
323.244
322.875
322.363
321.885
321.553
317.364
317.634
317.95
318.277
318.47
318.638
318.805
318.906
318.94
318.96
318.891
318.86
318.703
318.532
318.338
318.026
317.737
317.424
317.038
316.744
312.351
312.496
312.757
312.936
313.163
313.326
313.385
313.508
313.517
313.553
313.455
313.362
313.274
313.264
313.129
312.884
312.71
312.378
312.138
311.934
307.421
307.525
307.712
307.716
307.888
307.917
308.017
308.103
308.088
308.081
308.157
308.045
307.982
307.97
307.789
307.691
307.559
307.497
307.218
307.175
302.45
302.552
302.538
302.567
302.651
302.667
302.684
302.698
302.678
302.708
302.702
302.645
302.725
302.661
302.615
302.617
302.461
302.466
302.419
302.389
338.952
339.624
340.234
340.949
341.533
342.054
342.341
342.593
342.679
342.712
342.587
342.453
342.146
341.74
341.186
340.654
339.898
339.117
338.325
337.537
333.607
334.133
334.796
335.305
335.838
336.254
336.509
336.706
336.869
336.825
336.765
336.589
336.295
336.009
335.593
335.03
334.438
333.782
333.04
332.44
328.269
328.725
329.191
329.76
330.221
330.511
330.732
330.946
330.963
331.092
330.954
330.807
330.614
330.366
329.974
329.478
329.049
328.509
327.756
327.335
323.053
323.503
323.883
324.25
324.552
324.878
325.013
325.227
325.296
325.206
325.277
325.153
324.95
324.696
324.419
324.11
323.679
323.305
322.731
322.31
317.927
318.144
318.595
318.848
319.056
319.3
319.463
319.492
319.534
319.59
319.596
319.478
319.351
319.204
318.953
318.59
318.386
317.99
317.631
317.325
312.718
312.96
313.155
313.469
313.593
313.752
313.851
313.922
313.936
313.986
313.946
313.83
313.833
313.693
313.485
313.299
313.122
312.861
312.623
312.358
307.614
307.799
307.923
308.031
308.161
308.232
308.29
308.343
308.346
308.436
308.387
308.278
308.314
308.21
308.178
307.985
307.891
307.691
307.516
307.316
302.577
302.587
302.652
302.654
302.738
302.738
302.768
302.85
302.796
302.823
302.811
302.79
302.77
302.74
302.677
302.703
302.586
302.596
302.486
302.448
340.158
340.943
341.646
342.3
342.926
343.375
343.702
344.032
344.124
344.167
344.093
343.854
343.537
343.143
342.604
341.975
341.238
340.467
339.615
338.831
334.685
335.173
335.823
336.496
337.005
337.34
337.758
337.928
338.057
338.093
338.007
337.851
337.627
337.191
336.756
336.192
335.635
334.911
334.197
333.482
329.193
329.729
330.239
330.68
331.179
331.5
331.748
331.936
332.064
332.092
331.995
331.827
331.662
331.344
330.957
330.545
329.973
329.42
328.781
328.258
323.834
324.191
324.61
324.94
325.33
325.693
325.879
326.027
326.185
326.176
326.137
325.955
325.773
325.624
325.249
324.918
324.487
324.012
323.494
323.072
318.503
318.775
319.135
319.356
319.711
319.901
320.13
320.237
320.286
320.326
320.196
320.162
320.019
319.846
319.569
319.274
318.984
318.709
318.174
317.852
313.192
313.299
313.57
313.788
314.064
314.205
314.365
314.435
314.442
314.501
314.439
314.357
314.226
314.141
313.917
313.735
313.486
313.315
312.965
312.683
307.928
308.055
308.168
308.265
308.463
308.514
308.591
308.667
308.673
308.699
308.719
308.653
308.557
308.477
308.466
308.209
308.133
307.956
307.801
307.693
302.618
302.709
302.673
302.716
302.794
302.85
302.858
302.861
302.895
302.887
302.919
302.868
302.886
302.83
302.836
302.756
302.658
302.687
302.629
302.551
341.315
342.115
342.947
343.606
344.238
344.682
345.13
345.348
345.565
345.621
345.512
345.273
345.015
344.483
343.969
343.455
342.586
341.735
340.832
340.079
335.64
336.331
337.007
337.636
338.121
338.518
338.887
339.118
339.272
339.267
339.184
338.999
338.715
338.403
337.935
337.294
336.686
336.047
335.235
334.57
330.087
330.657
331.177
331.684
332.125
332.502
332.824
332.984
333.025
333.092
333.102
332.905
332.689
332.369
332.002
331.53
330.884
330.394
329.762
329.175
324.503
324.884
325.416
325.887
326.145
326.505
326.699
326.894
326.969
326.955
326.861
326.769
326.623
326.357
326.037
325.642
325.288
324.756
324.233
323.764
319.06
319.384
319.717
320.009
320.311
320.494
320.727
320.828
320.948
320.983
320.83
320.833
320.716
320.471
320.186
319.986
319.618
319.188
318.809
318.491
313.558
313.786
314.044
314.256
314.504
314.654
314.731
314.815
314.871
314.897
314.828
314.884
314.735
314.606
314.431
314.18
313.96
313.677
313.44
313.164
308.158
308.284
308.429
308.616
308.638
308.803
308.868
308.847
308.931
308.923
308.893
308.88
308.783
308.788
308.586
308.513
308.362
308.199
308.067
307.921
302.756
302.806
302.83
302.835
302.961
302.992
302.97
302.929
302.977
303.005
302.992
303.039
302.939
303.015
302.932
302.831
302.815
302.753
302.682
302.68
342.474
343.25
344.082
344.841
345.529
346.02
346.379
346.714
346.837
346.906
346.712
346.599
346.308
345.806
345.323
344.596
343.872
343.037
342.111
341.213
336.598
337.308
338.021
338.698
339.212
339.648
340.019
340.316
340.41
340.432
340.377
340.257
339.861
339.666
338.997
338.527
337.881
337.056
336.294
335.581
330.883
331.361
332.031
332.589
333.038
333.347
333.718
333.902
333.987
334.043
333.94
333.913
333.663
333.339
332.892
332.404
331.83
331.254
330.593
330.064
325.204
325.566
326.116
326.609
326.912
327.188
327.516
327.588
327.727
327.752
327.733
327.613
327.427
327.139
326.875
326.482
326.029
325.483
324.969
324.564
319.458
319.956
320.212
320.565
320.853
321.102
321.312
321.432
321.563
321.567
321.529
321.445
321.246
321.028
320.814
320.481
320.135
319.768
319.323
319.009
313.917
314.163
314.423
314.698
314.857
315.067
315.205
315.273
315.297
315.341
315.289
315.26
315.171
315.011
314.84
314.615
314.382
314.111
313.844
313.59
308.376
308.504
308.606
308.722
308.903
309.013
309.077
309.154
309.158
309.217
309.162
309.101
309.124
309.035
308.835
308.791
308.623
308.415
308.343
308.152
302.765
302.835
302.797
302.925
302.98
303.021
303.095
303.044
303.043
303.026
303.098
303.053
303.04
303.041
302.97
302.923
302.816
302.834
302.807
302.741
343.572
344.368
345.307
346.06
346.666
347.257
347.689
347.939
348.12
348.2
348.1
347.856
347.546
347.106
346.589
345.949
345.106
344.15
343.209
342.369
337.593
338.247
339.028
339.611
340.297
340.738
341.106
341.346
341.498
341.607
341.486
341.241
340.941
340.641
340.162
339.571
338.877
338.048
337.27
336.554
331.637
332.263
332.889
333.42
333.885
334.283
334.64
334.807
334.863
335.026
334.89
334.763
334.548
334.296
333.791
333.311
332.745
332.093
331.406
330.847
325.821
326.246
326.831
327.257
327.606
328.01
328.213
328.343
328.459
328.48
328.455
328.291
328.263
327.916
327.629
327.133
326.666
326.217
325.585
325.077
320.001
320.376
320.752
321.118
321.389
321.676
321.846
322.027
322.077
322.133
322.051
322.027
321.879
321.714
321.354
321.12
320.737
320.264
319.883
319.496
314.268
314.527
314.761
315.04
315.319
315.482
315.537
315.729
315.673
315.672
315.762
315.669
315.575
315.433
315.243
315.055
314.815
314.478
314.246
313.964
308.558
308.759
308.908
309.106
309.155
309.296
309.366
309.399
309.412
309.403
309.45
309.368
309.298
309.176
309.198
308.99
308.906
308.766
308.509
308.319
302.831
302.952
303.013
302.976
303.079
303.078
303.166
303.158
303.161
303.2
303.202
303.164
303.103
303.128
303.01
303.017
302.955
302.928
302.911
302.774
344.632
345.437
346.298
347.173
347.867
348.365
348.879
349.207
349.295
349.346
349.296
349.102
348.757
348.282
347.71
346.999
346.202
345.308
344.336
343.41
338.555
339.241
339.977
340.614
341.247
341.804
342.097
342.371
342.549
342.614
342.531
342.317
342.019
341.689
341.195
340.551
339.878
339.079
338.236
337.459
332.395
333
333.717
334.258
334.705
335.204
335.479
335.702
335.867
335.874
335.763
335.665
335.499
335.096
334.639
334.191
333.56
332.934
332.244
331.618
326.451
326.899
327.461
327.925
328.328
328.588
328.951
329.102
329.247
329.259
329.166
329.022
328.881
328.595
328.351
327.894
327.369
326.85
326.272
325.763
320.525
320.827
321.263
321.638
321.98
322.173
322.379
322.588
322.66
322.662
322.604
322.536
322.395
322.21
321.976
321.596
321.267
320.877
320.444
320.014
314.691
314.894
315.112
315.441
315.609
315.854
315.974
316.14
316.194
316.099
316.082
316.117
316.048
315.749
315.653
315.353
315.177
314.817
314.619
314.287
308.771
308.958
309.079
309.246
309.365
309.468
309.566
309.627
309.636
309.647
309.619
309.654
309.62
309.49
309.349
309.283
309.141
308.922
308.743
308.572
302.925
302.981
303.031
303.091
303.167
303.159
303.202
303.256
303.27
303.174
303.247
303.271
303.188
303.216
303.15
303.137
303.065
302.99
302.932
302.902
345.554
346.381
347.331
348.206
348.9
349.487
349.92
350.276
350.513
350.534
350.489
350.199
349.984
349.452
348.801
348.147
347.347
346.375
345.31
344.469
339.319
340.087
340.853
341.527
342.185
342.715
343.023
343.321
343.521
343.565
343.497
343.345
343.049
342.618
342.153
341.55
340.797
340.064
339.097
338.327
333.078
333.782
334.458
334.903
335.542
335.929
336.315
336.476
336.701
336.675
336.619
336.571
336.279
335.977
335.486
335.008
334.35
333.692
333.01
332.297
327.054
327.495
328.064
328.562
328.951
329.383
329.54
329.84
329.919
329.934
329.887
329.768
329.578
329.292
328.921
328.485
328.055
327.53
326.923
326.4
320.939
321.252
321.761
322.134
322.507
322.71
322.98
323.111
323.177
323.127
323.164
323.081
322.936
322.663
322.442
322.114
321.73
321.307
320.859
320.489
314.931
315.214
315.546
315.801
316.017
316.291
316.284
316.475
316.559
316.525
316.533
316.458
316.42
316.174
316.007
315.819
315.462
315.172
314.925
314.617
309.118
309.155
309.337
309.549
309.591
309.759
309.824
309.852
309.874
309.907
309.826
309.91
309.785
309.734
309.616
309.487
309.295
309.111
308.957
308.84
303.028
303.111
303.136
303.109
303.168
303.274
303.316
303.312
303.357
303.317
303.24
303.291
303.257
303.193
303.212
303.182
303.091
303.086
302.982
302.911
346.424
347.335
348.282
349.215
349.898
350.497
351.023
351.298
351.603
351.584
351.487
351.359
351.006
350.548
349.976
349.197
348.292
347.328
346.327
345.364
340.168
340.765
341.739
342.339
343.09
343.609
343.957
344.242
344.48
344.531
344.459
344.247
343.899
343.543
343.012
342.459
341.662
340.885
340.035
339.261
333.778
334.441
335.052
335.721
336.323
336.708
337.029
337.283
337.481
337.544
337.45
337.291
337.023
336.739
336.236
335.724
335.113
334.44
333.722
333.07
327.52
328.071
328.586
329.181
329.54
329.931
330.189
330.459
330.568
330.525
330.517
330.357
330.177
329.925
329.574
329.161
328.639
327.996
327.464
326.912
321.345
321.738
322.197
322.63
322.897
323.166
323.381
323.546
323.65
323.672
323.601
323.572
323.391
323.251
322.925
322.574
322.13
321.775
321.365
320.942
315.315
315.614
315.854
316.107
316.328
316.507
316.665
316.806
316.898
316.844
316.818
316.839
316.704
316.491
316.329
316.077
315.841
315.511
315.203
314.973
309.168
309.303
309.45
309.635
309.772
309.96
309.964
310.12
310.074
310.117
310.184
310.011
310.01
309.999
309.82
309.602
309.565
309.334
309.034
309.005
303.033
303.126
303.239
303.215
303.28
303.3
303.366
303.357
303.406
303.412
303.369
303.415
303.365
303.335
303.309
303.19
303.217
303.152
303.113
303.01
347.331
348.197
349.216
350.122
350.902
351.515
351.93
352.303
352.536
352.572
352.513
352.227
351.963
351.417
350.836
350.081
349.235
348.281
347.226
346.334
340.878
341.55
342.368
343.191
343.807
344.369
344.773
345.086
345.325
345.388
345.238
345.114
344.804
344.441
343.9
343.229
342.514
341.649
340.769
339.959
334.367
335.068
335.72
336.366
336.936
337.377
337.77
338.005
338.202
338.207
338.178
338.001
337.773
337.434
336.995
336.464
335.789
335.077
334.308
333.693
328.105
328.607
329.12
329.632
330.097
330.505
330.792
331.019
331.098
331.173
331.127
330.984
330.79
330.526
330.181
329.701
329.202
328.658
328
327.477
321.774
322.112
322.583
322.987
323.403
323.594
323.901
323.98
324.14
324.118
324.128
324.006
323.912
323.632
323.403
322.966
322.641
322.255
321.688
321.332
315.571
315.833
316.042
316.353
316.682
316.829
317.032
317.108
317.203
317.212
317.207
317.073
317.079
316.843
316.7
316.411
316.154
315.825
315.51
315.258
309.336
309.478
309.603
309.829
309.953
310.108
310.201
310.178
310.332
310.3
310.288
310.178
310.185
310.13
310.032
309.881
309.665
309.496
309.285
309.178
303.106
303.149
303.199
303.305
303.358
303.351
303.414
303.459
303.501
303.48
303.481
303.448
303.46
303.341
303.327
303.286
303.242
303.164
303.124
303.051
348.037
348.991
349.969
350.866
351.716
352.38
352.791
353.183
353.367
353.521
353.436
353.215
352.863
352.365
351.729
350.95
350.142
349.132
348.087
347.123
341.51
342.296
343.124
343.837
344.6
345.081
345.581
345.884
346.094
346.171
346.057
345.88
345.495
345.207
344.684
343.932
343.231
342.319
341.428
340.655
334.935
335.557
336.345
336.905
337.55
338.03
338.452
338.733
338.837
338.901
338.885
338.669
338.416
338.09
337.633
337.08
336.419
335.743
334.916
334.249
328.508
328.988
329.634
330.146
330.655
330.961
331.319
331.557
331.684
331.68
331.546
331.561
331.32
331.043
330.652
330.17
329.649
329.132
328.496
327.996
322.087
322.48
322.931
323.301
323.783
324.048
324.235
324.488
324.559
324.502
324.555
324.469
324.259
324.079
323.825
323.431
323.094
322.6
322.134
321.711
315.795
316.072
316.414
316.606
316.917
317.079
317.285
317.396
317.54
317.501
317.523
317.39
317.296
317.148
317.001
316.819
316.506
316.17
315.771
315.477
309.433
309.609
309.805
310.008
310.144
310.293
310.401
310.49
310.54
310.573
310.464
310.444
310.44
310.275
310.155
310.064
309.892
309.716
309.457
309.318
303.168
303.153
303.334
303.395
303.403
303.488
303.487
303.524
303.553
303.435
303.57
303.476
303.409
303.468
303.349
303.36
303.357
303.281
303.191
303.062
348.782
349.631
350.686
351.522
352.428
353.08
353.633
354.018
354.191
354.3
354.209
354.07
353.746
353.178
352.541
351.779
350.896
349.814
348.772
347.736
342.029
342.825
343.705
344.467
345.234
345.797
346.241
346.57
346.756
346.842
346.751
346.581
346.335
345.813
345.382
344.638
343.873
343.042
342.094
341.22
335.463
336.047
336.814
337.454
338.104
338.575
338.9
339.245
339.403
339.406
339.401
339.258
339.015
338.649
338.153
337.635
336.923
336.296
335.503
334.827
328.905
329.458
330.104
330.532
331.022
331.368
331.679
331.944
332.175
332.085
332.118
332
331.809
331.542
331.139
330.702
330.115
329.541
328.938
328.369
322.449
322.789
323.266
323.729
324.004
324.401
324.653
324.752
324.758
324.974
324.924
324.849
324.591
324.415
324.21
323.737
323.398
322.926
322.455
321.994
315.952
316.297
316.678
316.907
317.101
317.449
317.597
317.7
317.646
317.712
317.742
317.639
317.517
317.447
317.183
317.008
316.722
316.337
316.025
315.711
309.616
309.797
309.908
310.125
310.299
310.456
310.517
310.605
310.716
310.652
310.637
310.597
310.561
310.493
310.34
310.214
310.029
309.827
309.6
309.422
303.241
303.28
303.401
303.355
303.417
303.532
303.497
303.522
303.586
303.594
303.565
303.487
303.497
303.526
303.47
303.412
303.326
303.302
303.192
303.183
349.355
350.295
351.252
352.267
353.1
353.735
354.331
354.66
354.904
354.986
354.861
354.739
354.427
353.926
353.173
352.427
351.57
350.525
349.432
348.352
342.551
343.303
344.223
345.048
345.745
346.365
346.775
347.172
347.348
347.416
347.334
347.267
346.903
346.426
345.881
345.28
344.448
343.64
342.637
341.794
335.898
336.544
337.262
338.022
338.541
339.109
339.358
339.723
339.916
340.009
339.912
339.745
339.564
339.244
338.73
338.181
337.549
336.757
335.93
335.265
329.24
329.788
330.316
330.951
331.429
331.893
332.107
332.451
332.535
332.588
332.515
332.388
332.21
331.898
331.571
331.128
330.527
329.947
329.311
328.729
322.764
323.131
323.493
323.954
324.395
324.707
325.014
325.103
325.226
325.263
325.191
325.201
325.023
324.826
324.436
324.128
323.704
323.16
322.8
322.318
316.18
316.468
316.842
317.131
317.393
317.59
317.749
317.957
317.974
317.985
317.967
317.912
317.82
317.681
317.445
317.196
316.841
316.589
316.206
315.861
309.764
309.899
310.115
310.286
310.431
310.507
310.697
310.777
310.837
310.776
310.754
310.743
310.654
310.6
310.46
310.372
310.108
310.027
309.689
309.533
303.198
303.326
303.4
303.465
303.476
303.558
303.511
303.607
303.526
303.598
303.646
303.552
303.589
303.548
303.583
303.479
303.414
303.315
303.273
303.195
349.779
350.751
351.819
352.808
353.678
354.363
354.862
355.283
355.493
355.585
355.543
355.351
354.963
354.505
353.827
353.047
352.048
351.064
349.94
348.928
342.923
343.835
344.71
345.537
346.263
346.804
347.287
347.635
347.888
347.903
347.914
347.756
347.363
347.029
346.443
345.74
344.994
344.082
343.081
342.281
336.177
336.902
337.627
338.342
338.971
339.483
339.851
340.128
340.345
340.48
340.388
340.214
339.973
339.562
339.129
338.589
337.885
337.102
336.322
335.608
329.509
330.062
330.783
331.231
331.741
332.158
332.529
332.772
332.902
332.878
332.943
332.808
332.575
332.292
331.849
331.421
330.874
330.288
329.607
329.071
322.934
323.329
323.796
324.272
324.611
324.924
325.245
325.315
325.547
325.508
325.466
325.436
325.238
325.053
324.764
324.367
323.983
323.517
322.976
322.589
316.335
316.655
316.954
317.253
317.516
317.745
317.926
318.158
318.21
318.203
318.151
318.181
317.998
317.851
317.685
317.325
317.083
316.707
316.368
316.158
309.802
309.93
310.213
310.315
310.534
310.649
310.754
310.889
310.919
310.911
310.92
310.915
310.791
310.639
310.57
310.415
310.286
310.039
309.862
309.69
303.296
303.379
303.423
303.43
303.487
303.628
303.594
303.665
303.645
303.647
303.656
303.706
303.599
303.546
303.545
303.435
303.428
303.368
303.27
303.273
350.249
351.152
352.217
353.27
354.063
354.81
355.344
355.783
356.027
356.099
356.059
355.866
355.497
355.004
354.329
353.475
352.591
351.614
350.419
349.365
343.276
344.074
344.962
345.906
346.708
347.277
347.695
348.102
348.336
348.352
348.308
348.193
347.87
347.468
346.922
346.157
345.369
344.461
343.452
342.606
336.515
337.222
337.99
338.635
339.315
339.794
340.231
340.541
340.698
340.773
340.712
340.551
340.276
340.047
339.424
338.922
338.273
337.493
336.678
335.928
329.782
330.311
330.983
331.516
332.048
332.463
332.793
332.997
333.137
333.195
333.273
333.065
332.964
332.595
332.258
331.744
331.185
330.585
329.905
329.395
323.133
323.486
324.01
324.447
324.888
325.149
325.447
325.537
325.78
325.828
325.784
325.635
325.522
325.283
324.9
324.728
324.168
323.758
323.203
322.785
316.445
316.767
317.108
317.433
317.68
317.938
318.132
318.241
318.347
318.364
318.411
318.303
318.165
318.033
317.816
317.592
317.264
316.934
316.56
316.227
309.859
309.996
310.28
310.442
310.62
310.786
310.869
311.031
311.006
311.034
311.053
310.981
310.942
310.784
310.682
310.467
310.313
310.098
309.938
309.718
303.292
303.324
303.389
303.573
303.528
303.591
303.654
303.589
303.738
303.731
303.674
303.68
303.607
303.649
303.571
303.538
303.452
303.402
303.3
303.276
350.5
351.507
352.538
353.54
354.461
355.108
355.717
356.129
356.342
356.477
356.41
356.166
355.843
355.369
354.689
353.896
352.933
351.905
350.849
349.69
343.595
344.392
345.436
346.246
346.935
347.54
348.031
348.359
348.606
348.758
348.669
348.473
348.156
347.747
347.146
346.522
345.68
344.825
343.828
342.913
336.747
337.425
338.181
338.938
339.548
339.987
340.458
340.743
340.962
341.008
340.977
340.863
340.63
340.216
339.737
339.177
338.558
337.684
336.892
336.238
329.946
330.48
331.131
331.723
332.322
332.639
332.944
333.261
333.382
333.421
333.448
333.371
333.195
332.804
332.42
331.989
331.331
330.805
330.145
329.584
323.248
323.684
324.106
324.624
324.91
325.394
325.613
325.841
325.871
325.963
325.964
325.806
325.718
325.498
325.143
324.73
324.308
323.835
323.308
322.927
316.62
316.869
317.245
317.49
317.777
317.956
318.268
318.455
318.432
318.484
318.481
318.401
318.293
318.132
317.921
317.648
317.325
317.086
316.589
316.343
309.919
310.114
310.321
310.527
310.677
310.853
310.952
311.046
310.995
311.075
311.034
311.021
310.976
310.898
310.762
310.674
310.495
310.182
309.965
309.761
303.311
303.344
303.366
303.485
303.597
303.628
303.659
303.706
303.706
303.715
303.694
303.683
303.66
303.64
303.595
303.502
303.401
303.374
303.366
303.323
350.564
351.593
352.778
353.705
354.55
355.316
355.918
356.367
356.56
356.726
356.662
356.421
356.051
355.546
354.859
354.077
353.191
352.11
350.974
349.878
343.605
344.598
345.456
346.315
347.056
347.744
348.215
348.599
348.818
348.837
348.871
348.765
348.339
347.927
347.398
346.715
345.868
344.96
343.982
343.109
336.818
337.533
338.298
339.056
339.656
340.172
340.625
340.932
341.128
341.154
341.07
340.999
340.765
340.388
339.928
339.284
338.702
337.85
337.064
336.356
330.01
330.584
331.21
331.82
332.323
332.733
333.123
333.429
333.477
333.565
333.554
333.44
333.246
332.877
332.503
332.085
331.512
330.87
330.276
329.687
323.325
323.722
324.19
324.627
325.06
325.444
325.723
325.842
326.011
326.055
326.065
325.901
325.757
325.501
325.221
324.908
324.458
323.994
323.504
322.998
316.608
316.928
317.237
317.591
317.938
318.124
318.275
318.485
318.5
318.556
318.617
318.556
318.328
318.159
318.006
317.845
317.429
317.129
316.641
316.376
309.956
310.158
310.449
310.523
310.749
310.845
311.011
311.057
311.165
311.085
311.113
311.024
311.063
310.93
310.792
310.615
310.465
310.308
310.018
309.904
303.324
303.42
303.527
303.568
303.543
303.653
303.623
303.728
303.737
303.756
303.745
303.739
303.671
303.639
303.643
303.528
303.522
303.427
303.452
303.303
)
;

boundaryField
{
    hotSide
    {
        type            fixedGradient;
        gradient        nonuniform List<scalar> 
400
(
321.511
322.87
325.591
329.677
335.133
341.965
350.181
359.788
370.794
383.208
397.037
412.289
428.971
447.088
466.647
487.651
510.105
534.011
559.372
586.191
323.738
325.08
327.767
331.802
337.194
343.949
352.078
361.591
372.498
384.81
398.537
413.687
430.268
448.289
467.755
488.672
511.043
534.872
560.161
586.913
326.149
327.47
330.116
334.091
339.406
346.071
354.099
363.503
374.296
386.491
400.101
415.136
431.606
449.52
468.885
489.706
511.988
535.735
560.948
587.63
328.704
330
332.597
336.503
341.73
348.292
356.205
365.485
376.15
388.215
401.695
416.604
432.954
450.753
470.009
490.73
512.919
536.579
561.714
588.325
331.33
332.599
335.142
338.97
344.099
350.546
358.332
367.477
378.003
389.928
403.271
418.047
434.27
451.949
471.095
491.712
513.807
537.382
562.439
588.978
333.918
335.158
337.643
341.389
346.414
352.74
360.392
369.397
379.779
391.562
404.765
419.407
435.503
453.065
472.101
492.618
514.622
538.114
563.096
589.569
336.321
337.531
339.959
343.622
348.544
354.751
362.274
371.142
381.385
393.031
406.101
420.618
436.595
454.047
472.983
493.409
515.33
538.747
563.663
590.076
338.36
339.543
341.92
345.509
350.339
356.44
363.847
372.595
382.718
394.244
407.2
421.608
437.485
454.844
473.695
494.045
515.897
539.253
564.114
590.478
339.852
341.015
343.352
346.885
351.645
357.665
364.985
373.643
383.675
395.113
407.984
422.312
438.116
455.407
474.197
494.491
516.294
539.606
564.428
590.758
340.643
341.795
344.11
347.613
352.334
358.311
365.584
374.193
384.176
395.567
408.393
422.679
438.443
455.699
474.456
494.722
516.498
539.788
564.589
590.901
340.643
341.795
344.11
347.613
352.334
358.311
365.584
374.193
384.176
395.567
408.393
422.679
438.443
455.699
474.456
494.722
516.498
539.788
564.589
590.901
339.852
341.015
343.352
346.885
351.645
357.665
364.985
373.643
383.675
395.113
407.984
422.312
438.116
455.407
474.197
494.491
516.294
539.606
564.428
590.758
338.36
339.543
341.92
345.509
350.339
356.44
363.847
372.595
382.718
394.244
407.2
421.608
437.485
454.844
473.695
494.045
515.897
539.253
564.114
590.478
336.321
337.531
339.959
343.622
348.544
354.751
362.274
371.142
381.385
393.031
406.101
420.618
436.595
454.047
472.983
493.409
515.33
538.747
563.663
590.076
333.918
335.158
337.643
341.389
346.414
352.74
360.392
369.397
379.779
391.562
404.765
419.407
435.503
453.065
472.101
492.618
514.622
538.114
563.096
589.569
331.33
332.599
335.142
338.97
344.099
350.546
358.332
367.477
378.003
389.928
403.271
418.047
434.27
451.949
471.095
491.712
513.807
537.382
562.439
588.978
328.704
330
332.597
336.503
341.73
348.292
356.205
365.485
376.15
388.215
401.695
416.604
432.954
450.753
470.009
490.73
512.919
536.579
561.714
588.325
326.149
327.47
330.116
334.091
339.406
346.071
354.099
363.503
374.296
386.491
400.101
415.136
431.606
449.52
468.885
489.706
511.988
535.735
560.948
587.63
323.738
325.08
327.767
331.802
337.194
343.949
352.078
361.591
372.498
384.81
398.537
413.687
430.268
448.289
467.755
488.672
511.043
534.872
560.161
586.913
321.511
322.87
325.591
329.677
335.133
341.965
350.181
359.788
370.794
383.208
397.037
412.289
428.971
447.088
466.647
487.651
510.105
534.011
559.372
586.191
)
;
    }
    coldSide
    {
        type            mixed;
        refValue        uniform 300;
        refGradient     uniform 0;
        valueFraction   uniform 0.991591;
        source          uniform 0;
        value           nonuniform List<scalar> 
400
(
300.02
300.02
300.021
300.021
300.022
300.022
300.023
300.023
300.024
300.025
300.025
300.026
300.026
300.027
300.027
300.027
300.028
300.028
300.028
300.028
300.02
300.02
300.021
300.021
300.022
300.023
300.024
300.024
300.025
300.025
300.026
300.026
300.026
300.027
300.028
300.028
300.028