/*--------------------------------*- C++ -*----------------------------------*\
| =========                 |                                                 |
| \\      /  F ield         | OpenFOAM: The Open Source CFD Toolbox           |
|  \\    /   O peration     | Version:  2212                                  |
|   \\  /    A nd           | Website:  www.openfoam.com                      |
|    \\/     M anipulation  |                                                 |
\*---------------------------------------------------------------------------*/
FoamFile
{
    version     2.0;
    format      ascii;
    arch        "LSB;label=32;scalar=64";
    class       volScalarField;
    location    "0";
    object      Tdirect;
}
// * * * * * * * * * * * * * * * * * * * * * * * * * * * * * * * * * * * * * //

dimensions      [0 0 0 1 0 0 0];

internalField   nonuniform List<scalar> 
3200
(
349.363
350.043
350.911
351.856
352.831
353.787
354.669
355.414
355.957
356.244
356.244
355.957
355.414
354.669
353.787
352.831
351.856
350.911
350.043
349.363
342.804
343.379
344.128
344.946
345.789
346.616
347.379
348.023
348.491
348.739
348.739
348.491
348.023
347.379
346.616
345.789
344.946
344.128
343.379
342.804
336.236
336.713
337.344
338.035
338.748
339.447
340.091
340.634
341.03
341.238
341.238
341.03
340.634
340.091
339.447
338.748
338.035
337.344
336.713
336.236
329.662
330.046
330.56
331.125
331.707
332.278
332.805
333.248
333.571
333.741
333.741
333.571
333.248
332.805
332.278
331.707
331.125
330.56
330.046
329.662
323.082
323.377
323.776
324.215
324.667
325.111
325.52
325.864
326.115
326.247
326.247
326.115
325.864
325.52
325.111
324.667
324.215
323.776
323.377
323.082
316.498
316.707
316.991
317.305
317.628
317.945
318.236
318.482
318.661
318.755
318.755
318.661
318.482
318.236
317.945
317.628
317.305
316.991
316.707
316.498
309.911
310.036
310.206
310.394
310.588
310.779
310.954
311.101
311.209
311.265
311.265
311.209
311.101
310.954
310.779
310.588
310.394
310.206
310.036
309.911
303.323
303.364
303.421
303.484
303.549
303.613
303.672
303.721
303.757
303.776
303.776
303.757
303.721
303.672
303.613
303.549
303.484
303.421
303.364
303.323
349.527
350.201
351.062
351.999
352.963
353.909
354.781
355.517
356.052
356.335
356.335
356.052
355.517
354.781
353.909
352.963
351.999
351.062
350.201
349.527
342.946
343.516
344.259
345.069
345.904
346.722
347.476
348.112
348.574
348.819
348.819
348.574
348.112
347.476
346.722
345.904
345.069
344.259
343.516
342.946
336.356
336.83
337.455
338.14
338.845
339.536
340.173
340.709
341.1
341.306
341.306
341.1
340.709
340.173
339.536
338.845
338.14
337.455
336.83
336.356
329.76
330.141
330.651
331.21
331.787
332.352
332.872
333.31
333.628
333.797
333.797
333.628
333.31
332.872
332.352
331.787
331.21
330.651
330.141
329.76
323.158
323.451
323.846
324.281
324.729
325.168
325.572
325.912
326.16
326.29
326.29
326.16
325.912
325.572
325.168
324.729
324.281
323.846
323.451
323.158
316.552
316.76
317.041
317.352
317.672
317.985
318.274
318.517
318.693
318.786
318.786
318.693
318.517
318.274
317.985
317.672
317.352
317.041
316.76
316.552
309.944
310.067
310.236
310.423
310.615
310.803
310.976
311.122
311.228
311.284
311.284
311.228
311.122
310.976
310.803
310.615
310.423
310.236
310.067
309.944
303.333
303.375
303.431
303.494
303.558
303.621
303.679
303.728
303.764
303.782
303.782
303.764
303.728
303.679
303.621
303.558
303.494
303.431
303.375
303.333
349.856
350.52
351.365
352.285
353.23
354.155
355.007
355.725
356.247
356.522
356.522
356.247
355.725
355.007
354.155
353.23
352.285
351.365
350.52
349.856
343.23
343.792
344.521
345.317
346.135
346.935
347.672
348.292
348.743
348.981
348.981
348.743
348.292
347.672
346.935
346.135
345.317
344.521
343.792
343.23
336.596
337.063
337.677
338.349
339.041
339.717
340.339
340.863
341.243
341.444
341.444
341.243
340.863
340.339
339.717
339.041
338.349
337.677
337.063
336.596
329.956
330.331
330.832
331.382
331.947
332.5
333.008
333.435
333.746
333.91
333.91
333.746
333.435
333.008
332.5
331.947
331.382
330.832
330.331
329.956
323.311
323.599
323.988
324.415
324.854
325.283
325.678
326.01
326.251
326.378
326.378
326.251
326.01
325.678
325.283
324.854
324.415
323.988
323.599
323.311
316.661
316.865
317.142
317.447
317.761
318.068
318.349
318.586
318.759
318.849
318.849
318.759
318.586
318.349
318.068
317.761
317.447
317.142
316.865
316.661
310.009
310.131
310.297
310.48
310.668
310.853
311.022
311.164
311.267
311.322
311.322
311.267
311.164
311.022
310.853
310.668
310.48
310.297
310.131
310.009
303.355
303.396
303.452
303.513
303.576
303.638
303.695
303.742
303.777
303.795
303.795
303.777
303.742
303.695
303.638
303.576
303.513
303.452
303.396
303.355
350.351
350.999
351.824
352.718
353.635
354.531
355.354
356.046
356.548
356.813
356.813
356.548
356.046
355.354
354.531
353.635
352.718
351.824
350.999
350.351
343.659
344.207
344.918
345.692
346.486
347.261
347.973
348.571
349.005
349.234
349.234
349.005
348.571
347.973
347.261
346.486
345.692
344.918
344.207
343.659
336.958
337.414
338.013
338.667
339.338
339.992
340.594
341.098
341.465
341.658
341.658
341.465
341.098
340.594
339.992
339.338
338.667
338.013
337.414
336.958
330.252
330.618
331.107
331.641
332.19
332.725
333.216
333.629
333.928
334.085
334.085
333.928
333.629
333.216
332.725
332.19
331.641
331.107
330.618
330.252
323.541
323.822
324.201
324.616
325.043
325.459
325.84
326.161
326.393
326.515
326.515
326.393
326.161
325.84
325.459
325.043
324.616
324.201
323.822
323.541
316.826
317.025
317.295
317.591
317.896
318.193
318.465
318.694
318.86
318.947
318.947
318.86
318.694
318.465
318.193
317.896
317.591
317.295
317.025
316.826
310.108
310.227
310.389
310.567
310.75
310.928
311.091
311.229
311.328
311.381
311.381
311.328
311.229
311.091
310.928
310.75
310.567
310.389
310.227
310.108
303.388
303.428
303.482
303.542
303.603
303.663
303.718
303.764
303.797
303.815
303.815
303.797
303.764
303.718
303.663
303.603
303.542
303.482
303.428
303.388
351.014
351.643
352.44
353.302
354.184
355.042
355.829
356.488
356.967
357.218
357.218
356.967
356.488
355.829
355.042
354.184
353.302
352.44
351.643
351.014
344.232
344.764
345.452
346.198
346.962
347.704
348.385
348.955
349.368
349.586
349.586
349.368
348.955
348.385
347.704
346.962
346.198
345.452
344.764
344.232
337.443
337.885
338.464
339.095
339.74
340.368
340.942
341.424
341.773
341.956
341.956
341.773
341.424
340.942
340.368
339.74
339.095
338.464
337.885
337.443
330.648
331.004
331.476
331.992
332.519
333.032
333.502
333.895
334.18
334.33
334.33
334.18
333.895
333.502
333.032
332.519
331.992
331.476
331.004
330.648
323.849
324.122
324.488
324.889
325.299
325.697
326.062
326.368
326.589
326.706
326.706
326.589
326.368
326.062
325.697
325.299
324.889
324.488
324.122
323.849
317.046
317.239
317.5
317.786
318.079
318.364
318.624
318.842
319
319.083
319.083
319
318.842
318.624
318.364
318.079
317.786
317.5
317.239
317.046
310.24
310.355
310.512
310.684
310.859
311.03
311.187
311.318
311.412
311.462
311.462
311.412
311.318
311.187
311.03
310.859
310.684
310.512
310.355
310.24
303.433
303.471
303.524
303.581
303.64
303.697
303.75
303.794
303.826
303.842
303.842
303.826
303.794
303.75
303.697
303.64
303.581
303.524
303.471
303.433
351.848
352.453
353.218
354.043
354.883
355.698
356.442
357.065
357.514
357.751
357.751
357.514
357.065
356.442
355.698
354.883
354.043
353.218
352.453
351.848
344.954
345.466
346.126
346.84
347.567
348.273
348.916
349.455
349.843
350.048
350.048
349.843
349.455
348.916
348.273
347.567
346.84
346.126
345.466
344.954
338.053
338.478
339.034
339.637
340.252
340.848
341.392
341.847
342.175
342.348
342.348
342.175
341.847
341.392
340.848
340.252
339.637
339.034
338.478
338.053
331.147
331.489
331.942
332.435
332.938
333.425
333.87
334.241
334.51
334.651
334.651
334.51
334.241
333.87
333.425
332.938
332.435
331.942
331.489
331.147
324.236
324.499
324.85
325.234
325.625
326.003
326.349
326.637
326.846
326.955
326.955
326.846
326.637
326.349
326.003
325.625
325.234
324.85
324.499
324.236
317.322
317.508
317.759
318.033
318.312
318.582
318.829
319.035
319.184
319.262
319.262
319.184
319.035
318.829
318.582
318.312
318.033
317.759
317.508
317.322
310.406
310.517
310.667
310.832
310.999
311.162
311.31
311.433
311.523
311.57
311.57
311.523
311.433
311.31
311.162
310.999
310.832
310.667
310.517
310.406
303.488
303.525
303.576
303.631
303.687
303.742
303.791
303.833
303.862
303.878
303.878
303.862
303.833
303.791
303.742
303.687
303.631
303.576
303.525
303.488
352.856
353.434
354.163
354.946
355.74
356.507
357.205
357.786
358.205
358.425
358.425
358.205
357.786
357.205
356.507
355.74
354.946
354.163
353.434
352.856
345.826
346.315
346.944
347.622
348.309
348.973
349.577
350.08
350.443
350.633
350.633
350.443
350.08
349.577
348.973
348.309
347.622
346.944
346.315
345.826
338.79
339.196
339.726
340.299
340.88
341.441
341.952
342.376
342.683
342.843
342.843
342.683
342.376
341.952
341.441
340.88
340.299
339.726
339.196
338.79
331.749
332.076
332.508
332.976
333.451
333.91
334.328
334.675
334.925
335.056
335.056
334.925
334.675
334.328
333.91
333.451
332.976
332.508
332.076
331.749
324.704
324.955
325.29
325.654
326.024
326.381
326.705
326.975
327.169
327.271
327.271
327.169
326.975
326.705
326.381
326.024
325.654
325.29
324.955
324.704
317.657
317.834
318.073
318.333
318.597
318.852
319.083
319.276
319.415
319.488
319.488
319.415
319.276
319.083
318.852
318.597
318.333
318.073
317.834
317.657
310.607
310.713
310.856
311.012
311.171
311.324
311.463
311.578
311.662
311.705
311.705
311.662
311.578
311.463
311.324
311.171
311.012
310.856
310.713
310.607
303.556
303.591
303.639
303.691
303.744
303.796
303.842
303.881
303.909
303.924
303.924
303.909
303.881
303.842
303.796
303.744
303.691
303.639
303.591
303.556
354.04
354.589
355.279
356.017
356.762
357.478
358.127
358.665
359.053
359.256
359.256
359.053
358.665
358.127
357.478
356.762
356.017
355.279
354.589
354.04
346.851
347.315
347.911
348.55
349.195
349.815
350.376
350.842
351.177
351.353
351.353
351.177
350.842
350.376
349.815
349.195
348.55
347.911
347.315
346.851
339.656
340.042
340.543
341.083
341.629
342.153
342.628
343.022
343.305
343.453
343.453
343.305
343.022
342.628
342.153
341.629
341.083
340.543
340.042
339.656
332.457
332.767
333.176
333.618
334.064
334.493
334.881
335.203
335.434
335.555
335.555
335.434
335.203
334.881
334.493
334.064
333.618
333.176
332.767
332.457
325.254
325.493
325.81
326.153
326.5
326.834
327.135
327.385
327.565
327.659
327.659
327.565
327.385
327.135
326.834
326.5
326.153
325.81
325.493
325.254
318.049
318.218
318.444
318.689
318.937
319.175
319.391
319.57
319.698
319.765
319.765
319.698
319.57
319.391
319.175
318.937
318.689
318.444
318.218
318.049
310.843
310.943
311.079
311.226
311.375
311.518
311.647
311.755
311.832
311.872
311.872
311.832
311.755
311.647
311.518
311.375
311.226
311.079
310.943
310.843
303.635
303.668
303.714
303.763
303.813
303.861
303.904
303.94
303.966
303.98
303.98
303.966
303.94
303.904
303.861
303.813
303.763
303.714
303.668
303.635
355.404
355.923
356.572
357.263
357.957
358.621
359.22
359.715
360.07
360.255
360.255
360.07
359.715
359.22
358.621
357.957
357.263
356.572
355.923
355.404
348.031
348.47
349.03
349.628
350.229
350.805
351.323
351.752
352.059
352.219
352.219
352.059
351.752
351.323
350.805
350.229
349.628
349.03
348.47
348.031
340.654
341.018
341.49
341.995
342.504
342.99
343.429
343.791
344.05
344.186
344.186
344.05
343.791
343.429
342.99
342.504
341.995
341.49
341.018
340.654
333.272
333.566
333.95
334.364
334.78
335.178
335.536
335.832
336.044
336.155
336.155
336.044
335.832
335.536
335.178
334.78
334.364
333.95
333.566
333.272
325.888
326.113
326.412
326.733
327.057
327.366
327.645
327.875
328.04
328.126
328.126
328.04
327.875
327.645
327.366
327.057
326.733
326.412
326.113
325.888
318.502
318.661
318.874
319.104
319.335
319.556
319.755
319.919
320.037
320.099
320.099
320.037
319.919
319.755
319.556
319.335
319.104
318.874
318.661
318.502
311.114
311.209
311.337
311.475
311.614
311.746
311.866
311.965
312.035
312.072
312.072
312.035
311.965
311.866
311.746
311.614
311.475
311.337
311.209
311.114
303.726
303.758
303.8
303.847
303.893
303.938
303.978
304.011
304.034
304.047
304.047
304.034
304.011
303.978
303.938
303.893
303.847
303.8
303.758
303.726
356.951
357.438
358.046
358.689
359.332
359.944
360.493
360.945
361.268
361.437
361.437
361.268
360.945
360.493
359.944
359.332
358.689
358.046
357.438
356.951
349.37
349.782
350.307
350.863
351.42
351.95
352.426
352.817
353.097
353.243
353.243
353.097
352.817
352.426
351.95
351.42
350.863
350.307
349.782
349.37
341.785
342.127
342.569
343.04
343.511
343.959
344.361
344.692
344.929
345.052
345.052
344.929
344.692
344.361
343.959
343.511
343.04
342.569
342.127
341.785
334.197
334.473
334.833
335.218
335.603
335.97
336.299
336.57
336.763
336.864
336.864
336.763
336.57
336.299
335.97
335.603
335.218
334.833
334.473
334.197
326.607
326.819
327.098
327.398
327.697
327.982
328.238
328.449
328.599
328.677
328.677
328.599
328.449
328.238
327.982
327.697
327.398
327.098
326.819
326.607
319.016
319.165
319.365
319.578
319.792
319.996
320.179
320.329
320.437
320.493
320.493
320.437
320.329
320.179
319.996
319.792
319.578
319.365
319.165
319.016
311.423
311.512
311.632
311.76
311.888
312.011
312.121
312.211
312.275
312.309
312.309
312.275
312.211
312.121
312.011
311.888
311.76
311.632
311.512
311.423
303.829
303.859
303.899
303.942
303.985
304.026
304.063
304.093
304.115
304.126
304.126
304.115
304.093
304.063
304.026
303.985
303.942
303.899
303.859
303.829
358.684
359.14
359.705
360.301
360.893
361.454
361.955
362.365
362.658
362.81
362.81
362.658
362.365
361.955
361.454
360.893
360.301
359.705
359.14
358.684
350.87
351.256
351.744
352.259
352.772
353.258
353.692
354.048
354.301
354.433
354.433
354.301
354.048
353.692
353.258
352.772
352.259
351.744
351.256
350.87
343.053
343.373
343.784
344.22
344.654
345.065
345.432
345.733
345.947
346.059
346.059
345.947
345.733
345.432
345.065
344.654
344.22
343.784
343.373
343.053
335.234
335.491
335.827
336.183
336.538
336.875
337.175
337.421
337.596
337.687
337.687
337.596
337.421
337.175
336.875
336.538
336.183
335.827
335.491
335.234
327.413
327.611
327.871
328.148
328.424
328.686
328.919
329.111
329.247
329.318
329.318
329.247
329.111
328.919
328.686
328.424
328.148
327.871
327.611
327.413
319.591
319.731
319.916
320.115
320.312
320.499
320.666
320.802
320.9
320.95
320.95
320.9
320.802
320.666
320.499
320.312
320.115
319.916
319.731
319.591
311.768
311.852
311.963
312.082
312.2
312.313
312.413
312.495
312.553
312.584
312.584
312.553
312.495
312.413
312.313
312.2
312.082
311.963
311.852
311.768
303.945
303.973
304.01
304.05
304.09
304.127
304.161
304.188
304.208
304.218
304.218
304.208
304.188
304.161
304.127
304.09
304.05
304.01
303.973
303.945
360.606
361.03
361.554
362.104
362.647
363.158
363.613
363.984
364.248
364.385
364.385
364.248
363.984
363.613
363.158
362.647
362.104
361.554
361.03
360.606
352.533
352.892
353.345
353.82
354.291
354.734
355.128
355.45
355.678
355.797
355.797
355.678
355.45
355.128
354.734
354.291
353.82
353.345
352.892
352.533
344.459
344.757
345.138
345.54
345.938
346.313
346.647
346.919
347.112
347.212
347.212
347.112
346.919
346.647
346.313
345.938
345.54
345.138
344.757
344.459
336.383
336.623
336.934
337.263
337.588
337.895
338.168
338.391
338.549
338.631
338.631
338.549
338.391
338.168
337.895
337.588
337.263
336.934
336.623
336.383
328.306
328.49
328.732
328.987
329.241
329.48
329.692
329.865
329.988
330.051
330.051
329.988
329.865
329.692
329.48
329.241
328.987
328.732
328.49
328.306
320.229
320.359
320.531
320.714
320.895
321.066
321.217
321.341
321.429
321.474
321.474
321.429
321.341
321.217
321.066
320.895
320.714
320.531
320.359
320.229
312.151
312.229
312.332
312.442
312.551
312.653
312.744
312.818
312.871
312.899
312.899
312.871
312.818
312.744
312.653
312.551
312.442
312.332
312.229
312.151
304.073
304.099
304.134
304.171
304.207
304.241
304.272
304.297
304.314
304.324
304.324
304.314
304.297
304.272
304.241
304.207
304.171
304.134
304.099
304.073
362.718
363.112
363.596
364.101
364.597
365.061
365.472
365.807
366.043
366.166
366.166
366.043
365.807
365.472
365.061
364.597
364.101
363.596
363.112
362.718
354.361
354.695
355.112
355.549
355.979
356.382
356.738
357.028
357.233
357.339
357.339
357.233
357.028
356.738
356.382
355.979
355.549
355.112
354.695
354.361
346.004
346.28
346.632
347.002
347.366
347.707
348.008
348.253
348.427
348.517
348.517
348.427
348.253
348.008
347.707
347.366
347.002
346.632
346.28
346.004
337.646
337.869
338.156
338.458
338.756
339.035
339.282
339.482
339.624
339.698
339.698
339.624
339.482
339.282
339.035
338.756
338.458
338.156
337.869
337.646
329.288
329.459
329.682
329.917
330.149
330.366
330.558
330.714
330.824
330.881
330.881
330.824
330.714
330.558
330.366
330.149
329.917
329.682
329.459
329.288
320.93
321.051
321.21
321.378
321.543
321.699
321.836
321.947
322.026
322.067
322.067
322.026
321.947
321.836
321.699
321.543
321.378
321.21
321.051
320.93
312.572
312.645
312.74
312.841
312.94
313.033
313.116
313.183
313.23
313.254
313.254
313.23
313.183
313.116
313.033
312.94
312.841
312.74
312.645
312.572
304.214
304.239
304.27
304.304
304.338
304.369
304.396
304.419
304.435
304.443
304.443
304.435
304.419
304.396
304.369
304.338
304.304
304.27
304.239
304.214
365.021
365.386
365.831
366.293
366.745
367.166
367.537
367.837
368.049
368.158
368.158
368.049
367.837
367.537
367.166
366.745
366.293
365.831
365.386
365.021
356.355
356.663
357.048
357.448
357.839
358.204
358.526
358.786
358.969
359.064
359.064
358.969
358.786
358.526
358.204
357.839
357.448
357.048
356.663
356.355
347.689
347.944
348.268
348.607
348.938
349.247
349.519
349.739
349.895
349.975
349.975
349.895
349.739
349.519
349.247
348.938
348.607
348.268
347.944
347.689
339.024
339.229
339.493
339.77
340.041
340.294
340.517
340.697
340.824
340.89
340.89
340.824
340.697
340.517
340.294
340.041
339.77
339.493
339.229
339.024
330.359
330.517
330.722
330.937
331.148
331.345
331.518
331.658
331.757
331.808
331.808
331.757
331.658
331.518
331.345
331.148
330.937
330.722
330.517
330.359
321.695
321.807
321.953
322.107
322.257
322.398
322.522
322.622
322.693
322.729
322.729
322.693
322.622
322.522
322.398
322.257
322.107
321.953
321.807
321.695
313.031
313.098
313.186
313.278
313.369
313.453
313.528
313.588
313.63
313.652
313.652
313.63
313.588
313.528
313.453
313.369
313.278
313.186
313.098
313.031
304.368
304.391
304.42
304.451
304.481
304.51
304.534
304.555
304.569
304.576
304.576
304.569
304.555
304.534
304.51
304.481
304.451
304.42
304.391
304.368
367.514
367.849
368.259
368.681
369.091
369.471
369.805
370.074
370.263
370.361
370.361
370.263
370.074
369.805
369.471
369.091
368.681
368.259
367.849
367.514
358.511
358.795
359.148
359.514
359.869
360.199
360.488
360.722
360.886
360.97
360.97
360.886
360.722
360.488
360.199
359.869
359.514
359.148
358.795
358.511
349.511
349.746
350.044
350.353
350.654
350.933
351.178
351.375
351.514
351.586
351.586
351.514
351.375
351.178
350.933
350.654
350.353
350.044
349.746
349.511
340.512
340.702
340.945
341.197
341.444
341.673
341.873
342.034
342.148
342.207
342.207
342.148
342.034
341.873
341.673
341.444
341.197
340.945
340.702
340.512
331.516
331.661
331.85
332.046
332.238
332.416
332.572
332.698
332.786
332.832
332.832
332.786
332.698
332.572
332.416
332.238
332.046
331.85
331.661
331.516
322.521
322.624
322.758
322.899
323.036
323.163
323.274
323.364
323.427
323.46
323.46
323.427
323.364
323.274
323.163
323.036
322.899
322.758
322.624
322.521
313.527
313.589
313.669
313.754
313.836
313.913
313.979
314.033
314.071
314.091
314.091
314.071
314.033
313.979
313.913
313.836
313.754
313.669
313.589
313.527
304.534
304.555
304.582
304.61
304.638
304.663
304.686
304.704
304.717
304.723
304.723
304.717
304.704
304.686
304.663
304.638
304.61
304.582
304.555
304.534
370.184
370.493
370.868
371.253
371.625
371.968
372.268
372.508
372.677
372.764
372.764
372.677
372.508
372.268
371.968
371.625
371.253
370.868
370.493
370.184
360.82
361.081
361.405
361.738
362.061
362.359
362.618
362.827
362.973
363.049
363.049
362.973
362.827
362.618
362.359
362.061
361.738
361.405
361.081
360.82
351.46
351.677
351.95
352.231
352.505
352.757
352.977
353.153
353.277
353.341
353.341
353.277
353.153
352.977
352.757
352.505
352.231
351.95
351.677
351.46
342.105
342.279
342.501
342.732
342.956
343.162
343.342
343.487
343.588
343.641
343.641
343.588
343.487
343.342
343.162
342.956
342.732
342.501
342.279
342.105
332.753
332.887
333.059
333.239
333.413
333.573
333.713
333.826
333.905
333.946
333.946
333.905
333.826
333.713
333.573
333.413
333.239
333.059
332.887
332.753
323.404
323.499
323.622
323.75
323.874
323.989
324.089
324.17
324.226
324.255
324.255
324.226
324.17
324.089
323.989
323.874
323.75
323.622
323.499
323.404
314.057
314.114
314.188
314.265
314.339
314.408
314.468
314.517
314.551
314.568
314.568
314.551
314.517
314.468
314.408
314.339
314.265
314.188
314.114
314.057
304.712
304.731
304.756
304.781
304.806
304.83
304.85
304.866
304.877
304.883
304.883
304.877
304.866
304.85
304.83
304.806
304.781
304.756
304.731
304.712
373.005
373.289
373.632
373.983
374.32
374.63
374.899
375.114
375.265
375.342
375.342
375.265
375.114
374.899
374.63
374.32
373.983
373.632
373.289
373.005
363.254
363.495
363.791
364.094
364.387
364.656
364.889
365.076
365.207
365.274
365.274
365.207
365.076
364.889
364.656
364.387
364.094
363.791
363.495
363.254
353.512
353.711
353.961
354.218
354.466
354.693
354.891
355.049
355.16
355.217
355.217
355.16
355.049
354.891
354.693
354.466
354.218
353.961
353.711
353.512
343.778
343.939
344.142
344.353
344.555
344.742
344.904
345.033
345.124
345.17
345.17
345.124
345.033
344.904
344.742
344.555
344.353
344.142
343.939
343.778
334.051
334.174
334.332
334.496
334.654
334.799
334.925
335.026
335.096
335.133
335.133
335.096
335.026
334.925
334.799
334.654
334.496
334.332
334.174
334.051
324.33
324.417
324.53
324.647
324.759
324.863
324.953
325.025
325.076
325.102
325.102
325.076
325.025
324.953
324.863
324.759
324.647
324.53
324.417
324.33
314.613
314.665
314.732
314.802
314.87
314.933
314.987
315.03
315.06
315.076
315.076
315.06
315.03
314.987
314.933
314.87
314.802
314.732
314.665
314.613
304.898
304.915
304.938
304.962
304.984
305.005
305.023
305.038
305.048
305.053
305.053
305.048
305.038
305.023
305.005
304.984
304.962
304.938
304.915
304.898
375.904
376.165
376.479
376.799
377.105
377.385
377.628
377.821
377.956
378.025
378.025
377.956
377.821
377.628
377.385
377.105
376.799
376.479
376.165
375.904
365.744
365.965
366.237
366.514
366.78
367.023
367.233
367.401
367.518
367.578
367.578
367.518
367.401
367.233
367.023
366.78
366.514
366.237
365.965
365.744
355.602
355.786
356.015
356.25
356.475
356.681
356.859
357.001
357.1
357.151
357.151
357.1
357.001
356.859
356.681
356.475
356.25
356.015
355.786
355.602
345.477
345.625
345.811
346.004
346.188
346.357
346.503
346.619
346.701
346.742
346.742
346.701
346.619
346.503
346.357
346.188
346.004
345.811
345.625
345.477
335.365
335.479
335.624
335.773
335.917
336.048
336.162
336.253
336.316
336.348
336.348
336.316
336.253
336.162
336.048
335.917
335.773
335.624
335.479
335.365
325.265
325.345
325.449
325.555
325.658
325.752
325.833
325.898
325.943
325.967
325.967
325.943
325.898
325.833
325.752
325.658
325.555
325.449
325.345
325.265
315.173
315.221
315.283
315.347
315.408
315.465
315.514
315.553
315.58
315.594
315.594
315.58
315.553
315.514
315.465
315.408
315.347
315.283
315.221
315.173
305.085
305.101
305.122
305.144
305.164
305.183
305.2
305.213
305.222
305.227
305.227
305.222
305.213
305.2
305.183
305.164
305.144
305.122
305.101
305.085
378.694
378.935
379.225
379.519
379.799
380.054
380.274
380.449
380.571
380.634
380.634
380.571
380.449
380.274
380.054
379.799
379.519
379.225
378.935
378.694
368.112
368.317
368.567
368.822
369.066
369.288
369.479
369.631
369.737
369.791
369.791
369.737
369.631
369.479
369.288
369.066
368.822
368.567
368.317
368.112
357.569
357.739
357.95
358.167
358.373
358.561
358.724
358.853
358.943
358.989
358.989
358.943
358.853
358.724
358.561
358.373
358.167
357.95
357.739
357.569
347.06
347.197
347.37
347.547
347.716
347.871
348.004
348.11
348.184
348.221
348.221
348.184
348.11
348.004
347.871
347.716
347.547
347.37
347.197
347.06
336.581
336.686
336.82
336.958
337.09
337.211
337.314
337.397
337.454
337.484
337.484
337.454
337.397
337.314
337.211
337.09
336.958
336.82
336.686
336.581
326.125
326.199
326.295
326.394
326.488
326.574
326.649
326.708
326.749
326.77
326.77
326.749
326.708
326.649
326.574
326.488
326.394
326.295
326.199
326.125
315.686
315.73
315.788
315.847
315.904
315.956
316
316.036
316.06
316.073
316.073
316.06
316.036
316
315.956
315.904
315.847
315.788
315.73
315.686
305.257
305.272
305.291
305.311
305.33
305.347
305.362
305.374
305.382
305.387
305.387
305.382
305.374
305.362
305.347
305.33
305.311
305.291
305.272
305.257
380.884
381.111
381.384
381.659
381.922
382.16
382.364
382.527
382.639
382.697
382.697
382.639
382.527
382.364
382.16
381.922
381.659
381.384
381.111
380.884
369.9
370.093
370.329
370.569
370.798
371.006
371.184
371.326
371.424
371.475
371.475
371.424
371.326
371.184
371.006
370.798
370.569
370.329
370.093
369.9
359.008
359.169
359.369
359.573
359.767
359.944
360.095
360.216
360.3
360.343
360.343
360.3
360.216
360.095
359.944
359.767
359.573
359.369
359.169
359.008
348.19
348.32
348.484
348.651
348.811
348.956
349.081
349.18
349.249
349.284
349.284
349.249
349.18
349.081
348.956
348.811
348.651
348.484
348.32
348.19
337.432
337.532
337.659
337.79
337.915
338.028
338.125
338.203
338.257
338.284
338.284
338.257
338.203
338.125
338.028
337.915
337.79
337.659
337.532
337.432
326.719
326.79
326.881
326.974
327.063
327.145
327.214
327.27
327.308
327.328
327.328
327.308
327.27
327.214
327.145
327.063
326.974
326.881
326.79
326.719
316.037
316.079
316.134
316.19
316.244
316.293
316.335
316.368
316.391
316.403
316.403
316.391
316.368
316.335
316.293
316.244
316.19
316.134
316.079
316.037
305.374
305.388
305.406
305.425
305.443
305.459
305.474
305.485
305.492
305.496
305.496
305.492
305.485
305.474
305.459
305.443
305.425
305.406
305.388
305.374
)
;

boundaryField
{
    hotSide
    {
        type            fixedGradient;
        gradient        nonuniform List<scalar> 
400
(
523.955
525.735
529.302
534.67
541.86
550.897
561.809
574.628
589.386
606.117
624.852
645.621
668.451
693.366
720.389
749.537
780.825
814.267
849.872
887.648
532.9
534.609
538.037
543.203
550.133
558.862
569.426
581.868
596.23
612.551
630.873
651.232
673.66
698.188
724.839
753.634
784.591
817.723
853.04
890.549
542.579
544.204
547.466
552.392
559.016
567.382
577.541
589.545
603.447
619.301
637.154
657.051
679.032
703.13
729.374
757.787
788.387
821.188
856.199
893.427
552.834
554.361
557.43
562.077
568.347
576.298
585.994
597.501
610.889
626.22
643.555
662.947
684.442
708.078
733.889
761.897
792.123
824.579
859.275
896.216
563.378
564.793
567.647
571.981
577.857
585.348
594.534
605.5
618.328
633.099
649.881
668.739
689.725
712.883
738.247
765.842
795.689
827.8
862.182
898.839
573.77
575.067
577.69
581.692
587.15
594.155
602.806
613.208
625.461
639.656
655.879
674.199
694.677
717.361
742.286
769.48
798.961
830.74
864.824
901.212
583.416
584.595
586.987
590.659
595.703
602.23
610.359
620.213
631.909
645.555
661.245
679.059
699.062
721.306
745.827
772.654
801.803
833.283
867.099
903.248
591.603
592.675
594.859
598.235
602.909
609.01
616.677
626.048
637.258
650.425
665.655
683.035
702.634
724.505
748.688
775.207
804.08
835.313
868.909
904.862
597.594
598.584
600.61
603.759
608.151
613.93
621.247
630.256
641.101
653.913
668.803
685.863
705.166
726.766
750.702
777
805.674
836.731
870.169
905.984
600.769
601.714
603.654
606.679
610.919
616.522
623.651
632.464
643.114
655.736
670.444
687.334
706.48
727.937
751.743
777.925
806.495
837.46
870.816
906.559
600.769
601.714
603.654
606.679
610.919
616.522
623.651
632.464
643.114
655.736
670.444
687.334
706.48
727.937
751.743
777.925
806.495
837.46
870.816
906.559
597.594
598.584
600.61
603.759
608.151
613.93
621.247
630.256
641.101
653.913
668.803
685.863
705.166
726.766
750.702
777
805.674
836.731
870.169
905.984
591.603
592.675
594.859
598.235
602.909
609.01
616.677
626.048
637.258
650.425
665.655
683.035
702.634
724.505
748.688
775.207
804.08
835.313
868.909
904.862
583.416
584.595
586.987
590.659
595.703
602.23
610.359
620.213
631.909
645.555
661.245
679.059
699.062
721.306
745.827
772.654
801.803
833.283
867.099
903.248
573.77
575.067
577.69
581.692
587.15
594.155
602.806
613.208
625.461
639.656
655.879
674.199
694.677
717.361
742.286
769.48
798.961
830.74
864.824
901.212
563.378
564.793
567.647
571.981
577.857
585.348
594.534
605.5
618.328
633.099
649.881
668.739
689.725
712.883
738.247
765.842
795.689
827.8
862.182
898.839
552.834
554.361
557.43
562.077
568.347
576.298
585.994
597.501
610.889
626.22
643.555
662.947
684.442
708.078
733.889
761.897
792.123
824.579
859.275
896.216
542.579
544.204
547.466
552.392
559.016
567.382
577.541
589.545
603.447
619.301
637.154
657.051
679.032
703.13
729.374
757.787
788.387
821.188
856.199
893.427
532.9
534.609
538.037
543.203
550.133
558.862
569.426
581.868
596.23
612.551
630.873
651.232
673.66
698.188
724.839
753.634
784.591
817.723
853.04
890.549
523.955
525.735
529.302
534.67
541.86
550.897
561.809
574.628
589.386
606.117
624.852
645.621
668.451
693.366
720.389
749.537
780.825
814.267
849.872
887.648
)
;
    }
    coldSide
    {
        type            mixed;
        refValue        uniform 300;
        refGradient     uniform 0;
        valueFraction   uniform 0.991591;
        source          uniform 0;
        value           nonuniform List<scalar> 
400
(
300.028
300.028
300.028
300.028
300.029
300.029
300.03
300.031
300.031
300.032
300.033
300.034
300.035
300.037
300.038
300.04
300.041
300.043
300.044
300.045
300.028
300.028
300.029
300.029
300.029
300.03
300.03
300.031
300.032
300.032
300.033
300.034
300.036
300.037
300.038
300.04