/*--------------------------------*- C++ -*----------------------------------*\
| =========                 |                                                 |
| \\      /  F ield         | OpenFOAM: The Open Source CFD Toolbox           |
|  \\    /   O peration     | Version:  2212                                  |
|   \\  /    A nd           | Website:  www.openfoam.com                      |
|    \\/     M anipulation  |                                                 |
\*---------------------------------------------------------------------------*/
FoamFile
{
    version     2.0;
    format      ascii;
    arch        "LSB;label=32;scalar=64";
    class       volScalarField;
    location    "0";
    object      Ttrue;
}
// * * * * * * * * * * * * * * * * * * * * * * * * * * * * * * * * * * * * * //

dimensions      [0 0 0 1 0 0 0];

internalField   nonuniform List<scalar> 
3200
(
339.44
339.721
340.081
340.474
340.878
341.274
341.641
341.95
342.175
342.294
342.294
342.175
341.95
341.641
341.274
340.878
340.474
340.081
339.721
339.44
334.092
334.33
334.641
334.98
335.33
335.673
335.989
336.256
336.451
336.554
336.554
336.451
336.256
335.989
335.673
335.33
334.98
334.641
334.33
334.092
328.783
328.981
329.243
329.529
329.825
330.115
330.382
330.607
330.771
330.858
330.858
330.771
330.607
330.382
330.115
329.825
329.529
329.243
328.981
328.783
323.508
323.667
323.88
324.115
324.356
324.593
324.811
324.995
325.129
325.2
325.2
325.129
324.995
324.811
324.593
324.356
324.115
323.88
323.667
323.508
318.26
318.382
318.548
318.73
318.917
319.102
319.271
319.414
319.518
319.573
319.573
319.518
319.414
319.271
319.102
318.917
318.73
318.548
318.382
318.26
313.034
313.12
313.238
313.368
313.502
313.634
313.755
313.857
313.931
313.97
313.97
313.931
313.857
313.755
313.634
313.502
313.368
313.238
313.12
313.034
307.823
307.874
307.945
308.023
308.104
308.183
308.255
308.316
308.361
308.384
308.384
308.361
308.316
308.255
308.183
308.104
308.023
307.945
307.874
307.823
302.621
302.639
302.662
302.688
302.715
302.742
302.766
302.787
302.802
302.809
302.809
302.802
302.787
302.766
302.742
302.715
302.688
302.662
302.639
302.621
339.598
339.878
340.235
340.623
341.023
341.416
341.777
342.083
342.305
342.422
342.422
342.305
342.083
341.777
341.416
341.023
340.623
340.235
339.878
339.598
334.229
334.465
334.773
335.109
335.456
335.795
336.108
336.371
336.563
336.665
336.665
336.563
336.371
336.108
335.795
335.456
335.109
334.773
334.465
334.229
328.898
329.095
329.354
329.638
329.931
330.217
330.481
330.704
330.866
330.951
330.951
330.866
330.704
330.481
330.217
329.931
329.638
329.354
329.095
328.898
323.602
323.76
323.971
324.203
324.443
324.677
324.893
325.074
325.206
325.276
325.276
325.206
325.074
324.893
324.677
324.443
324.203
323.971
323.76
323.602
318.333
318.454
318.618
318.799
318.985
319.167
319.334
319.475
319.578
319.632
319.632
319.578
319.475
319.334
319.167
318.985
318.799
318.618
318.454
318.333
313.086
313.172
313.288
313.417
313.55
313.68
313.8
313.9
313.974
314.012
314.012
313.974
313.9
313.8
313.68
313.55
313.417
313.288
313.172
313.086
307.854
307.905
307.975
308.053
308.132
308.21
308.282
308.343
308.387
308.41
308.41
308.387
308.343
308.282
308.21
308.132
308.053
307.975
307.905
307.854
302.632
302.649
302.672
302.698
302.725
302.751
302.775
302.795
302.81
302.818
302.818
302.81
302.795
302.775
302.751
302.725
302.698
302.672
302.649
302.632
339.916
340.191
340.542
340.923
341.315
341.699
342.052
342.35
342.567
342.681
342.681
342.567
342.35
342.052
341.699
341.315
340.923
340.542
340.191
339.916
334.503
334.736
335.038
335.368
335.707
336.039
336.345
336.602
336.789
336.888
336.888
336.789
336.602
336.345
336.039
335.707
335.368
335.038
334.736
334.503
329.129
329.323
329.578
329.856
330.143
330.424
330.682
330.899
331.057
331.14
331.14
331.057
330.899
330.682
330.424
330.143
329.856
329.578
329.323
329.129
323.79
323.946
324.154
324.382
324.616
324.845
325.056
325.233
325.362
325.43
325.43
325.362
325.233
325.056
324.845
324.616
324.382
324.154
323.946
323.79
318.479
318.599
318.76
318.937
319.119
319.297
319.461
319.599
319.699
319.751
319.751
319.699
319.599
319.461
319.297
319.119
318.937
318.76
318.599
318.479
313.19
313.275
313.389
313.516
313.646
313.773
313.89
313.988
314.06
314.097
314.097
314.06
313.988
313.89
313.773
313.646
313.516
313.389
313.275
313.19
307.917
307.967
308.036
308.112
308.19
308.266
308.337
308.396
308.438
308.461
308.461
308.438
308.396
308.337
308.266
308.19
308.112
308.036
307.967
307.917
302.653
302.67
302.693
302.718
302.744
302.77
302.793
302.813
302.827
302.835
302.835
302.827
302.813
302.793
302.77
302.744
302.718
302.693
302.67
302.653
340.393
340.662
341.004
341.375
341.755
342.127
342.468
342.755
342.963
343.073
343.073
342.963
342.755
342.468
342.127
341.755
341.375
341.004
340.662
340.393
334.914
335.142
335.437
335.758
336.087
336.408
336.704
336.952
337.132
337.227
337.227
337.132
336.952
336.704
336.408
336.087
335.758
335.437
335.142
334.914
329.476
329.665
329.914
330.185
330.463
330.735
330.984
331.194
331.346
331.426
331.426
331.346
331.194
330.984
330.735
330.463
330.185
329.914
329.665
329.476
324.073
324.225
324.428
324.65
324.877
325.099
325.303
325.474
325.598
325.663
325.663
325.598
325.474
325.303
325.099
324.877
324.65
324.428
324.225
324.073
318.699
318.815
318.973
319.145
319.322
319.494
319.652
319.785
319.882
319.932
319.932
319.882
319.785
319.652
319.494
319.322
319.145
318.973
318.815
318.699
313.347
313.429
313.541
313.664
313.791
313.914
314.027
314.122
314.19
314.227
314.227
314.19
314.122
314.027
313.914
313.791
313.664
313.541
313.429
313.347
308.011
308.06
308.127
308.201
308.277
308.351
308.419
308.475
308.517
308.538
308.538
308.517
308.475
308.419
308.351
308.277
308.201
308.127
308.06
308.011
302.684
302.701
302.723
302.748
302.773
302.798
302.821
302.84
302.854
302.861
302.861
302.854
302.84
302.821
302.798
302.773
302.748
302.723
302.701
302.684
341.03
341.291
341.622
341.979
342.345
342.701
343.027
343.301
343.499
343.604
343.604
343.499
343.301
343.027
342.701
342.345
341.979
341.622
341.291
341.03
335.464
335.685
335.97
336.28
336.596
336.904
337.187
337.423
337.594
337.685
337.685
337.594
337.423
337.187
336.904
336.596
336.28
335.97
335.685
335.464
329.94
330.123
330.363
330.625
330.893
331.153
331.391
331.591
331.736
331.812
331.812
331.736
331.591
331.391
331.153
330.893
330.625
330.363
330.123
329.94
324.451
324.599
324.795
325.009
325.227
325.44
325.635
325.798
325.916
325.978
325.978
325.916
325.798
325.635
325.44
325.227
325.009
324.795
324.599
324.451
318.992
319.105
319.257
319.424
319.594
319.759
319.91
320.037
320.129
320.177
320.177
320.129
320.037
319.91
319.759
319.594
319.424
319.257
319.105
318.992
313.556
313.636
313.744
313.863
313.984
314.103
314.211
314.301
314.367
314.401
314.401
314.367
314.301
314.211
314.103
313.984
313.863
313.744
313.636
313.556
308.136
308.184
308.249
308.32
308.393
308.464
308.529
308.583
308.622
308.643
308.643
308.622
308.583
308.529
308.464
308.393
308.32
308.249
308.184
308.136
302.726
302.742
302.764
302.788
302.812
302.836
302.858
302.876
302.889
302.896
302.896
302.889
302.876
302.858
302.836
302.812
302.788
302.764
302.742
302.726
341.829
342.08
342.397
342.74
343.088
343.426
343.735
343.993
344.179
344.278
344.278
344.179
343.993
343.735
343.426
343.088
342.74
342.397
342.08
341.829
336.154
336.366
336.64
336.936
337.237
337.53
337.797
338.02
338.182
338.266
338.266
338.182
338.02
337.797
337.53
337.237
336.936
336.64
336.366
336.154
330.521
330.697
330.928
331.178
331.433
331.681
331.906
332.095
332.231
332.303
332.303
332.231
332.095
331.906
331.681
331.433
331.178
330.928
330.697
330.521
324.925
325.067
325.255
325.46
325.668
325.871
326.055
326.209
326.32
326.379
326.379
326.32
326.209
326.055
325.871
325.668
325.46
325.255
325.067
324.925
319.36
319.469
319.615
319.774
319.936
320.093
320.236
320.356
320.442
320.488
320.488
320.442
320.356
320.236
320.093
319.936
319.774
319.615
319.469
319.36
313.818
313.895
313.999
314.113
314.229
314.341
314.443
314.529
314.59
314.623
314.623
314.59
314.529
314.443
314.341
314.229
314.113
313.999
313.895
313.818
308.293
308.339
308.402
308.47
308.54
308.607
308.668
308.72
308.757
308.776
308.776
308.757
308.72
308.668
308.607
308.54
308.47
308.402
308.339
308.293
302.779
302.794
302.815
302.838
302.861
302.884
302.905
302.922
302.934
302.941
302.941
302.934
302.922
302.905
302.884
302.861
302.838
302.815
302.794
302.779
342.791
343.03
343.333
343.658
343.987
344.305
344.594
344.836
345.009
345.101
345.101
345.009
344.836
344.594
344.305
343.987
343.658
343.333
343.03
342.791
336.983
337.186
337.447
337.728
338.013
338.289
338.539
338.748
338.898
338.977
338.977
338.898
338.748
338.539
338.289
338.013
337.728
337.447
337.186
336.983
331.221
331.389
331.609
331.846
332.087
332.32
332.532
332.708
332.835
332.902
332.902
332.835
332.708
332.532
332.32
332.087
331.846
331.609
331.389
331.221
325.496
325.631
325.811
326.005
326.202
326.392
326.565
326.709
326.813
326.868
326.868
326.813
326.709
326.565
326.392
326.202
326.005
325.811
325.631
325.496
319.803
319.907
320.046
320.197
320.35
320.498
320.633
320.744
320.825
320.867
320.867
320.825
320.744
320.633
320.498
320.35
320.197
320.046
319.907
319.803
314.134
314.208
314.307
314.415
314.524
314.63
314.726
314.806
314.863
314.894
314.894
314.863
314.806
314.726
314.63
314.524
314.415
314.307
314.208
314.134
308.483
308.527
308.586
308.651
308.717
308.78
308.838
308.886
308.92
308.939
308.939
308.92
308.886
308.838
308.78
308.717
308.651
308.586
308.527
308.483
302.842
302.857
302.877
302.899
302.921
302.942
302.961
302.977
302.989
302.995
302.995
302.989
302.977
302.961
302.942
302.921
302.899
302.877
302.857
302.842
343.916
344.144
344.43
344.736
345.045
345.342
345.611
345.834
345.995
346.079
346.079
345.995
345.834
345.611
345.342
345.045
344.736
344.43
344.144
343.916
337.954
338.147
338.394
338.659
338.926
339.184
339.417
339.61
339.749
339.822
339.822
339.749
339.61
339.417
339.184
338.926
338.659
338.394
338.147
337.954
332.039
332.199
332.407
332.631
332.857
333.075
333.272
333.435
333.553
333.614
333.614
333.553
333.435
333.272
333.075
332.857
332.631
332.407
332.199
332.039
326.164
326.292
326.462
326.645
326.83
327.008
327.169
327.303
327.399
327.449
327.449
327.399
327.303
327.169
327.008
326.83
326.645
326.462
326.292
326.164
320.321
320.42
320.551
320.694
320.838
320.976
321.101
321.205
321.279
321.318
321.318
321.279
321.205
321.101
320.976
320.838
320.694
320.551
320.42
320.321
314.504
314.574
314.667
314.769
314.872
314.971
315.06
315.134
315.187
315.215
315.215
315.187
315.134
315.06
314.971
314.872
314.769
314.667
314.574
314.504
308.705
308.746
308.803
308.864
308.925
308.985
309.038
309.083
309.115
309.132
309.132
309.115
309.083
309.038
308.985
308.925
308.864
308.803
308.746
308.705
302.917
302.931
302.949
302.97
302.991
303.01
303.028
303.043
303.054
303.06
303.06
303.054
303.043
303.028
303.01
302.991
302.97
302.949
302.931
302.917
345.206
345.421
345.691
345.977
346.265
346.541
346.789
346.994
347.142
347.219
347.219
347.142
346.994
346.789
346.541
346.265
345.977
345.691
345.421
345.206
339.068
339.25
339.482
339.73
339.98
340.218
340.433
340.611
340.738
340.805
340.805
340.738
340.611
340.433
340.218
339.98
339.73
339.482
339.25
339.068
332.978
333.129
333.325
333.535
333.745
333.947
334.129
334.279
334.387
334.443
334.443
334.387
334.279
334.129
333.947
333.745
333.535
333.325
333.129
332.978
326.93
327.051
327.211
327.382
327.555
327.72
327.868
327.991
328.079
328.125
328.125
328.079
327.991
327.868
327.72
327.555
327.382
327.211
327.051
326.93
320.915
321.009
321.132
321.266
321.4
321.528
321.644
321.739
321.808
321.843
321.843
321.808
321.739
321.644
321.528
321.4
321.266
321.132
321.009
320.915
314.928
314.994
315.082
315.177
315.273
315.365
315.447
315.515
315.564
315.59
315.59
315.564
315.515
315.447
315.365
315.273
315.177
315.082
314.994
314.928
308.959
308.998
309.051
309.109
309.166
309.221
309.271
309.312
309.341
309.356
309.356
309.341
309.312
309.271
309.221
309.166
309.109
309.051
308.998
308.959
303.002
303.015
303.033
303.052
303.071
303.09
303.106
303.12
303.13
303.135
303.135
303.13
303.12
303.106
303.09
303.071
303.052
303.033
303.015
303.002
346.663
346.865
347.117
347.384
347.651
347.904
348.132
348.32
348.454
348.524
348.524
348.454
348.32
348.132
347.904
347.651
347.384
347.117
346.865
346.663
340.325
340.496
340.714
340.945
341.176
341.395
341.593
341.755
341.871
341.932
341.932
341.871
341.755
341.593
341.395
341.176
340.945
340.714
340.496
340.325
334.038
334.18
334.363
334.558
334.754
334.94
335.107
335.244
335.342
335.393
335.393
335.342
335.244
335.107
334.94
334.754
334.558
334.363
334.18
334.038
327.794
327.908
328.058
328.218
328.377
328.53
328.666
328.778
328.858
328.9
328.9
328.858
328.778
328.666
328.53
328.377
328.218
328.058
327.908
327.794
321.586
321.674
321.79
321.914
322.038
322.157
322.263
322.35
322.412
322.445
322.445
322.412
322.35
322.263
322.157
322.038
321.914
321.79
321.674
321.586
315.406
315.468
315.551
315.64
315.728
315.813
315.889
315.951
315.996
316.019
316.019
315.996
315.951
315.889
315.813
315.728
315.64
315.551
315.468
315.406
309.246
309.283
309.333
309.386
309.439
309.49
309.536
309.573
309.6
309.614
309.614
309.6
309.573
309.536
309.49
309.439
309.386
309.333
309.283
309.246
303.098
303.11
303.127
303.145
303.163
303.18
303.195
303.208
303.217
303.221
303.221
303.217
303.208
303.195
303.18
303.163
303.145
303.127
303.11
303.098
348.288
348.477
348.711
348.958
349.204
349.437
349.644
349.815
349.936
349.999
349.999
349.936
349.815
349.644
349.437
349.204
348.958
348.711
348.477
348.288
341.727
341.887
342.09
342.304
342.516
342.718
342.898
343.045
343.15
343.205
343.205
343.15
343.045
342.898
342.718
342.516
342.304
342.09
341.887
341.727
335.22
335.353
335.523
335.704
335.884
336.055
336.207
336.332
336.421
336.467
336.467
336.421
336.332
336.207
336.055
335.884
335.704
335.523
335.353
335.22
328.759
328.865
329.004
329.152
329.3
329.439
329.564
329.666
329.738
329.776
329.776
329.738
329.666
329.564
329.439
329.3
329.152
329.004
328.865
328.759
322.335
322.417
322.525
322.64
322.754
322.863
322.959
323.039
323.095
323.125
323.125
323.095
323.039
322.959
322.863
322.754
322.64
322.525
322.417
322.335
315.94
315.998
316.075
316.157
316.239
316.316
316.386
316.442
316.483
316.504
316.504
316.483
316.442
316.386
316.316
316.239
316.157
316.075
315.998
315.94
309.566
309.601
309.647
309.696
309.746
309.792
309.834
309.868
309.892
309.905
309.905
309.892
309.868
309.834
309.792
309.746
309.696
309.647
309.601
309.566
303.205
303.217
303.232
303.249
303.265
303.281
303.295
303.306
303.314
303.319
303.319
303.314
303.306
303.295
303.281
303.265
303.249
303.232
303.217
303.205
350.081
350.257
350.474
350.702
350.927
351.14
351.328
351.482
351.591
351.648
351.648
351.591
351.482
351.328
351.14
350.927
350.702
350.474
350.257
350.081
343.275
343.424
343.611
343.809
344.004
344.188
344.351
344.484
344.579
344.628
344.628
344.579
344.484
344.351
344.188
344.004
343.809
343.611
343.424
343.275
336.525
336.648
336.807
336.973
337.139
337.294
337.432
337.545
337.625
337.667
337.667
337.625
337.545
337.432
337.294
337.139
336.973
336.807
336.648
336.525
329.823
329.922
330.051
330.188
330.323
330.45
330.563
330.656
330.721
330.755
330.755
330.721
330.656
330.563
330.45
330.323
330.188
330.051
329.922
329.823
323.161
323.237
323.337
323.443
323.548
323.647
323.735
323.807
323.858
323.884
323.884
323.858
323.807
323.735
323.647
323.548
323.443
323.337
323.237
323.161
316.529
316.583
316.655
316.73
316.805
316.876
316.939
316.99
317.027
317.046
317.046
317.027
316.99
316.939
316.876
316.805
316.73
316.655
316.583
316.529
309.92
309.952
309.995
310.04
310.085
310.128
310.166
310.197
310.218
310.23
310.23
310.218
310.197
310.166
310.128
310.085
310.04
309.995
309.952
309.92
303.324
303.335
303.349
303.364
303.379
303.393
303.406
303.416
303.424
303.428
303.428
303.424
303.416
303.406
303.393
303.379
303.364
303.349
303.335
303.324
352.043
352.207
352.407
352.617
352.822
353.015
353.186
353.324
353.423
353.473
353.473
353.423
353.324
353.186
353.015
352.822
352.617
352.407
352.207
352.043
344.968
345.106
345.28
345.461
345.639
345.806
345.954
346.074
346.159
346.204
346.204
346.159
346.074
345.954
345.806
345.639
345.461
345.28
345.106
344.968
337.953
338.067
338.213
338.367
338.518
338.659
338.784
338.886
338.958
338.995
338.995
338.958
338.886
338.784
338.659
338.518
338.367
338.213
338.067
337.953
330.988
331.08
331.199
331.325
331.448
331.564
331.666
331.749
331.808
331.839
331.839
331.808
331.749
331.666
331.564
331.448
331.325
331.199
331.08
330.988
324.065
324.135
324.228
324.325
324.421
324.511
324.591
324.656
324.701
324.725
324.725
324.701
324.656
324.591
324.511
324.421
324.325
324.228
324.135
324.065
317.174
317.224
317.29
317.36
317.428
317.493
317.549
317.596
317.628
317.645
317.645
317.628
317.596
317.549
317.493
317.428
317.36
317.29
317.224
317.174
310.307
310.336
310.376
310.418
310.459
310.498
310.532
310.56
310.579
310.59
310.59
310.579
310.56
310.532
310.498
310.459
310.418
310.376
310.336
310.307
303.453
303.463
303.477
303.491
303.504
303.517
303.529
303.538
303.545
303.548
303.548
303.545
303.538
303.529
303.517
303.504
303.491
303.477
303.463
303.453
354.174
354.325
354.51
354.702
354.889
355.064
355.217
355.342
355.43
355.475
355.475
355.43
355.342
355.217
355.064
354.889
354.702
354.51
354.325
354.174
346.807
346.935
347.094
347.26
347.423
347.574
347.707
347.815
347.892
347.931
347.931
347.892
347.815
347.707
347.574
347.423
347.26
347.094
346.935
346.807
339.503
339.609
339.743
339.884
340.021
340.149
340.262
340.353
340.418
340.451
340.451
340.418
340.353
340.262
340.149
340.021
339.884
339.743
339.609
339.503
332.252
332.338
332.447
332.562
332.675
332.779
332.872
332.947
332.999
333.027
333.027
332.999
332.947
332.872
332.779
332.675
332.562
332.447
332.338
332.252
325.046
325.111
325.196
325.286
325.373
325.455
325.527
325.585
325.626
325.647
325.647
325.626
325.585
325.527
325.455
325.373
325.286
325.196
325.111
325.046
317.874
317.92
317.981
318.045
318.107
318.165
318.217
318.258
318.288
318.303
318.303
318.288
318.258
318.217
318.165
318.107
318.045
317.981
317.92
317.874
310.726
310.754
310.79
310.829
310.866
310.901
310.932
310.957
310.975
310.984
310.984
310.975
310.957
310.932
310.901
310.866
310.829
310.79
310.754
310.726
303.594
303.603
303.615
303.628
303.641
303.653
303.663
303.671
303.677
303.68
303.68
303.677
303.671
303.663
303.653
303.641
303.628
303.615
303.603
303.594
356.471
356.61
356.78
356.955
357.125
357.283
357.421
357.533
357.611
357.652
357.652
357.611
357.533
357.421
357.283
357.125
356.955
356.78
356.61
356.471
348.788
348.906
349.053
349.204
349.352
349.489
349.609
349.705
349.773
349.808
349.808
349.773
349.705
349.609
349.489
349.352
349.204
349.053
348.906
348.788
341.173
341.27
341.394
341.522
341.647
341.763
341.864
341.946
342.004
342.034
342.034
342.004
341.946
341.864
341.763
341.647
341.522
341.394
341.27
341.173
333.614
333.693
333.793
333.898
334.001
334.095
334.178
334.245
334.293
334.317
334.317
334.293
334.245
334.178
334.095
334.001
333.898
333.793
333.693
333.614
326.102
326.163
326.241
326.322
326.402
326.476
326.54
326.592
326.629
326.648
326.648
326.629
326.592
326.54
326.476
326.402
326.322
326.241
326.163
326.102
318.627
318.67
318.726
318.784
318.841
318.894
318.94
318.977
319.003
319.017
319.017
319.003
318.977
318.94
318.894
318.841
318.784
318.726
318.67
318.627
311.178
311.204
311.237
311.272
311.306
311.338
311.366
311.388
311.404
311.412
311.412
311.404
311.388
311.366
311.338
311.306
311.272
311.237
311.204
311.178
303.745
303.754
303.765
303.777
303.788
303.799
303.808
303.816
303.821
303.824
303.824
303.821
303.816
303.808
303.799
303.788
303.777
303.765
303.754
303.745
358.923
359.052
359.207
359.367
359.521
359.664
359.788
359.888
359.958
359.994
359.994
359.958
359.888
359.788
359.664
359.521
359.367
359.207
359.052
358.923
350.903
351.011
351.145
351.284
351.417
351.541
351.649
351.735
351.796
351.827
351.827
351.796
351.735
351.649
351.541
351.417
351.284
351.145
351.011
350.903
342.954
343.044
343.157
343.274
343.387
343.492
343.583
343.656
343.707
343.734
343.734
343.707
343.656
343.583
343.492
343.387
343.274
343.157
343.044
342.954
335.066
335.138
335.23
335.326
335.419
335.504
335.579
335.639
335.681
335.703
335.703
335.681
335.639
335.579
335.504
335.419
335.326
335.23
335.138
335.066
327.228
327.284
327.355
327.43
327.502
327.568
327.626
327.673
327.706
327.723
327.723
327.706
327.673
327.626
327.568
327.502
327.43
327.355
327.284
327.228
319.43
319.469
319.52
319.573
319.625
319.672
319.714
319.747
319.771
319.783
319.783
319.771
319.747
319.714
319.672
319.625
319.573
319.52
319.469
319.43
311.66
311.683
311.714
311.746
311.777
311.805
311.83
311.85
311.864
311.872
311.872
311.864
311.85
311.83
311.805
311.777
311.746
311.714
311.683
311.66
303.907
303.914
303.925
303.935
303.946
303.955
303.964
303.97
303.975
303.978
303.978
303.975
303.97
303.964
303.955
303.946
303.935
303.925
303.914
303.907
361.508
361.625
361.768
361.913
362.053
362.181
362.293
362.382
362.445
362.477
362.477
362.445
362.382
362.293
362.181
362.053
361.913
361.768
361.625
361.508
353.126
353.226
353.349
353.475
353.596
353.708
353.805
353.882
353.936
353.964
353.964
353.936
353.882
353.805
353.708
353.596
353.475
353.349
353.226
353.126
344.824
344.906
345.01
345.116
345.219
345.314
345.396
345.461
345.507
345.531
345.531
345.507
345.461
345.396
345.314
345.219
345.116
345.01
344.906
344.824
336.588
336.654
336.739
336.826
336.91
336.987
337.054
337.108
337.146
337.165
337.165
337.146
337.108
337.054
336.987
336.91
336.826
336.739
336.654
336.588
328.407
328.458
328.523
328.591
328.657
328.717
328.769
328.811
328.84
328.855
328.855
328.84
328.811
328.769
328.717
328.657
328.591
328.523
328.458
328.407
320.269
320.305
320.352
320.401
320.447
320.491
320.528
320.558
320.579
320.589
320.589
320.579
320.558
320.528
320.491
320.447
320.401
320.352
320.305
320.269
312.163
312.184
312.212
312.242
312.27
312.296
312.318
312.336
312.348
312.355
312.355
312.348
312.336
312.318
312.296
312.27
312.242
312.212
312.184
312.163
304.075
304.082
304.092
304.101
304.111
304.119
304.127
304.133
304.137
304.139
304.139
304.137
304.133
304.127
304.119
304.111
304.101
304.092
304.082
304.075
364.158
364.267
364.397
364.53
364.657
364.773
364.874
364.954
365.01
365.038
365.038
365.01
364.954
364.874
364.773
364.657
364.53
364.397
364.267
364.158
355.398
355.489
355.602
355.717
355.827
355.928
356.015
356.085
356.133
356.158
356.158
356.133
356.085
356.015
355.928
355.827
355.717
355.602
355.489
355.398
346.726
346.802
346.897
346.994
347.088
347.173
347.247
347.306
347.347
347.368
347.368
347.347
347.306
347.247
347.173
347.088
346.994
346.897
346.802
346.726
338.13
338.192
338.269
338.349
338.425
338.495
338.556
338.604
338.638
338.655
338.655
338.638
338.604
338.556
338.495
338.425
338.349
338.269
338.192
338.13
329.598
329.645
329.705
329.767
329.827
329.882
329.929
329.966
329.993
330.006
330.006
329.993
329.966
329.929
329.882
329.827
329.767
329.705
329.645
329.598
321.116
321.149
321.192
321.236
321.279
321.318
321.352
321.379
321.397
321.407
321.407
321.397
321.379
321.352
321.318
321.279
321.236
321.192
321.149
321.116
312.669
312.689
312.715
312.742
312.767
312.791
312.811
312.827
312.838
312.844
312.844
312.838
312.827
312.811
312.791
312.767
312.742
312.715
312.689
312.669
304.245
304.251
304.26
304.269
304.277
304.285
304.292
304.297
304.301
304.303
304.303
304.301
304.297
304.292
304.285
304.277
304.269
304.26
304.251
304.245
366.71
366.81
366.931
367.052
367.169
367.275
367.366
367.438
367.489
367.515
367.515
367.489
367.438
367.366
367.275
367.169
367.052
366.931
366.81
366.71
357.557
357.642
357.746
357.852
357.953
358.045
358.124
358.187
358.231
358.254
358.254
358.231
358.187
358.124
358.045
357.953
357.852
357.746
357.642
357.557
348.515
348.586
348.673
348.763
348.849
348.927
348.994
349.048
349.085
349.104
349.104
349.085
349.048
348.994
348.927
348.849
348.763
348.673
348.586
348.515
339.568
339.625
339.697
339.77
339.84
339.904
339.96
340.004
340.034
340.05
340.05
340.034
340.004
339.96
339.904
339.84
339.77
339.697
339.625
339.568
330.7
330.744
330.8
330.857
330.912
330.962
331.005
331.039
331.063
331.075
331.075
331.063
331.039
331.005
330.962
330.912
330.857
330.8
330.744
330.7
321.895
321.926
321.965
322.006
322.046
322.081
322.112
322.137
322.154
322.162
322.162
322.154
322.137
322.112
322.081
322.046
322.006
321.965
321.926
321.895
313.134
313.152
313.176
313.201
313.224
313.246
313.264
313.279
313.289
313.294
313.294
313.289
313.279
313.264
313.246
313.224
313.201
313.176
313.152
313.134
304.4
304.406
304.414
304.422
304.43
304.437
304.443
304.448
304.452
304.453
304.453
304.452
304.448
304.443
304.437
304.43
304.422
304.414
304.406
304.4
368.717
368.811
368.925
369.039
369.148
369.246
369.331
369.399
369.445
369.469
369.469
369.445
369.399
369.331
369.246
369.148
369.039
368.925
368.811
368.717
359.191
359.271
359.369
359.469
359.564
359.65
359.724
359.783
359.824
359.845
359.845
359.824
359.783
359.724
359.65
359.564
359.469
359.369
359.271
359.191
349.827
349.894
349.977
350.061
350.142
350.215
350.278
350.328
350.363
350.381
350.381
350.363
350.328
350.278
350.215
350.142
350.061
349.977
349.894
349.827
340.597
340.65
340.718
340.788
340.854
340.914
340.966
341.007
341.036
341.05
341.05
341.036
341.007
340.966
340.914
340.854
340.788
340.718
340.65
340.597
331.474
331.515
331.568
331.622
331.674
331.721
331.761
331.793
331.816
331.827
331.827
331.816
331.793
331.761
331.721
331.674
331.622
331.568
331.515
331.474
322.434
322.463
322.501
322.539
322.577
322.61
322.639
322.662
322.678
322.686
322.686
322.678
322.662
322.639
322.61
322.577
322.539
322.501
322.463
322.434
313.452
313.47
313.492
313.516
313.538
313.558
313.576
313.589
313.599
313.604
313.604
313.599
313.589
313.576
313.558
313.538
313.516
313.492
313.47
313.452
304.505
304.511
304.519
304.527
304.534
304.541
304.547
304.551
304.555
304.556
304.556
304.555
304.551
304.547
304.541
304.534
304.527
304.519
304.511
304.505
)
;

boundaryField
{
    hotSide
    {
        type            fixedGradient;
        gradient        nonuniform List<scalar> 
400
(
431.409
433.174
436.708
442.015
449.105
457.988
468.676
481.182
495.52
511.702
529.743
549.654
571.447
595.132
620.719
648.213
677.623
708.952
742.206
777.388
435.119
436.855
440.331
445.554
452.537
461.292
471.836
484.186
498.358
514.371
532.24
551.981
573.608
597.132
622.564
649.913
679.185
710.386
743.52
778.591
439.134
440.835
444.242
449.366
456.221
464.826
475.202
487.37
501.352
517.17
534.845
554.395
575.836
599.182
624.445
651.635
680.759
711.823
744.83
779.785
443.388
445.048
448.375
453.383
460.092
468.524
478.708
490.67
504.439
520.04
537.5
556.841
578.08
601.235
626.318
653.34
682.309
713.23
746.106
780.941
447.761
449.375
452.612
457.491
464.036
472.278
482.25
493.987
507.524
522.894
540.125
559.243
580.272
603.228
628.126
654.977
683.788
714.566
747.312
782.03
452.071
453.636
456.778
461.519
467.891
475.931
485.682
497.185
510.483
525.614
542.612
561.508
582.326
605.085
629.801
656.485
685.145
715.785
748.408
783.014
456.072
457.588
460.634
465.238
471.438
479.281
488.814
500.09
513.158
528.06
544.838
563.524
584.144
606.721
631.27
657.802
686.324
716.84
749.352
783.858
459.468
460.94
463.9
468.381
474.427
482.093
491.435
502.511
515.376
530.08
546.667
565.173
585.626
608.048
632.456
658.861
687.268
717.682
750.102
784.528
461.953
463.391
466.285
470.672
476.602
484.133
493.33
504.256
516.97
531.527
547.973
566.346
586.676
608.986
633.292
659.604
687.93
718.27
750.625
784.993
463.27
464.689
467.547
471.883
477.75
485.209
494.327
505.172
517.805
532.283
548.654
566.956
587.221
609.472
633.724
659.988
688.27
718.572
750.894
785.231
463.27
464.689
467.547
471.883
477.75
485.209
494.327
505.172
517.805
532.283
548.654
566.956
587.221
609.472
633.724
659.988
688.27
718.572
750.894
785.231
461.953
463.391
466.285
470.672
476.602
484.133
493.33
504.256
516.97
531.527
547.973
566.346
586.676
608.986
633.292
659.604
687.93
718.27
750.625
784.993
459.468
460.94
463.9
468.381
474.427
482.093
491.435
502.511
515.376
530.08
546.667
565.173
585.626
608.048
632.456
658.861
687.268
717.682
750.102
784.528
456.072
457.588
460.634
465.238
471.438
479.281
488.814
500.09
513.158
528.06
544.838
563.524
584.144
606.721
631.27
657.802
686.324
716.84
749.352
783.858
452.071
453.636
456.778
461.519
467.891
475.931
485.682
497.185
510.483
525.614
542.612
561.508
582.326
605.085
629.801
656.485
685.145
715.785
748.408
783.014
447.761
449.375
452.612
457.491
464.036
472.278
482.25
493.987
507.524
522.894
540.125
559.243
580.272
603.228
628.126
654.977
683.788
714.566
747.312
782.03
443.388
445.048
448.375
453.383
460.092
468.524
478.708
490.67
504.439
520.04
537.5
556.841
578.08
601.235
626.318
653.34
682.309
713.23
746.106
780.941
439.134
440.835
444.242
449.366
456.221
464.826
475.202
487.37
501.352
517.17
534.845
554.395
575.836
599.182
624.445
651.635
680.759
711.823
744.83
779.785
435.119
436.855
440.331
445.554
452.537
461.292
471.836
484.186
498.358
514.371
532.24
551.981
573.608
597.132
622.564
649.913
679.185
710.386
743.52
778.591
431.409
433.174
436.708
442.015
449.105
457.988
468.676
481.182
495.52
511.702
529.743
549.654
571.447
595.132
620.719
648.213
677.623
708.952
742.206
777.388
)
;
    }
    coldSide
    {
        type            mixed;
        refValue        uniform 300;
        refGradient     uniform 0;
        valueFraction   uniform 0.991591;
        source          uniform 0;
        value           nonuniform List<scalar> 
400
(
300.022
300.022
300.022
300.023
300.023
300.023
300.024
300.025
300.025
300.026
300.027
300.028
300.029
300.03
300.031
300.033
300.034
300.036
300.037
300.038
300.022
300.022
300.022
300.023
300.023
300.023
300.024
300.025
300.025
300.026
300.027
300.028
300.029
300.03
300.032
300.033