/*--------------------------------*- C++ -*----------------------------------*\
| =========                 |                                                 |
| \\      /  F ield         | OpenFOAM: The Open Source CFD Toolbox           |
|  \\    /   O peration     | Version:  2212                                  |
|   \\  /    A nd           | Website:  www.openfoam.com                      |
|    \\/     M anipulation  |                                                 |
\*---------------------------------------------------------------------------*/
FoamFile
{
    version     2.0;
    format      ascii;
    arch        "LSB;label=32;scalar=64";
    class       volScalarField;
    location    "0";
    object      Ttrue;
}
// * * * * * * * * * * * * * * * * * * * * * * * * * * * * * * * * * * * * * //

dimensions      [0 0 0 1 0 0 0];

internalField   nonuniform List<scalar> 
3200
(
345.297
345.55
345.872
346.224
346.585
346.941
347.269
347.546
347.747
347.854
347.854
347.747
347.546
347.269
346.941
346.585
346.224
345.872
345.55
345.297
339.289
339.502
339.781
340.085
340.398
340.705
340.989
341.228
341.402
341.494
341.494
341.402
341.228
340.989
340.705
340.398
340.085
339.781
339.502
339.289
333.267
333.445
333.679
333.936
334.201
334.46
334.7
334.902
335.049
335.126
335.126
335.049
334.902
334.7
334.46
334.201
333.936
333.679
333.445
333.267
327.236
327.379
327.57
327.78
327.996
328.209
328.404
328.569
328.689
328.752
328.752
328.689
328.569
328.404
328.209
327.996
327.78
327.57
327.379
327.236
321.197
321.307
321.455
321.618
321.786
321.951
322.103
322.231
322.324
322.373
322.373
322.324
322.231
322.103
321.951
321.786
321.618
321.455
321.307
321.197
315.152
315.23
315.335
315.452
315.572
315.69
315.798
315.89
315.956
315.991
315.991
315.956
315.89
315.798
315.69
315.572
315.452
315.335
315.23
315.152
309.103
309.149
309.213
309.283
309.355
309.426
309.491
309.545
309.585
309.606
309.606
309.585
309.545
309.491
309.426
309.355
309.283
309.213
309.149
309.103
303.052
303.067
303.088
303.112
303.136
303.16
303.182
303.2
303.213
303.22
303.22
303.213
303.2
303.182
303.16
303.136
303.112
303.088
303.067
303.052
345.487
345.737
346.057
346.405
346.763
347.115
347.439
347.712
347.911
348.016
348.016
347.911
347.712
347.439
347.115
346.763
346.405
346.057
345.737
345.487
339.453
339.665
339.941
340.242
340.552
340.856
341.136
341.372
341.544
341.635
341.635
341.544
341.372
341.136
340.856
340.552
340.242
339.941
339.665
339.453
333.406
333.582
333.815
334.069
334.331
334.588
334.825
335.024
335.169
335.246
335.246
335.169
335.024
334.825
334.588
334.331
334.069
333.815
333.582
333.406
327.35
327.492
327.681
327.889
328.103
328.313
328.506
328.669
328.788
328.85
328.85
328.788
328.669
328.506
328.313
328.103
327.889
327.681
327.492
327.35
321.286
321.394
321.541
321.703
321.869
322.032
322.183
322.309
322.401
322.449
322.449
322.401
322.309
322.183
322.032
321.869
321.703
321.541
321.394
321.286
315.215
315.292
315.397
315.513
315.631
315.748
315.855
315.945
316.011
316.045
316.045
316.011
315.945
315.855
315.748
315.631
315.513
315.397
315.292
315.215
309.141
309.187
309.25
309.319
309.391
309.46
309.525
309.579
309.618
309.639
309.639
309.618
309.579
309.525
309.46
309.391
309.319
309.25
309.187
309.141
303.064
303.08
303.101
303.124
303.148
303.171
303.193
303.211
303.224
303.231
303.231
303.224
303.211
303.193
303.171
303.148
303.124
303.101
303.08
303.064
345.866
346.113
346.427
346.769
347.12
347.464
347.78
348.047
348.241
348.343
348.343
348.241
348.047
347.78
347.464
347.12
346.769
346.427
346.113
345.866
339.782
339.991
340.262
340.557
340.861
341.159
341.432
341.663
341.83
341.919
341.919
341.83
341.663
341.432
341.159
340.861
340.557
340.262
339.991
339.782
333.685
333.858
334.086
334.336
334.593
334.844
335.075
335.27
335.411
335.486
335.486
335.411
335.27
335.075
334.844
334.593
334.336
334.086
333.858
333.685
327.578
327.717
327.903
328.107
328.317
328.523
328.712
328.87
328.986
329.047
329.047
328.986
328.87
328.712
328.523
328.317
328.107
327.903
327.717
327.578
321.463
321.57
321.714
321.873
322.036
322.196
322.342
322.466
322.555
322.603
322.603
322.555
322.466
322.342
322.196
322.036
321.873
321.714
321.57
321.463
315.342
315.418
315.521
315.634
315.75
315.864
315.969
316.057
316.121
316.155
316.155
316.121
316.057
315.969
315.864
315.75
315.634
315.521
315.418
315.342
309.217
309.262
309.324
309.392
309.462
309.53
309.593
309.646
309.685
309.705
309.705
309.685
309.646
309.593
309.53
309.462
309.392
309.324
309.262
309.217
303.09
303.105
303.126
303.149
303.172
303.195
303.216
303.234
303.247
303.253
303.253
303.247
303.234
303.216
303.195
303.172
303.149
303.126
303.105
303.09
346.436
346.677
346.984
347.316
347.657
347.989
348.295
348.552
348.739
348.838
348.838
348.739
348.552
348.295
347.989
347.657
347.316
346.984
346.677
346.436
340.276
340.48
340.744
341.032
341.326
341.614
341.879
342.101
342.262
342.347
342.347
342.262
342.101
341.879
341.614
341.326
341.032
340.744
340.48
340.276
334.103
334.272
334.494
334.737
334.987
335.23
335.453
335.641
335.777
335.849
335.849
335.777
335.641
335.453
335.23
334.987
334.737
334.494
334.272
334.103
327.92
328.056
328.237
328.436
328.64
328.838
329.021
329.174
329.285
329.344
329.344
329.285
329.174
329.021
328.838
328.64
328.436
328.237
328.056
327.92
321.729
321.833
321.974
322.128
322.287
322.441
322.583
322.702
322.788
322.834
322.834
322.788
322.702
322.583
322.441
322.287
322.128
321.974
321.833
321.729
315.532
315.606
315.706
315.817
315.93
316.04
316.141
316.226
316.288
316.32
316.32
316.288
316.226
316.141
316.04
315.93
315.817
315.706
315.606
315.532
309.331
309.375
309.436
309.502
309.57
309.636
309.697
309.748
309.785
309.804
309.804
309.785
309.748
309.697
309.636
309.57
309.502
309.436
309.375
309.331
303.128
303.143
303.163
303.185
303.208
303.23
303.251
303.268
303.28
303.287
303.287
303.28
303.268
303.251
303.23
303.208
303.185
303.163
303.143
303.128
347.198
347.431
347.727
348.048
348.375
348.694
348.987
349.232
349.409
349.503
349.503
349.409
349.232
348.987
348.694
348.375
348.048
347.727
347.431
347.198
340.935
341.133
341.389
341.666
341.949
342.226
342.478
342.69
342.844
342.925
342.925
342.844
342.69
342.478
342.226
341.949
341.666
341.389
341.133
340.935
334.661
334.825
335.04
335.274
335.514
335.747
335.961
336.14
336.269
336.338
336.338
336.269
336.14
335.961
335.747
335.514
335.274
335.04
334.825
334.661
328.376
328.508
328.684
328.875
329.071
329.262
329.436
329.582
329.688
329.744
329.744
329.688
329.582
329.436
329.262
329.071
328.875
328.684
328.508
328.376
322.084
322.185
322.321
322.47
322.622
322.771
322.906
323.02
323.102
323.145
323.145
323.102
323.02
322.906
322.771
322.622
322.47
322.321
322.185
322.084
315.786
315.857
315.954
316.061
316.17
316.275
316.372
316.453
316.512
316.543
316.543
316.512
316.453
316.372
316.275
316.17
316.061
315.954
315.857
315.786
309.484
309.526
309.585
309.649
309.714
309.777
309.836
309.884
309.919
309.938
309.938
309.919
309.884
309.836
309.777
309.714
309.649
309.585
309.526
309.484
303.179
303.194
303.213
303.234
303.256
303.278
303.297
303.313
303.325
303.331
303.331
303.325
303.313
303.297
303.278
303.256
303.234
303.213
303.194
303.179
348.151
348.376
348.66
348.967
349.279
349.582
349.858
350.089
350.256
350.344
350.344
350.256
350.089
349.858
349.582
349.279
348.967
348.66
348.376
348.151
341.762
341.952
342.197
342.462
342.732
342.995
343.234
343.434
343.578
343.654
343.654
343.578
343.434
343.234
342.995
342.732
342.462
342.197
341.952
341.762
335.36
335.517
335.724
335.948
336.177
336.398
336.6
336.769
336.891
336.955
336.955
336.891
336.769
336.6
336.398
336.177
335.948
335.724
335.517
335.36
328.948
329.075
329.243
329.427
329.613
329.795
329.96
330.098
330.197
330.25
330.25
330.197
330.098
329.96
329.795
329.613
329.427
329.243
329.075
328.948
322.529
322.626
322.757
322.899
323.044
323.185
323.314
323.421
323.498
323.539
323.539
323.498
323.421
323.314
323.185
323.044
322.899
322.757
322.626
322.529
316.104
316.173
316.266
316.367
316.471
316.572
316.663
316.74
316.795
316.824
316.824
316.795
316.74
316.663
316.572
316.471
316.367
316.266
316.173
316.104
309.675
309.716
309.772
309.833
309.895
309.955
310.01
310.056
310.09
310.107
310.107
310.09
310.056
310.01
309.955
309.895
309.833
309.772
309.716
309.675
303.243
303.257
303.276
303.296
303.317
303.337
303.356
303.371
303.382
303.388
303.388
303.382
303.371
303.356
303.337
303.317
303.296
303.276
303.257
303.243
349.298
349.512
349.783
350.074
350.369
350.654
350.913
351.13
351.285
351.367
351.367
351.285
351.13
350.913
350.654
350.369
350.074
349.783
349.512
349.298
342.755
342.937
343.171
343.422
343.678
343.925
344.149
344.336
344.471
344.541
344.541
344.471
344.336
344.149
343.925
343.678
343.422
343.171
342.937
342.755
336.2
336.351
336.548
336.761
336.977
337.185
337.375
337.533
337.647
337.706
337.706
337.647
337.533
337.375
337.185
336.977
336.761
336.548
336.351
336.2
329.636
329.757
329.918
330.092
330.268
330.439
330.594
330.723
330.816
330.864
330.864
330.816
330.723
330.594
330.439
330.268
330.092
329.918
329.757
329.636
323.063
323.157
323.281
323.416
323.554
323.686
323.807
323.907
323.979
324.017
324.017
323.979
323.907
323.807
323.686
323.554
323.416
323.281
323.157
323.063
316.486
316.552
316.641
316.737
316.835
316.93
317.016
317.088
317.139
317.166
317.166
317.139
317.088
317.016
316.93
316.835
316.737
316.641
316.552
316.486
309.904
309.943
309.997
310.055
310.114
310.171
310.222
310.265
310.296
310.312
310.312
310.296
310.265
310.222
310.171
310.114
310.055
309.997
309.943
309.904
303.32
303.333
303.351
303.371
303.39
303.409
303.427
303.441
303.452
303.457
303.457
303.452
303.441
303.427
303.409
303.39
303.371
303.351
303.333
303.32
350.638
350.843
351.099
351.373
351.65
351.916
352.157
352.357
352.501
352.576
352.576
352.501
352.357
352.157
351.916
351.65
351.373
351.099
350.843
350.638
343.917
344.09
344.311
344.548
344.788
345.018
345.227
345.4
345.525
345.59
345.59
345.525
345.4
345.227
345.018
344.788
344.548
344.311
344.09
343.917
337.183
337.327
337.513
337.714
337.916
338.111
338.288
338.434
338.539
338.594
338.594
338.539
338.434
338.288
338.111
337.916
337.714
337.513
337.327
337.183
330.44
330.555
330.707
330.871
331.037
331.196
331.341
331.46
331.546
331.591
331.591
331.546
331.46
331.341
331.196
331.037
330.871
330.707
330.555
330.44
323.689
323.778
323.896
324.023
324.152
324.276
324.388
324.481
324.548
324.583
324.583
324.548
324.481
324.388
324.276
324.152
324.023
323.896
323.778
323.689
316.933
316.995
317.079
317.171
317.263
317.351
317.431
317.498
317.545
317.57
317.57
317.545
317.498
317.431
317.351
317.263
317.171
317.079
316.995
316.933
310.173
310.21
310.26
310.315
310.37
310.424
310.472
310.511
310.54
310.555
310.555
310.54
310.511
310.472
310.424
310.37
310.315
310.26
310.21
310.173
303.41
303.423
303.44
303.458
303.476
303.494
303.51
303.524
303.533
303.538
303.538
303.533
303.524
303.51
303.494
303.476
303.458
303.44
303.423
303.41
352.175
352.368
352.609
352.866
353.123
353.37
353.593
353.777
353.909
353.978
353.978
353.909
353.777
353.593
353.37
353.123
352.866
352.609
352.368
352.175
345.248
345.411
345.62
345.842
346.065
346.279
346.472
346.631
346.745
346.805
346.805
346.745
346.631
346.472
346.279
346.065
345.842
345.62
345.411
345.248
338.31
338.445
338.62
338.808
338.997
339.178
339.341
339.475
339.572
339.622
339.622
339.572
339.475
339.341
339.178
338.997
338.808
338.62
338.445
338.31
331.361
331.47
331.613
331.767
331.922
332.069
332.203
332.313
332.391
332.433
332.433
332.391
332.313
332.203
332.069
331.922
331.767
331.613
331.47
331.361
324.406
324.49
324.601
324.72
324.84
324.955
325.059
325.144
325.205
325.237
325.237
325.205
325.144
325.059
324.955
324.84
324.72
324.601
324.49
324.406
317.445
317.504
317.583
317.669
317.754
317.837
317.91
317.972
318.015
318.038
318.038
318.015
317.972
317.91
317.837
317.754
317.669
317.583
317.504
317.445
310.48
310.516
310.563
310.614
310.666
310.715
310.76
310.796
310.822
310.836
310.836
310.822
310.796
310.76
310.715
310.666
310.614
310.563
310.516
310.48
303.513
303.525
303.541
303.558
303.575
303.592
303.607
303.619
303.628
303.633
303.633
303.628
303.619
303.607
303.592
303.575
303.558
303.541
303.525
303.513
353.908
354.089
354.315
354.554
354.792
355.02
355.224
355.392
355.512
355.575
355.575
355.512
355.392
355.224
355.02
354.792
354.554
354.315
354.089
353.908
346.75
346.903
347.098
347.305
347.512
347.709
347.886
348.031
348.135
348.189
348.189
348.135
348.031
347.886
347.709
347.512
347.305
347.098
346.903
346.75
339.58
339.707
339.872
340.046
340.221
340.388
340.538
340.661
340.748
340.794
340.794
340.748
340.661
340.538
340.388
340.221
340.046
339.872
339.707
339.58
332.401
332.503
332.637
332.78
332.923
333.06
333.182
333.282
333.354
333.392
333.392
333.354
333.282
333.182
333.06
332.923
332.78
332.637
332.503
332.401
325.215
325.293
325.397
325.508
325.62
325.726
325.821
325.899
325.955
325.984
325.984
325.955
325.899
325.821
325.726
325.62
325.508
325.397
325.293
325.215
318.023
318.078
318.152
318.232
318.311
318.387
318.455
318.511
318.551
318.572
318.572
318.551
318.511
318.455
318.387
318.311
318.232
318.152
318.078
318.023
310.827
310.86
310.905
310.953
311
311.046
311.087
311.12
311.144
311.157
311.157
311.144
311.12
311.087
311.046
311
310.953
310.905
310.86
310.827
303.63
303.641
303.656
303.672
303.688
303.703
303.717
303.728
303.736
303.74
303.74
303.736
303.728
303.717
303.703
303.688
303.672
303.656
303.641
303.63
355.839
356.008
356.218
356.439
356.659
356.868
357.054
357.206
357.315
357.372
357.372
357.315
357.206
357.054
356.868
356.659
356.439
356.218
356.008
355.839
348.423
348.566
348.748
348.939
349.13
349.311
349.472
349.604
349.698
349.747
349.747
349.698
349.604
349.472
349.311
349.13
348.939
348.748
348.566
348.423
340.996
341.115
341.267
341.43
341.591
341.744
341.88
341.992
342.071
342.113
342.113
342.071
341.992
341.88
341.744
341.591
341.43
341.267
341.115
340.996
333.559
333.655
333.779
333.912
334.044
334.169
334.28
334.372
334.437
334.471
334.471
334.437
334.372
334.28
334.169
334.044
333.912
333.779
333.655
333.559
326.115
326.189
326.286
326.389
326.491
326.588
326.675
326.746
326.797
326.823
326.823
326.797
326.746
326.675
326.588
326.491
326.389
326.286
326.189
326.115
318.666
318.718
318.787
318.861
318.934
319.004
319.066
319.117
319.153
319.171
319.171
319.153
319.117
319.066
319.004
318.934
318.861
318.787
318.718
318.666
311.214
311.245
311.286
311.33
311.375
311.416
311.453
311.484
311.506
311.517
311.517
311.506
311.484
311.453
311.416
311.375
311.33
311.286
311.245
311.214
303.759
303.77
303.783
303.798
303.813
303.827
303.84
303.85
303.857
303.861
303.861
303.857
303.85
303.84
303.827
303.813
303.798
303.783
303.77
303.759
357.968
358.125
358.32
358.524
358.726
358.916
359.085
359.223
359.321
359.372
359.372
359.321
359.223
359.085
358.916
358.726
358.524
358.32
358.125
357.968
350.268
350.402
350.57
350.746
350.921
351.086
351.232
351.352
351.437
351.481
351.481
351.437
351.352
351.232
351.086
350.921
350.746
350.57
350.402
350.268
342.557
342.667
342.809
342.959
343.107
343.246
343.37
343.471
343.543
343.58
343.58
343.543
343.471
343.37
343.246
343.107
342.959
342.809
342.667
342.557
334.836
334.925
335.041
335.163
335.284
335.398
335.5
335.582
335.641
335.671
335.671
335.641
335.582
335.5
335.398
335.284
335.163
335.041
334.925
334.836
327.109
327.177
327.267
327.362
327.456
327.545
327.624
327.688
327.734
327.757
327.757
327.734
327.688
327.624
327.545
327.456
327.362
327.267
327.177
327.109
319.376
319.425
319.489
319.556
319.624
319.687
319.743
319.789
319.822
319.839
319.839
319.822
319.789
319.743
319.687
319.624
319.556
319.489
319.425
319.376
311.64
311.669
311.707
311.748
311.789
311.827
311.861
311.888
311.908
311.918
311.918
311.908
311.888
311.861
311.827
311.789
311.748
311.707
311.669
311.64
303.902
303.912
303.925
303.938
303.952
303.965
303.976
303.985
303.992
303.995
303.995
303.992
303.985
303.976
303.965
303.952
303.938
303.925
303.912
303.902
360.296
360.442
360.622
360.809
360.994
361.166
361.319
361.443
361.531
361.577
361.577
361.531
361.443
361.319
361.166
360.994
360.809
360.622
360.442
360.296
352.285
352.409
352.564
352.727
352.886
353.036
353.168
353.276
353.352
353.392
353.392
353.352
353.276
353.168
353.036
352.886
352.727
352.564
352.409
352.285
344.263
344.366
344.497
344.634
344.769
344.896
345.008
345.099
345.164
345.197
345.197
345.164
345.099
345.008
344.896
344.769
344.634
344.497
344.366
344.263
336.232
336.315
336.422
336.534
336.645
336.748
336.84
336.915
336.967
336.995
336.995
336.967
336.915
336.84
336.748
336.645
336.534
336.422
336.315
336.232
328.195
328.258
328.341
328.428
328.514
328.595
328.666
328.724
328.765
328.787
328.787
328.765
328.724
328.666
328.595
328.514
328.428
328.341
328.258
328.195
320.152
320.197
320.256
320.319
320.38
320.438
320.489
320.53
320.559
320.575
320.575
320.559
320.53
320.489
320.438
320.38
320.319
320.256
320.197
320.152
312.106
312.133
312.168
312.206
312.243
312.278
312.308
312.333
312.351
312.36
312.36
312.351
312.333
312.308
312.278
312.243
312.206
312.168
312.133
312.106
304.058
304.067
304.079
304.092
304.104
304.116
304.126
304.134
304.14
304.143
304.143
304.14
304.134
304.126
304.116
304.104
304.092
304.079
304.067
304.058
362.821
362.956
363.122
363.293
363.461
363.618
363.755
363.867
363.946
363.986
363.986
363.946
363.867
363.755
363.618
363.461
363.293
363.122
362.956
362.821
354.473
354.588
354.73
354.879
355.025
355.16
355.28
355.376
355.445
355.48
355.48
355.445
355.376
355.28
355.16
355.025
354.879
354.73
354.588
354.473
346.114
346.209
346.329
346.455
346.578
346.693
346.794
346.876
346.934
346.964
346.964
346.934
346.876
346.794
346.693
346.578
346.455
346.329
346.209
346.114
337.747
337.823
337.921
338.024
338.125
338.219
338.301
338.368
338.416
338.44
338.44
338.416
338.368
338.301
338.219
338.125
338.024
337.921
337.823
337.747
329.372
329.431
329.507
329.587
329.666
329.739
329.803
329.855
329.892
329.911
329.911
329.892
329.855
329.803
329.739
329.666
329.587
329.507
329.431
329.372
320.994
321.035
321.089
321.147
321.203
321.255
321.301
321.338
321.364
321.378
321.378
321.364
321.338
321.301
321.255
321.203
321.147
321.089
321.035
320.994
312.612
312.636
312.669
312.703
312.737
312.768
312.796
312.818
312.834
312.842
312.842
312.834
312.818
312.796
312.768
312.737
312.703
312.669
312.636
312.612
304.228
304.236
304.247
304.258
304.27
304.28
304.29
304.297
304.302
304.305
304.305
304.302
304.297
304.29
304.28
304.27
304.258
304.247
304.236
304.228
365.539
365.664
365.816
365.973
366.125
366.267
366.391
366.491
366.561
366.597
366.597
366.561
366.491
366.391
366.267
366.125
365.973
365.816
365.664
365.539
356.828
356.933
357.064
357.2
357.332
357.455
357.562
357.649
357.71
357.742
357.742
357.71
357.649
357.562
357.455
357.332
357.2
357.064
356.933
356.828
348.105
348.193
348.303
348.418
348.53
348.634
348.725
348.798
348.85
348.877
348.877
348.85
348.798
348.725
348.634
348.53
348.418
348.303
348.193
348.105
339.375
339.445
339.536
339.63
339.721
339.806
339.881
339.941
339.983
340.005
340.005
339.983
339.941
339.881
339.806
339.721
339.63
339.536
339.445
339.375
330.639
330.693
330.763
330.836
330.907
330.973
331.031
331.078
331.111
331.128
331.128
331.111
331.078
331.031
330.973
330.907
330.836
330.763
330.693
330.639
321.898
321.936
321.986
322.039
322.089
322.137
322.178
322.212
322.235
322.247
322.247
322.235
322.212
322.178
322.137
322.089
322.039
321.986
321.936
321.898
313.155
313.178
313.208
313.239
313.27
313.298
313.323
313.343
313.357
313.364
313.364
313.357
313.343
313.323
313.298
313.27
313.239
313.208
313.178
313.155
304.41
304.417
304.427
304.438
304.448
304.458
304.466
304.473
304.478
304.48
304.48
304.478
304.473
304.466
304.458
304.448
304.438
304.427
304.417
304.41
368.439
368.554
368.693
368.836
368.974
369.102
369.213
369.303
369.365
369.398
369.398
369.365
369.303
369.213
369.102
368.974
368.836
368.693
368.554
368.439
359.337
359.434
359.555
359.678
359.798
359.909
360.005
360.083
360.137
360.165
360.165
360.137
360.083
360.005
359.909
359.798
359.678
359.555
359.434
359.337
350.226
350.307
350.408
350.513
350.614
350.708
350.79
350.855
350.901
350.925
350.925
350.901
350.855
350.79
350.708
350.614
350.513
350.408
350.307
350.226
341.109
341.173
341.256
341.342
341.425
341.501
341.568
341.622
341.66
341.679
341.679
341.66
341.622
341.568
341.501
341.425
341.342
341.256
341.173
341.109
331.986
332.036
332.1
332.167
332.231
332.291
332.343
332.385
332.414
332.429
332.429
332.414
332.385
332.343
332.291
332.231
332.167
332.1
332.036
331.986
322.86
322.895
322.941
322.989
323.035
323.078
323.115
323.145
323.166
323.177
323.177
323.166
323.145
323.115
323.078
323.035
322.989
322.941
322.895
322.86
313.732
313.753
313.781
313.809
313.837
313.863
313.885
313.903
313.916
313.922
313.922
313.916
313.903
313.885
313.863
313.837
313.809
313.781
313.753
313.732
304.603
304.61
304.62
304.629
304.639
304.647
304.655
304.661
304.665
304.667
304.667
304.665
304.661
304.655
304.647
304.639
304.629
304.62
304.61
304.603
371.488
371.594
371.722
371.852
371.977
372.092
372.192
372.272
372.328
372.357
372.357
372.328
372.272
372.192
372.092
371.977
371.852
371.722
371.594
371.488
361.972
362.061
362.171
362.284
362.393
362.492
362.579
362.649
362.697
362.722
362.722
362.697
362.649
362.579
362.492
362.393
362.284
362.171
362.061
361.972
352.449
352.523
352.616
352.711
352.803
352.888
352.961
353.02
353.061
353.082
353.082
353.061
353.02
352.961
352.888
352.803
352.711
352.616
352.523
352.449
342.923
342.982
343.058
343.136
343.211
343.281
343.341
343.389
343.423
343.44
343.44
343.423
343.389
343.341
343.281
343.211
343.136
343.058
342.982
342.923
333.394
333.44
333.499
333.56
333.618
333.672
333.719
333.756
333.783
333.796
333.796
333.783
333.756
333.719
333.672
333.618
333.56
333.499
333.44
333.394
323.865
323.897
323.939
323.983
324.025
324.063
324.097
324.123
324.142
324.152
324.152
324.142
324.123
324.097
324.063
324.025
323.983
323.939
323.897
323.865
314.335
314.355
314.38
314.406
314.431
314.454
314.474
314.49
314.502
314.507
314.507
314.502
314.49
314.474
314.454
314.431
314.406
314.38
314.355
314.335
304.805
304.812
304.82
304.829
304.837
304.845
304.852
304.857
304.861
304.863
304.863
304.861
304.857
304.852
304.845
304.837
304.829
304.82
304.812
304.805
374.609
374.706
374.823
374.942
375.056
375.16
375.25
375.321
375.371
375.397
375.397
375.371
375.321
375.25
375.16
375.056
374.942
374.823
374.706
374.609
364.655
364.737
364.838
364.941
365.04
365.13
365.208
365.271
365.314
365.337
365.337
365.314
365.271
365.208
365.13
365.04
364.941
364.838
364.737
364.655
354.704
354.772
354.857
354.944
355.028
355.104
355.171
355.223
355.26
355.279
355.279
355.26
355.223
355.171
355.104
355.028
354.944
354.857
354.772
354.704
344.756
344.811
344.881
344.952
345.021
345.083
345.138
345.181
345.211
345.227
345.227
345.211
345.181
345.138
345.083
345.021
344.952
344.881
344.811
344.756
334.814
334.856
334.91
334.965
335.019
335.067
335.11
335.143
335.167
335.179
335.179
335.167
335.143
335.11
335.067
335.019
334.965
334.91
334.856
334.814
324.875
324.905
324.944
324.983
325.021
325.056
325.087
325.111
325.127
325.136
325.136
325.127
325.111
325.087
325.056
325.021
324.983
324.944
324.905
324.875
314.94
314.958
314.981
315.005
315.028
315.049
315.067
315.082
315.092
315.097
315.097
315.092
315.082
315.067
315.049
315.028
315.005
314.981
314.958
314.94
305.008
305.014
305.022
305.03
305.037
305.044
305.05
305.055
305.059
305.06
305.06
305.059
305.055
305.05
305.044
305.037
305.03
305.022
305.014
305.008
377.601
377.691
377.798
377.907
378.012
378.106
378.188
378.253
378.298
378.322
378.322
378.298
378.253
378.188
378.106
378.012
377.907
377.798
377.691
377.601
367.197
367.273
367.366
367.461
367.551
367.634
367.705
367.761
367.801
367.821
367.821
367.801
367.761
367.705
367.634
367.551
367.461
367.366
367.273
367.197
356.817
356.88
356.958
357.039
357.116
357.185
357.246
357.294
357.327
357.344
357.344
357.327
357.294
357.246
357.185
357.116
357.039
356.958
356.88
356.817
346.459
346.51
346.574
346.64
346.703
346.76
346.81
346.849
346.876
346.891
346.891
346.876
346.849
346.81
346.76
346.703
346.64
346.574
346.51
346.459
336.122
336.161
336.211
336.262
336.311
336.356
336.394
336.425
336.446
336.457
336.457
336.446
336.425
336.394
336.356
336.311
336.262
336.211
336.161
336.122
325.801
325.829
325.865
325.901
325.936
325.968
325.996
326.018
326.033
326.041
326.041
326.033
326.018
325.996
325.968
325.936
325.901
325.865
325.829
325.801
315.493
315.51
315.531
315.553
315.574
315.593
315.61
315.623
315.632
315.637
315.637
315.632
315.623
315.61
315.593
315.574
315.553
315.531
315.51
315.493
305.193
305.198
305.205
305.213
305.22
305.226
305.232
305.236
305.239
305.241
305.241
305.239
305.236
305.232
305.226
305.22
305.213
305.205
305.198
305.193
379.94
380.024
380.125
380.228
380.325
380.414
380.49
380.55
380.592
380.613
380.613
380.592
380.55
380.49
380.414
380.325
380.228
380.125
380.024
379.94
369.109
369.181
369.268
369.358
369.442
369.52
369.586
369.639
369.675
369.694
369.694
369.675
369.639
369.586
369.52
369.442
369.358
369.268
369.181
369.109
358.357
358.417
358.491
358.567
358.639
358.705
358.761
358.806
358.837
358.853
358.853
358.837
358.806
358.761
358.705
358.639
358.567
358.491
358.417
358.357
347.67
347.719
347.779
347.842
347.901
347.955
348.001
348.038
348.064
348.077
348.077
348.064
348.038
348.001
347.955
347.901
347.842
347.779
347.719
347.67
337.035
337.072
337.119
337.168
337.214
337.256
337.293
337.321
337.341
337.352
337.352
337.341
337.321
337.293
337.256
337.214
337.168
337.119
337.072
337.035
326.439
326.465
326.499
326.534
326.567
326.597
326.623
326.644
326.658
326.665
326.665
326.658
326.644
326.623
326.597
326.567
326.534
326.499
326.465
326.439
315.87
315.886
315.906
315.927
315.947
315.965
315.981
315.993
316.002
316.006
316.006
316.002
315.993
315.981
315.965
315.947
315.927
315.906
315.886
315.87
305.318
305.323
305.33
305.337
305.344
305.35
305.355
305.359
305.362
305.364
305.364
305.362
305.359
305.355
305.35
305.344
305.337
305.33
305.323
305.318
)
;

boundaryField
{
    hotSide
    {
        type            fixedGradient;
        gradient        nonuniform List<scalar> 
400
(
479.433
481.46
485.518
491.61
499.746
509.933
522.183
536.508
552.92
571.43
592.051
614.794
639.668
666.684
695.848
727.168
760.649
796.296
834.113
874.103
482.757
484.758
488.763
494.781
502.82
512.893
525.014
539.199
555.463
573.821
594.288
616.879
641.604
668.475
697.501
728.69
762.048
797.581
835.291
875.181
486.353
488.323
492.267
498.195
506.12
516.059
528.029
542.051
558.145
576.329
596.622
619.041
643.6
670.311
699.186
730.233
763.459
798.868
836.464
876.251
490.164
492.097
495.969
501.794
509.587
519.372
531.17
545.008
560.91
578.9
599.001
621.232
645.61
672.15
700.864
731.761
764.847
800.128
837.607
877.287
494.081
495.973
499.766
505.474
513.121
522.734
534.343
547.98
563.674
581.456
601.351
623.384
647.573
673.936
702.483
733.227
766.172
801.325
838.688
878.262
497.943
499.791
503.497
509.082
516.574
526.007
537.417
550.844
566.324
583.893
603.58
625.413
649.413
675.599
703.984
734.578
767.388
802.417
839.669
879.143
501.527
503.331
506.952
512.414
519.752
529.007
540.224
553.447
568.72
586.084
605.574
627.219
651.043
677.065
705.3
735.758
768.444
803.362
840.514
879.9
504.569
506.334
509.877
515.229
522.43
531.527
542.571
555.615
570.708
587.894
607.213
628.696
652.37
678.254
706.363
736.706
769.29
804.117
841.187
880.5
506.796
508.529
512.014
517.282
524.378
533.355
544.269
557.178
572.136
589.19
608.382
629.747
653.311
679.094
707.111
737.372
769.882
804.643
841.655
880.916
507.975
509.692
513.145
518.367
525.406
534.318
545.162
557.999
572.884
589.867
608.992
630.294
653.799
679.529
707.498
737.716
770.187
804.914
841.896
881.13
507.975
509.692
513.145
518.367
525.406
534.318
545.162
557.999
572.884
589.867
608.992
630.294
653.799
679.529
707.498
737.716
770.187
804.914
841.896
881.13
506.796
508.529
512.014
517.282
524.378
533.355
544.269
557.178
572.136
589.19
608.382
629.747
653.311
679.094
707.111
737.372
769.882
804.643
841.655
880.916
504.569
506.334
509.877
515.229
522.43
531.527
542.571
555.615
570.708
587.894
607.213
628.696
652.37
678.254
706.363
736.706
769.29
804.117
841.187
880.5
501.527
503.331
506.952
512.414
519.752
529.007
540.224
553.447
568.72
586.084
605.574
627.219
651.043
677.065
705.3
735.758
768.444
803.362
840.514
879.9
497.943
499.791
503.497
509.082
516.574
526.007
537.417
550.844
566.324
583.893
603.58
625.413
649.413
675.599
703.984
734.578
767.388
802.417
839.669
879.143
494.081
495.973
499.766
505.474
513.121
522.734
534.343
547.98
563.674
581.456
601.351
623.384
647.573
673.936
702.483
733.227
766.172
801.325
838.688
878.262
490.164
492.097
495.969
501.794
509.587
519.372
531.17
545.008
560.91
578.9
599.001
621.232
645.61
672.15
700.864
731.761
764.847
800.128
837.607
877.287
486.353
488.323
492.267
498.195
506.12
516.059
528.029
542.051
558.145
576.329
596.622
619.041
643.6
670.311
699.186
730.233
763.459
798.868
836.464
876.251
482.757
484.758
488.763
494.781
502.82
512.893
525.014
539.199
555.463
573.821
594.288
616.879
641.604
668.475
697.501
728.69
762.048
797.581
835.291
875.181
479.433
481.46
485.518
491.61
499.746
509.933
522.183
536.508
552.92
571.43
592.051
614.794
639.668
666.684
695.848
727.168
760.649
796.296
834.113
874.103
)
;
    }
    coldSide
    {
        type            mixed;
        refValue        uniform 300;
        refGradient     uniform 0;
        valueFraction   uniform 0.991591;
        source          uniform 0;
        value           nonuniform List<scalar> 
400
(
300.026
300.026
300.026
300.026
300.027
300.027
300.028
300.029
300.03
300.031
300.032
300.033
300.034
300.036
300.037
300.039
300.04
300.042
300.044
300.045
300.026
300.026
300.026
300.026
300.027
300.027
300.028
300.029
300.03
300.031
300.032
300.033
300.034
300.036
300.037
300.039
300.04
300.042
300.044