/*--------------------------------*- C++ -*----------------------------------*\
| =========                 |                                                 |
| \\      /  F ield         | OpenFOAM: The Open Source CFD Toolbox           |
|  \\    /   O peration     | Version:  2212                                  |
|   \\  /    A nd           | Website:  www.openfoam.com                      |
|    \\/     M anipulation  |                                                 |
\*---------------------------------------------------------------------------*/
FoamFile
{
    version     2.0;
    format      ascii;
    arch        "LSB;label=32;scalar=64";
    class       volScalarField;
    location    "0";
    object      Tdirect;
}
// * * * * * * * * * * * * * * * * * * * * * * * * * * * * * * * * * * * * * //

dimensions      [0 0 0 1 0 0 0];

internalField   nonuniform List<scalar> 
3200
(
347.535
348.086
348.79
349.557
350.346
351.121
351.837
352.441
352.881
353.113
353.113
352.881
352.441
351.837
351.121
350.346
349.557
348.79
348.086
347.535
341.272
341.738
342.345
343.008
343.692
344.362
344.981
345.503
345.882
346.083
346.083
345.882
345.503
344.981
344.362
343.692
343.008
342.345
341.738
341.272
334.978
335.365
335.876
336.436
337.014
337.58
338.102
338.543
338.863
339.033
339.033
338.863
338.543
338.102
337.58
337.014
336.436
335.876
335.365
334.978
328.658
328.969
329.386
329.844
330.316
330.779
331.205
331.565
331.827
331.965
331.965
331.827
331.565
331.205
330.779
330.316
329.844
329.386
328.969
328.658
322.317
322.556
322.879
323.235
323.602
323.962
324.293
324.572
324.775
324.883
324.883
324.775
324.572
324.293
323.962
323.602
323.235
322.879
322.556
322.317
315.96
316.129
316.36
316.614
316.876
317.133
317.369
317.568
317.713
317.79
317.79
317.713
317.568
317.369
317.133
316.876
316.614
316.36
316.129
315.96
309.591
309.692
309.831
309.983
310.14
310.295
310.437
310.556
310.643
310.689
310.689
310.643
310.556
310.437
310.295
310.14
309.983
309.831
309.692
309.591
303.216
303.25
303.296
303.347
303.4
303.451
303.499
303.539
303.568
303.584
303.584
303.568
303.539
303.499
303.451
303.4
303.347
303.296
303.25
303.216
347.704
348.251
348.948
349.708
350.489
351.256
351.963
352.559
352.994
353.223
353.223
352.994
352.559
351.963
351.256
350.489
349.708
348.948
348.251
347.704
341.418
341.881
342.483
343.14
343.816
344.479
345.091
345.606
345.981
346.179
346.179
345.981
345.606
345.091
344.479
343.816
343.14
342.483
341.881
341.418
335.102
335.486
335.992
336.548
337.119
337.679
338.196
338.631
338.947
339.114
339.114
338.947
338.631
338.196
337.679
337.119
336.548
335.992
335.486
335.102
328.759
329.068
329.481
329.935
330.402
330.86
331.282
331.637
331.895
332.032
332.032
331.895
331.637
331.282
330.86
330.402
329.935
329.481
329.068
328.759
322.396
322.633
322.954
323.306
323.669
324.025
324.353
324.629
324.829
324.935
324.935
324.829
324.629
324.353
324.025
323.669
323.306
322.954
322.633
322.396
316.016
316.184
316.413
316.664
316.924
317.178
317.412
317.609
317.752
317.827
317.827
317.752
317.609
317.412
317.178
316.924
316.664
316.413
316.184
316.016
309.625
309.725
309.862
310.014
310.169
310.322
310.462
310.58
310.666
310.711
310.711
310.666
310.58
310.462
310.322
310.169
310.014
309.862
309.725
309.625
303.227
303.261
303.307
303.357
303.409
303.461
303.508
303.547
303.576
303.591
303.591
303.576
303.547
303.508
303.461
303.409
303.357
303.307
303.261
303.227
348.043
348.581
349.266
350.012
350.778
351.528
352.218
352.8
353.223
353.447
353.447
353.223
352.8
352.218
351.528
350.778
350.012
349.266
348.581
348.043
341.712
342.167
342.759
343.404
344.066
344.715
345.312
345.815
346.181
346.374
346.374
346.181
345.815
345.312
344.715
344.066
343.404
342.759
342.167
341.712
335.35
335.728
336.226
336.771
337.331
337.879
338.384
338.808
339.117
339.279
339.279
339.117
338.808
338.384
337.879
337.331
336.771
336.226
335.728
335.35
328.963
329.267
329.673
330.118
330.576
331.024
331.436
331.783
332.034
332.167
332.167
332.034
331.783
331.436
331.024
330.576
330.118
329.673
329.267
328.963
322.554
322.788
323.103
323.449
323.805
324.153
324.473
324.742
324.938
325.041
325.041
324.938
324.742
324.473
324.153
323.805
323.449
323.103
322.788
322.554
316.129
316.295
316.519
316.766
317.021
317.269
317.498
317.69
317.829
317.903
317.903
317.829
317.69
317.498
317.269
317.021
316.766
316.519
316.295
316.129
309.693
309.792
309.926
310.075
310.227
310.377
310.514
310.629
310.713
310.757
310.757
310.713
310.629
310.514
310.377
310.227
310.075
309.926
309.792
309.693
303.25
303.283
303.328
303.378
303.429
303.479
303.525
303.564
303.592
303.606
303.606
303.592
303.564
303.525
303.479
303.429
303.378
303.328
303.283
303.25
348.552
349.077
349.745
350.471
351.214
351.94
352.607
353.168
353.575
353.79
353.79
353.575
353.168
352.607
351.94
351.214
350.471
349.745
349.077
348.552
342.153
342.598
343.174
343.802
344.445
345.073
345.65
346.135
346.487
346.672
346.672
346.487
346.135
345.65
345.073
344.445
343.802
343.174
342.598
342.153
335.724
336.093
336.578
337.108
337.652
338.183
338.67
339.08
339.377
339.533
339.533
339.377
339.08
338.67
338.183
337.652
337.108
336.578
336.093
335.724
329.268
329.565
329.961
330.395
330.839
331.273
331.671
332.005
332.248
332.376
332.376
332.248
332.005
331.671
331.273
330.839
330.395
329.961
329.565
329.268
322.792
323.02
323.327
323.664
324.009
324.347
324.656
324.916
325.104
325.203
325.203
325.104
324.916
324.656
324.347
324.009
323.664
323.327
323.02
322.792
316.299
316.461
316.68
316.92
317.167
317.408
317.629
317.814
317.948
318.019
318.019
317.948
317.814
317.629
317.408
317.167
316.92
316.68
316.461
316.299
309.795
309.892
310.023
310.167
310.315
310.46
310.593
310.704
310.784
310.827
310.827
310.784
310.704
310.593
310.46
310.315
310.167
310.023
309.892
309.795
303.284
303.316
303.36
303.409
303.458
303.507
303.551
303.589
303.616
303.63
303.63
303.616
303.589
303.551
303.507
303.458
303.409
303.36
303.316
303.284
349.233
349.742
350.389
351.088
351.802
352.498
353.136
353.67
354.058
354.262
354.262
354.058
353.67
353.136
352.498
351.802
351.088
350.389
349.742
349.233
342.744
343.175
343.732
344.337
344.956
345.558
346.11
346.572
346.907
347.083
347.083
346.907
346.572
346.11
345.558
344.956
344.337
343.732
343.175
342.744
336.224
336.581
337.051
337.562
338.085
338.594
339.06
339.45
339.733
339.882
339.882
339.733
339.45
339.06
338.594
338.085
337.562
337.051
336.581
336.224
329.678
329.966
330.348
330.766
331.194
331.61
331.99
332.309
332.54
332.662
332.662
332.54
332.309
331.99
331.61
331.194
330.766
330.348
329.966
329.678
323.111
323.332
323.629
323.953
324.286
324.609
324.905
325.152
325.332
325.426
325.426
325.332
325.152
324.905
324.609
324.286
323.953
323.629
323.332
323.111
316.527
316.684
316.895
317.127
317.365
317.595
317.807
317.983
318.111
318.179
318.179
318.111
317.983
317.807
317.595
317.365
317.127
316.895
316.684
316.527
309.932
310.025
310.152
310.292
310.434
310.573
310.7
310.806
310.883
310.923
310.923
310.883
310.806
310.7
310.573
310.434
310.292
310.152
310.025
309.932
303.33
303.361
303.404
303.451
303.498
303.545
303.587
303.623
303.649
303.662
303.662
303.649
303.623
303.587
303.545
303.498
303.451
303.404
303.361
303.33
350.089
350.579
351.199
351.868
352.549
353.209
353.812
354.317
354.681
354.873
354.873
354.681
354.317
353.812
353.209
352.549
351.868
351.199
350.579
350.089
343.486
343.901
344.436
345.014
345.604
346.176
346.697
347.134
347.449
347.615
347.615
347.449
347.134
346.697
346.176
345.604
345.014
344.436
343.901
343.486
336.852
337.196
337.647
338.136
338.634
339.117
339.558
339.927
340.193
340.333
340.333
340.193
339.927
339.558
339.117
338.634
338.136
337.647
337.196
336.852
330.192
330.469
330.836
331.236
331.644
332.039
332.399
332.7
332.917
333.032
333.032
332.917
332.7
332.399
332.039
331.644
331.236
330.836
330.469
330.192
323.51
323.723
324.008
324.319
324.636
324.943
325.223
325.457
325.626
325.715
325.715
325.626
325.457
325.223
324.943
324.636
324.319
324.008
323.723
323.51
316.813
316.964
317.167
317.389
317.615
317.834
318.034
318.201
318.322
318.385
318.385
318.322
318.201
318.034
317.834
317.615
317.389
317.167
316.964
316.813
310.104
310.194
310.316
310.449
310.585
310.716
310.836
310.937
311.009
311.047
311.047
311.009
310.937
310.836
310.716
310.585
310.449
310.316
310.194
310.104
303.388
303.418
303.459
303.503
303.549
303.593
303.633
303.667
303.691
303.704
303.704
303.691
303.667
303.633
303.593
303.549
303.503
303.459
303.418
303.388
351.121
351.589
352.18
352.815
353.458
354.08
354.646
355.117
355.457
355.635
355.635
355.457
355.117
354.646
354.08
353.458
352.815
352.18
351.589
351.121
344.381
344.777
345.287
345.836
346.394
346.932
347.421
347.829
348.123
348.277
348.277
348.123
347.829
347.421
346.932
346.394
345.836
345.287
344.777
344.381
337.609
337.938
338.368
338.832
339.303
339.758
340.172
340.516
340.765
340.895
340.895
340.765
340.516
340.172
339.758
339.303
338.832
338.368
337.938
337.609
330.812
331.077
331.427
331.806
332.192
332.564
332.902
333.183
333.386
333.492
333.492
333.386
333.183
332.902
332.564
332.192
331.806
331.427
331.077
330.812
323.993
324.196
324.468
324.763
325.063
325.352
325.615
325.833
325.991
326.074
326.074
325.991
325.833
325.615
325.352
325.063
324.763
324.468
324.196
323.993
317.158
317.302
317.495
317.706
317.92
318.127
318.314
318.471
318.583
318.642
318.642
318.583
318.471
318.314
318.127
317.92
317.706
317.495
317.302
317.158
310.311
310.397
310.513
310.64
310.768
310.892
311.005
311.099
311.166
311.201
311.201
311.166
311.099
311.005
310.892
310.768
310.64
310.513
310.397
310.311
303.457
303.486
303.525
303.567
303.61
303.652
303.69
303.721
303.744
303.755
303.755
303.744
303.721
303.69
303.652
303.61
303.567
303.525
303.486
303.457
352.332
352.777
353.336
353.934
354.538
355.119
355.645
356.081
356.395
356.56
356.56
356.395
356.081
355.645
355.119
354.538
353.934
353.336
352.777
352.332
345.431
345.808
346.29
346.808
347.331
347.833
348.289
348.666
348.938
349.08
349.08
348.938
348.666
348.289
347.833
347.331
346.808
346.29
345.808
345.431
338.498
338.811
339.218
339.655
340.097
340.522
340.907
341.226
341.456
341.576
341.576
341.456
341.226
340.907
340.522
340.097
339.655
339.218
338.811
338.498
331.539
331.791
332.123
332.48
332.842
333.19
333.504
333.765
333.953
334.051
334.051
333.953
333.765
333.504
333.19
332.842
332.48
332.123
331.791
331.539
324.559
324.752
325.01
325.288
325.569
325.839
326.084
326.287
326.432
326.509
326.509
326.432
326.287
326.084
325.839
325.569
325.288
325.01
324.752
324.559
317.563
317.699
317.883
318.081
318.282
318.475
318.65
318.795
318.899
318.953
318.953
318.899
318.795
318.65
318.475
318.282
318.081
317.883
317.699
317.563
310.554
310.636
310.746
310.865
310.986
311.102
311.206
311.293
311.356
311.389
311.389
311.356
311.293
311.206
311.102
310.986
310.865
310.746
310.636
310.554
303.539
303.566
303.603
303.643
303.683
303.722
303.757
303.786
303.807
303.818
303.818
303.807
303.786
303.757
303.722
303.683
303.643
303.603
303.566
303.539
353.725
354.145
354.671
355.231
355.794
356.332
356.818
357.219
357.507
357.657
357.657
357.507
357.219
356.818
356.332
355.794
355.231
354.671
354.145
353.725
346.638
346.994
347.448
347.933
348.42
348.887
349.307
349.654
349.903
350.034
350.034
349.903
349.654
349.307
348.887
348.42
347.933
347.448
346.994
346.638
339.521
339.816
340.199
340.608
341.021
341.415
341.77
342.064
342.274
342.384
342.384
342.274
342.064
341.77
341.415
341.021
340.608
340.199
339.816
339.521
332.376
332.614
332.926
333.261
333.598
333.921
334.211
334.451
334.623
334.713
334.713
334.623
334.451
334.211
333.921
333.598
333.261
332.926
332.614
332.376
325.211
325.393
325.635
325.896
326.158
326.409
326.634
326.821
326.955
327.025
327.025
326.955
326.821
326.634
326.409
326.158
325.896
325.635
325.393
325.211
318.028
318.157
318.33
318.516
318.703
318.882
319.044
319.177
319.272
319.322
319.322
319.272
319.177
319.044
318.882
318.703
318.516
318.33
318.157
318.028
310.834
310.911
311.014
311.126
311.239
311.346
311.443
311.523
311.58
311.61
311.61
311.58
311.523
311.443
311.346
311.239
311.126
311.014
310.911
310.834
303.632
303.658
303.693
303.73
303.768
303.804
303.837
303.863
303.883
303.893
303.893
303.883
303.863
303.837
303.804
303.768
303.73
303.693
303.658
303.632
355.302
355.697
356.189
356.711
357.231
357.727
358.173
358.539
358.801
358.938
358.938
358.801
358.539
358.173
357.727
357.231
356.711
356.189
355.697
355.302
348.006
348.34
348.765
349.217
349.668
350.098
350.483
350.801
351.027
351.146
351.146
351.027
350.801
350.483
350.098
349.668
349.217
348.765
348.34
348.006
340.678
340.956
341.314
341.696
342.077
342.441
342.767
343.035
343.227
343.327
343.327
343.227
343.035
342.767
342.441
342.077
341.696
341.314
340.956
340.678
333.324
333.547
333.839
334.151
334.464
334.761
335.028
335.247
335.404
335.486
335.486
335.404
335.247
335.028
334.761
334.464
334.151
333.839
333.547
333.324
325.948
326.12
326.346
326.589
326.832
327.063
327.27
327.441
327.563
327.626
327.626
327.563
327.441
327.27
327.063
326.832
326.589
326.346
326.12
325.948
318.555
318.677
318.838
319.011
319.185
319.35
319.498
319.62
319.707
319.752
319.752
319.707
319.62
319.498
319.35
319.185
319.011
318.838
318.677
318.555
311.151
311.223
311.32
311.424
311.528
311.627
311.716
311.789
311.842
311.869
311.869
311.842
311.789
311.716
311.627
311.528
311.424
311.32
311.223
311.151
303.739
303.763
303.795
303.83
303.865
303.898
303.928
303.953
303.97
303.979
303.979
303.97
303.953
303.928
303.898
303.865
303.83
303.795
303.763
303.739
357.065
357.435
357.893
358.376
358.856
359.311
359.717
360.049
360.287
360.41
360.41
360.287
360.049
359.717
359.311
358.856
358.376
357.893
357.435
357.065
349.535
349.848
350.244
350.662
351.078
351.472
351.823
352.111
352.317
352.424
352.424
352.317
352.111
351.823
351.472
351.078
350.662
350.244
349.848
349.535
341.973
342.233
342.566
342.92
343.271
343.605
343.902
344.146
344.319
344.41
344.41
344.319
344.146
343.902
343.605
343.271
342.92
342.566
342.233
341.973
334.384
334.593
334.865
335.154
335.442
335.714
335.958
336.157
336.299
336.373
336.373
336.299
336.157
335.958
335.714
335.442
335.154
334.865
334.593
334.384
326.773
326.933
327.144
327.369
327.593
327.805
327.994
328.149
328.26
328.317
328.317
328.26
328.149
327.994
327.805
327.593
327.369
327.144
326.933
326.773
319.145
319.258
319.409
319.569
319.729
319.881
320.016
320.127
320.206
320.247
320.247
320.206
320.127
320.016
319.881
319.729
319.569
319.409
319.258
319.145
311.505
311.572
311.663
311.759
311.855
311.946
312.027
312.094
312.141
312.166
312.166
312.141
312.094
312.027
311.946
311.855
311.759
311.663
311.572
311.505
303.857
303.88
303.91
303.942
303.975
304.005
304.032
304.055
304.071
304.079
304.079
304.071
304.055
304.032
304.005
303.975
303.942
303.91
303.88
303.857
359.018
359.362
359.787
360.232
360.672
361.087
361.455
361.756
361.97
362.081
362.081
361.97
361.756
361.455
361.087
360.672
360.232
359.787
359.362
359.018
351.228
351.52
351.886
352.272
352.653
353.013
353.332
353.593
353.778
353.874
353.874
353.778
353.593
353.332
353.013
352.653
352.272
351.886
351.52
351.228
343.407
343.648
343.957
344.283
344.606
344.91
345.18
345.401
345.557
345.639
345.639
345.557
345.401
345.18
344.91
344.606
344.283
343.957
343.648
343.407
335.557
335.752
336.004
336.27
336.535
336.783
337.004
337.185
337.313
337.379
337.379
337.313
337.185
337.004
336.783
336.535
336.27
336.004
335.752
335.557
327.686
327.835
328.031
328.238
328.444
328.637
328.809
328.949
329.049
329.101
329.101
329.049
328.949
328.809
328.637
328.444
328.238
328.031
327.835
327.686
319.798
319.903
320.043
320.191
320.337
320.476
320.599
320.699
320.77
320.807
320.807
320.77
320.699
320.599
320.476
320.337
320.191
320.043
319.903
319.798
311.897
311.96
312.043
312.132
312.221
312.304
312.377
312.438
312.48
312.503
312.503
312.48
312.438
312.377
312.304
312.221
312.132
312.043
311.96
311.897
303.989
304.01
304.038
304.068
304.097
304.125
304.15
304.17
304.184
304.192
304.192
304.184
304.17
304.15
304.125
304.097
304.068
304.038
304.01
303.989
361.16
361.48
361.872
362.281
362.683
363.06
363.393
363.664
363.856
363.955
363.955
363.856
363.664
363.393
363.06
362.683
362.281
361.872
361.48
361.16
353.086
353.356
353.695
354.049
354.398
354.724
355.013
355.248
355.414
355.5
355.5
355.414
355.248
355.013
354.724
354.398
354.049
353.695
353.356
353.086
344.979
345.203
345.489
345.788
346.083
346.36
346.604
346.803
346.943
347.016
347.016
346.943
346.803
346.604
346.36
346.083
345.788
345.489
345.203
344.979
336.845
337.025
337.258
337.503
337.744
337.97
338.17
338.333
338.448
338.508
338.508
338.448
338.333
338.17
337.97
337.744
337.503
337.258
337.025
336.845
328.688
328.826
329.007
329.197
329.385
329.561
329.717
329.843
329.933
329.979
329.979
329.933
329.843
329.717
329.561
329.385
329.197
329.007
328.826
328.688
320.514
320.612
320.74
320.876
321.011
321.136
321.248
321.338
321.402
321.435
321.435
321.402
321.338
321.248
321.136
321.011
320.876
320.74
320.612
320.514
312.327
312.385
312.463
312.544
312.625
312.701
312.767
312.822
312.86
312.88
312.88
312.86
312.822
312.767
312.701
312.625
312.544
312.463
312.385
312.327
304.133
304.153
304.178
304.206
304.233
304.258
304.281
304.299
304.312
304.318
304.318
304.312
304.299
304.281
304.258
304.233
304.206
304.178
304.153
304.133
363.493
363.788
364.149
364.524
364.89
365.231
365.532
365.775
365.947
366.035
366.035
365.947
365.775
365.532
365.231
364.89
364.524
364.149
363.788
363.493
355.109
355.359
355.67
355.995
356.312
356.608
356.868
357.079
357.228
357.305
357.305
357.228
357.079
356.868
356.608
356.312
355.995
355.67
355.359
355.109
346.691
346.899
347.161
347.436
347.704
347.955
348.175
348.354
348.479
348.545
348.545
348.479
348.354
348.175
347.955
347.704
347.436
347.161
346.899
346.691
338.246
338.413
338.627
338.852
339.071
339.276
339.457
339.603
339.706
339.759
339.759
339.706
339.603
339.457
339.276
339.071
338.852
338.627
338.413
338.246
329.778
329.906
330.072
330.247
330.418
330.578
330.718
330.831
330.912
330.953
330.953
330.912
330.831
330.718
330.578
330.418
330.247
330.072
329.906
329.778
321.293
321.383
321.502
321.627
321.749
321.863
321.963
322.044
322.102
322.131
322.131
322.102
322.044
321.963
321.863
321.749
321.627
321.502
321.383
321.293
312.795
312.849
312.92
312.995
313.069
313.137
313.197
313.246
313.28
313.298
313.298
313.28
313.246
313.197
313.137
313.069
312.995
312.92
312.849
312.795
304.29
304.308
304.332
304.357
304.382
304.404
304.425
304.441
304.453
304.459
304.459
304.453
304.441
304.425
304.404
304.382
304.357
304.332
304.308
304.29
366.012
366.285
366.616
366.958
367.291
367.599
367.869
368.087
368.241
368.32
368.32
368.241
368.087
367.869
367.599
367.291
366.958
366.616
366.285
366.012
357.293
357.523
357.809
358.105
358.394
358.661
358.895
359.084
359.217
359.286
359.286
359.217
359.084
358.895
358.661
358.394
358.105
357.809
357.523
357.293
348.539
348.73
348.972
349.222
349.466
349.693
349.891
350.051
350.164
350.222
350.222
350.164
350.051
349.891
349.693
349.466
349.222
348.972
348.73
348.539
339.758
339.912
340.109
340.314
340.514
340.699
340.861
340.992
341.084
341.132
341.132
341.084
340.992
340.861
340.699
340.514
340.314
340.109
339.912
339.758
330.955
331.073
331.225
331.385
331.54
331.684
331.811
331.913
331.984
332.021
332.021
331.984
331.913
331.811
331.684
331.54
331.385
331.225
331.073
330.955
322.134
322.217
322.326
322.44
322.551
322.654
322.744
322.817
322.868
322.895
322.895
322.868
322.817
322.744
322.654
322.551
322.44
322.326
322.217
322.134
313.3
313.35
313.415
313.484
313.55
313.612
313.667
313.71
313.741
313.757
313.757
313.741
313.71
313.667
313.612
313.55
313.484
313.415
313.35
313.3
304.459
304.476
304.498
304.521
304.543
304.564
304.582
304.597
304.607
304.612
304.612
304.607
304.597
304.582
304.564
304.543
304.521
304.498
304.476
304.459
368.708
368.958
369.262
369.574
369.876
370.154
370.397
370.592
370.728
370.799
370.799
370.728
370.592
370.397
370.154
369.876
369.574
369.262
368.958
368.708
359.627
359.839
360.101
360.371
360.633
360.874
361.085
361.254
361.373
361.434
361.434
361.373
361.254
361.085
360.874
360.633
360.371
360.101
359.839
359.627
350.514
350.689
350.91
351.139
351.36
351.565
351.743
351.886
351.987
352.039
352.039
351.987
351.886
351.743
351.565
351.36
351.139
350.91
350.689
350.514
341.373
341.514
341.695
341.882
342.063
342.23
342.376
342.493
342.576
342.618
342.618
342.576
342.493
342.376
342.23
342.063
341.882
341.695
341.514
341.373
332.21
332.319
332.459
332.604
332.745
332.875
332.989
333.08
333.144
333.177
333.177
333.144
333.08
332.989
332.875
332.745
332.604
332.459
332.319
332.21
323.03
323.107
323.207
323.311
323.412
323.505
323.586
323.651
323.697
323.721
323.721
323.697
323.651
323.586
323.505
323.412
323.311
323.207
323.107
323.03
313.839
313.884
313.944
314.007
314.067
314.123
314.172
314.211
314.239
314.253
314.253
314.239
314.211
314.172
314.123
314.067
314.007
313.944
313.884
313.839
304.64
304.655
304.675
304.696
304.716
304.735
304.751
304.765
304.774
304.778
304.778
304.774
304.765
304.751
304.735
304.716
304.696
304.675
304.655
304.64
371.55
371.78
372.058
372.342
372.616
372.867
373.085
373.26
373.382
373.445
373.445
373.382
373.26
373.085
372.867
372.616
372.342
372.058
371.78
371.55
362.084
362.279
362.519
362.765
363.002
363.22
363.409
363.561
363.667
363.721
363.721
363.667
363.561
363.409
363.22
363.002
362.765
362.519
362.279
362.084
352.588
352.75
352.952
353.16
353.361
353.546
353.706
353.834
353.924
353.97
353.97
353.924
353.834
353.706
353.546
353.361
353.16
352.952
352.75
352.588
343.067
343.197
343.362
343.532
343.697
343.848
343.979
344.084
344.158
344.195
344.195
344.158
344.084
343.979
343.848
343.697
343.532
343.362
343.197
343.067
333.526
333.626
333.754
333.886
334.014
334.132
334.234
334.316
334.373
334.402
334.402
334.373
334.316
334.234
334.132
334.014
333.886
333.754
333.626
333.526
323.969
324.04
324.131
324.226
324.318
324.402
324.475
324.533
324.574
324.595
324.595
324.574
324.533
324.475
324.402
324.318
324.226
324.131
324.04
323.969
314.402
314.444
314.499
314.556
314.611
314.661
314.705
314.74
314.765
314.778
314.778
314.765
314.74
314.705
314.661
314.611
314.556
314.499
314.444
314.402
304.828
304.843
304.861
304.88
304.898
304.915
304.93
304.942
304.95
304.954
304.954
304.95
304.942
304.93
304.915
304.898
304.88
304.861
304.843
304.828
374.465
374.676
374.931
375.19
375.439
375.666
375.862
376.019
376.128
376.184
376.184
376.128
376.019
375.862
375.666
375.439
375.19
374.931
374.676
374.465
364.592
364.772
364.992
365.216
365.432
365.629
365.799
365.935
366.03
366.079
366.079
366.03
365.935
365.799
365.629
365.432
365.216
364.992
364.772
364.592
354.697
354.846
355.031
355.221
355.404
355.571
355.715
355.831
355.911
355.952
355.952
355.911
355.831
355.715
355.571
355.404
355.221
355.031
354.846
354.697
344.783
344.902
345.054
345.21
345.359
345.496
345.614
345.709
345.775
345.808
345.808
345.775
345.709
345.614
345.496
345.359
345.21
345.054
344.902
344.783
334.854
334.946
335.064
335.185
335.301
335.408
335.5
335.574
335.625
335.651
335.651
335.625
335.574
335.5
335.408
335.301
335.185
335.064
334.946
334.854
324.915
324.98
325.064
325.151
325.234
325.31
325.376
325.429
325.465
325.484
325.484
325.465
325.429
325.376
325.31
325.234
325.151
325.064
324.98
324.915
314.969
315.008
315.058
315.11
315.16
315.206
315.246
315.277
315.299
315.311
315.311
315.299
315.277
315.246
315.206
315.16
315.11
315.058
315.008
314.969
305.018
305.031
305.048
305.066
305.082
305.098
305.111
305.122
305.129
305.133
305.133
305.129
305.122
305.111
305.098
305.082
305.066
305.048
305.031
305.018
377.263
377.459
377.694
377.932
378.159
378.366
378.544
378.686
378.785
378.836
378.836
378.785
378.686
378.544
378.366
378.159
377.932
377.694
377.459
377.263
366.971
367.137
367.34
367.547
367.745
367.924
368.079
368.203
368.289
368.333
368.333
368.289
368.203
368.079
367.924
367.745
367.547
367.34
367.137
366.971
356.675
356.813
356.985
357.16
357.327
357.48
357.612
357.716
357.789
357.826
357.826
357.789
357.716
357.612
357.48
357.327
357.16
356.985
356.813
356.675
346.378
346.489
346.629
346.773
346.91
347.035
347.143
347.229
347.289
347.319
347.319
347.289
347.229
347.143
347.035
346.91
346.773
346.629
346.489
346.378
336.08
336.166
336.275
336.386
336.493
336.591
336.675
336.742
336.788
336.812
336.812
336.788
336.742
336.675
336.591
336.493
336.386
336.275
336.166
336.08
325.783
325.844
325.921
326.001
326.078
326.148
326.208
326.256
326.289
326.306
326.306
326.289
326.256
326.208
326.148
326.078
326.001
325.921
325.844
325.783
315.487
315.523
315.57
315.618
315.664
315.706
315.742
315.771
315.791
315.801
315.801
315.791
315.771
315.742
315.706
315.664
315.618
315.57
315.523
315.487
305.191
305.203
305.219
305.235
305.251
305.265
305.277
305.286
305.293
305.297
305.297
305.293
305.286
305.277
305.265
305.251
305.235
305.219
305.203
305.191
379.452
379.637
379.858
380.081
380.293
380.486
380.652
380.784
380.875
380.922
380.922
380.875
380.784
380.652
380.486
380.293
380.081
379.858
379.637
379.452
368.762
368.919
369.11
369.305
369.49
369.658
369.803
369.918
369.998
370.039
370.039
369.998
369.918
369.803
369.658
369.49
369.305
369.11
368.919
368.762
358.119
358.249
358.412
358.577
358.734
358.878
359.001
359.098
359.166
359.201
359.201
359.166
359.098
359.001
358.878
358.734
358.577
358.412
358.249
358.119
347.513
347.619
347.751
347.887
348.017
348.134
348.235
348.316
348.372
348.4
348.4
348.372
348.316
348.235
348.134
348.017
347.887
347.751
347.619
347.513
336.937
337.018
337.121
337.227
337.328
337.42
337.499
337.561
337.605
337.627
337.627
337.605
337.561
337.499
337.42
337.328
337.227
337.121
337.018
336.937
326.381
326.439
326.513
326.588
326.661
326.727
326.783
326.828
326.859
326.875
326.875
326.859
326.828
326.783
326.727
326.661
326.588
326.513
326.439
326.381
315.841
315.875
315.92
315.965
316.009
316.048
316.082
316.109
316.128
316.138
316.138
316.128
316.109
316.082
316.048
316.009
315.965
315.92
315.875
315.841
305.309
305.321
305.335
305.351
305.365
305.379
305.39
305.399
305.405
305.409
305.409
305.405
305.399
305.39
305.379
305.365
305.351
305.335
305.321
305.309
)
;

boundaryField
{
    hotSide
    {
        type            fixedGradient;
        gradient        nonuniform List<scalar> 
400
(
498.207
500.002
503.599
509.008
516.246
525.334
536.294
549.153
563.937
580.672
599.384
620.097
642.834
667.613
694.453
723.368
754.372
787.473
822.68
859.999
505.457
507.195
510.679
515.924
522.952
531.79
542.469
555.022
569.484
585.887
604.264
624.645
647.056
671.521
698.06
726.69
757.424
790.274
825.248
862.351
513.303
514.973
518.322
523.372
530.152
538.697
549.046
561.245
575.334
591.358
609.355
629.362
651.41
675.527
701.736
730.056
760.501
793.082
827.808
864.684
521.616
523.205
526.399
531.223
537.716
545.924
555.898
567.694
581.366
596.967
614.544
634.141
655.795
679.538
705.396
733.387
763.529
795.831
830.302
866.945
530.162
531.662
534.68
539.252
545.425
553.259
562.821
574.177
587.397
602.542
619.672
638.836
660.078
683.433
708.928
736.586
766.42
798.442
832.658
869.071
538.586
539.99
542.821
547.123
552.957
560.398
569.526
580.426
593.178
607.858
624.533
643.262
664.092
687.063
712.203
739.534
769.072
800.826
834.8
870.994
546.405
547.713
550.357
554.391
559.89
566.944
575.649
586.104
598.405
612.639
628.883
647.201
667.647
690.26
715.073
742.107
771.376
802.887
836.644
872.644
553.041
554.262
556.738
560.532
565.731
572.44
580.769
590.834
602.741
616.587
632.458
650.424
670.542
692.854
717.392
744.177
773.222
804.533
838.111
873.953
557.897
559.052
561.4
565.01
569.981
576.427
584.474
594.245
605.856
619.415
635.01
652.717
672.594
694.686
719.024
745.63
774.514
805.681
839.132
874.862
560.471
561.59
563.867
567.377
572.224
578.529
586.423
596.035
607.488
620.892
636.34
653.909
673.659
695.635
719.868
746.379
775.179
806.272
839.657
875.328
560.471
561.59
563.867
567.377
572.224
578.529
586.423
596.035
607.488
620.892
636.34
653.909
673.659
695.635
719.868
746.379
775.179
806.272
839.657
875.328
557.897
559.052
561.4
565.01
569.981
576.427
584.474
594.245
605.856
619.415
635.01
652.717
672.594
694.686
719.024
745.63
774.514
805.681
839.132
874.862
553.041
554.262
556.738
560.532
565.731
572.44
580.769
590.834
602.741
616.587
632.458
650.424
670.542
692.854
717.392
744.177
773.222
804.533
838.111
873.953
546.405
547.713
550.357
554.391
559.89
566.944
575.649
586.104
598.405
612.639
628.883
647.201
667.647
690.26
715.073
742.107
771.376
802.887
836.644
872.644
538.586
539.99
542.821
547.123
552.957
560.398
569.526
580.426
593.178
607.858
624.533
643.262
664.092
687.063
712.203
739.534
769.072
800.826
834.8
870.994
530.162
531.662
534.68
539.252
545.425
553.259
562.821
574.177
587.397
602.542
619.672
638.836
660.078
683.433
708.928
736.586
766.42
798.442
832.658
869.071
521.616
523.205
526.399
531.223
537.716
545.924
555.898
567.694
581.366
596.967
614.544
634.141
655.795
679.538
705.396
733.387
763.529
795.831
830.302
866.945
513.303
514.973
518.322
523.372
530.152
538.697
549.046
561.245
575.334
591.358
609.355
629.362
651.41
675.527
701.736
730.056
760.501
793.082
827.808
864.684
505.457
507.195
510.679
515.924
522.952
531.79
542.469
555.022
569.484
585.887
604.264
624.645
647.056
671.521
698.06
726.69
757.424
790.274
825.248
862.351
498.207
500.002
503.599
509.008
516.246
525.334
536.294
549.153
563.937
580.672
599.384
620.097
642.834
667.613
694.453
723.368
754.372
787.473
822.68
859.999
)
;
    }
    coldSide
    {
        type            mixed;
        refValue        uniform 300;
        refGradient     uniform 0;
        valueFraction   uniform 0.991591;
        source          uniform 0;
        value           nonuniform List<scalar> 
400
(
300.027
300.027
300.027
300.028
300.028
300.028
300.029
300.03
300.031
300.031
300.032
300.034
300.035
300.036
300.037
300.039
300.041
300.042
300.044
300.045
300.027
300.027
300.028
300.028
300.028
300.029
300.029
300.03
300.031
300.032