/*--------------------------------*- C++ -*----------------------------------*\
| =========                 |                                                 |
| \\      /  F ield         | OpenFOAM: The Open Source CFD Toolbox           |
|  \\    /   O peration     | Version:  2212                                  |
|   \\  /    A nd           | Website:  www.openfoam.com                      |
|    \\/     M anipulation  |                                                 |
\*---------------------------------------------------------------------------*/
FoamFile
{
    version     2.0;
    format      ascii;
    arch        "LSB;label=32;scalar=64";
    class       volScalarField;
    location    "0";
    object      stateMean;
}
// * * * * * * * * * * * * * * * * * * * * * * * * * * * * * * * * * * * * * //

dimensions      [0 0 0 1 0 0 0];

internalField   nonuniform List<scalar> 
3200
(
342.184
342.796
346.035
345.949
346.29
345.553
344.992
346.389
348.723
350.671
346.268
345.576
345.893
349.796
347.286
343.544
344.962
345.804
342.596
340.753
334.47
335.663
337.386
339.098
342.68
341.626
338.216
341.114
339.363
341.365
341.79
340.755
339.461
339.504
340.93
337.983
338.024
337.176
337.573
338.154
332.441
333.537
332.066
334.439
334.05
334.166
335.501
333.482
335.06
337.93
334.336
332.637
332.893
333.786
333.947
331.754
331.272
333.709
332.087
332.624
324.869
323.842
327.168
326.905
326.674
328.271
327.082
327.945
330.474
328.327
329.655
327.292
329.839
327.083
328.219
326.463
328.489
326.984
324.677
326.183
319.149
320.53
319.903
321.943
320.673
322.747
322.675
322.894
323.223
322.103
322.758
321.138
322.801
321.303
321.318
321.266
320.042
321.262
316.921
321.082
314.792
313.352
314.544
313.359
314.862
314.627
316.918
315.245
314.552
315.543
315.748
315.238
316.505
313.619
317.873
315.308
314.457
314.045
312.77
314.796
310.708
305.584
307.907
310.585
308.817
307.698
310.4
308.834
309.696
307.157
309.217
308.615
310.166
309.179
307.754
310.243
306.562
309.325
308.4
310.616
303.49
302.308
304.912
302.459
305.062
302.474
304.384
302.351
303.999
302.768
304.375
305.395
302.062
302.49
302.321
301.833
302.888
302.816
302.325
305.22
343.698
342.378
343.961
346.145
345.876
345.893
349.174
347.712
346.497
350.066
345.945
346.923
346.666
347.808
345.22
345.713
345.661
347.318
344.42
344.882
335.718
338.616
337.955
339.592
338.302
343.08
341.751
346.144
341.436
347.223
346.282
341.845
346.154
341.381
344.307
340.613
342.116
339.526
339.548
338.049
332.288
332.047
334.01
333.857
334.047
332.98
336.998
333.441
334.091
334.451
338.186
336.195
334.387
336.816
331.717
334.837
332.071
332.14
333.572
332.236
324.15
327.304
328.037
331.176
329.465
328.668
329.928
329.994
330.997
330.131
328.372
325.733
329.889
327.836
326.404
328.881
327.392
328.271
326.778
325.454
320.659
321.111
319.802
323.028
321.397
321.934
322.439
320.945
323.089
322.037
321.61
323.629
320.692
320.967
319.978
323.552
322.831
320.07
320.832
319.695
314.919
316.495
316.226
316.268
317.058
314.72
316.643
315.684
318.655
317.843
314.941
316.777
317.024
315.553
315.242
315.436
315.41
312.809
313.499
315.338
307.942
309.481
310.782
310.195
311.563
308.4
311.486
307.76
311.66
310.336
310.08
309.304
308.405
310.295
309.922
309.495
308.602
307.667
309.2
305.688
304.388
303.027
303.874
304.502
303.786
303.719
300.799
303.396
302.528
304.519
301.239
304.508
304.12
303.85
303.619
302.353
304.244
301.846
302.232
306.317
344.819
344.088
345.095
348.548
346.003
347.078
348.768
346.417
348.179
349.832
350.718
351.047
348.187
351.026
345.553
348.525
344.4
343.439
344.6
345.126
336.654
337.835
339.994
342.316
340.664
340.868
340.293
340.833
345.089
343.066
345.077
343.831
340.738
343.127
342.818
341.856
339.596
340.085
336.221
338.496
332.32
332.34
333.807
335.273
334.443
332.662
335.961
334.617
335.854
334.313
335.478
335.723
337.729
335.5
334.426
333.894
333.691
333.176
333.563
329.693
325.098
329.892
325.446
326.668
327.164
331.175
328.716
331.245
330.75
328.455
329.337
329.865
325.565
326.815
327.432
332.419
328.222
328.936
327.433
325.597
321.318
320.09
322.285
321.473
321.338
322.291
320.951
324.959
324.917
321.76
321.885
324.589
323.711
320.745
321.499
321.238
321.014
318.548
321.025
320.65
314.948
314.471
317.516
316.49
314.98
316.511
318.241
312.865
316.614
314.968
317.376
315.909
317.471
315.927
316.774
313.029
313.423
311.574
315.695
315.376
307.644
307.542
310.79
311.399
310.887
311.018
310.63
306.581
312.931
309.544
310.696
307.956
309.055
306.459
311.582
309.434
309.861
309.67
305.062
307.073
302.573
303.728
306.327
303.982
304.59
303.071
302.383
302.887
303.812
302.518
304.978
302.997
305.011
305.236
304.064
302.874
304.457
303.318
302.058
303.493
347.595
344.849
348.044
346.244
346.443
349.284
347.854
349.094
349.766
347.369
351.501
349.212
347.285
350.162
346.604
348.753
346.144
345.951
345.464
345.147
339.626
337.379
340.952
342.004
341.413
344.603
341.008
346.574
342.8
346.963
346.44
343.654
345.779
342.823
343.787
344.903
340.905
341.561
339.155
340.515
333.168
335.11
334.202
335.083
336.306
335.8
337.009
338.246
336.313
338.43
336.57
337.041
336.381
335.648
335.811
336.085
335.699
333.014
332.407
330.066
325.328
327.882
328.591
330.682
327.718
330.245
331.202
328.236
331.669
330.898
331.42
327.408
329.086
331.916
326.776
331.142
327.968
330.203
325.961
326.926
321.603
323.852
321.362
319.694
322.042
322.503
323.062
322.388
324.128
323.074
323.627
323.745
322.735
322.819
324.614
322.468
323.942
320.47
321.632
320.847
314.492
313.497
315.616
314.771
318.213
314.39
318.561
318.996
317.737
319.154
317.256
316.185
318.22
316.389
315.647
316.491
316.346
315.626
313.971
313.812
310.099
309.201
308.719
312.507
309.281
309.191
309.468
310.379
310.019
310.793
310.956
308.773
309.691
309.128
312.358
309.049
309.887
309.705
307.067
308.25
302.712
302.127
307.134
302.618
300.901
303.499
302.557
302.82
303.663
305.804
302.651
302.118
304.649
303.346
304.024
305.094
304.961
304.546
303.508
302.194
345.638
344.917
350.315
345.984
350.761
349.906
350.65
351.9
352.32
351.259
351.217
350.487
353.616
350.978
351.442
345.102
347.573
348.025
346.924
345.722
340.872
340.251
341.222
343.571
344.86
342.713
344.614
343.222
345.786
344.859
342.66
344.793
344.463
344.587
342
341.979
341.902
341.329
337.218
338.839
333.15
335.994
338.108
336.377
336.627
338.197
334.108
338.625
337.396
338.406
338.055
335.117
338.024
334.718
334.375
336.499
334.463
335.24
333.314
332.763
327.113
330.984
325.193
331.042
330.148
332.291
331.641
330.78
332.179
329.408
332.19
331.553
330.562
328.033
330.51
329.395
328.789
332.931
327.491
327.468
320.728
321.267
321.579
324.662
324.026
322.502
324.485
323.201
328.206
323.897
323.265
323.824
323.702
324.219
320.665
322.04
320.215
321
319.269
322.24
313.658
317.259
315.528
314.932
315.779
318.454
317.566
317.033
315.757
318.575
317.53
320.414
317.043
317.703
314.781
317.31
317.495
315.152
315.256
312.215
308.427
308.75
309.599
309.395
311.44
309.291
309.679
310.806
310.542
313.392
309.297
308.914
309.099
308.799
309.438
310.246
310.642
310.231
309.276
310.367
302.239
303.755
305.293
304.535
302.682
304.557
304.612
305.97
302.054
304.971
301.63
305.365
303.404
301.875
301.579
303.624
302.593
304.71
304.714
304.267
349.245
348.328
347.896
349.659
351.71
349.102
350.528
351.282
353.691
353.023
353.097
351.074
353.455
348.738
350.628
349.974
350.003
347.25
345.416
344.837
338.967
337.886
342.616
341.241
345.12
344.552
345.951
346.284
346.372
346.866
347.311
347.46
345.769
344.11
343.905
341.958
341.594
341.222
340.063
341.137
334.192
335.697
335.16
336.432
335.913
335.857
337.134
339.648
339.048
339.457
337.526
338.16
336.007
335.497
337.91
336.322
334.554
335.243
335.835
334.967
330.189
330.876
326.48
329.998
331.437
330.916
331.8
330.887
332.136
332.345
329.73
331.06
330.947
332.955
329.568
330.864
330.861
331.131
327.494
328.209
322.717
323.271
322.657
325.264
323.394
325.059
326.172
327.137
324.656
325.16
326.198
323.161
324.703
325.495
324.446
324.157
323.455
319.875
323.263
322.861
316.088
317.872
318.087
314.865
318.483
317.302
318.252
316.483
319.675
318.274
319.25
318.881
317.628
319.247
313.21
316.232
313.887
318.25
314.246
316.069
307.615
308.434
308.676
309.549
307.147
309.552
311.877
310.216
309.571
309.393
309.346
309.328
309.534
310.728
311.16
310.801
309.217
309.704
309.259
304.92
306.086
303.205
300.169
303.297
303.805
302.487
303.362
303.797
302.814
302.633
302.117
304.183
303.327
300.966
301.107
302.018
303.353
300.931
302.635
301.927
347.296
348.848
349.706
348.901
351.969
353.935
353.209
352.878
353.258
354.679
351.885
353.272
353.756
349.644
353.942
352.555
352.385
350.601
348.126
346.295
342.042
344.193
343.166
343.808
342.871
344.761
346.013
343.206
346.104
346.358
344.887
347.471
345.407
346.35
346.07
345.967
343.086
342.739
341.652
342.203
333.997
334.181
335.756
336.521
336.08
337.793
340.479
339.99
337.376
340.747
339.916
336.573
340.651
339.895
339.887
338.163
337.668
336.95
334.646
337.552
330.448
328.675
328.519
328.813
333.199
333.717
331.311
331.338
332.618
331.153
330.123
332.515
333.292
333.19
331.623
332.364
332.411
330.26
327.1
327.649
322.007
325.143
322.745
324.114
326.67
323.905
325.16
324.382
322.595
326.138
325.891
325.104
327.241
323.98
322.987
325.473
319.978
325.187
322.671
319.719
320.618
317.172
316.847
316.266
317.533
318.589
318.034
317.237
317.568
318.672
319.611
320.174
317.89
317.411
316.01
315.375
313.194
318.583
316.694
312.437
309.797
310.269
307.782
309.645
311.494
310.752
309.607
312.299
308.489
309.327
311.853
310.752
311.043
313.198
309
309.889
310.816
310.935
309.123
312.803
304.191
301.725
303.198
303.194
303.558
301.747
303.541
301.638
304.331
301.802
301.606
302.859
302.502
302.025
303.92
303.725
302.635
304.273
302.924
302.715
351.133
348.717
349.021
352.582
351.897
352.227
354.04
351.617
354.239
354.137
355.493
354.721
352.214
352.585
352.708
350.772
351.403
348.039
349.529
347.065
343.24
340.676
342.541
340.824
345.813
345.096
348.523
345.822
348.24
347.25
347.668
346.872
346.443
346.349
344.354
344.633
342.555
343.943
340.669
338.098
333.955
337.398
338.787
337.661
337.819
337.854
340.621
341.364
341.242
340.381
340.183
336.759
341.072
340.336
338.482
334.755
338.257
337.648
336.808
334.416
327.696
330.148
327.385
330.646
331.122
332.699
332.958
332.488
331.155
333.017
332.375
333.649
332.449
332.241
328.785
332.282
331.068
332.386
329.232
327.894
323.842
324.133
325.569
324.293
326.919
325.373
325.481
326.23
326.139
325.296
326.152
326.152
327.602
325.197
325.617
325.102
325.82
324.807
325.205
322.337
316.922
316.232
315.006
317.995
317.657
317.759
319.419
317.634
318.529
319.577
319.68
317.586
319.426
315.28
319.139
317.419
316.803
319.176
314.801
317.318
308.741
308.934
309.033
310.704
312.738
310.169
312.843
311.674
310.308
309.78
311.281
311.156
307.436
311.431
310.56
310.893
307.558
312.93
311.81
308.825
301.915
302.796
304.48
303.651
303.479
303.714
303.616
302.909
302.414
303.186
303.594
302.643
300.877
304.149
302.464
304.972
304.421
299.419
303.635
305.72
348.249
352.707
350.549
352.334
351.141
353.78
355.754
354.816
356.618
354.203
353.861
355.434
353.828
356.516
354.12
355.498
352.14
353.376
349.608
348.278
344.07
342.003
343.928
344.65
348.13
346.265
348.136
346.153
347.817
347.137
349.468
348.531
349.43
347.413
345.237
347.949
343.759
344.399
343.455
343.285
337.371
336.816
338.472
337.602
340.491
340.257
340.133
338.859
343.54
340.48
339.097
340.351
341.022
340.893
339.045
339.765
339.02
341.085
336.743
335.531
332.064
330.539
330.888
332.242
330.622
331.262
330.994
332.463
332.338
331.22
335.587
333.517
333.795
332.377
333.821
330.975
332.806
330.997
330.472
327.945
324.92
323.888
324.025
322.912
322.321
326.523
327.097
325.743
327.628
325.765
327.649
324.735
326.07
327.384
328.153
323.877
324.855
325.793
324.172
322.622
317.046
315.601
318.287
317.252
317.867
316.76
315.833
318.3
318.179
319.621
319.279
319.585
318.324
317.568
317.206
315.955
317.152
316.989
318.162
318.146
311.179
312.51
311.167
308.587
312.362
310.429
308.239
311.456
310.84
312.34
310.574
309.527
312.274
311.614
310.427
311.685
311.972
312.316
309.738
311.278
305.388
305.747
304.176
301.472
306.475
301.01
302.25
304.786
304.403
300.673
305.461
303.594
305.378
303.698
303.492
303.43
304.478
301.922
303.614
305.296
351.923
351.318
353.168
355.062
352.689
356.086
357.693
357.993
355.302
355.692
357.042
354.696
357.534
355.607
354.225
353.957
350.926
352.566
349.973
349.288
344.073
343.163
345.766
343.173
345.522
346.335
347.785
347.336
350.162
348.406
347.493
349.26
347.031
344.797
344.872
344.813
343.529
342.656
341.682
345.239
338.375
337.851
339.094
339.773
339.185
338.243
341.338
340.681
341.228
339.982
339.139
341.445
345.58
341.372
338.823
338.095
337.984
339.302
335.814
337.515
333.236
328.498
330.712
332.923
331.595
331.006
334.632
335.592
335.584
333.789
333.753
333.916
332.505
332.894
333.837
330.583
332.297
329.216
330.579
329.677
323.636
323.883
323.85
323.642
326.202
325.317
325.823
325.841
326.245
327.503
326.716
327.73
324.639
326.387
324.844
327.241
322.7
326.072
323.876
321.062
317.302
315.917
318.621
318.151
320.498
316.772
318.731
319.431
319.087
318.012
318.073
317.448
316.984
317.778
319.485
318.987
319.866
316.658
316.122
317.547
310.951
312.624
310.423
309.669
311.352
312.098
311.134
311.217
309.323
312.425
314.482
307.995
311.031
310.028
311.989
311.343
310.902
310.289
311.125
310.659
303.472
304.652
303.745
304.06
304.284
304.806
305.281
303.499
302.55
302.612
303.234
303.972
304.62
302.614
303.729
303.739
304.834
305.608
305.516
303.287
352.098
351.477
355.334
353.219
353.838
356.358
356.932
355.824
357.06
357.687
358.812
355.91
353.936
358.38
354.542
354.916
353.073
355.566
347.61
351.032
345.323
343.331
346.08
343.984
347.741
346.009
348.878
347.556
349.69
348.055
348.283
350.522
346.897
350.017
345.461
347.65
344.433
347.269
342.986
343.734
335.94
336.737
337.95
339.607
341.364
342.522
343.986
342.608
340.532
342.298
341.543
342.697
340.452
342.878
341.49
340.235
337.591
339.069
339.556
336.367
331.528
328.662
332.514
332.155
330.66
335.547
333.549
336.837
331.437
333.03
334.589
333.778
335.701
333.5
332.579
332.754
331.291
331.176
330.834
330.81
323.785
324.074
325.002
325.408
324.26
326.701
328.144
326.276
324.995
328.855
325.511
327.12
328.185
327.35
324.887
327.12
324.217
324.748
326.033
323.778
316.29
315.733
318.995
317.496
318.669
316.688
319.394
318.964
316.887
319.654
319.85
318.691
317.778
318.208
319.505
319.649
316.777
318.13
317.898
316.953
307.614
312.422
310.332
312.106
310.616
309.698
310.059
312.258
311.156
312.349
311.643
309.748
312.172
311.61
310.733
309.744
309.924
310.849
310.11
309.202
305.392
304.157
306.419
302.425
303.798
304.411
304.833
302.635
305.079
302.488
304.593
305.636
300.729
305.179
306.454
302.409
303.382
304.598
302.836
302.912
352.974
354.241
355.718
355.282
354.967
356.332
358.158
357.731
359.528
356.799
357.394
357.262
356.848
357.567
356.922
355.275
355.185
353.209
350.672
347.877
345.745
347.37
345.003
347.128
348.023
348.735
348.779
348.31
351.832
348.736
349.682
349.086
352.976
347.859
350.336
350.055
346.318
345.608
344.054
345.574
337.454
338.181
340.822
340.488
339.416
341.935
341.599
343.076
342.349
342.552
339.961
342.254
343.033
342.954
341.599
342.079
338.437
342.685
336.511
337.954
330.13
329.763
332.971
335.224
333.097
333.722
333.192
332.886
336.46
334.205
336.725
337.702
336.636
332.111
333.095
334.153
331.767
332.398
333.115
330.825
324.293
324.182
326.279
325.792
328.462
327.49
327.34
326.346
328.651
326.52
325.551
326.045
324.719
326.977
325.407
326.774
327.419
322.989
325.365
322.47
315.566
317.322
318.617
320.708
318.09
319.143
316.139
318.126
320.203
319.874
317.148
318.392
318.067
320.372
317.192
318.803
317.372
318.789
315.714
317.279
310.615
311.652
310.288
310.944
309.561
313.134
309.297
311.478
311.522
310.922
308.118
314.718
310.559
312.96
310.123
311.833
308.772
312.945
312.615
308.118
304.03
301.441
305.86
305.824
302.607
305.597
302.157
304.182
303.158
304.068
305.055
304.493
302.89
303.317
303.697
302.823
300.056
305.73
302.601
304.953
354.012
354.347
353.111
353.72
356.666
355.404
358.113
357.913
359.231
358.745
358.042
358.395
358.981
356.1
356.142
352.418
353.678
353.783
352.46
348.722
345.838
344.557
348.553
345.946
347.844
347.408
348.34
348.557
351.331
349.194
349.398
350.467
348.659
348.678
347.369
347.423
346.255
344.086
344.438
344.218
338.554
339.371
341.013
342.41
341.251
342.807
342.2
343.436
341.187
344.022
345.218
341.585
345.075
341.641
342.923
342.772
340.407
337.906
339.733
336.996
331.433
333.263
334.577
333.867
332.416
334.254
335.266
337.761
334.569
337.051
336.468
336.093
334.509
334.629
333.213
331.107
333.744
331.747
329.628
331.932
326.217
325.319
325.309
327.272
326.138
326.263
326.649
327.67
327.435
328.049
324.998
328.113
327.394
325.773
325.107
327.661
326.343
324.908
325.856
322.293
317.24
317.014
317.252
319.807
320.321
320.792
317.251
319.408
321.419
320.756
318.201
322.072
318.629
319.724
318.415
318.834
318.74
317.194
318.249
317.381
312.271
311.653
311.15
311.334
312.64
310.747
312.455
311.74
311.088
310.21
310.365
312.724
310.431
312.658
309.407
312.619
310.398
310.336
311.621
309.922
304.461
301.739
302.856
303.821
300.669
300.755
306.717
301.906
302.752
305.325
302.857
302.395
303.797
303.004
303.84
302.826
305.431
305.767
304.096
302.7
352.92
354.305
354.163
358.143
353.956
355.261
360.461
357.1
357.234
359.245
360.392
356.598
357.569
358.433
357.618
353.283
355.862
354.181
352.948
351.064
343.523
346.291
346.907
349.203
348.857
349.387
349.807
351.341
353.018
352.387
353.227
349.77
347.398
350.085
348.125
351.26
345.281
346.831
346.687
345.054
338.211
339.124
342.015
341.52
341.907
343.135
342.876
343.468
345.039
344.711
344.458
343.089
341.165
342.477
339.262
341.386
338.294
339.355
339.747
338.934
331.838
332.179
332.297
334.237
335.38
336.734
333.288
337.158
335.262
335.567
336.789
334.005
338.02
336.566
331.861
333.914
333.745
331.836
330.921
330.296
326.736
324.845
326.665
325.587
327.779
327.433
325.42
328.461
326.874
327.271
326.975
326.211
329.958
327.856
324.826
327.049
327.617
325.161
323.608
325.491
317.337
317.861
320.251
317.387
321.953
319.598
318.119
322.322
317.311
320.243
320.737
320.171
320.982
318.326
320.037
321.436
318.165
318.201
317.64
314.737
309.327
310.007
312.375
311.2
311.193
311.191
312.266
313.887
313.735
310.531
311.02
312.053
314.051
311.149
310.062
312.447
310.295
310.042
310.91
310.298
303.677
302.545
305.396
301.725
304.361
305.199
304.271
304.469
304.621
303.145
303.16
304.099
303.736
304.807
303.155
304.357
305.498
302.637
308.359
303.833
354.666
355.5
356.653
356.973
359.239
358.334
358.335
358.633
359.516
359.211
362.499
360.085
358.34
357.55
355.899
359.832
357.707
354.724
353.707
349.598
347.174
347.105
348.414
347.26
348.431
349.033
353.046
350.346
352.775
350.128
350.839
351.793
350.501
350.029
348.736
349.689
347.803
345.604
347.48
342.443
340.095
337.94
341.339
338.463
344.037
343.739
342.395
344.307
343.376
344.736
346.533
344.615
343.656
343.068
341.594
342.136
339.836
337.999
340.68
338.735
331.089
333.644
333.083
334.36
334.504
333.128
335.514
334.84
337.362
334.858
337.76
335.426
335.985
332.296
333.533
334.479
332.482
331.916
332.572
329.767
323.451
327.172
325.742
322.143
326.866
329.586
326.342
329.669
329.397
328.678
328.778
329.429
326.386
325.865
325.689
326.723
326.753
328.414
326.418
324.357
314.813
318.275
319.976
317.217
320.502
320.396
319.911
321.907
321.188
319.1
318.458
321.382
319.444
319.035
320.19
317.612
319.995
317.037
317.499
318.501
310.882
311.604
312.472
311.852
312.15
312.221
311.386
310.66
311.809
311.342
309.41
311.892
312.549
311.285
310.742
311.92
311.598
311.029
310.268
312.679
303.561
303.39
304.367
303.8
301.828
303.424
303.345
304.892
302.165
306.57
306.294
303.112
303.426
303.56
301.199
303.854
303.381
303.938
304.519
303.154
351.984
352.743
354.135
356.272
355.975
358.182
358.114
360.651
360.377
358.864
359.717
361.492
360.014
359.549
356.363
353.992
355.123
354.391
352.623
354.4
345.403
345.791
347.044
348.934
350.631
348.935
350.584
352.085
350.949
352.528
354.059
352.788
351.117
349.207
351.361
350.371
348.297
348.166
344.822
345.223
339.828
338.532
341.699
342.499
344.091
340.247
343.658
342.098
341.4
344.787
345.44
344.075
343.169
342.154
342.189
345.924
340.429
340.504
339.913
339.136
332.401
333.138
332.485
335.181
335.485
333.476
335.667
335.104
335.075
336.718
334.5
335.473
335.476
335.557
332.956
333.031
334.544
333.979
332.39
330.895
325.841
325.12
327.874
323.324
326.889
325.031
328.103
326.302
326.975
328.865
329.273
326.073
327.446
325.492
328.951
327.485
323.993
326.242
325.45
324.356
319.078
317.438
316.968
317.746
321.908
318.825
321.552
320.237
318.377
323.623
320.481
320.477
316.469
320.154
320.725
318.434
318.511
319.175
318.958
319.214
313.124
312.145
312.414
312.93
308.564
309.495
313.253
313.217
310.902
312.28
310.653
311.516
311.978
310.993
310.885
311.54
313.892
307.659
310.823
310.433
303.23
304.246
303.276
305.393
304.952
303.288
304.333
304.243
304.307
303.797
304.011
305.212
305.806
303.206
305.817
302.528
306.312
300.464
304.203
305.682
353.731
356.41
354.181
356.8
358.46
356.172
359.176
358.372
360.467
358.958
358.168
357.754
361.759
358.244
358.454
357.933
354.286
353.107
354.275
353.634
344.154
348.399
348.758
350.32
349.259
351.226
351.197
352.55
352.645
352.1
353.237
351.454
352.202
351.157
351.291
348.092
350.62
348.547
349.2
343.664
340.817
336.76
341.014
342.078
341.757
341.816
343.249
345.035
343.394
342.009
345.099
342.45
341.226
343.76
343.054
342.502
343.266
338.76
340.525
338.868
331.542
333.257
332.434
333.353
335.895
333.942
333.971
336.502
334.573
335.384
334.306
337.413
337.543
332.539
333.819
333.598
334.6
332.779
334.137
332.171
326.842
326.86
326.546
327.066
327.56
329.459
325.151
325.118
330.118
328.962
328.555
327.26
327.122
326.404
326.613
327.182
326.202
329.375
323.353
322.422
317.922
317.417
319.787
318.764
320.667
317.055
320.167
319.363
321.171
320.944
319.318
321.01
320.019
322.311
318.974
319.3
320.195
320.114
318.437
315.197
311.072
308.91
310.032
310.161
312.412
312.709
310.944
311.436
307.834
310.024
310.58
310.961
310.412
313.552
311.165
311.948
312.571
315.778
310.416
311.383
302.84
306.555
304.67
304.619
304.34
303.127
304.805
303.947
304.77
304.775
301.975
301.722
300.947
305.471
304.137
300.971
304.292
302.102
304.595
304.801
353.548
356.285
357.082
358.352
356.97
360.41
358.746
361.651
360.286
360.902
359.889
361.579
356.308
358.803
358.909
358.883
353.757
354.586
353.553
355.944
348.437
349.482
348.072
347.493
349.447
349.322
352.793
351.283
352.496
353.309
350.937
351.96
348.841
352.407
348.337
350.18
350.861
344.937
347.559
342.753
340.245
341.214
338.712
341
343.027
340.565
344.466
343.817
344.123
345.515
342.306
343.539
343.455
343.488
344.677
340.237
342.742
340.05
338.919
340.439
329.122
333.243
332.993
334.428
333.944
336.62
335.488
337.748
337.42
336.271
335.118
335.732
334.938
334.499
332.283
331.289
334.777
330.256
335.27
331.18
325.294
324.68
327.821
327.44
329.433
330.276
329.288
328.558
327.952
331.211
327.512
328.593
327.069
329.601
327.552
326.274
326.764
323.552
323.547
325.817
318.185
319.27
320.025
319.701
318.881
316.817
319.458
321.754
318.272
321.194
322.484
319.832
318.397
320.068
320.93
321.081
316.321
318.425
315.042
318.457
309.838
309.114
311.556
311.811
309.444
313.529
313.397
311.428
311.231
311.011
310.083
311.715
311.562
309.179
313.777
310.366
312.086
311.607
311.96
309.504
303.024
303.289
302.364
303.672
303.319
303.137
302.851
304.019
306.385
306.134
304.097
303.172
304.387
301.127
304.956
306.247
303.8
305.621
304.742
299.9
355.245
355.733
358.358
358.523
359.019
358.772
360.941
361.442
362.101
360.496
359.39
359.02
357.971
359.759
357.308
356.6
357.817
355.246
351.585
353.576
345.156
352.653
343.885
353.681
347.822
353.754
350.682
355.06
351.641
354.826
355.153
351.894
355.162
352.075
354.199
348.721
353.449
345.665
351.938
344.64
340.958
338.247
339.469
340.3
340.577
345.86
344.142
343.281
341.656
346.319
342.488
345.881
344.749
341.666
339.693
339.685
340.934
340.426
339.961
340.911
333.547
332.812
334.704
332.594
335.71
337.288
336.368
334.883
337.676
336.929
335.113
336.681
337.03
335.47
334.997
335.124
336.123
329.91
331.664
331.186
327.546
323.756
325.054
326.904
327.018
327.889
328.954
328.989
327.22
327.486
328.21
327.241
326.917
327.421
330.105
328.223
325.297
325.504
325.199
323.484
318.65
315.804
320.589
318.073
318.478
318.832
319.53
318.312
319.863
320.294
319.489
319.59
317.538
320.374
318.628
318.001
318.186
320.097
318.854
317.194
310.158
313.604
310.755
311.035
311.173
311.754
313.264
311.041
312.304
311.565
313.143
310.506
311.947
313
310.593
312.3
311.992
309.926
309.818
311.894
303.288
304.139
303.447
305.283
304.004
304.027
302.712
300.45
304.95
305.126
302.892
305.442
305.562
303.6
305.241
304.936
303.912
301.027
305.849
304.585
354.943
355.564
358.424
356.997
356.675
357.682
357.026
357.626
358.893
361.035
360.323
359.014
360.84
360.703
358.338
357.643
357.125
356.255
353.337
350.794
346.679
346.618
346.342
349.669
350.809
348.885
351.133
353.091
352.025
352.775
349.855
352.979
351.95
351.425
350.563
350.264
348.053
346.894
348.184
346.34
340.988
341.597
341.774
341.404
341.014
340.968
344.602
343.606
343.719
344.94
345.974
346.341
340.899
344.875
343.967
339.957
340.359
340.899
340.908
340.373
331.127
333.736
333.421
336.582
335.584
334.725
334.819
338.835
337.621
336.027
337.049
335.82
336.182
336.612
336.19
330.72
334.203
333.095
333.732
328.516
324.516
324.466
327.017
325.657
325.124
329.333
324.798
326.107
325.768
327.266
326.423
325.707
328.211
327.831
327.097
326.819
326.411
326.379
325.825
324.759
320.551
316.591
318.379
317.339
319.269
319.923
321.324
322.063
318.325
319.956
320.275
320.604
319.375
318.01
321.658
318.624
318.843
316.58
321.74
318.092
308.682
308.357
311.664
312.037
310.82
311.127
311.938
311.275
311.358
312.805
312.278
309.096
313.418
311.686
313.648
311.992
307.523
312.34
312.888
309.935
304.54
303.213
300.87
302.736
305.166
303.545
305.9
302.233
302.297
305.781
301.784
305.701
305.726
303.205
302.371
303.772
303.91
304.88
304.438
301.981
)
;

boundaryField
{
    hotSide
    {
        type            fixedGradient;
        gradient        nonuniform List<scalar> 
400
(
321.511
322.87
325.591
329.677
335.133
341.965
350.181
359.788
370.794
383.208
397.037
412.289
428.971
447.088
466.647
487.651
510.105
534.011
559.372
586.191
323.738
325.08
327.767
331.802
337.194
343.949
352.078
361.591
372.498
384.81
398.537
413.687
430.268
448.289
467.755
488.672
511.043
534.872
560.161
586.913
326.149
327.47
330.116
334.091
339.406
346.071
354.099
363.503
374.296
386.491
400.101
415.136
431.606
449.52
468.885
489.706
511.988
535.735
560.948
587.63
328.704
330
332.597
336.503
341.73
348.292
356.205
365.485
376.15
388.215
401.695
416.604
432.954
450.753
470.009
490.73
512.919
536.579
561.714
588.325
331.33
332.599
335.142
338.97
344.099
350.546
358.332
367.477
378.003
389.928
403.271
418.047
434.27
451.949
471.095
491.712
513.807
537.382
562.439
588.978
333.918
335.158
337.643
341.389
346.414
352.74
360.392
369.397
379.779
391.562
404.765
419.407
435.503
453.065
472.101
492.618
514.622
538.114
563.096
589.569
336.321
337.531
339.959
343.622
348.544
354.751
362.274
371.142
381.385
393.031
406.101
420.618
436.595
454.047
472.983
493.409
515.33
538.747
563.663
590.076
338.36
339.543
341.92
345.509
350.339
356.44
363.847
372.595
382.718
394.244
407.2
421.608
437.485
454.844
473.695
494.045
515.897
539.253
564.114
590.478
339.852
341.015
343.352
346.885
351.645
357.665
364.985
373.643
383.675
395.113
407.984
422.312
438.116
455.407
474.197
494.491
516.294
539.606
564.428
590.758
340.643
341.795
344.11
347.613
352.334
358.311
365.584
374.193
384.176
395.567
408.393
422.679
438.443
455.699
474.456
494.722
516.498
539.788
564.589
590.901
340.643
341.795
344.11
347.613
352.334
358.311
365.584
374.193
384.176
395.567
408.393
422.679
438.443
455.699
474.456
494.722
516.498
539.788
564.589
590.901
339.852
341.015
343.352
346.885
351.645
357.665
364.985
373.643
383.675
395.113
407.984
422.312
438.116
455.407
474.197
494.491
516.294
539.606
564.428
590.758
338.36
339.543
341.92
345.509
350.339
356.44
363.847
372.595
382.718
394.244
407.2
421.608
437.485
454.844
473.695
494.045
515.897
539.253
564.114
590.478
336.321
337.531
339.959
343.622
348.544
354.751
362.274
371.142
381.385
393.031
406.101
420.618
436.595
454.047
472.983
493.409
515.33
538.747
563.663
590.076
333.918
335.158
337.643
341.389
346.414
352.74
360.392
369.397
379.779
391.562
404.765
419.407
435.503
453.065
472.101
492.618
514.622
538.114
563.096
589.569
331.33
332.599
335.142
338.97
344.099
350.546
358.332
367.477
378.003
389.928
403.271
418.047
434.27
451.949
471.095
491.712
513.807
537.382
562.439
588.978
328.704
330
332.597
336.503
341.73
348.292
356.205
365.485
376.15
388.215
401.695
416.604
432.954
450.753
470.009
490.73
512.919
536.579
561.714
588.325
326.149
327.47
330.116
334.091
339.406
346.071
354.099
363.503
374.296
386.491
400.101
415.136
431.606
449.52
468.885
489.706
511.988
535.735
560.948
587.63
323.738
325.08
327.767
331.802
337.194
343.949
352.078
361.591
372.498
384.81
398.537
413.687
430.268
448.289
467.755
488.672
511.043
534.872
560.161
586.913
321.511
322.87
325.591
329.677
335.133
341.965
350.181
359.788
370.794
383.208
397.037
412.289
428.971
447.088
466.647
487.651
510.105
534.011
559.372
586.191
)
;
    }
    coldSide
    {
        type            mixed;
        refValue        uniform 300;
        refGradient     uniform 0;
        valueFraction   uniform 0.991591;
        source          uniform 0;
        value           nonuniform List<scalar> 
400
(
300.029
300.037
300.022
300.023
300.019
300.051
300.035
300.016
300.045
300.029
300.045
300.034
300.038
300.031
300.03
300.027
300.024
300.025
300.028
300.038
300.019
300.025
300.031
300.018
300.032
300.027
300.015
300.024
300.048
300.039
300.035
300.012
300.015
300.021
300.029
300.036
300.055
300.028
300.035
300.027
300.041