/*--------------------------------*- C++ -*----------------------------------*\
| =========                 |                                                 |
| \\      /  F ield         | OpenFOAM: The Open Source CFD Toolbox           |
|  \\    /   O peration     | Version:  2212                                  |
|   \\  /    A nd           | Website:  www.openfoam.com                      |
|    \\/     M anipulation  |                                                 |
\*---------------------------------------------------------------------------*/
FoamFile
{
    version     2.0;
    format      ascii;
    arch        "LSB;label=32;scalar=64";
    class       volScalarField;
    location    "0";
    object      Ttrue;
}
// * * * * * * * * * * * * * * * * * * * * * * * * * * * * * * * * * * * * * //

dimensions      [0 0 0 1 0 0 0];

internalField   nonuniform List<scalar> 
3200
(
341.739
342.237
342.874
343.568
344.282
344.983
345.631
346.177
346.575
346.786
346.786
346.575
346.177
345.631
344.983
344.282
343.568
342.874
342.237
341.739
336.279
336.701
337.25
337.851
338.469
339.076
339.635
340.107
340.451
340.633
340.633
340.451
340.107
339.635
339.076
338.469
337.851
337.25
336.701
336.279
330.776
331.126
331.588
332.095
332.618
333.131
333.603
334.002
334.292
334.445
334.445
334.292
334.002
333.603
333.131
332.618
332.095
331.588
331.126
330.776
325.235
325.517
325.894
326.308
326.735
327.154
327.54
327.866
328.102
328.227
328.227
328.102
327.866
327.54
327.154
326.735
326.308
325.894
325.517
325.235
319.664
319.88
320.173
320.495
320.827
321.152
321.452
321.705
321.888
321.985
321.985
321.888
321.705
321.452
321.152
320.827
320.495
320.173
319.88
319.664
314.069
314.222
314.431
314.661
314.898
315.13
315.344
315.525
315.656
315.725
315.725
315.656
315.525
315.344
315.13
314.898
314.661
314.431
314.222
314.069
308.458
308.549
308.674
308.812
308.955
309.094
309.222
309.331
309.409
309.451
309.451
309.409
309.331
309.222
309.094
308.955
308.812
308.674
308.549
308.458
302.836
302.867
302.909
302.955
303.003
303.049
303.092
303.129
303.155
303.169
303.169
303.155
303.129
303.092
303.049
303.003
302.955
302.909
302.867
302.836
341.885
342.38
343.011
343.698
344.406
345.099
345.739
346.279
346.672
346.879
346.879
346.672
346.279
345.739
345.099
344.406
343.698
343.011
342.38
341.885
336.407
336.825
337.37
337.964
338.576
339.176
339.73
340.196
340.535
340.714
340.714
340.535
340.196
339.73
339.176
338.576
337.964
337.37
336.825
336.407
330.884
331.231
331.69
332.192
332.709
333.216
333.683
334.077
334.363
334.514
334.514
334.363
334.077
333.683
333.216
332.709
332.192
331.69
331.231
330.884
325.323
325.603
325.977
326.387
326.81
327.224
327.606
327.927
328.161
328.284
328.284
328.161
327.927
327.606
327.224
326.81
326.387
325.977
325.603
325.323
319.733
319.947
320.237
320.556
320.885
321.207
321.503
321.753
321.934
322.03
322.03
321.934
321.753
321.503
321.207
320.885
320.556
320.237
319.947
319.733
314.118
314.27
314.477
314.705
314.94
315.169
315.381
315.559
315.689
315.757
315.757
315.689
315.559
315.381
315.169
314.94
314.705
314.477
314.27
314.118
308.487
308.578
308.702
308.839
308.98
309.118
309.245
309.352
309.429
309.47
309.47
309.429
309.352
309.245
309.118
308.98
308.839
308.702
308.578
308.487
302.846
302.876
302.918
302.964
303.011
303.057
303.1
303.136
303.162
303.175
303.175
303.162
303.136
303.1
303.057
303.011
302.964
302.918
302.876
302.846
342.179
342.666
343.287
343.961
344.654
345.333
345.958
346.484
346.867
347.069
347.069
346.867
346.484
345.958
345.333
344.654
343.961
343.287
342.666
342.179
336.662
337.074
337.609
338.193
338.793
339.38
339.92
340.375
340.706
340.88
340.88
340.706
340.375
339.92
339.38
338.793
338.193
337.609
337.074
336.662
331.1
331.442
331.893
332.386
332.893
333.389
333.845
334.229
334.508
334.656
334.656
334.508
334.229
333.845
333.389
332.893
332.386
331.893
331.442
331.1
325.501
325.776
326.143
326.546
326.961
327.366
327.739
328.052
328.28
328.4
328.4
328.28
328.052
327.739
327.366
326.961
326.546
326.143
325.776
325.501
319.871
320.082
320.367
320.68
321.002
321.317
321.607
321.851
322.027
322.121
322.121
322.027
321.851
321.607
321.317
321.002
320.68
320.367
320.082
319.871
314.217
314.367
314.57
314.793
315.024
315.248
315.455
315.629
315.755
315.822
315.822
315.755
315.629
315.455
315.248
315.024
314.793
314.57
314.367
314.217
308.547
308.636
308.758
308.892
309.03
309.165
309.289
309.394
309.469
309.509
309.509
309.469
309.394
309.289
309.165
309.03
308.892
308.758
308.636
308.547
302.866
302.896
302.937
302.982
303.028
303.073
303.115
303.15
303.175
303.189
303.189
303.175
303.15
303.115
303.073
303.028
302.982
302.937
302.896
302.866
342.622
343.097
343.702
344.358
345.031
345.688
346.291
346.799
347.167
347.362
347.362
347.167
346.799
346.291
345.688
345.031
344.358
343.702
343.097
342.622
337.046
337.448
337.97
338.538
339.12
339.688
340.21
340.649
340.968
341.135
341.135
340.968
340.649
340.21
339.688
339.12
338.538
337.97
337.448
337.046
331.426
331.759
332.199
332.679
333.171
333.651
334.092
334.462
334.731
334.873
334.873
334.731
334.462
334.092
333.651
333.171
332.679
332.199
331.759
331.426
325.767
326.036
326.394
326.786
327.189
327.581
327.941
328.244
328.463
328.579
328.579
328.463
328.244
327.941
327.581
327.189
326.786
326.394
326.036
325.767
320.078
320.285
320.563
320.867
321.18
321.485
321.765
322
322.17
322.26
322.26
322.17
322
321.765
321.485
321.18
320.867
320.563
320.285
320.078
314.366
314.512
314.71
314.927
315.151
315.369
315.568
315.736
315.858
315.922
315.922
315.858
315.736
315.568
315.369
315.151
314.927
314.71
314.512
314.366
308.636
308.723
308.842
308.972
309.107
309.237
309.357
309.458
309.531
309.569
309.569
309.531
309.458
309.357
309.237
309.107
308.972
308.842
308.723
308.636
302.896
302.925
302.965
303.009
303.054
303.097
303.138
303.171
303.196
303.209
303.209
303.196
303.171
303.138
303.097
303.054
303.009
302.965
302.925
302.896
343.214
343.675
344.259
344.892
345.539
346.168
346.745
347.229
347.58
347.764
347.764
347.58
347.229
346.745
346.168
345.539
344.892
344.259
343.675
343.214
337.56
337.95
338.455
339.002
339.562
340.107
340.606
341.024
341.327
341.487
341.487
341.327
341.024
340.606
340.107
339.562
339.002
338.455
337.95
337.56
331.861
332.185
332.61
333.073
333.546
334.006
334.428
334.781
335.037
335.171
335.171
335.037
334.781
334.428
334.006
333.546
333.073
332.61
332.185
331.861
326.124
326.385
326.731
327.109
327.496
327.873
328.217
328.506
328.715
328.824
328.824
328.715
328.506
328.217
327.873
327.496
327.109
326.731
326.385
326.124
320.356
320.556
320.825
321.119
321.42
321.712
321.98
322.204
322.366
322.452
322.452
322.366
322.204
321.98
321.712
321.42
321.119
320.825
320.556
320.356
314.564
314.706
314.898
315.107
315.322
315.531
315.722
315.882
315.998
316.059
316.059
315.998
315.882
315.722
315.531
315.322
315.107
314.898
314.706
314.564
308.755
308.84
308.955
309.081
309.21
309.335
309.45
309.546
309.615
309.652
309.652
309.615
309.546
309.45
309.335
309.21
309.081
308.955
308.84
308.755
302.936
302.964
303.003
303.045
303.088
303.13
303.169
303.201
303.224
303.236
303.236
303.224
303.201
303.169
303.13
303.088
303.045
303.003
302.964
302.936
343.957
344.401
344.962
345.567
346.183
346.781
347.327
347.783
348.113
348.287
348.287
348.113
347.783
347.327
346.781
346.183
345.567
344.962
344.401
343.957
338.206
338.581
339.065
339.589
340.123
340.64
341.112
341.507
341.792
341.942
341.942
341.792
341.507
341.112
340.64
340.123
339.589
339.065
338.581
338.206
332.409
332.72
333.128
333.57
334.021
334.459
334.858
335.191
335.432
335.559
335.559
335.432
335.191
334.858
334.459
334.021
333.57
333.128
332.72
332.409
326.573
326.823
327.156
327.518
327.887
328.244
328.57
328.843
329.039
329.143
329.143
329.039
328.843
328.57
328.244
327.887
327.518
327.156
326.823
326.573
320.706
320.898
321.156
321.437
321.724
322.002
322.255
322.467
322.62
322.7
322.7
322.62
322.467
322.255
322.002
321.724
321.437
321.156
320.898
320.706
314.814
314.95
315.134
315.335
315.54
315.738
315.919
316.07
316.18
316.237
316.237
316.18
316.07
315.919
315.738
315.54
315.335
315.134
314.95
314.814
308.905
308.987
309.097
309.218
309.341
309.46
309.568
309.659
309.725
309.759
309.759
309.725
309.659
309.568
309.46
309.341
309.218
309.097
308.987
308.905
302.986
303.014
303.051
303.091
303.132
303.172
303.208
303.239
303.261
303.272
303.272
303.261
303.239
303.208
303.172
303.132
303.091
303.051
303.014
302.986
344.855
345.279
345.814
346.388
346.97
347.533
348.045
348.471
348.779
348.94
348.94
348.779
348.471
348.045
347.533
346.97
346.388
345.814
345.279
344.855
338.985
339.344
339.805
340.302
340.807
341.294
341.737
342.105
342.371
342.511
342.511
342.371
342.105
341.737
341.294
340.807
340.302
339.805
339.344
338.985
333.069
333.367
333.755
334.176
334.602
335.014
335.388
335.7
335.924
336.042
336.042
335.924
335.7
335.388
335.014
334.602
334.176
333.755
333.367
333.069
327.114
327.353
327.67
328.014
328.363
328.699
329.005
329.26
329.443
329.54
329.54
329.443
329.26
329.005
328.699
328.363
328.014
327.67
327.353
327.114
321.127
321.311
321.557
321.824
322.095
322.357
322.595
322.792
322.935
323.01
323.01
322.935
322.792
322.595
322.357
322.095
321.824
321.557
321.311
321.127
315.116
315.246
315.421
315.612
315.805
315.992
316.162
316.304
316.405
316.459
316.459
316.405
316.304
316.162
315.992
315.805
315.612
315.421
315.246
315.116
309.087
309.164
309.269
309.384
309.5
309.613
309.714
309.799
309.86
309.892
309.892
309.86
309.799
309.714
309.613
309.5
309.384
309.269
309.164
309.087
303.047
303.073
303.108
303.147
303.186
303.223
303.257
303.286
303.306
303.317
303.317
303.306
303.286
303.257
303.223
303.186
303.147
303.108
303.073
303.047
345.908
346.311
346.817
347.358
347.904
348.43
348.906
349.301
349.585
349.734
349.734
349.585
349.301
348.906
348.43
347.904
347.358
346.817
346.311
345.908
339.9
340.241
340.677
341.146
341.619
342.074
342.486
342.827
343.073
343.202
343.202
343.073
342.827
342.486
342.074
341.619
341.146
340.677
340.241
339.9
333.844
334.127
334.495
334.891
335.291
335.676
336.024
336.313
336.52
336.629
336.629
336.52
336.313
336.024
335.676
335.291
334.891
334.495
334.127
333.844
327.749
327.977
328.277
328.601
328.928
329.242
329.527
329.763
329.933
330.022
330.022
329.933
329.763
329.527
329.242
328.928
328.601
328.277
327.977
327.749
321.622
321.797
322.029
322.281
322.535
322.78
323.001
323.185
323.317
323.386
323.386
323.317
323.185
323.001
322.78
322.535
322.281
322.029
321.797
321.622
315.469
315.593
315.759
315.939
316.121
316.295
316.453
316.584
316.679
316.728
316.728
316.679
316.584
316.453
316.295
316.121
315.939
315.759
315.593
315.469
309.299
309.373
309.473
309.581
309.69
309.795
309.89
309.968
310.025
310.054
310.054
310.025
309.968
309.89
309.795
309.69
309.581
309.473
309.373
309.299
303.118
303.143
303.176
303.213
303.249
303.284
303.316
303.343
303.361
303.371
303.371
303.361
303.343
303.316
303.284
303.249
303.213
303.176
303.143
303.118
347.119
347.5
347.976
348.483
348.992
349.479
349.918
350.281
350.542
350.678
350.678
350.542
350.281
349.918
349.479
348.992
348.483
347.976
347.5
347.119
340.952
341.274
341.685
342.123
342.564
342.986
343.366
343.681
343.906
344.024
344.024
343.906
343.681
343.366
342.986
342.564
342.123
341.685
341.274
340.952
334.736
335.003
335.349
335.72
336.093
336.45
336.771
337.037
337.227
337.327
337.327
337.227
337.037
336.771
336.45
336.093
335.72
335.349
335.003
334.736
328.48
328.695
328.977
329.28
329.585
329.877
330.14
330.357
330.513
330.594
330.594
330.513
330.357
330.14
329.877
329.585
329.28
328.977
328.695
328.48
322.191
322.356
322.575
322.811
323.048
323.275
323.479
323.648
323.769
323.832
323.832
323.769
323.648
323.479
323.275
323.048
322.811
322.575
322.356
322.191
315.876
315.993
316.149
316.318
316.487
316.649
316.795
316.916
317.002
317.047
317.047
317.002
316.916
316.795
316.649
316.487
316.318
316.149
315.993
315.876
309.544
309.614
309.707
309.808
309.91
310.007
310.095
310.168
310.219
310.247
310.247
310.219
310.168
310.095
310.007
309.91
309.808
309.707
309.614
309.544
303.2
303.224
303.255
303.289
303.323
303.356
303.385
303.409
303.427
303.436
303.436
303.427
303.409
303.385
303.356
303.323
303.289
303.255
303.224
303.2
348.492
348.849
349.295
349.766
350.238
350.687
351.089
351.421
351.658
351.782
351.782
351.658
351.421
351.089
350.687
350.238
349.766
349.295
348.849
348.492
342.143
342.446
342.83
343.239
343.647
344.036
344.385
344.672
344.877
344.984
344.984
344.877
344.672
344.385
344.036
343.647
343.239
342.83
342.446
342.143
335.746
335.997
336.321
336.666
337.012
337.34
337.635
337.878
338.052
338.142
338.142
338.052
337.878
337.635
337.34
337.012
336.666
336.321
335.997
335.746
329.307
329.509
329.773
330.056
330.338
330.608
330.849
331.047
331.189
331.263
331.263
331.189
331.047
330.849
330.608
330.338
330.056
329.773
329.509
329.307
322.835
322.99
323.195
323.415
323.635
323.844
324.032
324.186
324.296
324.354
324.354
324.296
324.186
324.032
323.844
323.635
323.415
323.195
322.99
322.835
316.337
316.447
316.593
316.75
316.907
317.057
317.191
317.301
317.38
317.421
317.421
317.38
317.301
317.191
317.057
316.907
316.75
316.593
316.447
316.337
309.821
309.886
309.974
310.068
310.163
310.252
310.333
310.399
310.446
310.471
310.471
310.446
310.399
310.333
310.252
310.163
310.068
309.974
309.886
309.821
303.293
303.315
303.345
303.376
303.408
303.438
303.465
303.487
303.503
303.511
303.511
303.503
303.487
303.465
303.438
303.408
303.376
303.345
303.315
303.293
350.026
350.361
350.776
351.213
351.647
352.058
352.426
352.727
352.941
353.053
353.053
352.941
352.727
352.426
352.058
351.647
351.213
350.776
350.361
350.026
343.476
343.759
344.117
344.495
344.872
345.228
345.546
345.807
345.993
346.09
346.09
345.993
345.807
345.546
345.228
344.872
344.495
344.117
343.759
343.476
336.876
337.11
337.412
337.732
338.05
338.352
338.621
338.842
338.999
339.08
339.08
338.999
338.842
338.621
338.352
338.05
337.732
337.412
337.11
336.876
330.233
330.422
330.668
330.93
331.19
331.437
331.657
331.837
331.966
332.033
332.033
331.966
331.837
331.657
331.437
331.19
330.93
330.668
330.422
330.233
323.556
323.701
323.892
324.096
324.298
324.49
324.661
324.802
324.902
324.954
324.954
324.902
324.802
324.661
324.49
324.298
324.096
323.892
323.701
323.556
316.853
316.956
317.092
317.237
317.382
317.519
317.641
317.741
317.813
317.85
317.85
317.813
317.741
317.641
317.519
317.382
317.237
317.092
316.956
316.853
310.131
310.192
310.274
310.361
310.448
310.53
310.604
310.664
310.707
310.729
310.729
310.707
310.664
310.604
310.53
310.448
310.361
310.274
310.192
310.131
303.397
303.418
303.445
303.474
303.503
303.531
303.556
303.576
303.59
303.598
303.598
303.59
303.576
303.556
303.531
303.503
303.474
303.445
303.418
303.397
351.726
352.037
352.422
352.825
353.223
353.598
353.932
354.204
354.397
354.498
354.498
354.397
354.204
353.932
353.598
353.223
352.825
352.422
352.037
351.726
344.952
345.215
345.547
345.896
346.241
346.566
346.855
347.091
347.259
347.346
347.346
347.259
347.091
346.855
346.566
346.241
345.896
345.547
345.215
344.952
338.127
338.345
338.625
338.92
339.212
339.487
339.731
339.931
340.073
340.146
340.146
340.073
339.931
339.731
339.487
339.212
338.92
338.625
338.345
338.127
331.258
331.434
331.662
331.903
332.142
332.367
332.567
332.731
332.847
332.907
332.907
332.847
332.731
332.567
332.367
332.142
331.903
331.662
331.434
331.258
324.355
324.49
324.667
324.854
325.04
325.215
325.371
325.498
325.588
325.635
325.635
325.588
325.498
325.371
325.215
325.04
324.854
324.667
324.49
324.355
317.424
317.52
317.646
317.78
317.913
318.038
318.149
318.24
318.304
318.337
318.337
318.304
318.24
318.149
318.038
317.913
317.78
317.646
317.52
317.424
310.474
310.531
310.607
310.687
310.767
310.842
310.909
310.963
311.002
311.022
311.022
311.002
310.963
310.909
310.842
310.767
310.687
310.607
310.531
310.474
303.512
303.531
303.557
303.584
303.61
303.636
303.658
303.676
303.689
303.696
303.696
303.689
303.676
303.658
303.636
303.61
303.584
303.557
303.531
303.512
353.591
353.88
354.235
354.606
354.969
355.31
355.612
355.857
356.031
356.121
356.121
356.031
355.857
355.612
355.31
354.969
354.606
354.235
353.88
353.591
346.572
346.816
347.123
347.443
347.758
348.054
348.315
348.528
348.678
348.756
348.756
348.678
348.528
348.315
348.054
347.758
347.443
347.123
346.816
346.572
339.5
339.702
339.96
340.232
340.498
340.749
340.97
341.149
341.277
341.343
341.343
341.277
341.149
340.97
340.749
340.498
340.232
339.96
339.702
339.5
332.383
332.546
332.757
332.979
333.197
333.402
333.583
333.73
333.834
333.888
333.888
333.834
333.73
333.583
333.402
333.197
332.979
332.757
332.546
332.383
325.231
325.356
325.519
325.692
325.862
326.021
326.162
326.276
326.357
326.399
326.399
326.357
326.276
326.162
326.021
325.862
325.692
325.519
325.356
325.231
318.051
318.139
318.256
318.379
318.5
318.614
318.715
318.796
318.854
318.884
318.884
318.854
318.796
318.715
318.614
318.5
318.379
318.256
318.139
318.051
310.851
310.903
310.973
311.047
311.12
311.189
311.249
311.298
311.333
311.351
311.351
311.333
311.298
311.249
311.189
311.12
311.047
310.973
310.903
310.851
303.639
303.656
303.68
303.704
303.729
303.752
303.772
303.789
303.8
303.806
303.806
303.8
303.789
303.772
303.752
303.729
303.704
303.68
303.656
303.639
355.623
355.89
356.217
356.556
356.887
357.196
357.468
357.688
357.843
357.924
357.924
357.843
357.688
357.468
357.196
356.887
356.556
356.217
355.89
355.623
348.335
348.561
348.844
349.137
349.424
349.692
349.928
350.118
350.253
350.323
350.323
350.253
350.118
349.928
349.692
349.424
349.137
348.844
348.561
348.335
340.994
341.182
341.419
341.668
341.911
342.137
342.337
342.498
342.612
342.671
342.671
342.612
342.498
342.337
342.137
341.911
341.668
341.419
341.182
340.994
333.608
333.759
333.952
334.156
334.354
334.54
334.703
334.835
334.929
334.977
334.977
334.929
334.835
334.703
334.54
334.354
334.156
333.952
333.759
333.608
326.185
326.3
326.451
326.609
326.763
326.908
327.035
327.138
327.21
327.248
327.248
327.21
327.138
327.035
326.908
326.763
326.609
326.451
326.3
326.185
318.733
318.815
318.922
319.035
319.145
319.248
319.339
319.413
319.464
319.491
319.491
319.464
319.413
319.339
319.248
319.145
319.035
318.922
318.815
318.733
311.26
311.309
311.374
311.441
311.508
311.57
311.624
311.668
311.7
311.716
311.716
311.7
311.668
311.624
311.57
311.508
311.441
311.374
311.309
311.26
303.776
303.792
303.814
303.837
303.859
303.88
303.898
303.913
303.923
303.929
303.929
303.923
303.913
303.898
303.88
303.859
303.837
303.814
303.792
303.776
357.817
358.064
358.364
358.673
358.974
359.253
359.498
359.695
359.834
359.905
359.905
359.834
359.695
359.498
359.253
358.974
358.673
358.364
358.064
357.817
350.24
350.448
350.707
350.976
351.236
351.478
351.69
351.861
351.982
352.044
352.044
351.982
351.861
351.69
351.478
351.236
350.976
350.707
350.448
350.24
342.608
342.781
342.999
343.226
343.447
343.652
343.831
343.976
344.078
344.13
344.13
344.078
343.976
343.831
343.652
343.447
343.226
342.999
342.781
342.608
334.93
335.069
335.247
335.432
335.613
335.781
335.927
336.046
336.129
336.172
336.172
336.129
336.046
335.927
335.781
335.613
335.432
335.247
335.069
334.93
327.214
327.32
327.458
327.603
327.743
327.874
327.988
328.08
328.145
328.179
328.179
328.145
328.08
327.988
327.874
327.743
327.603
327.458
327.32
327.214
319.468
319.544
319.642
319.745
319.846
319.939
320.021
320.087
320.133
320.157
320.157
320.133
320.087
320.021
319.939
319.846
319.745
319.642
319.544
319.468
311.703
311.748
311.807
311.869
311.929
311.985
312.034
312.074
312.102
312.116
312.116
312.102
312.074
312.034
311.985
311.929
311.869
311.807
311.748
311.703
303.924
303.939
303.959
303.98
304
304.019
304.035
304.049
304.058
304.063
304.063
304.058
304.049
304.035
304.019
304
303.98
303.959
303.939
303.924
360.165
360.392
360.667
360.949
361.222
361.473
361.693
361.87
361.993
362.057
362.057
361.993
361.87
361.693
361.473
361.222
360.949
360.667
360.392
360.165
352.276
352.468
352.705
352.95
353.186
353.405
353.595
353.748
353.856
353.911
353.911
353.856
353.748
353.595
353.405
353.186
352.95
352.705
352.468
352.276
344.332
344.491
344.691
344.898
345.098
345.283
345.444
345.574
345.665
345.712
345.712
345.665
345.574
345.444
345.283
345.098
344.898
344.691
344.491
344.332
336.341
336.469
336.632
336.801
336.965
337.116
337.248
337.354
337.429
337.467
337.467
337.429
337.354
337.248
337.116
336.965
336.801
336.632
336.469
336.341
328.312
328.41
328.536
328.668
328.796
328.913
329.016
329.099
329.157
329.187
329.187
329.157
329.099
329.016
328.913
328.796
328.668
328.536
328.41
328.312
320.253
320.323
320.413
320.507
320.598
320.682
320.756
320.815
320.856
320.878
320.878
320.856
320.815
320.756
320.682
320.598
320.507
320.413
320.323
320.253
312.174
312.215
312.27
312.326
312.381
312.432
312.476
312.511
312.536
312.549
312.549
312.536
312.511
312.476
312.432
312.381
312.326
312.27
312.215
312.174
304.082
304.096
304.114
304.133
304.152
304.169
304.183
304.195
304.204
304.208
304.208
304.204
304.195
304.183
304.169
304.152
304.133
304.114
304.096
304.082
362.64
362.848
363.1
363.357
363.604
363.832
364.029
364.187
364.297
364.354
364.354
364.297
364.187
364.029
363.832
363.604
363.357
363.1
362.848
362.64
354.419
354.595
354.812
355.035
355.25
355.447
355.618
355.755
355.851
355.9
355.9
355.851
355.755
355.618
355.447
355.25
355.035
354.812
354.595
354.419
346.143
346.289
346.472
346.66
346.842
347.009
347.154
347.27
347.351
347.393
347.393
347.351
347.27
347.154
347.009
346.842
346.66
346.472
346.289
346.143
337.821
337.938
338.088
338.242
338.391
338.528
338.646
338.741
338.808
338.842
338.842
338.808
338.741
338.646
338.528
338.391
338.242
338.088
337.938
337.821
329.462
329.552
329.668
329.788
329.904
330.01
330.103
330.177
330.229
330.255
330.255
330.229
330.177
330.103
330.01
329.904
329.788
329.668
329.552
329.462
321.075
321.139
321.221
321.307
321.39
321.466
321.532
321.585
321.622
321.641
321.641
321.622
321.585
321.532
321.466
321.39
321.307
321.221
321.139
321.075
312.667
312.705
312.755
312.806
312.856
312.902
312.942
312.973
312.996
313.007
313.007
312.996
312.973
312.942
312.902
312.856
312.806
312.755
312.705
312.667
304.248
304.26
304.277
304.294
304.311
304.326
304.339
304.35
304.358
304.361
304.361
304.358
304.35
304.339
304.326
304.311
304.294
304.277
304.26
304.248
365.177
365.368
365.599
365.834
366.058
366.264
366.441
366.583
366.682
366.733
366.733
366.682
366.583
366.441
366.264
366.058
365.834
365.599
365.368
365.177
356.604
356.767
356.966
357.169
357.364
357.543
357.697
357.82
357.906
357.95
357.95
357.906
357.82
357.697
357.543
357.364
357.169
356.966
356.767
356.604
347.982
348.117
348.285
348.457
348.622
348.773
348.904
349.008
349.081
349.118
349.118
349.081
349.008
348.904
348.773
348.622
348.457
348.285
348.117
347.982
339.319
339.427
339.565
339.705
339.841
339.965
340.072
340.157
340.217
340.247
340.247
340.217
340.157
340.072
339.965
339.841
339.705
339.565
339.427
339.319
330.623
330.706
330.813
330.922
331.028
331.124
331.207
331.274
331.32
331.344
331.344
331.32
331.274
331.207
331.124
331.028
330.922
330.813
330.706
330.623
321.902
321.961
322.037
322.115
322.19
322.259
322.319
322.367
322.4
322.417
322.417
322.4
322.367
322.319
322.259
322.19
322.115
322.037
321.961
321.902
313.163
313.198
313.244
313.291
313.336
313.377
313.413
313.442
313.462
313.472
313.472
313.462
313.442
313.413
313.377
313.336
313.291
313.244
313.198
313.163
304.414
304.425
304.441
304.456
304.472
304.485
304.497
304.507
304.514
304.517
304.517
304.514
304.507
304.497
304.485
304.472
304.456
304.441
304.425
304.414
367.61
367.787
368
368.215
368.421
368.608
368.769
368.898
368.987
369.033
369.033
368.987
368.898
368.769
368.608
368.421
368.215
368
367.787
367.61
358.676
358.826
359.01
359.197
359.375
359.538
359.678
359.79
359.867
359.907
359.907
359.867
359.79
359.678
359.538
359.375
359.197
359.01
358.826
358.676
349.707
349.831
349.987
350.145
350.297
350.435
350.554
350.649
350.714
350.748
350.748
350.714
350.649
350.554
350.435
350.297
350.145
349.987
349.831
349.707
340.711
340.811
340.938
341.068
341.192
341.305
341.403
341.481
341.535
341.562
341.562
341.535
341.481
341.403
341.305
341.192
341.068
340.938
340.811
340.711
331.693
331.771
331.869
331.97
332.067
332.155
332.231
332.292
332.334
332.356
332.356
332.334
332.292
332.231
332.155
332.067
331.97
331.869
331.771
331.693
322.66
322.715
322.785
322.857
322.927
322.99
323.044
323.088
323.118
323.133
323.133
323.118
323.088
323.044
322.99
322.927
322.857
322.785
322.715
322.66
313.616
313.648
313.691
313.734
313.776
313.814
313.846
313.873
313.891
313.9
313.9
313.891
313.873
313.846
313.814
313.776
313.734
313.691
313.648
313.616
304.565
304.576
304.59
304.605
304.619
304.631
304.642
304.651
304.657
304.66
304.66
304.657
304.651
304.642
304.631
304.619
304.605
304.59
304.576
304.565
369.51
369.677
369.877
370.079
370.271
370.446
370.596
370.715
370.798
370.84
370.84
370.798
370.715
370.596
370.446
370.271
370.079
369.877
369.677
369.51
360.232
360.373
360.547
360.723
360.89
361.043
361.174
361.278
361.35
361.387
361.387
361.35
361.278
361.174
361.043
360.89
360.723
360.547
360.373
360.232
350.963
351.081
351.227
351.377
351.52
351.649
351.761
351.849
351.911
351.942
351.942
351.911
351.849
351.761
351.649
351.52
351.377
351.227
351.081
350.963
341.7
341.795
341.915
342.038
342.155
342.261
342.353
342.426
342.476
342.502
342.502
342.476
342.426
342.353
342.261
342.155
342.038
341.915
341.795
341.7
332.44
332.513
332.607
332.702
332.794
332.877
332.948
333.005
333.045
333.065
333.065
333.045
333.005
332.948
332.877
332.794
332.702
332.607
332.513
332.44
323.182
323.234
323.301
323.369
323.435
323.494
323.545
323.586
323.614
323.629
323.629
323.614
323.586
323.545
323.494
323.435
323.369
323.301
323.234
323.182
313.925
313.956
313.996
314.037
314.076
314.112
314.143
314.167
314.184
314.193
314.193
314.184
314.167
314.143
314.112
314.076
314.037
313.996
313.956
313.925
304.668
304.678
304.691
304.705
304.719
304.731
304.741
304.749
304.755
304.758
304.758
304.755
304.749
304.741
304.731
304.719
304.705
304.691
304.678
304.668
)
;

boundaryField
{
    hotSide
    {
        type            fixedGradient;
        gradient        nonuniform List<scalar> 
400
(
432.639
434.177
437.257
441.89
448.091
455.878
465.273
476.299
488.979
503.337
519.398
537.182
556.709
577.998
601.065
625.922
652.581
681.052
711.341
743.454
439.2
440.685
443.663
448.148
454.159
461.72
470.86
481.609
493.998
508.056
523.814
541.297
560.53
581.534
604.328
628.927
655.343
683.587
713.664
745.582
446.299
447.723
450.579
454.888
460.673
467.969
476.812
487.239
499.292
513.006
528.42
545.565
564.469
585.159
607.655
631.973
658.127
686.127
715.981
747.692
453.821
455.172
457.887
461.991
467.518
474.509
483.011
493.075
504.75
518.082
533.115
549.889
568.437
588.789
610.966
634.987
660.867
688.615
718.237
749.738
461.554
462.824
465.381
469.256
474.493
481.146
489.275
498.942
510.206
523.127
537.755
554.138
572.313
592.313
614.162
637.881
663.483
690.977
720.369
751.662
469.176
470.359
472.746
476.378
481.308
487.606
495.343
504.596
515.437
527.936
542.154
558.142
575.945
595.597
617.125
640.549
665.883
693.134
722.307
753.402
476.251
477.347
479.565
482.954
487.582
493.528
500.882
509.733
520.167
532.263
546.09
561.706
579.161
598.49
619.723
642.877
667.967
694.999
723.975
754.895
482.255
483.273
485.339
488.511
492.867
498.501
505.516
514.013
524.09
535.835
549.325
564.623
581.781
600.837
621.82
644.75
669.637
696.488
725.303
756.079
486.65
487.608
489.557
492.563
496.712
502.11
508.868
517.099
526.909
538.393
551.633
566.697
583.637
602.495
623.298
646.065
670.806
697.527
726.227
756.902
488.978
489.903
491.79
494.705
498.742
504.011
510.631
518.719
528.385
539.73
552.837
567.776
584.601
603.354
624.061
646.743
671.409
698.062
726.702
757.324
488.978
489.903
491.79
494.705
498.742
504.011
510.631
518.719
528.385
539.73
552.837
567.776
584.601
603.354
624.061
646.743
671.409
698.062
726.702
757.324
486.65
487.608
489.557
492.563
496.712
502.11
508.868
517.099
526.909
538.393
551.633
566.697
583.637
602.495
623.298
646.065
670.806
697.527
726.227
756.902
482.255
483.273
485.339
488.511
492.867
498.501
505.516
514.013
524.09
535.835
549.325
564.623
581.781
600.837
621.82
644.75
669.637
696.488
725.303
756.079
476.251
477.347
479.565
482.954
487.582
493.528
500.882
509.733
520.167
532.263
546.09
561.706
579.161
598.49
619.723
642.877
667.967
694.999
723.975
754.895
469.176
470.359
472.746
476.378
481.308
487.606
495.343
504.596
515.437
527.936
542.154
558.142
575.945
595.597
617.125
640.549
665.883
693.134
722.307
753.402
461.554
462.824
465.381
469.256
474.493
481.146
489.275
498.942
510.206
523.127
537.755
554.138
572.313
592.313
614.162
637.881
663.483
690.977
720.369
751.662
453.821
455.172
457.887
461.991
467.518
474.509
483.011
493.075
504.75
518.082
533.115
549.889
568.437
588.789
610.966
634.987
660.867
688.615
718.237
749.738
446.299
447.723
450.579
454.888
460.673
467.969
476.812
487.239
499.292
513.006
528.42
545.565
564.469
585.159
607.655
631.973
658.127
686.127
715.981
747.692
439.2
440.685
443.663
448.148
454.159
461.72
470.86
481.609
493.998
508.056
523.814
541.297
560.53
581.534
604.328
628.927
655.343
683.587
713.664
745.582
432.639
434.177
437.257
441.89
448.091
455.878
465.273
476.299
488.979
503.337
519.398
537.182
556.709
577.998
601.065
625.922
652.581
681.052
711.341
743.454
)
;
    }
    coldSide
    {
        type            mixed;
        refValue        uniform 300;
        refGradient     uniform 0;
        valueFraction   uniform 0.991591;
        source          uniform 0;
        value           nonuniform List<scalar> 
400
(
300.024
300.024
300.024
300.024
300.025
300.025
300.026
300.026
300.027
300.028
300.029
300.03
300.031
300.032
300.033
300.034
300.036
300.037
300.038
300.039
300.024
300.024
300.024
300.025
300.025
300.025
300.026
300.026
300.027
300.028
300.029
300.03
300.031
300.032
300.033
300.034
300.036
300.037
300.038