/*--------------------------------*- C++ -*----------------------------------*\
| =========                 |                                                 |
| \\      /  F ield         | OpenFOAM: The Open Source CFD Toolbox           |
|  \\    /   O peration     | Version:  2212                                  |
|   \\  /    A nd           | Website:  www.openfoam.com                      |
|    \\/     M anipulation  |                                                 |
\*---------------------------------------------------------------------------*/
FoamFile
{
    version     2.0;
    format      ascii;
    arch        "LSB;label=32;scalar=64";
    class       volScalarField;
    location    "0";
    object      Ttrue;
}
// * * * * * * * * * * * * * * * * * * * * * * * * * * * * * * * * * * * * * //

dimensions      [0 0 0 1 0 0 0];

internalField   nonuniform List<scalar> 
3200
(
348.69
349.398
350.301
351.285
352.299
353.295
354.213
354.989
355.554
355.852
355.852
355.554
354.989
354.213
353.295
352.299
351.285
350.301
349.398
348.69
342.217
342.816
343.595
344.446
345.324
346.185
346.979
347.649
348.137
348.394
348.394
348.137
347.649
346.979
346.185
345.324
344.446
343.595
342.816
342.217
335.736
336.233
336.89
337.609
338.351
339.078
339.749
340.314
340.726
340.943
340.943
340.726
340.314
339.749
339.078
338.351
337.609
336.89
336.233
335.736
329.251
329.651
330.186
330.774
331.38
331.974
332.522
332.984
333.32
333.497
333.497
333.32
332.984
332.522
331.974
331.38
330.774
330.186
329.651
329.251
322.761
323.068
323.483
323.94
324.411
324.873
325.299
325.657
325.918
326.056
326.056
325.918
325.657
325.299
324.873
324.411
323.94
323.483
323.068
322.761
316.268
316.485
316.781
317.108
317.444
317.774
318.077
318.333
318.519
318.618
318.618
318.519
318.333
318.077
317.774
317.444
317.108
316.781
316.485
316.268
309.773
309.902
310.08
310.276
310.478
310.676
310.858
311.012
311.123
311.182
311.182
311.123
311.012
310.858
310.676
310.478
310.276
310.08
309.902
309.773
303.276
303.319
303.379
303.445
303.512
303.579
303.64
303.691
303.728
303.748
303.748
303.728
303.691
303.64
303.579
303.512
303.445
303.379
303.319
303.276
348.848
349.55
350.446
351.421
352.424
353.409
354.317
355.082
355.64
355.934
355.934
355.64
355.082
354.317
353.409
352.424
351.421
350.446
349.55
348.848
342.353
342.947
343.72
344.564
345.432
346.284
347.068
347.73
348.212
348.466
348.466
348.212
347.73
347.068
346.284
345.432
344.564
343.72
342.947
342.353
335.852
336.345
336.995
337.708
338.442
339.162
339.824
340.383
340.789
341.004
341.004
340.789
340.383
339.824
339.162
338.442
337.708
336.995
336.345
335.852
329.345
329.742
330.272
330.855
331.455
332.043
332.584
333.04
333.372
333.547
333.547
333.372
333.04
332.584
332.043
331.455
330.855
330.272
329.742
329.345
322.834
323.139
323.55
324.003
324.47
324.926
325.347
325.701
325.959
326.094
326.094
325.959
325.701
325.347
324.926
324.47
324.003
323.55
323.139
322.834
316.32
316.536
316.829
317.153
317.486
317.812
318.112
318.365
318.549
318.645
318.645
318.549
318.365
318.112
317.812
317.486
317.153
316.829
316.536
316.32
309.804
309.933
310.109
310.303
310.503
310.699
310.879
311.03
311.141
311.199
311.199
311.141
311.03
310.879
310.699
310.503
310.303
310.109
309.933
309.804
303.287
303.33
303.389
303.454
303.521
303.586
303.647
303.697
303.734
303.754
303.754
303.734
303.697
303.647
303.586
303.521
303.454
303.389
303.33
303.287
349.165
349.856
350.736
351.693
352.677
353.64
354.526
355.273
355.817
356.103
356.103
355.817
355.273
354.526
353.64
352.677
351.693
350.736
349.856
349.165
342.627
343.212
343.971
344.799
345.65
346.484
347.25
347.896
348.365
348.613
348.613
348.365
347.896
347.25
346.484
345.65
344.799
343.971
343.212
342.627
336.083
336.568
337.208
337.908
338.627
339.331
339.979
340.523
340.92
341.128
341.128
340.92
340.523
339.979
339.331
338.627
337.908
337.208
336.568
336.083
329.534
329.925
330.446
331.018
331.606
332.181
332.71
333.155
333.479
333.649
333.649
333.479
333.155
332.71
332.181
331.606
331.018
330.446
329.925
329.534
322.981
323.281
323.686
324.13
324.587
325.034
325.445
325.791
326.042
326.174
326.174
326.042
325.791
325.445
325.034
324.587
324.13
323.686
323.281
322.981
316.425
316.637
316.926
317.243
317.57
317.889
318.182
318.429
318.608
318.702
318.702
318.608
318.429
318.182
317.889
317.57
317.243
316.926
316.637
316.425
309.867
309.994
310.167
310.357
310.553
310.745
310.921
311.069
311.177
311.233
311.233
311.177
311.069
310.921
310.745
310.553
310.357
310.167
309.994
309.867
303.308
303.35
303.408
303.472
303.537
303.602
303.661
303.71
303.746
303.765
303.765
303.746
303.71
303.661
303.602
303.537
303.472
303.408
303.35
303.308
349.642
350.316
351.174
352.105
353.06
353.992
354.849
355.569
356.092
356.368
356.368
356.092
355.569
354.849
353.992
353.06
352.105
351.174
350.316
349.642
343.04
343.611
344.351
345.156
345.982
346.789
347.53
348.152
348.604
348.842
348.842
348.604
348.152
347.53
346.789
345.982
345.156
344.351
343.611
343.04
336.432
336.905
337.529
338.21
338.908
339.59
340.215
340.741
341.122
341.323
341.323
341.122
340.741
340.215
339.59
338.908
338.21
337.529
336.905
336.432
329.819
330.2
330.709
331.265
331.836
332.393
332.904
333.333
333.645
333.809
333.809
333.645
333.333
332.904
332.393
331.836
331.265
330.709
330.2
329.819
323.203
323.495
323.89
324.322
324.766
325.199
325.596
325.929
326.171
326.298
326.298
326.171
325.929
325.596
325.199
324.766
324.322
323.89
323.495
323.203
316.583
316.791
317.072
317.38
317.697
318.006
318.29
318.528
318.7
318.791
318.791
318.7
318.528
318.29
318.006
317.697
317.38
317.072
316.791
316.583
309.962
310.086
310.254
310.44
310.63
310.815
310.986
311.129
311.232
311.287
311.287
311.232
311.129
310.986
310.815
310.63
310.44
310.254
310.086
309.962
303.34
303.381
303.437
303.499
303.563
303.625
303.682
303.73
303.765
303.783
303.783
303.765
303.73
303.682
303.625
303.563
303.499
303.437
303.381
303.34
350.281
350.935
351.765
352.662
353.58
354.473
355.292
355.978
356.476
356.738
356.738
356.476
355.978
355.292
354.473
353.58
352.662
351.765
350.935
350.281
343.592
344.146
344.862
345.639
346.433
347.206
347.914
348.508
348.938
349.164
349.164
348.938
348.508
347.914
347.206
346.433
345.639
344.862
344.146
343.592
336.899
337.358
337.961
338.618
339.289
339.942
340.54
341.042
341.405
341.596
341.596
341.405
341.042
340.54
339.942
339.289
338.618
337.961
337.358
336.899
330.201
330.57
331.062
331.599
332.147
332.682
333.17
333.58
333.876
334.032
334.032
333.876
333.58
333.17
332.682
332.147
331.599
331.062
330.57
330.201
323.499
323.783
324.164
324.581
325.008
325.423
325.803
326.121
326.351
326.472
326.472
326.351
326.121
325.803
325.423
325.008
324.581
324.164
323.783
323.499
316.795
316.996
317.268
317.566
317.87
318.167
318.438
318.665
318.829
318.916
318.916
318.829
318.665
318.438
318.167
317.87
317.566
317.268
316.996
316.795
310.089
310.209
310.372
310.551
310.734
310.912
311.075
311.211
311.31
311.361
311.361
311.31
311.211
311.075
310.912
310.734
310.551
310.372
310.209
310.089
303.382
303.422
303.477
303.537
303.598
303.658
303.712
303.758
303.791
303.808
303.808
303.791
303.758
303.712
303.658
303.598
303.537
303.477
303.422
303.382
351.085
351.714
352.51
353.369
354.243
355.092
355.866
356.514
356.982
357.228
357.228
356.982
356.514
355.866
355.092
354.243
353.369
352.51
351.714
351.085
344.288
344.821
345.508
346.251
347.008
347.742
348.412
348.972
349.377
349.59
349.59
349.377
348.972
348.412
347.742
347.008
346.251
345.508
344.821
344.288
337.486
337.928
338.507
339.135
339.775
340.396
340.962
341.435
341.777
341.956
341.956
341.777
341.435
340.962
340.396
339.775
339.135
338.507
337.928
337.486
330.681
331.036
331.508
332.022
332.545
333.052
333.515
333.901
334.181
334.327
334.327
334.181
333.901
333.515
333.052
332.545
332.022
331.508
331.036
330.681
323.872
324.145
324.511
324.91
325.317
325.712
326.071
326.371
326.588
326.702
326.702
326.588
326.371
326.071
325.712
325.317
324.91
324.511
324.145
323.872
317.061
317.255
317.516
317.801
318.091
318.373
318.63
318.844
318.999
319.08
319.08
318.999
318.844
318.63
318.373
318.091
317.801
317.516
317.255
317.061
310.249
310.364
310.521
310.692
310.866
311.036
311.19
311.318
311.411
311.46
311.46
311.411
311.318
311.19
311.036
310.866
310.692
310.521
310.364
310.249
303.436
303.474
303.527
303.584
303.642
303.699
303.751
303.794
303.825
303.841
303.841
303.825
303.794
303.751
303.699
303.642
303.584
303.527
303.474
303.436
352.056
352.658
353.417
354.232
355.058
355.856
356.583
357.188
357.624
357.853
357.853
357.624
357.188
356.583
355.856
355.058
354.232
353.417
352.658
352.056
345.128
345.638
346.292
346.998
347.713
348.404
349.033
349.556
349.934
350.132
350.132
349.934
349.556
349.033
348.404
347.713
346.998
346.292
345.638
345.128
338.196
338.619
339.17
339.767
340.372
340.956
341.487
341.929
342.248
342.415
342.415
342.248
341.929
341.487
340.956
340.372
339.767
339.17
338.619
338.196
331.261
331.601
332.051
332.538
333.033
333.511
333.945
334.306
334.567
334.703
334.703
334.567
334.306
333.945
333.511
333.033
332.538
332.051
331.601
331.261
324.323
324.584
324.933
325.312
325.697
326.068
326.406
326.686
326.889
326.995
326.995
326.889
326.686
326.406
326.068
325.697
325.312
324.933
324.584
324.323
317.384
317.568
317.817
318.088
318.362
318.628
318.869
319.069
319.214
319.289
319.289
319.214
319.069
318.869
318.628
318.362
318.088
317.817
317.568
317.384
310.442
310.553
310.702
310.864
311.029
311.189
311.333
311.454
311.54
311.586
311.586
311.54
311.454
311.333
311.189
311.029
310.864
310.702
310.553
310.442
303.501
303.537
303.587
303.642
303.697
303.75
303.799
303.839
303.868
303.884
303.884
303.868
303.839
303.799
303.75
303.697
303.642
303.587
303.537
303.501
353.199
353.771
354.489
355.257
356.032
356.778
357.453
358.013
358.416
358.628
358.628
358.416
358.013
357.453
356.778
356.032
355.257
354.489
353.771
353.199
346.117
346.601
347.22
347.885
348.557
349.202
349.787
350.272
350.62
350.803
350.803
350.62
350.272
349.787
349.202
348.557
347.885
347.22
346.601
346.117
339.032
339.433
339.955
340.517
341.085
341.631
342.125
342.535
342.829
342.983
342.983
342.829
342.535
342.125
341.631
341.085
340.517
339.955
339.433
339.032
331.944
332.267
332.693
333.152
333.616
334.063
334.467
334.802
335.042
335.168
335.168
335.042
334.802
334.467
334.063
333.616
333.152
332.693
332.267
331.944
324.854
325.102
325.432
325.789
326.15
326.497
326.811
327.072
327.259
327.357
327.357
327.259
327.072
326.811
326.497
326.15
325.789
325.432
325.102
324.854
317.762
317.938
318.173
318.428
318.686
318.934
319.159
319.344
319.478
319.548
319.548
319.478
319.344
319.159
318.934
318.686
318.428
318.173
317.938
317.762
310.67
310.775
310.916
311.069
311.224
311.373
311.507
311.619
311.699
311.741
311.741
311.699
311.619
311.507
311.373
311.224
311.069
310.916
310.775
310.67
303.577
303.612
303.659
303.71
303.762
303.812
303.857
303.895
303.922
303.936
303.936
303.922
303.895
303.857
303.812
303.762
303.71
303.659
303.612
303.577
354.516
355.056
355.732
356.451
357.173
357.864
358.487
359.003
359.372
359.565
359.565
359.372
359.003
358.487
357.864
357.173
356.451
355.732
355.056
354.516
347.256
347.713
348.296
348.919
349.545
350.143
350.683
351.129
351.449
351.616
351.616
351.449
351.129
350.683
350.143
349.545
348.919
348.296
347.713
347.256
339.994
340.374
340.865
341.391
341.92
342.427
342.883
343.26
343.53
343.671
343.671
343.53
343.26
342.883
342.427
341.92
341.391
340.865
340.374
339.994
332.731
333.036
333.436
333.867
334.299
334.714
335.087
335.395
335.616
335.731
335.731
335.616
335.395
335.087
334.714
334.299
333.867
333.436
333.036
332.731
325.465
325.7
326.01
326.345
326.681
327.004
327.294
327.533
327.705
327.795
327.795
327.705
327.533
327.294
327.004
326.681
326.345
326.01
325.7
325.465
318.199
318.365
318.586
318.825
319.066
319.296
319.503
319.674
319.797
319.861
319.861
319.797
319.674
319.503
319.296
319.066
318.825
318.586
318.365
318.199
310.932
311.031
311.164
311.307
311.452
311.59
311.714
311.817
311.891
311.929
311.929
311.891
311.817
311.714
311.59
311.452
311.307
311.164
311.031
310.932
303.665
303.698
303.742
303.79
303.839
303.885
303.927
303.961
303.986
303.999
303.999
303.986
303.961
303.927
303.885
303.839
303.79
303.742
303.698
303.665
356.011
356.518
357.15
357.82
358.489
359.125
359.697
360.168
360.504
360.679
360.679
360.504
360.168
359.697
359.125
358.489
357.82
357.15
356.518
356.011
348.55
348.979
349.525
350.104
350.684
351.235
351.73
352.138
352.429
352.581
352.581
352.429
352.138
351.73
351.235
350.684
350.104
349.525
348.979
348.55
341.087
341.443
341.903
342.393
342.883
343.35
343.769
344.113
344.359
344.488
344.488
344.359
344.113
343.769
343.35
342.883
342.393
341.903
341.443
341.087
333.624
333.91
334.285
334.686
335.087
335.469
335.811
336.093
336.294
336.399
336.399
336.294
336.093
335.811
335.469
335.087
334.686
334.285
333.91
333.624
326.16
326.38
326.67
326.982
327.294
327.591
327.857
328.076
328.232
328.314
328.314
328.232
328.076
327.857
327.591
327.294
326.982
326.67
326.38
326.16
318.695
318.851
319.058
319.28
319.503
319.715
319.906
320.062
320.174
320.232
320.232
320.174
320.062
319.906
319.715
319.503
319.28
319.058
318.851
318.695
311.23
311.323
311.447
311.581
311.714
311.842
311.956
312.05
312.117
312.152
312.152
312.117
312.05
311.956
311.842
311.714
311.581
311.447
311.323
311.23
303.764
303.795
303.837
303.882
303.927
303.969
304.008
304.039
304.062
304.073
304.073
304.062
304.039
304.008
303.969
303.927
303.882
303.837
303.795
303.764
357.686
358.161
358.749
359.369
359.985
360.569
361.09
361.518
361.822
361.981
361.981
361.822
361.518
361.09
360.569
359.985
359.369
358.749
358.161
357.686
349.999
350.401
350.909
351.446
351.98
352.486
352.937
353.307
353.571
353.708
353.708
353.571
353.307
352.937
352.486
351.98
351.446
350.909
350.401
349.999
342.312
342.645
343.074
343.528
343.979
344.407
344.789
345.102
345.325
345.441
345.441
345.325
345.102
344.789
344.407
343.979
343.528
343.074
342.645
342.312
334.625
334.893
335.242
335.614
335.983
336.333
336.646
336.902
337.084
337.179
337.179
337.084
336.902
336.646
336.333
335.983
335.614
335.242
334.893
334.625
326.938
327.144
327.414
327.703
327.991
328.263
328.506
328.705
328.847
328.921
328.921
328.847
328.705
328.506
328.263
327.991
327.703
327.414
327.144
326.938
319.251
319.396
319.589
319.795
320.001
320.195
320.369
320.511
320.613
320.665
320.665
320.613
320.511
320.369
320.195
320.001
319.795
319.589
319.396
319.251
311.563
311.65
311.766
311.89
312.013
312.13
312.234
312.32
312.381
312.412
312.412
312.381
312.32
312.234
312.13
312.013
311.89
311.766
311.65
311.563
303.876
303.905
303.944
303.986
304.027
304.066
304.101
304.13
304.15
304.161
304.161
304.15
304.13
304.101
304.066
304.027
303.986
303.944
303.905
303.876
359.545
359.987
360.533
361.104
361.669
362.202
362.675
363.061
363.336
363.478
363.478
363.336
363.061
362.675
362.202
361.669
361.104
360.533
359.987
359.545
351.608
351.982
352.453
352.948
353.438
353.899
354.309
354.644
354.882
355.005
355.005
354.882
354.644
354.309
353.899
353.438
352.948
352.453
351.982
351.608
343.672
343.982
344.379
344.798
345.212
345.602
345.949
346.232
346.433
346.538
346.538
346.433
346.232
345.949
345.602
345.212
344.798
344.379
343.982
343.672
335.736
335.986
336.309
336.652
336.991
337.31
337.594
337.826
337.99
338.076
338.076
337.99
337.826
337.594
337.31
336.991
336.652
336.309
335.986
335.736
327.802
327.993
328.244
328.51
328.774
329.023
329.243
329.424
329.551
329.618
329.618
329.551
329.424
329.243
329.023
328.774
328.51
328.244
327.993
327.802
319.867
320.003
320.182
320.372
320.561
320.738
320.896
321.025
321.116
321.163
321.163
321.116
321.025
320.896
320.738
320.561
320.372
320.182
320.003
319.867
311.934
312.015
312.122
312.236
312.349
312.456
312.551
312.628
312.683
312.711
312.711
312.683
312.628
312.551
312.456
312.349
312.236
312.122
312.015
311.934
304
304.027
304.063
304.102
304.14
304.175
304.207
304.233
304.251
304.261
304.261
304.251
304.233
304.207
304.175
304.14
304.102
304.063
304.027
304
361.59
362
362.504
363.029
363.545
364.029
364.457
364.805
365.051
365.179
365.179
365.051
364.805
364.457
364.029
363.545
363.029
362.504
362
361.59
353.378
353.724
354.159
354.614
355.062
355.481
355.852
356.153
356.367
356.477
356.477
356.367
356.153
355.852
355.481
355.062
354.614
354.159
353.724
353.378
345.167
345.455
345.821
346.206
346.585
346.94
347.253
347.508
347.689
347.783
347.783
347.689
347.508
347.253
346.94
346.585
346.206
345.821
345.455
345.167
336.959
337.19
337.489
337.803
338.113
338.404
338.661
338.869
339.017
339.094
339.094
339.017
338.869
338.661
338.404
338.113
337.803
337.489
337.19
336.959
328.752
328.929
329.161
329.406
329.647
329.873
330.072
330.235
330.35
330.409
330.409
330.35
330.235
330.072
329.873
329.647
329.406
329.161
328.929
328.752
320.546
320.671
320.837
321.012
321.184
321.345
321.488
321.604
321.686
321.729
321.729
321.686
321.604
321.488
321.345
321.184
321.012
320.837
320.671
320.546
312.341
312.416
312.515
312.62
312.724
312.821
312.906
312.976
313.025
313.051
313.051
313.025
312.976
312.906
312.821
312.724
312.62
312.515
312.416
312.341
304.137
304.162
304.195
304.23
304.265
304.297
304.326
304.35
304.366
304.375
304.375
304.366
304.35
304.326
304.297
304.265
304.23
304.195
304.162
304.137
363.821
364.2
364.664
365.145
365.615
366.053
366.439
366.751
366.972
367.086
367.086
366.972
366.751
366.439
366.053
365.615
365.145
364.664
364.2
363.821
355.308
355.629
356.029
356.446
356.853
357.233
357.567
357.838
358.029
358.128
358.128
358.029
357.838
357.567
357.233
356.853
356.446
356.029
355.629
355.308
346.798
347.064
347.402
347.754
348.099
348.421
348.703
348.933
349.094
349.178
349.178
349.094
348.933
348.703
348.421
348.099
347.754
347.402
347.064
346.798
338.292
338.506
338.781
339.069
339.351
339.615
339.846
340.034
340.166
340.234
340.234
340.166
340.034
339.846
339.615
339.351
339.069
338.781
338.506
338.292
329.788
329.952
330.165
330.389
330.609
330.814
330.994
331.14
331.243
331.296
331.296
331.243
331.14
330.994
330.814
330.609
330.389
330.165
329.952
329.788
321.286
321.402
321.554
321.714
321.871
322.018
322.146
322.251
322.324
322.362
322.362
322.324
322.251
322.146
322.018
321.871
321.714
321.554
321.402
321.286
312.785
312.855
312.946
313.042
313.136
313.224
313.302
313.364
313.408
313.431
313.431
313.408
313.364
313.302
313.224
313.136
313.042
312.946
312.855
312.785
304.286
304.309
304.339
304.372
304.403
304.433
304.459
304.48
304.494
304.502
304.502
304.494
304.48
304.459
304.433
304.403
304.372
304.339
304.309
304.286
366.236
366.586
367.012
367.451
367.878
368.274
368.621
368.901
369.098
369.199
369.199
369.098
368.901
368.621
368.274
367.878
367.451
367.012
366.586
366.236
357.397
357.693
358.06
358.441
358.811
359.155
359.455
359.698
359.869
359.957
359.957
359.869
359.698
359.455
359.155
358.811
358.441
358.06
357.693
357.397
348.563
348.808
349.118
349.44
349.753
350.044
350.299
350.504
350.649
350.723
350.723
350.649
350.504
350.299
350.044
349.753
349.44
349.118
348.808
348.563
339.734
339.931
340.184
340.447
340.704
340.941
341.15
341.318
341.436
341.497
341.497
341.436
341.318
341.15
340.941
340.704
340.447
340.184
339.931
339.734
330.908
331.06
331.256
331.46
331.66
331.845
332.007
332.138
332.23
332.278
332.278
332.23
332.138
332.007
331.845
331.66
331.46
331.256
331.06
330.908
322.086
322.193
322.333
322.479
322.622
322.754
322.87
322.963
323.029
323.063
323.063
323.029
322.963
322.87
322.754
322.622
322.479
322.333
322.193
322.086
313.266
313.329
313.413
313.501
313.587
313.666
313.736
313.792
313.832
313.852
313.852
313.832
313.792
313.736
313.666
313.587
313.501
313.413
313.329
313.266
304.447
304.468
304.496
304.525
304.554
304.581
304.604
304.623
304.636
304.643
304.643
304.636
304.623
304.604
304.581
304.554
304.525
304.496
304.468
304.447
368.826
369.148
369.538
369.938
370.325
370.683
370.994
371.245
371.42
371.511
371.511
371.42
371.245
370.994
370.683
370.325
369.938
369.538
369.148
368.826
359.635
359.908
360.244
360.591
360.927
361.237
361.507
361.725
361.877
361.956
361.956
361.877
361.725
361.507
361.237
360.927
360.591
360.244
359.908
359.635
350.453
350.679
350.962
351.256
351.54
351.803
352.031
352.215
352.344
352.411
352.411
352.344
352.215
352.031
351.803
351.54
351.256
350.962
350.679
350.453
341.277
341.459
341.69
341.93
342.163
342.378
342.565
342.716
342.821
342.876
342.876
342.821
342.716
342.565
342.378
342.163
341.93
341.69
341.459
341.277
332.107
332.246
332.426
332.612
332.794
332.961
333.107
333.224
333.306
333.348
333.348
333.306
333.224
333.107
332.961
332.794
332.612
332.426
332.246
332.107
322.941
323.04
323.168
323.301
323.431
323.55
323.654
323.738
323.797
323.827
323.827
323.797
323.738
323.654
323.55
323.431
323.301
323.168
323.04
322.941
313.779
313.838
313.915
313.995
314.072
314.144
314.207
314.257
314.292
314.311
314.311
314.292
314.257
314.207
314.144
314.072
313.995
313.915
313.838
313.779
304.619
304.638
304.664
304.691
304.717
304.741
304.762
304.779
304.791
304.797
304.797
304.791
304.779
304.762
304.741
304.717
304.691
304.664
304.638
304.619
371.562
371.858
372.215
372.58
372.931
373.254
373.533
373.758
373.914
373.995
373.995
373.914
373.758
373.533
373.254
372.931
372.58
372.215
371.858
371.562
361.997
362.247
362.555
362.871
363.176
363.456
363.698
363.893
364.029
364.099
364.099
364.029
363.893
363.698
363.456
363.176
362.871
362.555
362.247
361.997
352.443
352.65
352.91
353.178
353.436
353.673
353.878
354.043
354.158
354.217
354.217
354.158
354.043
353.878
353.673
353.436
353.178
352.91
352.65
352.443
342.9
343.067
343.279
343.498
343.709
343.903
344.071
344.206
344.3
344.349
344.349
344.3
344.206
344.071
343.903
343.709
343.498
343.279
343.067
342.9
333.366
333.494
333.658
333.829
333.993
334.144
334.275
334.38
334.453
334.491
334.491
334.453
334.38
334.275
334.144
333.993
333.829
333.658
333.494
333.366
323.839
323.93
324.047
324.169
324.286
324.394
324.488
324.563
324.615
324.642
324.642
324.615
324.563
324.488
324.394
324.286
324.169
324.047
323.93
323.839
314.317
314.371
314.442
314.515
314.585
314.65
314.707
314.752
314.783
314.8
314.8
314.783
314.752
314.707
314.65
314.585
314.515
314.442
314.371
314.317
304.799
304.817
304.841
304.865
304.889
304.911
304.929
304.945
304.955
304.961
304.961
304.955
304.945
304.929
304.911
304.889
304.865
304.841
304.817
304.799
374.376
374.648
374.975
375.308
375.627
375.918
376.17
376.371
376.512
376.584
376.584
376.512
376.371
376.17
375.918
375.627
375.308
374.975
374.648
374.376
364.413
364.643
364.926
365.215
365.491
365.744
365.963
366.138
366.26
366.322
366.322
366.26
366.138
365.963
365.744
365.491
365.215
364.926
364.643
364.413
354.471
354.662
354.901
355.145
355.379
355.594
355.779
355.927
356.03
356.083
356.083
356.03
355.927
355.779
355.594
355.379
355.145
354.901
354.662
354.471
344.548
344.702
344.896
345.096
345.288
345.464
345.616
345.737
345.822
345.865
345.865
345.822
345.737
345.616
345.464
345.288
345.096
344.896
344.702
344.548
334.641
334.758
334.909
335.065
335.215
335.351
335.47
335.564
335.63
335.664
335.664
335.63
335.564
335.47
335.351
335.215
335.065
334.909
334.758
334.641
324.746
324.829
324.937
325.048
325.155
325.253
325.338
325.405
325.452
325.476
325.476
325.452
325.405
325.338
325.253
325.155
325.048
324.937
324.829
324.746
314.86
314.91
314.975
315.042
315.106
315.165
315.216
315.256
315.284
315.299
315.299
315.284
315.256
315.216
315.165
315.106
315.042
314.975
314.91
314.86
304.981
304.997
305.019
305.041
305.063
305.083
305.1
305.113
305.123
305.128
305.128
305.123
305.113
305.1
305.083
305.063
305.041
305.019
304.997
304.981
377.086
377.337
377.639
377.945
378.236
378.502
378.731
378.913
379.04
379.105
379.105
379.04
378.913
378.731
378.502
378.236
377.945
377.639
377.337
377.086
366.712
366.925
367.186
367.452
367.705
367.936
368.135
368.293
368.404
368.46
368.46
368.404
368.293
368.135
367.936
367.705
367.452
367.186
366.925
366.712
356.38
356.557
356.777
357.002
357.217
357.413
357.582
357.717
357.81
357.858
357.858
357.81
357.717
357.582
357.413
357.217
357.002
356.777
356.557
356.38
346.085
346.227
346.407
346.591
346.768
346.929
347.067
347.177
347.254
347.293
347.293
347.254
347.177
347.067
346.929
346.768
346.591
346.407
346.227
346.085
335.82
335.93
336.069
336.213
336.35
336.476
336.584
336.67
336.729
336.76
336.76
336.729
336.67
336.584
336.476
336.35
336.213
336.069
335.93
335.82
325.58
325.658
325.758
325.86
325.959
326.048
326.125
326.187
326.23
326.252
326.252
326.23
326.187
326.125
326.048
325.959
325.86
325.758
325.658
325.58
315.358
315.405
315.464
315.526
315.585
315.639
315.686
315.723
315.748
315.761
315.761
315.748
315.723
315.686
315.639
315.585
315.526
315.464
315.405
315.358
305.147
305.163
305.183
305.203
305.223
305.241
305.257
305.269
305.278
305.282
305.282
305.278
305.269
305.257
305.241
305.223
305.203
305.183
305.163
305.147
379.214
379.451
379.734
380.021
380.294
380.542
380.755
380.924
381.041
381.101
381.101
381.041
380.924
380.755
380.542
380.294
380.021
379.734
379.451
379.214
368.449
368.65
368.896
369.146
369.384
369.6
369.786
369.933
370.036
370.089
370.089
370.036
369.933
369.786
369.6
369.384
369.146
368.896
368.65
368.449
357.778
357.945
358.153
358.366
358.568
358.752
358.91
359.036
359.123
359.168
359.168
359.123
359.036
358.91
358.752
358.568
358.366
358.153
357.945
357.778
347.182
347.317
347.488
347.662
347.828
347.979
348.109
348.213
348.284
348.321
348.321
348.284
348.213
348.109
347.979
347.828
347.662
347.488
347.317
347.182
336.647
336.751
336.883
337.019
337.149
337.267
337.368
337.449
337.505
337.534
337.534
337.505
337.449
337.368
337.267
337.149
337.019
336.883
336.751
336.647
326.157
326.231
326.325
326.423
326.516
326.6
326.673
326.731
326.771
326.791
326.791
326.771
326.731
326.673
326.6
326.516
326.423
326.325
326.231
326.157
315.699
315.743
315.8
315.859
315.915
315.965
316.009
316.044
316.068
316.08
316.08
316.068
316.044
316.009
315.965
315.915
315.859
315.8
315.743
315.699
305.26
305.275
305.294
305.314
305.333
305.35
305.364
305.376
305.384
305.388
305.388
305.384
305.376
305.364
305.35
305.333
305.314
305.294
305.275
305.26
)
;

boundaryField
{
    hotSide
    {
        type            fixedGradient;
        gradient        nonuniform List<scalar> 
400
(
517.262
518.98
522.423
527.607
534.551
543.283
553.832
566.231
580.515
596.717
614.87
635.004
657.15
681.331
707.571
735.888
766.298
798.815
833.449
870.208
526.572
528.216
531.514
536.487
543.162
551.573
561.761
573.768
587.638
603.413
621.136
640.844
662.572
686.349
712.202
740.153
770.218
802.413
836.746
873.227
536.646
538.203
541.329
546.051
552.407
560.441
570.206
581.757
595.15
610.438
627.673
646.9
668.162
691.493
716.923
744.475
774.169
806.018
840.034
876.223
547.32
548.774
551.7
556.132
562.119
569.721
579.004
590.039
602.895
617.64
634.335
653.037
673.793
696.643
721.621
748.753
778.057
809.548
843.236
879.126
558.294
559.632
562.333
566.44
572.017
579.14
587.893
598.363
610.638
624.799
640.92
659.066
679.292
701.644
726.157
752.859
781.769
812.901
846.262
881.856
569.11
570.325
572.785
576.547
581.689
588.306
596.503
606.387
618.062
631.624
647.162
664.749
684.446
706.305
730.362
756.645
785.174
815.961
849.011
884.326
579.15
580.242
582.462
585.88
590.591
596.711
604.364
613.678
624.773
637.764
652.747
669.807
689.01
710.411
734.048
759.949
788.132
818.607
851.379
886.444
587.671
588.652
590.656
593.765
598.091
603.768
610.939
619.751
630.34
642.833
657.338
673.945
692.728
713.741
737.025
762.606
790.502
820.721
853.263
888.125
593.907
594.802
596.641
599.515
603.548
608.889
615.696
624.13
634.341
646.463
660.614
676.889
695.363
716.093
739.121
764.472
792.161
822.196
854.575
889.292
597.211
598.06
599.809
602.554
606.428
611.587
618.198
626.429
636.436
648.36
662.322
678.42
696.731
717.312
740.205
765.434
793.016
822.954
855.248
889.89
597.211
598.06
599.809
602.554
606.428
611.587
618.198
626.429
636.436
648.36
662.322
678.42
696.731
717.312
740.205
765.434
793.016
822.954
855.248
889.89
593.907
594.802
596.641
599.515
603.548
608.889
615.696
624.13
634.341
646.463
660.614
676.889
695.363
716.093
739.121
764.472
792.161
822.196
854.575
889.292
587.671
588.652
590.656
593.765
598.091
603.768
610.939
619.751
630.34
642.833
657.338
673.945
692.728
713.741
737.025
762.606
790.502
820.721
853.263
888.125
579.15
580.242
582.462
585.88
590.591
596.711
604.364
613.678
624.773
637.764
652.747
669.807
689.01
710.411
734.048
759.949
788.132
818.607
851.379
886.444
569.11
570.325
572.785
576.547
581.689
588.306
596.503
606.387
618.062
631.624
647.162
664.749
684.446
706.305
730.362
756.645
785.174
815.961
849.011
884.326
558.294
559.632
562.333
566.44
572.017
579.14
587.893
598.363
610.638
624.799
640.92
659.066
679.292
701.644
726.157
752.859
781.769
812.901
846.262
881.856
547.32
548.774
551.7
556.132
562.119
569.721
579.004
590.039
602.895
617.64
634.335
653.037
673.793
696.643
721.621
748.753
778.057
809.548
843.236
879.126
536.646
538.203
541.329
546.051
552.407
560.441
570.206
581.757
595.15
610.438
627.673
646.9
668.162
691.493
716.923
744.475
774.169
806.018
840.034
876.223
526.572
528.216
531.514
536.487
543.162
551.573
561.761
573.768
587.638
603.413
621.136
640.844
662.572
686.349
712.202
740.153
770.218
802.413
836.746
873.227
517.262
518.98
522.423
527.607
534.551
543.283
553.832
566.231
580.515
596.717
614.87
635.004
657.15
681.331
707.571
735.888
766.298
798.815
833.449
870.208
)
;
    }
    coldSide
    {
        type            mixed;
        refValue        uniform 300;
        refGradient     uniform 0;
        valueFraction   uniform 0.991591;
        source          uniform 0;
        value           nonuniform List<scalar> 
400
(
300.028
300.028
300.028
300.028
300.028
300.029
300.029
300.03
300.031
300.032
300.033
300.034
300.035
300.036
300.037
300.039
300.04
300.042
300.043
300.044
300.028
300.028
300.028
300.028
300.029
300.029
300.03
300.03
300.031
300.032
300.033
300.034
300.035
300.036
300.038
300.039
300.041