/*--------------------------------*- C++ -*----------------------------------*\
| =========                 |                                                 |
| \\      /  F ield         | OpenFOAM: The Open Source CFD Toolbox           |
|  \\    /   O peration     | Version:  2212                                  |
|   \\  /    A nd           | Website:  www.openfoam.com                      |
|    \\/     M anipulation  |                                                 |
\*---------------------------------------------------------------------------*/
FoamFile
{
    version     2.0;
    format      ascii;
    arch        "LSB;label=32;scalar=64";
    class       volScalarField;
    location    "0";
    object      relativeErrorField;
}
// * * * * * * * * * * * * * * * * * * * * * * * * * * * * * * * * * * * * * //

dimensions      [0 0 0 1 0 0 0];

internalField   nonuniform List<scalar> 
3200
(
0.00296992
0.00304926
0.00355021
0.00475703
0.00615727
0.00807732
0.0101226
0.0117036
0.0133038
0.0141723
0.0142985
0.0138242
0.0126128
0.0111502
0.00979758
0.00805517
0.00673251
0.0057068
0.00571148
0.00560211
0.0024861
0.00260784
0.00285829
0.00415512
0.00528502
0.00710344
0.00877126
0.0104045
0.0118117
0.0123008
0.0124224
0.0120115
0.0111895
0.00989325
0.00851927
0.00710546
0.00575993
0.00521147
0.00472541
0.00494542
0.00217246
0.00211431
0.00248328
0.00344904
0.00452332
0.00606625
0.00750616
0.00893096
0.00994529
0.0106491
0.0106183
0.0102621
0.00961449
0.00836466
0.00714952
0.00598632
0.0049738
0.00438484
0.00415664
0.00388884
0.0017969
0.00174728
0.00230484
0.00291968
0.00383402
0.0051683
0.00621775
0.00725441
0.00840307
0.00893685
0.00889876
0.00870097
0.00786785
0.00684363
0.00586695
0.00506146
0.00415212
0.0035863
0.00346766
0.00349055
0.00130527
0.00118139
0.00166217
0.0022228
0.00274122
0.00388973
0.00479493
0.00578918
0.00649635
0.00680974
0.00707374
0.00692931
0.00614133
0.00547817
0.00456236
0.00388629
0.00329878
0.00270761
0.00250707
0.00267856
0.0010357
0.00108956
0.00131193
0.00177058
0.00220161
0.00291209
0.00369153
0.00416872
0.00463236
0.00503333
0.00492249
0.00501115
0.0046542
0.00402024
0.00337892
0.00278415
0.00252415
0.00198898
0.00195292
0.0018098
0.000663172
0.000449175
0.000731408
0.000923455
0.00127548
0.00187456
0.00218723
0.00253686
0.00308314
0.00311446
0.00311403
0.00288323
0.00262567
0.00260845
0.0021812
0.00169134
0.0014139
0.00124423
0.0011605
0.0010332
0.000220544
0.000253054
0.000124425
0.000252104
0.000433853
0.000696159
0.000643641
0.000968014
0.00115366
0.000821425
0.00116771
0.00104065
0.000919698
0.00062189
0.000564881
0.000626455
0.000525533
0.000284013
0.000393515
0.000507281
0.000969473
0.00092218
0.00140751
0.0023465
0.00386498
0.00584497
0.00739042
0.00946339
0.0106575
0.0113903
0.0118099
0.011294
0.0103684
0.00882001
0.00731457
0.00593656
0.00453812
0.00377175
0.00368656
0.00357544
0.000688389
0.000910558
0.00124426
0.00233842
0.00335137
0.0052215
0.006819
0.00833303
0.00963297
0.010187
0.0105413
0.00988221
0.00894994
0.00777841
0.00642202
0.00541086
0.00416543
0.00333744
0.00316852
0.00312181
0.000608551
0.000615819
0.00132349
0.00184183
0.00331889
0.00463918
0.00574919
0.0072673
0.00829661
0.00918863
0.00898566
0.00885151
0.00781542
0.00665577
0.00568288
0.00456832
0.00343533
0.00260167
0.00286471
0.00279969
0.000579093
0.000626813
0.000897435
0.00171013
0.002685
0.00386352
0.00482698
0.00614189
0.00701731
0.00723116
0.00745243
0.00743642
0.0064648
0.00567066
0.00464472
0.00365506
0.00285474
0.00245027
0.00215442
0.00218003
0.000522672
0.000542662
0.000739875
0.00139236
0.0020096
0.00307209
0.00399149
0.00468113
0.00542537
0.00598482
0.00604924
0.00584063
0.00524406
0.00430096
0.00365601
0.00290741
0.002436
0.00184261
0.00180831
0.00193689
0.000320758
0.000535227
0.000429792
0.000896581
0.00137008
0.00222044
0.00298823
0.00372787
0.00389891
0.00429106
0.00446966
0.00424039
0.00390899
0.00327268
0.00270637
0.00199611
0.00183114
0.00155553
0.0012385
0.00127056
0.000398352
0.000237682
0.000542237
0.000609815
0.000999661
0.00121282
0.00175403
0.00207614
0.00239514
0.00246755
0.00273612
0.00263969
0.00225627
0.00200846
0.00153138
0.00132181
0.00119166
0.00088045
0.000748219
0.000773548
0.000120182
3.65001e-05
0.000203687
0.000172616
0.000146642
0.000255788
0.000520769
0.0011111
0.00108842
0.000946995
0.000886762
0.000794697
0.00071177
0.00064467
0.000707954
0.000466463
0.000513109
5.21119e-05
0.000304491
8.80584e-05
0.00147575
0.00172105
0.00117315
0.000255
0.00104905
0.00282568
0.00448296
0.00625109
0.00749354
0.00843248
0.00857566
0.00824703
0.00727187
0.00592048
0.00443725
0.0031609
0.00185706
0.00135102
0.00127858
0.00134691
0.00124097
0.00121095
0.00091268
6.37385e-05
0.00122493
0.00235457
0.00403663
0.00565414
0.00665372
0.00747348
0.00766864
0.00713443
0.00631778
0.00510691
0.00391301
0.00273011
0.00196093
0.00123146
0.00102764
0.00123786
0.000878313
0.000884454
0.000688582
3.88223e-05
0.00121555
0.0023124
0.00364663
0.00469581
0.00585973
0.00666509
0.00666001
0.00614547
0.00551929
0.00451158
0.00360479
0.00237844
0.00167843
0.00105205
0.000706678
0.00108961
0.000658357
0.000612143
0.00039962
0.000144204
0.000898344
0.00196544
0.00296409
0.0041903
0.00494245
0.00567207
0.00575757
0.00516125
0.0047798
0.00385812
0.00307933
0.00209726
0.00125825
0.000900636
0.000994091
0.00112873
0.000615438
0.000644774
0.000309962
7.32491e-05
0.000699337
0.00161973
0.00254519
0.00332309
0.00391342
0.0044902
0.00436237
0.00409443
0.00368736
0.00318521
0.00224968
0.0017238
0.00129648
0.00105606
0.000555139
0.000606166
0.000525502
0.000304603
0.000344981
7.20848e-05
0.000494623
0.00111707
0.00169512
0.00254399
0.00276436
0.0032852
0.00342418
0.00331932
0.00264097
0.00232031
0.00180723
0.00124377
0.000765993
0.0006968
0.000728067
0.000642653
0.000360745
0.000367457
3.57721e-05
7.03556e-05
0.000414132
0.000770019
0.00135044
0.00165367
0.00163402
0.00208075
0.00200135
0.00196377
0.00176134
0.00149284
0.00110851
0.000599323
0.000489943
0.000339844
0.000242963
0.000476474
0.000106871
0.000107272
6.96028e-05
9.03224e-05
0.000254575
0.000245627
0.000438486
0.000609301
0.00075042
0.000742105
0.000776928
0.000733698
0.000634332
0.000451131
0.000283529
0.000209247
0.000187734
0.000170456
4.65825e-05
0.000153134
0.00377431
0.00383911
0.00362362
0.00290071
0.00155637
4.95694e-05
0.00157913
0.00317932
0.00443123
0.00503601
0.00541185
0.00490044
0.00412954
0.00282148
0.00159464
0.000314003
0.000516274
0.00116981
0.00116214
0.000752136
0.00305806
0.0031022
0.00308323
0.00239531
0.00127432
0.000316255
0.00155689
0.00283469
0.0037813
0.00450949
0.00499232
0.00411605
0.00371019
0.00254606
0.00137141
0.000274185
0.000447085
0.00101051
0.000641592
0.00058176
0.00250142
0.00296159
0.0025172
0.00216963
0.000950536
4.04285e-05
0.00120019
0.00246285
0.00342402
0.00409623
0.00404958
0.00377261
0.00347545
0.00201089
0.00134721
0.000527144
0.000155385
0.000815316
0.000620317
0.000472199
0.00211297
0.00213547
0.00197928
0.0016096
0.000871016
0.000265651
0.00112604
0.00208941
0.00282009
0.00343894
0.00364365
0.0031175
0.0028644
0.00194145
0.00115001
0.000368122
0.000331911
0.000440984
0.000431144
0.000178157
0.00165499
0.00172782
0.00136353
0.00119673
0.000431247
0.000150856
0.00104281
0.00169071
0.00251793
0.00262547
0.00282624
0.00252254
0.00234246
0.00166431
0.000911535
0.000502686
2.66378e-05
0.000540969
0.000189517
0.000210165
0.00107934
0.00115216
0.00106141
0.00112976
0.000425133
4.65936e-05
0.000669878
0.00127952
0.00186432
0.00192339
0.00222493
0.00185478
0.00152123
0.00119862
0.000853068
0.000380505
9.46762e-05
0.00013206
0.000115041
0.000131655
0.000541071
0.00074961
0.000755183
0.000559714
3.8162e-05
1.20985e-05
0.000540034
0.000786472
0.00103638
0.00130842
0.0010279
0.00126365
0.000994321
0.000678807
0.000477965
1.26006e-05
7.29341e-05
0.000330425
9.18629e-06
2.03166e-05
0.00034031
0.000238015
0.000222834
8.34651e-05
0.00014528
4.1385e-06
0.000167368
0.000601492
0.00044501
0.000578175
0.000578685
0.000438875
0.000415272
1.53935e-05
0.000407074
2.24215e-05
3.06651e-05
2.09808e-05
3.73418e-05
0.000241605
0.00538164
0.00563101
0.00569485
0.00535086
0.00433044
0.00288799
0.00142638
5.0336e-05
0.00120247
0.00182038
0.00192512
0.00163338
0.000792826
8.92675e-05
0.00116541
0.0023671
0.00313287
0.00310392
0.00306651
0.00225992
0.00482796
0.00504612
0.00474264
0.00449155
0.00353096
0.00233761
0.00112976
0.000240022
0.00113524
0.00199015
0.00191216
0.00180633
0.0010844
0.000143457
0.000959285
0.00212385
0.00245372
0.0028201
0.0024982
0.00223876
0.00399483
0.00426663
0.00412263
0.00355103
0.00275385
0.00180291
0.000948386
0.000176387
0.00101135
0.0014982
0.00147854
0.00138041
0.000809413
0.000261031
0.000647753
0.00162316
0.00219789
0.00236625
0.00221854
0.00197783
0.00322026
0.00355332
0.00349901
0.00297376
0.00234688
0.00163419
0.000655957
0.000179407
0.000873302
0.00164764
0.00154613
0.00122628
0.000826318
0.000133816
0.000445845
0.00127656
0.00156189
0.00190661
0.00171667
0.00145783
0.00272956
0.00264726
0.00275559
0.0024255
0.00176097
0.00126457
0.000401631
0.000218361
0.000846038
0.0011112
0.00118116
0.000882558
0.000455873
0.000171213
0.000396579
0.000830705
0.00119397
0.00137449
0.00138115
0.00124755
0.00183281
0.00174358
0.00194695
0.00186816
0.00136163
0.000903962
0.00041435
0.000153725
0.000734409
0.000839655
0.000960423
0.000777535
0.000448368
8.51198e-05
0.000386889
0.000592173
0.000817261
0.000892484
0.00101119
0.000895925
0.00119437
0.00127443
0.00117487
0.00103671
0.000987755
0.000544059
0.000195093
0.000346907
0.000520423
0.000790727
0.000727461
0.000439485
0.00043184
9.89973e-05
7.55693e-05
0.000382838
0.00080567
0.000564217
0.000571937
0.000590803
0.000374337
0.000368386
0.000446929
0.000406196
0.000322136
0.0002045
3.36277e-05
2.65555e-05
0.000114952
0.000158603
0.000157137
0.000173283
0.000328192
0.000102453
6.93505e-05
7.14593e-05
0.000171815
1.03574e-05
0.000245629
0.000290289
0.00687093
0.00738143
0.0076221
0.00711126
0.00639461
0.00529271
0.00418787
0.00288903
0.00185014
0.000884565
0.00090982
0.0011748
0.00179947
0.00263812
0.00348219
0.0042199
0.00488794
0.00486725
0.00443129
0.00366373
0.00571018
0.00632807
0.00645103
0.00609414
0.00566877
0.00451928
0.00363714
0.00241682
0.00137968
0.000766925
0.000354812
0.00101374
0.00162092
0.00237016
0.0029446
0.00377752
0.00420548
0.003998
0.00400908
0.00331334
0.00506894
0.00554656
0.00539372
0.00513685
0.00460197
0.00377939
0.0028106
0.0016821
0.00116858
0.000469798
0.000400137
0.000360743
0.00128279
0.00180575
0.00253204
0.00319988
0.00356405
0.00349108
0.00336279
0.00269254
0.0042934
0.0043441
0.00452157
0.00402651
0.00385432
0.00305538
0.00214529
0.00151587
0.000897409
0.000313133
0.00024464
0.000217798
0.000906597
0.00161942
0.00193693
0.00256741
0.00280782
0.00291322
0.00250268
0.00229298
0.00310289
0.00326766
0.00356037
0.00332421
0.00306818
0.0023257
0.00184365
0.00116032
0.000642314
0.000378956
9.42076e-05
0.000206843
0.000770961
0.00123382
0.00158013
0.0019846
0.00230781
0.00217994
0.0019375
0.00179596
0.00234909
0.00241691
0.00260977
0.00225402
0.0020198
0.00176197
0.00139554
0.0008486
0.000434619
0.000279459
5.54021e-05
0.000264191
0.000605616
0.00102646
0.00109627
0.00132357
0.00158808
0.00158978
0.00158608
0.00139352
0.0013861
0.00155317
0.00136147
0.00146456
0.00117646
0.00110187
0.00070265
0.0005121
0.000350791
8.32051e-05
0.0001015
0.000298808
0.000435705
0.000557722
0.000510886
0.000728181
0.00103968
0.00104614
0.00091654
0.000670209
0.000546093
0.000467473
0.000390839
0.000360941
0.000476481
0.000469716
0.000379911
7.82954e-05
1.38969e-05
0.000137524
0.000190215
0.000138894
0.000141747
0.00036269
0.000281416
0.000145191
0.000404436
0.00012535
0.00036847
0.000248655
0.00792853
0.00848245
0.008811
0.00869529
0.00816399
0.0071359
0.00639402
0.00527426
0.00417624
0.00359196
0.00342453
0.00364543
0.00422761
0.0046666
0.00564277
0.00612619
0.00621833
0.00601568
0.00555689
0.00471554
0.00675321
0.00731422
0.00766588
0.00738662
0.00697076
0.00619918
0.00519286
0.00440021
0.00356264
0.00305853
0.00295525
0.00300835
0.00354371
0.00429094
0.00465839
0.00506895
0.00549917
0.00518099
0.00482591
0.00415293
0.0058719
0.00623422
0.00671483
0.00618832
0.00588736
0.00538566
0.00425053
0.00362454
0.00297008
0.00239563
0.00236812
0.00261969
0.00289041
0.00334246
0.00402475
0.00436247
0.00468827
0.00437155
0.00369222
0.00344752
0.00472712
0.00494811
0.00518341
0.00521636
0.00493474
0.00421795
0.00351826
0.00298626
0.00231801
0.0021617
0.00182478
0.00210057
0.0022463
0.00284046
0.00322732
0.00368244
0.00385332
0.00364968
0.00320702
0.00280104
0.00394506
0.00413384
0.00418465
0.0039544
0.00397919
0.00335213
0.00259478
0.00241781
0.00187803
0.00164487
0.00151415
0.00145946
0.00183563
0.00222501
0.00262796
0.00303269
0.00294705
0.00290298
0.00266729
0.00219242
0.00268331
0.00306504
0.00322839
0.00297714
0.00274324
0.00227423
0.00192128
0.00160051
0.00144641
0.00107283
0.00123069
0.00119909
0.00107004
0.00156639
0.00188573
0.00210896
0.00199388
0.00178564
0.00168867
0.00178575
0.0018059
0.00177822
0.00172254
0.001717
0.00189585
0.00147959
0.00107825
0.000876273
0.000535002
0.000786352
0.000709575
0.000646078
0.000885589
0.000986409
0.000973938
0.00112491
0.00134087
0.00109964
0.00127985
0.00104653
0.000650821
0.000590734
0.000483408
0.000345307
0.000515769
0.000726519
0.000573722
0.000128983
0.000298371
9.55322e-05
0.000193343
0.000433303
0.000173957
0.000213925
0.000316067
0.000639358
0.000345784
0.000625293
0.000440628
0.0003078
0.00816057
0.00885351
0.00958004
0.0096644
0.00935211
0.00851997
0.00778312
0.00704501
0.00610644
0.00570411
0.00528693
0.00573162
0.00600807
0.00622511
0.0071463
0.00709815
0.00710481
0.00666818
0.00597365
0.00514612
0.00706597
0.0078244
0.00827039
0.0083352
0.00835087
0.00750465
0.00677951
0.00602969
0.00529014
0.00496362
0.00472604
0.00481848
0.00511691
0.00551289
0.00581904
0.0062027
0.0061931
0.00592178
0.00521738
0.00438009
0.00600724
0.00658954
0.00708534
0.00731761
0.00678542
0.00652097
0.00586172
0.00513
0.00448675
0.00397903
0.00374438
0.00409554
0.0043293
0.00446649
0.00505914
0.00522544
0.00534051
0.00490822
0.00419096
0.0036729
0.00496006
0.00534836
0.00570588
0.00573064
0.00571571
0.00528923
0.00483265
0.00427569
0.00374119
0.00347162
0.00321107
0.00350377
0.0036659
0.00391144
0.00422282
0.00420635
0.00430981
0.00405959
0.00355703
0.00277879
0.00383616
0.00389628
0.00467061
0.00445934
0.00457271
0.00416681
0.00363673
0.00320999
0.00298399
0.00252496
0.00267662
0.00245568
0.00276965
0.00318077
0.00337722
0.00345296
0.00339135
0.00337034
0.0026381
0.00245293
0.00271499
0.00309026
0.00345422
0.00321214
0.00325605
0.00310355
0.0027603
0.00234883
0.00210956
0.00205194
0.00181531
0.001888
0.0021671
0.001897
0.00216345
0.00238272
0.00262599
0.00235292
0.00203967
0.0015792
0.00158655
0.00187702
0.00200505
0.0020396
0.00196293
0.00182925
0.00174168
0.00152877
0.00146371
0.00122754
0.00119176
0.00108212
0.00103358
0.00129775
0.00140218
0.00166823
0.00148622
0.001267
0.00136312
0.00123678
0.000638191
0.000716413
0.000869837
0.000507382
0.000675875
0.000525158
0.000431791
0.000326863
0.000459458
0.000576495
0.000384856
0.000477014
0.000310875
0.000374899
0.000638084
0.000465713
0.00070264
0.000462884
0.000411602
0.000425929
0.00796215
0.00888244
0.0095923
0.0100071
0.0102039
0.00980141
0.00908402
0.00815579
0.0076327
0.00714527
0.00707638
0.00696362
0.00729913
0.00747427
0.00789396
0.00796276
0.00740554
0.00688409
0.00575741
0.00464863
0.007085
0.00765263
0.00833335
0.00865696
0.00859663
0.00825872
0.00770969
0.00718208
0.00660945
0.00629512
0.00599953
0.00610217
0.00621667
0.00658107
0.00662741
0.00659148
0.00664743
0.00592014
0.00532654
0.00394333
0.00562795
0.00648704
0.00723187
0.00737167
0.0073303
0.00696602
0.00650226
0.0060588
0.00569212
0.00517626
0.00501011
0.00506703
0.00526025
0.00544252
0.00568757
0.00583543
0.00552777
0.00501375
0.00415807
0.00337629
0.00471665
0.00523274
0.00596692
0.00594056
0.00600303
0.00590994
0.00551178
0.00498402
0.0044251
0.00439384
0.00429007
0.00422211
0.00420581
0.00442517
0.00478079
0.00470454
0.00439356
0.0040951
0.00353127
0.00297959
0.00390519
0.00423471
0.00458708
0.00455131
0.00485749
0.00451635
0.00432111
0.00399682
0.00340498
0.00333267
0.00335158
0.00316039
0.00331611
0.00357708
0.00358463
0.00359884
0.00367219
0.00328699
0.00259242
0.00202633
0.00263465
0.00319401
0.00330576
0.00341484
0.00349101
0.00328828
0.00334491
0.00281393
0.00246809
0.00258167
0.00244124
0.00244085
0.00245647
0.00270015
0.00276471
0.00286202
0.00248476
0.0022389
0.00194096
0.00168554
0.00166712
0.00173898
0.00184199
0.00206321
0.00213119
0.0021721
0.00195241
0.001901
0.0016828
0.0014698
0.00152642
0.00151713
0.00141711
0.00163187
0.00180011
0.00174237
0.00156117
0.00147446
0.00119678
0.00104282
0.00054579
0.000739235
0.00067835
0.000715967
0.000917943
0.000626673
0.000833278
0.000507747
0.000461312
0.000729754
0.000620914
0.00048038
0.000529514
0.00045549
0.000601423
0.000485677
0.000563353
0.000308108
0.000456555
0.000143503
0.00719251
0.00814515
0.00927809
0.0099223
0.00989976
0.0100039
0.0093559
0.00894705
0.00823566
0.00798815
0.00769941
0.00787634
0.00806277
0.00788624
0.00780517
0.00771467
0.00741986
0.0062732
0.00495355
0.00367315
0.00611349
0.00723393
0.00799857
0.00879263
0.00877244
0.00846033
0.00799659
0.00774596
0.00751407
0.00706962
0.00682309
0.00659934
0.00691446
0.00687812
0.00707417
0.00693682
0.00633308
0.0054848
0.00457952
0.00340307
0.00503594
0.00600638
0.00689224
0.00719479
0.00737138
0.00723086
0.00689931
0.00659387
0.0062046
0.00602136
0.00553332
0.00580596
0.00573445
0.00595751
0.00585054
0.00564718
0.00541135
0.00472689
0.00375
0.00265528
0.00438572
0.00498049
0.00574166
0.00604289
0.00610193
0.00591003
0.00578863
0.00536307
0.00514764
0.00484702
0.0046645
0.00479325
0.00477882
0.00479711
0.00478119
0.00472866
0.0044189
0.00394906
0.00307242
0.00228198
0.00367111
0.00410492
0.00434699
0.00466381
0.0049674
0.00447087
0.00464202
0.00414525
0.00413397
0.00390461
0.00377293
0.00374395
0.00381398
0.00380944
0.00390801
0.00374899
0.00352513
0.00305613
0.00227818
0.00162505
0.002504
0.00268517
0.00310994
0.00316125
0.003465
0.00366965
0.00344136
0.00302172
0.0027946
0.00285407
0.00243302
0.00286187
0.00269685
0.00277964
0.00269871
0.00260532
0.00263246
0.00222993
0.00180146
0.00128527
0.00165182
0.00185131
0.00184009
0.00188342
0.00192913
0.00219096
0.00177189
0.00198465
0.00164056
0.00154325
0.00160964
0.00150059
0.00168939
0.00176001
0.00151511
0.00163292
0.00148503
0.00132757
0.000950913
0.000782216
0.000402212
0.000691876
0.000783288
0.000748876
0.000707094
0.000726354
0.000699689
0.000638937
0.000657167
0.000707281
0.000501523
0.000422864
0.000642019
0.000568112
0.000643127
0.000510376
0.000207203
0.000311725
8.0823e-05
0.00022651
0.00564692
0.00711736
0.0081821
0.00894178
0.00934912
0.00940053
0.00921463
0.00915511
0.0085265
0.00820098
0.00818041
0.00807789
0.00800865
0.00773135
0.0077394
0.00727142
0.00640544
0.00522998
0.00400056
0.00231571
0.00507885
0.00583454
0.00702203
0.00792569
0.00818278
0.00816843
0.008054
0.00768882
0.00760245
0.00706477
0.00699259
0.00695594
0.00700693
0.00673991
0.00679153
0.00621058
0.00554962
0.00449225
0.00327171
0.00207567
0.00428673
0.00494153
0.0060272
0.00666127
0.00687694
0.00695502
0.00676565
0.00662377
0.0061675
0.0060136
0.00569858
0.00589431
0.00587724
0.00580557
0.00543041
0.00510357
0.00469361
0.00383188
0.00278034
0.00172299
0.00342052
0.00425555
0.00502829
0.00558717
0.00581183
0.00608472
0.00547481
0.00564451
0.00526983
0.00483997
0.00485929
0.00481385
0.00489059
0.00475287
0.00475725
0.00444227
0.0040962
0.00299758
0.00225637
0.00148621
0.00265234
0.0033634
0.00375129
0.00427175
0.00446488
0.00428443
0.00426982
0.00413252
0.00410435
0.0041148
0.00351937
0.00381639
0.00374131
0.00365422
0.003504
0.00339005
0.0029957
0.00248644
0.00188936
0.00111822
0.00190656
0.0023422
0.00287929
0.00293771
0.00322516
0.00317805
0.00322976
0.00302428
0.00290386
0.00288006
0.00277987
0.00271344
0.0026449
0.00251086
0.00259775
0.00261954
0.00220138
0.00177868
0.0012368
0.00104243
0.00112047
0.00134649
0.00169557
0.00200148
0.00207076
0.00194989
0.00169377
0.00179249
0.0017958
0.00192485
0.00177384
0.00186011
0.00148206
0.00162666
0.00180842
0.00156753
0.00117842
0.000972257
0.000761115
0.000497435
0.000355417
0.000452992
0.000440093
0.000544704
0.000648742
0.000452636
0.000461938
0.000625914
0.000362803
0.00045553
0.000485318
0.00042385
0.000559953
0.000616559
0.000724332
0.000625447
0.000495142
0.000361521
0.000221261
3.96556e-06
0.00346828
0.00488687
0.00656633
0.00751999
0.00793658
0.00833517
0.00847825
0.00827922
0.00801068
0.00789668
0.00771657
0.00744491
0.00695518
0.00702328
0.00658552
0.00583393
0.00462452
0.00357845
0.00189486
0.000163705
0.00301909
0.00417146
0.00557024
0.00631159
0.00702123
0.0072714
0.00728701
0.00729434
0.00688438
0.00689299
0.00661191
0.00660126
0.00618366
0.0062128
0.00575153
0.00513908
0.00420165
0.00314651
0.00139598
0.000123369
0.00250932
0.003517
0.00459228
0.00532462
0.0060057
0.00615004
0.0062281
0.00622355
0.00593189
0.00581171
0.00562972
0.00558799
0.00551245
0.00512456
0.00471881
0.00430483
0.00371052
0.00252722
0.00126673
0.000142384
0.00205114
0.00277061
0.00376223
0.00451911
0.00508686
0.00519443
0.00516441
0.00496386
0.00491006
0.00484886
0.0047788
0.00463516
0.00419961
0.00438072
0.00386424
0.00344857
0.00295903
0.00213433
0.000893593
2.3478e-05
0.00158392
0.00222946
0.00310329
0.00360017
0.00379194
0.00387458
0.00396403
0.00396533
0.00374091
0.00370483
0.00359928
0.00340322
0.00335957
0.00310723
0.00322459
0.00266854
0.00242607
0.00147926
0.000835781
1.04611e-05
0.000992333
0.00145873
0.00218143
0.00241278
0.00279743
0.00285214
0.00293161
0.0030351
0.00275914
0.0026871
0.00281902
0.00262937
0.00242199
0.0022651
0.00218476
0.00194927
0.00168079
0.00127254
0.000774305
2.31959e-05
0.000764705
0.000969457
0.00125428
0.00136363
0.00169579
0.00179582
0.00187323
0.00184158
0.00162658
0.00159631
0.0016546
0.00169055
0.00149726
0.00141366
0.00149065
0.00121448
0.000971724
0.000649781
0.000260947
6.57718e-05
0.000412997
0.000153624
0.000439987
0.000583663
0.000612066
0.000433234
0.000552937
0.000518141
0.000481137
0.000495001
0.000593463
0.000698291
0.000634008
0.000275825
0.000506361
0.000431401
0.000283741
1.99705e-05
1.02998e-05
8.09317e-06
0.000835231
0.00255272
0.00416948
0.00509414
0.00626931
0.00674387
0.00697488
0.00687623
0.00673917
0.00674284
0.0063944
0.00630164
0.00597162
0.00548036
0.00473333
0.00406564
0.0025173
0.00116821
0.000611069
0.00271883
0.000547162
0.00196412
0.00332263
0.00445071
0.00548699
0.0057165
0.00586271
0.00581654
0.0059196
0.00557673
0.00577575
0.00512707
0.00499214
0.00476013
0.00427185
0.00339635
0.00229357
0.000603306
0.000724397
0.00255924
0.00047617
0.00161083
0.00292265
0.00387295
0.00436788
0.00485631
0.00513455
0.0050265
0.00493537
0.00503415
0.00465746
0.00444216
0.00429714
0.00382753
0.0033354
0.00296507
0.00187474
0.000881543
0.000598864
0.00200475
0.000442139
0.00121552
0.00243543
0.00297268
0.00365631
0.0039879
0.00413121
0.00397599
0.00412275
0.00397038
0.00391807
0.00381656
0.00346465
0.00318239
0.0028014
0.0022064
0.00160349
0.000650109
0.000738264
0.00167636
0.000485141
0.000882599
0.00184244
0.00232586
0.00274
0.0033224
0.00344482
0.00316906
0.00324371
0.00301142
0.00312939
0.00293088
0.00291425
0.00251506
0.00236171
0.00178631
0.00126663
0.000623098
0.000479703
0.00133378
0.000247311
0.000904731
0.00118436
0.0018643
0.00203704
0.00231141
0.00219623
0.00240578
0.00210596
0.00241621
0.00229615
0.00213449
0.00200534
0.00186014
0.00146466
0.00150025
0.00103996
0.000227907
0.000138383
0.00104102
0.000169606
0.00031979
0.000664021
0.000932865
0.00130179
0.00142925
0.00153699
0.00145996
0.00146849
0.00145444
0.00128914
0.00142335
0.00103955
0.00125806
0.000985547
0.000780636
0.000429997
0.000152947
0.000346634
0.000824466
0.000224247
9.13523e-05
0.000104394
0.000348575
0.000338905
0.000606703
0.000453185
0.000412129
0.000447169
0.000451625
0.000465486
0.00042108
0.000412473
0.000260115
0.000433719
0.000171312
7.00426e-05
2.52168e-05
5.56486e-05
0.000246362
0.00266193
0.000817561
0.00105915
0.00241277
0.00344713
0.00437648
0.00471024
0.00485031
0.00469393
0.00475795
0.00453497
0.00424304
0.00370971
0.00309698
0.00229842
0.00110464
0.000140653
0.00203689
0.00405691
0.00585784
0.00241129
0.000722464
0.000757975
0.00202039
0.00298756
0.00371063
0.00396325
0.00401242
0.00397711
0.00389371
0.00361487
0.00358462
0.00312926
0.00282612
0.0018849
0.00101161
8.16487e-05
0.00175761
0.00381895
0.0051263
0.00230633
0.000719203
0.00064028
0.00152709
0.00251503
0.00296301
0.00345105
0.00355415
0.00359604
0.00334645
0.0031308
0.00315249
0.00237512
0.00221091
0.00169728
0.000448033
0.000271145
0.00186212
0.00316524
0.00446643
0.00180724
0.000670147
0.000117749
0.00141947
0.00175426
0.00244955
0.0027022
0.00269994
0.00289801
0.00271448
0.00263826
0.00249945
0.00209646
0.0017371
0.00126538
0.000464606
0.000110327
0.00147149
0.00268088
0.00375947
0.00134404
0.000626847
0.00028488
0.000772471
0.00157705
0.00191654
0.00199628
0.00234182
0.00229508
0.00216246
0.00195887
0.00197841
0.00161553
0.00137127
0.0011081
0.000424061
0.000110593
0.00106058
0.00219719
0.0032562
0.00102423
0.000134467
0.000307013
0.000847564
0.00110565
0.00138628
0.00152078
0.00160319
0.00166544
0.00143171
0.00154129
0.00130238
0.00115051
0.00106164
0.000826478
0.00033757
0.00027225
0.0007604
0.00152781
0.0022559
0.000744464
0.000480491
8.34701e-05
0.000662721
0.000618248
0.000946689
0.000935566
0.000980759
0.000895728
0.000869996
0.00091088
0.000895299
0.000828956
0.00057258
8.75941e-05
0.000192579
0.000104947
0.000454495
0.00116389
0.00140972
5.51313e-05
0.000131438
0.000202999
7.56994e-05
0.000164407
0.000376691
0.000258968
0.000264416
0.000343421
0.00047354
0.000388313
0.000207846
0.000425129
0.000502342
0.00019845
5.97517e-05
6.97985e-06
0.000208727
0.000550724
0.000332037
0.006642
0.00458073
0.00273741
0.000906659
0.000244798
0.00115094
0.0016926
0.00203332
0.00200734
0.00187122
0.00191598
0.00130152
0.000827951
0.000103385
0.000976229
0.00209567
0.00367008
0.00537138
0.00787684
0.00991521
0.006073
0.00432673
0.00258907
0.00123534
0.000124544
0.000869078
0.00134789
0.00146661
0.00164779
0.00150662
0.00127028
0.000922888
0.000529527
0.000124038
0.00104438
0.00199368
0.00348076
0.00522986
0.00704976
0.00871932
0.00519331
0.00398516
0.00226964
0.001108
0.000119002
0.00070801
0.00110245
0.0012808
0.00126027
0.00131612
0.00103053
0.000723047
0.000531259
0.00015494
0.000679282
0.00165507
0.00297311
0.00459622
0.00609356
0.00762985
0.00427868
0.00302125
0.0017468
0.000981727
3.49587e-05
0.000302671
0.000747125
0.000939938
0.00104079
0.00109047
0.000773531
0.000469185
0.000179906
7.69134e-05
0.000737627
0.0015297
0.00249852
0.00371171
0.00521125
0.00642699
0.00350899
0.0025438
0.00150672
0.00085193
4.5691e-05
0.000285403
0.000524188
0.000642724
0.00103656
0.000700143
0.000734136
0.000517691
0.00011087
0.000176457
0.000698979
0.0010789
0.00196487
0.00311555
0.00400468
0.00504251
0.00260941
0.00205955
0.00117101
0.000566807
0.000160528
0.000126112
0.000288658
0.000434368
0.000743432
0.00044617
0.00042063
0.000202418
0.00014391
0.000236005
0.000749371
0.000917628
0.00145273
0.0020224
0.0031937
0.00365189
0.00146147
0.00102689
0.000542005
0.000350463
0.000102602
6.38963e-05
0.00036185
0.000174978
0.000391934
0.000447488
0.000176397
6.69056e-05
3.01506e-05
9.43042e-05
0.000334458
0.000821139
0.000804655
0.00164586
0.00196878
0.00227621
0.000369521
0.000429367
0.000184111
0.000169496
0.000262753
5.44525e-05
0.000175087
2.31462e-06
0.000251307
0.000180186
0.000113884
0.000203254
5.57917e-05
3.83602e-05
9.8104e-05
0.000148752
0.000373663
0.00073144
0.000714165
0.000856653
0.0111604
0.00913424
0.00707027
0.00517409
0.0038018
0.00276712
0.00192937
0.00195181
0.00153254
0.00147581
0.00194558
0.00207412
0.00275518
0.00373061
0.00462
0.00606693
0.00787203
0.00991141
0.0123961
0.0146962
0.00991082
0.0081797
0.00625774
0.00467644
0.00345368
0.00261072
0.00208228
0.00148469
0.00150659
0.00151944
0.0017759
0.00181442
0.00275177
0.00325212
0.00434188
0.00552975
0.00720911
0.00903014
0.0110118
0.0128915
0.00852254
0.00720269
0.00543863
0.00412132
0.00306619
0.00254002
0.00192023
0.00139916
0.00138533
0.00132477
0.00144182
0.0018027
0.00223294
0.00285494
0.00380846
0.00482122
0.00618203
0.00789433
0.00955648
0.0113262
0.00736228
0.00587107
0.00470813
0.00349759
0.00269528
0.00214382
0.00159276
0.0013161
0.00126688
0.00128587
0.00111382
0.00145759
0.00197488
0.00250443
0.00323105
0.00415201
0.00514262
0.00657751
0.00818918
0.00942379
0.00593105
0.00494066
0.00371159
0.00277328
0.00212458
0.00186941
0.00134024
0.00100208
0.00114975
0.00102469
0.00116506
0.00129218
0.0015142
0.00216996
0.00248737
0.00325126
0.00408632
0.00533604
0.00636555
0.00737031
0.00422623
0.00358881
0.00275601
0.00215432
0.001488
0.00129125
0.000956937
0.000673983
0.000529625
0.000523704
0.000791697
0.000797147
0.00131971
0.00134007
0.0019281
0.00243245
0.00302716
0.00374242
0.00492897
0.00560641
0.00280076
0.00226604
0.00181086
0.00137384
0.000824369
0.000695914
0.000538496
0.000684209
0.000588289
0.00045879
0.000609365
0.000554527
0.000858211
0.000918605
0.00123632
0.00149133
0.00192963
0.00229548
0.00298738
0.00341947
0.000720621
0.000613501
0.00068487
0.000388403
0.000206066
0.000432959
0.000212878
0.000315546
0.000331771
0.00015515
0.000213558
0.000200471
0.000197189
0.000454797
0.000360531
0.000664686
0.000681913
0.000917956
0.000935563
0.00117085
0.0162544
0.0143695
0.0119659
0.00991599
0.00862444
0.00723163
0.00639063
0.00573426
0.00557038
0.00556269
0.00589619
0.00636489
0.00685259
0.00784065
0.00915005
0.0107186
0.0127647
0.0148286
0.0173538
0.0196246
0.0145713
0.0125515
0.0107343
0.00899461
0.00749013
0.00647734
0.00562829
0.00537829
0.00521571
0.00499391
0.00523428
0.00569898
0.00622818
0.00722057
0.00818821
0.00940138
0.0114536
0.0132367
0.0153856
0.0173424
0.0126116
0.010991
0.00926526
0.00778683
0.00663745
0.00561516
0.00507477
0.0047798
0.00439857
0.00456022