/*--------------------------------*- C++ -*----------------------------------*\
| =========                 |                                                 |
| \\      /  F ield         | OpenFOAM: The Open Source CFD Toolbox           |
|  \\    /   O peration     | Version:  2212                                  |
|   \\  /    A nd           | Website:  www.openfoam.com                      |
|    \\/     M anipulation  |                                                 |
\*---------------------------------------------------------------------------*/
FoamFile
{
    version     2.0;
    format      ascii;
    arch        "LSB;label=32;scalar=64";
    class       volScalarField;
    location    "0";
    object      stateMean;
}
// * * * * * * * * * * * * * * * * * * * * * * * * * * * * * * * * * * * * * //

dimensions      [0 0 0 1 0 0 0];

internalField   nonuniform List<scalar> 
3200
(
342.293
343.19
344.197
345.064
345.898
346.523
347
347.449
347.617
347.697
347.652
347.434
347.13
346.639
345.922
345.237
344.379
343.452
342.274
341.39
336.727
337.468
338.401
339.072
339.83
340.329
340.788
341.096
341.242
341.406
341.364
341.173
340.825
340.403
339.844
339.209
338.526
337.602
336.751
335.897
331.086
331.755
332.49
333.108
333.716
334.146
334.533
334.787
334.978
335.022
335.032
334.871
334.556
334.244
333.781
333.225
332.598
331.856
331.076
330.517
325.454
325.993
326.511
327.078
327.569
327.904
328.272
328.529
328.585
328.64
328.652
328.487
328.326
328.065
327.674
327.166
326.674
326.091
325.432
324.902
319.848
320.29
320.678
321.096
321.544
321.776
322.038
322.184
322.295
322.372
322.286
322.154
322.07
321.817
321.559
321.175
320.749
320.342
319.865
319.408
314.161
314.429
314.746
315.027
315.331
315.537
315.687
315.87
315.966
315.967
316.002
315.845
315.716
315.583
315.39
315.147
314.789
314.532
314.157
313.918
308.498
308.734
308.88
309.076
309.232
309.305
309.447
309.539
309.516
309.583
309.583
309.578
309.511
309.316
309.21
309.103
308.925
308.721
308.515
308.384
302.851
302.898
303.014
303.062
303.095
303.103
303.199
303.167
303.16
303.287
303.182
303.194
303.182
303.205
303.143
303.037
302.979
302.966
302.856
302.764
343.09
344.024
345.029
345.979
346.762
347.355
347.995
348.262
348.564
348.688
348.54
348.34
347.944
347.494
346.841
346.04
345.219
344.212
343.073
342.195
337.428
338.13
339.028
339.759
340.548
341.019
341.492
341.831
342.007
342.146
342.023
341.921
341.618
341.162
340.607
339.844
339.136
338.317
337.366
336.606
331.685
332.328
332.944
333.703
334.168
334.663
335.153
335.368
335.548
335.524
335.593
335.36
335.183
334.847
334.312
333.749
333.171
332.518
331.58
330.958
325.916
326.42
327.026
327.522
327.986
328.365
328.753
328.913
329.055
329.211
329.138
328.916
328.807
328.475
328.108
327.667
327.146
326.518
325.921
325.394
320.15
320.542
321.017
321.4
321.811
322.065
322.316
322.555
322.649
322.644
322.623
322.514
322.373
322.216
321.876
321.521
321.064
320.663
320.136
319.697
314.422
314.637
315.054
315.33
315.616
315.774
315.923
316.019
316.204
316.206
316.15
316.096
315.961
315.833
315.62
315.418
315.035
314.699
314.415
314.123
308.602
308.821
308.956
309.189
309.33
309.521
309.589
309.687
309.732
309.786
309.702
309.656
309.631
309.51
309.422
309.231
309.009
308.852
308.663
308.486
302.889
302.97
302.996
303.092
303.187
303.239
303.239
303.126
303.182
303.25
303.268
303.271
303.247
303.201
303.102
303.09
302.988
303.042
302.889
302.898
344.149
345.14
346.106
347.042
347.877
348.515
349.093
349.446
349.716
349.757
349.706
349.45
349.087
348.589
347.952
347.141
346.31
345.233
344.106
343.179
338.269
339.026
339.92
340.717
341.391
342.094
342.518
342.802
343.068
343.107
343.04
342.902
342.573
342.15
341.559
340.877
340.027
339.192
338.268
337.432
332.339
332.976
333.75
334.45
334.971
335.523
335.921
336.277
336.399
336.399
336.401
336.302
335.999
335.629
335.089
334.581
333.876
333.169
332.447
331.685
326.451
326.948
327.562
328.133
328.654
329.056
329.418
329.592
329.765
329.745
329.717
329.693
329.397
329.122
328.689
328.26
327.767
327.136
326.423
325.868
320.615
321.018
321.441
321.899
322.296
322.584
322.822
323.021
323.157
323.143
323.185
323.099
322.903
322.615
322.38
321.966
321.506
321.002
320.633
320.224
314.76
314.969
315.36
315.644
315.938
316.158
316.36
316.413
316.576
316.535
316.491
316.4
316.382
316.162
315.94
315.701
315.425
315.031
314.644
314.393
308.879
309.048
309.172
309.432
309.539
309.679
309.73
309.83
309.977
309.912
309.936
309.874
309.796
309.686
309.574
309.481
309.258
309.056
308.859
308.621
302.972
303.028
303.05
303.127
303.164
303.25
303.269
303.282
303.286
303.314
303.303
303.291
303.275
303.265
303.239
303.178
303.097
303.019
302.981
302.986
345.271
346.181
347.235
348.208
348.993
349.689
350.24
350.62
350.861
351.007
350.875
350.696
350.285
349.804
349.114
348.342
347.38
346.386
345.258
344.232
339.17
339.935
340.902
341.726
342.427
343.156
343.482
343.856
344.119
344.178
344.011
344.003
343.554
343.142
342.578
341.897
341.061
340.197
339.101
338.333
333.12
333.895
334.566
335.344
335.851
336.411
336.84
337.101
337.274
337.309
337.324
337.156
336.759
336.567
335.972
335.355
334.67
333.998
333.116
332.446
327.123
327.631
328.247
328.856
329.362
329.717
330.103
330.345
330.51
330.519
330.452
330.412
330.089
329.833
329.426
328.954
328.437
327.743
327.074
326.491
321.102
321.51
321.91
322.423
322.758
323.137
323.369
323.595
323.643
323.775
323.71
323.642
323.384
323.168
322.891
322.457
322.047
321.646
321.016
320.638
315.045
315.339
315.679
316.106
316.298
316.554
316.728
316.846
316.886
316.986
316.89
316.889
316.769
316.56
316.299
316.044
315.779
315.386
315.012
314.746
309.001
309.228
309.451
309.633
309.721
309.948
310.007
310.118
310.176
310.163
310.25
310.106
310.053
309.964
309.804
309.705
309.483
309.319
308.993
308.828
303.065
303.088
303.158
303.196
303.299
303.335
303.36
303.29
303.384
303.367
303.367
303.386
303.347
303.406
303.213
303.248
303.162
303.096
303.005
303.035
346.273
347.22
348.335
349.399
350.251
350.922
351.485
351.865
352.111
352.236
352.199
351.959
351.604
351.015
350.319
349.567
348.628
347.438
346.335
345.197
340.155
340.959
341.797
342.735
343.45
344.057
344.572
344.877
345.131
345.132
345.159
344.899
344.586
344.232
343.584
342.969
342.039
341.143
340.095
339.279
333.943
334.638
335.383
336.055
336.67
337.208
337.705
337.981
338.175
338.259
338.266
338.05
337.767
337.297
336.819
336.29
335.602
334.796
333.955
333.272
327.751
328.346
328.974
329.507
330.022
330.488
330.806
331.066
331.224
331.171
331.205
331.107
330.851
330.545
330.096
329.669
329.043
328.452
327.745
327.175
321.654
322
322.535
322.977
323.322
323.707
323.926
324.141
324.239
324.312
324.29
324.228
324.064
323.741
323.426
323.022
322.581
322.091
321.594
321.178
315.429
315.664
316.085
316.451
316.691
316.935
317.135
317.252
317.284
317.363
317.325
317.27
317.159
317.031
316.772
316.447
316.119
315.753
315.434
315.134
309.292
309.474
309.656
309.848
310.073
310.169
310.275
310.284
310.359
310.343
310.363
310.385
310.258
310.183
310.023
309.886
309.776
309.468
309.257
309.106
303.104
303.156
303.25
303.317
303.372
303.414
303.434
303.475
303.492
303.501
303.501
303.474
303.383
303.393
303.331
303.252
303.246
303.112
303.118
303.079
347.354
348.361
349.496
350.451
351.354
352.087
352.718
353.113
353.362
353.344
353.353
353.123
352.73
352.174
351.453
350.595
349.677
348.54
347.34
346.248
340.945
341.857
342.804
343.662
344.514
345.087
345.665
345.979
346.152
346.219
346.077
346.025
345.704
345.228
344.546
343.866
343.017
341.969
341.069
340.132
334.714
335.455
336.166
336.908
337.57
338.11
338.528
338.767
339.042
339.04
339.017
338.768
338.632
338.189
337.69
337.099
336.381
335.53
334.727
333.923
328.439
328.924
329.603
330.116
330.747
331.151
331.458
331.756
331.918
331.916
331.893
331.692
331.554
331.284
330.781
330.323
329.715
329.075
328.321
327.785
322.035
322.447
323.022
323.471
323.923
324.2
324.517
324.689
324.805
324.869
324.777
324.664
324.563
324.32
323.959
323.573
323.143
322.578
322.02
321.616
315.778
316.053
316.457
316.719
317.026
317.314
317.536
317.642
317.714
317.772
317.665
317.66
317.565
317.418
317.103
316.806
316.509
316.135
315.791
315.477
309.462
309.665
309.812
310.068
310.208
310.407
310.485
310.594
310.666
310.647
310.653
310.65
310.57
310.44
310.223
310.069
309.937
309.715
309.468
309.241
303.194
303.221
303.266
303.332
303.445
303.516
303.556
303.522
303.535
303.518
303.502
303.581
303.541
303.551
303.459
303.344
303.346
303.186
303.191
303.104
348.411
349.397
350.514
351.55
352.456
353.15
353.848
354.251
354.438
354.533
354.474
354.251
353.882
353.241
352.627
351.744
350.687
349.543
348.383
347.3
341.895
342.759
343.742
344.578
345.379
346.026
346.507
346.923
347.129
347.215
347.179
346.938
346.627
346.196
345.496
344.727
343.932
342.894
341.912
341.012
335.485
336.163
337.051
337.661
338.356
338.958
339.273
339.643
339.84
339.865
339.856
339.722
339.394
338.966
338.499
337.843
337.157
336.267
335.313
334.677
328.992
329.512
330.182
330.834
331.392
331.785
332.124
332.423
332.543
332.671
332.559
332.471
332.177
331.9
331.457
330.979
330.385
329.678
328.942
328.361
322.625
323.029
323.504
323.928
324.442
324.727
324.925
325.236
325.327
325.39
325.348
325.191
325.048
324.805
324.493
324.136
323.603
323.091
322.557
322.062
316.111
316.474
316.853
317.128
317.415
317.616
317.819
317.981
318.121
318.102
318.152
318.043
317.813
317.707
317.493
317.215
316.817
316.397
316.04
315.828
309.728
309.865
310.043
310.255
310.527
310.607
310.672
310.767
310.775
310.912
310.888
310.81
310.77
310.643
310.45
310.288
310.138
309.85
309.711
309.494
303.271
303.302
303.335
303.364
303.488
303.622
303.639
303.557
303.647
303.605
303.635
303.688
303.571
303.53
303.498
303.526
303.364
303.378
303.257
303.167
349.31
350.306
351.509
352.554
353.469
354.163
354.795
355.275
355.476
355.611
355.463
355.343
354.91
354.247
353.681
352.68
351.66
350.495
349.306
348.266
342.71
343.607
344.576
345.477
346.37
346.93
347.452
347.832
348.035
348.163
348.08
347.872
347.516
347.015
346.35
345.632
344.743
343.774
342.718
341.796
336.127
336.85
337.705
338.525
339.094
339.725
340.153
340.446
340.615
340.646
340.566
340.483
340.174
339.681
339.232
338.569
337.861
336.975
336.047
335.347
329.556
330.108
330.787
331.399
332.007
332.453
332.834
333.09
333.23
333.306
333.22
333.151
332.888
332.529
332.101
331.509
330.931
330.245
329.52
328.84
322.967
323.313
323.996
324.398
324.91
325.236
325.476
325.68
325.852
325.833
325.882
325.681
325.537
325.329
324.98
324.548
324.053
323.577
322.908
322.522
316.391
316.739
317.164
317.422
317.775
318.053
318.238
318.352
318.451
318.525
318.45
318.381
318.294
317.964
317.755
317.499
317.237
316.816
316.407
316.032
309.823
310.05
310.275
310.486
310.666
310.82
310.97
311.05
311.135
311.116
311.105
311.016
310.896
310.832
310.687
310.574
310.315
310.046
309.891
309.715
303.321
303.391
303.5
303.457
303.576
303.596
303.627
303.644
303.719
303.773
303.715
303.725
303.639
303.61
303.631
303.512
303.516
303.376
303.299
303.257
350.192
351.226
352.367
353.463
354.488
355.26
355.832
356.185
356.488
356.571
356.546
356.252
355.883
355.265
354.589
353.701
352.553
351.422
350.138
349.041
343.537
344.334
345.337
346.27
347.076
347.75
348.274
348.679
348.903
349.014
348.912
348.727
348.345
347.883
347.188
346.386
345.58
344.511
343.539
342.465
336.692
337.48
338.378
339.12
339.804
340.348
340.794
341.14
341.372
341.383
341.327
341.16
340.87
340.435
339.916
339.299
338.499
337.632
336.699
335.938
330.04
330.612
331.382
331.939
332.53
333.046
333.405
333.636
333.74
333.883
333.848
333.673
333.377
333.044
332.672
332.101
331.429
330.765
330.052
329.47
323.428
323.843
324.365
324.794
325.336
325.649
325.967
326.177
326.21
326.305
326.311
326.13
325.956
325.726
325.347
324.928
324.509
323.945
323.313
322.823
316.677
317.073
317.399
317.747
318.088
318.325
318.616
318.672
318.723
318.843
318.798
318.714
318.559
318.411
318.159
317.888
317.453
317.061
316.676
316.377
310.035
310.186
310.394
310.65
310.861
311.055
311.15
311.269
311.298
311.282
311.299
311.246
311.118
311.051
310.94
310.74
310.494
310.28
310.019
309.842
303.356
303.458
303.499
303.573
303.698
303.67
303.787
303.733
303.752
303.851
303.818
303.758
303.74
303.672
303.663
303.566
303.527
303.386
303.372
303.235
351.012
352.013
353.245
354.356
355.233
356.112
356.64
357.117
357.31
357.454
357.351
357.182
356.804
356.12
355.337
354.465
353.478
352.194
350.899
349.785
344.144
345.093
346.076
347.114
347.873
348.495
348.988
349.439
349.743
349.79
349.704
349.426
349.151
348.6
348.016
347.24
346.268
345.213
344.184
343.217
337.286
338.081
338.984
339.733
340.439
341.008
341.448
341.798
341.991
342.098
341.932
341.855
341.506
341.128
340.541
339.856
339.131
338.255
337.322
336.487
330.577
331.151
331.896
332.523
333.071
333.51
333.921
334.152
334.344
334.383
334.322
334.226
333.957
333.592
333.136
332.616
331.987
331.304
330.522
329.885
323.854
324.284
324.745
325.257
325.765
325.995
326.401
326.528
326.73
326.763
326.72
326.603
326.42
326.131
325.812
325.37
324.888
324.327
323.694
323.193
316.994
317.256
317.663
317.971
318.36
318.704
318.882
318.954
319.028
319.124
318.99
319.049
318.851
318.671
318.396
318.088
317.803
317.384
316.976
316.608
310.245
310.429
310.588
310.777
310.967
311.215
311.234
311.425
311.405
311.421
311.442
311.362
311.333
311.231
311.005
310.875
310.654
310.43
310.15
309.975
303.385
303.513
303.596
303.644
303.69
303.751
303.793
303.817
303.852
303.883
303.82
303.78
303.818
303.753
303.726
303.63
303.48
303.453
303.328
303.332
351.697
352.838
353.988
355.074
356.032
356.822
357.446
357.99
358.169
358.262
358.255
358.01
357.583
356.92
356.235
355.299
354.181
352.951
351.746
350.532
344.849
345.637
346.715
347.734
348.529
349.191
349.748
350.11
350.428
350.422
350.397
350.203
349.873
349.292
348.714
347.847
346.915
345.844
344.756
343.818
337.927
338.586
339.516
340.328
340.997
341.588
342.027
342.392
342.531
342.631
342.524
342.438
342.138
341.701
341.071
340.396
339.663
338.775
337.858
337.065
330.989
331.617
332.332
333.005
333.566
334.119
334.327
334.722
334.836
334.819
334.825
334.684
334.471
334.087
333.678
333.112
332.511
331.66
330.957
330.351
324.091
324.591
325.073
325.621
326.062
326.361
326.677
326.894
327.071
327.172
326.978
326.977
326.767
326.477
326.108
325.713
325.207
324.663
324.114
323.595
317.209
317.538
317.962
318.251
318.612
318.853
319.097
319.218
319.314
319.375
319.343
319.253
319.098
318.869
318.669
318.42
318.018
317.613
317.188
316.935
310.322
310.507
310.766
311.024
311.207
311.323
311.381
311.523
311.604
311.686
311.639
311.624
311.427
311.36
311.279
311.051
310.769
310.542
310.325
310.129
303.452
303.519
303.567
303.652
303.738
303.729
303.778
303.866
303.812
303.854
303.863
303.831
303.846
303.825
303.812
303.731
303.637
303.543
303.449
303.345
352.301
353.381
354.691
355.782
356.674
357.518
358.194
358.634
358.901
359.048
358.984
358.7
358.163
357.678
356.898
355.93
354.759
353.638
352.328
351.14
345.321
346.21
347.313
348.221
349.113
349.808
350.355
350.799
350.97
351.136
351.038
350.871
350.413
349.981
349.28
348.461
347.491
346.476
345.253
344.324
338.326
339.073
339.959
340.758
341.535
342.098
342.582
342.954
343.119
343.216
343.154
343.002
342.712
342.207
341.611
340.957
340.211
339.26
338.313
337.527
331.351
331.916
332.67
333.372
334.006
334.463
334.826
335.065
335.263
335.355
335.332
335.171
334.81
334.565
334.021
333.462
332.854
332.13
331.295
330.665
324.378
324.839
325.451
325.962
326.372
326.725
327.044
327.282
327.377
327.453
327.418
327.267
327.084
326.765
326.513
326.007
325.581
324.924
324.387
323.868
317.37
317.696
318.16
318.484
318.853
319.104
319.336
319.538
319.57
319.61
319.652
319.529
319.343
319.124
318.891
318.584
318.251
317.871
317.479
317.048
310.482
310.652
310.881
311.065
311.317
311.487
311.637
311.728
311.733
311.761
311.779
311.753
311.621
311.494
311.392
311.167
310.943
310.694
310.432
310.225
303.559
303.517
303.651
303.744
303.803
303.796
303.873
303.896
303.909
303.926
303.956
303.975
303.932
303.789
303.818
303.748
303.653
303.511
303.467
303.432
352.884
354.028
355.262
356.281
357.378
358.184
358.83
359.254
359.531
359.7
359.576
359.374
358.932
358.298
357.469
356.595
355.367
354.2
352.911
351.631
345.774
346.72
347.761
348.75
349.699
350.332
350.871
351.252
351.57
351.596
351.665
351.293
350.964
350.486
349.829
348.972
348.001
346.818
345.789
344.701
338.74
339.502
340.428
341.257
341.923
342.557
343.064
343.363
343.57
343.727
343.598
343.402
343.114
342.618
342.038
341.445
340.577
339.735
338.753
337.9
331.719
332.278
333.075
333.668
334.303
334.795
335.18
335.403
335.646
335.697
335.679
335.544
335.232
334.863
334.399
333.82
333.212
332.482
331.63
331.016
324.72
325.083
325.699
326.177
326.629
327.115
327.418
327.541
327.717
327.719
327.757
327.614
327.458
327.115
326.802
326.318
325.832
325.303
324.64
324.13
317.633
318.006
318.313
318.757
319.039
319.338
319.489
319.708
319.72
319.875
319.837
319.729
319.581
319.382
319.069
318.868
318.495
318.008
317.675
317.223
310.598
310.742
310.979
311.2
311.451
311.618
311.763
311.832
311.898
311.928
311.877
311.884
311.701
311.677
311.48
311.289
311.044
310.821
310.535
310.289
303.603
303.596
303.643
303.763
303.806
303.929
303.921
303.938
303.971
303.983
303.987
303.963
303.938
303.862
303.877
303.755
303.678
303.619
303.551
303.46
353.302
354.452
355.725
356.838
357.824
358.732
359.359
359.82
360.054
360.228
360.148
359.893
359.411
358.782
357.99
356.989
355.929
354.625
353.303
352.17
346.18
347.186
348.225
349.211
350.083
350.835
351.363
351.737
351.975
352.077
351.979
351.838
351.427
350.965
350.197
349.393
348.479
347.349
346.11
345.238
339.004
339.891
340.796
341.561
342.351
342.926
343.465
343.802
344.029
344.053
343.979
343.877
343.398
343.041
342.493
341.645
340.948
339.944
339.059
338.27
331.958
332.617
333.239
334.052
334.533
335.111
335.499
335.745
335.985
336.014
335.988
335.851
335.543
335.176
334.715
334.102
333.541
332.71
331.948
331.309
324.894
325.342
325.918
326.371
326.922
327.301
327.564
327.868
327.988
328.015
327.948
327.884
327.63
327.359
327.037
326.545
326.083
325.479
324.831
324.272
317.776
318.211
318.552
318.933
319.222
319.503
319.714
319.878
319.994
319.969
320.004
319.878
319.733
319.568
319.325
318.977
318.576
318.212
317.768
317.384
310.642
310.815
311.11
311.416
311.525
311.744
311.841
311.938
311.969
311.991
312.004
311.969
311.89
311.728
311.476
311.393
311.177
310.943
310.602
310.435
303.628
303.635
303.653
303.781
303.849
303.952
303.951
303.979
304.022
304.072
304.046
303.981
304.028
304.025
303.898
303.817
303.756
303.652
303.508
303.544
353.682
354.872
356.086
357.314
358.286
359.13
359.779
360.269
360.518
360.603
360.619
360.264
359.836
359.208
358.367
357.447
356.325
355.145
353.697
352.517
346.458
347.452
348.539
349.51
350.383
351.182
351.744
352.105
352.392
352.458
352.375
352.137
351.775
351.315
350.511
349.728
348.724
347.616
346.502
345.536
339.333
340.064
341.055
341.873
342.622
343.287
343.756
344.086
344.269
344.386
344.287
344.085
343.829
343.324
342.811
342.096
341.234
340.26
339.345
338.501
332.206
332.884
333.639
334.24
334.892
335.317
335.74
336.025
336.214
336.31
336.204
336.022
335.769
335.463
334.969
334.392
333.732
332.982
332.153
331.49
325.021
325.534
326.129
326.611
327.135
327.486
327.777
327.988
328.237
328.19
328.201
328.067
327.813
327.547
327.164
326.797
326.247
325.603
325.057
324.521
317.866
318.181
318.647
319.032
319.349
319.613
319.817
319.987
320.172
320.121
320.113
319.999
319.894
319.65
319.334
319.107
318.749
318.376
317.82
317.534
310.776
310.995
311.256
311.431
311.62
311.736
311.961
311.976
312.095
312.14
312.055
311.994
311.93
311.819
311.652
311.396
311.289
310.912
310.702
310.523
303.653
303.663
303.774
303.816
303.826
303.924
304.024
303.995
304.089
304.077
303.987
304.075
303.979
303.983
303.971
303.861
303.754
303.608
303.576
303.505
353.996
355.138
356.385
357.588
358.587
359.426
360.136
360.455
360.836
360.975
360.806
360.64
360.165
359.486
358.758
357.771
356.618
355.366
353.969
352.73
346.783
347.743
348.855
349.862
350.73
351.432
351.972
352.467
352.658
352.756
352.666
352.549
352.02
351.559
350.822
350
348.972
347.882
346.75
345.739
339.602
340.347
341.322
342.157
342.89
343.414
343.927
344.348
344.521
344.629
344.588
344.377
344.06
343.605
342.978
342.287
341.449
340.479
339.54
338.642
332.326
333.062
333.753
334.472
335.046
335.512
335.942
336.232
336.387
336.452
336.51
336.323
336.01
335.635
335.147
334.556
333.92
333.126
332.285
331.636
325.124
325.629
326.267
326.817
327.267
327.569
327.934
328.198
328.257
328.353
328.307
328.21
328.03
327.661
327.367
326.898
326.387
325.735
325.163
324.653
317.989
318.321
318.755
319.122
319.504
319.724
319.967
320.167
320.29
320.332
320.246
320.205
319.96
319.844
319.52
319.202
318.843
318.44
317.893
317.549
310.743
310.987
311.229
311.47
311.743
311.877
312.008
312.028
312.105
312.169
312.122
312.116
311.974
311.889
311.708
311.535
311.296
311.078
310.762
310.55
303.675
303.733
303.745
303.87
303.959
303.922
304.016
304.008
304.018
304.08
304.062
304.058
304.044
303.943
303.944
303.82
303.781
303.674
303.635
303.538
354.204
355.264
356.592
357.805
358.727
359.651
360.32
360.85
361.114
361.221
361.1
360.826
360.444
359.794
358.956
357.97
356.776
355.559
354.188
352.99
346.905
347.939
348.979
350.003
350.931
351.653
352.27
352.611
352.847
353.016
352.931
352.676
352.31
351.706
351.048
350.255
349.135
348.097
346.941
345.93
339.682
340.509
341.44
342.298
343.029
343.691
344.146
344.463
344.745
344.766
344.756
344.457
344.195
343.725
343.102
342.427
341.582
340.678
339.717
338.891
332.457
333.21
333.866
334.548
335.183
335.694
335.999
336.335
336.567
336.637
336.548
336.417
336.184
335.777
335.234
334.701
334.015
333.228
332.485
331.806
325.251
325.759
326.337
326.855
327.399
327.703
328.083
328.274
328.337
328.507
328.47
328.332
328.06
327.843
327.419
326.967
326.47
325.868
325.287
324.693
317.973
318.394
318.75
319.171
319.533
319.746
320.018
320.242
320.291
320.322
320.309
320.23
320.07
319.901
319.652
319.303
318.922
318.475
317.999
317.684
310.884
311.095
311.326
311.551
311.79
311.922
312.037
312.158
312.181
312.197
312.16
312.139
312.019
311.97
311.706
311.6
311.344
311.129
310.818
310.604
303.622
303.645
303.739
303.918
303.966
303.968
304.04
304.097
304.092
304.129
304.01
304.12
304.005
303.93
304.008
303.858
303.777
303.743
303.712
303.56
354.245
355.413
356.749
357.893
358.894
359.776
360.389
360.97
361.24
361.323
361.253
360.931
360.502
359.917
359.065
358.109
356.982
355.634
354.295
353.074
347.046
348.051
349.152
350.144
350.999
351.71
352.305
352.791
352.978
353.033
353.099
352.763
352.37
351.872
351.184
350.307
349.31
348.203
347.015
345.992
339.788
340.577
341.496
342.401
343.133
343.732
344.246
344.606
344.775
344.835
344.858
344.647
344.296
343.859
343.281
342.522
341.7
340.741
339.81
338.937
332.592
333.214
333.915
334.633
335.253
335.687
336.248
336.498
336.61
336.599
336.617
336.487
336.272
335.944
335.36
334.779
334.085
333.325
332.538
331.814
325.325
325.826
326.365
326.952
327.401
327.829
328.173
328.379
328.485
328.554
328.472
328.374
328.223
327.86
327.534
327.081
326.497
325.933
325.322
324.842
318.087
318.426
318.863
319.205
319.594
319.85
320.115
320.312
320.412
320.431
320.339
320.271
320.1
319.891
319.625
319.386
318.97
318.468
318.008
317.725
310.864
311.023
311.354
311.499
311.764
311.86
312.015
312.167
312.181
312.281
312.264
312.218
312.095
311.964
311.798
311.586
311.387
311.15
310.881
310.666
303.661
303.785
303.798
303.816
303.931
303.944
303.989
304.09
304.131
304.145
304.179
304.056
304.087
303.968
303.946
303.828
303.802
303.736
303.609
303.565
354.287
355.458
356.731
357.975
358.954
359.844
360.448
360.95
361.23
361.357
361.224
360.96
360.599
359.922
359.125
358.114
357.008
355.7
354.322
353.044
347.058
348.008
349.089
350.154
351.062
351.739
352.303
352.764
353.037
353.115
353.06
352.834
352.485
351.847
351.166
350.36
349.29
348.219
347.115
346.012
339.808
340.627
341.57
342.384
343.117
343.75
344.237
344.621
344.802
344.912
344.804
344.64
344.256
343.937
343.329
342.549
341.762
340.746
339.803
338.954
332.552
333.08
333.878
334.665
335.254
335.783
336.168
336.553
336.571
336.753
336.658
336.492
336.238
335.837
335.397
334.79
334.094
333.296
332.573
331.904
325.367
325.879
326.432
326.954
327.483
327.839
328.118
328.4
328.511
328.585
328.561
328.363
328.215
327.894
327.503
327.078
326.491
325.907
325.338
324.762
318.131
318.455
318.943
319.318
319.566
319.895
320.116
320.264
320.395
320.399
320.355
320.276
320.141
319.921
319.662
319.338
318.901
318.483
318.07
317.806
310.825
311.143
311.315
311.521
311.792
311.881
312.055
312.192
312.167
312.32
312.273
312.162
312.112
312.016
311.809
311.714
311.362
311.091
310.883
310.541
303.624
303.7
303.807
303.936
303.918
303.937
304.021
304.09
304.113
304.09
304.107
304.091
303.991
304
303.944
303.879
303.868
303.678
303.598
303.598
354.257
355.492
356.716
357.938
358.915
359.677
360.49
360.913
361.183
361.342
361.313
360.979
360.539
359.938
359.109
358.11
356.947
355.68
354.354
353.001
347.062
347.954
349.155
350.112
351.018
351.757
352.28
352.693
353.063
353.106
353.052
352.783
352.454
351.855
351.124
350.3
349.305
348.262
347.008
345.984
339.745
340.607
341.458
342.388
343.077
343.746
344.219
344.59
344.833
344.895
344.809
344.597
344.315
343.853
343.271
342.541
341.639
340.738
339.786
338.949
332.626
333.174
334.04
334.706
335.197
335.839
336.159
336.462
336.685
336.737
336.684
336.586
336.247
335.91
335.401
334.801
334.076
333.359
332.517
331.867
325.358
325.83
326.461
326.944
327.433
327.738
328.125
328.322
328.563
328.56
328.506
328.374
328.198
327.914
327.528
327.088
326.512
325.913
325.29
324.733
318.095
318.419
318.887
319.289
319.647
319.898
320.061
320.218
320.395
320.394
320.389
320.34
320.086
319.94
319.597
319.367
318.936
318.492
318.089
317.693
310.937
311.067
311.321
311.581
311.754
311.957
312.057
312.2
312.162
312.262
312.242
312.205
312.133
312.014
311.765
311.568
311.358
311.107
310.851
310.619
303.668
303.687
303.786
303.841
303.887
304.104
304.041
304.072
304.113
304.125
304.068
304.1
304.015
304.047
303.958
303.885
303.857
303.729
303.659
303.524
)
;

boundaryField
{
    hotSide
    {
        type            fixedGradient;
        gradient        nonuniform List<scalar> 
400
(
321.511
322.87
325.591
329.677
335.133
341.965
350.181
359.788
370.794
383.208
397.037
412.289
428.971
447.088
466.647
487.651
510.105
534.011
559.372
586.191
323.738
325.08
327.767
331.802
337.194
343.949
352.078
361.591
372.498
384.81
398.537
413.687
430.268
448.289
467.755
488.672
511.043
534.872
560.161
586.913
326.149
327.47
330.116
334.091
339.406
346.071
354.099
363.503
374.296
386.491
400.101
415.136
431.606
449.52
468.885
489.706
511.988
535.735
560.948
587.63
328.704
330
332.597
336.503
341.73
348.292
356.205
365.485
376.15
388.215
401.695
416.604
432.954
450.753
470.009
490.73
512.919
536.579
561.714
588.325
331.33
332.599
335.142
338.97
344.099
350.546
358.332
367.477
378.003
389.928
403.271
418.047
434.27
451.949
471.095
491.712
513.807
537.382
562.439
588.978
333.918
335.158
337.643
341.389
346.414
352.74
360.392
369.397
379.779
391.562
404.765
419.407
435.503
453.065
472.101
492.618
514.622
538.114
563.096
589.569
336.321
337.531
339.959
343.622
348.544
354.751
362.274
371.142
381.385
393.031
406.101
420.618
436.595
454.047
472.983
493.409
515.33
538.747
563.663
590.076
338.36
339.543
341.92
345.509
350.339
356.44
363.847
372.595
382.718
394.244
407.2
421.608
437.485
454.844
473.695
494.045
515.897
539.253
564.114
590.478
339.852
341.015
343.352
346.885
351.645
357.665
364.985
373.643
383.675
395.113
407.984
422.312
438.116
455.407
474.197
494.491
516.294
539.606
564.428
590.758
340.643
341.795
344.11
347.613
352.334
358.311
365.584
374.193
384.176
395.567
408.393
422.679
438.443
455.699
474.456
494.722
516.498
539.788
564.589
590.901
340.643
341.795
344.11
347.613
352.334
358.311
365.584
374.193
384.176
395.567
408.393
422.679
438.443
455.699
474.456
494.722
516.498
539.788
564.589
590.901
339.852
341.015
343.352
346.885
351.645
357.665
364.985
373.643
383.675
395.113
407.984
422.312
438.116
455.407
474.197
494.491
516.294
539.606
564.428
590.758
338.36
339.543
341.92
345.509
350.339
356.44
363.847
372.595
382.718
394.244
407.2
421.608
437.485
454.844
473.695
494.045
515.897
539.253
564.114
590.478
336.321
337.531
339.959
343.622
348.544
354.751
362.274
371.142
381.385
393.031
406.101
420.618
436.595
454.047
472.983
493.409
515.33
538.747
563.663
590.076
333.918
335.158
337.643
341.389
346.414
352.74
360.392
369.397
379.779
391.562
404.765
419.407
435.503
453.065
472.101
492.618
514.622
538.114
563.096
589.569
331.33
332.599
335.142
338.97
344.099
350.546
358.332
367.477
378.003
389.928
403.271
418.047
434.27
451.949
471.095
491.712
513.807
537.382
562.439
588.978
328.704
330
332.597
336.503
341.73
348.292
356.205
365.485
376.15
388.215
401.695
416.604
432.954
450.753
470.009
490.73
512.919
536.579
561.714
588.325
326.149
327.47
330.116
334.091
339.406
346.071
354.099
363.503
374.296
386.491
400.101
415.136
431.606
449.52
468.885
489.706
511.988
535.735
560.948
587.63
323.738
325.08
327.767
331.802
337.194
343.949
352.078
361.591
372.498
384.81
398.537
413.687
430.268
448.289
467.755
488.672
511.043
534.872
560.161
586.913
321.511
322.87
325.591
329.677
335.133
341.965
350.181
359.788
370.794
383.208
397.037
412.289
428.971
447.088
466.647
487.651
510.105
534.011
559.372
586.191
)
;
    }
    coldSide
    {
        type            mixed;
        refValue        uniform 300;
        refGradient     uniform 0;
        valueFraction   uniform 0.991591;
        source          uniform 0;
        value           nonuniform List<scalar> 
400
(
300.024
300.024
300.025
300.026
300.026
300.027
300.028
300.028
300.028
300.028
300.029
300.03
300.03
300.031
300.031
300.031
300.03
300.031
300.03
300.031
300.024
300.025
300.025
300.026
300.027
300.027
300.028
300.029
300.029
300.03
300.03
300.03
300.03
300.031
300.031
300.031
300.031
300.032
300.031
300.031