/*--------------------------------*- C++ -*----------------------------------*\
| =========                 |                                                 |
| \\      /  F ield         | OpenFOAM: The Open Source CFD Toolbox           |
|  \\    /   O peration     | Version:  2212                                  |
|   \\  /    A nd           | Website:  www.openfoam.com                      |
|    \\/     M anipulation  |                                                 |
\*---------------------------------------------------------------------------*/
FoamFile
{
    version     2.0;
    format      ascii;
    arch        "LSB;label=32;scalar=64";
    class       volScalarField;
    location    "./ITHACAoutput/true/8";
    object      error;
}
// * * * * * * * * * * * * * * * * * * * * * * * * * * * * * * * * * * * * * //

dimensions      [0 0 0 1 0 0 0];

internalField   nonuniform List<scalar> 
3200
(
-0.330227
1.63895
3.38822
4.49363
5.01973
5.04011
4.921
4.72855
4.25929
3.90717
3.47677
3.09398
2.61052
2.33667
1.93
1.30469
0.439803
-0.892329
-2.77063
-4.82956
-0.364655
1.26904
2.81256
3.77709
4.16978
4.30213
4.17916
3.96476
3.71439
3.20503
2.92905
2.60088
2.20118
1.93094
1.58331
1.09909
0.323365
-0.759598
-2.4355
-4.13295
-0.350975
1.02006
2.29983
2.99423
3.3717
3.54768
3.42628
3.16803
3.02797
2.65922
2.43987
2.18877
1.86711
1.63062
1.292
0.933929
0.249512
-0.670357
-2.09043
-3.46979
-0.376992
0.756642
1.77482
2.40559
2.81518
2.92416
2.81418
2.63617
2.45393
2.25651
1.92557
1.72624
1.49104
1.3114
1.13867
0.744238
0.174038
-0.595832
-1.62368
-2.86544
-0.290657
0.479223
1.37607
1.85547
2.07653
2.20386
2.0821
2.01408
1.93731
1.69202
1.44568
1.36013
1.27868
1.05037
0.914744
0.608124
0.171034
-0.438765
-1.25547
-2.2477
-0.217952
0.402433
0.958094
1.32916
1.48554
1.55771
1.50793
1.45749
1.32758
1.25511
1.04129
1.03752
0.823661
0.801631
0.58339
0.374248
0.168886
-0.33292
-0.936234
-1.53344
-0.169285
0.263754
0.589401
0.75939
0.877229
0.955735
0.962737
0.907037
0.830173
0.682292
0.547524
0.631875
0.490456
0.352324
0.358559
0.237749
0.00989763
-0.234541
-0.524332
-0.90778
-0.00208571
0.0438699
0.210159
0.25997
0.348691
0.254831
0.293066
0.3046
0.34361
0.222929
0.300118
0.16383
0.111699
0.173788
0.137567
0.0719793
0.0408655
-0.099945
-0.216715
-0.288682
-0.18004
1.69004
3.32497
4.44257
4.86623
4.89732
4.71588
4.38957
4.03502
3.51489
3.04503
2.61683
2.31392
2.08028
1.6394
1.13172
0.294839
-1.09012
-2.85475
-4.75616
-0.344831
1.33929
2.8039
3.66494
4.04871
4.2209
4.00315
3.72833
3.37247
2.92041
2.59265
2.2035
2.0034
1.71966
1.38364
0.931026
0.249183
-0.85953
-2.41379
-4.10309
-0.375542
0.97799
2.16308
3.08528
3.33637
3.38284
3.32964
3.09733
2.85423
2.44777
2.1445
1.87793
1.65737
1.51033
1.13633
0.792182
0.201754
-0.734741
-2.08216
-3.46905
-0.384034
0.742266
1.76102
2.41682
2.71509
2.7686
2.63747
2.53314
2.2921
1.99394
1.75621
1.51185
1.33257
1.2046
0.972693
0.684149
0.147766
-0.595399
-1.69559
-2.80441
-0.262966
0.524102
1.32313
1.83764
2.00451
2.14401
2.11693
1.8644
1.71999
1.48446
1.28262
1.18032
0.978523
0.926415
0.719362
0.495499
0.0554414
-0.437682
-1.39173
-2.21823
-0.278671
0.415905
0.932574
1.2485
1.44522
1.50635
1.52182
1.30285
1.19433
1.11627
0.908042
0.845358
0.845168
0.656877
0.423169
0.353836
0.0737653
-0.315971
-0.949987
-1.54563
-0.112265
0.203831
0.663531
0.793317
0.905528
0.883895
0.859074
0.778688
0.709086
0.614167
0.56652
0.506945
0.474472
0.347984
0.306574
0.236829
-0.0148231
-0.222863
-0.576127
-0.90717
-0.0088444
0.0724517
0.203525
0.188015
0.287732
0.370036
0.245163
0.291321
0.259632
0.270502
0.224798
0.236078
0.189222
0.144658
0.111262
0.0103453
0.063021
-0.0726574
-0.198413
-0.379309
-0.265508
1.57476
3.24393
4.19798
4.65774
4.60121
4.37295
3.97171
3.44372
2.9964
2.5475
2.12237
1.79864
1.57759
1.32842
0.836047
0.106705
-1.14452
-2.93954
-4.92287
-0.393039
1.2536
2.5859
3.53401
3.88229
3.84613
3.64144
3.32157
2.8757
2.5143
2.06092
1.75403
1.48355
1.37245
1.12049
0.716314
0.00475894
-0.920011
-2.52568
-4.24726
-0.377478
0.808592
2.14115
2.81024
3.28015
3.21557
3.0857
2.65541
2.37919
2.05839
1.73441
1.5016
1.27922
1.1078
0.865887
0.557862
-0.0529817
-0.895159
-2.13945
-3.62668
-0.363976
0.74624
1.61304
2.29788
2.63434
2.63736
2.43604
2.26485
1.92134
1.66822
1.35043
1.14514
1.02441
0.89885
0.644983
0.417214
-0.062501
-0.821349
-1.8801
-2.82796
-0.323519
0.505628
1.23205
1.69798
1.95268
1.99994
1.88179
1.68252
1.47242
1.25789
1.07943
0.879106
0.8033
0.657504
0.589708
0.356062
0.0745238
-0.577796
-1.34148
-2.21002
-0.279383
0.308926
0.942693
1.25671
1.36122
1.39382
1.32697
1.1972
1.05284
0.851941
0.77396
0.588631
0.551015
0.473151
0.37698
0.226616
0.0325812
-0.429271
-1.01051
-1.55653
-0.135165
0.182564
0.522253
0.737469
0.828743
0.82964
0.757948
0.68453
0.663348
0.451302
0.457664
0.362778
0.311873
0.222402
0.16479
0.177983
-0.0324529
-0.227946
-0.582279
-0.94554
0.00498355
0.0625148
0.19125
0.213498
0.256033
0.30154
0.214166
0.243255
0.254652
0.204572
0.101763
0.15719
0.0133524
0.11154
0.159797
0.0709131
-0.0201536
-0.0957122
-0.155439
-0.262272
-0.480345
1.37157
3.02555
3.88119
4.34083
4.24992
4.00025
3.43786
2.77049
2.20884
1.73902
1.35286
1.13183
1.00033
0.676631
0.328934
-0.206229
-1.43636
-3.14093
-5.11604
-0.514112
1.03228
2.42337
3.25851
3.5688
3.49065
3.26506
2.80586
2.3982
1.85563
1.39759
1.20254
1.00029
0.835665
0.623225
0.282116
-0.311061
-1.28851
-2.76697
-4.31278
-0.505553
0.803487
1.87514
2.69113
3.00307
2.90346
2.71116
2.3803
1.98919
1.52166
1.17032
0.908008
0.732921
0.710561
0.488989
0.287245
-0.245966
-1.091
-2.30442
-3.57761
-0.463664
0.584881
1.48307
2.10514
2.3833
2.29201
2.15992
1.95346
1.54438
1.2729
0.941713
0.751068
0.66599
0.58694
0.366171
0.199701
-0.248309
-0.933251
-1.94162
-2.94518
-0.315369
0.416942
1.15658
1.5452
1.80571
1.78779
1.6776
1.45131
1.24884
0.951575
0.673911
0.617756
0.527653
0.359587
0.329402
0.21057
-0.113518
-0.672844
-1.58881
-2.3355
-0.263805
0.277062
0.752586
1.04169
1.28173
1.26772
1.13551
0.974286
0.890258
0.714698
0.470926
0.449001
0.31601
0.240055
0.238128
0.0816208
-0.122862
-0.494761
-1.08644
-1.6506
-0.185355
0.172211
0.423442
0.706742
0.735136
0.729867
0.664466
0.61559
0.459489
0.353664
0.339767
0.167755
0.210241
0.148415
0.114663
0.022947
-0.027794
-0.323188
-0.677533
-0.958032
-0.119283
0.0255298
0.1772
0.245717
0.261385
0.308841
0.186245
0.241722
0.132323
0.128329
0.163743
0.0698288
0.107848
0.0141676
0.0890368
0.00362925
0.000959065
-0.0801119
-0.240828
-0.312578
-0.73774
0.974623
2.60926
3.48784
3.86748
3.78032
3.40549
2.86388
2.20984
1.53452
0.992996
0.696377
0.424203
0.341
0.23038
-0.129744
-0.680826
-1.84559
-3.49005
-5.35858
-0.687743
0.79378
2.12131
2.88984
3.15147
3.17459
2.90082
2.36428
1.83541
1.39241
0.803024
0.602712
0.366938
0.301753
0.181316
-0.0411973
-0.663581
-1.58563
-3.02323
-4.54601
-0.685839
0.542355
1.69654
2.3112
2.65433
2.59646
2.33098
1.93134
1.49198
1.07298
0.730323
0.44845
0.282265
0.204509
0.0679465
-0.181867
-0.588437
-1.38372
-2.61291
-3.79151
-0.634733
0.333349
1.28236
1.77479
2.07682
2.09044
1.82558
1.49678
1.1906
0.886037
0.421329
0.368215
0.21049
0.199323
0.00953506
-0.0755529
-0.472447
-1.1251
-2.14236
-3.12586
-0.531573
0.219206
0.987303
1.40855
1.58172
1.62677
1.43295
1.17977
0.918407
0.684952
0.331699
0.212553
0.158886
0.122118
0.0767975
-0.101779
-0.389787
-0.88108
-1.69276
-2.40989
-0.410164
0.193001
0.667459
0.965429
1.207
1.0843
0.945869
0.841169
0.648361
0.46989
0.316556
0.190293
0.131513
0.0859419
0.0548865
-0.0140406
-0.250971
-0.636021
-1.17424
-1.6781
-0.283721
0.0883607
0.277579
0.530897
0.598642
0.682903
0.593723
0.468572
0.416438
0.241379
0.181973
0.142587
0.0582904
0.0616711
0.043636
-0.0862108
-0.117233
-0.426342
-0.678421
-1.0371
-0.102571
0.0586554
0.12683
0.133775
0.208669
0.247952
0.177868
0.0992242
0.109405
0.104682
0.102133
0.0608207
-0.0401166
0.0488398
-0.0208484
0.0213488
-0.0346629
-0.180315
-0.296289
-0.404389
-1.04078
0.695831
2.22944
3.03084
3.47939
3.22176
2.86112
2.30014
1.5465
0.807262
0.274785
-0.0715859
-0.212035
-0.265941
-0.324356
-0.576274
-1.18033
-2.18123
-3.82994
-5.65631
-0.971896
0.491365
1.78671
2.46118
2.82576
2.78279
2.39487
1.86317
1.23309
0.721971
0.196391
-0.0864227
-0.23351
-0.233135
-0.345929
-0.594202
-1.10943
-1.96775
-3.22507
-4.86949
-0.924084
0.300709
1.32293
2.04717
2.20772
2.14352
1.91918
1.54754
1.0049
0.526094
0.149379
-0.212881
-0.17595
-0.312419
-0.290209
-0.519889
-0.904893
-1.68765
-2.84667
-4.0756
-0.81786
0.0881436
1.04314
1.59187
1.86796
1.67447
1.57953
1.20825
0.829343
0.456136
0.0807906
-0.0750758
-0.200093
-0.198017
-0.236816
-0.418068
-0.721723
-1.38101
-2.29892
-3.34335
-0.698576
0.182129
0.726825
1.19252
1.34691
1.351
1.12334
0.87357
0.66869
0.387017
0.100699
-0.0712804
-0.183558
-0.205786
-0.196472
-0.332771
-0.600385
-1.0644
-1.84806
-2.50206
-0.458696
0.042377
0.499159
0.766496
0.917393
0.93835
0.86618
0.577656
0.410916
0.205474
-0.0399775
-0.115269
-0.0669606
-0.123548
-0.158316
-0.18737
-0.405992
-0.741297
-1.28715
-1.83949
-0.295584
0.0250743
0.387414
0.44215
0.531748
0.603927
0.537061
0.36112
0.216686
0.253465
-0.0269915
-0.024552
-0.0162307
-0.0718432
-0.083562
-0.18602
-0.265386
-0.426485
-0.798606
-1.1047
-0.107936
0.0010411
0.0439501
0.209364
0.180319
0.19278
0.146278
0.204847
0.0651359
0.137348
0.0404448
-0.0628176
-0.0671661
-0.0437283
0.0284304
-0.0597038
-0.12596
-0.197606
-0.180126
-0.341816
-1.26516
0.221042
1.70646
2.55818
2.9337
2.81605
2.34373
1.67723
0.956073
0.2523
-0.370863
-0.679365
-0.752381
-0.84894
-0.904902
-1.10805
-1.63369
-2.75791
-4.17235
-5.88179
-1.25819
0.132246
1.28241
2.09131
2.35613
2.31864
1.93501
1.36432
0.675892
0.181597
-0.390989
-0.657329
-0.751593
-0.778017
-0.744601
-0.963402
-1.45575
-2.27388
-3.70277
-5.08908
-1.17744
-0.0507013
1.03255
1.66363
1.86932
1.84607
1.47918
1.11732
0.487367
0.0795714
-0.314864
-0.612217
-0.731112
-0.625115
-0.688856
-0.9043
-1.21652
-1.99547
-3.06519
-4.26705
-0.96047
-0.115781
0.704543
1.37071
1.5011
1.48182
1.2599
0.857675
0.454283
0.064051
-0.375717
-0.583969
-0.549719
-0.429444
-0.517477
-0.669448
-1.01179
-1.55731
-2.53887
-3.54762
-0.719104
-0.108438
0.539184
0.948393
1.12364
1.1283
0.970684
0.612623
0.263958
-0.000442187
-0.224286
-0.421759
-0.543174
-0.469246
-0.454747
-0.626377
-0.821716
-1.31253
-1.98852
-2.71526
-0.605427
-0.146154
0.351735
0.634074
0.769893
0.707365
0.680882
0.455444
0.288838
0.0274507
-0.221594
-0.232918
-0.240367
-0.424502
-0.289302
-0.380562
-0.628518
-0.879569
-1.44199
-1.90054
-0.364545
-0.0506019
0.155307
0.319698
0.477985
0.499471
0.429383
0.170921
0.123965
0.000716058
-0.103725
-0.124501
-0.126474
-0.158185
-0.13441
-0.289483
-0.444533
-0.524737
-0.845663
-1.18739
-0.141397
-0.0445638
0.0496137
0.0773336
0.0537323
0.151854
0.105404
0.0825428
0.0755154
-0.0309781
-0.0435368
-0.00877193
-0.115182
-0.0568748
-0.111922
-0.0423157
-0.13369
-0.232525
-0.207562
-0.37154
-1.52881
-0.0999251
1.3001
2.14539
2.51038
2.37147
1.81507
1.2205
0.462121
-0.325597
-0.90923
-1.25377
-1.37918
-1.27857
-1.28891
-1.56513
-1.94302
-3.01518
-4.47355
-6.11062
-1.55624
-0.184266
0.969197
1.65025
2.02576
1.94792
1.54195
1.03807
0.248573
-0.381759
-0.832176
-1.16062
-1.31461
-1.1945
-1.13081
-1.39625
-1.83468
-2.69297
-3.86477
-5.3654
-1.32583
-0.207032
0.752792
1.31012
1.60359
1.50122
1.18247
0.71767
0.240673
-0.35408
-0.746486
-0.995426
-1.00862
-0.987225
-1.03797
-1.18711
-1.49858
-2.31533
-3.38297
-4.42816
-1.16731
-0.326035
0.500529
1.05228
1.23513
1.21528
0.954396
0.589852
0.135129
-0.31469
-0.658006
-0.776626
-0.857891
-0.818785
-0.821671
-1.01404
-1.28612
-1.90778
-2.73898
-3.59991
-0.918974
-0.355138
0.338817
0.712684
0.951162
0.860904
0.71862
0.370622
0.0154085
-0.263907
-0.550023
-0.700785
-0.738831
-0.698086
-0.651528
-0.720457
-1.02059
-1.428
-2.13566
-2.8508
-0.738872
-0.258017
0.253246
0.489468
0.667476
0.640172
0.490497
0.242959
0.057029
-0.22018
-0.406596
-0.509502
-0.541582
-0.482867
-0.527548
-0.547064
-0.758619
-1.12329
-1.55692
-2.02868
-0.472412
-0.18717
0.118002
0.275149
0.365692
0.344242
0.250976
0.168278
-0.00474176
-0.0974656
-0.227852
-0.239812
-0.346214
-0.264414
-0.381885
-0.339883
-0.468337
-0.623894
-0.903509
-1.2794
-0.156122
-0.0643633
0.0338873
0.0798238
0.0954247
0.126398
0.104248
0.086291
0.004859
-0.043425
0.00755946
-0.140382
-0.0825527
-0.100032
-0.11088
-0.119294
-0.0657185
-0.175477
-0.338424
-0.349263
-1.88486
-0.411702
0.900742
1.76793
2.12979
2.08257
1.54526
0.876231
0.047284
-0.725871
-1.30141
-1.72315
-1.73035
-1.66087
-1.67991
-1.8552
-2.31149
-3.34403
-4.75132
-6.19715
-1.75019
-0.531775
0.696886
1.37249
1.62686
1.60967
1.2259
0.644398
0.0635357
-0.677211
-1.24631
-1.47178
-1.6324
-1.51333
-1.42701
-1.59011
-2.09879
-2.93052
-4.05981
-5.49155
-1.54046
-0.492096
0.353075
1.15305
1.33328
1.26167
0.97745
0.505565
-0.0770326
-0.578113
-1.06225
-1.30539
-1.31103
-1.23849
-1.34905
-1.39595
-1.72193
-2.51662
-3.45058
-4.5859
-1.27254
-0.48929
0.300453
0.804889
1.05744
0.995496
0.743281
0.329368
0.00277959
-0.536408
-0.800349
-1.0663
-1.06782
-1.01245
-1.13319
-1.1972
-1.42456
-2.06624
-2.82597
-3.73576
-1.06744
-0.428344
0.230325
0.577235
0.737232
0.778355
0.581297
0.237093
-0.0403112
-0.42992
-0.619455
-0.800505
-0.911458
-0.868056
-0.903455
-0.915677
-1.12715
-1.63574
-2.2533
-2.89307
-0.828139
-0.35039
0.0493951
0.320505
0.47678
0.5328
0.311505
0.183285
-0.0621331
-0.374885
-0.537893
-0.614798
-0.574476
-0.676554
-0.614246
-0.704588
-0.778728
-1.1947
-1.52172
-2.06216
-0.522082
-0.253564
0.0572713
0.272555
0.339749
0.318713
0.195089
0.166211
-0.0669824
-0.250183
-0.275778
-0.395926
-0.331036
-0.35408
-0.304125
-0.301449
-0.46067
-0.660267
-0.941928
-1.2071
-0.0963473
-0.0814863
0.0280245
0.119632
0.180132
0.125324
0.0799795
0.0381324
-0.0674943
-0.0413643
-0.0507167
-0.113879
-0.173475
-0.131663
-0.165696
-0.154786
-0.163484
-0.207932
-0.303682
-0.436945
-1.94257
-0.51823
0.762868
1.52291
1.83732
1.77937
1.28203
0.749363
-0.172661
-0.846201
-1.49919
-1.89226
-1.91258
-1.77949
-1.7856
-1.99508
-2.46936
-3.37334
-4.79461
-6.23313
-1.80917
-0.700769
0.456791
1.16063
1.42055
1.35433
1.02593
0.532981
-0.232271
-0.894425
-1.35748
-1.67463
-1.73606
-1.64846
-1.7091
-1.80544
-2.1234
-3.03325
-4.20096
-5.4573
-1.6812
-0.739621
0.27965
0.837156
1.14231
1.04707
0.80243
0.35852
-0.239203
-0.831762
-1.15517
-1.36194
-1.3983
-1.47104
-1.38942
-1.58091
-1.92617
-2.58986
-3.55166
-4.56293
-1.37849
-0.660587
0.156845
0.681697
0.875812
0.857485
0.509259
0.196804
-0.236637
-0.708034
-1.02528
-1.20591
-1.14311
-1.18522
-1.17076
-1.28257
-1.57944
-2.09076
-2.91473
-3.73698
-1.18219
-0.554007
0.0465041
0.519632
0.619609
0.58078
0.498073
0.131375
-0.153968
-0.504462
-0.808422
-0.956747
-0.978001
-0.925624
-0.997214
-0.978372
-1.18958
-1.64606
-2.27834
-2.93088
-0.807593
-0.435561
0.0328951
0.331029
0.45891
0.436976
0.277073
0.121326
-0.105414
-0.359772
-0.583118
-0.701427
-0.669813
-0.71499
-0.645406
-0.717864
-0.982569
-1.2166
-1.64434
-2.11604
-0.488431
-0.25515
-0.0379075
0.197538
0.254767
0.209302
0.154728
0.0167628
-0.07509
-0.231798
-0.351454
-0.417219
-0.468132
-0.397402
-0.374974
-0.464761
-0.547377
-0.686395
-1.04282
-1.26859
-0.174283
-0.0920512
-0.00944744
0.0211919
0.187143
0.0523706
0.0735127
-0.0109634
-0.0382568
-0.0426498
-0.138012
-0.148291
-0.0836349
-0.0832719
-0.117154
-0.154179
-0.141809
-0.219222
-0.367556
-0.441455
-2.0749
-0.661145
0.618127
1.45958
1.76999
1.7183
1.21896
0.66002
-0.106626
-0.918549
-1.473
-1.8363
-1.85898
-1.85081
-1.74309
-1.93814
-2.43828
-3.40977
-4.74839
-6.13537
-1.84713
-0.733779
0.37197
1.08259
1.41069
1.31279
0.971117
0.467064
-0.206408
-0.810106
-1.43295
-1.59241
-1.63171
-1.64054
-1.58556
-1.7396
-2.23403
-3.00415
-4.1536
-5.30686
-1.72509
-0.684487
0.118669
0.790343
1.0031
1.0228
0.793475
0.277034
-0.163982
-0.767814
-1.11937
-1.35359
-1.50363
-1.33593
-1.36097
-1.48669
-1.91852
-2.51944
-3.53778
-4.54917
-1.42891
-0.675044
0.0633721
0.598515
0.778624
0.737237
0.595085
0.216584
-0.208576
-0.65541
-1.01958
-1.22392
-1.19468
-1.22104
-1.10524
-1.22285
-1.57983
-2.07796
-2.88876
-3.73481
-1.13555
-0.60845
0.0567019
0.381427
0.551611
0.583622
0.41889
0.109492
-0.205782
-0.542854
-0.781217
-0.937505
-0.948601
-0.956804
-0.881518
-1.01256
-1.18381
-1.67279
-2.22308
-2.88383
-0.874867
-0.39862
0.0101614
0.234751
0.394765
0.391091
0.305103
0.0915757
-0.121738
-0.418789
-0.613006
-0.642794
-0.729483
-0.710517
-0.648262
-0.67596
-0.915829
-1.17598
-1.63814
-2.07777
-0.540098
-0.106235
-0.0482897
0.191052
0.259579
0.241629
0.224513
0.0499852
-0.0498986
-0.231184
-0.331827
-0.432691
-0.485717
-0.442044
-0.456048
-0.374376
-0.479813
-0.79869
-0.941484
-1.1785
-0.180845
-0.0977339
0.0540437
0.00601017
0.0340028
0.0428232
-0.0168669
-0.018135
-0.0966185
-0.130443
-0.066901
-0.112587
-0.14552
-0.101019
-0.095665
-0.150177
-0.166199
-0.210277
-0.402628
-0.466418
-1.90892
-0.475288
0.69788
1.47599
1.78121
1.82363
1.35949
0.823562
0.124203
-0.520517
-1.10119
-1.41656
-1.57733
-1.51889
-1.51585
-1.7267
-2.30526
-3.25666
-4.50987
-5.82022
-1.78545
-0.637625
0.408541
1.16043
1.3548
1.41017
1.01218
0.553867
-0.0131473
-0.514878
-1.06904
-1.22623
-1.3415
-1.42151
-1.41
-1.64258
-2.06984
-2.81634
-3.88627
-5.10151
-1.55245
-0.639888
0.2617
0.772404
1.09476
1.05063
0.845656
0.463963
-0.078938
-0.570147
-0.860093
-1.23616
-1.14507
-1.19415
-1.21641
-1.36474
-1.79321
-2.42957
-3.40058
-4.27869
-1.39983
-0.668008
0.104188
0.520535
0.812807
0.803062
0.650301
0.272467
-0.0723758
-0.558011
-0.797427
-1.01282
-1.05599
-0.946803
-1.05948
-1.10269
-1.47255
-2.06246
-2.70754
-3.55779
-1.05242
-0.579526
-0.0346875
0.457361
0.583665
0.580369
0.473956
0.186531
-0.0876673
-0.387983
-0.668039
-0.788359
-0.850197
-0.793048
-0.868813
-0.886626
-1.19555
-1.57215
-2.10196
-2.77032
-0.802348
-0.405373
-0.0300075
0.233853
0.35108
0.352624
0.292955
0.119871
-0.0819493
-0.306673
-0.474462
-0.611182
-0.601957
-0.556821
-0.519741
-0.647907
-0.733712
-1.19068
-1.55515
-1.90921
-0.448255
-0.316181
-0.0244862
0.17447
0.19386
0.251808
0.199244
0.110495
-0.0581935
-0.219328
-0.318175
-0.371282
-0.363556
-0.330512
-0.445227
-0.366533
-0.476924
-0.676113
-0.948798
-1.18348
-0.119737
-0.0683181
-0.00729114
0.0253483
0.0453117
0.108995
0.0470069
0.0257366
-0.0303818
-0.0434717
-0.025169
-0.0895174
-0.0944405
-0.165439
-0.140114
-0.152554
-0.216275
-0.234628
-0.33419
-0.388578
-1.52994
-0.318933
0.824309
1.75023
2.06758
2.07019
1.68723
1.16653
0.530736
-0.0905616
-0.562518
-0.913665
-1.01689
-1.05785
-1.11422
-1.33704
-1.93718
-2.81075
-4.02498
-5.43275
-1.54004
-0.46601
0.525093
1.32654
1.6405
1.67016
1.29062
0.873568
0.417482
-0.103419
-0.640245
-0.918812
-0.944028
-0.966771
-1.03293
-1.25118
-1.74787
-2.44441
-3.58167
-4.72304
-1.37913
-0.440753
0.294648
1.00074
1.24688
1.22914
1.09543
0.701625
0.244709
-0.237253
-0.549881
-0.832265
-0.888798
-0.90362
-0.927041
-1.08724
-1.6267
-2.18852
-3.01948
-3.95413
-1.22901
-0.467118
0.175975
0.818126
0.985841
0.936265
0.84575
0.519955
0.143821
-0.240152
-0.536143
-0.640176
-0.801649
-0.69603
-0.753334
-0.995227
-1.23852
-1.81117
-2.53986
-3.27967
-0.995955
-0.470348
0.202588
0.469452
0.730317
0.639265
0.578343
0.411306
0.127431
-0.181103
-0.454146
-0.627555
-0.543987
-0.643678
-0.58777
-0.718816
-1.04124
-1.40025
-2.04117
-2.54466
-0.720865
-0.350555
0.0696893
0.296786
0.479229
0.554347
0.398846
0.253063
0.0710997
-0.170173
-0.40232
-0.467889
-0.41694
-0.479916
-0.463985
-0.573453
-0.690276
-0.991189
-1.40933
-1.87525
-0.427087
-0.239288
0.0180264
0.147355
0.209191
0.305216
0.288395
0.179261
0.0704309
-0.167462
-0.183112
-0.254369
-0.22593
-0.235818
-0.27187
-0.381725
-0.422337
-0.683542
-0.820255
-1.06077
-0.18451
-0.0491703
0.0182609
0.00745681
0.0612226
0.0947706
0.0434951
0.0604695
-0.0199886
-0.0308849
-0.0840537
-0.054623
-0.200059
-0.0402065
-0.109369
-0.0144525
-0.151855
-0.196224
-0.356129
-0.404658
-1.07601
0.182257
1.28909
2.10852
2.49627
2.4913
2.27046
1.74096
1.21185
0.600712
0.178231
-0.0917088
-0.270412
-0.327832
-0.576354
-0.762423
-1.32743
-2.25752
-3.43642
-4.79831
-1.05109
-0.0927132
0.980062
1.61307
1.89816
1.99763
1.82422
1.39364
0.896096
0.482017
0.00911303
-0.192437
-0.333856
-0.326752
-0.461764
-0.750364
-1.2053
-2.08132
-3.06762
-4.16328
-1.00443
-0.194531
0.61347
1.23977
1.53201
1.63851
1.33665
1.15963
0.744492
0.29459
-0.07905
-0.223512
-0.409273
-0.46743
-0.509997
-0.656338
-1.08992
-1.70952
-2.70584
-3.54746
-0.891469
-0.214906
0.4862
0.92172
1.24464
1.21877
1.08655
0.876583
0.456939
0.234456
-0.0463235
-0.253975
-0.257302
-0.380499
-0.47028
-0.633874
-0.998682
-1.44258
-2.17182
-2.85297
-0.743233
-0.225674
0.221269
0.651144
0.867515
1.03178
0.806602
0.65387
0.357413
0.106778
-0.0563751
-0.223404
-0.260617
-0.304252
-0.416596
-0.44458
-0.871632
-1.11215
-1.68956
-2.30166
-0.601095
-0.260563
0.274454
0.486014
0.580684
0.648356
0.558006
0.496912
0.256347
0.0601261
-0.0666121
-0.155126
-0.0790816
-0.248875
-0.244882
-0.378087
-0.563788
-0.819194
-1.23929
-1.64584
-0.441157
-0.132603
0.163682
0.237291
0.410803
0.34692
0.322969
0.322028
0.209871
0.044855
-0.00426034
-0.0691107
-0.0975664
-0.119089
-0.147646
-0.248043
-0.390282
-0.548841
-0.762535
-0.976582
-0.102053
-0.00705394
0.0296372
0.0904239
0.0913872
0.142048
0.140554
0.0377257
0.0881491
0.0448021
-0.049343
-0.0738297
0.00318484
-0.0151682
-0.134691
-0.0868137
-0.147247
-0.178318
-0.246803
-0.263624
-0.5066
0.788637
1.94242
2.67419
3.00449
3.14169
2.93639
2.54901
2.12956
1.57103
1.16839
0.926837
0.73402
0.514605
0.407681
-0.0273291
-0.471848
-1.4493
-2.70648
-3.94581
-0.565772
0.384559
1.43703
2.09479
2.51843
2.51191
2.43281
2.11861
1.68016
1.20487
0.907922
0.573555
0.441818
0.386331
0.184136
-0.0957536
-0.595459
-1.35659
-2.49392
-3.52033
-0.661837
0.16997
1.03043
1.70851
1.87484
2.04575
1.89554
1.65535
1.31291
1.0077
0.607678
0.474053
0.325063
0.281552
0.108432
-0.10505
-0.559702
-1.25079
-2.0782
-3.01993
-0.593554
0.0257416
0.709536
1.26736
1.47996
1.54291
1.49416
1.24008
1.03411
0.744771
0.485744
0.302197
0.208863
0.0911162
0.0563177
-0.131917
-0.526338
-1.05636
-1.78582
-2.43656
-0.531274
0.0909146
0.528694
0.86721
1.19306
1.24972
1.16958
0.998651
0.853414
0.545377
0.30302
0.244827
0.190915
0.062775
0.0331405
-0.113869
-0.419894
-0.778317
-1.42805
-1.94417
-0.461134
-0.0115137
0.293338
0.61941
0.787991
0.768822
0.786902
0.657398
0.531897
0.309978
0.199406
0.207734
0.132072
0.123077
0.0374997
-0.175859
-0.311837
-0.573611
-1.0401
-1.32878
-0.299276
-0.0137717
0.204445
0.353284
0.478356
0.516735
0.57017
0.369042
0.350094
0.246752
0.155434
-0.0166046
0.0730101
0.0160781
-0.0398036
0.00140576
-0.223508
-0.3839
-0.606141
-0.817468
-0.164359
-0.0502463
0.0423744
0.111896
0.205814
0.172554
0.123367
0.119327
0.0999384
0.080087
0.00612606
0.0312576
0.0489439
-0.0674518
0.014541
-0.0575866
-0.0814401
-0.208061
-0.237855
-0.34692
0.343114
1.52244
2.61668
3.32988
3.83394
3.93485
3.82386
3.47261
3.06569
2.66037
2.26471
1.98706
1.78416
1.59177
1.36935
1.01466
0.377677
-0.531292
-1.77759
-3.08668
0.0918762
1.03461
2.06714
2.78163
3.20934
3.29485
3.14751
2.90538
2.49305
2.18807
1.79869
1.64846
1.47769
1.23276
1.15692
0.772755
0.209194
-0.573951
-1.571
-2.66018
-0.105871
0.725069
1.56884
2.22643
2.47445
2.62892
2.51038
2.36248
2.06613
1.72769
1.55325
1.34333
1.16083
1.00469
0.83681
0.60794
0.146608
-0.551866
-1.38594
-2.26392
-0.180856
0.555888
1.22057
1.66313
1.95452
2.05132
1.97197
1.82387
1.59553
1.40035
1.18447
0.980556
0.880474
0.810638
0.692563
0.335186
0.0904023
-0.436562
-1.1595
-1.89193
-0.127761
0.411051
0.908834
1.3364
1.47045
1.49321
1.58994
1.43632
1.21259
1.03905
0.831652
0.817375
0.554807
0.603873
0.50967
0.27615
-0.00584228
-0.399321
-0.946965
-1.51788
-0.100512
0.231678
0.712519
0.905026
1.10382
1.08415
1.03498
0.978645
0.87172
0.730871
0.594025
0.530596
0.487617
0.424779
0.349531
0.263633
-0.00233633
-0.2441
-0.679408
-1.11979
-0.128799
0.127082
0.330372
0.469247
0.614553
0.692962
0.607704
0.530253
0.52885
0.369663
0.359126
0.348413
0.292136
0.271225
0.155789
0.127814
-0.0253142
-0.20995
-0.475324
-0.676105
-0.121373
0.111358
0.116544
0.219012
0.183202
0.244836
0.203258
0.202905
0.131672
0.125623
0.128506
0.137874
0.0870637
-0.0170579
0.058324
-0.0471894
-0.0574282
-0.104858
-0.142187
-0.162575
1.29125
2.39231
3.5441
4.35631
4.77577
4.98307
4.82628
4.64739
4.24244
3.84811
3.54802
3.23754
3.03255
2.87505
2.58375
2.07493
1.45925
0.564326
-0.704582
-1.94781
0.892147
1.9031
2.88225
3.50259
3.96696
4.22608
4.0985
3.8045
3.60661
3.25737
3.05133
2.7332
2.58285
2.33161
2.10847
1.72014
1.136
0.353893
-0.680094
-1.7319
0.702327
1.45517
2.25057
2.85888
3.13133
3.35933
3.31759
3.13458
2.88369
2.68248
2.44689
2.28086
2.09804
1.89394
1.75351
1.36467
0.799452
0.194538
-0.637969
-1.58987
0.40277
1.03031
1.67855
2.25579
2.47147
2.60448
2.61601
2.47965
2.2761
2.0792
1.92923
1.72423
1.63961
1.48096
1.3383
1.04213
0.708663
0.188574
-0.592287
-1.28351
0.298071
0.805165
1.26928
1.69866
1.91081
1.93698
1.96809
1.95116
1.79112
1.63094
1.43951
1.3108
1.23427
1.0931
1.07733
0.87137
0.523156
0.0436993
-0.402579
-1.01748
0.178418
0.54042
0.903193
1.08613
1.33401
1.43275
1.38713
1.29133
1.20797
1.11135
1.06392
0.927435
0.918496
0.794422
0.677006
0.497367
0.315567
0.00603568
-0.328685
-0.695125
0.052763
0.327215
0.519534
0.659345
0.834435
0.930306
0.794593
0.75305
0.705765
0.578982
0.607074
0.51064
0.532579
0.511144
0.394834
0.342135
0.210001
0.0904288
-0.201247
-0.407218
0.0224561
0.0643334
0.095379
0.217952
0.269671
0.206979
0.291508
0.30796
0.234279
0.182666
0.181718
0.183987
0.230671
0.0880442
0.143406
0.165887
0.0380184
0.0398848
-0.0749433
-0.142894
2.28177
3.47471
4.6313
5.45615
5.79272
6.07412
6.09609
5.91932
5.61829
5.24692
4.94297
4.61298
4.3817
4.18401
3.80409
3.40492
2.64418
1.84245
0.516265
-0.718059
1.81282
2.77503
3.76755
4.45507
4.87574
5.09011
5.00789
4.89269
4.77343
4.41894
4.13243
3.94206
3.68313
3.49088
3.17125
2.87849
2.27791
1.32887
0.362305
-0.723024
1.32813
2.20317
2.9547
3.58177
3.94175
4.14412
4.13128
4.00159
3.82076
3.61214
3.42803
3.1302
2.99495
2.7815
2.6154
2.22695
1.7199
1.08964
0.241042
-0.614131
0.992008
1.62047
2.287
2.81349
3.13911
3.33668
3.29907
3.19539
3.03592
2.85582
2.7665
2.60636
2.43333
2.27598
2.1156
1.81999
1.41809
0.84702
0.12334
-0.539833
0.741505
1.23052
1.69321
2.15382
2.38274
2.44654
2.49288
2.45944
2.29286
2.18256
2.01522
1.92224
1.80112
1.7042
1.6037
1.36486
1.09129
0.64904
0.113205
-0.426714
0.58929
0.84065
1.22327
1.49752
1.60506
1.76649
1.75159
1.85225
1.72017
1.50788
1.43247
1.35942
1.33609
1.19645
1.11472
0.979556
0.755959
0.42814
0.063615
-0.396833
0.303506
0.528479
0.704268
0.967448
1.01382
1.04497
1.02193
1.05226
1.00602
0.843933
0.885385
0.807026
0.77323
0.733675
0.601413
0.605852
0.499069
0.292381
-0.00575945
-0.242952
0.0122393
0.176699
0.24564
0.304471
0.388518
0.317432
0.366462
0.314244
0.37742
0.292516
0.262922
0.338558
0.287052
0.246011
0.213108
0.258361
0.14824
0.0635483
-0.010644
-0.0942629
3.52733
4.54439
5.72728
6.45371
6.95805
7.27312
7.24088
7.14863
6.87815
6.57585
6.39423
5.96261
5.81623
5.52721
5.1391
4.62449
3.9194
2.93996
1.76246
0.500564
2.77109
3.68756
4.60715
5.31972
5.77803
6.05456
6.05134
5.91914
5.78075
5.53828
5.32759
4.97936
4.80331
4.71147
4.32449
3.86422
3.22806
2.44306
1.38811
0.369739
2.13067
2.95666
3.79998
4.39499
4.77071
4.94372
4.99314
4.80422
4.68639
4.55566
4.37911
4.10934
3.97507
3.80761
3.47206
3.16205
2.57395
1.91472
0.991763
0.180342
1.66779
2.21077
2.9224
3.34881
3.78719
3.86848
3.97988
3.95121
3.77824
3.66524
3.51133
3.25614
3.13161
3.02229
2.83384
2.51043
2.15682
1.54582
0.837962
0.0747299
1.22327
1.6661
2.21154
2.53811
2.83742
2.96974
3.01058
3.00548
2.92122
2.79457
2.68407
2.47287
2.41809
2.31024
2.12459
1.93273
1.56664
1.16315
0.588483
0.0670187
0.904314
1.12333
1.50679
1.80049
2.05864
2.0607
2.14149
2.10387
2.08536
1.95602
1.88114
1.72799
1.69071
1.58976
1.54235
1.39241
1.19409
0.789141
0.364911
0.00192352
0.529581
0.754733
0.917516
1.02022
1.1722
1.28574
1.2064
1.19448
1.21517
1.14833
1.16085
1.11596
0.991002
0.940121
0.885083
0.796627
0.67489
0.512154
0.243264
-0.0595204
0.154565
0.191442
0.313163
0.337664
0.347525
0.359358
0.435318
0.384547
0.350116
0.398706
0.345348
0.280467
0.345196
0.287977
0.273703
0.263287
0.219452
0.139963
-0.0152399
0.0500211
4.37284
5.43079
6.58574
7.44898
7.90813
8.17432
8.23141
8.14485
8.0043
7.76483
7.48075
7.20485
6.97261
6.60239
6.16551
5.67659
4.9532
3.97823
2.76521
1.50134
3.48007
4.36407
5.31123
6.10756
6.5336
6.83964
6.88842
6.76995
6.76984
6.4165
6.25335
5.96524
5.83473
5.39108
5.17858
4.72671
4.07363
3.27668
2.13865
1.18476
2.74943
3.55513
4.35743
4.91845
5.33849
5.63035
5.53449
5.6387
5.43691
5.26259
5.06214
4.95271
4.77016
4.46872
4.2097
3.87957
3.25985
2.62457
1.71438
0.880827
2.1104
2.78046
3.37599
3.8826
4.27263
4.4639
4.47848
4.44107
4.36358
4.19806
4.01456
3.89834
3.72401
3.5344
3.29779
3.03173
2.60745
1.98737
1.32516
0.619825
1.54802
2.11354
2.57521
2.90471
3.15761
3.38584
3.37446
3.43309
3.30275
3.19254
2.98635
2.97683
2.8966
2.74746
2.5665
2.36366
1.95361
1.4705
0.975019
0.540902
1.03101
1.36781
1.76492
2.05273
2.25921
2.33224
2.41298
2.43438
2.281
2.23516
2.1576
2.10044
2.00056
1.93345
1.90017
1.60348
1.34647
1.02085
0.709959
0.332902
0.579115
0.784229
1.09952
1.2221
1.34439
1.44904
1.39311
1.44575
1.41487
1.38038
1.29401
1.27315
1.11339
1.11656
1.05425
0.921121
0.840464
0.544652
0.357819
0.148538
0.160873
0.31202
0.3793
0.338428
0.463506
0.423925
0.442067
0.444188
0.498912
0.423807
0.458003
0.37278
0.354952
0.385103
0.361301
0.273181
0.227424
0.267501
0.186733
0.0515555
)
;

boundaryField
{
    hotSide
    {
        type            calculated;
        value           nonuniform List<scalar> 
400
(
0.827863
0.980959
0.901329
0.695316
0.449797
0.161786
-0.0443251
-0.286331
-0.617264
-0.646246
-0.746134
-0.543891
-0.124716
0.373396
0.991095
1.89324
2.89803
3.94945
5.2602
6.17522
2.82934
2.88308
2.77314
2.57804
2.19204
1.92716
1.46939
1.1687
0.880614
0.801337
0.68937
0.910009
1.1051
1.64908
2.3024
3.08737
4.0127
5.15487
6.2887
7.24365
4.61358
4.55268
4.47637
4.26522
3.85876
3.49155
2.98412
2.59646