/*--------------------------------*- C++ -*----------------------------------*\
| =========                 |                                                 |
| \\      /  F ield         | OpenFOAM: The Open Source CFD Toolbox           |
|  \\    /   O peration     | Version:  2212                                  |
|   \\  /    A nd           | Website:  www.openfoam.com                      |
|    \\/     M anipulation  |                                                 |
\*---------------------------------------------------------------------------*/
FoamFile
{
    version     2.0;
    format      ascii;
    arch        "LSB;label=32;scalar=64";
    class       volScalarField;
    location    "0";
    object      relativeErrorField;
}
// * * * * * * * * * * * * * * * * * * * * * * * * * * * * * * * * * * * * * //

dimensions      [0 0 0 1 0 0 0];

internalField   nonuniform List<scalar> 
3200
(
0.000948258
0.00469871
0.00969376
0.0128276
0.0142966
0.0143223
0.0139549
0.0133858
0.0120421
0.0110392
0.00982314
0.00874746
0.00738998
0.0066263
0.00548443
0.00371585
0.00125547
0.00255297
0.00794315
0.0138682
0.00106662
0.0037068
0.00820048
0.0109911
0.0121092
0.0124688
0.0120903
0.0114523
0.0107172
0.00924204
0.00844623
0.00750436
0.00635818
0.00558619
0.00458887
0.00319181
0.000940969
0.00221473
0.00711395
0.0120889
0.00104617
0.00303696
0.00683655
0.00888565
0.00998837
0.0104917
0.0101167
0.00934183
0.00892022
0.00782993
0.00718404
0.00644798
0.00550571
0.00481471
0.00382088
0.00276668
0.000740448
0.00199272
0.00622372
0.0103426
0.00114563
0.00229712
0.0053813
0.00728349
0.00851121
0.00882812
0.00848491
0.00793943
0.00738462
0.00678767
0.00579217
0.00519479
0.0044906
0.00395395
0.00343768
0.00225008
0.000526942
0.00180658
0.00492939
0.00870772
0.000900889
0.00148422
0.00425752
0.00573436
0.00641012
0.00679547
0.00641335
0.0061984
0.00595834
0.00520217
0.00444479
0.00418318
0.00393518
0.00323537
0.00282056
0.00187724
0.000528583
0.00135753
0.00388835
0.00696672
0.000689317
0.00127208
0.00302626
0.00419488
0.00468447
0.00490799
0.00474754
0.00458582
0.00417511
0.00394623
0.00327397
0.0032629
0.00259155
0.00252384
0.00183813
0.00118015
0.000533013
0.00105157
0.00295941
0.0048498
0.000546565
0.00085129
0.00190148
0.00244865
0.00282716
0.00307861
0.00309972
0.00291923
0.00267109
0.00219495
0.0017614
0.00203307
0.0015785
0.00113437
0.00115499
0.000766226
3.19149e-05
0.000756657
0.00169233
0.00293091
6.87759e-06
0.000144644
0.000692811
0.00085687
0.00114909
0.000839638
0.000965462
0.00100332
0.00113171
0.000734199
0.000988414
0.000539588
0.000367927
0.00057252
0.000453267
0.000237204
0.000134694
0.000329478
0.000714537
0.000951925
0.000516738
0.00484286
0.00950843
0.0126763
0.0138537
0.0139112
0.0133684
0.012422
0.0114043
0.00992771
0.00860062
0.00739608
0.00654813
0.00589711
0.00465683
0.00322191
0.000841286
0.00311741
0.00818038
0.0136508
0.00100819
0.00391035
0.00817191
0.0106606
0.0117533
0.0122291
0.0115774
0.0107662
0.00972782
0.00841897
0.0074741
0.00635596
0.00578517
0.00497336
0.00400879
0.00270275
0.000724823
0.00250509
0.00704756
0.0119964
0.00111898
0.00291066
0.00642779
0.0091528
0.00988055
0.0100013
0.00982867
0.00913097
0.00840632
0.00720558
0.00631282
0.00553091
0.00488595
0.00445829
0.00335953
0.00234602
0.000598522
0.00218335
0.00619686
0.0103365
0.00116667
0.00225279
0.00533788
0.00731546
0.00820645
0.00835636
0.00795028
0.00762746
0.00689618
0.00599662
0.00528165
0.00454867
0.00401246
0.00363109
0.00293585
0.00206786
0.000447271
0.00180474
0.00514614
0.00851959
0.000814858
0.00162283
0.00409279
0.005678
0.00618649
0.00660962
0.00651943
0.00573675
0.00528907
0.00456329
0.00394283
0.00362954
0.00301091
0.00285304
0.00221767
0.00152925
0.000171304
0.00135387
0.00430935
0.00687368
0.000881194
0.00131443
0.00294515
0.00393968
0.00455664
0.00474548
0.00479062
0.00409873
0.0037556
0.00350928
0.00285467
0.00265825
0.00265887
0.00206782
0.00133312
0.00111561
0.000232768
0.000997866
0.00300236
0.00488747
0.000362426
0.000657809
0.0021404
0.00255779
0.00291808
0.00284695
0.00276573
0.00250595
0.00228132
0.00197565
0.00182238
0.00163098
0.00152693
0.00112031
0.000987449
0.000763186
4.77921e-05
0.000718906
0.00185929
0.00292861
2.91632e-05
0.000238873
0.000670914
0.000619684
0.000948176
0.00121918
0.00080763
0.00095956
0.000855098
0.000890853
0.000740335
0.000777525
0.000623262
0.00047654
0.000366583
3.40914e-05
0.000207712
0.000239514
0.000654166
0.00125072
0.00076129
0.00450822
0.00926814
0.0119679
0.0132491
0.0130599
0.0123872
0.0112318
0.00972676
0.00845787
0.00719076
0.0059946
0.00508646
0.00446883
0.00377054
0.00237817
0.000304202
0.00326996
0.00841529
0.0141154
0.00114815
0.00365706
0.00753045
0.0102718
0.0112619
0.0111357
0.0105244
0.00958574
0.0082901
0.00724413
0.00593785
0.00505654
0.00428137
0.00396664
0.00324415
0.00207792
1.38321e-05
0.00267918
0.00736801
0.0124071
0.0011239
0.00240475
0.00635816
0.00833125
0.00970792
0.00950108
0.00910348
0.00782404
0.00700367
0.00605636
0.00510314
0.0044203
0.00376917
0.00326825
0.00255844
0.00165105
0.00015707
0.00265817
0.0063627
0.0107981
0.00110504
0.00226347
0.0048865
0.00695154
0.00795816
0.0079563
0.00733963
0.00681661
0.00577824
0.00501498
0.00405965
0.00344392
0.00308321
0.00270818
0.00194576
0.00126037
0.000189078
0.00248817
0.00570267
0.00858577
0.001002
0.00156486
0.00380928
0.00524413
0.00602399
0.00616303
0.00579313
0.00517529
0.00452627
0.00386553
0.00331712
0.0027024
0.00247088
0.00202413
0.00181725
0.00109845
0.000230163
0.00178644
0.00415175
0.00684483
0.000883126
0.00097599
0.00297609
0.0039643
0.00429048
0.00438971
0.00417611
0.0037654
0.00330988
0.00267766
0.00243257
0.00185051
0.00173303
0.00148905
0.00118726
0.000714276
0.000102778
0.00135521
0.00319252
0.00492018
0.000436258
0.00058905
0.00168432
0.00237725
0.00267014
0.00267172
0.00243974
0.00220259
0.00213384
0.00145153
0.00147199
0.00116698
0.0010035
0.000715887
0.000530678
0.000573447
0.000104613
0.00073515
0.00187874
0.00305181
1.64313e-05
0.000206096
0.000630407
0.000703624
0.000843661
0.000993448
0.000705477
0.000801197
0.000838655
0.000673691
0.000335124
0.000517679
4.39782e-05
0.000367421
0.000526465
0.000233668
6.64201e-05
0.000315491
0.000512445
0.000864739
0.00137526
0.00392087
0.00863226
0.0110502
0.0123322
0.0120485
0.0113189
0.00971185
0.00781739
0.00622875
0.00490391
0.00381732
0.00319739
0.00283049
0.00191825
0.000934492
0.000587155
0.00409811
0.0089789
0.0146475
0.00149987
0.00300759
0.00704849
0.00945992
0.0103411
0.0100958
0.00942734
0.00808989
0.00690739
0.00534173
0.00402319
0.00346361
0.00288405
0.00241285
0.00180252
0.000817466
0.000903054
0.0037477
0.00806164
0.0125821
0.00150354
0.00238694
0.00556236
0.00797009
0.00887933
0.0085711
0.00799168
0.00700779
0.00585111
0.00447379
0.00344084
0.00267086
0.00215778
0.00209453
0.00144351
0.000849311
0.000728456
0.00323631
0.0068458
0.01064
0.00140638
0.00177242
0.0044888
0.00636309
0.00719399
0.00690921
0.00650307
0.00587543
0.00464157
0.00382416
0.00282917
0.00225731
0.0020031
0.00176715
0.00110381
0.000602799
0.000750551
0.00282466
0.00588389
0.00893326
0.000976028
0.00128945
0.00357343
0.00476906
0.00556705
0.00550597
0.00516158
0.00446169
0.00383698
0.00292275
0.00206991
0.00189802
0.00162214
0.00110636
0.00101448
0.000649193
0.000350359
0.00207885
0.00491363
0.00722807
0.000833432
0.000874858
0.00237471
0.00328441
0.00403805
0.00399081
0.00357209
0.00306308
0.0027977
0.00224547
0.00147958
0.00141102
0.000993511
0.000755164
0.000749631
0.000257143
0.000387378
0.00156117
0.00343058
0.0052147
0.000598049
0.000555464
0.00136521
0.00227752
0.00236787
0.00234978
0.00213829
0.00198028
0.00147773
0.00113724
0.00109255
0.000539506
0.00067632
0.000477608
0.000369152
7.39123e-05
8.95678e-05
0.00104199
0.00218537
0.0030911
0.000393244
8.41559e-05
0.000584032
0.000809725
0.000861212
0.00101741
0.00061345
0.000796077
0.000435749
0.000422576
0.000539189
0.000229951
0.000355183
4.6665e-05
0.000293312
1.19577e-05
3.16047e-06
0.00026404
0.00079386
0.00103049
0.00210803
0.00278078
0.00743073
0.0099126
0.0109688
0.0107001
0.00962144
0.00807881
0.00622684
0.00432141
0.00279641
0.00196224
0.00119665
0.000963418
0.000652085
0.000367976
0.00193494
0.00525591
0.00995774
0.0153117
0.00200292
0.00230878
0.00615982
0.00837644
0.00911812
0.00916869
0.00836443
0.00680808
0.00527996
0.00400353
0.00230889
0.00173383
0.00105662
0.000870097
0.000523669
0.000119196
0.00192345
0.00460431
0.00879333
0.0132394
0.00203666
0.00160883
0.00502542
0.00683559
0.00783803
0.00765542
0.00686307
0.00567975
0.00438395
0.00315137
0.00214498
0.0013177
0.000830096
0.000602133
0.000200334
0.000537039
0.00174036
0.00409879
0.00775088
0.0112592
0.00192284
0.00100894
0.00387672
0.00535846
0.0062621
0.00629511
0.0054911
0.0044977
0.00357514
0.00265961
0.0012647
0.00110568
0.000632507
0.000599539
2.87138e-05
0.00022781
0.00142642
0.00340129
0.00648424
0.00946938
0.00164351
0.000677267
0.00304755
0.00434338
0.00487229
0.00500594
0.00440546
0.00362426
0.00281976
0.00210237
0.00101811
0.000652596
0.000488098
0.000375439
0.000236324
0.000313516
0.00120194
0.00271967
0.00523002
0.00745085
0.00129488
0.000608991
0.00210465
0.00304195
0.00380021
0.00341136
0.00297382
0.00264315
0.00203646
0.00147558
0.000994067
0.0005977
0.000413244
0.000270202
0.000172681
4.42064e-05
0.00079078
0.00200552
0.00370518
0.00529772
0.000915019
0.000284882
0.000894562
0.00171016
0.00192748
0.00219777
0.00190997
0.00150685
0.00133885
0.000775932
0.000584967
0.00045842
0.000187452
0.000198392
0.000140433
0.000277577
0.000377637
0.00137399
0.00218728
0.00334471
0.000338097
0.000193322
0.000417956
0.000440777
0.000687433
0.000816716
0.000585788
0.000326745
0.00036024
0.000344673
0.000336278
0.000200265
0.000132104
0.000160848
6.86716e-05
7.0331e-05
0.000114211
0.000594213
0.000976537
0.00133296
0.00296658
0.00198055
0.00633426
0.00859451
0.00984706
0.00910059
0.00806785
0.00647657
0.00434998
0.00226941
0.000772488
0.000201356
0.000597033
0.000749908
0.000916215
0.00163092
0.00334705
0.00619728
0.0109012
0.0161225
0.00282428
0.00142613
0.0051775
0.00711979
0.00816027
0.00802267
0.00689371
0.00535633
0.00354168
0.00207264
0.0005638
0.000248223
0.000671306
0.000671088
0.000997299
0.00171594
0.0032094
0.00570211
0.00936037
0.0141505
0.00273898
0.000890371
0.00391174
0.00604433
0.00650856
0.00631013
0.00564223
0.00454463
0.00294873
0.00154309
0.000438146
0.000624666
0.000516708
0.000918487
0.000854323
0.00153268
0.00267172
0.00499019
0.00842874
0.01208
0.0024737
0.000266371
0.00314882
0.00479929
0.00562466
0.0050359
0.00474512
0.0036264
0.00248751
0.00136764
0.000242236
0.00022518
0.000600552
0.000594871
0.000712213
0.00125885
0.00217591
0.0041687
0.00694738
0.0101123
0.00215714
0.000562022
0.00224087
0.00367304
0.00414446
0.00415305
0.00345016
0.00268108
0.00205119
0.00118684
0.000308806
0.000218651
0.00056336
0.00063204
0.000603963
0.00102394
0.00184923
0.00328164
0.00570283
0.00772615
0.00144677
0.000133596
0.0015726
0.00241313
0.00288609
0.00294994
0.00272131
0.00181387
0.0012898
0.00064482
0.000125458
0.000361811
0.000210261
0.000388155
0.000497708
0.000589461
0.00127817
0.00233546
0.00405783
0.00580191
0.000952743
8.07971e-05
0.00124787
0.00142355
0.00171126
0.0019427
0.00172693
0.0011608
0.000696363
0.000814458
8.67318e-05
7.89026e-05
5.21727e-05
0.000231013
0.0002688
0.000598646
0.000854439
0.00137371
0.00257335
0.00356073
0.000355713
3.43071e-06
0.000144807
0.00068971
0.000593937
0.000634888
0.000481677
0.000674459
0.000214443
0.000452164
0.000133148
0.000206811
0.000221145
0.000143992
9.36306e-05
0.000196654
0.000414951
0.000651075
0.000593561
0.00112649
0.00359545
0.000627324
0.00483471
0.00723454
0.00828112
0.00793482
0.00659322
0.0047119
0.00268331
0.000707745
0.00104033
0.00190671
0.00211369
0.00238818
0.00254975
0.00312775
0.00462007
0.00781367
0.0118412
0.0167154
0.00364662
0.000382842
0.00370688
0.00603527
0.00678841
0.00666985
0.00555829
0.0039143
0.00193751
0.000520328
0.0011203
0.0018843
0.00215636
0.00223484
0.00214193
0.00277572
0.00420113
0.00657279
0.0107192
0.0147497
0.00348201
0.000149788
0.00304656
0.00490172
0.00549997
0.00542416
0.00434078
0.00327547
0.00142768
0.000233004
0.000921996
0.00179341
0.00214329
0.00183445
0.00202401
0.00266065
0.00358435
0.00588767
0.00905558
0.0126188
0.00289953
0.000349244
0.0021229
0.00412537
0.00451244
0.00444942
0.00377915
0.00257043
0.00136063
0.000191778
0.00112495
0.00174906
0.00164749
0.00128814
0.00155381
0.00201242
0.00304513
0.00469241
0.00765826
0.0107098
0.00221719
0.000334131
0.00165997
0.00291708
0.00345288
0.00346406
0.00297769
0.00187801
0.000808771
1.35451e-06
0.000687038
0.00129228
0.00166511
0.00143947
0.00139614
0.00192482
0.00252745
0.00404083
0.00612724
0.00837189
0.00190747
0.000460264
0.00110698
0.00199421
0.00241971
0.00222172
0.00213725
0.0014289
0.000905868
8.6076e-05
0.000694844
0.000730491
0.000754124
0.00133249
0.000908652
0.00119607
0.00197674
0.00276819
0.00454106
0.00598789
0.00117423
0.000162947
0.000499926
0.00102866
0.00153732
0.00160577
0.00137993
0.000549129
0.000398184
2.29975e-06
0.000333132
0.000399905
0.000406332
0.000508369
0.000432122
0.000931049
0.00143033
0.0016891
0.00272319
0.00382469
0.000465881
0.000146816
0.000163432
0.000254708
0.000176948
0.000500007
0.00034702
0.000271724
0.000248572
0.000101965
0.000143303
2.88743e-05
0.00037917
0.000187247
0.000368524
0.000139352
0.000440325
0.000765959
0.000683818
0.00122416
0.0043296
0.000282626
0.00367124
0.00604777
0.0070644
0.00666238
0.00509157
0.00341943
0.00129354
0.000910966
0.00254387
0.00350949
0.00386399
0.00358658
0.00362105
0.00440438
0.0054773
0.0085143
0.0126529
0.0173053
0.0044966
0.000531827
0.00279332
0.00474897
0.00582064
0.00558873
0.0044181
0.00297107
0.00071088
0.00109132
0.0023789
0.00331919
0.00376254
0.00342255
0.00324438
0.00401187
0.0052797
0.0077614
0.0111545
0.0155028
0.00391041
0.000610049
0.0022155
0.00385068
0.004707
0.00440092
0.00346249
0.00209947
0.000703582
0.00103474
0.00218149
0.00291002
0.00295062
0.00289077
0.00304286
0.0034845
0.00440459
0.0068141
0.00996839
0.0130605
0.00351614
0.000981314
0.00150498
0.00316049
0.0037056
0.00364215
0.00285755
0.00176466
0.000404033
0.00094064
0.00196684
0.00232211
0.00256655
0.00245152
0.00246253
0.00304227
0.00386284
0.00573628
0.00824391
0.0108435
0.00282845
0.00109239
0.00104135
0.00218851
0.00291826
0.00263911
0.00220125
0.00113456
4.71476e-05
0.00080732
0.00168258
0.00214429
0.00226172
0.00213835
0.00199727
0.00221044
0.00313404
0.00438895
0.00656923
0.00877429
0.0023249
0.00081151
0.000796036
0.00153758
0.00209541
0.00200845
0.00153801
0.000761472
0.000178679
0.000689732
0.00127369
0.00159633
0.0016974
0.00151408
0.00165511
0.0017174
0.00238307
0.00353086
0.00489681
0.00638336
0.00152047
0.00060225
0.000379554
0.000884671
0.00117532
0.00110597
0.000806047
0.000540297
1.52214e-05
0.000312839
0.000731346
0.000769814
0.0011116
0.000849208
0.00122691
0.00109238
0.00150582
0.00200676
0.00290719
0.0041178
0.000514257
0.00021199
0.000111599
0.000262843
0.000314171
0.000416091
0.000343135
0.000284001
1.59908e-05
0.000142905
2.4877e-05
0.000461992
0.000271698
0.000329257
0.000365008
0.000392756
0.000216397
0.000577888
0.00111465
0.00115045
0.00531669
0.0011599
0.00253385
0.00496532
0.00597202
0.00583063
0.00432031
0.00244701
0.00013194
0.00202458
0.00362986
0.00480821
0.00483227
0.00464353
0.00470327
0.00520205
0.00649195
0.00940699
0.013386
0.0174805
0.0050392
0.0015295
0.00200173
0.00393672
0.00465969
0.00460421
0.00350219
0.00183907
0.000181196
0.00193059
0.00355299
0.00419733
0.00465878
0.00432332
0.00408174
0.00455444
0.00601999
0.00841759
0.0116769
0.0158114
0.00452962
0.00144569
0.00103609
0.00337944
0.00390284
0.0036889
0.00285486
0.00147532
0.000224653
0.00168542
0.00309685
0.00380697
0.0038258
0.00361728
0.00394438
0.00408631
0.00504676
0.00738494
0.0101372
0.0134845
0.00382334
0.001469
0.000901192
0.00241175
0.00316522
0.00297687
0.0022207
0.000983333
8.29415e-06
0.00160018
0.00238755
0.00318177
0.003188
0.00302489
0.00338862
0.00358356
0.00426851
0.00619758
0.00848444
0.0112241
0.00327874
0.00131495
0.000706524
0.00176923
0.00225778
0.00238185
0.00177758
0.000724595
0.000123147
0.00131308
0.00189196
0.00244546
0.00278557
0.00265447
0.00276467
0.00280427
0.00345472
0.00501765
0.00691725
0.00888632
0.00260193
0.00110043
0.000155044
0.00100543
0.00149476
0.00166943
0.000975542
0.000573751
0.000194441
0.00117299
0.00168302
0.00192396
0.00179832
0.00211877
0.00192463
0.00220897
0.00244287
0.00375
0.00477912
0.0064791
0.00167881
0.000815154
0.000184053
0.000875587
0.00109105
0.00102314
0.000626079
0.000533263
0.000214863
0.000802446
0.00088454
0.00127003
0.00106208
0.00113631
0.000976304
0.000968053
0.00147991
0.0021219
0.0030281
0.00388155
0.000317263
0.000268304
9.22637e-05
0.000393807
0.00059289
0.000412444
0.000263185
0.000125469
0.000222066
0.00013609
0.00016686
0.000374677
0.000570796
0.000433258
0.000545309
0.000509464
0.000538162
0.000684564
0.000999913
0.00143882
0.00545489
0.00145358
0.00213676
0.00425926
0.00513096
0.00496213
0.00357068
0.00208493
0.000480032
0.00235169
0.00416644
0.00526088
0.0053213
0.00495618
0.00497949
0.00557151
0.00690627
0.00944858
0.0134484
0.0175031
0.00518831
0.00200769
0.00130707
0.0033167
0.0040541
0.00386031
0.00292098
0.00151608
0.000660267
0.00254167
0.00385752
0.0047604
0.00493827
0.00469342
0.00487152
0.00515255
0.00606797
0.00867943
0.0120357
0.0156504
0.00492648
0.00216553
0.000817912
0.0024457
0.0033334
0.00305217
0.00233679
0.00104323
0.000695643
0.00241819
0.00335843
0.00396076
0.00406882
0.00428388
0.00405013
0.00461329
0.0056272
0.00757476
0.0103989
0.0133709
0.00412977
0.00197767
0.000469147
0.00203712
0.0026147
0.00255767
0.00151777
0.000586151
0.000704453
0.00210725
0.00305145
0.00358993
0.00340459
0.00353235
0.00349209
0.00382907
0.00471983
0.00625378
0.00872615
0.0111955
0.0036229
0.00169688
0.000142338
0.00158926
0.0018936
0.00177366
0.00152009
0.000400737
0.000469477
0.00153789
0.00246454
0.0029173
0.00298323
0.00282496
0.00304541
0.00299002
0.00363827
0.00503818
0.00697838
0.0089819
0.00253313
0.00136567
0.000103087
0.0010368
0.00143654
0.00136716
0.000866467
0.000379264
0.000329431
0.00112417
0.00182205
0.00219204
0.00209383
0.00223592
0.00201927
0.00224715
0.00307747
0.00381258
0.00515571
0.00663727
0.00156898
0.000819421
0.000121702
0.000633982
0.000817376
0.00067129
0.000496111
5.37346e-05
0.000240666
0.000742853
0.00112632
0.0013372
0.00150063
0.00127421
0.00120265
0.00149111
0.00175676
0.00220368
0.00334906
0.00407508
0.000573697
0.000302985
3.10926e-05
6.9737e-05
0.000615765
0.000172299
0.000241832
3.60628e-05
0.000125834
0.000140279
0.000453934
0.000487757
0.000275108
0.000273936
0.000385435
0.000507303
0.000466657
0.000721486
0.0012098
0.00145316
0.00579739
0.00184533
0.00172301
0.00406294
0.00492034
0.00477049
0.0033803
0.00182857
0.000295208
0.00254223
0.00407676
0.00508402
0.00515026
0.00513248
0.00483931
0.00538777
0.00678732
0.00950465
0.0132533
0.0171426
0.00527373
0.0020931
0.00105982
0.00308078
0.00400966
0.00372713
0.00275428
0.00132358
0.000584581
0.00229364
0.00405707
0.00450995
0.004624
0.0046529
0.00450155
0.00494453
0.0063575
0.00855949
0.0118481
0.0151516
0.00503572
0.00199655
0.000345796
0.00230061
0.00291688
0.00297121
0.00230301
0.000803493
0.00047536
0.00222519
0.00324401
0.00392385
0.00436103
0.00387745
0.00395362
0.00432308
0.00558463
0.00734157
0.0103192
0.0132795
0.00426708
0.00201458
0.000188968
0.00178314
0.00231771
0.0021927
0.0017686
0.0006433
0.00061925
0.00194544
0.0030264
0.00363373
0.00354845
0.00362893
0.0032872
0.00364003
0.00470672
0.00619626
0.00862111
0.0111531
0.00347109
0.00185895
0.000173123
0.00116376
0.00168183
0.00177826
0.00127558
0.00033326
0.000626122
0.00165141
0.00237654
0.00285249
0.00288723
0.00291361
0.00268593
0.00308725
0.00361189
0.00510739
0.00679199
0.00881513
0.00273902
0.00124754
3.17863e-05
0.000733958
0.00123362
0.00122155
0.00095256
0.000285807
0.000379848
0.00130654
0.00191246
0.00200565
0.00227671
0.0022183
0.00202481
0.00211234
0.00286338
0.00367864
0.0051268
0.00650503
0.00173296
0.000340791
0.000154862
0.000612499
0.000831932
0.00077417
0.000719142
0.000160074
0.000159772
0.000740174
0.0010624
0.00138545
0.00155547
0.00141592
0.00146116
0.00119985
0.00153825
0.00256135
0.00302017
0.00378133
0.000595061
0.000321564
0.000177796
1.97705e-05
0.00011184
0.000140838
5.54668e-05
5.96327e-05
0.00031769
0.000428897
0.000219971
0.000370197
0.000478507
0.000332203
0.000314624
0.000493956
0.000546712
0.000691783
0.00132473
0.00153472
0.0053043
0.00131939
0.00193497
0.00408724
0.00492633
0.00503775
0.00375167
0.00227079
0.000342258
0.0014339
0.00303351
0.0039035
0.00434913
0.00419155
0.00418752
0.00477557
0.00638362
0.00902955
0.0125193
0.0161726
0.00507279
0.00181008
0.00115853
0.00328704
0.00383339
0.00398594
0.00285835
0.00156293
3.70799e-05
0.00145173
0.00301423
0.0034584
0.00378551
0.00401429
0.00398545
0.00464766
0.00586306
0.00798651
0.0110323
0.0144943
0.00451264
0.00185869
0.000759467
0.00223939
0.00317097
0.0030404
0.00244528
0.00134071
0.000228002
0.0016464
0.00248367
0.00357047
0.00330891
0.00345299
0.00352017
0.00395294
0.00519896
0.00705074
0.00987768
0.0124373
0.00416547
0.00198662
0.000309613
0.00154561
0.00241151
0.00238081
0.00192663
0.000806792
0.000214226
0.00165134
0.00235985
0.00299788
0.00312687
0.00280508
0.003141
0.00327156
0.00437239
0.00612897
0.00805207
0.0105869
0.00320791
0.00176565
0.000105619
0.00139171
0.00177491
0.00176383
0.00143965
0.000566345
0.000266093
0.00117744
0.00202735
0.00239288
0.00258137
0.0024089
0.00264045
0.0026962
0.00363793
0.00478698
0.00640407
0.00844429
0.00250679
0.00126609
9.36797e-05
0.000729717
0.001095
0.00109933
0.000912953
0.000373443
0.000255244
0.000955071
0.00147761
0.00190363
0.00187531
0.00173526
0.00162033
0.00202079
0.00228948
0.00371717
0.00485713
0.00596496
0.00143644
0.001013
7.8429e-05
0.00055866
0.000620571
0.000805849
0.000637478
0.000353457
0.000186127
0.000701451
0.00101758
0.00118751
0.00116296
0.00105747
0.00142484
0.00117332
0.00152713
0.00216558
0.00303981
0.00379249
0.000393815
0.000224682
2.39767e-05
8.33487e-05
0.000148976
0.000358321
0.000154522
8.45966e-05
9.98603e-05
0.000142881
8.27247e-05
0.00029423
0.000310427
0.000543835
0.000460625
0.000501569
0.00071114
0.000771565
0.00109907
0.00127804
0.00422572
0.000880109
0.0022722
0.00481897
0.00568629
0.00568748
0.00463103
0.00319941
0.00145485
0.000248179
0.00154155
0.00250454
0.00278898
0.00290355
0.00306112
0.00367715
0.00533369
0.00774782
0.0111071
0.0150054
0.00435227
0.00131595
0.00148135
0.0037385
0.00461872
0.0046978
0.00362722
0.00245347
0.00117197
0.00029025
0.00179687
0.00257932
0.00265136
0.00271707
0.00290541
0.00352259
0.00492591
0.00689596
0.0101142
0.0133476
0.00399036
0.00127443
0.000851252
0.00288863
0.00359598
0.00354195
0.00315438
0.00201921
0.000703958
0.000682363
0.00158151
0.00239419
0.00255787
0.00260205
0.0026714
0.00313558
0.00469546
0.00632274
0.00873075
0.0114408
0.00364302
0.00138388
0.000520972
0.00242027
0.0029143
0.00276586
0.00249696
0.00153434
0.000424258
0.000708296
0.00158128
0.00188845
0.0023656
0.00205493
0.00222546
0.00294205
0.00366391
0.00536195
0.00752455
0.00972158
0.00302644
0.00142865
0.000615003
0.00142429
0.00221445
0.00193731
0.00175184
0.00124539
0.000385739
0.000548129
0.00137452
0.00189964
0.00164713
0.00194975
0.00178125
0.00217958
0.00315907
0.00425078
0.0061999
0.00773252
0.00224712
0.00109243
0.000217083
0.000924091
0.00149152
0.00172463
0.00124041
0.000786799
0.000221012
0.000528922
0.00125047
0.00145442
0.00129631
0.00149254
0.0014435
0.00178478
0.00214929
0.00308757
0.00439188
0.00584564
0.0013667
0.000765585
5.76597e-05
0.000471209
0.000668772
0.000975518
0.000921552
0.000572719
0.000224991
0.000534921
0.000584913
0.000812581
0.000721821
0.000753545
0.000868939
0.00122035
0.00135054
0.0021864
0.00262435
0.00339452
0.000606564
0.000161633
6.00221e-05
2.45077e-05
0.000201198
0.000311421
0.000142916
0.000198679
6.56719e-05
0.000101469
0.000276149
0.000179462
0.000657315
0.00013211
0.000359392
4.74957e-05
0.00049909
0.000644972
0.00117067
0.00133028
0.00295269
0.00049972
0.00353089
0.00576933
0.00682333
0.00680327
0.00619501
0.00474704
0.00330276
0.00163676
0.000485628
0.000249942
0.000737329
0.000894499
0.00157392
0.00208402
0.00363211
0.00618351
0.00942211
0.013167
0.00295336
0.000260318
0.00274935
0.00452091
0.00531512
0.00558893
0.00509996
0.00389384
0.00250264
0.00134589
2.54455e-05
0.000537443
0.000932798
0.0009135
0.00129191
0.00210113
0.00337805
0.00583869
0.00861321
0.0116979
0.00289171
0.000559703
0.00176371
0.00356145
0.00439748
0.00469974
0.00383144
0.00332229
0.00213215
0.000843514
0.000226348
0.000640116
0.00117255
0.00133986
0.00146282
0.00188395
0.00313097
0.00491483
0.00778523
0.0102129
0.00263142
0.000634036
0.00143351
0.00271577
0.0036648
0.0035864
0.00319561
0.00257695
0.00134288
0.000688925
0.000136117
0.000746396
0.000756408
0.00111907
0.00138387
0.00186642
0.00294253
0.0042533
0.00640751
0.00842134
0.00225093
0.0006832
0.000669519
0.00196918
0.00262215
0.00311712
0.00243578
0.00197387
0.00107867
0.000322214
0.000170119
0.000674235
0.000786739
0.000918781
0.00125858
0.00134379
0.00263598
0.00336516
0.00511494
0.00697075
0.00186917
0.000810015
0.00085288
0.00150971
0.00180309
0.00201249
0.0017315
0.00154153
0.000795099
0.000186472
0.000206588
0.000481146
0.000245327
0.000772259
0.000760112
0.00117401
0.0017513
0.00254569
0.00385259
0.00511791
0.00140959
0.000423619
0.000522782
0.0007577
0.00131143
0.00110724
0.0010306
0.00102744
0.000669523
0.000143086
1.35903e-05
0.000220474
0.000311287
0.000380015
0.000471235
0.000791841
0.00124622
0.00175294
0.00243603
0.00312038
0.000335317
2.31758e-05
9.73655e-05
0.000297041
0.000300179
0.00046655
0.00046161
0.000123893
0.000289475
0.000147124
0.000162035
0.000242451
1.04592e-05
4.98158e-05
0.000442386
0.000285157
0.000483702
0.000585818
0.000810873
0.000866193
0.00138049
0.00214742
0.00528423
0.00726806
0.00815826
0.00852351
0.00796058
0.00690623
0.00576734
0.00425377
0.00316358
0.00251009
0.00198873
0.0013951
0.00110605
7.42081e-05
0.00128241
0.00394273
0.00736962
0.0107524
0.00157988
0.00107315
0.00400692
0.00583605
0.00701055
0.0069871
0.00676258
0.00588604
0.00466613
0.00334553
0.00252099
0.00159288
0.00122748
0.0010739
0.000512191
0.000266549
0.00165894
0.00378262
0.00695953
0.00983028
0.00189518
0.00048644
0.00294693
0.00488259
0.00535412
0.00583835
0.00540655
0.00471927
0.00374177
0.00287144
0.00173158
0.00135104
0.000926727
0.000803055
0.000309452
0.0003
0.00159952
0.00357714
0.00594762
0.0086476
0.00174415
7.56067e-05
0.00208278
0.00371793
0.00433901
0.00452109
0.00437611
0.00363055
0.00302671
0.00217953
0.0014215
0.000884488
0.000611482
0.000266862
0.000165024
0.000386762
0.00154407
0.00310086
0.0052452
0.00715981
0.00160322
0.000274251
0.0015941
0.0026135
0.0035938
0.0037628
0.00352012
0.00300474
0.00256719
0.00164039
0.000911427
0.000736476
0.000574426
0.000188937
9.97832e-05
0.000343
0.00126543
0.00234676
0.00430784
0.0058669
0.00143016
3.56992e-05
0.000909203
0.00191918
0.00244065
0.0023805
0.00243578
0.00203445
0.0016458
0.000959053
0.00061695
0.000642772
0.000408724
0.000380973
0.00011611
0.000544689
0.000966192
0.00177791
0.0032249
0.00412106
0.000954686
4.39244e-05
0.000651934
0.0011263
0.00152471
0.00164671
0.00181667
0.00117567
0.0011152
0.000785968
0.000495097
5.28927e-05
0.000232591
5.12278e-05
0.000126844
4.48071e-06
0.000712562
0.00122418
0.00193327
0.00260771
0.00053973
0.000164992
0.000139134
0.000367376
0.000675674
0.000566447
0.000404952
0.000391674
0.000328022
0.00026286
2.01068e-05
0.000102595
0.000160651
0.000221411
4.77338e-05
0.000189053
0.000267383
0.000683156
0.000781037
0.00113924
0.000928077
0.00411515
0.00706696
0.0089854
0.010337
0.0106009
0.010295
0.00934435
0.0082463
0.00715464
0.00609058
0.00534492
0.00480096
0.00428554
0.00368918
0.00273571
0.00101913
0.00143488
0.00480483
0.00834906
0.000254874
0.00286838
0.00572677
0.00770031
0.00887777
0.00910811
0.00869564
0.00802289
0.00688198
0.00603906
0.00496438
0.00455052
0.00408046
0.00340575
0.00319812
0.00213762
0.000579106
0.00159006
0.00435549
0.00737961
0.000301437
0.00206336
0.00446166
0.00632759
0.00702796
0.00746227
0.0071221
0.00669972
0.00585762
0.00489739
0.00440291
0.00380843
0.00329198
0.00285038
0.00237531
0.00172668
0.000416663
0.00156946
0.00394402
0.00644585
0.000528902
0.00162497
0.00356605
0.00485634
0.00570414
0.00598366
0.00574968
0.00531603
0.00464934
0.00408008
0.0034511
0.00285732
0.00256631
0.00236358
0.00202019
0.000978217
0.000263975
0.00127548
0.00338947
0.00553283
0.000384069
0.00123527
0.00273001
0.00401256
0.00441315
0.00447968
0.00476821
0.00430631
0.00363481
0.0031143
0.00249268
0.00245013
0.0016634
0.00181101
0.00152903
0.000828788
1.75415e-05
0.00119951
0.00284577
0.00456295
0.000310851
0.000716333
0.00220237
0.00279648
0.00340966
0.00334793
0.00319527
0.00302072
0.0026903
0.00225544
0.00183314
0.00163752
0.0015051
0.00131141
0.00107937
0.000814354
7.21915e-06
0.000754505
0.00210068
0.00346314
0.000410155
0.000404627
0.00105169
0.00149348
0.00195556
0.00220467
0.00193311
0.00168652
0.00168191
0.00117559
0.00114209
0.00110806
0.000929169
0.000862768
0.000495644
0.000406717
8.05678e-05
0.000668347
0.00151342
0.00215302
0.000398332
0.000365448
0.000382441
0.000718637
0.000601097
0.000803267
0.000666822
0.000665635
0.000431939
0.000412091
0.000421548
0.000452283
0.000285614
5.59615e-05
0.000191352
0.000154831
0.000188438
0.000344093
0.000466618
0.000533555
0.00346564
0.00641679
0.00949893
0.0116668
0.0127806
0.0133263
0.0128992
0.0124152
0.0113296
0.0102748
0.00947353
0.00864601
0.00810128
0.00768419
0.00690974
0.0055528
0.00390806
0.00151251
0.00188987
0.00522781
0.00245793
0.00524031
0.00793109
0.00963144
0.0109011
0.0116061
0.0112498
0.0104383
0.00989245
0.00893317
0.00836812
0.00749681
0.00708653
0.0063999
0.0057905
0.00472691
0.00312378
0.000973811
0.00187268
0.00477152
0.00198776
0.0041166
0.006363
0.00807803
0.00884273
0.00948154
0.00935942
0.00883985
0.00813025
0.00756192
0.00689779
0.00643062
0.00591672