/*--------------------------------*- C++ -*----------------------------------*\
| =========                 |                                                 |
| \\      /  F ield         | OpenFOAM: The Open Source CFD Toolbox           |
|  \\    /   O peration     | Version:  2212                                  |
|   \\  /    A nd           | Website:  www.openfoam.com                      |
|    \\/     M anipulation  |                                                 |
\*---------------------------------------------------------------------------*/
FoamFile
{
    version     2.0;
    format      ascii;
    arch        "LSB;label=32;scalar=64";
    class       volScalarField;
    location    "0";
    object      stateMean;
}
// * * * * * * * * * * * * * * * * * * * * * * * * * * * * * * * * * * * * * //

dimensions      [0 0 0 1 0 0 0];

internalField   nonuniform List<scalar> 
3200
(
348.576
347.169
346.138
345.814
346.094
346.865
347.714
348.522
349.441
350.03
350.46
350.606
350.64
350.298
349.975
349.809
349.868
350.418
351.579
353.076
342.245
341.086
340.162
339.874
340.178
340.73
341.484
342.231
342.869
343.583
343.859
343.982
343.995
343.732
343.449
343.249
343.328
343.735
344.79
346.013
335.837
334.861
334.102
333.98
334.191
334.593
335.248
335.955
336.422
336.964
337.183
337.261
337.256
337.043
336.849
336.629
336.724
337.072
337.971
338.956
329.446
328.63
328.037
327.874
327.946
328.309
328.855
329.399
329.848
330.186
330.517
330.576
330.544
330.358
330.094
330.017
330.106
330.408
331.011
331.934
322.925
322.4
321.832
321.716
321.869
322.109
322.569
322.922
323.206
323.56
323.806
323.783
323.657
323.601
323.398
323.338
323.4
323.647
324.134
324.882
316.403
315.956
315.635
315.523
315.634
315.824
316.115
316.369
316.646
316.797
317.011
316.936
317.002
316.821
316.799
316.746
316.683
316.926
317.294
317.718
309.895
309.565
309.381
309.367
309.409
309.488
309.626
309.804
309.969
310.164
310.298
310.167
310.221
310.237
310.085
310.048
310.116
310.205
310.353
310.634
303.263
303.251
303.133
303.135
303.1
303.246
303.257
303.286
303.277
303.413
303.336
303.457
303.479
303.376
303.363
303.377
303.354
303.443
303.512
303.55
348.597
347.285
346.362
346.019
346.393
347.144
348.046
348.981
349.779
350.533
351.003
351.197
351.057
350.682
350.402
350.127
350.167
350.777
351.83
353.173
342.373
341.161
340.31
340.119
340.425
340.93
341.771
342.572
343.311
343.965
344.292
344.479
344.297
344.054
343.767
343.543
343.535
343.974
344.914
346.131
335.987
335.025
334.357
334.001
334.334
334.858
335.438
336.115
336.68
337.257
337.561
337.656
337.555
337.258
337.105
336.878
336.884
337.255
338.085
339.08
329.556
328.745
328.148
327.955
328.133
328.547
329.109
329.575
330.08
330.517
330.755
330.86
330.775
330.541
330.343
330.164
330.224
330.504
331.183
331.976
322.977
322.432
321.96
321.805
322.009
322.233
322.594
323.128
323.477
323.821
324.022
324.017
324.013
323.785
323.658
323.519
323.588
323.721
324.348
324.932
316.522
315.998
315.714
315.655
315.723
315.922
316.144
316.564
316.819
316.974
317.182
317.168
317.022
317.009
317.005
316.814
316.83
316.963
317.364
317.789
309.873
309.659
309.339
309.364
309.41
309.587
309.755
309.956
310.114
310.255
310.302
310.316
310.261
310.266
310.164
310.079
310.172
310.226
310.439
310.668
303.282
303.235
303.15
303.217
303.17
303.141
303.314
303.308
303.368
303.373
303.419
303.392
303.41
303.414
303.4
303.448
303.342
303.427
303.505
303.652
349.026
347.734
346.765
346.571
346.893
347.715
348.647
349.642
350.602
351.278
351.727
351.924
351.815
351.442
350.988
350.715
350.662
351.154
352.249
353.683
342.718
341.536
340.807
340.517
340.845
341.543
342.358
343.19
344.008
344.567
345.02
345.13
345.028
344.627
344.269
344.011
344.046
344.313
345.316
346.572
336.24
335.439
334.616
334.503
334.604
335.227
335.872
336.736
337.327
337.814
338.138
338.204
338.112
337.85
337.577
337.326
337.366
337.652
338.387
339.49
329.742
328.942
328.489
328.259
328.39
328.844
329.466
329.99
330.591
330.979
331.297
331.367
331.231
331.003
330.836
330.607
330.62
330.923
331.568
332.206
323.198
322.607
322.202
322.089
322.197
322.506
322.95
323.424
323.834
324.153
324.332
324.427
324.304
324.174
323.916
323.794
323.712
324.012
324.454
325.084
316.636
316.217
315.812
315.75
315.905
316.126
316.426
316.752
317.038
317.314
317.392
317.502
317.398
317.28
317.143
317.039
316.974
317.184
317.537
317.914
309.964
309.747
309.545
309.482
309.545
309.697
309.909
310.099
310.207
310.464
310.457
310.507
310.472
310.445
310.362
310.196
310.251
310.295
310.512
310.775
303.291
303.266
303.184
303.213
303.222
303.227
303.362
303.372
303.389
303.454
303.557
303.487
303.602
303.464
303.369
303.407
303.446
303.471
303.484
303.558
349.756
348.44
347.468
347.353
347.651
348.483
349.413
350.548
351.631
352.411
352.881
353.048
352.854
352.413
352.056
351.663
351.44
351.93
352.953
354.392
343.286
342.194
341.391
341.195
341.541
342.26
343.075
344.029
344.796
345.527
345.985
345.991
345.835
345.504
345.128
344.828
344.765
345.103
345.993
347.085
336.747
335.815
335.238
334.963
335.206
335.847
336.536
337.285
337.979
338.606
338.958
339.06
338.932
338.536
338.261
337.922
337.9
338.204
338.922
339.819
330.151
329.405
328.911
328.731
328.907
329.441
329.979
330.527
331.183
331.585
331.916
331.976
331.814
331.552
331.367
331.09
331.084
331.327
331.932
332.632
323.43
322.931
322.504
322.46
322.551
322.913
323.339
323.831
324.225
324.623
324.901
324.856
324.754
324.657
324.372
324.146
324.119
324.334
324.937
325.45
316.793
316.417
316.164
316.12
316.132
316.392
316.749
317.1
317.321
317.569
317.813
317.762
317.758
317.645
317.422
317.332
317.285
317.412
317.78
318.18
310.118
309.859
309.742
309.605
309.728
309.881
310.082
310.244
310.483
310.631
310.645
310.774
310.65
310.598
310.496
310.44
310.34
310.488
310.709
310.891
303.449
303.337
303.231
303.211
303.247
303.248
303.417
303.399
303.536
303.555
303.519
303.598
303.533
303.589
303.468
303.504
303.456
303.488
303.604
303.643
350.704
349.511
348.536
348.371
348.721
349.518
350.543
351.629
352.679
353.562
354.104
354.193
354.069
353.607
353.068
352.718
352.54
352.991
353.976
355.325
344.058
343.016
342.258
342.106
342.476
343.067
343.903
344.912
345.783
346.405
346.994
347.015
346.909
346.502
346.061
345.668
345.66
345.965
346.833
347.916
337.433
336.57
335.895
335.802
335.993
336.57
337.31
338.108
338.836
339.407
339.75
339.88
339.757
339.436
339.098
338.829
338.701
338.976
339.725
340.539
330.737
330.062
329.504
329.438
329.572
329.983
330.635
331.29
331.831
332.26
332.725
332.654
332.577
332.262
332.063
331.725
331.685
331.911
332.537
333.228
323.97
323.444
322.979
322.889
323.055
323.34
323.835
324.341
324.786
325.115
325.468
325.491
325.362
325.146
324.89
324.739
324.688
324.847
325.356
325.848
317.169
316.726
316.468
316.407
316.407
316.765
317.119
317.404
317.728
317.975
318.128
318.186
318.113
317.979
317.794
317.628
317.623
317.771
318.093
318.437
310.355
310.078
310.018
309.907
309.984
310.042
310.26
310.493
310.625
310.841
310.9
310.898
310.904
310.792
310.681
310.669
310.555
310.722
310.844
311.108
303.48
303.349
303.325
303.365
303.339
303.348
303.461
303.576
303.592
303.61
303.613
303.64
303.715
303.59
303.617
303.527
303.534
303.632
303.704
303.781
351.874
350.637
349.737
349.617
349.864
350.795
351.771
352.847
353.973
354.908
355.44
355.591
355.359
354.898
354.341
353.919
353.828
354.147
355.163
356.489
345.094
344.054
343.304
343.22
343.457
344.083
345.004
345.981
346.932
347.612
348.138
348.251
348.078
347.632
347.212
346.877
346.79
347.059
347.77
348.991
338.307
337.433
336.871
336.646
336.994
337.551
338.226
338.973
339.787
340.409
340.786
341.005
340.697
340.457
339.985
339.722
339.598
339.882
340.581
341.459
331.44
330.817
330.237
330.096
330.235
330.833
331.294
331.973
332.574
333.064
333.439
333.478
333.381
333.072
332.744
332.521
332.41
332.661
333.204
333.965
324.542
323.878
323.623
323.474
323.644
323.953
324.467
324.954
325.332
325.704
325.99
326.072
326.012
325.796
325.5
325.324
325.267
325.414
325.908
326.345
317.508
317.16
316.911
316.87
316.95
317.153
317.429
317.887
318.177
318.448
318.693
318.703
318.532
318.419
318.249
318.054
318.042
318.151
318.489
318.888
310.541
310.312
310.074
310.155
310.203
310.266
310.455
310.734
310.951
310.954
311.234
311.193
311.111
311.064
310.954
310.921
310.862
310.887
311.136
311.35
303.543
303.465
303.463
303.344
303.419
303.451
303.539
303.515
303.679
303.62
303.717
303.807
303.787
303.729
303.616
303.659
303.679
303.705
303.646
303.777
353.144
352.136
351.254
351.049
351.33
352.082
353.131
354.279
355.347
356.233
356.856
356.982
356.708
356.324
355.803
355.372
355.241
355.718
356.529
357.761
346.286
345.301
344.671
344.423
344.726
345.312
346.196
347.183
348.17
348.822
349.395
349.503
349.299
348.909
348.376
348.045
347.97
348.227
349.136
350.117
339.327
338.537
337.891
337.734
338.01
338.497
339.286
340
340.883
341.423
341.818
341.982
341.848
341.39
341.032
340.783
340.615
340.919
341.551
342.417
332.21
331.636
331.173
330.894
331.157
331.555
332.122
332.812
333.422
333.921
334.361
334.46
334.22
333.811
333.554
333.327
333.277
333.435
334.059
334.798
325.05
324.646
324.277
324.169
324.298
324.589
325.015
325.596
326.105
326.454
326.678
326.791
326.752
326.455
326.172
326.048
325.939
326.129
326.527
327.046
318.003
317.691
317.39
317.323
317.406
317.679
317.897
318.282
318.563
318.885
319.134
319.085
318.977
319.003
318.675
318.557
318.586
318.622
318.987
319.299
310.82
310.593
310.506
310.47
310.443
310.548
310.733
311.087
311.203
311.362
311.467
311.452
311.384
311.32
311.181
311.21
311.235
311.186
311.388
311.642
303.646
303.579
303.524
303.54
303.607
303.552
303.637
303.691
303.721
303.841
303.854
303.806
303.889
303.799
303.816
303.703
303.751
303.807
303.742
303.877
354.635
353.66
352.831
352.596
352.847
353.579
354.671
355.711
356.79
357.746
358.329
358.506
358.311
357.765
357.239
356.922
356.684
357.146
358.034
359.217
347.648
346.661
346
345.847
346.005
346.596
347.466
348.355
349.421
350.198
350.648
350.831
350.708
350.202
349.675
349.427
349.332
349.662
350.342
351.457
340.377
339.577
339.032
338.921
339.078
339.615
340.327
341.116
341.827
342.545
342.937
343.063
342.843
342.496
342.154
341.869
341.73
342.1
342.753
343.479
333.154
332.569
332.081
331.895
332.081
332.455
333.037
333.668
334.314
334.864
335.207
335.226
335.116
334.81
334.492
334.33
334.233
334.49
334.982
335.587
325.823
325.456
325.025
324.935
324.983
325.349
325.741
326.296
326.8
327.157
327.443
327.516
327.406
327.158
326.862
326.654
326.669
326.792
327.237
327.755
318.547
318.205
317.881
317.848
317.875
318.099
318.427
318.822
319.114
319.446
319.633
319.681
319.607
319.4
319.267
319.089
319.096
319.257
319.504
319.837
311.173
310.971
310.778
310.743
310.775
310.915
311.115
311.287
311.524
311.649
311.78
311.759
311.801
311.63
311.641
311.481
311.486
311.52
311.688
311.98
303.744
303.679
303.619
303.614
303.64
303.649
303.707
303.754
303.857
303.916
303.865
304.002
303.923
303.911
303.886
303.854
303.76
303.828
303.953
303.937
356.403
355.359
354.583
354.287
354.499
355.095
356.128
357.207
358.329
359.256
359.831
360.099
359.813
359.334
358.858
358.484
358.366
358.828
359.698
360.715
349.066
348.211
347.445
347.265
347.507
347.999
348.812
349.749
350.583
351.456
352.025
352.119
352.025
351.551
351.036
350.724
350.736
351.073
351.739
352.808
341.626
340.88
340.425
340.043
340.284
340.757
341.404
342.175
342.973
343.586
344.07
344.201
343.992
343.619
343.368
343.013
342.918
343.295
343.839
344.672
334.107
333.566
333.095
332.932
333.024
333.415
333.963
334.622
335.124
335.754
336.018
336.193
336.019
335.718
335.543
335.278
335.162
335.461
335.903
336.57
326.631
326.178
325.767
325.686
325.793
326.008
326.435
326.97
327.383
327.844
328.033
328.144
328.118
327.884
327.689
327.446
327.39
327.633
328.003
328.457
319.107
318.761
318.538
318.455
318.49
318.617
319.003
319.268
319.61
319.974
320.137
320.163
320.025
319.992
319.764
319.672
319.555
319.782
319.933
320.341
311.506
311.316
311.111
311.009
311.057
311.187
311.41
311.521
311.812
312.026
312.052
312.141
312.018
311.959
311.81
311.698
311.743
311.828
312.004
312.191
303.779
303.79
303.716
303.662
303.641
303.733
303.811
303.88
304.005
303.989
303.999
304.052
304.091
304.023
304.024
303.976
303.945
303.952
304.013
304.12
358.059
357.037
356.258
356.03
356.248
356.812
357.763
358.67
359.859
360.672
361.325
361.578
361.332
360.824
360.377
360.08
360.022
360.394
361.314
362.349
350.51
349.743
349.019
348.775
348.976
349.481
350.202
351.019
352.016
352.798
353.261
353.459
353.288
352.876
352.544
352.202
352.059
352.509
353.243
354.158
342.94
342.282
341.627
341.46
341.544
342.01
342.588
343.304
344.098
344.793
345.116
345.221
345.061
344.861
344.446
344.267
344.223
344.497
345.094
345.822
335.172
334.683
334.163
333.956
334.081
334.403
335.023
335.559
336.153
336.707
337.024
337.122
336.899
336.717
336.431
336.24
336.217
336.411
336.937
337.531
327.492
327.039
326.669
326.444
326.592
326.867
327.161
327.702
328.111
328.526
328.83
328.914
328.811
328.585
328.445
328.19
328.154
328.362
328.763
329.241
319.62
319.372
319.068
318.947
318.996
319.186
319.497
319.778
320.093
320.394
320.617
320.689
320.569
320.489
320.268
320.173
320.261
320.318
320.58
320.928
311.792
311.633
311.515
311.385
311.434
311.582
311.726
311.939
312.084
312.269
312.388
312.426
312.424
312.278
312.166
312.154
312.13
312.163
312.421
312.573
303.964
303.907
303.857
303.862
303.732
303.901
303.909
304.019
304.064
304.079
304.174
304.174
304.092
304.066
304.07
304.073
304.025
304.067
304.183
304.231
359.978
358.941
358.13
357.781
357.96
358.476
359.389
360.288
361.297
362.235
362.789
363.026
362.807
362.459
361.937
361.668
361.679
362.158
363.028
364.038
352.098
351.304
350.601
350.317
350.413
350.913
351.614
352.412
353.294
354.007
354.63
354.68
354.511
354.226
353.812
353.564
353.634
353.977
354.724
355.558
344.295
343.519
343.056
342.746
342.892
343.212
343.745
344.51
345.128
345.824
346.175
346.318
346.291
345.874
345.596
345.382
345.455
345.694
346.373
347.119
336.296
335.755
335.295
335.054
335.167
335.487
335.878
336.459
337.03
337.551
337.916
338.045
337.871
337.694
337.329
337.169
337.233
337.436
337.969
338.602
328.282
327.917
327.467
327.373
327.43
327.614
327.972
328.441
328.868
329.264
329.502
329.6
329.499
329.348
329.08
328.995
328.938
329.197
329.532
330.03
320.284
319.924
319.668
319.607
319.61
319.769
319.993
320.319
320.613
320.952
321.146
321.134
321.14
321.009
320.808
320.681
320.758
320.854
321.163
321.487
312.203
311.838
311.872
311.731
311.76
311.871
311.971
312.214
312.362
312.568
312.669
312.745
312.75
312.638
312.569
312.394
312.402
312.623
312.673
312.842
304.091
304.031
303.91
303.991
303.996
304.018
304.106
304.13
304.225
304.266
304.203
304.241
304.258
304.19
304.157
304.18
304.163
304.174
304.336
304.376
361.791
360.708
359.969
359.645
359.789
360.169
361.01
361.852
362.77
363.528
364.108
364.311
364.253
363.888
363.509
363.297
363.426
363.924
364.743
365.702
353.751
352.901
352.228
351.871
352.065
352.376
353.1
353.824
354.58
355.18
355.734
355.793
355.719
355.534
355.196
355.063
355.101
355.453
356.149
357.068
345.574
344.909
344.322
344.145
344.151
344.505
344.986
345.593
346.296
346.87
347.16
347.453
347.202
347.026
346.772
346.611
346.71
347.014
347.67
348.301
337.456
336.922
336.407
336.262
336.24
336.503
336.882
337.444
337.919
338.472
338.711
338.86
338.772
338.479
338.365
338.156
338.256
338.573
338.962
339.614
329.122
328.802
328.457
328.176
328.259
328.46
328.742
329.172
329.549
329.901
330.181
330.249
330.209
330.009
329.909
329.73
329.829
329.994
330.324
330.84
320.872
320.583
320.35
320.237
320.27
320.409
320.594
320.87
321.144
321.407
321.574
321.673
321.592
321.444
321.282
321.269
321.205
321.511
321.733
321.979
312.508
312.44
312.233
312.126
312.196
312.223
312.351
312.502
312.713
312.897
312.996
313.026
312.976
312.881
312.92
312.757
312.777
312.885
313.073
313.243
304.163
304.133
304.1
304.099
304.109
304.073
304.161
304.202
304.273
304.293
304.275
304.333
304.322
304.373
304.322
304.307
304.34
304.328
304.399
304.432
363.583
362.698
361.956
361.447
361.539
361.921
362.644
363.441
364.273
364.996
365.468
365.718
365.625
365.389
365.105
364.944
365.134
365.591
366.404
367.486
355.388
354.59
353.945
353.504
353.545
353.85
354.523
355.18
355.806
356.414
356.951
357.142
356.998
356.781
356.553
356.437
356.579
356.914
357.706
358.571
346.995
346.285
345.84
345.44
345.495
345.795
346.178
346.774
347.374
347.931
348.244
348.451
348.365
348.177
347.951
347.829
348.068
348.324
348.863
349.57
338.589
338.01
337.605
337.213
337.291
337.572
337.866
338.358
338.851
339.296
339.592
339.635
339.68
339.408
339.261
339.272
339.27
339.592
340.083
340.64
330.081
329.696
329.207
329.135
329.066
329.337
329.556
329.852
330.228
330.583
330.856
330.983
330.807
330.778
330.564
330.515
330.645
330.81
331.267
331.63
321.516
321.246
320.956
320.868
320.823
320.876
321.145
321.383
321.63
321.905
322.137
322.169
322.053
322.024
321.894
321.875
321.855
322.017
322.304
322.67
312.922
312.794
312.616
312.57
312.59
312.571
312.657
312.821
312.969
313.226
313.242
313.293
313.226
313.181
313.148
313.181
313.139
313.318
313.375
313.556
304.374
304.258
304.218
304.257
304.23
304.222
304.297
304.298
304.391
304.409
304.462
304.426
304.558
304.38
304.426
304.305
304.416
304.432
304.565
304.594
365.494
364.537
363.799
363.361
363.347
363.7
364.228
365.005
365.709
366.411
366.834
367.013
367.016
366.826
366.767
366.605
366.797
367.346
368.155
369.216
356.949
356.246
355.491
355.189
355.227
355.429
355.869
356.514
357.164
357.657
358.13
358.252
358.242
358.02
357.889
357.875
358.007
358.552
359.221
360.061
348.354
347.756
347.216
346.869
346.851
347
347.527
347.886
348.43
348.946
349.32
349.398
349.455
349.331
349.149
349.039
349.199
349.539
350.267
350.897
339.67
339.164
338.681
338.474
338.376
338.611
338.927
339.286
339.811
340.088
340.368
340.522
340.42
340.394
340.3
340.255
340.395
340.61
341.121
341.632
330.932
330.545
330.268
330.016
329.973
329.972
330.34
330.609
330.988
331.28
331.443
331.568
331.524
331.451
331.421
331.286
331.539
331.601
332.009
332.491
322.185
321.938
321.523
321.439
321.468
321.518
321.71
321.854
322.153
322.38
322.507
322.564
322.43
322.517
322.411
322.427
322.489
322.616
322.916
323.23
313.41
313.157
312.933
312.936
312.837
312.971
313.057
313.107
313.254
313.438
313.487
313.533
313.527
313.499
313.466
313.496
313.563
313.646
313.787
313.946
304.45
304.374
304.361
304.326
304.351
304.323
304.345
304.464
304.426
304.475
304.569
304.588
304.499
304.501
304.6
304.529
304.563
304.569
304.614
304.612
367.479
366.46
365.646
365.263
365.272
365.449
365.93
366.54
367.115
367.755
368.158
368.318
368.355
368.351
368.183
368.303
368.409
369.037
369.955
370.918
358.677
357.961
357.201
356.845
356.716
356.995
357.313
357.82
358.395
358.94
359.237
359.501
359.497
359.36
359.323
359.33
359.535
359.995
360.84
361.631
349.884
349.247
348.633
348.21
348.293
348.353
348.705
349.109
349.566
349.931
350.331
350.405
350.439
350.319
350.291
350.273
350.479
350.914
351.495
352.242
340.905
340.441
339.958
339.61
339.601
339.727
339.942
340.329
340.629
340.967
341.226
341.361
341.36
341.345
341.214
341.213
341.403
341.724
342.253
342.748
331.911
331.41
331.127
330.952
330.785
330.875
331.084
331.359
331.578
331.923
332.165
332.186
332.167
332.191
332.092
332.092
332.239
332.434
332.929
333.324
322.897
322.533
322.339
322.129
322.073
322.197
322.272
322.476
322.653
322.902
323.013
322.977
323.001
322.936
322.929
323.037
323.06
323.206
323.561
323.765
313.78
313.545
313.394
313.315
313.258
313.282
313.284
313.53
313.58
313.7
313.792
313.947
313.826
313.838
313.839
313.735
313.892
313.982
314.137
314.298
304.684
304.587
304.517
304.47
304.399
304.453
304.522
304.541
304.57
304.596
304.67
304.639
304.611
304.712
304.611
304.663
304.663
304.767
304.775
304.867
369.361
368.438
367.653
367.258
367.062
367.245
367.603
368.153
368.7
369.178
369.573
369.779
369.842
369.835
369.811
369.881
370.21
370.801
371.738
372.791
360.385
359.658
358.894
358.454
358.294
358.454
358.816
359.232
359.765
360.132
360.521
360.61
360.659
360.731
360.592
360.73
361.027
361.535
362.264
363.137
351.328
350.677
350.058
349.635
349.612
349.666
349.967
350.261
350.659
351.05
351.225
351.382
351.462
351.472
351.458
351.478
351.714
352.179
352.788
353.486
342.127
341.534
341.053
340.802
340.695
340.77
340.998
341.265
341.577
341.816
342.032
342.192
342.209
342.159
342.128
342.315
342.375
342.711
343.25
343.838
332.78
332.351
331.996
331.718
331.727
331.837
331.856
332.103
332.392
332.599
332.806
332.788
332.984
332.842
332.82
332.921
333.06
333.304
333.709
334.17
323.445
323.19
322.811
322.725
322.629
322.744
322.875
322.998
323.152
323.317
323.454
323.493
323.489
323.485
323.478
323.469
323.632
323.768
324.101
324.464
314.155
313.946
313.804
313.728
313.644
313.623
313.758
313.876
313.905
314.078
314.089
314.086
314.114
314.095
314.16
314.131
314.222
314.344
314.548
314.702
304.823
304.607
304.621
304.541
304.597
304.555
304.613
304.627
304.707
304.718
304.715
304.701
304.743
304.833
304.742
304.827
304.817
304.843
304.86
304.865
371.295
370.429
369.561
369.038
368.897
368.946
369.326
369.683
370.213
370.671
370.971
371.217
371.297
371.277
371.345
371.598
371.935
372.541
373.526
374.534
362.075
361.263
360.529
360.159
359.937
359.9
360.22
360.669
360.975
361.381
361.587
361.849
361.891
361.987
362.018
362.184
362.526
363.057
363.846
364.699
352.623
352.034
351.445
351.049
350.982
350.943
351.147
351.461
351.803
352.053
352.288
352.406
352.498
352.571
352.548
352.748
353.109
353.501
354.127
354.915
343.259
342.765
342.284
341.881
341.834
341.855
341.977
342.22
342.499
342.735
342.885
343.051
343.06
343.112
343.121
343.263
343.428
343.774
344.387
344.946
333.686
333.281
332.948
332.653
332.572
332.666
332.739
332.839
333.058
333.248
333.439
333.538
333.556
333.614
333.526
333.612
333.829
334.173
334.489
335.001
324.117
323.827
323.557
323.471
323.316
323.303
323.423
323.579
323.703
323.822
323.869
323.984
323.952
324.016
324.059
324.153
324.241
324.454
324.696
324.99
314.544
314.313
314.175
314.094
313.976
313.931
314.111
314.189
314.261
314.401
314.373
314.456
314.409
314.395
314.466
314.468
314.543
314.605
314.841
315.004
304.871
304.844
304.832
304.728
304.695
304.775
304.705
304.701
304.784
304.839
304.84
304.834
304.778
304.909
304.839
304.799
304.908
304.887
304.983
305.036
373.259
372.282
371.387
370.826
370.742
370.693
370.871
371.208
371.62
372.049
372.353
372.625
372.745
372.783
372.963
373.13
373.638
374.176
375.241
376.259
363.697
362.918
362.149
361.692
361.49
361.477
361.733
361.987
362.204
362.608
362.895
363.035
363.197
363.25
363.396
363.488
363.869
364.588
365.331
366.233
354.134
353.41
352.848
352.415
352.241
352.21
352.37
352.617
352.88
353.131
353.315
353.571
353.624
353.719
353.739
353.956
354.277
354.713
355.372
356.076
344.409
343.903
343.391
343.024
342.85
342.792
342.95
343.151
343.377
343.591
343.681
343.807
343.913
343.973
344.013
344.169
344.419
344.831
345.4
345.941
334.588
334.193
333.851
333.514
333.404
333.448
333.496
333.605
333.824
333.961
334.129
334.195
334.263
334.285
334.291
334.422
334.577
334.895
335.311
335.757
324.664
324.478
324.182
323.995
323.973
323.89
323.971
323.925
324.094
324.325
324.401
324.455
324.441
324.527
324.541
324.598
324.737
324.977
325.255
325.65
314.867
314.682
314.558
314.348
314.352
314.368
314.431
314.433
314.502
314.675
314.634
314.701
314.712
314.719
314.812
314.76
314.816
314.97
315.216
315.414
305.074
304.922
304.87
304.83
304.762
304.85
304.814
304.877
304.822
304.909
304.939
304.86
304.904
304.934
304.954
304.893
304.986
305.052
305.11
305.18
374.853
374.036
373.093
372.608
372.336
372.232
372.446
372.683
373.054
373.408
373.59
373.969
374.016
374.16
374.366
374.67
375.143
375.88
376.818
377.879
365.151
364.403
363.692
363.19
362.933
362.84
363.002
363.26
363.485
363.773
363.983
364.287
364.376
364.342
364.571
364.847
365.282
365.856
366.703
367.552
355.337
354.651
353.983
353.567
353.362
353.345
353.43
353.726
353.918
354.086
354.263
354.495
354.555
354.615
354.817
354.971
355.388
355.868
356.616
357.288
345.35
344.92
344.352
344.072
343.774
343.82
343.818
343.935
344.169
344.313
344.467
344.691
344.754
344.776
344.854
345.051
345.264
345.728
346.293
346.943
335.35
334.994
334.559
334.347
334.157
334.124
334.169
334.243
334.374
334.525
334.636
334.822
334.83
334.87
334.969
335.061
335.318
335.608
336.072
336.506
325.229
325.071
324.766
324.555
324.374
324.443
324.425
324.511
324.564
324.71
324.785
324.921
324.924
324.976
324.962
325.041
325.161
325.484
325.829
326.131
315.166
314.978
314.862
314.809
314.704
314.633
314.75
314.791
314.791
314.868
314.855
314.89
314.994
315.016
315.034
315.079
315.154
315.268
315.49
315.756
305.106
305.082
304.976
304.968
304.974
304.977
304.913
304.973
305.015
304.97
305.024
305.085
305.013
305.06
305.062
305.059
305.087
305.149
305.288
305.211
376.229
375.358
374.429
373.794
373.552
373.482
373.595
373.815
374.049
374.336
374.62
374.848
374.987
375.224
375.49
375.783
376.29
377.037
378.024
379.101
366.259
365.534
364.783
364.184
363.948
363.813
363.913
364.148
364.23
364.625
364.788
365.035
365.083
365.41
365.474
365.755
366.218
366.817
367.759
368.554
356.183
355.51
354.873
354.481
354.222
354.076
354.297
354.292
354.563
354.773
354.974
355.047
355.161
355.362
355.496
355.68
356.139
356.605
357.351
358.051
346.059
345.496
345.036
344.667
344.409
344.339
344.428
344.547
344.681
344.876
345.059
345.147
345.264
345.372
345.505
345.65
345.943
346.425
346.951
347.549
335.893
335.41
335.054
334.832
334.682
334.548
334.64
334.645
334.82
334.953
335.16
335.146
335.181
335.267
335.368
335.476
335.783
336.159
336.549
336.9
325.708
325.429
325.108
324.897
324.765
324.759
324.736
324.76
324.945
325.008
325.085
325.126
325.193
325.216
325.191
325.421
325.604
325.852
326.087
326.406
315.475
315.305
315.035
314.959
314.881
314.817
314.908
314.882
314.932
314.977
315.063
315.074
315.215
315.184
315.212
315.304
315.341
315.59
315.731
315.905
305.219
305.08
305.028
305.085
304.974
305.027
305.021
305.028
304.98
305.058
305.024
305.106
305.117
305.078
305.09
305.165
305.196
305.139
305.205
305.328
)
;

boundaryField
{
    hotSide
    {
        type            fixedGradient;
        gradient        nonuniform List<scalar> 
400
(
321.511
322.87
325.591
329.677
335.133
341.965
350.181
359.788
370.794
383.208
397.037
412.289
428.971
447.088
466.647
487.651
510.105
534.011
559.372
586.191
323.738
325.08
327.767
331.802
337.194
343.949
352.078
361.591
372.498
384.81
398.537
413.687
430.268
448.289
467.755
488.672
511.043
534.872
560.161
586.913
326.149
327.47
330.116
334.091
339.406
346.071
354.099
363.503
374.296
386.491
400.101
415.136
431.606
449.52
468.885
489.706
511.988
535.735
560.948
587.63
328.704
330
332.597
336.503
341.73
348.292
356.205
365.485
376.15
388.215
401.695
416.604
432.954
450.753
470.009
490.73
512.919
536.579
561.714
588.325
331.33
332.599
335.142
338.97
344.099
350.546
358.332
367.477
378.003
389.928
403.271
418.047
434.27
451.949
471.095
491.712
513.807
537.382
562.439
588.978
333.918
335.158
337.643
341.389
346.414
352.74
360.392
369.397
379.779
391.562
404.765
419.407
435.503
453.065
472.101
492.618
514.622
538.114
563.096
589.569
336.321
337.531
339.959
343.622
348.544
354.751
362.274
371.142
381.385
393.031
406.101
420.618
436.595
454.047
472.983
493.409
515.33
538.747
563.663
590.076
338.36
339.543
341.92
345.509
350.339
356.44
363.847
372.595
382.718
394.244
407.2
421.608
437.485
454.844
473.695
494.045
515.897
539.253
564.114
590.478
339.852
341.015
343.352
346.885
351.645
357.665
364.985
373.643
383.675
395.113
407.984
422.312
438.116
455.407
474.197
494.491
516.294
539.606
564.428
590.758
340.643
341.795
344.11
347.613
352.334
358.311
365.584
374.193
384.176
395.567
408.393
422.679
438.443
455.699
474.456
494.722
516.498
539.788
564.589
590.901
340.643
341.795
344.11
347.613
352.334
358.311
365.584
374.193
384.176
395.567
408.393
422.679
438.443
455.699
474.456
494.722
516.498
539.788
564.589
590.901
339.852
341.015
343.352
346.885
351.645
357.665
364.985
373.643
383.675
395.113
407.984
422.312
438.116
455.407
474.197
494.491
516.294
539.606
564.428
590.758
338.36
339.543
341.92
345.509
350.339
356.44
363.847
372.595
382.718
394.244
407.2
421.608
437.485
454.844
473.695
494.045
515.897
539.253
564.114
590.478
336.321
337.531
339.959
343.622
348.544
354.751
362.274
371.142
381.385
393.031
406.101
420.618
436.595
454.047
472.983
493.409
515.33
538.747
563.663
590.076
333.918
335.158
337.643
341.389
346.414
352.74
360.392
369.397
379.779
391.562
404.765
419.407
435.503
453.065
472.101
492.618
514.622
538.114
563.096
589.569
331.33
332.599
335.142
338.97
344.099
350.546
358.332
367.477
378.003
389.928
403.271
418.047
434.27
451.949
471.095
491.712
513.807
537.382
562.439
588.978
328.704
330
332.597
336.503
341.73
348.292
356.205
365.485
376.15
388.215
401.695
416.604
432.954
450.753
470.009
490.73
512.919
536.579
561.714
588.325
326.149
327.47
330.116
334.091
339.406
346.071
354.099
363.503
374.296
386.491
400.101
415.136
431.606
449.52
468.885
489.706
511.988
535.735
560.948
587.63
323.738
325.08
327.767
331.802
337.194
343.949
352.078
361.591
372.498
384.81
398.537
413.687
430.268
448.289
467.755
488.672
511.043
534.872
560.161
586.913
321.511
322.87
325.591
329.677
335.133
341.965
350.181
359.788
370.794
383.208
397.037
412.289
428.971
447.088
466.647
487.651
510.105
534.011
559.372
586.191
)
;
    }
    coldSide
    {
        type            mixed;
        refValue        uniform 300;
        refGradient     uniform 0;
        valueFraction   uniform 0.991591;
        source          uniform 0;
        value           nonuniform List<scalar> 
400
(
300.027
300.028
300.028
300.029
300.029
300.03
300.031
300.031
300.032
300.033
300.034
300.035
300.037
300.037
300.039
300.041
300.041
300.043
300.043
300.044
300.027
300.027
300.027
300.028
300.028
300.029
300.03
300.031
300.032
300.033
300.034
300.035
300.036
300.037
300.039
300.039
300.041