/*--------------------------------*- C++ -*----------------------------------*\
| =========                 |                                                 |
| \\      /  F ield         | OpenFOAM: The Open Source CFD Toolbox           |
|  \\    /   O peration     | Version:  2212                                  |
|   \\  /    A nd           | Website:  www.openfoam.com                      |
|    \\/     M anipulation  |                                                 |
\*---------------------------------------------------------------------------*/
FoamFile
{
    version     2.0;
    format      ascii;
    arch        "LSB;label=32;scalar=64";
    class       volScalarField;
    location    "./ITHACAoutput/true/2";
    object      error;
}
// * * * * * * * * * * * * * * * * * * * * * * * * * * * * * * * * * * * * * //

dimensions      [0 0 0 1 0 0 0];

internalField   nonuniform List<scalar> 
3200
(
-2.14031
-2.05881
-1.77528
-1.25991
-0.540251
0.196623
0.944847
1.68124
2.32191
2.65818
2.81681
2.56444
2.1146
1.50849
0.88583
0.189828
-0.281693
-0.665131
-0.861765
-0.948617
-1.83466
-1.78773
-1.62099
-1.09944
-0.552894
0.211376
0.868531
1.42027
2.03522
2.26114
2.35166
2.24637
1.82312
1.28766
0.671335
0.168675
-0.244796
-0.574093
-0.87207
-0.848298
-1.62241
-1.54207
-1.32698
-0.974878
-0.462644
0.0942339
0.650202
1.21531
1.62423
1.87447
2.0301
1.91953
1.53718
1.12942
0.658352
0.197484
-0.200507
-0.548799
-0.618565
-0.705433
-1.26381
-1.22082
-1.09817
-0.764641
-0.424674
0.0765789
0.588117
1.01961
1.43923
1.65003
1.61374
1.46337
1.26966
0.95817
0.534523
0.199936
-0.171376
-0.418523
-0.560384
-0.522868
-1.10009
-0.921893
-0.797371
-0.615992
-0.360941
0.0240934
0.433688
0.790428
1.07125
1.22169
1.25111
1.22563
0.975789
0.688334
0.449522
0.0753247
-0.0684375
-0.325
-0.358382
-0.43879
-0.742061
-0.647061
-0.543332
-0.422263
-0.159386
0.0542362
0.335519
0.620147
0.805233
0.802237
0.862771
0.868118
0.68029
0.491502
0.24414
0.113308
-0.154498
-0.224599
-0.299312
-0.280757
-0.521557
-0.455079
-0.327322
-0.247518
-0.0969376
0.05791
0.240494
0.333534
0.440662
0.558978
0.48109
0.560805
0.433903
0.314368
0.136328
0.0425525
-0.0719859
-0.159473
-0.171445
-0.227348
-0.168535
-0.12955
-0.125735
-0.0578159
-0.041047
-0.0601535
0.111269
0.141881
0.167345
0.229167
0.165505
0.182324
0.168851
0.0574097
0.0299063
-0.0179336
0.0569336
-0.0641202
-0.0990442
-0.0577499
-2.84685
-2.75043
-2.5391
-1.98077
-1.47961
-0.665754
0.138695
0.796796
1.47913
1.78311
1.85427
1.70099
1.29744
0.632061
0.0133612
-0.528168
-1.04751
-1.42693
-1.59849
-1.52738
-2.46854
-2.41539
-2.16295
-1.75314
-1.23489
-0.558561
0.0965942
0.765305
1.26168
1.51982
1.61557
1.50141
1.18073
0.565874
0.0373385
-0.4744
-0.944415
-1.18757
-1.32325
-1.37054
-2.0492
-1.99871
-1.81175
-1.41372
-0.985729
-0.4555
0.0652016
0.632005
1.08538
1.39138
1.46412
1.24478
0.925564
0.522652
0.0869273
-0.308188
-0.755662
-0.942805
-1.10906
-1.05523
-1.67293
-1.57733
-1.50482
-1.18933
-0.818094
-0.370612
0.112247
0.54517
0.863225
1.05993
1.15332
0.999289
0.783197
0.420642
0.0735528
-0.257092
-0.600781
-0.771947
-0.922202
-0.863987
-1.34299
-1.24078
-1.08713
-0.895228
-0.590168
-0.37808
0.0439646
0.556894
0.639615
0.854397
0.895102
0.816763
0.670262
0.294831
0.116441
-0.202218
-0.384215
-0.666261
-0.666612
-0.601075
-0.900751
-0.865414
-0.809277
-0.64342
-0.452378
-0.165011
0.094854
0.311118
0.499103
0.606336
0.638732
0.585263
0.385607
0.341551
0.0671982
-0.112397
-0.29244
-0.40939
-0.458666
-0.506318
-0.54853
-0.557446
-0.525675
-0.409687
-0.297026
-0.169434
0.0268855
0.211039
0.372889
0.3769
0.390504
0.383025
0.335175
0.0970197
0.0281421
-0.121311
-0.147054
-0.266658
-0.246649
-0.275901
-0.159929
-0.092182
-0.203692
-0.103511
-0.052703
-0.0756224
-0.00126986
-0.0194646
0.0266489
0.164163
0.0675639
0.159075
0.0793986
-0.0457926
-0.0129331
-0.0228493
-0.0358027
-0.0917957
-0.0898439
-0.168567
-3.71049
-3.62781
-3.44681
-2.99183
-2.40168
-1.77947
-0.943838
-0.289885
0.240827
0.545349
0.596617
0.502706
0.109776
-0.462193
-0.997325
-1.55351
-1.98723
-2.29327
-2.48366
-2.36382
-3.18487
-3.10001
-2.95905
-2.60044
-2.01462
-1.43769
-0.817235
-0.176157
0.207814
0.541697
0.623113
0.497474
0.185003
-0.363234
-0.802715
-1.32451
-1.71129
-1.98561
-2.0612
-2.02732
-2.58897
-2.66089
-2.4705
-2.15024
-1.74579
-1.19167
-0.628149
-0.100384
0.217602
0.437946
0.612382
0.398732
0.163
-0.197382
-0.680174
-1.05994
-1.41252
-1.63356
-1.7228
-1.70392
-2.20522
-2.12048
-1.94664
-1.75751
-1.37307
-0.976113
-0.520654
-0.00991983
0.223473
0.444492
0.4566
0.389058
0.102901
-0.206267
-0.448067
-0.838102
-1.15436
-1.32182
-1.35505
-1.28416
-1.69781
-1.63893
-1.53309
-1.30041
-1.08946
-0.754547
-0.466609
-0.018052
0.199589
0.331473
0.462938
0.293302
0.120788
-0.0912542
-0.388754
-0.615
-0.817019
-1.00181
-1.10106
-1.10509
-1.16459
-1.14215
-1.09989
-0.939203
-0.670099
-0.478215
-0.177292
-0.0336283
0.0821276
0.201999
0.288894
0.234274
0.122937
-0.0116088
-0.218163
-0.474927
-0.610522
-0.615629
-0.785983
-0.71418
-0.710429
-0.66814
-0.603482
-0.677745
-0.432317
-0.241091
-0.124326
0.00803918
0.0609264
0.190694
0.139496
0.149485
0.0270795
-0.0430508
-0.108906
-0.275196
-0.285151
-0.38689
-0.436411
-0.393803
-0.236569
-0.239401
-0.246728
-0.220383
-0.125753
-0.0886518
-0.0279139
-0.0160364
0.00557438
0.0217392
0.133523
0.0193168
0.0793609
0.0602322
-0.0222843
-0.0719811
-0.153288
-0.173703
-0.164473
-0.138261
-4.52741
-4.45946
-4.35873
-4.02874
-3.49591
-2.85802
-2.14012
-1.58715
-1.00072
-0.689082
-0.602624
-0.729788
-1.04164
-1.52027
-2.1154
-2.55055
-2.96923
-3.19606
-3.26883
-3.11151
-3.7617
-3.80776
-3.66961
-3.41468
-2.91339
-2.46911
-1.79325
-1.30167
-0.841952
-0.60032
-0.479468
-0.493018
-0.872855
-1.30052
-1.74844
-2.125
-2.5907
-2.68813
-2.70401
-2.70554
-3.17328
-3.26049
-3.11944
-2.83025
-2.43552
-2.075
-1.47857
-1.00382
-0.674376
-0.363616
-0.345337
-0.434416
-0.657932
-1.04117
-1.44309
-1.87239
-2.06294
-2.28083
-2.27532
-2.30549
-2.63894
-2.56892
-2.55342
-2.30494
-1.9618
-1.65784
-1.20121
-0.816763
-0.534482
-0.305833
-0.237448
-0.326043
-0.574596
-0.88847
-1.13591
-1.45475
-1.60848
-1.77463
-1.80222
-1.76208
-1.98896
-2.03938
-1.93402
-1.79451
-1.55543
-1.22102
-0.917662
-0.633172
-0.449271
-0.214516
-0.201983
-0.311369
-0.42177
-0.635635
-0.882022
-1.0219
-1.27621
-1.38542
-1.38114
-1.37418
-1.47373
-1.45557
-1.36531
-1.25003
-1.13139
-0.802678
-0.733667
-0.397332
-0.28457
-0.134171
-0.182911
-0.0964134
-0.298289
-0.429859
-0.64982
-0.734092
-0.9801
-0.967482
-1.04758
-0.932949
-0.824385
-0.859762
-0.78307
-0.72577
-0.635019
-0.512791
-0.410297
-0.216442
-0.114741
-0.0623193
-0.0998618
-0.0766684
-0.189758
-0.240734
-0.298533
-0.470479
-0.52801
-0.577595
-0.564305
-0.575495
-0.296657
-0.29484
-0.265167
-0.260302
-0.18384
-0.121817
-0.112014
-0.086896
-0.000349433
-0.0361508
-0.00824652
-0.0289675
-0.0741164
-0.0611868
-0.113061
-0.133829
-0.14074
-0.134438
-0.242907
-0.183073
-5.19243
-5.2548
-5.14975
-4.96826
-4.44681
-3.97002
-3.21732
-2.62144
-2.22785
-1.96184
-1.80956
-1.90457
-2.28277
-2.64789
-3.07432
-3.54847
-3.8116
-4.01543
-3.97829
-3.7797
-4.42237
-4.51913
-4.43512
-4.16296
-3.77697
-3.30507
-2.73793
-2.23941
-1.8731
-1.52387
-1.5332
-1.63127
-1.87634
-2.30456
-2.59175
-2.99724
-3.18883
-3.373
-3.41078
-3.23269
-3.81475
-3.7472
-3.65144
-3.46954
-3.12325
-2.75344
-2.29733
-1.8834
-1.50271
-1.28544
-1.27123
-1.36176
-1.50802
-1.87622
-2.18328
-2.51196
-2.70124
-2.81032
-2.84357
-2.69487
-2.99187
-3.10895
-2.98942
-2.89381
-2.60439
-2.27275
-1.8373
-1.47769
-1.23551
-1.054
-0.940965
-1.03836
-1.15844
-1.50933
-1.68749
-1.95643
-2.18791
-2.23483
-2.21758
-2.17179
-2.29254
-2.39737
-2.34422
-2.2287
-2.00471
-1.66563
-1.4056
-1.15363
-0.977654
-0.763658
-0.705069
-0.79787
-1.02732
-1.14403
-1.26998
-1.49998
-1.6533
-1.74514
-1.762
-1.64701
-1.65132
-1.66128
-1.64205
-1.54886
-1.38295
-1.22039
-1.03098
-0.834357
-0.634201
-0.573505
-0.494299
-0.536416
-0.671506
-0.788035
-0.942498
-1.03344
-1.16551
-1.15751
-1.18927
-1.16852
-1.02913
-1.04129
-0.935704
-0.920774
-0.863974
-0.660281
-0.61721
-0.477328
-0.413391
-0.390534
-0.357875
-0.316321
-0.4485
-0.456074
-0.489108
-0.663134
-0.748172
-0.762892
-0.723103
-0.68433
-0.375542
-0.379785
-0.313258
-0.317128
-0.293609
-0.207997
-0.210228
-0.22821
-0.165886
-0.0338603
-0.126316
-0.103253
-0.155036
-0.125221
-0.108099
-0.189608
-0.26633
-0.24565
-0.219297
-0.215201
-5.754
-5.96664
-5.86092
-5.60036
-5.30689
-4.7903
-4.2565
-3.7835
-3.36322
-3.10995
-2.95904
-3.02594
-3.25313
-3.69944
-4.00851
-4.33465
-4.55636
-4.52715
-4.57827
-4.2799
-4.85361
-5.04675
-4.9948
-4.83847
-4.55761
-4.19616
-3.67958
-3.14561
-2.92975
-2.59369
-2.46722
-2.60882
-2.79824
-3.08613
-3.40915
-3.66869
-3.88574
-3.91322
-3.82669
-3.66019
-4.17678
-4.18893
-4.19433
-4.08959
-3.716
-3.36814
-3.0716
-2.66385
-2.31787
-2.15789
-2.05276
-2.16815
-2.33187
-2.55066
-2.85414
-3.09909
-3.13848
-3.31245
-3.22963
-3.06743
-3.32171
-3.39488
-3.38274
-3.27095
-3.0695
-2.78136
-2.52848
-2.09446
-1.95192
-1.72772
-1.71618
-1.72494
-1.83563
-2.00274
-2.24985
-2.47004
-2.5937
-2.59027
-2.60581
-2.42658
-2.58476
-2.62316
-2.65456
-2.48156
-2.40021
-2.14757
-1.92805
-1.61702
-1.41772
-1.25772
-1.28122
-1.35075
-1.39824
-1.54929
-1.79285
-1.95463
-2.02028
-1.97389
-2.02687
-1.898
-1.87
-1.89238
-1.91164
-1.78799
-1.68428
-1.54136
-1.34099
-1.1315
-0.985115
-0.875993
-0.87061
-0.827322
-1.011
-1.14434
-1.26085
-1.24252
-1.42612
-1.45076
-1.4792
-1.40356
-1.05363
-1.13196
-1.11388
-1.12898
-1.00928
-0.945372
-0.784205
-0.695259
-0.56781
-0.475065
-0.536193
-0.504928
-0.593952
-0.715782
-0.73436
-0.81041
-0.854313
-0.833019
-0.832396
-0.855265
-0.385573
-0.391249
-0.310246
-0.366189
-0.40534
-0.304641
-0.245102
-0.16326
-0.266224
-0.145015
-0.142148
-0.213809
-0.203489
-0.262912
-0.237197
-0.288747
-0.268902
-0.253049
-0.308788
-0.34442
-6.17153
-6.39002
-6.37829
-6.26649
-6.04625
-5.58651
-5.23733
-4.75048
-4.31722
-4.10045
-3.93476
-4.03464
-4.18194
-4.54336
-4.77738
-5.02201
-5.12479
-5.13797
-4.99296
-4.75478
-5.28599
-5.43164
-5.54296
-5.45766
-5.11881
-4.86297
-4.44955
-4.00602
-3.70316
-3.44667
-3.39392
-3.46176
-3.57334
-3.79326
-4.12019
-4.24018
-4.40517
-4.39309
-4.15596
-3.98329
-4.44805
-4.48854
-4.61803
-4.43589
-4.30399
-4.04125
-3.60642
-3.29031
-3.06961
-2.83557
-2.8219
-2.82969
-2.98829
-3.24343
-3.37879
-3.60927
-3.64237
-3.57124
-3.51782
-3.2914
-3.65374
-3.72932
-3.71626
-3.63136
-3.53637
-3.23553
-2.9991
-2.70911
-2.46763
-2.29799
-2.31961
-2.29018
-2.46483
-2.57735
-2.73495
-2.91345
-2.93067
-2.99689
-2.79452
-2.68932
-2.75879
-2.86059
-2.85636
-2.8172
-2.71155
-2.51671
-2.33183
-2.06009
-1.88048
-1.80045
-1.70075
-1.7428
-1.79804
-1.93446
-2.0789
-2.24645
-2.24528
-2.22076
-2.20335
-2.10521
-2.01148
-1.9642
-2.0709
-1.97491
-1.84183
-1.81149
-1.5893
-1.49265
-1.37751
-1.32684
-1.12526
-1.25978
-1.28746
-1.3558
-1.54036
-1.56359
-1.5868
-1.59174
-1.52517
-1.4994
-1.17879
-1.20895
-1.2007
-1.19341
-1.1793
-1.09248
-1.01767
-0.945964
-0.790975
-0.714904
-0.762671
-0.744699
-0.789127
-0.852633
-0.924095
-0.959095
-0.905275
-0.933447
-0.928659
-0.841351
-0.412746
-0.41373
-0.406199
-0.419528
-0.378098
-0.40037
-0.31963
-0.320197
-0.272175
-0.258473
-0.216913
-0.258664
-0.255943
-0.281485
-0.237117
-0.260191
-0.290302
-0.332316
-0.294667
-0.344634
-6.40366
-6.62934
-6.77715
-6.65992
-6.49029
-6.24139
-5.88635
-5.4649
-5.14181
-4.93541
-4.75508
-4.82985
-4.94514
-5.27157
-5.38769
-5.53602
-5.61042
-5.40953
-5.14934
-4.832
-5.44098
-5.71252
-5.75896
-5.76442
-5.54072
-5.30822
-4.99957
-4.69404
-4.35778
-4.28965
-4.10323
-4.11534
-4.28901
-4.47681
-4.59416
-4.78906
-4.7788
-4.68729
-4.4656
-4.1641
-4.57306
-4.80891
-4.88203
-4.8355
-4.68638
-4.40661
-4.22799
-3.8788
-3.6699
-3.50883
-3.43473
-3.5077
-3.5924
-3.69271
-3.78859
-3.97278
-3.93307
-3.8546
-3.65042
-3.49667
-3.78083
-3.85651
-3.94849
-3.88307
-3.82063
-3.5926
-3.33543
-3.08559
-3.07101
-2.80745
-2.76552
-2.80016
-2.8183
-2.95376
-3.07324
-3.15907
-3.26599
-3.08143
-3.00588
-2.81101
-2.91422
-3.00578
-3.06187
-3.06678
-2.95126
-2.80759
-2.63232
-2.44811
-2.31151
-2.15533
-2.07942
-2.1449
-2.22293
-2.35962
-2.35439
-2.52263
-2.40804
-2.41174
-2.31027
-2.12973
-2.1278
-2.08687
-2.16072
-2.1552
-2.12315
-2.01853
-1.92962
-1.6531
-1.60967
-1.57691
-1.51089
-1.58844
-1.57302
-1.60988
-1.7496
-1.76917
-1.77833
-1.69684
-1.60623
-1.49137
-1.20075
-1.29924
-1.22487
-1.36648
-1.20366
-1.16149
-1.11301
-1.06122
-0.99909
-0.925328
-0.938274
-0.887036
-0.923709
-0.960269
-1.02408
-1.03824
-1.03894
-0.982445
-1.02907
-0.860878
-0.364448
-0.450426
-0.443971
-0.416106
-0.439982
-0.395715
-0.381506
-0.35249
-0.315043
-0.24426
-0.250001
-0.228259
-0.296928
-0.293413
-0.379032
-0.345266
-0.389581
-0.307633
-0.367223
-0.286238
-6.3654
-6.71242
-6.98465
-6.95643
-6.88662
-6.68784
-6.31723
-6.0624
-5.83926
-5.61712
-5.51296
-5.51877
-5.67389
-5.73693
-5.81453
-5.85541
-5.78918
-5.55795
-5.23376
-4.82258
-5.5413
-5.727
-5.91553
-5.93927
-5.91767
-5.70779
-5.50954
-5.20175
-4.93375
-4.76603
-4.65791
-4.73945
-4.77798
-4.90039
-4.95658
-4.94088
-4.94512
-4.69408
-4.4941
-4.07034
-4.66082
-4.80707
-4.89696
-5.0147
-4.97342
-4.76453
-4.58351
-4.28961
-4.12974
-4.00213
-3.99392
-3.94401
-3.97713
-4.03417
-4.14289
-4.13754
-4.08201
-3.96156
-3.75111
-3.40884
-3.67716
-3.83824
-4.00785
-4.07257
-3.99724
-3.83004
-3.69785
-3.51934
-3.35861
-3.18632
-3.21152
-3.15866
-3.19392
-3.30249
-3.28082
-3.39237
-3.26366
-3.23724
-3.07065
-2.80021
-2.78674
-3.06018
-3.13543
-3.17345
-3.12561
-2.98487
-2.85874
-2.73494
-2.53183
-2.54611
-2.43399
-2.46282
-2.4661
-2.55225
-2.61295
-2.59263
-2.47259
-2.5035
-2.31626
-2.20856
-2.15655
-2.13379
-2.172
-2.20857
-2.20559
-2.12166
-1.97709
-1.91032
-1.82285
-1.78211
-1.74719
-1.68585
-1.79419
-1.80714
-1.89581
-1.81583
-1.77194
-1.78754
-1.65554
-1.53951
-1.23181
-1.21205
-1.38164
-1.39744
-1.32814
-1.32235
-1.30288
-1.14878
-1.09819
-1.05665
-1.06238
-1.01421
-1.0477
-1.06122
-1.12016
-1.11125
-1.06597
-1.05721
-0.983777
-0.948204
-0.36563
-0.394383
-0.437701
-0.396689
-0.45131
-0.508595
-0.37465
-0.391252
-0.379637
-0.366072
-0.349737
-0.389038
-0.382663
-0.360353
-0.339579
-0.427004
-0.318749
-0.354098
-0.347454
-0.315833
-6.16724
-6.56495
-6.88389
-6.99394
-7.00181
-6.89405
-6.73224
-6.4531
-6.17235
-6.05296
-5.98666
-5.91926
-5.92759
-5.95435
-6.06299
-5.98005
-5.81014
-5.51144
-5.06782
-4.61011
-5.31696
-5.64237
-5.98262
-6.03673
-6.0669
-5.98387
-5.74495
-5.57849
-5.30521
-5.18132
-5.13074
-5.11362
-5.08596
-5.12023
-5.1504
-5.09931
-4.91023
-4.71769
-4.40354
-3.92865
-4.51343
-4.74856
-4.95993
-5.02595
-4.99053
-4.94503
-4.87568
-4.61365
-4.41321
-4.33964
-4.24335
-4.22253
-4.18956
-4.30979
-4.27102
-4.29173
-4.11279
-3.89565
-3.65409
-3.28695
-3.67968
-3.84189
-4.01624
-4.13691
-4.03985
-3.94159
-3.91794
-3.81499
-3.60678
-3.51882
-3.38811
-3.43553
-3.43883
-3.43262
-3.48516
-3.43552
-3.41503
-3.21435
-2.87047
-2.70469
-2.87339
-2.95731
-3.12154
-3.14635
-3.14555
-3.06559
-3.0082
-2.90961
-2.83414
-2.68973
-2.65812
-2.64783
-2.59558
-2.65332
-2.71224
-2.69406
-2.56474
-2.41163
-2.24087
-2.03853
-1.98077
-2.04822
-2.22365
-2.28068
-2.2068
-2.1984
-2.09633
-2.01067
-1.96911
-1.96807
-1.86497
-1.91245
-1.8887
-1.88216
-1.99232
-1.82774
-1.80649
-1.77937
-1.64496
-1.47259
-1.15787
-1.27794
-1.30958
-1.35605
-1.37274
-1.34247
-1.25983
-1.22456
-1.19855
-1.1743
-1.10455
-1.14012
-1.14376
-1.15244
-1.18919
-1.09147
-1.08555
-1.05267
-0.895224
-0.782002
-0.410466
-0.400342
-0.351425
-0.450024
-0.478716
-0.430278
-0.543496
-0.44668
-0.443596
-0.374472
-0.38486
-0.347813
-0.323055
-0.376994
-0.381209
-0.361729
-0.462254
-0.39019
-0.309512
-0.298321
-5.80109
-6.25174
-6.57583
-6.90971
-7.02457
-7.01071
-6.82207
-6.63448
-6.48064
-6.37696
-6.25079
-6.12487
-6.14329
-6.04025
-5.9869
-5.96855
-5.68736
-5.24112
-4.74027
-4.1872
-5.00462
-5.39503
-5.70929
-5.88381
-5.99605
-5.86391
-5.84061
-5.73064
-5.54481
-5.49597
-5.33178
-5.26224
-5.19725
-5.18192
-5.17844
-5.00791
-4.87221
-4.47425
-4.0317
-3.5538
-4.21519
-4.46488
-4.75896
-4.97605
-4.95599
-4.96289
-4.81654
-4.75708
-4.64423
-4.47814
-4.48905
-4.38448
-4.31675
-4.31473
-4.32424
-4.15827
-3.99182
-3.72125
-3.41757
-2.98328
-3.40488
-3.64707
-3.85428
-3.99211
-4.04532
-3.94053
-4.01682
-3.85735
-3.71069
-3.58293
-3.61123
-3.6041
-3.50171
-3.4728
-3.40619
-3.44487
-3.24053
-3.03759
-2.72613
-2.40205
-2.65681
-2.7429
-3.05472
-3.10844
-3.21976
-3.11028
-3.049
-2.89098
-2.86922
-2.78445
-2.79472
-2.68004
-2.79158
-2.73492
-2.72172
-2.54572
-2.53259
-2.28635
-2.14739
-1.84891
-1.88532
-1.98442
-2.07687
-2.23253
-2.2204
-2.2496
-2.26436
-2.13935
-2.00875
-2.01634
-1.93859
-1.97983
-1.8949
-1.89036
-1.91612
-1.89815
-1.69964
-1.65855
-1.45827
-1.32045
-1.08367
-1.2156
-1.32555
-1.27386
-1.3329
-1.34543
-1.23888
-1.16341
-1.27353
-1.19087
-1.19717
-1.17941
-1.16272
-1.07944
-1.13322
-1.05457
-1.03932
-0.965536
-0.874611
-0.764251
-0.369597
-0.441377
-0.406567
-0.437352
-0.47024
-0.397631
-0.467313
-0.373566
-0.3176
-0.369318
-0.431257
-0.386406
-0.455586
-0.33614
-0.387793
-0.330664
-0.341385
-0.329984
-0.310901
-0.297105
-5.16665
-5.72204
-6.20937
-6.56097
-6.65743
-6.72939
-6.61022
-6.52355
-6.41314
-6.35156
-6.21221
-6.14661
-6.02955
-5.95866
-5.76095
-5.58179
-5.26812
-4.69948
-4.12571
-3.53967
-4.47442
-4.90116
-5.29534
-5.60963
-5.71355
-5.73924
-5.68876
-5.60728
-5.50295
-5.41812
-5.29799
-5.24815
-5.18481
-5.09693
-5.01119
-4.75632
-4.44124
-4.0266
-3.5761
-3.02158
-3.70898
-4.09874
-4.45047
-4.73836
-4.83288
-4.83679
-4.77249
-4.73001
-4.69747
-4.48999
-4.54094
-4.41211
-4.40113
-4.19271
-4.1847
-3.95641
-3.72732
-3.39065
-2.94022
-2.5362
-3.06866
-3.34507
-3.6216
-3.78017
-3.86342
-3.86854
-3.90268
-3.77095
-3.75618
-3.64549
-3.58278
-3.55409
-3.47725
-3.40826
-3.32461
-3.26026
-2.99098
-2.77311
-2.42524
-2.04225
-2.34545
-2.57
-2.80616
-2.88288
-3.01608
-2.97925
-2.97771
-3.01719
-2.89461
-2.7601
-2.77949
-2.70726
-2.62767
-2.61275
-2.51978
-2.46007
-2.3024
-2.06503
-1.84181
-1.52955
-1.65897
-1.81599
-2.02349
-2.07875
-2.11862
-2.15938
-2.0399
-2.05663
-2.03704
-1.9577
-1.89672
-1.87424
-1.90774
-1.85776
-1.81243
-1.74632
-1.69462
-1.50189
-1.34634
-1.10955
-0.932951
-1.05066
-1.22274
-1.22208
-1.32604
-1.23213
-1.27108
-1.18448
-1.23682
-1.18024
-1.17419
-1.12194
-1.14046
-1.12965
-1.15012
-1.0226
-0.993077
-0.887536
-0.789879
-0.692465
-0.357029
-0.388315
-0.380173
-0.394509
-0.392536
-0.451604
-0.463478
-0.411857
-0.408602
-0.384648
-0.37479
-0.424171
-0.36049
-0.285084
-0.471828
-0.413892
-0.294164
-0.342811
-0.236389
-0.213465
-4.4031
-4.94878
-5.44989
-5.88921
-6.14168
-6.26029
-6.28526
-6.30019
-6.25586
-6.04747
-5.92156
-5.87534
-5.70685
-5.55841
-5.37811
-4.96283
-4.68526
-4.02116
-3.42006
-2.68896
-3.78907
-4.19046
-4.66914
-5.03327
-5.29921
-5.36495
-5.40436
-5.3178
-5.28973
-5.15426
-5.10836
-4.93422
-4.87573
-4.7476
-4.5129
-4.24863
-3.86013
-3.40626
-2.85447
-2.26221
-3.11316
-3.52661
-3.88968
-4.32101
-4.41893
-4.51252
-4.4903
-4.40046
-4.41323
-4.24431
-4.21245
-4.20427
-4.09609
-4.07454
-3.83071
-3.52288
-3.21513
-2.93869
-2.39798
-1.88563
-2.54044
-2.84341
-3.13653
-3.37549
-3.55919
-3.63182
-3.62699
-3.615
-3.56348
-3.52749
-3.47803
-3.36563
-3.27292
-3.19312
-3.04781
-2.8899
-2.62353
-2.2476
-1.90355
-1.58496
-2.04219
-2.1868
-2.54988
-2.6381
-2.81026
-2.77857
-2.82004
-2.82866
-2.76517
-2.6805
-2.62694
-2.60712
-2.50686
-2.46485
-2.28831
-2.22012
-1.97739
-1.81966
-1.52217
-1.17359
-1.35287
-1.49298
-1.74198
-1.90118
-1.9354
-1.96269
-1.95171
-1.96729
-1.96219
-1.87622
-1.81654
-1.89268
-1.75974
-1.72626
-1.64243
-1.58884
-1.41761
-1.30642
-0.985276
-0.850723
-0.874904
-0.9481
-1.03211
-1.11961
-1.11498
-1.17748
-1.24748
-1.17764
-1.17783
-1.15988
-1.1239
-1.15371
-1.0111
-1.00455
-0.945503
-0.893827
-0.834073
-0.774334
-0.641317
-0.525981
-0.238711
-0.359436
-0.359389
-0.357994
-0.39488
-0.395251
-0.431089
-0.335231
-0.400747
-0.428104
-0.362602
-0.374174
-0.363538
-0.387182
-0.402668
-0.301832
-0.263153
-0.270677
-0.14759
-0.170839
-3.26664
-4.00969
-4.55647
-5.04388
-5.4246
-5.52615
-5.75222
-5.73744
-5.66592
-5.60611
-5.43756
-5.33255
-5.10292
-4.87738
-4.58045
-4.19138
-3.76724
-3.03538
-2.39863
-1.63633
-2.84755
-3.4234
-3.88165
-4.22646
-4.59474
-4.76899
-4.85206
-4.78193
-4.84254
-4.77891
-4.67835
-4.50285
-4.39317
-4.13114
-3.90441
-3.57165
-3.19232
-2.60825
-1.96696
-1.36092
-2.36787
-2.80321
-3.21671
-3.57657
-3.79791
-3.94718
-4.0425
-4.0665
-3.96534
-3.99535
-3.79446
-3.70588
-3.60501
-3.46079
-3.2302
-2.99191
-2.64797
-2.14381
-1.68409
-1.1218
-2.0098
-2.25701
-2.60387
-2.84654
-3.10102
-3.2025
-3.24536
-3.31267
-3.22115
-3.21121
-3.1083
-3.05474
-3.01668
-2.7698
-2.63127
-2.36473
-2.15333
-1.71444
-1.3093
-0.870506
-1.47837
-1.77454
-2.0222
-2.22272
-2.32923
-2.47441
-2.57185
-2.52418
-2.50352
-2.40669
-2.45087
-2.34833
-2.29339
-2.20107
-2.01225
-1.80197
-1.59556
-1.27949
-1.00991
-0.6663
-0.992891
-1.20896
-1.42434
-1.56981
-1.72156
-1.75926
-1.76416
-1.78766
-1.70714
-1.74464
-1.68446
-1.66074
-1.62842
-1.57513
-1.43601
-1.2381
-1.15383
-0.94645
-0.689167
-0.450224
-0.56849
-0.719438
-0.845423
-1.00203
-0.95803
-1.12245
-1.07172
-1.06279
-1.05042
-1.08707
-1.05718
-1.03424
-0.997955
-0.928521
-0.809836
-0.745153
-0.660237
-0.570187
-0.389306
-0.25952
-0.245785
-0.230779
-0.280745
-0.331946
-0.335079
-0.332295
-0.346733
-0.331084
-0.380226
-0.354403
-0.302938
-0.260728
-0.315034
-0.278185
-0.265201
-0.283313
-0.179949
-0.150186
-0.115323
-0.134204
-2.03118
-2.7765
-3.37553
-3.9975
-4.30201
-4.57994
-4.75928
-4.81078
-4.81673
-4.71133
-4.6023
-4.53113
-4.27547
-3.97867
-3.73995
-3.19368
-2.63116
-1.91136
-1.07683
-0.249193
-1.75446
-2.29522
-2.8386
-3.314
-3.72659
-3.85958
-4.00799
-4.13287
-4.09096
-4.01736
-3.92434
-3.76585
-3.58566
-3.42122
-3.08352
-2.65862
-2.19139
-1.59476
-0.888404
-0.230133
-1.46671
-1.86737
-2.38693
-2.81664
-3.07138
-3.26279
-3.42464
-3.44507
-3.42011
-3.38086
-3.27981
-3.12545
-2.94978
-2.84836
-2.62962
-2.14772
-1.81045
-1.2879
-0.676326
-0.18546
-1.14562
-1.52363
-1.89334
-2.25674
-2.43475
-2.57264
-2.76423
-2.73981
-2.75662
-2.72735
-2.63038
-2.63331
-2.37707
-2.25741
-2.11713
-1.78154
-1.49245
-1.03727
-0.536841
-0.134868
-0.865007
-1.18006
-1.459
-1.6944
-1.89261
-1.97826
-2.08062
-2.15059
-2.1497
-2.11537
-2.06011
-1.92645
-1.87158
-1.75322
-1.48636
-1.3489
-1.06438
-0.707262
-0.346466
-0.0484455
-0.597971
-0.840914
-1.14586
-1.1814
-1.34239
-1.43587
-1.48529
-1.4922
-1.49057
-1.49919
-1.41311
-1.40841
-1.28377
-1.19627
-1.10786
-0.947572
-0.800417
-0.561481
-0.254976
0.00149421
-0.370341
-0.473936
-0.661851
-0.696622
-0.819321
-0.875758
-0.832686
-0.936294
-0.941885
-0.817453
-0.837003
-0.835131
-0.747171
-0.792899
-0.715978
-0.632773
-0.458558
-0.347904
-0.1358
-0.0498378
-0.137985
-0.175898
-0.207572
-0.248552
-0.316006
-0.200527
-0.329221
-0.284194
-0.229421
-0.336878
-0.23559
-0.272002
-0.278773
-0.162492
-0.171467
-0.167257
-0.159014
-0.123643
-0.0434162
0.0162988
-0.567363
-1.21924
-1.98308
-2.58735
-3.11995
-3.41242
-3.65027
-3.65469
-3.68356
-3.73402
-3.57128
-3.46949
-3.18528
-2.8018
-2.38698
-1.94816
-1.25693
-0.504795
0.457307
1.19255
-0.377556
-1.01695
-1.64045
-2.10666
-2.6088
-2.84843
-3.06679
-3.07254
-3.14981
-3.11527
-3.03467
-2.87142
-2.6583
-2.32196
-2.03124
-1.64521
-1.00712
-0.391797
0.367891
1.15328
-0.288435
-0.857754
-1.2658
-1.74299
-2.11053
-2.31146
-2.54914
-2.57072
-2.59448
-2.57277
-2.51202
-2.42424
-2.23528
-2.00012
-1.68551
-1.31357
-0.804806
-0.220395
0.410781
0.93457
-0.198133
-0.631578
-1.05137
-1.44407
-1.70752
-1.94645
-2.03281
-2.10702
-2.1588
-2.10889
-1.98226
-1.80584
-1.81004
-1.54622
-1.31341
-1.02122
-0.516059
-0.146417
0.359885
0.784845
-0.223641
-0.499143
-0.869476
-1.09681
-1.31931
-1.48475
-1.55519
-1.58069
-1.58062
-1.53544
-1.55375
-1.44056
-1.34786
-1.18639
-1.01126
-0.742873
-0.464958
-0.09004
0.313111
0.627446
-0.10925
-0.300389
-0.57119
-0.765615
-0.931027
-1.01275
-1.09413
-1.12458
-1.15913
-1.13619
-1.10419
-1.00074
-0.902744
-0.849286
-0.724186
-0.514943
-0.30912
0.00732071
0.189774
0.480327
-0.108905
-0.197146
-0.359293
-0.436519
-0.531667
-0.641116
-0.73451
-0.616034
-0.647009
-0.666418
-0.61148
-0.609603
-0.507124
-0.482057
-0.430659
-0.333201
-0.167536
-0.0281175
0.112214
0.277693
-0.0677448
-0.154021
-0.100054
-0.173669
-0.208555
-0.181425
-0.209671
-0.262487
-0.245365
-0.217055
-0.205682
-0.161118
-0.167296
-0.160301
-0.186649
-0.103505
-0.0726783
0.0282577
0.117471
0.147318
1.16828
0.355417
-0.375039
-1.01643
-1.55055
-1.98454
-2.20178
-2.42347
-2.35244
-2.43385
-2.22043
-2.00742
-1.78304
-1.4005
-0.912244
-0.350559
0.338984
1.16484
2.02664
2.93627
0.996709
0.377158
-0.254661
-0.838578
-1.32376
-1.66181
-1.87867
-1.97506
-2.03398
-1.99673
-1.90413
-1.67529
-1.49298
-1.15244
-0.741862
-0.291196
0.335542
1.11544
1.80231
2.54875
0.904493
0.432411
-0.155325
-0.638651
-1.02153
-1.36154
-1.45765
-1.63247
-1.61469
-1.59272
-1.50887
-1.42208
-1.20284
-0.805283
-0.589909
-0.191328
0.342419
0.97164
1.58947
2.16327
0.749567
0.407332
-0.096119
-0.51108
-0.805131
-1.04528
-1.22272
-1.24631
-1.33537
-1.23406
-1.22441
-1.09035
-1.03045
-0.737919
-0.517799
-0.149296
0.326311
0.754863
1.27039
1.75031
0.566589
0.22096
-0.0839032
-0.388321
-0.55979
-0.802141
-0.882517
-1.002
-0.937987
-0.972209
-0.843765
-0.794206
-0.713583
-0.57846
-0.330704
-0.124484
0.224873
0.675185
1.06712
1.48724
0.363706
0.179045
-0.0755663
-0.244668
-0.397973
-0.65554
-0.628356
-0.698656
-0.791277
-0.721049
-0.628908
-0.480523
-0.549775
-0.422339
-0.17207
-0.0661983
0.157364
0.451877
0.692768
0.929291
0.303663
0.0561497
0.0226165
-0.09103
-0.215117
-0.26104
-0.35382
-0.373853
-0.351573
-0.383029
-0.39451
-0.311497
-0.259861
-0.251082
-0.239014
-0.01777
0.153726
0.253755
0.486895
0.581049
0.119075
0.0849409
-0.006242
-0.0241586
-0.0854833
-0.0824895
-0.0487228
-0.200194
-0.143962
-0.116736
-0.0989309
-0.0889459
-0.0174033
-0.0139477
-0.0462698
-0.0127296
-0.0373338
0.131515
0.197401
0.229672
3.12081
2.2422
1.41714
0.701273
0.091343
-0.299272
-0.565607
-0.806655
-0.851711
-0.853871
-0.682786
-0.50275
-0.167835
0.197954
0.701868
1.34485
2.06499
2.89688
3.90679
4.78044
2.63035
1.89198
1.27918
0.619089
0.205003
-0.25869
-0.43052
-0.598462
-0.71937
-0.678159
-0.507841
-0.388865
-0.100029
0.173315
0.595524
1.23932
1.84412
2.55614
3.44007
4.19753
2.20957
1.70305
1.13347
0.582301
0.162741
-0.129629
-0.369649
-0.44316
-0.530364
-0.483217
-0.410926
-0.235815
-0.130542
0.217169
0.594452
1.02876
1.55174
2.21664
2.93228
3.58871
1.74962
1.46418
0.853985
0.534853
0.173969
-0.146538
-0.251458
-0.357624
-0.442053
-0.398424
-0.348419
-0.238888
0.038234
0.199479
0.514887
0.855219
1.35001
1.86795
2.38319
2.88248
1.40543
1.14908
0.714149
0.407582
0.141645
-0.0234221
-0.2285
-0.297901
-0.33841
-0.247505
-0.259246
-0.131397
0.00937159
0.227097
0.421633
0.677178
1.06939
1.45789
1.92309
2.26917
1.04468
0.825228
0.482309
0.345678
0.0670862
-0.00597111
-0.102972
-0.218308
-0.137206
-0.141023
-0.220342
-0.0462803
0.0505307
0.13222
0.284632
0.562804
0.753109
1.00229
1.32362
1.66863
0.624474
0.543481
0.339475
0.17923
0.055956
-0.0292828
-0.091927
-0.0862861
-0.155462
-0.150682
-0.137847
-0.0656068
0.0776894
0.124314
0.239752
0.379591
0.451724
0.62993
0.846938
0.909746
0.255354
0.167916
0.0288637
0.0026423
0.0642231
0.0347187
-0.0434504
-0.0820541
-0.0367059
-0.0183842
-0.0325982
-0.0964864
0.0299079
0.0783733
0.115107
0.0616826
0.160183
0.248831
0.298991
0.388601
5.00764
4.09585
3.25636
2.48466
1.87234
1.44935
1.06087
0.811602
0.767992
0.783425
0.929653
1.12903
1.48111
1.89672
2.45214
3.10735
3.96248
4.81474
5.79121
6.70334
4.24009
3.57804
2.76689
2.23271
1.69645
1.24814
0.948389
0.780519
0.657546
0.711663
0.908126
1.02221
1.21842
1.65117
2.07261
2.76353
3.33538
4.11276
4.99615
5.80071
3.57829
3.02726
2.40715
1.87439
1.3831
1.10283
0.741155
0.671587
0.642361
0.616179
0.660536
0.845892
1.07953
1.45952
1.73987
2.24364
2.86825
3.54055
4.23362
4.87348
2.96491
2.47377
1.90951
1.47618
1.12307
0.812794
0.741998
0.59478
0.523608
0.526863
0.640564
0.705327
0.836943
1.1386
1.42739
1.88158
2.33137
2.89393
3.44036
3.97763
2.24956
1.95599
1.46102
1.10973
0.963736
0.676157
0.502419
0.39488
0.464093
0.426462
0.51469
0.612288
0.705505
0.925615
1.13437
1.46048
1.84428
2.23257
2.71067
3.14262
1.60842
1.33429
1.12089
0.824127
0.647323
0.558363
0.365647
0.352576
0.269245
0.303709
0.369903
0.305756
0.5516
0.609626
0.858153
1.12037
1.33964
1.5907
1.89975
2.17673
0.980888
0.781038
0.66293
0.520095
0.44309
0.319237
0.191541
0.204302
0.176748
0.170232
0.252047
0.232608
0.260442
0.382288
0.452724
0.63971
0.81014
0.925452
1.21183
1.30249
0.370602
0.283432
0.261678
0.162397
0.0687613
0.0559054
0.0189343
0.0772346
0.0904556
0.0977517
0.121454
0.0946719
0.116066
0.131576
0.139518
0.199954
0.241407
0.29882
0.417376
0.507258
6.50403
5.65746
4.77063
3.97108
3.32608
2.85517
2.45672
2.21102
2.15317
2.16008
2.29371
2.53969
2.83808
3.23906
3.77505
4.49939
5.37133
6.20412
7.29159
8.23695
5.49716
4.77996
4.07038
3.37654
2.76909
2.45756
2.0406
1.8969
1.77571
1.8133
1.85701
2.08463
2.33496
2.76562
3.27915
3.77571
4.6172
5.36394
6.26879
7.06926
4.63832
3.98161
3.39308
2.81707
2.35479
2.01671
1.7162
1.55145
1.58703
1.466
1.57867
1.72852
2.01883
2.26233
2.71061
3.20191
3.81951
4.52285
5.21087
5.8681
3.66597
3.19366
2.67869
2.18529
1.85351
1.60866
1.35361
1.32466
1.20411
1.21104
1.2966
1.42499
1.64971
1.90148
2.18973
2.65631
3.08728
3.68059
4.20906
4.80227
2.86931
2.39777
2.10327
1.7035
1.40708
1.28686
1.03138
0.972562
0.881919
0.980523
0.944283
1.1168
1.25692
1.4445
1.69875
2.00949
2.41285
2.82519
3.33106
3.67106
2.01564
1.73563
1.51145
1.26255
0.993068
0.796832
0.737541
0.697628
0.633149
0.626702
0.717095
0.760341
0.866666
1.03635
1.13052
1.4069
1.68662
2.01292
2.40205
2.66376
1.23303
1.01026
0.872249
0.756181
0.642247
0.524022
0.416931
0.352361
0.466883
0.356727
0.408006
0.457052
0.523168
0.654454
0.691438
0.881937
0.999271
1.1802
1.38909
1.58516
0.413713
0.297521
0.307223
0.219567
0.17098
0.180427
0.101854
0.0897138
0.0986029
0.104577
0.168924
0.12232
0.229771