/*--------------------------------*- C++ -*----------------------------------*\
| =========                 |                                                 |
| \\      /  F ield         | OpenFOAM: The Open Source CFD Toolbox           |
|  \\    /   O peration     | Version:  2212                                  |
|   \\  /    A nd           | Website:  www.openfoam.com                      |
|    \\/     M anipulation  |                                                 |
\*---------------------------------------------------------------------------*/
FoamFile
{
    version     2.0;
    format      ascii;
    arch        "LSB;label=32;scalar=64";
    class       volScalarField;
    location    "0";
    object      relativeErrorField;
}
// * * * * * * * * * * * * * * * * * * * * * * * * * * * * * * * * * * * * * //

dimensions      [0 0 0 1 0 0 0];

internalField   nonuniform List<scalar> 
3200
(
0.00625028
0.00599435
0.00514922
0.00363935
0.00155397
0.000563231
0.00269626
0.00478233
0.00658941
0.00753449
0.00798412
0.0072777
0.00601505
0.0043047
0.00253748
0.000546018
0.000813692
0.00192922
0.00250909
0.00277022
0.00544708
0.00529414
0.00478436
0.00323324
0.0016199
0.000617049
0.00252694
0.00412055
0.00589262
0.00653965
0.00680147
0.00650396
0.00528932
0.00374637
0.00195977
0.000494195
0.000719897
0.00169444
0.00258252
0.00251859
0.00489887
0.00464619
0.00398671
0.00291974
0.00138117
0.000280443
0.00192945
0.00359764
0.00479968
0.00553402
0.00599348
0.00567232
0.00455045
0.0033515
0.00195927
0.000589565
0.000600515
0.00164879
0.00186371
0.00213005
0.00388227
0.00374355
0.00335949
0.00233309
0.00129231
0.000232426
0.00178072
0.00308098
0.00434256
0.00497476
0.00486534
0.00441541
0.00383655
0.00290118
0.00162234
0.000608419
0.000522905
0.00128033
0.00171838
0.00160619
0.00343912
0.00287804
0.00248463
0.00191551
0.00112002
7.46081e-05
0.00134041
0.00243908
0.0033018
0.00376317
0.00385377
0.00377763
0.00301106
0.00212745
0.001392
0.000233736
0.000212815
0.00101271
0.00111882
0.00137176
0.00236168
0.00205727
0.00172512
0.00133871
0.000504526
0.000171422
0.00105899
0.00195507
0.00253641
0.00252585
0.00271644
0.0027345
0.00214468
0.00155132
0.000771644
0.000358669
0.000489807
0.00071312
0.000951634
0.000893536
0.00169041
0.00147406
0.00105936
0.000800341
0.000313148
0.0001869
0.000775514
0.00107477
0.00141923
0.0017998
0.00154902
0.00180618
0.0013982
0.00101373
0.000439987
0.000137462
0.000232764
0.000516124
0.000555331
0.000736857
0.000556473
0.000427662
0.000414953
0.000190745
0.000135378
0.00019833
0.000366754
0.000467538
0.000551354
0.000754966
0.000545237
0.000600704
0.000556414
0.000189228
9.8603e-05
5.9147e-05
0.000187834
0.00021161
0.000326959
0.00019068
0.00831128
0.00800606
0.0073631
0.00572058
0.00425535
0.00190689
0.000395767
0.0022665
0.00419777
0.00505435
0.00525606
0.0048274
0.00369059
0.00180359
3.82698e-05
0.00151901
0.00302527
0.00413792
0.00465295
0.00445914
0.00732728
0.00715126
0.00638272
0.00515482
0.00361761
0.00163042
0.000281023
0.00222033
0.00365305
0.00439578
0.00467272
0.00434716
0.00342558
0.00164631
0.00010899
0.00138976
0.0027769
0.00350446
0.00391775
0.00406814
0.00618626
0.00602089
0.00544225
0.0042335
0.00294248
0.00135549
0.000193476
0.0018709
0.0032074
0.0041079
0.00432266
0.00367844
0.0027399
0.00155089
0.000258681
0.000919964
0.00226289
0.00283205
0.00334092
0.00318559
0.00513816
0.00483601
0.00460286
0.00362851
0.0024893
0.00112479
0.000339856
0.00164734
0.00260463
0.00319573
0.00347729
0.00301518
0.00236659
0.0012736
0.000223229
0.00078228
0.00183291
0.00236119
0.00282742
0.0026536
0.00419791
0.00387308
0.00338716
0.00278357
0.00183119
0.00117071
0.000135879
0.00171844
0.00197143
0.00263184
0.00275722
0.00251744
0.00206827
0.000911219
0.000360556
0.000627449
0.00119466
0.00207586
0.00208082
0.00187883
0.00286643
0.00275125
0.00256932
0.00203972
0.00143191
0.000521525
0.000299381
0.000980825
0.00157215
0.00190908
0.00201108
0.00184355
0.00121566
0.00107801
0.000212384
0.000355768
0.000927072
0.00129975
0.00145815
0.00161124
0.00177773
0.00180554
0.00170123
0.00132466
0.000959486
0.000546823
8.66963e-05
0.000680041
0.00120097
0.00121355
0.00125736
0.00123361
0.00108005
0.000312854
9.08248e-05
0.000391871
0.000475474
0.000862981
0.00079888
0.000894168
0.000528046
0.0003043
0.000672216
0.000341496
0.000173819
0.00024933
4.18557e-06
6.41415e-05
8.78003e-05
0.000540821
0.000222583
0.000524105
0.000261642
0.000150936
4.26411e-05
7.53587e-05
0.000118118
0.00030294
0.000296582
0.000556567
0.0108266
0.0105546
0.00999095
0.00863744
0.0069053
0.00509589
0.00269298
0.000824563
0.000683491
0.00154593
0.00169126
0.00142673
0.000312253
0.00131874
0.00285605
0.00446664
0.00573715
0.0066473
0.00722586
0.00689727
0.00944896
0.00917414
0.00872858
0.00764372
0.00590041
0.00419586
0.00237738
0.00051106
0.000601717
0.00156683
0.00180233
0.00144042
0.000536724
0.00105667
0.00234271
0.00387921
0.00503015
0.00585712
0.00609987
0.00601469
0.00781251
0.00801254
0.00741853
0.00643726
0.00521022
0.00354569
0.00186379
0.000297155
0.000643051
0.00129305
0.00180808
0.00117832
0.00048251
0.000585654
0.00202379
0.00316334
0.00422871
0.00490532
0.00518774
0.00514177
0.00677063
0.00649918
0.00595262
0.00536068
0.00417724
0.00296209
0.0015763
2.99743e-05
0.000674305
0.0013402
0.00137671
0.00117394
0.00031093
0.000624482
0.0013597
0.00254973
0.00352099
0.00404198
0.00415319
0.00394272
0.00530554
0.0051146
0.00477557
0.00404268
0.00337994
0.00233621
0.00144205
5.57034e-05
0.000615184
0.00102108
0.00142605
0.000904032
0.000372719
0.00028202
0.00120365
0.00190797
0.00253993
0.00312064
0.00343608
0.00345333
0.00370532
0.00363035
0.0034914
0.00297699
0.00212083
0.00151132
0.000559552
0.000106015
0.0002587
0.000636017
0.000909615
0.000737957
0.000387563
3.66384e-05
0.00068947
0.00150312
0.00193517
0.0019542
0.00249827
0.00227227
0.00230215
0.00216383
0.00195284
0.0021912
0.00139643
0.000778051
0.000400897
2.59049e-05
0.000196227
0.000614009
0.000449158
0.000481447
8.72592e-05
0.00013882
0.000351462
0.000888912
0.000921916
0.00125196
0.00141335
0.00127612
0.000781062
0.000790253
0.000814214
0.000727051
0.000414732
0.000292284
9.20061e-05
5.28445e-05
1.8366e-05
7.16181e-05
0.00043988
6.36435e-05
0.000261517
0.000198529
7.34712e-05
0.000237394
0.000505703
0.000573228
0.00054292
0.000456485
0.0131992
0.0129641
0.0126257
0.0116245
0.010047
0.00818202
0.00610513
0.00451423
0.00284018
0.00195349
0.00170839
0.00207123
0.00296266
0.00433689
0.00605604
0.0073301
0.00856739
0.00925789
0.00950287
0.00907127
0.0111521
0.011261
0.0108181
0.0100321
0.00852939
0.00720406
0.0052158
0.00377612
0.00243785
0.00173648
0.0013869
0.00142752
0.00253213
0.00378265
0.00510137
0.00622126
0.00761132
0.00792471
0.00799678
0.00802092
0.00956963
0.00981233
0.00936243
0.00846941
0.00726621
0.00617248
0.00438645
0.00297132
0.0019929
0.00107363
0.00101966
0.00128378
0.00194748
0.00308884
0.00429273
0.00558615
0.00617326
0.0068455
0.00684748
0.00695264
0.00809801
0.0078698
0.00780472
0.00702793
0.00596664
0.00502985
0.00363627
0.00246784
0.00161274
0.000922156
0.00071596
0.000983797
0.00173614
0.00268955
0.00344631
0.0044245
0.00490439
0.00542429
0.00552104
0.00540722
0.00621279
0.00636186
0.00602244
0.00557716
0.00482449
0.00377988
0.00283575
0.0019537
0.00138477
0.000660818
0.00062221
0.000959717
0.00130141
0.00196423
0.00273046
0.00316962
0.00396634
0.00431415
0.00430847
0.00429242
0.00468747
0.00462528
0.00433287
0.00396141
0.00358022
0.00253644
0.00231536
0.00125257
0.000896384
0.000422459
0.000575924
0.000303699
0.000940341
0.00135658
0.00205341
0.002323
0.00310599
0.00307035
0.00332884
0.00296741
0.00267093
0.00278393
0.0025336
0.00234617
0.00205098
0.00165477
0.00132297
0.000697434
0.00036955
0.000200662
0.000321545
0.000246927
0.000611453
0.000776227
0.00096336
0.00151955
0.00170688
0.00186879
0.00182724
0.00186455
0.00097939
0.000973199
0.000875019
0.000858707
0.000606283
0.00040162
0.000369198
0.000286345
1.15128e-06
0.000119096
2.71675e-05
9.54399e-05
0.000244233
0.000201672
0.000372754
0.000441355
0.000464288
0.000443627
0.000801779
0.0006044
0.0151208
0.0152604
0.0149033
0.0143242
0.0127719
0.0113603
0.00917527
0.00745478
0.00632256
0.00556165
0.00512994
0.0054051
0.0064917
0.00755135
0.00879718
0.0101917
0.0109894
0.0116206
0.0115533
0.0110068
0.0130976
0.0133525
0.0130643
0.0122221
0.0110516
0.00963921
0.00796135
0.00649552
0.00542322
0.00440791
0.0044349
0.00472304
0.00544241
0.00670118
0.00755881
0.00877003
0.00936215
0.00993568
0.0100777
0.00957416
0.0114943
0.0112682
0.0109515
0.0103763
0.00931358
0.00818771
0.00681386
0.00557417
0.00444056
0.00379542
0.00375348
0.00402403
0.00446318
0.00556487
0.00649226
0.00749071
0.00807857
0.00842878
0.00855088
0.00811997
0.00917453
0.00951794
0.00913211
0.00881908
0.00791789
0.00689343
0.00556075
0.00446434
0.00372785
0.00317801
0.0028372
0.00313301
0.00349985
0.00456811
0.00511829
0.00594794
0.00666781
0.00682697
0.00678903
0.00665978
0.00715703
0.00747471
0.00729642
0.00692385
0.00621607
0.00515506
0.00434288
0.00355932
0.00301327
0.00235243
0.00217195
0.00245915
0.0031696
0.00353471
0.00393053
0.00465102
0.00513628
0.00543178
0.0054937
0.00514176
0.00525016
0.00527694
0.00520938
0.00490701
0.00437527
0.00385574
0.00325328
0.0026301
0.00199766
0.00180576
0.00155637
0.00168965
0.00211675
0.00248666
0.00297775
0.00326952
0.00369252
0.00367217
0.00377764
0.00371515
0.00333346
0.00337095
0.00302682
0.00297603
0.00279006
0.00213049
0.00199
0.00153802
0.00133139
0.00125748
0.00115232
0.00101876
0.00144513
0.00147047
0.00157818
0.00214148
0.00241816
0.0024678
0.00234088
0.00221661
0.00123972
0.00125348
0.00103364
0.00104611
0.000968241
0.000685723
0.000692897
0.000752002
0.000546546
0.00011155
0.000416139
0.000340186
0.000510878
0.000412721
0.000356379
0.000625274
0.000878542
0.000810556
0.000723789
0.000710408
0.0167321
0.0173045
0.0169413
0.0161302
0.0152294
0.0136987
0.0121332
0.0107562
0.009543
0.00881541
0.00838767
0.00858598
0.00924841
0.0105453
0.011463
0.0124393
0.0131232
0.0130859
0.013278
0.0124456
0.0143567
0.014894
0.0146976
0.0141926
0.0133259
0.0122311
0.0106951
0.00912154
0.00848118
0.00750165
0.00713588
0.00755215
0.00811426
0.00897016
0.00993707
0.0107268
0.011398
0.0115149
0.0112933
0.0108266
0.0125715
0.0125838
0.0125684
0.0122212
0.0110741
0.0100107
0.00910715
0.00788218
0.00684841
0.00637083
0.00606046
0.00640604
0.00689987
0.00756259
0.00848298
0.00923568
0.00937895
0.00992582
0.00970203
0.0092325
0.0101768
0.0103846
0.0103259
0.00996202
0.00932699
0.00843261
0.00765038
0.00632647
0.00588874
0.00520899
0.00517422
0.00520397
0.00554467
0.00605966
0.00682117
0.00750546
0.00789938
0.00790683
0.00797091
0.00743437
0.00806353
0.00817328
0.00825747
0.00770546
0.00743926
0.00664448
0.00595569
0.00498823
0.00436921
0.00387412
0.00394651
0.00416279
0.00431333
0.00478571
0.00554697
0.00605823
0.00627314
0.00614012
0.00631535
0.0059211
0.00594235
0.00600811
0.00606201
0.00566249
0.00532694
0.00486866
0.00423078
0.00356634
0.00310277
0.00275806
0.00274111
0.00260578
0.00318655
0.00361036
0.00398261
0.00392979
0.00451647
0.00460051
0.00469633
0.00446015
0.00341172
0.00366338
0.00360223
0.00364814
0.00325868
0.00304993
0.00252816
0.00224007
0.00182864
0.00152961
0.00172643
0.00162613
0.00191367
0.00230758
0.00236917
0.00261659
0.00276059
0.00269394
0.0026939
0.00276941
0.00127269
0.00129119
0.00102361
0.00120785
0.00133662
0.00100429
0.000807811
0.000537963
0.000877113
0.000477736
0.000468291
0.000704424
0.000670524
0.000866511
0.000781952
0.000952149
0.000886956
0.000834894
0.00101905
0.00113685
0.0179148
0.0185023
0.0184097
0.0180257
0.0173325
0.0159617
0.0149192
0.0134987
0.0122456
0.0116197
0.0111502
0.011444
0.0118832
0.0129423
0.0136498
0.0143963
0.0147415
0.0148298
0.0144571
0.0138022
0.0156116
0.0160069
0.0162895
0.0159908
0.0149526
0.0141638
0.0129254
0.0116115
0.0107167
0.00996613
0.0098136
0.0100181
0.0103573
0.011019
0.0120004
0.012386
0.012907
0.0129103
0.0122475
0.0117642
0.0133703
0.0134672
0.0138226
0.0132432
0.0128159
0.0120033
0.0106874
0.00973213
0.00906699
0.0083697
0.00832933
0.00835831
0.00883882
0.0096117
0.0100357
0.0107473
0.0108742
0.0106893
0.0105547
0.00989354
0.0111818
0.0113959
0.0113334
0.0110507
0.0107382
0.00980418
0.00907044
0.00818047
0.00744281
0.00692701
0.00699219
0.00690759
0.00744282
0.00779491
0.00828734
0.00884672
0.00891843
0.00913956
0.00853934
0.00823028
0.00859896
0.00890579
0.00887864
0.00874203
0.00839967
0.00778315
0.00720052
0.00635342
0.00579424
0.00554505
0.00523798
0.00537004
0.00554524
0.00597346
0.00642917
0.00695891
0.00696732
0.00690296
0.00685961
0.00656181
0.00638791
0.00623246
0.0065635
0.00625153
0.00582294
0.00572006
0.00501296
0.00470379
0.00433809
0.00417708
0.00354247
0.00396734
0.00405718
0.00427644
0.00486393
0.00494327
0.00502297
0.00504488
0.00483941
0.00476168
0.00381555
0.00391114
0.00388172
0.00385522
0.0038067
0.00352382
0.00328031
0.00304747
0.00254714
0.00230168
0.00245547
0.00239812
0.00254222
0.00274834
0.0029807
0.0030959
0.00292443
0.00301773
0.00300435
0.0027233
0.0013622
0.00136521
0.00134004
0.00138365
0.00124669
0.00131978
0.00105339
0.00105505
0.000896696
0.000851491
0.00071458
0.000852184
0.000843337
0.000927673
0.000781634
0.000857914
0.000957453
0.0010963
0.000972331
0.00113741
0.01855
0.0191579
0.0195264
0.0191273
0.0185803
0.0178127
0.0167527
0.0155174
0.0145758
0.0139786
0.0134679
0.0136915
0.0140416
0.015003
0.0153763
0.0158484
0.0161131
0.015586
0.0148809
0.0139973
0.01604
0.0168058
0.0168978
0.0168662
0.0161657
0.0154452
0.0145114
0.0135969
0.0126045
0.0123979
0.0118591
0.0119032
0.0124237
0.0129941
0.0133675
0.0139727
0.0139823
0.0137533
0.0131374
0.0122757
0.0137244
0.0144072
0.0145932
0.014419
0.0139402
0.0130772
0.0125206
0.0114664
0.0108352
0.0103528
0.0101341
0.0103563
0.0106197
0.0109354
0.0112432
0.0118175
0.011728
0.011522
0.0109364
0.010494
0.0115556
0.0117701
0.0120282
0.011805
0.0115914
0.0108783
0.0100817
0.00931292
0.00925918
0.00845985
0.00833353
0.00844254
0.00850619
0.00892808
0.00930568
0.00958434
0.00992896
0.00938686
0.00917395
0.00859147
0.00907406
0.00934873
0.00950902
0.009509
0.00913602
0.00867775
0.00812462
0.00754728
0.0071202
0.00663621
0.00640248
0.006607
0.00685307
0.00728294
0.00727699
0.00780913
0.00746649
0.00748997
0.00718551
0.00663139
0.00675223
0.00661699
0.00684378
0.00681831
0.006709
0.00637117
0.00608432
0.00520799
0.0050681
0.00496336
0.00475556
0.00500125
0.00495569
0.00507613
0.00552233
0.00559045
0.00562601
0.00537449
0.00509301
0.00473262
0.00388483
0.00420141
0.00395828
0.00441278
0.00388416
0.00374547
0.00358688
0.00341821
0.00321687
0.0029788
0.00302047
0.00285608
0.00297527
0.00309465
0.00330238
0.00335034
0.00335505
0.00317487
0.00332773
0.00278523
0.00120261
0.00148608
0.00146445
0.0013722
0.00145058
0.00130432
0.00125722
0.00116139
0.00103787
0.000804636
0.000823546
0.000751976
0.000978325
0.000966915
0.00124934
0.00113831
0.00128473
0.00101474
0.00121157
0.000944532
0.0183948
0.0193538
0.0200821
0.0199413
0.0196822
0.0190595
0.0179572
0.0171964
0.0165383
0.0158965
0.0156018
0.0156306
0.0160943
0.0163076
0.0165707
0.0167349
0.0165952
0.0159801
0.0150905
0.0139363
0.0163011
0.0168146
0.0173252
0.0173489
0.0172402
0.0165869
0.0159745
0.0150539
0.0142592
0.0137649
0.0134526
0.0136977
0.0138275
0.0142083
0.0144039
0.0143945
0.014445
0.0137478
0.0131948
0.0119739
0.0139623
0.0143768
0.0146145
0.0149319
0.0147753
0.014124
0.0135609
0.0126708
0.0121845
0.0118009
0.0117767
0.0116366
0.0117478
0.0119356
0.0122812
0.012292
0.0121547
0.0118229
0.0112187
0.0102118
0.0112217
0.0116975
0.0121928
0.0123663
0.0121145
0.0115867
0.0111685
0.0106151
0.0101205
0.00959655
0.00967245
0.00951803
0.00963356
0.00997446
0.00992518
0.0102813
0.00991002
0.00984843
0.00935815
0.00854545
0.00866669
0.00950705
0.00972724
0.00983044
0.00966766
0.00921903
0.00881802
0.00842715
0.00779533
0.00783617
0.0074911
0.00758285
0.00759877
0.00787262
0.0080703
0.00801911
0.00765936
0.00776678
0.00719594
0.00686857
0.00683748
0.00676015
0.00687426
0.00698235
0.00696525
0.00669316
0.0062312
0.00601605
0.00573737
0.00560752
0.00549765
0.00530616
0.00565033
0.00569557
0.00598067
0.00573439
0.00560196
0.00565746
0.00524499
0.00488111
0.00398319
0.00391748
0.00446281
0.00451082
0.00428426
0.00426283
0.00419762
0.00369938
0.00353524
0.00340089
0.00341933
0.00326491
0.00337387
0.00341903
0.00361104
0.00358462
0.00344089
0.00341489
0.00317967
0.00306611
0.0012063
0.00130095
0.00144354
0.00130798
0.00148773
0.0016762
0.00123451
0.001289
0.00125059
0.00120583
0.00115202
0.00128155
0.00126071
0.0011874
0.00111917
0.00140761
0.00105099
0.00116782
0.00114615
0.001042
0.0177729
0.0188791
0.0197443
0.0200043
0.0199715
0.0196126
0.0191072
0.0182797
0.0174603
0.0171103
0.0169228
0.0167443
0.016791
0.0168994
0.0172483
0.0170571
0.0166183
0.0158078
0.0145737
0.0132855
0.0156031
0.0165279
0.0174841
0.0175991
0.0176439
0.0173621
0.0166342
0.0161247
0.0153161
0.014949
0.0148031
0.014763
0.0147011
0.0148254
0.0149438
0.0148299
0.014315
0.0137874
0.012899
0.011529
0.0134925
0.0141735
0.0147751
0.0149402
0.0148037
0.0146394
0.0144082
0.0136138
0.0130087
0.0127848
0.0125011
0.0124466
0.0123624
0.0127359
0.012644
0.0127308
0.0122257
0.0116047
0.0109067
0.00982605
0.0112098
0.0116892
0.0121995
0.012544
0.0122281
0.0119108
0.0118216
0.0114968
0.0108598
0.0105902
0.0101968
0.0103442
0.0103632
0.0103573
0.0105315
0.0103989
0.0103551
0.00976373
0.00873359
0.00823956
0.00892385
0.00917542
0.00967231
0.0097356
0.00971953
0.0094599
0.00927178
0.00895916
0.00872068
0.00827331
0.00817608
0.00814739
0.00799222
0.00817798
0.00836952
0.00832446
0.00793596
0.00747261
0.00695257
0.00633105
0.00627385
0.00648287
0.00703144
0.00720444
0.00696395
0.00693072
0.00660321
0.00632886
0.00619491
0.00618998
0.00586572
0.00601663
0.00594496
0.00592859
0.00628103
0.00576776
0.0057065
0.00562659
0.0052065
0.00466423
0.00374179
0.00412801
0.00422776
0.00437506
0.00442613
0.00432594
0.00405748
0.00394216
0.00385725
0.00377857
0.00355415
0.0036692
0.00368207
0.00371161
0.00383202
0.00351922
0.00350233
0.00339837
0.00289176
0.00252713
0.00135393
0.00132034
0.00115878
0.00148358
0.00157783
0.00141789
0.00179066
0.00147145
0.00146114
0.00123339
0.0012676
0.00114565
0.00106421
0.00124208
0.0012562
0.00119225
0.0015239
0.0012866
0.00102078
0.000984018
0.0166655
0.0179248
0.0188081
0.0197124
0.0199892
0.0199019
0.019325
0.0187608
0.0183029
0.0179984
0.0176423
0.0172981
0.0173718
0.0171104
0.0169955
0.0169842
0.0162252
0.0149906
0.0135912
0.0120291
0.0146461
0.0157618
0.0166442
0.0171142
0.0174015
0.016982
0.0168825
0.016539
0.0159851
0.0158352
0.0153622
0.0151705
0.0149996
0.0149785
0.0149968
0.0145338
0.0141718
0.0130437
0.0117788
0.0104003
0.0125711
0.0132967
0.0141463
0.0147628
0.0146748
0.0146684
0.0142126
0.0140184
0.0136728
0.0131773
0.0132094
0.0129081
0.0127208
0.0127318
0.0127807
0.0123128
0.0118429
0.0110617
0.0101777
0.00889716
0.0103522
0.0110755
0.0116868
0.0120851
0.0122264
0.0118914
0.0121051
0.0116116
0.0111612
0.0107725
0.0108576
0.0108406
0.010541
0.0104657
0.0102789
0.0104116
0.00980985
0.00921049
0.00827876
0.00730321
0.00823834
0.00849744
0.009452
0.00960579
0.009937
0.00958745
0.00938837
0.00889394
0.00882139
0.00855799
0.00858955
0.00823976
0.00858814
0.00842127
0.00838973
0.00785673
0.00782626
0.00707447
0.00665258
0.00573318
0.00596474
0.00627407
0.00656057
0.00704565
0.00700081
0.00708655
0.00712742
0.00672957
0.00631582
0.00633817
0.00609377
0.0062249
0.00596063
0.00595019
0.00603605
0.00598477
0.0053639
0.00523916
0.00461056
0.00417759
0.00349955
0.00392403
0.00427661
0.00410749
0.00429539
0.00433338
0.00398827
0.00374383
0.00409703
0.00383054
0.00385081
0.00379425
0.00374162
0.00347501
0.00364989
0.00339843
0.00335121
0.0031151
0.00282329
0.00246804
0.00121883
0.00145535
0.00134032
0.00144152
0.00154961
0.00131009
0.00153942
0.00123043
0.001046
0.00121626
0.00142024
0.00127261
0.00150059
0.00110731
0.00127768
0.00108966
0.00112521
0.00108785
0.00102513
0.000979774
0.0147911
0.0163512
0.0177038
0.0186622
0.0188926
0.0190552
0.0186815
0.0184074
0.0180756
0.0178917
0.0174991
0.0173244
0.0170135
0.0168401
0.0163129
0.0158401
0.0149848
0.0133989
0.0117895
0.0101334
0.0130543
0.0142767
0.0153944
0.0162741
0.0165416
0.0165839
0.0164099
0.0161523
0.0158361
0.0155839
0.0152384
0.0151028
0.0149353
0.0147027
0.0144801
0.0137703
0.0128845
0.011706
0.0104169
0.00881554
0.0110321
0.0121752
0.0131975
0.014026
0.0142804
0.0142682
0.0140577
0.0139157
0.0138082
0.0131924
0.0133421
0.0129693
0.0129481
0.0123499
0.0123445
0.0116906
0.0110332
0.0100547
0.00873386
0.0075438
0.00930939
0.0101368
0.0109593
0.011422
0.0116562
0.0116554
0.0117438
0.0113359
0.0112834
0.0109469
0.0107586
0.0106764
0.010453
0.010256
0.0100166
0.00983646
0.0090374
0.00839168
0.00734939
0.00619555
0.00726014
0.00794838
0.00866905
0.00889547
0.00929553
0.00917184
0.00915807
0.00927208
0.00889031
0.00847468
0.00853422
0.00831493
0.00807506
0.00803561
0.00775732
0.0075819
0.00710433
0.00637947
0.00569626
0.00473461
0.00524194
0.00573451
0.00638452
0.00655318
0.00667312
0.006796
0.00641539
0.0064642
0.00639998
0.00614937
0.00595782
0.00588848
0.00599623
0.00584255
0.00570408
0.00550047
0.00534222
0.00473878
0.00425145
0.0035059
0.00301048
0.00338903
0.00394212
0.00393788
0.00427063
0.0039662
0.00408977
0.00380977
0.00397709
0.00379467
0.00377521
0.00360769
0.00366819
0.00363473
0.00370223
0.00329335
0.00319997
0.00286141
0.00254785
0.00223447
0.00117707
0.00128005
0.001253
0.00130001
0.00129328
0.00148763
0.00152651
0.00135633
0.00134549
0.00126656
0.0012341
0.00139676
0.00118717
0.000938953
0.00155425
0.00136364
0.000969346
0.00112986
0.00077924
0.000703763
0.0125566
0.0140888
0.0154833
0.0166954
0.0173743
0.0176748
0.0177143
0.0177313
0.0175888
0.0169941
0.0166403
0.016519
0.0160614
0.0156658
0.0151842
0.0140394
0.0132823
0.0114243
0.00973669
0.00766825
0.011017
0.0121664
0.0135314
0.0145589
0.0152995
0.0154622
0.0155517
0.0152834
0.0151893
0.0147934
0.0146617
0.0141684
0.0140129
0.0136618
0.0130065
0.0122663
0.0111655
0.00987153
0.00828751
0.00657756
0.00923276
0.010446
0.0115034
0.012758
0.013026
0.0132818
0.0131988
0.0129206
0.0129482
0.0124477
0.0123542
0.0123351
0.0120269
0.0119767
0.011275
0.0103847
0.00949285
0.00869093
0.00710296
0.00559227
0.00768808
0.00859625
0.00947003
0.0101775
0.0107169
0.0109218
0.010895
0.0108492
0.0106877
0.0105762
0.0104279
0.0100943
0.00982255
0.00959176
0.0091655
0.00870162
0.00791024
0.0067861
0.00575484
0.00479653
0.00630918
0.00675056
0.00786322
0.00812642
0.00864744
0.00854133
0.00866107
0.00868131
0.00848212
0.00822024
0.00805596
0.00799731
0.00769367
0.00757021
0.00703425
0.00683151
0.00609116
0.00561139
0.00469888
0.0036257
0.00426867
0.00470806
0.00548914
0.005986
0.00608899
0.00617031
0.00613179
0.00617748
0.00615916
0.00588818
0.00570087
0.00594097
0.00552573
0.00542348
0.00516347
0.00499868
0.00446344
0.00411665
0.00310703
0.00268426
0.00282072
0.00305564
0.00332483
0.00360498
0.00358833
0.00378775
0.00401134
0.00378552
0.00378526
0.00372715
0.00361154
0.00370776
0.00325019
0.00323017
0.00304152
0.0028766
0.00268559
0.00249445
0.0020669
0.00169578
0.000786764
0.00118451
0.00118417
0.00117938
0.00130068
0.0013017
0.00141953
0.00110376
0.00131937
0.00140938
0.00119373
0.00123188
0.00119696
0.00127495
0.00132613
0.000994191
0.000866932
0.000891871
0.000486379
0.000563066
0.0092762
0.0113685
0.0128942
0.0142454
0.0152913
0.0155497
0.0161605
0.0160985
0.0158836
0.0157087
0.0152364
0.014949
0.0143181
0.0137027
0.0128887
0.011815
0.0106398
0.00858971
0.00680071
0.00464664
0.00824857
0.00990331
0.0112102
0.0121847
0.013224
0.0137038
0.0139231
0.0137065
0.0138692
0.0136813
0.0133935
0.0128963
0.0125922
0.0118544
0.0112194
0.0102795
0.00920334
0.0075326
0.00569008
0.00394221
0.00699983
0.00827734
0.00948463
0.0105299
0.0111651
0.011588
0.0118537
0.0119124
0.0116081
0.0116918
0.011104
0.0108486
0.0105605
0.0101479
0.00948315
0.00879563
0.00779595
0.00632113
0.00497279
0.00331622
0.00606588
0.00680562
0.0078421
0.00856218
0.0093162
0.00961006
0.00972889
0.0099226
0.00964293
0.00961033
0.00930234
0.00914475
0.009036
0.00830326
0.00789593
0.00710422
0.00647706
0.0051634
0.00394797
0.00262732
0.00455756
0.00546657
0.00622359
0.0068339
0.00715438
0.00759337
0.00788608
0.0077349
0.00766811
0.00736977
0.00750506
0.00719276
0.00702769
0.00674915
0.00617513
0.00553488
0.00490565
0.0039378
0.00311108
0.00205409
0.00312796
0.00380663
0.00448169
0.00493583
0.00540911
0.00552388
0.00553602
0.0056071
0.00535276
0.00546941
0.00528073
0.00520726
0.00510764
0.00494282
0.00450892
0.00389008
0.00362788
0.00297802
0.00216998
0.00141837
0.00183108
0.00231653
0.00272103
0.00322363
0.00308073
0.00360799
0.00344367
0.00341397
0.00337355
0.00349091
0.00339489
0.0033216
0.00320571
0.00298354
0.00260312
0.00239618
0.00212405
0.00183517
0.00125353
0.000835901
0.00080981
0.000760287
0.000924759
0.00109325
0.0011034
0.00109408
0.00114147
0.00108984
0.00125152
0.00116648
0.000997092
0.000858193
0.00103701
0.000915807
0.000873171
0.000932936
0.000592652
0.000494706
0.000379923
0.000442176
0.0057413
0.0078368
0.00951105
0.0112434
0.0120789
0.0128385
0.0133225
0.0134514
0.0134573
0.0131574
0.0128529
0.0126594
0.0119547
0.0111374
0.0104839
0.00896699
0.00740043
0.00538554
0.0030394
0.000704364
0.0050615
0.00661341
0.00816656
0.00951918
0.0106879
0.0110535
0.0114643
0.0118096
0.0116816
0.0114672
0.0112017
0.0107532
0.0102459
0.00978589
0.00883095
0.00762491
0.00629457
0.00458807
0.00255983
0.000663918
0.00432063
0.00549513
0.00701483
0.00826634
0.00900196
0.00955117
0.0100142
0.0100651
0.00998614
0.00986843
0.00957346
0.00912579
0.00861811
0.00832906
0.00769771
0.00629478
0.00531335
0.00378494
0.00199023
0.000546328
0.00344753
0.00458115
0.00568649
0.0067702
0.00729609
0.00770136
0.00826744
0.00818845
0.00823446
0.00814488
0.00785527
0.00786611
0.00710431
0.00675159
0.00633778
0.00533866
0.00447734
0.00311538
0.00161414
0.000405859
0.00266046
0.00362703
0.00448045
0.00519863
0.0058016
0.00605917
0.00636812
0.00657847
0.00657306
0.00646671
0.00629778
0.00589043
0.005725
0.00536603
0.00455253
0.00413491
0.00326563
0.00217193
0.00106489
0.000149002
0.00188063
0.0026434
0.00359971
0.00370888
0.00421156
0.00450215
0.00465464
0.00467431
0.00466783
0.0046941
0.00442455
0.00441054
0.00402142
0.0037489
0.00347367
0.00297288
0.00251283
0.00176389
0.000801513
4.69932e-06
0.00119161
0.00152448
0.0021281
0.00223899
0.0026323
0.00281259
0.00267339
0.00300525
0.00302264
0.00262307
0.0026858
0.00268005
0.00239821
0.00254565
0.00229944
0.00203297
0.00147384
0.00111864
0.000436822
0.000160358
0.000454471
0.000579284
0.000683503
0.00081833
0.00104027
0.000660037
0.00108352
0.000935238
0.000754943
0.00110851
0.000775217
0.000895061
0.000917399
0.000534786
0.000564386
0.0005506
0.000523536
0.000407136
0.000142982
5.36822e-05
0.00159575
0.0034247
0.00556143
0.00724431
0.00872181
0.00952565
0.0101768
0.0101788
0.010252
0.0103886
0.00993586
0.00965616
0.00887144
0.0078113
0.00666318
0.00544608
0.00351927
0.00141567
0.00128452
0.00335413
0.00108446
0.00291769
0.00469998
0.00602704
0.00745327
0.00812747
0.00874074
0.00874932
0.00896371
0.00886255
0.00863324
0.00817145
0.00756972
0.00661789
0.00579577
0.00470031
0.00288131
0.00112252
0.00105551
0.00331258
0.000846466
0.00251483
0.0037067
0.00509773
0.00616527
0.00674474
0.00743107
0.00748818
0.00755327
0.00748796
0.00731117
0.00705765
0.00651109
0.0058306
0.00491823
0.0038372
0.00235382
0.000645391
0.00120436
0.00274267
0.000594369
0.00189314
0.00314829
0.00431972
0.00510266
0.00581125
0.00606418
0.00628147
0.00643292
0.00628269
0.00590545
0.00538114
0.0053961
0.0046126
0.00392128
0.00305176
0.00154371
0.00043844
0.00107875
0.00235441
0.000686121
0.00153041
0.00266376
0.00335742
0.00403529
0.00453794
0.00475017
0.00482556
0.0048236
0.00468485
0.00474073
0.00439618
0.00411479
0.00362372
0.00309079
0.00227218
0.00142328
0.000275849
0.000960023
0.00192498
0.000342966
0.000942584
0.00179128
0.00239955
0.00291627
0.00317054
0.00342367
0.00351763
0.00362472
0.00355252
0.00345246
0.00312942
0.00282373
0.00265753
0.00226715
0.00161296
0.000968826
2.29581e-05
0.000595489
0.00150788
0.000350018
0.000633451
0.00115404
0.00140156
0.00170644
0.00205704
0.00235602
0.00197553
0.00207452
0.00213657
0.00196044
0.00195459
0.00162627
0.00154625
0.00138178
0.00106944
0.000537919
9.03125e-05
0.000360556
0.000892502
0.00022304
0.000507043
0.000329342
0.000571584
0.000686313
0.000596969
0.000689839
0.000863541
0.000807168
0.000714017
0.000676604
0.000530023
0.000550379
0.000527407
0.000614158
0.000340614
0.0002392
9.30141e-05
0.000386721
0.000485022
0.00326862
0.000993192
0.00104651
0.00283208
0.00431422
0.00551457
0.00611135
0.00672062
0.00651952
0.00674297
0.0061517
0.00556334
0.00494461
0.00388728
0.0025349
0.000975385
0.000944515
0.00325037
0.00566334
0.00821509
0.00284961
0.00107718
0.0007264
0.00238886
0.00376628
0.00472263
0.00533359
0.00560275
0.00576669
0.00565945
0.00539697
0.00474974
0.0042352
0.00327179
0.00210827
0.000828493
0.000955859
0.00318172
0.00514751
0.00728692
0.00264381
0.00126282
0.000453114
0.00186097
0.00297343
0.00395915
0.00423497
0.0047396
0.00468568
0.00462078
0.00437751
0.00412675
0.00349222
0.00233961
0.00171537
0.000556909
0.000997779
0.00283447
0.00464191
0.0063232
0.0022411
0.00121698
0.000286912
0.00152412
0.00239883
0.00311172
0.00363731
0.00370533
0.00396851
0.00366667
0.00363798
0.00324035
0.00306358
0.00219514
0.00154145
0.000444815
0.000973106
0.00225324
0.00379554
0.00523318
0.00173369
0.000675725
0.0002564
0.00118578
0.00170814
0.00244601
0.00268955
0.00305228
0.00285635
0.00296007
0.002569
0.00241851
0.0021737
0.00176291
0.00100843
0.00037985
0.000686672
0.0020633
0.00326338
0.00455078
0.00113957
0.000560758
0.000236543
0.000765457
0.00124442
0.0020488
0.00196301
0.00218188
0.00247055
0.00225101
0.00196336
0.0015003
0.00171693
0.0013194
0.000537782
0.000206994
0.000492321
0.0014145
0.00216971
0.00291168
0.000974811
0.000180205
7.2561e-05
0.000291955
0.000689705
0.000836691
0.00113378
0.00119772
0.00112618
0.00122684
0.00126362
0.000997802