/*--------------------------------*- C++ -*----------------------------------*\
| =========                 |                                                 |
| \\      /  F ield         | OpenFOAM: The Open Source CFD Toolbox           |
|  \\    /   O peration     | Version:  2212                                  |
|   \\  /    A nd           | Website:  www.openfoam.com                      |
|    \\/     M anipulation  |                                                 |
\*---------------------------------------------------------------------------*/
FoamFile
{
    version     2.0;
    format      ascii;
    arch        "LSB;label=32;scalar=64";
    class       volScalarField;
    location    "0";
    object      Tdirect;
}
// * * * * * * * * * * * * * * * * * * * * * * * * * * * * * * * * * * * * * //

dimensions      [0 0 0 1 0 0 0];

internalField   nonuniform List<scalar> 
3200
(
319.899
320.079
320.308
320.558
320.816
321.069
321.302
321.499
321.643
321.719
321.719
321.643
321.499
321.302
321.069
320.816
320.558
320.308
320.079
319.899
317.172
317.324
317.522
317.738
317.961
318.18
318.382
318.552
318.676
318.741
318.741
318.676
318.552
318.382
318.18
317.961
317.738
317.522
317.324
317.172
314.478
314.604
314.771
314.953
315.142
315.327
315.497
315.641
315.745
315.801
315.801
315.745
315.641
315.497
315.327
315.142
314.953
314.771
314.604
314.478
311.811
311.913
312.049
312.198
312.352
312.503
312.642
312.76
312.845
312.89
312.89
312.845
312.76
312.642
312.503
312.352
312.198
312.049
311.913
311.811
309.166
309.245
309.35
309.466
309.586
309.703
309.811
309.902
309.969
310.004
310.004
309.969
309.902
309.811
309.703
309.586
309.466
309.35
309.245
309.166
306.539
306.594
306.669
306.752
306.838
306.921
306.999
307.064
307.111
307.136
307.136
307.111
307.064
306.999
306.921
306.838
306.752
306.669
306.594
306.539
303.923
303.956
304.001
304.051
304.102
304.152
304.199
304.238
304.266
304.281
304.281
304.266
304.238
304.199
304.152
304.102
304.051
304.001
303.956
303.923
301.314
301.325
301.34
301.357
301.374
301.391
301.407
301.42
301.429
301.434
301.434
301.429
301.42
301.407
301.391
301.374
301.357
301.34
301.325
301.314
319.975
320.153
320.381
320.629
320.884
321.134
321.365
321.559
321.701
321.776
321.776
321.701
321.559
321.365
321.134
320.884
320.629
320.381
320.153
319.975
317.237
317.388
317.584
317.799
318.019
318.236
318.435
318.603
318.726
318.79
318.79
318.726
318.603
318.435
318.236
318.019
317.799
317.584
317.388
317.237
314.533
314.658
314.823
315.004
315.191
315.374
315.542
315.684
315.787
315.842
315.842
315.787
315.684
315.542
315.374
315.191
315.004
314.823
314.658
314.533
311.856
311.957
312.091
312.24
312.392
312.541
312.679
312.795
312.879
312.924
312.924
312.879
312.795
312.679
312.541
312.392
312.24
312.091
311.957
311.856
309.201
309.279
309.383
309.498
309.617
309.733
309.84
309.93
309.995
310.03
310.03
309.995
309.93
309.84
309.733
309.617
309.498
309.383
309.279
309.201
306.564
306.618
306.693
306.775
306.86
306.943
307.019
307.083
307.13
307.154
307.154
307.13
307.083
307.019
306.943
306.86
306.775
306.693
306.618
306.564
303.938
303.971
304.015
304.065
304.115
304.165
304.211
304.249
304.277
304.292
304.292
304.277
304.249
304.211
304.165
304.115
304.065
304.015
303.971
303.938
301.319
301.33
301.345
301.362
301.379
301.395
301.411
301.424
301.433
301.438
301.438
301.433
301.424
301.411
301.395
301.379
301.362
301.345
301.33
301.319
320.127
320.303
320.527
320.77
321.02
321.264
321.49
321.68
321.818
321.891
321.891
321.818
321.68
321.49
321.264
321.02
320.77
320.527
320.303
320.127
317.368
317.517
317.71
317.92
318.136
318.348
318.543
318.707
318.826
318.889
318.889
318.826
318.707
318.543
318.348
318.136
317.92
317.71
317.517
317.368
314.643
314.766
314.929
315.107
315.289
315.468
315.633
315.771
315.872
315.925
315.925
315.872
315.771
315.633
315.468
315.289
315.107
314.929
314.766
314.643
311.946
312.045
312.177
312.323
312.472
312.618
312.753
312.866
312.948
312.991
312.991
312.948
312.866
312.753
312.618
312.472
312.323
312.177
312.045
311.946
309.271
309.347
309.45
309.563
309.679
309.793
309.897
309.985
310.049
310.082
310.082
310.049
309.985
309.897
309.793
309.679
309.563
309.45
309.347
309.271
306.613
306.667
306.74
306.821
306.904
306.985
307.06
307.122
307.168
307.192
307.192
307.168
307.122
307.06
306.985
306.904
306.821
306.74
306.667
306.613
303.968
304
304.044
304.092
304.142
304.191
304.235
304.273
304.3
304.315
304.315
304.3
304.273
304.235
304.191
304.142
304.092
304.044
304
303.968
301.329
301.34
301.355
301.371
301.388
301.404
301.419
301.431
301.441
301.445
301.445
301.441
301.431
301.419
301.404
301.388
301.371
301.355
301.34
301.329
320.356
320.528
320.746
320.982
321.225
321.462
321.679
321.862
321.995
322.065
322.065
321.995
321.862
321.679
321.462
321.225
320.982
320.746
320.528
320.356
317.565
317.71
317.899
318.103
318.313
318.518
318.706
318.865
318.979
319.04
319.04
318.979
318.865
318.706
318.518
318.313
318.103
317.899
317.71
317.565
314.809
314.929
315.088
315.261
315.438
315.611
315.77
315.904
316.001
316.052
316.052
316.001
315.904
315.77
315.611
315.438
315.261
315.088
314.929
314.809
312.081
312.178
312.307
312.448
312.593
312.735
312.865
312.974
313.053
313.095
313.095
313.053
312.974
312.865
312.735
312.593
312.448
312.307
312.178
312.081
309.375
309.45
309.55
309.66
309.773
309.883
309.984
310.068
310.13
310.162
310.162
310.13
310.068
309.984
309.883
309.773
309.66
309.55
309.45
309.375
306.688
306.74
306.812
306.89
306.971
307.049
307.121
307.182
307.226
307.249
307.249
307.226
307.182
307.121
307.049
306.971
306.89
306.812
306.74
306.688
304.012
304.044
304.087
304.134
304.182
304.229
304.272
304.309
304.335
304.349
304.349
304.335
304.309
304.272
304.229
304.182
304.134
304.087
304.044
304.012
301.344
301.355
301.369
301.385
301.401
301.417
301.431
301.443
301.452
301.457
301.457
301.452
301.443
301.431
301.417
301.401
301.385
301.369
301.355
301.344
320.663
320.829
321.04
321.268
321.501
321.728
321.936
322.11
322.237
322.303
322.303
322.237
322.11
321.936
321.728
321.501
321.268
321.04
320.829
320.663
317.829
317.97
318.151
318.349
318.551
318.747
318.927
319.078
319.187
319.245
319.245
319.187
319.078
318.927
318.747
318.551
318.349
318.151
317.97
317.829
315.03
315.147
315.3
315.467
315.638
315.804
315.956
316.083
316.176
316.224
316.224
316.176
316.083
315.956
315.804
315.638
315.467
315.3
315.147
315.03
312.261
312.355
312.48
312.616
312.756
312.892
313.016
313.12
313.195
313.235
313.235
313.195
313.12
313.016
312.892
312.756
312.616
312.48
312.355
312.261
309.515
309.587
309.684
309.79
309.899
310.004
310.101
310.182
310.24
310.271
310.271
310.24
310.182
310.101
310.004
309.899
309.79
309.684
309.587
309.515
306.787
306.838
306.908
306.983
307.061
307.136
307.205
307.263
307.304
307.326
307.326
307.304
307.263
307.205
307.136
307.061
306.983
306.908
306.838
306.787
304.072
304.102
304.144
304.189
304.236
304.281
304.322
304.357
304.382
304.395
304.395
304.382
304.357
304.322
304.281
304.236
304.189
304.144
304.102
304.072
301.364
301.374
301.388
301.403
301.419
301.434
301.448
301.46
301.468
301.472
301.472
301.468
301.46
301.448
301.434
301.419
301.403
301.388
301.374
301.364
321.047
321.206
321.409
321.627
321.849
322.065
322.262
322.426
322.545
322.608
322.608
322.545
322.426
322.262
322.065
321.849
321.627
321.409
321.206
321.047
318.159
318.295
318.469
318.658
318.851
319.037
319.207
319.35
319.453
319.507
319.507
319.453
319.35
319.207
319.037
318.851
318.658
318.469
318.295
318.159
315.309
315.421
315.568
315.728
315.89
316.048
316.192
316.312
316.399
316.444
316.444
316.399
316.312
316.192
316.048
315.89
315.728
315.568
315.421
315.309
312.488
312.578
312.698
312.828
312.961
313.09
313.208
313.306
313.377
313.414
313.414
313.377
313.306
313.208
313.09
312.961
312.828
312.698
312.578
312.488
309.691
309.76
309.853
309.955
310.058
310.158
310.25
310.326
310.381
310.41
310.41
310.381
310.326
310.25
310.158
310.058
309.955
309.853
309.76
309.691
306.912
306.962
307.028
307.1
307.174
307.246
307.311
307.365
307.405
307.425
307.425
307.405
307.365
307.311
307.246
307.174
307.1
307.028
306.962
306.912
304.147
304.176
304.216
304.26
304.304
304.347
304.386
304.419
304.442
304.455
304.455
304.442
304.419
304.386
304.347
304.304
304.26
304.216
304.176
304.147
301.389
301.399
301.412
301.427
301.442
301.456
301.469
301.48
301.488
301.492
301.492
301.488
301.48
301.469
301.456
301.442
301.427
301.412
301.399
301.389
321.509
321.662
321.855
322.062
322.272
322.475
322.659
322.813
322.924
322.982
322.982
322.924
322.813
322.659
322.475
322.272
322.062
321.855
321.662
321.509
318.558
318.687
318.853
319.033
319.214
319.39
319.55
319.683
319.779
319.829
319.829
319.779
319.683
319.55
319.39
319.214
319.033
318.853
318.687
318.558
315.644
315.751
315.891
316.043
316.196
316.345
316.48
316.592
316.673
316.716
316.716
316.673
316.592
316.48
316.345
316.196
316.043
315.891
315.751
315.644
312.76
312.847
312.961
313.085
313.211
313.332
313.442
313.534
313.6
313.635
313.635
313.6
313.534
313.442
313.332
313.211
313.085
312.961
312.847
312.76
309.902
309.969
310.057
310.154
310.251
310.346
310.431
310.503
310.554
310.581
310.581
310.554
310.503
310.431
310.346
310.251
310.154
310.057
309.969
309.902
307.063
307.11
307.173
307.242
307.312
307.379
307.44
307.491
307.528
307.547
307.547
307.528
307.491
307.44
307.379
307.312
307.242
307.173
307.11
307.063
304.237
304.265
304.303
304.344
304.386
304.427
304.464
304.494
304.516
304.528
304.528
304.516
304.494
304.464
304.427
304.386
304.344
304.303
304.265
304.237
301.419
301.429
301.442
301.455
301.469
301.483
301.495
301.506
301.513
301.517
301.517
301.513
301.506
301.495
301.483
301.469
301.455
301.442
301.429
301.419
322.051
322.196
322.379
322.574
322.771
322.961
323.132
323.275
323.377
323.431
323.431
323.377
323.275
323.132
322.961
322.771
322.574
322.379
322.196
322.051
319.024
319.147
319.305
319.474
319.644
319.808
319.957
320.08
320.169
320.215
320.215
320.169
320.08
319.957
319.808
319.644
319.474
319.305
319.147
319.024
316.036
316.138
316.271
316.414
316.558
316.697
316.822
316.926
317.001
317.04
317.04
317.001
316.926
316.822
316.697
316.558
316.414
316.271
316.138
316.036
313.08
313.162
313.27
313.387
313.505
313.619
313.721
313.806
313.868
313.9
313.9
313.868
313.806
313.721
313.619
313.505
313.387
313.27
313.162
313.08
310.15
310.213
310.297
310.388
310.479
310.568
310.647
310.714
310.761
310.786
310.786
310.761
310.714
310.647
310.568
310.479
310.388
310.297
310.213
310.15
307.24
307.284
307.344
307.409
307.474
307.537
307.594
307.642
307.676
307.693
307.693
307.676
307.642
307.594
307.537
307.474
307.409
307.344
307.284
307.24
304.343
304.37
304.406
304.445
304.484
304.522
304.556
304.584
304.605
304.615
304.615
304.605
304.584
304.556
304.522
304.484
304.445
304.406
304.37
304.343
301.455
301.464
301.476
301.489
301.502
301.515
301.526
301.536
301.543
301.546
301.546
301.543
301.536
301.526
301.515
301.502
301.489
301.476
301.464
301.455
322.673
322.811
322.982
323.165
323.349
323.524
323.683
323.814
323.908
323.957
323.957
323.908
323.814
323.683
323.524
323.349
323.165
322.982
322.811
322.673
319.56
319.676
319.824
319.982
320.141
320.293
320.431
320.544
320.625
320.668
320.668
320.625
320.544
320.431
320.293
320.141
319.982
319.824
319.676
319.56
316.487
316.583
316.708
316.842
316.976
317.105
317.221
317.317
317.385
317.421
317.421
317.385
317.317
317.221
317.105
316.976
316.842
316.708
316.583
316.487
313.447
313.525
313.627
313.736
313.846
313.951
314.046
314.124
314.18
314.21
314.21
314.18
314.124
314.046
313.951
313.846
313.736
313.627
313.525
313.447
310.434
310.494
310.573
310.658
310.744
310.825
310.899
310.96
311.004
311.026
311.026
311.004
310.96
310.899
310.825
310.744
310.658
310.573
310.494
310.434
307.442
307.484
307.541
307.601
307.663
307.721
307.774
307.817
307.848
307.865
307.865
307.848
307.817
307.774
307.721
307.663
307.601
307.541
307.484
307.442
304.465
304.49
304.524
304.56
304.597
304.632
304.663
304.69
304.708
304.718
304.718
304.708
304.69
304.663
304.632
304.597
304.56
304.524
304.49
304.465
301.496
301.504
301.515
301.528
301.54
301.552
301.562
301.571
301.577
301.581
301.581
301.577
301.571
301.562
301.552
301.54
301.528
301.515
301.504
301.496
323.377
323.506
323.666
323.837
324.006
324.168
324.314
324.433
324.519
324.563
324.563
324.519
324.433
324.314
324.168
324.006
323.837
323.666
323.506
323.377
320.165
320.274
320.413
320.56
320.708
320.848
320.974
321.077
321.151
321.19
321.19
321.151
321.077
320.974
320.848
320.708
320.56
320.413
320.274
320.165
316.996
317.087
317.204
317.328
317.453
317.571
317.678
317.765
317.828
317.86
317.86
317.828
317.765
317.678
317.571
317.453
317.328
317.204
317.087
316.996
313.862
313.935
314.03
314.132
314.234
314.331
314.418
314.49
314.541
314.567
314.567
314.541
314.49
314.418
314.331
314.234
314.132
314.03
313.935
313.862
310.756
310.812
310.886
310.965
311.044
311.12
311.187
311.243
311.283
311.304
311.304
311.283
311.243
311.187
311.12
311.044
310.965
310.886
310.812
310.756
307.671
307.711
307.764
307.82
307.877
307.931
307.979
308.019
308.047
308.062
308.062
308.047
308.019
307.979
307.931
307.877
307.82
307.764
307.711
307.671
304.602
304.626
304.657
304.691
304.725
304.758
304.787
304.811
304.828
304.836
304.836
304.828
304.811
304.787
304.758
304.725
304.691
304.657
304.626
304.602
301.542
301.55
301.56
301.572
301.583
301.594
301.603
301.611
301.617
301.62
301.62
301.617
301.611
301.603
301.594
301.583
301.572
301.56
301.55
301.542
324.162
324.283
324.432
324.59
324.746
324.895
325.027
325.136
325.213
325.253
325.253
325.213
325.136
325.027
324.895
324.746
324.59
324.432
324.283
324.162
320.841
320.943
321.073
321.209
321.345
321.473
321.588
321.682
321.749
321.784
321.784
321.749
321.682
321.588
321.473
321.345
321.209
321.073
320.943
320.841
317.565
317.65
317.758
317.874
317.989
318.097
318.194
318.274
318.331
318.36
318.36
318.331
318.274
318.194
318.097
317.989
317.874
317.758
317.65
317.565
314.325
314.394
314.482
314.577
314.67
314.759
314.839
314.904
314.95
314.974
314.974
314.95
314.904
314.839
314.759
314.67
314.577
314.482
314.394
314.325
311.115
311.167
311.236
311.31
311.383
311.452
311.514
311.564
311.6
311.619
311.619
311.6
311.564
311.514
311.452
311.383
311.31
311.236
311.167
311.115
307.927
307.964
308.013
308.066
308.118
308.167
308.212
308.248
308.273
308.287
308.287
308.273
308.248
308.212
308.167
308.118
308.066
308.013
307.964
307.927
304.755
304.778
304.807
304.838
304.87
304.899
304.926
304.948
304.963
304.971
304.971
304.963
304.948
304.926
304.899
304.87
304.838
304.807
304.778
304.755
301.593
301.6
301.61
301.621
301.631
301.641
301.65
301.657
301.663
301.665
301.665
301.663
301.657
301.65
301.641
301.631
301.621
301.61
301.6
301.593
325.03
325.142
325.281
325.426
325.57
325.705
325.825
325.923
325.993
326.029
326.029
325.993
325.923
325.825
325.705
325.57
325.426
325.281
325.142
325.03
321.588
321.684
321.803
321.929
322.053
322.171
322.275
322.36
322.42
322.452
322.452
322.42
322.36
322.275
322.171
322.053
321.929
321.803
321.684
321.588
318.194
318.273
318.373
318.48
318.585
318.684
318.772
318.844
318.895
318.922
318.922
318.895
318.844
318.772
318.684
318.585
318.48
318.373
318.273
318.194
314.837
314.901
314.983
315.07
315.156
315.237
315.31
315.368
315.41
315.432
315.432
315.41
315.368
315.31
315.237
315.156
315.07
314.983
314.901
314.837
311.512
311.561
311.624
311.692
311.759
311.822
311.878
311.924
311.957
311.974
311.974
311.957
311.924
311.878
311.822
311.759
311.692
311.624
311.561
311.512
308.21
308.245
308.29
308.338
308.386
308.431
308.472
308.504
308.527
308.54
308.54
308.527
308.504
308.472
308.431
308.386
308.338
308.29
308.245
308.21
304.925
304.946
304.973
305.002
305.031
305.058
305.082
305.101
305.115
305.123
305.123
305.115
305.101
305.082
305.058
305.031
305.002
304.973
304.946
304.925
301.65
301.657
301.666
301.676
301.685
301.694
301.702
301.709
301.714
301.716
301.716
301.714
301.709
301.702
301.694
301.685
301.676
301.666
301.657
301.65
325.98
326.085
326.213
326.346
326.477
326.6
326.709
326.797
326.86
326.892
326.892
326.86
326.797
326.709
326.6
326.477
326.346
326.213
326.085
325.98
322.407
322.495
322.606
322.721
322.835
322.942
323.036
323.112
323.167
323.195
323.195
323.167
323.112
323.036
322.942
322.835
322.721
322.606
322.495
322.407
318.882
318.956
319.049
319.146
319.243
319.333
319.413
319.477
319.523
319.547
319.547
319.523
319.477
319.413
319.333
319.243
319.146
319.049
318.956
318.882
315.398
315.457
315.533
315.613
315.692
315.766
315.831
315.884
315.921
315.941
315.941
315.921
315.884
315.831
315.766
315.692
315.613
315.533
315.457
315.398
311.947
311.992
312.051
312.113
312.174
312.232
312.282
312.324
312.353
312.368
312.368
312.353
312.324
312.282
312.232
312.174
312.113
312.051
311.992
311.947
308.52
308.552
308.594
308.638
308.682
308.723
308.759
308.789
308.81
308.821
308.821
308.81
308.789
308.759
308.723
308.682
308.638
308.594
308.552
308.52
305.111
305.13
305.155
305.182
305.208
305.233
305.254
305.272
305.285
305.291
305.291
305.285
305.272
305.254
305.233
305.208
305.182
305.155
305.13
305.111
301.712
301.718
301.727
301.736
301.745
301.753
301.76
301.766
301.77
301.772
301.772
301.77
301.766
301.76
301.753
301.745
301.736
301.727
301.718
301.712
327.014
327.11
327.228
327.35
327.47
327.581
327.679
327.759
327.815
327.844
327.844
327.815
327.759
327.679
327.581
327.47
327.35
327.228
327.11
327.014
323.297
323.378
323.48
323.586
323.689
323.786
323.871
323.94
323.988
324.013
324.013
323.988
323.94
323.871
323.786
323.689
323.586
323.48
323.378
323.297
319.631
319.699
319.784
319.874
319.962
320.043
320.115
320.173
320.215
320.236
320.236
320.215
320.173
320.115
320.043
319.962
319.874
319.784
319.699
319.631
316.008
316.062
316.132
316.206
316.277
316.344
316.403
316.451
316.484
316.502
316.502
316.484
316.451
316.403
316.344
316.277
316.206
316.132
316.062
316.008
312.419
312.461
312.515
312.572
312.628
312.68
312.726
312.763
312.789
312.803
312.803
312.789
312.763
312.726
312.68
312.628
312.572
312.515
312.461
312.419
308.857
308.886
308.925
308.966
309.006
309.043
309.075
309.102
309.121
309.13
309.13
309.121
309.102
309.075
309.043
309.006
308.966
308.925
308.886
308.857
305.313
305.33
305.353
305.378
305.402
305.424
305.444
305.46
305.471
305.477
305.477
305.471
305.46
305.444
305.424
305.402
305.378
305.353
305.33
305.313
301.78
301.786
301.793
301.801
301.81
301.817
301.824
301.829
301.833
301.835
301.835
301.833
301.829
301.824
301.817
301.81
301.801
301.793
301.786
301.78
328.129
328.218
328.326
328.438
328.546
328.647
328.735
328.806
328.856
328.882
328.882
328.856
328.806
328.735
328.647
328.546
328.438
328.326
328.218
328.129
324.256
324.331
324.425
324.522
324.616
324.703
324.779
324.841
324.884
324.907
324.907
324.884
324.841
324.779
324.703
324.616
324.522
324.425
324.331
324.256
320.438
320.501
320.579
320.661
320.741
320.815
320.879
320.931
320.968
320.987
320.987
320.968
320.931
320.879
320.815
320.741
320.661
320.579
320.501
320.438
316.665
316.715
316.78
316.847
316.912
316.972
317.025
317.068
317.098
317.113
317.113
317.098
317.068
317.025
316.972
316.912
316.847
316.78
316.715
316.665
312.929
312.967
313.017
313.069
313.12
313.167
313.208
313.241
313.265
313.277
313.277
313.265
313.241
313.208
313.167
313.12
313.069
313.017
312.967
312.929
309.22
309.247
309.282
309.319
309.356
309.389
309.419
309.443
309.459
309.468
309.468
309.459
309.443
309.419
309.389
309.356
309.319
309.282
309.247
309.22
305.53
305.546
305.568
305.59
305.612
305.632
305.65
305.664
305.674
305.679
305.679
305.674
305.664
305.65
305.632
305.612
305.59
305.568
305.546
305.53
301.852
301.858
301.865
301.873
301.88
301.887
301.893
301.897
301.901
301.902
301.902
301.901
301.897
301.893
301.887
301.88
301.873
301.865
301.858
301.852
329.321
329.403
329.502
329.604
329.702
329.793
329.872
329.936
329.98
330.003
330.003
329.98
329.936
329.872
329.793
329.702
329.604
329.502
329.403
329.321
325.281
325.351
325.436
325.524
325.61
325.688
325.757
325.812
325.851
325.871
325.871
325.851
325.812
325.757
325.688
325.61
325.524
325.436
325.351
325.281
321.3
321.357
321.43
321.504
321.576
321.643
321.701
321.748
321.781
321.798
321.798
321.781
321.748
321.701
321.643
321.576
321.504
321.43
321.357
321.3
317.367
317.413
317.472
317.533
317.592
317.646
317.694
317.732
317.759
317.773
317.773
317.759
317.732
317.694
317.646
317.592
317.533
317.472
317.413
317.367
313.472
313.507
313.553
313.6
313.646
313.689
313.726
313.756
313.776
313.787
313.787
313.776
313.756
313.726
313.689
313.646
313.6
313.553
313.507
313.472
309.606
309.632
309.664
309.698
309.731
309.761
309.788
309.809
309.824
309.832
309.832
309.824
309.809
309.788
309.761
309.731
309.698
309.664
309.632
309.606
305.762
305.777
305.797
305.817
305.837
305.855
305.871
305.884
305.893
305.897
305.897
305.893
305.884
305.871
305.855
305.837
305.817
305.797
305.777
305.762
301.93
301.935
301.942
301.948
301.955
301.961
301.967
301.971
301.974
301.975
301.975
301.974
301.971
301.967
301.961
301.955
301.948
301.942
301.935
301.93
330.578
330.653
330.744
330.837
330.926
331.008
331.079
331.136
331.176
331.196
331.196
331.176
331.136
331.079
331.008
330.926
330.837
330.744
330.653
330.578
326.361
326.424
326.503
326.583
326.66
326.732
326.793
326.843
326.877
326.895
326.895
326.877
326.843
326.793
326.732
326.66
326.583
326.503
326.424
326.361
322.206
322.259
322.325
322.393
322.458
322.518
322.571
322.613
322.642
322.657
322.657
322.642
322.613
322.571
322.518
322.458
322.393
322.325
322.259
322.206
318.103
318.145
318.199
318.255
318.308
318.358
318.4
318.435
318.459
318.471
318.471
318.459
318.435
318.4
318.358
318.308
318.255
318.199
318.145
318.103
314.041
314.074
314.116
314.159
314.201
314.239
314.272
314.299
314.318
314.327
314.327
314.318
314.299
314.272
314.239
314.201
314.159
314.116
314.074
314.041
310.012
310.035
310.065
310.095
310.125
310.153
310.177
310.196
310.209
310.216
310.216
310.209
310.196
310.177
310.153
310.125
310.095
310.065
310.035
310.012
306.005
306.019
306.036
306.055
306.073
306.089
306.104
306.115
306.123
306.127
306.127
306.123
306.115
306.104
306.089
306.073
306.055
306.036
306.019
306.005
302.011
302.016
302.022
302.028
302.034
302.04
302.045
302.048
302.051
302.052
302.052
302.051
302.048
302.045
302.04
302.034
302.028
302.022
302.016
302.011
331.87
331.939
332.022
332.106
332.188
332.262
332.326
332.377
332.412
332.431
332.431
332.412
332.377
332.326
332.262
332.188
332.106
332.022
331.939
331.87
327.465
327.523
327.595
327.668
327.739
327.803
327.859
327.903
327.934
327.95
327.95
327.934
327.903
327.859
327.803
327.739
327.668
327.595
327.523
327.465
323.129
323.177
323.238
323.3
323.359
323.414
323.461
323.499
323.525
323.538
323.538
323.525
323.499
323.461
323.414
323.359
323.3
323.238
323.177
323.129
318.85
318.889
318.938
318.989
319.038
319.083
319.121
319.152
319.174
319.185
319.185
319.174
319.152
319.121
319.083
319.038
318.989
318.938
318.889
318.85
314.617
314.647
314.686
314.725
314.763
314.798
314.828
314.852
314.869
314.878
314.878
314.869
314.852
314.828
314.798
314.763
314.725
314.686
314.647
314.617
310.421
310.442
310.469
310.498
310.525
310.55
310.571
310.588
310.6
310.606
310.606
310.6
310.588
310.571
310.55
310.525
310.498
310.469
310.442
310.421
306.249
306.262
306.279
306.296
306.312
306.327
306.34
306.35
306.357
306.361
306.361
306.357
306.35
306.34
306.327
306.312
306.296
306.279
306.262
306.249
302.093
302.097
302.103
302.109
302.114
302.119
302.123
302.127
302.129
302.131
302.131
302.129
302.127
302.123
302.119
302.114
302.109
302.103
302.097
302.093
333.115
333.179
333.256
333.334
333.408
333.475
333.534
333.58
333.612
333.629
333.629
333.612
333.58
333.534
333.475
333.408
333.334
333.256
333.179
333.115
328.517
328.571
328.637
328.705
328.769
328.828
328.878
328.918
328.946
328.961
328.961
328.946
328.918
328.878
328.828
328.769
328.705
328.637
328.571
328.517
323.998
324.043
324.099
324.156
324.211
324.261
324.304
324.338
324.362
324.374
324.374
324.362
324.338
324.304
324.261
324.211
324.156
324.099
324.043
323.998
319.548
319.584
319.63
319.676
319.721
319.762
319.797
319.825
319.845
319.855
319.855
319.845
319.825
319.797
319.762
319.721
319.676
319.63
319.584
319.548
315.152
315.179
315.215
315.251
315.286
315.318
315.346
315.367
315.383
315.39
315.39
315.383
315.367
315.346
315.318
315.286
315.251
315.215
315.179
315.152
310.798
310.818
310.843
310.869
310.894
310.917
310.936
310.952
310.963
310.968
310.968
310.963
310.952
310.936
310.917
310.894
310.869
310.843
310.818
310.798
306.474
306.486
306.501
306.517
306.532
306.545
306.557
306.567
306.573
306.576
306.576
306.573
306.567
306.557
306.545
306.532
306.517
306.501
306.486
306.474
302.168
302.172
302.177
302.182
302.187
302.192
302.196
302.199
302.201
302.203
302.203
302.201
302.199
302.196
302.192
302.187
302.182
302.177
302.172
302.168
334.099
334.159
334.231
334.304
334.373
334.436
334.49
334.533
334.563
334.579
334.579
334.563
334.533
334.49
334.436
334.373
334.304
334.231
334.159
334.099
329.315
329.366
329.429
329.492
329.553
329.608
329.655
329.692
329.718
329.732
329.732
329.718
329.692
329.655
329.608
329.553
329.492
329.429
329.366
329.315
324.638
324.68
324.733
324.787
324.839
324.885
324.926
324.958
324.98
324.991
324.991
324.98
324.958
324.926
324.885
324.839
324.787
324.733
324.68
324.638
320.048
320.082
320.126
320.17
320.212
320.25
320.283
320.31
320.328
320.337
320.337
320.328
320.31
320.283
320.25
320.212
320.17
320.126
320.082
320.048
315.527
315.554
315.587
315.622
315.655
315.685
315.711
315.731
315.745
315.753
315.753
315.745
315.731
315.711
315.685
315.655
315.622
315.587
315.554
315.527
311.059
311.078
311.102
311.127
311.15
311.172
311.19
311.205
311.215
311.22
311.22
311.215
311.205
311.19
311.172
311.15
311.127
311.102
311.078
311.059
306.628
306.64
306.654
306.669
306.683
306.696
306.707
306.716
306.722
306.725
306.725
306.722
306.716
306.707
306.696
306.683
306.669
306.654
306.64
306.628
302.219
302.223
302.228
302.233
302.238
302.242
302.246
302.249
302.251
302.252
302.252
302.251
302.249
302.246
302.242
302.238
302.233
302.228
302.223
302.219
)
;

boundaryField
{
    hotSide
    {
        type            fixedGradient;
        gradient        nonuniform List<scalar> 
400
(
221.33
222.198
223.935
226.546
230.035
234.41
239.678
245.847
252.927
260.924
269.849
279.709
290.511
302.261
314.966
328.63
343.257
358.85
375.413
392.946
223.695
224.544
226.245
228.802
232.223
236.517
241.693
247.762
254.736
262.626
271.442
281.193
291.889
303.536
316.143
329.713
344.253
359.764
376.25
393.714
226.256
227.082
228.739
231.233
234.572
238.77
243.839
249.792
256.645
264.411
273.103
282.732
293.309
304.843
317.342
330.812
345.257
360.68
377.086
394.475
228.968
229.768
231.374
233.794
237.04
241.128
246.074
251.897
258.613
266.241
274.796
284.291
294.74
306.152
318.536
331.899
346.245
361.577
377.899
395.212
231.756
232.528
234.076
236.414
239.556
243.522
248.333
254.012
260.581
268.06
276.469
285.823
296.137
307.423
319.689
332.942
347.188
362.429
378.668
395.906
234.505
235.245
236.732
238.982
242.013
245.851
250.521
256.051
262.467
269.795
278.055
287.267
297.447
308.607
320.757
333.904
348.053
363.207
379.367
396.534
237.056
237.765
239.191
241.353
244.275
247.987
252.519
257.904
264.173
271.355
279.474
288.553
298.607
309.651
321.694
334.744
348.805
363.879
379.969
397.072
239.221
239.902
241.273
243.357
246.181
249.78
254.189
259.447
265.587
272.643
280.641
289.604
299.552
310.497
322.45
335.419
349.407
364.416
380.447
397.499
240.806
241.465
242.794
244.818
247.568
251.081
255.398
260.56
266.604
273.565
281.473
290.352
300.221
311.095
322.983
335.893
349.829
364.791
380.781
397.796
241.645
242.292
243.599
245.59
248.3
251.767
256.034
261.144
267.136
274.047
281.907
290.741
300.569
311.404
323.258
336.138
350.046
364.984
380.952
397.948
241.645
242.292
243.599
245.59
248.3
251.767
256.034
261.144
267.136
274.047
281.907
290.741
300.569
311.404
323.258
336.138
350.046
364.984
380.952
397.948
240.806
241.465
242.794
244.818
247.568
251.081
255.398
260.56
266.604
273.565
281.473
290.352
300.221
311.095
322.983
335.893
349.829
364.791
380.781
397.796
239.221
239.902
241.273
243.357
246.181
249.78
254.189
259.447
265.587
272.643
280.641
289.604
299.552
310.497
322.45
335.419
349.407
364.416
380.447
397.499
237.056
237.765
239.191
241.353
244.275
247.987
252.519
257.904
264.173
271.355
279.474
288.553
298.607
309.651
321.694
334.744
348.805
363.879
379.969
397.072
234.505
235.245
236.732
238.982
242.013
245.851
250.521
256.051
262.467
269.795
278.055
287.267
297.447
308.607
320.757
333.904
348.053
363.207
379.367
396.534
231.756
232.528
234.076
236.414
239.556
243.522
248.333
254.012
260.581
268.06
276.469
285.823
296.137
307.423
319.689
332.942
347.188
362.429
378.668
395.906
228.968
229.768
231.374
233.794
237.04
241.128
246.074
251.897
258.613
266.241
274.796
284.291
294.74
306.152
318.536
331.899
346.245
361.577
377.899
395.212
226.256
227.082
228.739
231.233
234.572
238.77
243.839
249.792
256.645
264.411
273.103
282.732
293.309
304.843
317.342
330.812
345.257
360.68
377.086
394.475
223.695
224.544
226.245
228.802
232.223
236.517
241.693
247.762
254.736
262.626
271.442
281.193
291.889
303.536
316.143
329.713
344.253
359.764
376.25
393.714
221.33
222.198
223.935
226.546
230.035
234.41
239.678
245.847
252.927
260.924
269.849
279.709
290.511
302.261
314.966
328.63
343.257
358.85
375.413
392.946
)
;
    }
    coldSide
    {
        type            mixed;
        refValue        uniform 300;
        refGradient     uniform 0;
        valueFraction   uniform 0.991591;
        source          uniform 0;
        value           nonuniform List<scalar> 
400
(
300.011
300.011
300.011
300.011
300.011
300.012
300.012
300.012
300.013
300.013
300.013
300.014
300.014
300.015
300.016
300.016
300.017
300.018
300.018
300.019
300.011
300.011
300.011
300.011
300.012
300.012
300.012
300.012
300.013
300.013
300.013
300.014
300.014
300.015
300.016
300.016
300.017