/*--------------------------------*- C++ -*----------------------------------*\
| =========                 |                                                 |
| \\      /  F ield         | OpenFOAM: The Open Source CFD Toolbox           |
|  \\    /   O peration     | Version:  2212                                  |
|   \\  /    A nd           | Website:  www.openfoam.com                      |
|    \\/     M anipulation  |                                                 |
\*---------------------------------------------------------------------------*/
FoamFile
{
    version     2.0;
    format      ascii;
    arch        "LSB;label=32;scalar=64";
    class       volScalarField;
    location    "./ITHACAoutput/true/10.1";
    object      trueState;
}
// * * * * * * * * * * * * * * * * * * * * * * * * * * * * * * * * * * * * * //

dimensions      [0 0 0 1 0 0 0];

internalField   nonuniform List<scalar> 
3200
(
334.025
334.481
335.063
335.697
336.35
336.991
337.582
338.082
338.446
338.638
338.638
338.446
338.082
337.582
336.991
336.35
335.697
335.063
334.481
334.025
329.613
329.999
330.501
331.049
331.614
332.169
332.68
333.112
333.426
333.592
333.592
333.426
333.112
332.68
332.169
331.614
331.049
330.501
329.999
329.613
325.149
325.469
325.892
326.355
326.833
327.301
327.733
328.097
328.362
328.502
328.502
328.362
328.097
327.733
327.301
326.833
326.355
325.892
325.469
325.149
320.64
320.898
321.242
321.621
322.011
322.394
322.747
323.044
323.26
323.375
323.375
323.26
323.044
322.747
322.394
322.011
321.621
321.242
320.898
320.64
316.095
316.293
316.56
316.854
317.158
317.455
317.729
317.96
318.128
318.217
318.217
318.128
317.96
317.729
317.455
317.158
316.854
316.56
316.293
316.095
311.522
311.662
311.853
312.063
312.279
312.492
312.687
312.852
312.972
313.035
313.035
312.972
312.852
312.687
312.492
312.279
312.063
311.853
311.662
311.522
306.929
307.013
307.127
307.253
307.383
307.511
307.628
307.727
307.799
307.837
307.837
307.799
307.727
307.628
307.511
307.383
307.253
307.127
307.013
306.929
302.324
302.352
302.39
302.433
302.476
302.519
302.558
302.591
302.615
302.628
302.628
302.615
302.591
302.558
302.519
302.476
302.433
302.39
302.352
302.324
334.14
334.592
335.169
335.797
336.443
337.077
337.662
338.155
338.514
338.704
338.704
338.514
338.155
337.662
337.077
336.443
335.797
335.169
334.592
334.14
329.713
330.096
330.593
331.136
331.696
332.244
332.75
333.176
333.486
333.65
333.65
333.486
333.176
332.75
332.244
331.696
331.136
330.593
330.096
329.713
325.233
325.551
325.97
326.429
326.902
327.365
327.792
328.151
328.413
328.551
328.551
328.413
328.151
327.792
327.365
326.902
326.429
325.97
325.551
325.233
320.709
320.965
321.306
321.682
322.068
322.447
322.795
323.089
323.303
323.415
323.415
323.303
323.089
322.795
322.447
322.068
321.682
321.306
320.965
320.709
316.149
316.345
316.61
316.902
317.202
317.496
317.767
317.995
318.161
318.249
318.249
318.161
317.995
317.767
317.496
317.202
316.902
316.61
316.345
316.149
311.561
311.7
311.889
312.097
312.311
312.521
312.715
312.877
312.996
313.058
313.058
312.996
312.877
312.715
312.521
312.311
312.097
311.889
311.7
311.561
306.952
307.035
307.149
307.273
307.402
307.528
307.644
307.742
307.813
307.851
307.851
307.813
307.742
307.644
307.528
307.402
307.273
307.149
307.035
306.952
302.332
302.36
302.398
302.439
302.483
302.525
302.564
302.596
302.62
302.633
302.633
302.62
302.596
302.564
302.525
302.483
302.439
302.398
302.36
302.332
334.369
334.814
335.381
335.997
336.631
337.251
337.822
338.303
338.653
338.838
338.838
338.653
338.303
337.822
337.251
336.631
335.997
335.381
334.814
334.369
329.912
330.289
330.778
331.311
331.859
332.396
332.89
333.306
333.608
333.767
333.767
333.608
333.306
332.89
332.396
331.859
331.311
330.778
330.289
329.912
325.403
325.715
326.127
326.578
327.041
327.494
327.911
328.262
328.517
328.652
328.652
328.517
328.262
327.911
327.494
327.041
326.578
326.127
325.715
325.403
320.848
321.1
321.436
321.804
322.183
322.553
322.894
323.18
323.389
323.498
323.498
323.389
323.18
322.894
322.553
322.183
321.804
321.436
321.1
320.848
316.257
316.451
316.711
316.997
317.292
317.579
317.844
318.067
318.228
318.314
318.314
318.228
318.067
317.844
317.579
317.292
316.997
316.711
316.451
316.257
311.638
311.775
311.961
312.165
312.375
312.581
312.77
312.929
313.044
313.105
313.105
313.044
312.929
312.77
312.581
312.375
312.165
311.961
311.775
311.638
306.999
307.081
307.192
307.315
307.441
307.564
307.678
307.773
307.842
307.879
307.879
307.842
307.773
307.678
307.564
307.441
307.315
307.192
307.081
306.999
302.347
302.375
302.412
302.453
302.495
302.537
302.575
302.607
302.63
302.642
302.642
302.63
302.607
302.575
302.537
302.495
302.453
302.412
302.375
302.347
334.714
335.149
335.702
336.301
336.916
337.516
338.068
338.532
338.868
339.046
339.046
338.868
338.532
338.068
337.516
336.916
336.301
335.702
335.149
334.714
330.213
330.58
331.057
331.576
332.108
332.627
333.104
333.505
333.796
333.95
333.95
333.796
333.505
333.104
332.627
332.108
331.576
331.057
330.58
330.213
325.657
325.963
326.364
326.803
327.252
327.691
328.094
328.433
328.678
328.808
328.808
328.678
328.433
328.094
327.691
327.252
326.803
326.364
325.963
325.657
321.057
321.303
321.63
321.989
322.356
322.715
323.044
323.321
323.521
323.627
323.627
323.521
323.321
323.044
322.715
322.356
321.989
321.63
321.303
321.057
316.42
316.609
316.863
317.141
317.427
317.706
317.962
318.176
318.332
318.414
318.414
318.332
318.176
317.962
317.706
317.427
317.141
316.863
316.609
316.42
311.755
311.888
312.069
312.268
312.472
312.671
312.854
313.007
313.118
313.177
313.177
313.118
313.007
312.854
312.671
312.472
312.268
312.069
311.888
311.755
307.069
307.149
307.257
307.377
307.499
307.619
307.728
307.82
307.887
307.922
307.922
307.887
307.82
307.728
307.619
307.499
307.377
307.257
307.149
307.069
302.371
302.398
302.434
302.474
302.515
302.555
302.592
302.623
302.645
302.657
302.657
302.645
302.623
302.592
302.555
302.515
302.474
302.434
302.398
302.371
335.177
335.598
336.132
336.711
337.301
337.877
338.404
338.846
339.167
339.335
339.335
339.167
338.846
338.404
337.877
337.301
336.711
336.132
335.598
335.177
330.615
330.971
331.432
331.933
332.444
332.942
333.398
333.78
334.057
334.203
334.203
334.057
333.78
333.398
332.942
332.444
331.933
331.432
330.971
330.615
325.999
326.295
326.683
327.106
327.538
327.959
328.344
328.667
328.901
329.024
329.024
328.901
328.667
328.344
327.959
327.538
327.106
326.683
326.295
325.999
321.337
321.575
321.892
322.238
322.591
322.935
323.25
323.514
323.704
323.805
323.805
323.704
323.514
323.25
322.935
322.591
322.238
321.892
321.575
321.337
316.639
316.821
317.067
317.336
317.611
317.878
318.122
318.327
318.476
318.554
318.554
318.476
318.327
318.122
317.878
317.611
317.336
317.067
316.821
316.639
311.911
312.041
312.216
312.407
312.604
312.795
312.969
313.116
313.221
313.277
313.277
313.221
313.116
312.969
312.795
312.604
312.407
312.216
312.041
311.911
307.163
307.24
307.345
307.46
307.578
307.693
307.798
307.886
307.949
307.982
307.982
307.949
307.886
307.798
307.693
307.578
307.46
307.345
307.24
307.163
302.403
302.428
302.463
302.502
302.542
302.58
302.615
302.645
302.666
302.677
302.677
302.666
302.645
302.615
302.58
302.542
302.502
302.463
302.428
302.403
335.758
336.163
336.676
337.229
337.792
338.339
338.837
339.255
339.556
339.715
339.715
339.556
339.255
338.837
338.339
337.792
337.229
336.676
336.163
335.758
331.12
331.463
331.906
332.384
332.872
333.345
333.776
334.137
334.398
334.535
334.535
334.398
334.137
333.776
333.345
332.872
332.384
331.906
331.463
331.12
326.428
326.713
327.085
327.49
327.902
328.302
328.666
328.971
329.191
329.307
329.307
329.191
328.971
328.666
328.302
327.902
327.49
327.085
326.713
326.428
321.689
321.918
322.222
322.553
322.89
323.217
323.515
323.764
323.943
324.038
324.038
323.943
323.764
323.515
323.217
322.89
322.553
322.222
321.918
321.689
316.913
317.089
317.325
317.582
317.844
318.098
318.329
318.523
318.662
318.736
318.736
318.662
318.523
318.329
318.098
317.844
317.582
317.325
317.089
316.913
312.108
312.232
312.4
312.584
312.771
312.952
313.118
313.256
313.355
313.408
313.408
313.355
313.256
313.118
312.952
312.771
312.584
312.4
312.232
312.108
307.281
307.355
307.456
307.566
307.679
307.788
307.887
307.97
308.03
308.061
308.061
308.03
307.97
307.887
307.788
307.679
307.566
307.456
307.355
307.281
302.442
302.467
302.501
302.538
302.575
302.612
302.645
302.673
302.693
302.703
302.703
302.693
302.673
302.645
302.612
302.575
302.538
302.501
302.467
302.442
336.46
336.847
337.336
337.861
338.393
338.907
339.375
339.765
340.046
340.193
340.193
340.046
339.765
339.375
338.907
338.393
337.861
337.336
336.847
336.46
331.731
332.059
332.481
332.935
333.396
333.841
334.245
334.583
334.826
334.953
334.953
334.826
334.583
334.245
333.841
333.396
332.935
332.481
332.059
331.731
326.946
327.218
327.574
327.958
328.347
328.724
329.066
329.35
329.556
329.663
329.663
329.556
329.35
329.066
328.724
328.347
327.958
327.574
327.218
326.946
322.115
322.334
322.623
322.937
323.256
323.563
323.843
324.076
324.243
324.331
324.331
324.243
324.076
323.843
323.563
323.256
322.937
322.623
322.334
322.115
317.245
317.413
317.637
317.881
318.129
318.368
318.586
318.767
318.897
318.965
318.965
318.897
318.767
318.586
318.368
318.129
317.881
317.637
317.413
317.245
312.345
312.464
312.624
312.798
312.975
313.146
313.301
313.43
313.523
313.572
313.572
313.523
313.43
313.301
313.146
312.975
312.798
312.624
312.464
312.345
307.424
307.495
307.591
307.695
307.802
307.904
307.998
308.075
308.131
308.16
308.16
308.131
308.075
307.998
307.904
307.802
307.695
307.591
307.495
307.424
302.49
302.514
302.546
302.581
302.617
302.651
302.682
302.708
302.727
302.737
302.737
302.727
302.708
302.682
302.651
302.617
302.581
302.546
302.514
302.49
337.285
337.653
338.116
338.61
339.109
339.59
340.024
340.385
340.645
340.781
340.781
340.645
340.385
340.024
339.59
339.109
338.61
338.116
337.653
337.285
332.448
332.76
333.159
333.587
334.02
334.435
334.812
335.124
335.349
335.466
335.466
335.349
335.124
334.812
334.435
334.02
333.587
333.159
332.76
332.448
327.555
327.814
328.15
328.512
328.878
329.229
329.547
329.811
330.001
330.1
330.1
330.001
329.811
329.547
329.229
328.878
328.512
328.15
327.814
327.555
322.614
322.822
323.096
323.392
323.691
323.979
324.239
324.455
324.61
324.691
324.691
324.61
324.455
324.239
323.979
323.691
323.392
323.096
322.822
322.614
317.634
317.794
318.007
318.237
318.469
318.693
318.895
319.062
319.183
319.246
319.246
319.183
319.062
318.895
318.693
318.469
318.237
318.007
317.794
317.634
312.624
312.737
312.888
313.053
313.219
313.378
313.523
313.643
313.729
313.774
313.774
313.729
313.643
313.523
313.378
313.219
313.053
312.888
312.737
312.624
307.591
307.659
307.75
307.848
307.948
308.044
308.131
308.203
308.254
308.281
308.281
308.254
308.203
308.131
308.044
307.948
307.848
307.75
307.659
307.591
302.546
302.569
302.599
302.632
302.666
302.698
302.727
302.751
302.768
302.777
302.777
302.768
302.751
302.727
302.698
302.666
302.632
302.599
302.569
302.546
338.235
338.582
339.018
339.481
339.946
340.391
340.792
341.124
341.362
341.487
341.487
341.362
341.124
340.792
340.391
339.946
339.481
339.018
338.582
338.235
333.274
333.569
333.944
334.345
334.748
335.134
335.481
335.769
335.974
336.082
336.082
335.974
335.769
335.481
335.134
334.748
334.345
333.944
333.569
333.274
328.256
328.501
328.817
329.156
329.497
329.823
330.117
330.36
330.534
330.624
330.624
330.534
330.36
330.117
329.823
329.497
329.156
328.817
328.501
328.256
323.19
323.386
323.644
323.921
324.2
324.467
324.707
324.905
325.048
325.122
325.122
325.048
324.905
324.707
324.467
324.2
323.921
323.644
323.386
323.19
318.083
318.233
318.434
318.649
318.866
319.073
319.26
319.414
319.525
319.583
319.583
319.525
319.414
319.26
319.073
318.866
318.649
318.434
318.233
318.083
312.945
313.051
313.194
313.348
313.503
313.651
313.784
313.895
313.974
314.015
314.015
313.974
313.895
313.784
313.651
313.503
313.348
313.194
313.051
312.945
307.784
307.848
307.934
308.026
308.119
308.208
308.288
308.354
308.402
308.427
308.427
308.402
308.354
308.288
308.208
308.119
308.026
307.934
307.848
307.784
302.611
302.632
302.661
302.692
302.723
302.753
302.78
302.802
302.818
302.826
302.826
302.818
302.802
302.78
302.753
302.723
302.692
302.661
302.632
302.611
339.311
339.638
340.045
340.477
340.907
341.318
341.686
341.989
342.205
342.318
342.318
342.205
341.989
341.686
341.318
340.907
340.477
340.045
339.638
339.311
334.211
334.488
334.839
335.212
335.586
335.941
336.26
336.522
336.71
336.808
336.808
336.71
336.522
336.26
335.941
335.586
335.212
334.839
334.488
334.211
329.052
329.281
329.577
329.893
330.208
330.509
330.779
331
331.159
331.242
331.242
331.159
331
330.779
330.509
330.208
329.893
329.577
329.281
329.052
323.842
324.026
324.268
324.526
324.784
325.03
325.251
325.432
325.562
325.629
325.629
325.562
325.432
325.251
325.03
324.784
324.526
324.268
324.026
323.842
318.591
318.733
318.92
319.121
319.322
319.513
319.684
319.825
319.926
319.979
319.979
319.926
319.825
319.684
319.513
319.322
319.121
318.92
318.733
318.591
313.309
313.409
313.542
313.686
313.829
313.966
314.088
314.189
314.261
314.299
314.299
314.261
314.189
314.088
313.966
313.829
313.686
313.542
313.409
313.309
308.003
308.063
308.143
308.229
308.315
308.398
308.471
308.532
308.575
308.597
308.597
308.575
308.532
308.471
308.398
308.315
308.229
308.143
308.063
308.003
302.684
302.704
302.731
302.76
302.789
302.816
302.841
302.861
302.876
302.883
302.883
302.876
302.861
302.841
302.816
302.789
302.76
302.731
302.704
302.684
340.517
340.823
341.202
341.601
341.998
342.374
342.71
342.985
343.181
343.283
343.283
343.181
342.985
342.71
342.374
341.998
341.601
341.202
340.823
340.517
335.26
335.519
335.846
336.192
336.536
336.861
337.152
337.391
337.56
337.649
337.649
337.56
337.391
337.152
336.861
336.536
336.192
335.846
335.519
335.26
329.942
330.157
330.432
330.725
331.016
331.291
331.537
331.739
331.882
331.957
331.957
331.882
331.739
331.537
331.291
331.016
330.725
330.432
330.157
329.942
324.572
324.745
324.97
325.209
325.447
325.672
325.874
326.038
326.156
326.217
326.217
326.156
326.038
325.874
325.672
325.447
325.209
324.97
324.745
324.572
319.161
319.293
319.468
319.653
319.839
320.014
320.17
320.299
320.39
320.437
320.437
320.39
320.299
320.17
320.014
319.839
319.653
319.468
319.293
319.161
313.716
313.81
313.934
314.067
314.199
314.325
314.436
314.528
314.593
314.627
314.627
314.593
314.528
314.436
314.325
314.199
314.067
313.934
313.81
313.716
308.248
308.304
308.379
308.459
308.538
308.613
308.68
308.735
308.775
308.795
308.795
308.775
308.735
308.68
308.613
308.538
308.459
308.379
308.304
308.248
302.767
302.785
302.81
302.837
302.864
302.889
302.911
302.93
302.943
302.95
302.95
302.943
302.93
302.911
302.889
302.864
302.837
302.81
302.785
302.767
341.854
342.139
342.49
342.858
343.222
343.565
343.87
344.119
344.296
344.387
344.387
344.296
344.119
343.87
343.565
343.222
342.858
342.49
342.139
341.854
336.423
336.664
336.967
337.286
337.601
337.899
338.163
338.378
338.531
338.611
338.611
338.531
338.378
338.163
337.899
337.601
337.286
336.967
336.664
336.423
330.929
331.129
331.384
331.654
331.921
332.172
332.396
332.578
332.708
332.775
332.775
332.708
332.578
332.396
332.172
331.921
331.654
331.384
331.129
330.929
325.382
325.543
325.751
325.972
326.19
326.396
326.579
326.728
326.834
326.889
326.889
326.834
326.728
326.579
326.396
326.19
325.972
325.751
325.543
325.382
319.792
319.915
320.077
320.248
320.418
320.578
320.72
320.836
320.919
320.962
320.962
320.919
320.836
320.72
320.578
320.418
320.248
320.077
319.915
319.792
314.168
314.255
314.371
314.493
314.614
314.729
314.83
314.913
314.972
315.003
315.003
314.972
314.913
314.83
314.729
314.614
314.493
314.371
314.255
314.168
308.52
308.572
308.641
308.715
308.788
308.856
308.917
308.967
309.003
309.021
309.021
309.003
308.967
308.917
308.856
308.788
308.715
308.641
308.572
308.52
302.858
302.875
302.898
302.923
302.947
302.97
302.991
303.007
303.019
303.025
303.025
303.019
303.007
302.991
302.97
302.947
302.923
302.898
302.875
302.858
343.323
343.587
343.912
344.25
344.582
344.894
345.169
345.394
345.552
345.634
345.634
345.552
345.394
345.169
344.894
344.582
344.25
343.912
343.587
343.323
337.701
337.924
338.204
338.497
338.785
339.055
339.294
339.488
339.626
339.697
339.697
339.626
339.488
339.294
339.055
338.785
338.497
338.204
337.924
337.701
332.014
332.199
332.435
332.683
332.926
333.155
333.357
333.521
333.638
333.698
333.698
333.638
333.521
333.357
333.155
332.926
332.683
332.435
332.199
332.014
326.272
326.421
326.613
326.816
327.015
327.203
327.368
327.502
327.597
327.647
327.647
327.597
327.502
327.368
327.203
327.015
326.816
326.613
326.421
326.272
320.485
320.6
320.749
320.907
321.062
321.207
321.336
321.441
321.515
321.553
321.553
321.515
321.441
321.336
321.207
321.062
320.907
320.749
320.6
320.485
314.664
314.745
314.852
314.964
315.075
315.179
315.271
315.346
315.399
315.426
315.426
315.399
315.346
315.271
315.179
315.075
314.964
314.852
314.745
314.664
308.818
308.867
308.931
308.998
309.065
309.127
309.183
309.227
309.259
309.276
309.276
309.259
309.227
309.183
309.127
309.065
308.998
308.931
308.867
308.818
302.958
302.974
302.995
303.018
303.04
303.061
303.08
303.095
303.105
303.111
303.111
303.105
303.095
303.08
303.061
303.04
303.018
302.995
302.974
302.958
344.924
345.168
345.467
345.777
346.079
346.362
346.61
346.811
346.953
347.027
347.027
346.953
346.811
346.61
346.362
346.079
345.777
345.467
345.168
344.924
339.093
339.3
339.557
339.826
340.088
340.333
340.548
340.723
340.846
340.909
340.909
340.846
340.723
340.548
340.333
340.088
339.826
339.557
339.3
339.093
333.195
333.366
333.584
333.811
334.033
334.24
334.422
334.57
334.674
334.728
334.728
334.674
334.57
334.422
334.24
334.033
333.811
333.584
333.366
333.195
327.241
327.379
327.556
327.742
327.923
328.093
328.242
328.363
328.448
328.492
328.492
328.448
328.363
328.242
328.093
327.923
327.742
327.556
327.379
327.241
321.241
321.347
321.484
321.628
321.77
321.902
322.018
322.112
322.178
322.212
322.212
322.178
322.112
322.018
321.902
321.77
321.628
321.484
321.347
321.241
315.205
315.28
315.378
315.481
315.582
315.676
315.759
315.826
315.874
315.898
315.898
315.874
315.826
315.759
315.676
315.582
315.481
315.378
315.28
315.205
309.143
309.188
309.247
309.309
309.37
309.426
309.476
309.516
309.545
309.56
309.56
309.545
309.516
309.476
309.426
309.37
309.309
309.247
309.188
309.143
303.067
303.082
303.101
303.122
303.142
303.161
303.178
303.192
303.201
303.206
303.206
303.201
303.192
303.178
303.161
303.142
303.122
303.101
303.082
303.067
346.655
346.88
347.155
347.437
347.712
347.967
348.191
348.371
348.498
348.564
348.564
348.498
348.371
348.191
347.967
347.712
347.437
347.155
346.88
346.655
340.598
340.788
341.025
341.27
341.508
341.73
341.923
342.08
342.19
342.246
342.246
342.19
342.08
341.923
341.73
341.508
341.27
341.025
340.788
340.598
334.472
334.63
334.829
335.037
335.238
335.426
335.59
335.722
335.815
335.863
335.863
335.815
335.722
335.59
335.426
335.238
335.037
334.829
334.63
334.472
328.288
328.415
328.578
328.747
328.912
329.066
329.2
329.308
329.384
329.424
329.424
329.384
329.308
329.2
329.066
328.912
328.747
328.578
328.415
328.288
322.057
322.154
322.28
322.412
322.541
322.66
322.765
322.849
322.908
322.939
322.939
322.908
322.849
322.765
322.66
322.541
322.412
322.28
322.154
322.057
315.789
315.858
315.948
316.042
316.134
316.219
316.294
316.354
316.396
316.418
316.418
316.396
316.354
316.294
316.219
316.134
316.042
315.948
315.858
315.789
309.494
309.536
309.59
309.646
309.701
309.753
309.797
309.834
309.859
309.872
309.872
309.859
309.834
309.797
309.753
309.701
309.646
309.59
309.536
309.494
303.184
303.198
303.216
303.235
303.254
303.271
303.286
303.298
303.307
303.311
303.311
303.307
303.298
303.286
303.271
303.254
303.235
303.216
303.198
303.184
348.508
348.716
348.967
349.225
349.474
349.704
349.905
350.066
350.179
350.238
350.238
350.179
350.066
349.905
349.704
349.474
349.225
348.967
348.716
348.508
342.208
342.383
342.6
342.823
343.039
343.239
343.413
343.553
343.651
343.702
343.702
343.651
343.553
343.413
343.239
343.039
342.823
342.6
342.383
342.208
335.837
335.982
336.165
336.354
336.537
336.706
336.853
336.972
337.055
337.098
337.098
337.055
336.972
336.853
336.706
336.537
336.354
336.165
335.982
335.837
329.406
329.523
329.672
329.827
329.977
330.115
330.236
330.333
330.401
330.436
330.436
330.401
330.333
330.236
330.115
329.977
329.827
329.672
329.523
329.406
322.928
323.018
323.133
323.253
323.37
323.478
323.572
323.647
323.7
323.727
323.727
323.7
323.647
323.572
323.478
323.37
323.253
323.133
323.018
322.928
316.412
316.475
316.558
316.644
316.727
316.804
316.871
316.925
316.963
316.982
316.982
316.963
316.925
316.871
316.804
316.727
316.644
316.558
316.475
316.412
309.869
309.907
309.956
310.008
310.058
310.104
310.144
310.177
310.2
310.211
310.211
310.2
310.177
310.144
310.104
310.058
310.008
309.956
309.907
309.869
303.31
303.323
303.339
303.356
303.373
303.389
303.402
303.413
303.421
303.425
303.425
303.421
303.413
303.402
303.389
303.373
303.356
303.339
303.323
303.31
350.463
350.653
350.883
351.118
351.344
351.552
351.732
351.876
351.977
352.029
352.029
351.977
351.876
351.732
351.552
351.344
351.118
350.883
350.653
350.463
343.902
344.063
344.262
344.465
344.661
344.842
344.998
345.123
345.211
345.256
345.256
345.211
345.123
344.998
344.842
344.661
344.465
344.262
344.063
343.902
337.271
337.404
337.572
337.744
337.91
338.063
338.195
338.301
338.375
338.414
338.414
338.375
338.301
338.195
338.063
337.91
337.744
337.572
337.404
337.271
330.58
330.687
330.824
330.965
331.101
331.226
331.334
331.421
331.482
331.513
331.513
331.482
331.421
331.334
331.226
331.101
330.965
330.824
330.687
330.58
323.841
323.923
324.029
324.139
324.245
324.342
324.426
324.494
324.541
324.566
324.566
324.541
324.494
324.426
324.342
324.245
324.139
324.029
323.923
323.841
317.064
317.122
317.198
317.276
317.352
317.421
317.482
317.53
317.564
317.581
317.581
317.564
317.53
317.482
317.421
317.352
317.276
317.198
317.122
317.064
310.261
310.295
310.341
310.388
310.433
310.475
310.511
310.54
310.561
310.571
310.571
310.561
310.54
310.511
310.475
310.433
310.388
310.341
310.295
310.261
303.441
303.453
303.468
303.484
303.499
303.513
303.525
303.535
303.542
303.545
303.545
303.542
303.535
303.525
303.513
303.499
303.484
303.468
303.453
303.441
352.466
352.641
352.852
353.066
353.271
353.459
353.621
353.751
353.841
353.888
353.888
353.841
353.751
353.621
353.459
353.271
353.066
352.852
352.641
352.466
345.63
345.779
345.961
346.147
346.325
346.488
346.629
346.741
346.82
346.86
346.86
346.82
346.741
346.629
346.488
346.325
346.147
345.961
345.779
345.63
338.727
338.85
339.004
339.161
339.312
339.45
339.57
339.665
339.732
339.766
339.766
339.732
339.665
339.57
339.45
339.312
339.161
339.004
338.85
338.727
331.768
331.867
331.992
332.121
332.244
332.357
332.455
332.533
332.588
332.616
332.616
332.588
332.533
332.455
332.357
332.244
332.121
331.992
331.867
331.768
324.762
324.838
324.935
325.035
325.132
325.22
325.296
325.357
325.399
325.421
325.421
325.399
325.357
325.296
325.22
325.132
325.035
324.935
324.838
324.762
317.721
317.774
317.844
317.915
317.984
318.047
318.102
318.145
318.176
318.191
318.191
318.176
318.145
318.102
318.047
317.984
317.915
317.844
317.774
317.721
310.654
310.687
310.728
310.771
310.813
310.85
310.883
310.909
310.928
310.937
310.937
310.928
310.909
310.883
310.85
310.813
310.771
310.728
310.687
310.654
303.573
303.584
303.598
303.612
303.626
303.639
303.65
303.659
303.665
303.668
303.668
303.665
303.659
303.65
303.639
303.626
303.612
303.598
303.584
303.573
354.385
354.547
354.742
354.938
355.126
355.297
355.445
355.562
355.644
355.686
355.686
355.644
355.562
355.445
355.297
355.126
354.938
354.742
354.547
354.385
347.267
347.404
347.572
347.743
347.906
348.055
348.183
348.285
348.356
348.393
348.393
348.356
348.285
348.183
348.055
347.906
347.743
347.572
347.404
347.267
340.092
340.206
340.347
340.492
340.631
340.757
340.866
340.952
341.013
341.043
341.043
341.013
340.952
340.866
340.757
340.631
340.492
340.347
340.206
340.092
332.87
332.961
333.077
333.196
333.31
333.413
333.502
333.573
333.623
333.648
333.648
333.623
333.573
333.502
333.413
333.31
333.196
333.077
332.961
332.87
325.61
325.681
325.771
325.863
325.952
326.032
326.102
326.157
326.196
326.216
326.216
326.196
326.157
326.102
326.032
325.952
325.863
325.771
325.681
325.61
318.322
318.372
318.436
318.502
318.566
318.624
318.673
318.713
318.74
318.755
318.755
318.74
318.713
318.673
318.624
318.566
318.502
318.436
318.372
318.322
311.014
311.044
311.082
311.122
311.16
311.195
311.225
311.248
311.265
311.273
311.273
311.265
311.248
311.225
311.195
311.16
311.122
311.082
311.044
311.014
303.693
303.703
303.716
303.73
303.742
303.754
303.764
303.772
303.777
303.78
303.78
303.777
303.772
303.764
303.754
303.742
303.73
303.716
303.703
303.693
355.881
356.034
356.217
356.401
356.577
356.736
356.874
356.982
357.058
357.097
357.097
357.058
356.982
356.874
356.736
356.577
356.401
356.217
356.034
355.881
348.494
348.624
348.782
348.943
349.096
349.235
349.355
349.45
349.516
349.55
349.55
349.516
349.45
349.355
349.235
349.096
348.943
348.782
348.624
348.494
341.084
341.191
341.326
341.462
341.593
341.711
341.813
341.894
341.95
341.979
341.979
341.95
341.894
341.813
341.711
341.593
341.462
341.326
341.191
341.084
333.652
333.739
333.848
333.961
334.068
334.165
334.249
334.315
334.361
334.385
334.385
334.361
334.315
334.249
334.165
334.068
333.961
333.848
333.739
333.652
326.201
326.268
326.353
326.441
326.525
326.6
326.666
326.718
326.754
326.772
326.772
326.754
326.718
326.666
326.6
326.525
326.441
326.353
326.268
326.201
318.735
318.783
318.844
318.906
318.966
319.021
319.068
319.105
319.131
319.144
319.144
319.131
319.105
319.068
319.021
318.966
318.906
318.844
318.783
318.735
311.259
311.287
311.323
311.361
311.397
311.43
311.458
311.48
311.496
311.504
311.504
311.496
311.48
311.458
311.43
311.397
311.361
311.323
311.287
311.259
303.775
303.784
303.797
303.809
303.821
303.832
303.842
303.849
303.854
303.857
303.857
303.854
303.849
303.842
303.832
303.821
303.809
303.797
303.784
303.775
)
;

boundaryField
{
    hotSide
    {
        type            fixedGradient;
        gradient        nonuniform List<scalar> 
400
(
348.114
349.292
351.654
355.208
359.968
365.95
373.176
381.664
391.438
402.519
414.929
428.687
443.812
460.319
478.225
497.54
518.275
540.438
564.037
589.076
354.11
355.241
357.509
360.927
365.513
371.29
378.282
386.518
396.025
406.832
418.965
432.448
447.303
463.551
481.207
500.286
520.799
542.755
566.161
591.021
360.598
361.673
363.83
367.087
371.467
377.001
383.721
391.663
400.864
411.356
423.175
436.348
450.904
466.864
484.248
503.07
523.344
545.077
568.278
592.95
367.473
368.481
370.509
373.579
377.722
382.977
389.387
396.997
405.852
415.995
427.466
440.301
454.53
470.181
487.274
505.825
525.848
547.351
570.34
594.82
374.54
375.474
377.357
380.218
384.097
389.044
395.112
402.358
410.839
420.605
431.706
444.184
458.072
473.402
490.195
508.47
528.239
549.51
572.289
596.578
381.506
382.361
384.089
386.727
390.326
394.947
400.657
407.526
415.62
425.001
435.726
447.843
461.392
476.403
492.903
510.908
530.432
551.481
574.06
598.169
387.972
388.747
390.321
392.738
396.059
400.36
405.72
412.221
419.942
428.955
439.324
451.101
464.331
479.048
495.277
513.036
532.337
553.185
575.585
599.533
393.46
394.164
395.598
397.816
400.89
404.905
409.955
416.133
423.527
432.22
442.28
453.766
466.725
481.192
497.194
514.747
533.863
554.546
576.798
600.615
397.476
398.125
399.453
401.519
404.404
408.203
413.018
418.953
426.104
434.558
444.39
455.662
468.422
482.707
498.544
515.949
534.931
555.496
577.643
601.367
399.604
400.223
401.493
403.477
406.259
409.941
414.63
420.433
427.453
435.78
445.49
456.648
469.303
483.492
499.242
516.569
535.482
555.985
578.077
601.753
399.604
400.223
401.493
403.477
406.259
409.941
414.63
420.433
427.453
435.78
445.49
456.648
469.303
483.492
499.242
516.569
535.482
555.985
578.077
601.753
397.476
398.125
399.453
401.519
404.404
408.203
413.018
418.953
426.104
434.558
444.39
455.662
468.422
482.707
498.544
515.949
534.931
555.496
577.643
601.367
393.46
394.164
395.598
397.816
400.89
404.905
409.955
416.133
423.527
432.22
442.28
453.766
466.725
481.192
497.194
514.747
533.863
554.546
576.798
600.615
387.972
388.747
390.321
392.738
396.059
400.36
405.72
412.221
419.942
428.955
439.324
451.101
464.331
479.048
495.277
513.036
532.337
553.185
575.585
599.533
381.506
382.361
384.089
386.727
390.326
394.947
400.657
407.526
415.62
425.001
435.726
447.843
461.392
476.403
492.903
510.908
530.432
551.481
574.06
598.169
374.54
375.474
377.357
380.218
384.097
389.044
395.112
402.358
410.839
420.605
431.706
444.184
458.072
473.402
490.195
508.47
528.239
549.51
572.289
596.578
367.473
368.481
370.509
373.579
377.722
382.977
389.387
396.997
405.852
415.995
427.466
440.301
454.53
470.181
487.274
505.825
525.848
547.351
570.34
594.82
360.598
361.673
363.83
367.087
371.467
377.001
383.721
391.663
400.864
411.356
423.175
436.348
450.904
466.864
484.248
503.07
523.344
545.077
568.278
592.95
354.11
355.241
357.509
360.927
365.513
371.29
378.282
386.518
396.025
406.832
418.965
432.448
447.303
463.551
481.207
500.286
520.799
542.755
566.161
591.021
348.114
349.292
351.654
355.208
359.968
365.95
373.176
381.664
391.438
402.519
414.929
428.687
443.812
460.319
478.225
497.54
518.275
540.438
564.037
589.076
)
;
    }
    coldSide
    {
        type            mixed;
        refValue        uniform 300;
        refGradient     uniform 0;
        valueFraction   uniform 0.991591;
        source          uniform 0;
        value           nonuniform List<scalar> 
400
(
300.02
300.02
300.02
300.02
300.02
300.021
300.021
300.021
300.022
300.023
300.023
300.024
300.025
300.026
300.027
300.028
300.029
300.03
300.031
300.032
300.02
300.02
300.02
300.02
300.02
300.021
300.021
300.022
300.022