/*--------------------------------*- C++ -*----------------------------------*\
| =========                 |                                                 |
| \\      /  F ield         | OpenFOAM: The Open Source CFD Toolbox           |
|  \\    /   O peration     | Version:  2212                                  |
|   \\  /    A nd           | Website:  www.openfoam.com                      |
|    \\/     M anipulation  |                                                 |
\*---------------------------------------------------------------------------*/
FoamFile
{
    version     2.0;
    format      ascii;
    arch        "LSB;label=32;scalar=64";
    class       volScalarField;
    location    "0";
    object      T;
}
// * * * * * * * * * * * * * * * * * * * * * * * * * * * * * * * * * * * * * //

dimensions      [0 0 0 1 0 0 0];

internalField   nonuniform List<scalar> 
3200
(
353.328
351.794
350.687
350.126
350.208
350.625
351.084
351.757
352.245
352.517
352.751
352.491
352.088
351.292
350.602
349.986
349.68
349.979
351.074
352.368
345.99
344.747
343.795
343.296
343.409
343.762
344.175
344.792
345.249
345.491
345.701
345.497
345.191
344.502
343.912
343.396
343.18
343.456
344.418
345.487
338.736
337.749
336.965
336.542
336.675
336.957
337.307
337.865
338.273
338.494
338.655
338.511
338.276
337.694
337.184
336.764
336.596
336.87
337.705
338.57
331.589
330.776
330.184
329.835
329.953
330.202
330.483
330.97
331.291
331.511
331.61
331.52
331.324
330.877
330.46
330.113
330.005
330.222
330.94
331.602
324.495
323.886
323.437
323.179
323.269
323.484
323.704
324.071
324.301
324.512
324.562
324.516
324.38
324.028
323.715
323.438
323.381
323.551
324.1
324.597
317.446
317.031
316.719
316.53
316.582
316.763
316.933
317.185
317.34
317.506
317.541
317.513
317.425
317.158
316.973
316.755
316.738
316.86
317.256
317.569
310.463
310.211
310.025
309.91
309.967
310.059
310.159
310.308
310.416
310.496
310.541
310.519
310.468
310.29
310.206
310.044
310.08
310.145
310.381
310.55
303.513
303.417
303.362
303.321
303.347
303.378
303.407
303.441
303.491
303.514
303.537
303.523
303.505
303.451
303.434
303.367
303.381
303.397
303.479
303.53
353.535
351.917
350.89
350.264
350.366
350.884
351.512
352.198
352.829
353.032
353.284
353.035
352.668
351.754
351.018
350.403
350.091
350.137
351.09
352.447
346.215
344.876
343.967
343.425
343.557
344.008
344.554
345.164
345.709
345.877
346.137
345.974
345.672
344.891
344.286
343.789
343.54
343.585
344.419
345.546
338.99
337.877
337.115
336.647
336.806
337.174
337.642
338.148
338.631
338.764
339.029
338.907
338.646
338.015
337.559
337.104
336.919
336.971
337.684
338.62
331.826
330.919
330.314
329.95
330.087
330.37
330.747
331.156
331.595
331.686
331.924
331.805
331.628
331.116
330.778
330.396
330.258
330.294
330.897
331.645
324.722
323.988
323.564
323.274
323.389
323.591
323.884
324.224
324.566
324.634
324.812
324.731
324.613
324.207
323.962
323.691
323.568
323.573
324.083
324.638
317.642
317.098
316.831
316.613
316.693
316.829
317.051
317.307
317.544
317.602
317.715
317.667
317.583
317.305
317.132
316.948
316.871
316.86
317.244
317.616
310.583
310.239
310.128
309.967
310.025
310.094
310.247
310.4
310.528
310.572
310.63
310.621
310.539
310.395
310.298
310.187
310.16
310.155
310.377
310.59
303.536
303.416
303.397
303.335
303.363
303.385
303.44
303.486
303.538
303.538
303.562
303.569
303.533
303.494
303.468
303.408
303.408
303.413
303.488
303.547
354.004
352.506
351.378
350.771
350.914
351.551
352.215
352.942
353.583
353.907
354.1
353.958
353.393
352.572
351.847
351.013
350.747
350.71
351.483
352.819
346.583
345.363
344.421
343.867
343.987
344.55
345.141
345.789
346.345
346.641
346.858
346.777
346.269
345.596
345.007
344.313
344.126
344.107
344.768
345.886
339.271
338.303
337.522
337.031
337.127
337.615
338.129
338.675
339.179
339.415
339.664
339.585
339.158
338.586
338.133
337.568
337.418
337.441
337.995
338.901
332.032
331.292
330.647
330.261
330.302
330.727
331.143
331.621
332.025
332.232
332.454
332.374
332.041
331.573
331.218
330.772
330.67
330.715
331.171
331.856
324.844
324.297
323.817
323.518
323.523
323.855
324.179
324.574
324.889
325.063
325.257
325.191
324.936
324.568
324.281
323.969
323.894
323.93
324.282
324.767
317.726
317.322
317.003
316.805
316.778
317.014
317.238
317.523
317.762
317.923
318.045
318.011
317.821
317.547
317.34
317.125
317.102
317.122
317.372
317.708
310.642
310.387
310.188
310.088
310.056
310.213
310.341
310.512
310.675
310.77
310.842
310.826
310.705
310.518
310.413
310.298
310.264
310.278
310.448
310.655
303.568
303.472
303.407
303.377
303.377
303.42
303.473
303.515
303.575
303.608
303.645
303.642
303.592
303.522
303.501
303.456
303.442
303.443
303.505
303.571
354.656
353.195
352.232
351.698
351.741
352.469
353.214
353.834
354.664
355.067
355.224
354.945
354.406
353.635
352.809
351.87
351.476
351.542
352.347
353.569
347.149
345.939
345.139
344.678
344.718
345.358
346.024
346.56
347.31
347.657
347.806
347.587
347.138
346.52
345.809
345.06
344.733
344.821
345.506
346.512
339.752
338.768
338.083
337.697
337.755
338.304
338.888
339.341
339.967
340.269
340.413
340.259
339.88
339.397
338.807
338.178
337.951
338.03
338.595
339.393
332.433
331.645
331.101
330.78
330.85
331.308
331.772
332.144
332.636
332.914
333.043
332.921
332.65
332.258
331.777
331.274
331.142
331.199
331.648
332.258
325.183
324.578
324.157
323.923
323.963
324.326
324.673
324.987
325.342
325.591
325.691
325.598
325.404
325.091
324.735
324.354
324.265
324.302
324.676
325.114
317.987
317.539
317.222
317.079
317.116
317.352
317.611
317.834
318.089
318.284
318.353
318.287
318.159
317.926
317.687
317.403
317.341
317.382
317.655
317.956
310.808
310.545
310.335
310.27
310.276
310.398
310.561
310.688
310.86
310.978
311.022
310.967
310.896
310.763
310.623
310.454
310.406
310.453
310.626
310.786
303.626
303.537
303.465
303.444
303.45
303.488
303.535
303.577
303.639
303.674
303.693
303.673
303.655
303.601
303.558
303.508
303.49
303.506
303.568
303.611
355.687
354.184
353.226
352.892
352.819
353.508
354.292
355.063
355.81
356.366
356.478
356.255
355.615
354.811
353.963
353.085
352.59
352.611
353.344
354.53
348.028
346.782
345.983
345.725
345.645
346.248
346.933
347.619
348.26
348.759
348.883
348.729
348.205
347.503
346.823
346.083
345.708
345.727
346.375
347.343
340.481
339.488
338.835
338.619
338.555
339.041
339.632
340.222
340.768
341.192
341.338
341.223
340.796
340.197
339.642
339.041
338.75
338.793
339.319
340.13
333.055
332.261
331.737
331.558
331.516
331.883
332.376
332.887
333.31
333.664
333.823
333.713
333.398
332.918
332.464
331.978
331.778
331.808
332.234
332.864
325.658
325.062
324.659
324.514
324.488
324.774
325.152
325.576
325.886
326.157
326.32
326.222
325.992
325.62
325.286
324.891
324.775
324.813
325.112
325.592
318.304
317.889
317.593
317.483
317.491
317.676
317.949
318.268
318.485
318.696
318.804
318.748
318.582
318.309
318.083
317.765
317.707
317.77
317.965
318.303
310.987
310.743
310.546
310.487
310.503
310.595
310.764
310.962
311.095
311.229
311.277
311.251
311.165
310.993
310.872
310.666
310.637
310.684
310.795
310.981
303.686
303.601
303.528
303.511
303.525
303.546
303.602
303.668
303.714
303.757
303.78
303.778
303.737
303.692
303.648
303.58
303.574
303.585
303.617
303.681
356.867
355.495
354.492
354.092
354.182
354.746
355.513
356.407
357.167
357.674
357.989
357.665
357.023
356.161
355.154
354.364
353.819
353.778
354.451
355.825
349.049
347.934
347.1
346.766
346.815
347.309
348.004
348.758
349.449
349.908
350.17
349.924
349.403
348.684
347.826
347.211
346.74
346.73
347.324
348.493
341.346
340.453
339.779
339.495
339.528
339.933
340.538
341.159
341.757
342.151
342.408
342.201
341.791
341.213
340.485
340
339.603
339.623
340.127
341.103
333.738
333.04
332.489
332.263
332.288
332.597
333.132
333.632
334.106
334.432
334.655
334.485
334.18
333.739
333.161
332.765
332.45
332.477
332.877
333.695
326.19
325.675
325.243
325.066
325.093
325.315
325.755
326.142
326.487
326.734
326.939
326.795
326.592
326.268
325.814
325.499
325.24
325.302
325.599
326.255
318.685
318.352
317.992
317.885
317.9
318.055
318.405
318.665
318.915
319.067
319.234
319.151
318.999
318.76
318.463
318.218
318.031
318.1
318.312
318.771
311.198
311.03
310.796
310.724
310.758
310.823
311.052
311.201
311.364
311.443
311.557
311.487
311.428
311.268
311.101
310.96
310.811
310.888
310.995
311.274
303.747
303.691
303.614
303.591
303.603
303.622
303.702
303.758
303.809
303.832
303.874
303.854
303.834
303.793
303.719
303.681
303.624
303.65
303.691
303.78
358.397
356.932
355.933
355.591
355.664
356.142
356.927
357.718
358.658
359.254
359.526
359.189
358.545
357.548
356.655
355.802
355.303
355.348
355.855
357.099
350.372
349.152
348.304
348.029
348.115
348.536
349.219
349.907
350.71
351.255
351.533
351.235
350.692
349.859
349.142
348.429
348.014
348.058
348.535
349.603
342.456
341.468
340.771
340.547
340.612
341.002
341.564
342.134
342.83
343.288
343.555
343.31
342.856
342.171
341.6
341.008
340.694
340.724
341.157
342.064
334.611
333.853
333.289
333.122
333.171
333.491
333.971
334.418
334.987
335.368
335.607
335.418
335.044
334.484
334.064
333.554
333.346
333.377
333.729
334.488
326.847
326.271
325.865
325.721
325.775
326.02
326.412
326.734
327.156
327.473
327.67
327.542
327.244
326.819
326.506
326.094
325.974
325.994
326.266
326.864
319.156
318.746
318.469
318.352
318.416
318.571
318.863
319.093
319.358
319.61
319.756
319.658
319.468
319.152
318.941
318.643
318.565
318.587
318.769
319.211
311.469
311.251
311.096
311.015
311.056
311.139
311.342
311.454
311.626
311.758
311.858
311.801
311.683
311.502
311.362
311.204
311.162
311.171
311.272
311.548
303.834
303.768
303.718
303.687
303.697
303.731
303.802
303.832
303.898
303.937
303.973
303.944
303.918
303.856
303.818
303.766
303.736
303.748
303.781
303.868
359.811
358.484
357.403
357.147
357.296
357.716
358.443
359.153
360.144
360.607
361.001
360.866
360.199
359.094
358.166
357.349
356.879
356.929
357.467
358.598
351.596
350.5
349.594
349.381
349.507
349.893
350.557
351.156
352.016
352.409
352.791
352.683
352.145
351.205
350.43
349.76
349.362
349.453
349.901
350.875
343.475
342.597
341.857
341.694
341.794
342.142
342.716
343.205
343.926
344.277
344.63
344.517
344.08
343.33
342.695
342.165
341.833
341.916
342.289
343.11
335.446
334.771
334.186
334.034
334.145
334.425
334.899
335.31
335.886
336.222
336.48
336.393
336.045
335.453
334.953
334.52
334.268
334.328
334.649
335.31
327.493
327.008
326.56
326.428
326.544
326.753
327.121
327.444
327.873
328.156
328.353
328.272
328.026
327.582
327.206
326.861
326.658
326.715
326.985
327.486
319.596
319.276
318.958
318.849
318.961
319.102
319.358
319.608
319.883
320.078
320.238
320.189
320.001
319.695
319.445
319.18
319.062
319.103
319.279
319.657
311.754
311.562
311.372
311.294
311.388
311.468
311.634
311.785
311.92
312.035
312.162
312.091
312.007
311.838
311.677
311.517
311.453
311.486
311.579
311.827
303.948
303.867
303.818
303.781
303.81
303.853
303.905
303.944
303.989
304.037
304.076
304.045
304.029
303.964
303.905
303.855
303.829
303.848
303.885
303.97
361.505
360.378
359.302
358.835
358.985
359.326
359.998
360.718
361.582
362.247
362.546
362.281
361.789
360.738
359.674
359.054
358.516
358.505
359.163
360.063
353.05
352.154
351.219
350.83
350.957
351.298
351.866
352.499
353.249
353.845
354.126
353.899
353.503
352.598
351.727
351.213
350.777
350.796
351.379
352.146
344.705
344.019
343.233
342.914
343.003
343.337
343.805
344.337
344.974
345.485
345.726
345.557
345.217
344.496
343.778
343.376
343.008
343.048
343.545
344.189
336.473
335.962
335.301
335.041
335.101
335.409
335.808
336.22
336.744
337.18
337.375
337.247
336.962
336.402
335.831
335.528
335.221
335.262
335.695
336.2
328.308
327.923
327.423
327.202
327.243
327.52
327.839
328.135
328.541
328.887
329.033
328.967
328.743
328.323
327.856
327.648
327.427
327.435
327.799
328.192
320.212
319.915
319.572
319.403
319.436
319.643
319.886
320.096
320.386
320.607
320.721
320.7
320.549
320.239
319.9
319.76
319.594
319.615
319.874
320.162
312.123
311.943
311.753
311.629
311.661
311.777
311.941
312.065
312.241
312.351
312.45
312.439
312.345
312.143
311.945
311.863
311.762
311.799
311.943
312.111
304.058
304.008
303.942
303.9
303.904
303.938
304.007
304.046
304.091
304.143
304.163
304.172
304.141
304.061
304.001
303.973
303.944
303.955
303.995
304.067
363.321
362.164
361.161
360.629
360.648
361.049
361.698
362.372
363.236
363.711
364.082
363.826
363.317
362.444
361.339
360.712
360.203
360.282
360.865
361.941
354.646
353.681
352.813
352.395
352.375
352.763
353.326
353.934
354.686
355.123
355.429
355.24
354.836
354.116
353.168
352.643
352.254
352.318
352.878
353.784
346.069
345.284
344.558
344.23
344.192
344.535
345.042
345.563
346.17
346.593
346.825
346.718
346.365
345.779
344.982
344.56
344.27
344.315
344.832
345.572
337.581
336.984
336.384
336.129
336.082
336.372
336.812
337.207
337.736
338.105
338.272
338.21
337.938
337.445
336.804
336.481
336.274
336.292
336.751
337.332
329.161
328.747
328.257
328.041
328.011
328.251
328.618
328.896
329.322
329.641
329.74
329.714
329.525
329.129
328.626
328.389
328.239
328.249
328.635
329.06
320.82
320.523
320.179
320.016
319.987
320.149
320.444
320.64
320.933
321.18
321.245
321.219
321.08
320.818
320.443
320.297
320.189
320.18
320.497
320.788
312.503
312.352
312.122
312.013
311.987
312.078
312.277
312.385
312.564
312.714
312.765
312.738
312.654
312.493
312.251
312.192
312.124
312.112
312.326
312.505
304.197
304.145
304.064
304.016
304.023
304.045
304.121
304.145
304.214
304.257
304.29
304.28
304.242
304.191
304.105
304.092
304.06
304.06
304.136
304.198
365.229
363.972
363.036
362.46
362.262
362.681
363.322
363.828
364.707
365.221
365.483
365.297
364.706
364.008
362.951
362.308
361.935
362.026
362.669
363.66
356.293
355.252
354.44
353.968
353.802
354.167
354.731
355.163
355.923
356.413
356.642
356.509
356.035
355.449
354.55
354.053
353.73
353.834
354.409
355.251
347.467
346.62
345.935
345.586
345.404
345.708
346.222
346.574
347.23
347.67
347.848
347.756
347.391
346.912
346.16
345.767
345.51
345.593
346.103
346.796
338.74
338.082
337.499
337.233
337.055
337.326
337.761
338.049
338.611
338.923
339.104
339.046
338.75
338.386
337.778
337.456
337.261
337.341
337.736
338.325
330.084
329.573
329.136
328.914
328.778
329.007
329.349
329.576
330.032
330.253
330.39
330.352
330.112
329.861
329.386
329.141
328.988
329.069
329.381
329.833
321.467
321.077
320.798
320.631
320.561
320.706
320.967
321.115
321.455
321.613
321.692
321.664
321.476
321.333
321.004
320.842
320.704
320.771
321.013
321.341
312.868
312.642
312.479
312.396
312.338
312.436
312.594
312.681
312.892
312.974
313.019
312.993
312.877
312.818
312.613
312.523
312.437
312.475
312.621
312.825
304.308
304.226
304.181
304.155
304.124
304.178
304.212
304.248
304.318
304.357
304.368
304.345
304.311
304.292
304.229
304.196
304.166
304.191
304.231
304.312
367.043
365.918
364.948
364.35
364.189
364.453
365.013
365.416
366.164
366.614
366.839
366.753
366.167
365.488
364.721
363.917
363.695
363.795
364.408
365.384
357.879
356.944
356.113
355.586
355.478
355.69
356.205
356.548
357.22
357.612
357.83
357.772
357.28
356.732
356.111
355.412
355.246
355.384
355.893
356.706
348.794
348.052
347.384
346.916
346.829
347.006
347.454
347.744
348.341
348.693
348.844
348.837
348.424
348.014
347.498
346.921
346.779
346.933
347.341
348.007
339.797
339.238
338.701
338.314
338.243
338.393
338.746
339.015
339.516
339.791
339.882
339.925
339.597
339.292
338.867
338.414
338.277
338.436
338.768
339.304
330.889
330.498
330.054
329.748
329.695
329.827
330.084
330.309
330.708
330.937
330.971
331.031
330.769
330.573
330.26
329.88
329.77
329.907
330.171
330.588
322.042
321.778
321.446
321.244
321.214
321.301
321.446
321.644
321.926
322.084
322.107
322.159
321.968
321.858
321.644
321.344
321.264
321.357
321.583
321.868
313.232
313.07
312.876
312.757
312.752
312.792
312.852
312.986
313.176
313.252
313.273
313.308
313.195
313.13
313.002
312.82
312.785
312.817
312.97
313.141
304.438
304.38
304.305
304.279
304.277
304.289
304.291
304.348
304.431
304.444
304.444
304.461
304.416
304.394
304.359
304.303
304.289
304.284
304.352
304.402
368.889
367.844
366.846
366.282
366.019
366.222
366.681
367.043
367.716
368.225
368.231
368.125
367.595
366.973
366.367
365.542
365.294
365.625
366.19
367.1
359.471
358.594
357.753
357.27
357.072
357.254
357.654
357.973
358.584
359.011
359.049
358.948
358.522
358.017
357.517
356.806
356.624
356.937
357.458
358.242
350.155
349.461
348.755
348.351
348.187
348.363
348.675
348.99
349.491
349.849
349.894
349.819
349.483
349.075
348.667
348.071
347.943
348.222
348.673
349.351
340.934
340.405
339.815
339.481
339.371
339.496
339.757
340.048
340.458
340.713
340.773
340.727
340.473
340.159
339.83
339.364
339.264
339.491
339.862
340.423
331.775
331.396
330.935
330.675
330.573
330.676
330.879
331.122
331.451
331.61
331.681
331.646
331.483
331.234
330.982
330.658
330.575
330.748
331.002
331.451
322.671
322.402
322.079
321.907
321.821
321.89
322.038
322.219
322.465
322.552
322.589
322.592
322.506
322.33
322.144
321.929
321.849
321.975
322.158
322.476
313.586
313.439
313.245
313.15
313.084
313.135
313.219
313.339
313.494
313.534
313.531
313.577
313.515
313.416
313.314
313.178
313.127
313.207
313.322
313.492
304.553
304.5
304.439
304.41
304.379
304.406
304.435
304.477
304.53
304.54
304.524
304.542
304.521
304.498
304.464
304.42
304.401
304.432
304.473
304.524
370.838
369.728
368.765
368.245
367.874
368.014
368.31
368.645
369.132
369.53
369.559
369.502
368.999
368.401
367.815
367.206
367.173
367.583
368.01
368.856
361.145
360.218
359.409
358.954
358.672
358.802
359.052
359.343
359.79
360.142
360.181
360.163
359.747
359.267
358.785
358.26
358.245
358.655
359.008
359.725
351.554
350.796
350.145
349.767
349.553
349.664
349.872
350.096
350.513
350.785
350.86
350.867
350.538
350.147
349.753
349.326
349.317
349.655
349.977
350.568
342.065
341.459
340.935
340.629
340.478
340.57
340.726
340.911
341.276
341.476
341.562
341.597
341.357
341.042
340.709
340.401
340.395
340.638
340.915
341.409
332.635
332.202
331.79
331.569
331.451
331.515
331.633
331.793
332.077
332.216
332.292
332.334
332.169
331.955
331.669
331.459
331.439
331.626
331.832
332.232
323.273
323.001
322.699
322.527
322.442
322.508
322.599
322.695
322.906
323.002
323.046
323.091
322.988
322.849
322.635
322.503
322.474
322.613
322.756
323.057
313.957
313.815
313.623
313.526
313.461
313.515
313.577
313.627
313.76
313.812
313.83
313.863
313.807
313.733
313.603
313.507
313.488
313.578
313.637
313.859
304.679
304.626
304.559
304.532
304.511
304.521
304.546
304.576
304.618
304.63
304.632
304.639
304.628
304.601
304.571
304.536
304.526
304.558
304.566
304.652
372.749
371.741
370.856
370.059
369.826
369.802
369.966
370.216
370.623
370.823
370.792
370.763
370.442
369.946
369.315
368.989
368.99
369.294
369.796
370.613
362.791
361.963
361.214
360.526
360.363
360.337
360.484
360.728
361.048
361.253
361.262
361.252
360.984
360.586
360.071
359.808
359.83
360.138
360.563
361.266
352.97
352.284
351.664
351.072
350.964
350.933
351.051
351.298
351.56
351.724
351.773
351.782
351.57
351.247
350.831
350.611
350.667
350.927
351.284
351.863
343.262
342.665
342.205
341.708
341.628
341.596
341.703
341.924
342.138
342.244
342.338
342.331
342.145
341.926
341.595
341.383
341.467
341.702
341.985
342.432
333.587
333.127
332.796
332.404
332.323
332.339
332.387
332.583
332.754
332.806
332.922
332.933
332.786
332.599
332.351
332.181
332.248
332.457
332.684
333.024
323.969
323.643
323.403
323.142
323.068
323.098
323.127
323.267
323.389
323.414
323.53
323.531
323.423
323.279
323.111
323
323.05
323.199
323.352
323.607
314.373
314.191
314.053
313.889
313.848
313.862
313.898
313.97
314.041
314.046
314.133
314.138
314.054
313.96
313.879
313.812
313.852
313.922
314.026
314.183
304.818
304.759
304.701
304.652
304.637
304.643
304.665
304.68
304.699
304.71
304.741
304.744
304.71
304.679
304.655
304.63
304.643
304.671
304.703
304.746
374.844
373.683
372.732
371.954
371.742
371.578
371.719
371.876
372.038
372.184
372.309
372.117
371.873
371.441
370.875
370.668
370.692
370.966
371.573
372.465
364.613
363.647
362.828
362.177
361.989
361.87
362.01
362.154
362.292
362.468
362.567
362.408
362.234
361.869
361.394
361.224
361.308
361.55
362.091
362.855
354.517
353.696
353.015
352.498
352.343
352.226
352.364
352.505
352.604
352.778
352.863
352.731
352.609
352.322
351.917
351.784
351.922
352.117
352.599
353.218
344.507
343.849
343.29
342.872
342.752
342.673
342.781
342.909
342.981
343.1
343.206
343.1
343.054
342.779
342.468
342.339
342.504
342.673
343.111
343.581
334.558
334.066
333.623
333.287
333.227
333.172
333.242
333.355
333.407
333.496
333.571
333.511
333.506
333.263
333.037
332.917
333.086
333.202
333.577
333.933
324.669
324.322
324.003
323.782
323.719
323.677
323.726
323.813
323.85
323.918
323.976
323.937
323.94
323.763
323.594
323.522
323.65
323.739
324.029
324.281
314.808
314.598
314.415
314.288
314.231
314.206
314.248
314.292
314.328
314.349
314.388
314.374
314.361
314.266
314.174
314.125
314.197
314.271
314.453
314.592
304.964
304.893
304.83
304.8
304.76
304.765
304.785
304.778
304.804
304.806
304.818
304.819
304.812
304.793
304.753
304.735
304.751
304.789
304.848
304.898
376.891
375.563
374.656
373.921
373.535
373.306
373.339
373.415
373.563
373.739
373.696
373.559
373.402
372.94
372.466
372.36
372.41
372.72
373.457
374.323
366.373
365.24
364.493
363.877
363.554
363.354
363.396
363.477
363.622
363.785
363.789
363.678
363.57
363.166
362.769
362.719
362.775
363.089
363.689
364.462
355.981
355.018
354.425
353.917
353.647
353.489
353.527
353.603
353.736
353.892
353.918
353.807
353.738
353.401
353.113
353.066
353.134
353.429
353.921
354.576
345.699
344.897
344.435
344.024
343.823
343.694
343.71
343.792
343.907
344.038
344.064
343.964
343.923
343.685
343.459
343.399
343.484
343.757
344.139
344.678
335.493
334.864
334.508
334.195
334.045
333.949
333.96
334.012
334.106
334.223
334.24
334.173
334.159
333.974
333.838
333.75
333.832
334.059
334.34
334.773
325.333
324.883
324.615
324.411
324.298
324.237
324.246
324.259
324.341
324.422
324.452
324.402
324.407
324.28
324.198
324.101
324.196
324.364
324.55
324.84
315.198
314.933
314.777
314.658
314.595
314.557
314.573
314.552
314.601
314.668
314.69
314.645
314.665
314.595
314.537
314.466
314.562
314.641
314.752
314.923
305.096
304.994
304.95
304.916
304.887
304.884
304.883
304.868
304.888
304.921
304.921
304.908
304.929
304.894
304.871
304.836
304.886
304.912
304.95
305.008
378.705
377.495
376.519
375.791
375.375
375.098
374.949
374.957
375.048
375.113
375.261
375.042
374.854
374.549
374.139
373.957
374.103
374.588
375.205
376.159
367.939
366.914
366.083
365.468
365.132
364.897
364.771
364.811
364.924
364.969
365.123
364.942
364.773
364.571
364.225
364.072
364.235
364.656
365.211
366.014
357.318
356.454
355.745
355.24
354.996
354.776
354.677
354.748
354.852
354.856
355.021
354.882
354.745
354.612
354.313
354.202
354.361
354.715
355.199
355.883
346.776
346.086
345.51
345.099
344.906
344.736
344.657
344.725
344.835
344.811
344.95
344.863
344.761
344.663
344.414
344.355
344.482
344.801
345.18
345.748
336.302
335.794
335.345
335.021
334.899
334.741
334.671
334.742
334.857
334.814
334.913
334.88
334.814
334.735
334.563
334.504
334.607
334.87
335.141
335.596
325.896
325.579
325.218
325.003
324.919
324.812
324.753
324.8
324.923
324.855
324.921
324.913
324.891
324.812
324.708
324.665
324.727
324.936
325.128
325.434
315.553
315.367
315.128
315.019
314.961
314.906
314.858
314.885
314.975
314.923
314.969
314.959
314.945
314.88
314.837
314.832
314.85
314.977
315.1
315.282
305.219
305.151
305.075
305.027
305.005
305.004
304.977
304.993
305.025
305.009
305.017
305.012
304.999
304.976
304.97
304.985
304.974
305.036
305.074
305.124
380.477
379.23
378.333
377.563
376.875
376.594
376.517
376.544
376.391
376.492
376.577
376.346
376.151
375.89
375.675
375.598
375.733
376.282
376.829
377.894
369.438
368.391
367.633
367
366.406
366.169
366.115
366.159
366.041
366.136
366.25
366.068
365.888
365.702
365.552
365.48
365.623
366.102
366.593
367.511
358.553
357.678
357.056
356.523
356.065
355.849
355.83
355.839
355.772
355.852
355.978
355.825
355.677
355.533
355.455
355.386
355.527
355.911
356.374
357.136
347.761
347.039
346.58
346.134
345.786
345.614
345.608
345.619
345.568
345.628
345.751
345.639
345.504
345.418
345.374
345.325
345.415
345.716
346.138
346.781
337.063
336.504
336.174
335.815
335.563
335.42
335.437
335.437
335.437
335.471
335.546
335.477
335.38
335.297
335.275
335.284
335.336
335.546
335.891
336.397
326.433
326.047
325.796
325.563
325.384
325.267
325.296
325.293
325.326
325.322
325.414
325.35
325.255
325.211
325.183
325.219
325.247
325.389
325.651
326.001
315.86
315.646
315.468
315.359
315.247
315.173
315.175
315.179
315.207
315.211
315.276
315.221
315.149
315.166
315.118
315.154
315.147
315.24
315.42
315.627
305.317
305.247
305.181
305.151
305.11
305.091
305.089
305.086
305.1
305.105
305.128
305.109
305.072
305.086
305.064
305.083
305.072
305.105
305.174
305.24
381.757
380.544
379.555
378.787
378.196
377.72
377.571
377.637
377.521
377.502
377.57
377.402
377.328
377.077
376.985
376.889
377.061
377.572
378.125
379.178
370.502
369.463
368.614
367.96
367.494
367.055
366.976
367.052
366.995
366.974
367.031
366.93
366.921
366.697
366.633
366.547
366.718
367.161
367.643
368.545
359.414
358.524
357.845
357.299
356.916
356.546
356.512
356.587
356.551
356.554
356.598
356.541
356.556
356.397
356.355
356.241
356.414
356.771
357.203
357.949
348.45
347.703
347.19
346.759
346.433
346.143
346.113
346.199
346.174
346.219
346.234
346.208
346.23
346.1
346.096
345.988
346.126
346.419
346.795
347.379
337.592
336.988
336.629
336.311
336.041
335.818
335.818
335.874
335.855
335.91
335.938
335.936
335.927
335.806
335.83
335.762
335.865
336.077
336.381
336.855
326.832
326.378
326.129
325.904
325.712
325.55
325.562
325.578
325.583
325.659
325.681
325.672
325.659
325.536
325.567
325.54
325.615
325.766
326.005
326.334
316.105
315.816
315.682
315.537
315.411
315.345
315.344
315.332
315.338
315.394
315.432
315.438
315.414
315.304
315.337
315.328
315.383
315.471
315.601
315.824
305.398
305.304
305.248
305.196
305.168
305.151
305.142
305.139
305.135
305.156
305.173
305.169
305.17
305.12
305.132
305.13
305.149
305.181
305.218
305.302
)
;

boundaryField
{
    hotSide
    {
        type            fixedGradient;
        gradient        nonuniform List<scalar> 
400
(
596.949
597.975
602.483
610.387
621.354
634.901
650.508
667.703
686.09
705.361
725.28
745.678
766.432
787.462
808.717
830.174
851.826
873.677
895.736
918.008
571.888
573.155
578.146
586.755
598.579
613.045
629.561
647.602
666.745
686.667
707.133
727.975
749.077
770.37
791.814
813.398
835.131
857.029
879.116
901.404
556.038
557.857
563.357
572.425
584.657
599.487
616.323
634.638
654.004
674.093
694.667
715.555
736.648
757.88
779.22
800.665
822.233
843.951
865.848
887.947
548.831
551.488
557.542
566.873
579.139
593.853
610.492
628.568
647.669
667.472
687.733
708.283
729.011
749.855
770.791
791.823
812.975
834.279
855.77
877.476
547.981
551.636
558.32
567.908
580.116
594.549
610.767
628.341
646.891
666.105
685.746
705.648
725.706
745.868
766.12
786.476
806.968
827.637
848.521
869.653
550.89
555.601
563.013
572.989
585.278
599.545
615.409
632.486
650.426
668.936
687.792
706.843
726.004
745.244
764.573
784.024
803.646
823.489
843.6
864.018
555.44
561.205
569.436
579.976
592.581
606.935
622.679
639.442
656.885
674.724
692.752
710.847
728.962
747.107
765.332
783.706
802.301
821.186
840.417
860.036
560.029
566.796
575.892
587.144
600.295
615.017
630.932
647.647
664.799
682.091
699.333
716.443
733.432
750.381
767.4
784.607
802.106
819.985
838.309
857.122
563.415
571.052
580.973
592.991
606.832
622.138
638.484
655.417
672.508
689.424
705.979
722.145
738.021
753.78
769.609
785.682
802.139
819.082
836.581
854.678
564.626
572.885
583.45
596.128
610.633
626.573
643.468
660.783
678
694.721
710.756
726.139
741.072
755.828
770.674
785.832
801.469
817.695
834.579
852.156
562.987
571.496
582.365
595.402
610.309
626.678
643.986
661.635
679.033
695.726
711.516
726.482
740.897
755.105
769.423
784.103
799.323
815.199
831.797
849.149
558.227
566.534
577.261
590.216
605.095
621.481
638.841
656.569
674.069
690.883
706.805
721.906
736.452
750.782
765.213
779.998
795.321
811.302
828.012
845.486
550.59
558.248
568.402
580.857
595.306
611.33
628.415
645.998
663.536
680.615
697.025
712.78
728.065
743.145
758.289
773.729
789.644
806.162
823.363
841.292
540.862
547.518
556.796
568.504
582.332
597.864
614.607
632.045
649.698
667.193
684.312
701.004
717.357
733.54
749.755
766.196
783.029
800.384
818.354
836.992
530.358
535.787
544.053
554.975
568.23
583.389
599.956
617.432
635.368
653.406
671.318
689.003
706.471
723.817
741.18
758.717
776.579
794.895
813.765
833.251
520.936
525.04
532.295
542.533
555.4
570.416
587.043
604.76
623.113
641.747
660.418
678.996
697.447
715.816
734.201
752.733
771.552
790.79
810.553
830.905
515.084
517.883
524.206
533.894
546.534
561.561
578.364
596.379
615.134
634.272
653.544
672.805
692
711.146
730.318
749.63
769.222
789.229
809.766
830.898
515.813
517.482
522.973
532.133
544.496
559.417
576.225
594.323
613.234
632.601
652.18
671.821
691.459
711.093
730.782
750.63
770.77
791.345
812.469
834.208
525.8
526.674
531.416
539.888
551.629
565.994
582.318
600.016
618.622
637.79
657.28
676.938
696.69
716.521
736.472
756.629
777.111
798.046
819.542
841.652
545.836
546.29
550.356
557.924
568.612
581.878
597.144
613.886
631.674
650.179
669.165
688.475
708.019
727.768
747.739
767.994
788.619
809.713
831.354
853.58
)
;
    }
    coldSide
    {
        type            mixed;
        refValue        uniform 300;
        refGradient     uniform 0;
        valueFraction   uniform 0.991591;
        source          uniform 0;
        value           nonuniform List<scalar> 
400
(
300.03
300.03
300.03
300.03
300.031
300.032
300.032
300.033
300.034
300.035
300.036
300.037
300.038
300.039
300.041
300.042
300.043
300.044
300.045
300.045
300.029
300.029
300.029
300.03
300.03
300.031
300.032
300.033
300.034
300.035
300.036
300.037