/*--------------------------------*- C++ -*----------------------------------*\
| =========                 |                                                 |
| \\      /  F ield         | OpenFOAM: The Open Source CFD Toolbox           |
|  \\    /   O peration     | Version:  2212                                  |
|   \\  /    A nd           | Website:  www.openfoam.com                      |
|    \\/     M anipulation  |                                                 |
\*---------------------------------------------------------------------------*/
FoamFile
{
    version     2.0;
    format      ascii;
    arch        "LSB;label=32;scalar=64";
    class       volScalarField;
    location    "0";
    object      Tdirect;
}
// * * * * * * * * * * * * * * * * * * * * * * * * * * * * * * * * * * * * * //

dimensions      [0 0 0 1 0 0 0];

internalField   nonuniform List<scalar> 
3200
(
321.304
321.696
322.197
322.742
323.304
323.856
324.365
324.795
325.108
325.274
325.274
325.108
324.795
324.365
323.856
323.304
322.742
322.197
321.696
321.304
318.551
318.883
319.315
319.787
320.274
320.751
321.191
321.562
321.833
321.976
321.976
321.833
321.562
321.191
320.751
320.274
319.787
319.315
318.883
318.551
315.762
316.037
316.401
316.8
317.211
317.614
317.986
318.299
318.528
318.648
318.648
318.528
318.299
317.986
317.614
317.211
316.8
316.401
316.037
315.762
312.941
313.163
313.46
313.786
314.122
314.451
314.755
315.011
315.197
315.295
315.295
315.197
315.011
314.755
314.451
314.122
313.786
313.46
313.163
312.941
310.095
310.265
310.495
310.749
311.01
311.266
311.502
311.7
311.845
311.921
311.921
311.845
311.7
311.502
311.266
311.01
310.749
310.495
310.265
310.095
307.228
307.349
307.513
307.694
307.88
308.063
308.232
308.373
308.477
308.531
308.531
308.477
308.373
308.232
308.063
307.88
307.694
307.513
307.349
307.228
304.348
304.42
304.518
304.627
304.739
304.848
304.949
305.035
305.096
305.129
305.129
305.096
305.035
304.949
304.848
304.739
304.627
304.518
304.42
304.348
301.458
301.482
301.515
301.552
301.589
301.626
301.66
301.688
301.709
301.72
301.72
301.709
301.688
301.66
301.626
301.589
301.552
301.515
301.482
301.458
321.364
321.753
322.25
322.79
323.346
323.892
324.395
324.82
325.129
325.292
325.292
325.129
324.82
324.395
323.892
323.346
322.79
322.25
321.753
321.364
318.604
318.933
319.361
319.829
320.31
320.782
321.218
321.584
321.851
321.992
321.992
321.851
321.584
321.218
320.782
320.31
319.829
319.361
318.933
318.604
315.806
316.08
316.44
316.836
317.243
317.641
318.009
318.318
318.544
318.662
318.662
318.544
318.318
318.009
317.641
317.243
316.836
316.44
316.08
315.806
312.978
313.198
313.492
313.815
314.147
314.473
314.773
315.026
315.21
315.307
315.307
315.21
315.026
314.773
314.473
314.147
313.815
313.492
313.198
312.978
310.123
310.292
310.52
310.771
311.03
311.283
311.516
311.713
311.855
311.931
311.931
311.855
311.713
311.516
311.283
311.03
310.771
310.52
310.292
310.123
307.249
307.368
307.531
307.71
307.895
308.076
308.242
308.382
308.484
308.538
308.538
308.484
308.382
308.242
308.076
307.895
307.71
307.531
307.368
307.249
304.36
304.431
304.529
304.637
304.747
304.856
304.956
305.04
305.101
305.133
305.133
305.101
305.04
304.956
304.856
304.747
304.637
304.529
304.431
304.36
301.463
301.486
301.519
301.555
301.592
301.629
301.662
301.69
301.711
301.722
301.722
301.711
301.69
301.662
301.629
301.592
301.555
301.519
301.486
301.463
321.485
321.868
322.356
322.887
323.432
323.966
324.457
324.871
325.173
325.332
325.332
325.173
324.871
324.457
323.966
323.432
322.887
322.356
321.868
321.485
318.709
319.033
319.454
319.913
320.385
320.847
321.272
321.63
321.89
322.027
322.027
321.89
321.63
321.272
320.847
320.385
319.913
319.454
319.033
318.709
315.896
316.165
316.52
316.908
317.306
317.697
318.055
318.358
318.577
318.693
318.693
318.577
318.358
318.055
317.697
317.306
316.908
316.52
316.165
315.896
313.051
313.268
313.557
313.874
314.2
314.519
314.812
315.059
315.238
315.333
315.333
315.238
315.059
314.812
314.519
314.2
313.874
313.557
313.268
313.051
310.181
310.347
310.571
310.818
311.071
311.319
311.547
311.738
311.877
311.951
311.951
311.877
311.738
311.547
311.319
311.071
310.818
310.571
310.347
310.181
307.29
307.408
307.568
307.743
307.924
308.101
308.264
308.401
308.5
308.552
308.552
308.5
308.401
308.264
308.101
307.924
307.743
307.568
307.408
307.29
304.385
304.455
304.551
304.656
304.765
304.871
304.969
305.051
305.111
305.142
305.142
305.111
305.051
304.969
304.871
304.765
304.656
304.551
304.455
304.385
301.471
301.494
301.526
301.562
301.598
301.634
301.667
301.694
301.714
301.724
301.724
301.714
301.694
301.667
301.634
301.598
301.562
301.526
301.494
301.471
321.668
322.042
322.518
323.034
323.563
324.08
324.554
324.954
325.244
325.396
325.396
325.244
324.954
324.554
324.08
323.563
323.034
322.518
322.042
321.668
318.868
319.185
319.595
320.042
320.5
320.947
321.357
321.703
321.953
322.085
322.085
321.953
321.703
321.357
320.947
320.5
320.042
319.595
319.185
318.868
316.031
316.294
316.64
317.017
317.404
317.782
318.129
318.42
318.631
318.743
318.743
318.631
318.42
318.129
317.782
317.404
317.017
316.64
316.294
316.031
313.162
313.374
313.656
313.964
314.28
314.589
314.873
315.111
315.283
315.374
315.374
315.283
315.111
314.873
314.589
314.28
313.964
313.656
313.374
313.162
310.267
310.43
310.648
310.888
311.134
311.374
311.594
311.779
311.913
311.984
311.984
311.913
311.779
311.594
311.374
311.134
310.888
310.648
310.43
310.267
307.352
307.467
307.623
307.794
307.97
308.141
308.298
308.43
308.526
308.576
308.576
308.526
308.43
308.298
308.141
307.97
307.794
307.623
307.467
307.352
304.422
304.491
304.584
304.687
304.792
304.895
304.99
305.069
305.126
305.156
305.156
305.126
305.069
304.99
304.895
304.792
304.687
304.584
304.491
304.422
301.483
301.506
301.538
301.572
301.607
301.642
301.673
301.7
301.719
301.729
301.729
301.719
301.7
301.673
301.642
301.607
301.572
301.538
301.506
301.483
321.913
322.276
322.736
323.234
323.742
324.238
324.691
325.072
325.348
325.493
325.493
325.348
325.072
324.691
324.238
323.742
323.234
322.736
322.276
321.913
319.082
319.389
319.786
320.216
320.657
321.085
321.478
321.807
322.045
322.171
322.171
322.045
321.807
321.478
321.085
320.657
320.216
319.786
319.389
319.082
316.213
316.467
316.802
317.166
317.538
317.9
318.232
318.509
318.711
318.817
318.817
318.711
318.509
318.232
317.9
317.538
317.166
316.802
316.467
316.213
313.311
313.516
313.789
314.086
314.391
314.687
314.958
315.185
315.349
315.435
315.435
315.349
315.185
314.958
314.687
314.391
314.086
313.789
313.516
313.311
310.384
310.541
310.752
310.984
311.22
311.45
311.661
311.837
311.965
312.032
312.032
311.965
311.837
311.661
311.45
311.22
310.984
310.752
310.541
310.384
307.435
307.547
307.697
307.862
308.031
308.196
308.346
308.472
308.563
308.611
308.611
308.563
308.472
308.346
308.196
308.031
307.862
307.697
307.547
307.435
304.472
304.539
304.629
304.728
304.83
304.928
305.018
305.094
305.149
305.177
305.177
305.149
305.094
305.018
304.928
304.83
304.728
304.629
304.539
304.472
301.5
301.522
301.553
301.586
301.62
301.653
301.683
301.708
301.727
301.736
301.736
301.727
301.708
301.683
301.653
301.62
301.586
301.553
301.522
301.5
322.223
322.572
323.014
323.49
323.974
324.444
324.874
325.233
325.492
325.629
325.629
325.492
325.233
324.874
324.444
323.974
323.49
323.014
322.572
322.223
319.352
319.647
320.028
320.44
320.859
321.266
321.638
321.948
322.173
322.291
322.291
322.173
321.948
321.638
321.266
320.859
320.44
320.028
319.647
319.352
316.442
316.687
317.008
317.356
317.711
318.055
318.368
318.631
318.82
318.92
318.92
318.82
318.631
318.368
318.055
317.711
317.356
317.008
316.687
316.442
313.499
313.697
313.958
314.243
314.533
314.814
315.071
315.285
315.44
315.521
315.521
315.44
315.285
315.071
314.814
314.533
314.243
313.958
313.697
313.499
310.53
310.682
310.885
311.106
311.331
311.55
311.749
311.916
312.036
312.099
312.099
312.036
311.916
311.749
311.55
311.331
311.106
310.885
310.682
310.53
307.54
307.647
307.792
307.95
308.111
308.267
308.41
308.528
308.614
308.659
308.659
308.614
308.528
308.41
308.267
308.111
307.95
307.792
307.647
307.54
304.535
304.599
304.686
304.781
304.878
304.971
305.057
305.128
305.18
305.207
305.207
305.18
305.128
305.057
304.971
304.878
304.781
304.686
304.599
304.535
301.521
301.543
301.572
301.603
301.636
301.667
301.696
301.72
301.737
301.746
301.746
301.737
301.72
301.696
301.667
301.636
301.603
301.572
301.543
301.521
322.599
322.932
323.353
323.805
324.263
324.705
325.108
325.443
325.685
325.812
325.812
325.685
325.443
325.108
324.705
324.263
323.805
323.353
322.932
322.599
319.678
319.961
320.324
320.715
321.111
321.495
321.843
322.133
322.342
322.452
322.452
322.342
322.133
321.843
321.495
321.111
320.715
320.324
319.961
319.678
316.719
316.954
317.259
317.59
317.925
318.249
318.544
318.789
318.966
319.058
319.058
318.966
318.789
318.544
318.249
317.925
317.59
317.259
316.954
316.719
313.727
313.916
314.165
314.435
314.71
314.974
315.215
315.415
315.56
315.635
315.635
315.56
315.415
315.215
314.974
314.71
314.435
314.165
313.916
313.727
310.708
310.853
311.046
311.256
311.469
311.675
311.862
312.018
312.13
312.189
312.189
312.13
312.018
311.862
311.675
311.469
311.256
311.046
310.853
310.708
307.667
307.77
307.908
308.058
308.21
308.357
308.491
308.602
308.682
308.724
308.724
308.682
308.602
308.491
308.357
308.21
308.058
307.908
307.77
307.667
304.612
304.673
304.756
304.846
304.937
305.025
305.106
305.172
305.22
305.246
305.246
305.22
305.172
305.106
305.025
304.937
304.846
304.756
304.673
304.612
301.547
301.567
301.595
301.625
301.656
301.686
301.712
301.735
301.751
301.759
301.759
301.751
301.735
301.712
301.686
301.656
301.625
301.595
301.567
301.547
323.042
323.359
323.757
324.183
324.612
325.026
325.4
325.711
325.934
326.051
326.051
325.934
325.711
325.4
325.026
324.612
324.183
323.757
323.359
323.042
320.064
320.333
320.676
321.045
321.417
321.775
322.099
322.367
322.561
322.662
322.662
322.561
322.367
322.099
321.775
321.417
321.045
320.676
320.333
320.064
317.047
317.27
317.559
317.871
318.185
318.488
318.762
318.989
319.152
319.238
319.238
319.152
318.989
318.762
318.488
318.185
317.871
317.559
317.27
317.047
313.996
314.175
314.411
314.666
314.923
315.171
315.395
315.581
315.714
315.784
315.784
315.714
315.581
315.395
315.171
314.923
314.666
314.411
314.175
313.996
310.918
311.055
311.238
311.436
311.637
311.829
312.003
312.147
312.251
312.305
312.305
312.251
312.147
312.003
311.829
311.637
311.436
311.238
311.055
310.918
307.818
307.915
308.046
308.187
308.33
308.467
308.592
308.695
308.769
308.808
308.808
308.769
308.695
308.592
308.467
308.33
308.187
308.046
307.915
307.818
304.702
304.76
304.839
304.923
305.009
305.092
305.166
305.228
305.273
305.296
305.296
305.273
305.228
305.166
305.092
305.009
304.923
304.839
304.76
304.702
301.577
301.597
301.623
301.651
301.68
301.708
301.733
301.754
301.768
301.776
301.776
301.768
301.754
301.733
301.708
301.68
301.651
301.623
301.597
301.577
323.554
323.854
324.228
324.627
325.027
325.411
325.756
326.042
326.247
326.354
326.354
326.247
326.042
325.756
325.411
325.027
324.627
324.228
323.854
323.554
320.51
320.764
321.087
321.432
321.779
322.111
322.41
322.657
322.835
322.927
322.927
322.835
322.657
322.41
322.111
321.779
321.432
321.087
320.764
320.51
317.426
317.636
317.909
318.2
318.494
318.774
319.027
319.236
319.386
319.464
319.464
319.386
319.236
319.027
318.774
318.494
318.2
317.909
317.636
317.426
314.307
314.477
314.699
314.937
315.177
315.407
315.614
315.784
315.907
315.971
315.971
315.907
315.784
315.614
315.407
315.177
314.937
314.699
314.477
314.307
311.16
311.29
311.463
311.648
311.835
312.013
312.174
312.307
312.402
312.452
312.452
312.402
312.307
312.174
312.013
311.835
311.648
311.463
311.29
311.16
307.991
308.083
308.206
308.339
308.472
308.6
308.714
308.809
308.877
308.913
308.913
308.877
308.809
308.714
308.6
308.472
308.339
308.206
308.083
307.991
304.807
304.861
304.935
305.015
305.095
305.171
305.24
305.297
305.338
305.359
305.359
305.338
305.297
305.24
305.171
305.095
305.015
304.935
304.861
304.807
301.612
301.631
301.655
301.682
301.709
301.734
301.758
301.777
301.79
301.798
301.798
301.79
301.777
301.758
301.734
301.709
301.682
301.655
301.631
301.612
324.138
324.42
324.77
325.141
325.512
325.865
326.182
326.443
326.629
326.727
326.727
326.629
326.443
326.182
325.865
325.512
325.141
324.77
324.42
324.138
321.019
321.257
321.559
321.881
322.202
322.508
322.782
323.008
323.169
323.254
323.254
323.169
323.008
322.782
322.508
322.202
321.881
321.559
321.257
321.019
317.858
318.055
318.31
318.582
318.854
319.112
319.344
319.535
319.672
319.743
319.743
319.672
319.535
319.344
319.112
318.854
318.582
318.31
318.055
317.858
314.662
314.821
315.029
315.251
315.473
315.685
315.874
316.031
316.142
316.2
316.2
316.142
316.031
315.874
315.685
315.473
315.251
315.029
314.821
314.662
311.437
311.559
311.72
311.893
312.066
312.23
312.378
312.499
312.586
312.631
312.631
312.586
312.499
312.378
312.23
312.066
311.893
311.72
311.559
311.437
308.189
308.276
308.391
308.514
308.638
308.755
308.861
308.947
309.009
309.042
309.042
309.009
308.947
308.861
308.755
308.638
308.514
308.391
308.276
308.189
304.926
304.977
305.046
305.12
305.194
305.265
305.328
305.38
305.418
305.437
305.437
305.418
305.38
305.328
305.265
305.194
305.12
305.046
304.977
304.926
301.652
301.669
301.693
301.717
301.742
301.766
301.787
301.805
301.817
301.824
301.824
301.817
301.805
301.787
301.766
301.742
301.717
301.693
301.669
301.652
324.795
325.058
325.385
325.728
326.07
326.394
326.682
326.919
327.088
327.176
327.176
327.088
326.919
326.682
326.394
326.07
325.728
325.385
325.058
324.795
321.591
321.813
322.095
322.393
322.689
322.969
323.219
323.424
323.571
323.647
323.647
323.571
323.424
323.219
322.969
322.689
322.393
322.095
321.813
321.591
318.344
318.528
318.766
319.017
319.268
319.505
319.717
319.89
320.014
320.078
320.078
320.014
319.89
319.717
319.505
319.268
319.017
318.766
318.528
318.344
315.061
315.209
315.403
315.609
315.814
316.008
316.181
316.323
316.424
316.476
316.476
316.424
316.323
316.181
316.008
315.814
315.609
315.403
315.209
315.061
311.748
311.862
312.012
312.172
312.332
312.483
312.617
312.728
312.806
312.847
312.847
312.806
312.728
312.617
312.483
312.332
312.172
312.012
311.862
311.748
308.412
308.493
308.6
308.714
308.828
308.936
309.032
309.111
309.167
309.196
309.196
309.167
309.111
309.032
308.936
308.828
308.714
308.6
308.493
308.412
305.06
305.108
305.172
305.241
305.309
305.374
305.432
305.479
305.513
305.53
305.53
305.513
305.479
305.432
305.374
305.309
305.241
305.172
305.108
305.06
301.697
301.713
301.735
301.758
301.781
301.802
301.822
301.838
301.849
301.855
301.855
301.849
301.838
301.822
301.802
301.781
301.758
301.735
301.713
301.697
325.527
325.772
326.074
326.391
326.704
327
327.262
327.476
327.628
327.707
327.707
327.628
327.476
327.262
327
326.704
326.391
326.074
325.772
325.527
322.228
322.435
322.696
322.97
323.242
323.498
323.725
323.91
324.042
324.111
324.111
324.042
323.91
323.725
323.498
323.242
322.97
322.696
322.435
322.228
318.885
319.057
319.277
319.509
319.738
319.955
320.147
320.304
320.416
320.473
320.473
320.416
320.304
320.147
319.955
319.738
319.509
319.277
319.057
318.885
315.505
315.643
315.823
316.012
316.2
316.377
316.535
316.663
316.754
316.802
316.802
316.754
316.663
316.535
316.377
316.2
316.012
315.823
315.643
315.505
312.094
312.201
312.34
312.487
312.634
312.771
312.894
312.994
313.064
313.101
313.101
313.064
312.994
312.894
312.771
312.634
312.487
312.34
312.201
312.094
308.66
308.735
308.834
308.94
309.044
309.143
309.23
309.302
309.352
309.379
309.379
309.352
309.302
309.23
309.143
309.044
308.94
308.834
308.735
308.66
305.209
305.254
305.313
305.376
305.439
305.498
305.551
305.594
305.624
305.64
305.64
305.624
305.594
305.551
305.498
305.439
305.376
305.313
305.254
305.209
301.747
301.762
301.782
301.803
301.824
301.844
301.862
301.876
301.886
301.892
301.892
301.886
301.876
301.862
301.844
301.824
301.803
301.782
301.762
301.747
326.334
326.561
326.841
327.132
327.418
327.686
327.923
328.116
328.253
328.324
328.324
328.253
328.116
327.923
327.686
327.418
327.132
326.841
326.561
326.334
322.93
323.123
323.364
323.616
323.864
324.096
324.302
324.469
324.587
324.649
324.649
324.587
324.469
324.302
324.096
323.864
323.616
323.364
323.123
322.93
319.482
319.641
319.844
320.058
320.267
320.464
320.638
320.78
320.88
320.932
320.932
320.88
320.78
320.638
320.464
320.267
320.058
319.844
319.641
319.482
315.995
316.123
316.289
316.463
316.635
316.796
316.938
317.054
317.136
317.178
317.178
317.136
317.054
316.938
316.796
316.635
316.463
316.289
316.123
315.995
312.477
312.575
312.704
312.839
312.973
313.098
313.209
313.299
313.363
313.396
313.396
313.363
313.299
313.209
313.098
312.973
312.839
312.704
312.575
312.477
308.934
309.003
309.095
309.192
309.287
309.377
309.456
309.52
309.566
309.59
309.59
309.566
309.52
309.456
309.377
309.287
309.192
309.095
309.003
308.934
305.373
305.415
305.47
305.528
305.585
305.639
305.687
305.725
305.753
305.767
305.767
305.753
305.725
305.687
305.639
305.585
305.528
305.47
305.415
305.373
301.802
301.816
301.835
301.854
301.873
301.891
301.907
301.92
301.93
301.934
301.934
301.93
301.92
301.907
301.891
301.873
301.854
301.835
301.816
301.802
327.218
327.428
327.685
327.952
328.212
328.455
328.669
328.842
328.965
329.028
329.028
328.965
328.842
328.669
328.455
328.212
327.952
327.685
327.428
327.218
323.7
323.877
324.099
324.33
324.556
324.767
324.952
325.102
325.208
325.263
325.263
325.208
325.102
324.952
324.767
324.556
324.33
324.099
323.877
323.7
320.135
320.282
320.469
320.665
320.856
321.034
321.191
321.318
321.408
321.454
321.454
321.408
321.318
321.191
321.034
320.856
320.665
320.469
320.282
320.135
316.531
316.65
316.802
316.962
317.118
317.264
317.393
317.497
317.57
317.608
317.608
317.57
317.497
317.393
317.264
317.118
316.962
316.802
316.65
316.531
312.895
312.986
313.104
313.228
313.35
313.463
313.563
313.644
313.701
313.731
313.731
313.701
313.644
313.563
313.463
313.35
313.228
313.104
312.986
312.895
309.233
309.297
309.382
309.471
309.558
309.639
309.71
309.768
309.809
309.83
309.83
309.809
309.768
309.71
309.639
309.558
309.471
309.382
309.297
309.233
305.553
305.592
305.642
305.696
305.748
305.797
305.84
305.874
305.899
305.911
305.911
305.899
305.874
305.84
305.797
305.748
305.696
305.642
305.592
305.553
301.863
301.876
301.893
301.91
301.928
301.944
301.959
301.97
301.979
301.983
301.983
301.979
301.97
301.959
301.944
301.928
301.91
301.893
301.876
301.863
328.177
328.371
328.607
328.85
329.087
329.307
329.499
329.654
329.763
329.82
329.82
329.763
329.654
329.499
329.307
329.087
328.85
328.607
328.371
328.177
324.534
324.698
324.902
325.113
325.318
325.508
325.675
325.809
325.904
325.953
325.953
325.904
325.809
325.675
325.508
325.318
325.113
324.902
324.698
324.534
320.843
320.979
321.151
321.329
321.503
321.664
321.805
321.919
321.999
322.041
322.041
321.999
321.919
321.805
321.664
321.503
321.329
321.151
320.979
320.843
317.112
317.222
317.362
317.508
317.65
317.782
317.897
317.99
318.056
318.09
318.09
318.056
317.99
317.897
317.782
317.65
317.508
317.362
317.222
317.112
313.348
313.432
313.54
313.654
313.765
313.867
313.957
314.03
314.081
314.107
314.107
314.081
314.03
313.957
313.867
313.765
313.654
313.54
313.432
313.348
309.557
309.617
309.694
309.775
309.854
309.928
309.992
310.044
310.08
310.099
310.099
310.08
310.044
309.992
309.928
309.854
309.775
309.694
309.617
309.557
305.748
305.784
305.83
305.879
305.927
305.971
306.009
306.04
306.062
306.074
306.074
306.062
306.04
306.009
305.971
305.927
305.879
305.83
305.784
305.748
301.928
301.94
301.956
301.972
301.988
302.003
302.016
302.026
302.033
302.037
302.037
302.033
302.026
302.016
302.003
301.988
301.972
301.956
301.94
301.928
329.208
329.386
329.602
329.824
330.039
330.237
330.41
330.549
330.646
330.696
330.696
330.646
330.549
330.41
330.237
330.039
329.824
329.602
329.386
329.208
325.43
325.581
325.767
325.96
326.146
326.318
326.467
326.588
326.672
326.716
326.716
326.672
326.588
326.467
326.318
326.146
325.96
325.767
325.581
325.43
321.603
321.728
321.886
322.048
322.206
322.351
322.478
322.58
322.652
322.689
322.689
322.652
322.58
322.478
322.351
322.206
322.048
321.886
321.728
321.603
317.735
317.836
317.964
318.097
318.226
318.345
318.449
318.533
318.591
318.622
318.622
318.591
318.533
318.449
318.345
318.226
318.097
317.964
317.836
317.735
313.833
313.911
314.01
314.114
314.214
314.307
314.388
314.453
314.498
314.522
314.522
314.498
314.453
314.388
314.307
314.214
314.114
314.01
313.911
313.833
309.905
309.959
310.03
310.104
310.176
310.242
310.3
310.347
310.379
310.396
310.396
310.379
310.347
310.3
310.242
310.176
310.104
310.03
309.959
309.905
305.957
305.99
306.032
306.077
306.12
306.16
306.194
306.222
306.242
306.252
306.252
306.242
306.222
306.194
306.16
306.12
306.077
306.032
305.99
305.957
301.998
302.009
302.023
302.038
302.053
302.066
302.078
302.087
302.094
302.097
302.097
302.094
302.087
302.078
302.066
302.053
302.038
302.023
302.009
301.998
330.298
330.462
330.66
330.862
331.056
331.235
331.39
331.515
331.601
331.646
331.646
331.601
331.515
331.39
331.235
331.056
330.862
330.66
330.462
330.298
326.375
326.514
326.685
326.86
327.029
327.184
327.319
327.427
327.502
327.541
327.541
327.502
327.427
327.319
327.184
327.029
326.86
326.685
326.514
326.375
322.404
322.519
322.663
322.811
322.954
323.086
323.2
323.291
323.355
323.388
323.388
323.355
323.291
323.2
323.086
322.954
322.811
322.663
322.519
322.404
318.391
318.484
318.601
318.722
318.839
318.947
319.04
319.115
319.167
319.194
319.194
319.167
319.115
319.04
318.947
318.839
318.722
318.601
318.484
318.391
314.344
314.415
314.506
314.6
314.691
314.775
314.848
314.906
314.947
314.968
314.968
314.947
314.906
314.848
314.775
314.691
314.6
314.506
314.415
314.344
310.27
310.32
310.385
310.452
310.517
310.577
310.629
310.671
310.7
310.715
310.715
310.7
310.671
310.629
310.577
310.517
310.452
310.385
310.32
310.27
306.176
306.206
306.245
306.286
306.325
306.361
306.392
306.417
306.435
306.444
306.444
306.435
306.417
306.392
306.361
306.325
306.286
306.245
306.206
306.176
302.072
302.082
302.095
302.108
302.121
302.134
302.144
302.152
302.158
302.161
302.161
302.158
302.152
302.144
302.134
302.121
302.108
302.095
302.082
302.072
331.417
331.568
331.75
331.934
332.111
332.272
332.412
332.524
332.601
332.641
332.641
332.601
332.524
332.412
332.272
332.111
331.934
331.75
331.568
331.417
327.342
327.47
327.627
327.787
327.94
328.08
328.202
328.298
328.366
328.401
328.401
328.366
328.298
328.202
328.08
327.94
327.787
327.627
327.47
327.342
323.219
323.325
323.457
323.593
323.723
323.842
323.945
324.027
324.084
324.113
324.113
324.084
324.027
323.945
323.842
323.723
323.593
323.457
323.325
323.219
319.056
319.141
319.249
319.36
319.466
319.564
319.648
319.715
319.762
319.786
319.786
319.762
319.715
319.648
319.564
319.466
319.36
319.249
319.141
319.056
314.86
314.925
315.009
315.095
315.178
315.254
315.319
315.372
315.408
315.427
315.427
315.408
315.372
315.319
315.254
315.178
315.095
315.009
314.925
314.86
310.638
310.684
310.744
310.805
310.864
310.919
310.966
311.003
311.029
311.043
311.043
311.029
311.003
310.966
310.919
310.864
310.805
310.744
310.684
310.638
306.397
306.425
306.461
306.498
306.533
306.566
306.594
306.616
306.632
306.64
306.64
306.632
306.616
306.594
306.566
306.533
306.498
306.461
306.425
306.397
302.146
302.155
302.167
302.179
302.191
302.202
302.212
302.219
302.224
302.227
302.227
302.224
302.219
302.212
302.202
302.191
302.179
302.167
302.155
302.146
332.493
332.632
332.799
332.969
333.13
333.278
333.404
333.505
333.576
333.612
333.612
333.576
333.505
333.404
333.278
333.13
332.969
332.799
332.632
332.493
328.259
328.377
328.522
328.669
328.81
328.938
329.048
329.136
329.197
329.228
329.228
329.197
329.136
329.048
328.938
328.81
328.669
328.522
328.377
328.259
323.984
324.082
324.205
324.329
324.448
324.557
324.651
324.725
324.777
324.804
324.804
324.777
324.725
324.651
324.557
324.448
324.329
324.205
324.082
323.984
319.674
319.753
319.853
319.955
320.053
320.142
320.219
320.28
320.322
320.344
320.344
320.322
320.28
320.219
320.142
320.053
319.955
319.853
319.753
319.674
315.336
315.396
315.474
315.553
315.63
315.699
315.759
315.807
315.84
315.857
315.857
315.84
315.807
315.759
315.699
315.63
315.553
315.474
315.396
315.336
310.975
311.018
311.073
311.13
311.185
311.234
311.277
311.311
311.335
311.347
311.347
311.335
311.311
311.277
311.234
311.185
311.13
311.073
311.018
310.975
306.599
306.624
306.658
306.692
306.725
306.754
306.78
306.801
306.815
306.822
306.822
306.815
306.801
306.78
306.754
306.725
306.692
306.658
306.624
306.599
302.213
302.222
302.233
302.244
302.255
302.265
302.274
302.281
302.286
302.288
302.288
302.286
302.281
302.274
302.265
302.255
302.244
302.233
302.222
302.213
333.331
333.462
333.62
333.779
333.93
334.067
334.185
334.279
334.344
334.378
334.378
334.344
334.279
334.185
334.067
333.93
333.779
333.62
333.462
333.331
328.948
329.059
329.196
329.334
329.466
329.586
329.689
329.771
329.827
329.857
329.857
329.827
329.771
329.689
329.586
329.466
329.334
329.196
329.059
328.948
324.541
324.634
324.749
324.867
324.979
325.081
325.169
325.238
325.287
325.311
325.311
325.287
325.238
325.169
325.081
324.979
324.867
324.749
324.634
324.541
320.113
320.188
320.283
320.379
320.471
320.555
320.627
320.684
320.724
320.744
320.744
320.724
320.684
320.627
320.555
320.471
320.379
320.283
320.188
320.113
315.667
315.725
315.799
315.874
315.946
316.011
316.067
316.112
316.143
316.159
316.159
316.143
316.112
316.067
316.011
315.946
315.874
315.799
315.725
315.667
311.207
311.248
311.301
311.354
311.406
311.453
311.493
311.525
311.547
311.559
311.559
311.547
311.525
311.493
311.453
311.406
311.354
311.301
311.248
311.207
306.736
306.761
306.792
306.825
306.856
306.884
306.908
306.927
306.941
306.948
306.948
306.941
306.927
306.908
306.884
306.856
306.825
306.792
306.761
306.736
302.259
302.267
302.278
302.288
302.299
302.308
302.316
302.323
302.327
302.33
302.33
302.327
302.323
302.316
302.308
302.299
302.288
302.278
302.267
302.259
)
;

boundaryField
{
    hotSide
    {
        type            fixedGradient;
        gradient        nonuniform List<scalar> 
400
(
216.813
217.43
218.668
220.535
223.043
226.206
230.041
234.566
239.801
245.763
252.472
259.943
268.194
277.238
287.088
297.754
309.244
321.567
334.728
348.732
221.973
222.549
223.707
225.457
227.816
230.801
234.436
238.744
243.749
249.475
255.945
263.18
271.2
280.02
289.655
300.118
311.417
323.561
336.556
350.406
227.558
228.085
229.148
230.759
232.94
235.717
239.118
243.173
247.913
253.369
259.569
266.538
274.299
282.871
292.272
302.513
313.607
325.56
338.379
352.066
233.475
233.945
234.896
236.347
238.324
240.861
243.994
247.763
252.207
257.361
263.262
269.939
277.42
285.726
294.876
304.885
315.762
327.517
340.153
353.675
239.558
239.964
240.791
242.061
243.811
246.082
248.922
252.378
256.499
261.33
266.912
273.281
280.468
288.498
297.391
307.161
317.82
329.375
341.831
355.189
245.554
245.892
246.585
247.664
249.172
251.163
253.695
256.826
260.614
265.113
270.372
276.431
283.326
291.082
299.721
309.26
319.708
331.072
343.355
356.558
251.119
251.389
251.949
252.837
254.107
255.822
258.052
260.867
264.334
268.517
273.468
279.235
285.855
293.358
301.765
311.091
321.347
332.539
344.667
357.732
255.842
256.051
256.491
257.208
258.265
259.734
261.697
264.234
267.42
271.327
276.013
281.529
287.916
295.204
303.415
312.564
322.661
333.71
345.712
358.664
259.299
259.46
259.809
260.395
261.289
262.573
264.334
266.661
269.638
273.339
277.829
283.161
289.377
296.508
304.577
313.598
323.581
334.528
346.439
359.311
261.131
261.266
261.565
262.08
262.886
264.069
265.721
267.935
270.799
274.391
278.776
284.01
290.135
297.183
305.178
314.132
324.055
334.948
346.812
359.642
261.131
261.266
261.565
262.08
262.886
264.069
265.721
267.935
270.799
274.391
278.776
284.01
290.135
297.183
305.178
314.132
324.055
334.948
346.812
359.642
259.299
259.46
259.809
260.395
261.289
262.573
264.334
266.661
269.638
273.339
277.829
283.161
289.377
296.508
304.577
313.598
323.581
334.528
346.439
359.311
255.842
256.051
256.491
257.208
258.265
259.734
261.697
264.234
267.42
271.327
276.013
281.529
287.916
295.204
303.415
312.564
322.661
333.71
345.712
358.664
251.119
251.389
251.949
252.837
254.107
255.822
258.052
260.867
264.334
268.517
273.468
279.235
285.855
293.358
301.765
311.091
321.347
332.539
344.667
357.732
245.554
245.892
246.585
247.664
249.172
251.163
253.695
256.826
260.614
265.113
270.372
276.431
283.326
291.082
299.721
309.26
319.708
331.072
343.355
356.558
239.558
239.964
240.791
242.061
243.811
246.082
248.922
252.378
256.499
261.33
266.912
273.281
280.468
288.498
297.391
307.161
317.82
329.375
341.831
355.189
233.475
233.945
234.896
236.347
238.324
240.861
243.994
247.763
252.207
257.361
263.262
269.939
277.42
285.726
294.876
304.885
315.762
327.517
340.153
353.675
227.558
228.085
229.148
230.759
232.94
235.717
239.118
243.173
247.913
253.369
259.569
266.538
274.299
282.871
292.272
302.513
313.607
325.56
338.379
352.066
221.973
222.549
223.707
225.457
227.816
230.801
234.436
238.744
243.749
249.475
255.945
263.18
271.2
280.02
289.655
300.118
311.417
323.561
336.556
350.406
216.813
217.43
218.668
220.535
223.043
226.206
230.041
234.566
239.801
245.763
252.472
259.943
268.194
277.238
287.088
297.754
309.244
321.567
334.728
348.732
)
;
    }
    coldSide
    {
        type            mixed;
        refValue        uniform 300;
        refGradient     uniform 0;
        valueFraction   uniform 0.991591;
        source          uniform 0;
        value           nonuniform List<scalar> 
400
(
300.012
300.012
300.012
300.012
300.013
300.013
300.013
300.013
300.014
300.014
300.014
300.015
300.015
300.016
300.016
300.017
300.017
300.018
300.019
300.019
300.012
300.012
300.013
300.013
300.013
300.013
300.013
300.013
300.014
300.014
300.014
300.015
300.015
300.016
300.016
300.017
300.018