/*--------------------------------*- C++ -*----------------------------------*\
| =========                 |                                                 |
| \\      /  F ield         | OpenFOAM: The Open Source CFD Toolbox           |
|  \\    /   O peration     | Version:  2212                                  |
|   \\  /    A nd           | Website:  www.openfoam.com                      |
|    \\/     M anipulation  |                                                 |
\*---------------------------------------------------------------------------*/
FoamFile
{
    version     2.0;
    format      ascii;
    arch        "LSB;label=32;scalar=64";
    class       volScalarField;
    location    "0";
    object      stateMean;
}
// * * * * * * * * * * * * * * * * * * * * * * * * * * * * * * * * * * * * * //

dimensions      [0 0 0 1 0 0 0];

internalField   nonuniform List<scalar> 
3200
(
340.873
339.804
338.965
338.722
338.924
339.422
340.071
340.772
341.41
341.703
341.937
341.711
341.493
340.888
340.255
339.735
339.414
339.593
340.234
341.291
335.659
334.759
334.021
333.827
334.077
334.446
335.117
335.62
336.144
336.456
336.623
336.496
336.174
335.667
335.152
334.701
334.434
334.559
335.112
336.033
330.399
329.605
329.005
328.745
329.017
329.316
329.742
330.359
330.773
331.059
331.173
331.082
330.761
330.332
329.973
329.564
329.365
329.385
329.9
330.639
325.049
324.247
323.902
323.624
323.835
324.105
324.434
324.905
325.278
325.439
325.583
325.562
325.312
324.938
324.654
324.267
324.181
324.211
324.565
325.146
319.506
319.02
318.634
318.494
318.56
318.818
319.132
319.406
319.695
319.875
319.943
319.918
319.736
319.525
319.241
318.962
318.824
319.005
319.263
319.69
313.915
313.616
313.319
313.281
313.266
313.502
313.697
313.936
314.134
314.287
314.368
314.267
314.159
313.94
313.777
313.604
313.405
313.624
313.759
314.064
308.328
308.185
308.014
308.022
308.025
308.076
308.237
308.364
308.495
308.535
308.575
308.591
308.477
308.445
308.243
308.207
308.124
308.138
308.335
308.537
302.824
302.673
302.712
302.727
302.606
302.7
302.785
302.822
302.901
302.874
302.942
302.869
302.795
302.862
302.729
302.68
302.744
302.791
302.775
302.762
341.14
340.018
339.15
338.937
339.217
339.798
340.585
341.241
341.939
342.312
342.557
342.403
342.027
341.392
340.724
340.141
339.752
339.834
340.454
341.512
335.933
334.913
334.287
334.002
334.336
334.77
335.402
335.976
336.502
336.824
337.085
336.884
336.587
336.111
335.519
334.997
334.739
334.81
335.369
336.259
330.53
329.798
329.186
329.025
329.196
329.585
330.06
330.672
331.092
331.354
331.549
331.372
331.204
330.704
330.256
329.784
329.579
329.626
330.098
330.795
325.089
324.486
323.962
323.837
323.986
324.279
324.681
325.185
325.508
325.815
325.885
325.896
325.597
325.167
324.866
324.455
324.316
324.35
324.761
325.367
319.669
319.049
318.738
318.625
318.751
318.998
319.267
319.609
319.844
320.124
320.14
320.125
320.051
319.673
319.413
319.083
318.98
319.097
319.349
319.84
314.045
313.616
313.45
313.282
313.42
313.575
313.725
314.116
314.213
314.391
314.508
314.487
314.244
314.136
313.899
313.78
313.559
313.686
313.873
314.14
308.485
308.27
307.977
308.005
308.159
308.256
308.38
308.456
308.548
308.634
308.731
308.638
308.628
308.523
308.322
308.262
308.189
308.21
308.27
308.537
302.822
302.79
302.694
302.685
302.673
302.689
302.821
302.809
302.886
302.894
302.829
302.884
302.952
302.764
302.742
302.796
302.775
302.766
302.794
302.888
341.665
340.4
339.673
339.609
339.783
340.474
341.179
342.021
342.711
343.14
343.33
343.214
342.853
342.16
341.369
340.76
340.308
340.307
340.986
341.928
336.33
335.282
334.701
334.507
334.726
335.283
335.915
336.708
337.279
337.66
337.69
337.659
337.281
336.815
336.165
335.613
335.227
335.279
335.755
336.542
330.871
330.095
329.513
329.341
329.548
329.999
330.596
331.161
331.578
332.011
332.173
332.087
331.754
331.299
330.716
330.264
329.9
329.996
330.435
331.077
325.366
324.767
324.272
324.111
324.356
324.692
325.143
325.551
326.017
326.356
326.362
326.379
326.079
325.75
325.26
324.867
324.597
324.674
325.068
325.58
319.775
319.296
319.028
318.85
318.972
319.268
319.683
319.994
320.277
320.48
320.617
320.392
320.317
320.065
319.724
319.416
319.243
319.309
319.528
319.959
314.27
313.86
313.616
313.5
313.617
313.862
314.034
314.298
314.578
314.703
314.723
314.753
314.569
314.362
314.19
313.91
313.763
313.827
314.036
314.297
308.532
308.346
308.139
308.22
308.231
308.191
308.391
308.623
308.703
308.914
308.815
308.847
308.747
308.632
308.47
308.381
308.22
308.278
308.433
308.569
302.819
302.837
302.698
302.713
302.824
302.755
302.885
302.936
302.968
302.966
302.921
302.956
302.957
302.917
302.816
302.813
302.781
302.714
302.856
302.91
342.278
341.184
340.448
340.361
340.613
341.302
342.085
342.99
343.753
344.129
344.463
344.235
343.882
343.116
342.343
341.63
341.214
341.122
341.706
342.632
336.898
335.978
335.328
335.209
335.413
335.999
336.71
337.455
338.112
338.528
338.605
338.569
338.183
337.668
336.858
336.284
335.887
335.931
336.382
337.165
331.314
330.604
330.063
329.92
330.214
330.693
331.214
331.827
332.374
332.735
332.931
332.82
332.436
332.005
331.482
330.936
330.524
330.687
331.012
331.669
325.773
325.27
324.793
324.662
324.862
325.238
325.666
326.146
326.649
326.862
326.988
326.955
326.639
326.235
325.822
325.382
325.133
325.164
325.438
325.993
320.189
319.752
319.336
319.256
319.406
319.701
320.021
320.367
320.755
321.008
321.129
321.05
320.809
320.475
320.076
319.846
319.569
319.706
319.956
320.345
314.374
314.13
313.875
313.749
313.931
314.081
314.337
314.573
314.909
314.981
315.125
315.083
314.886
314.687
314.424
314.215
314.083
314.143
314.259
314.526
308.681
308.48
308.353
308.25
308.289
308.425
308.644
308.735
308.893
309.064
309.096
309.032
308.938
308.818
308.631
308.519
308.502
308.49
308.555
308.732
302.87
302.858
302.832
302.748
302.76
302.823
302.862
302.943
303.021
303.07
303.113
303.034
303.011
303.066
302.895
302.878
302.806
302.841
302.815
302.967
343.262
342.153
341.477
341.312
341.601
342.373
343.242
344.041
344.874
345.405
345.616
345.504
345.032
344.285
343.412
342.732
342.118
342.144
342.633
343.502
337.662
336.891
336.288
336.1
336.347
336.904
337.659
338.334
339.083
339.543
339.72
339.636
339.283
338.563
337.798
337.273
336.712
336.73
337.265
337.9
332.081
331.332
330.823
330.62
331.007
331.428
331.975
332.575
333.172
333.588
333.722
333.683
333.296
332.784
332.22
331.664
331.296
331.369
331.617
332.313
326.325
325.8
325.377
325.313
325.368
325.825
326.26
326.829
327.244
327.556
327.714
327.619
327.356
326.842
326.419
326.029
325.806
325.744
326.128
326.538
320.517
320.164
319.774
319.734
319.816
320.241
320.442
320.929
321.207
321.458
321.638
321.615
321.401
321.002
320.682
320.275
320.088
320.053
320.408
320.775
314.731
314.486
314.242
314.067
314.154
314.466
314.644
314.905
315.22
315.385
315.519
315.438
315.24
314.97
314.74
314.518
314.382
314.457
314.563
314.858
308.909
308.635
308.465
308.51
308.539
308.693
308.815
308.965
309.166
309.248
309.304
309.316
309.194
309.062
308.895
308.804
308.637
308.69
308.783
308.895
302.967
302.921
302.875
302.874
302.87
302.915
302.998
302.994
303.067
303.099
303.128
303.14
303.084
302.959
302.95
302.862
302.897
302.864
302.976
303.002
344.346
343.42
342.753
342.542
342.841
343.557
344.382
345.305
346.118
346.708
346.944
346.79
346.377
345.509
344.62
343.9
343.322
343.268
343.769
344.629
338.637
337.815
337.268
337.148
337.451
337.96
338.633
339.459
340.121
340.67
340.912
340.801
340.305
339.655
338.919
338.246
337.83
337.738
338.22
338.832
332.87
332.207
331.69
331.605
331.745
332.186
332.875
333.556
334.16
334.481
334.726
334.581
334.247
333.749
333.06
332.527
332.149
332.13
332.499
333.028
327.044
326.522
326.09
325.951
326.112
326.468
326.975
327.529
328.01
328.306
328.491
328.432
328.153
327.658
327.125
326.716
326.424
326.419
326.708
327.173
321.09
320.769
320.326
320.274
320.443
320.752
321.107
321.436
321.895
322.1
322.196
322.178
321.969
321.57
321.207
320.809
320.571
320.684
320.899
321.25
315.1
314.867
314.586
314.546
314.577
314.829
315.119
315.354
315.683
315.838
315.955
315.842
315.717
315.483
315.273
315.039
314.793
314.814
314.948
315.236
309.056
308.926
308.798
308.831
308.744
308.893
309.043
309.304
309.471
309.541
309.539
309.53
309.456
309.256
309.201
309.042
308.952
308.942
309.026
309.198
303.093
303.033
302.958
302.965
302.943
303.026
303.001
303.072
303.178
303.134
303.297
303.123
303.233
303.13
303.031
303.052
302.941
302.943
303.012
303.102
345.636
344.717
344.031
343.904
344.149
344.873
345.614
346.54
347.394
348.119
348.268
348.187
347.714
346.869
345.951
345.196
344.666
344.676
345.067
345.807
339.85
338.988
338.353
338.259
338.579
339.088
339.818
340.585
341.282
341.82
342.074
342.021
341.557
340.873
340.058
339.39
338.917
338.99
339.29
339.963
333.78
333.234
332.695
332.643
332.784
333.139
333.837
334.464
335.078
335.528
335.748
335.706
335.292
334.706
334.097
333.506
333.19
333.125
333.438
334.013
327.822
327.339
326.917
326.793
326.942
327.371
327.871
328.28
328.736
329.219
329.352
329.251
328.871
328.479
328.001
327.551
327.25
327.284
327.461
327.939
321.742
321.332
321.027
320.985
321.042
321.328
321.634
322.101
322.473
322.694
322.884
322.856
322.481
322.237
321.9
321.48
321.33
321.287
321.445
321.791
315.52
315.244
315.078
314.939
315.077
315.316
315.506
315.806
316.147
316.297
316.461
316.339
316.144
315.918
315.639
315.423
315.183
315.279
315.344
315.677
309.292
309.185
309.057
308.981
309.033
309.182
309.314
309.541
309.691
309.742
309.84
309.847
309.732
309.621
309.409
309.294
309.163
309.162
309.296
309.352
303.142
303.107
303.063
302.991
303.043
303.047
303.113
303.213
303.254
303.257
303.308
303.359
303.3
303.125
303.157
303.12
303.099
303.032
303.015
303.149
347.017
346.256
345.503
345.322
345.524
346.244
347.063
347.962
348.801
349.4
349.772
349.656
349.094
348.204
347.378
346.591
346.105
346.01
346.394
347.154
340.982
340.285
339.67
339.557
339.742
340.302
340.933
341.723
342.547
343.058
343.277
343.177
342.681
342.012
341.258
340.623
340.245
340.172
340.562
341.103
334.885
334.312
333.741
333.653
333.767
334.229
334.892
335.428
336.108
336.607
336.769
336.713
336.283
335.752
335.126
334.561
334.199
334.122
334.443
335.015
328.677
328.189
327.745
327.648
327.843
328.114
328.552
329.176
329.634
330.04
330.228
330.156
329.769
329.263
328.807
328.354
328.087
328.079
328.313
328.737
322.363
321.977
321.678
321.607
321.729
321.959
322.29
322.732
323.207
323.463
323.465
323.517
323.249
322.919
322.517
322.164
321.958
321.936
322.127
322.441
316.008
315.835
315.64
315.441
315.566
315.739
316.007
316.287
316.565
316.651
316.781
316.854
316.666
316.452
316.016
315.843
315.768
315.743
315.904
316.04
309.624
309.542
309.408
309.283
309.348
309.414
309.659
309.827
310.004
310.08
310.125
310.09
310.025
309.841
309.652
309.512
309.49
309.469
309.559
309.704
303.263
303.137
303.109
303.167
303.149
303.222
303.167
303.297
303.353
303.379
303.443
303.396
303.39
303.33
303.341
303.256
303.159
303.201
303.232
303.23
348.547
347.66
347.102
346.89
347.113
347.622
348.382
349.3
350.188
350.842
351.182
350.999
350.424
349.601
348.781
348.088
347.668
347.499
347.872
348.502
342.329
341.654
341.054
340.941
341.063
341.517
342.218
342.904
343.802
344.247
344.452
344.465
343.878
343.274
342.531
341.876
341.498
341.454
341.794
342.323
335.943
335.36
334.911
334.805
334.78
335.331
335.903
336.486
337.099
337.636
337.814
337.698
337.419
336.83
336.185
335.673
335.267
335.224
335.513
336.043
329.565
329.068
328.738
328.662
328.738
329.1
329.487
329.965
330.424
330.961
331.055
330.983
330.654
330.175
329.716
329.284
329.027
329.001
329.202
329.514
323.069
322.718
322.459
322.342
322.427
322.709
323.009
323.354
323.692
324.073
324.151
324.116
323.853
323.548
323.182
322.815
322.631
322.626
322.763
323.139
316.542
316.331
316.103
315.98
316.096
316.213
316.465
316.717
317.02
317.247
317.34
317.274
317.159
316.801
316.589
316.275
316.175
316.161
316.399
316.518
309.908
309.798
309.673
309.589
309.587
309.834
309.876
310.065
310.177
310.336
310.428
310.357
310.349
310.182
310.059
309.794
309.771
309.794
309.806
309.957
303.34
303.3
303.226
303.189
303.257
303.243
303.341
303.359
303.38
303.555
303.488
303.45
303.454
303.341
303.374
303.299
303.306
303.237
303.367
303.296
350.093
349.295
348.708
348.439
348.666
349.159
349.919
350.812
351.63
352.228
352.474
352.347
351.81
351.067
350.281
349.562
349.129
349.04
349.404
350.045
343.792
343.062
342.479
342.338
342.443
342.832
343.461
344.21
344.914
345.432
345.631
345.633
345.136
344.471
343.823
343.137
342.807
342.732
343.099
343.613
337.284
336.625
336.153
335.958
336.119
336.46
336.992
337.484
338.176
338.542
338.769
338.727
338.365
337.769
337.256
336.687
336.363
336.404
336.577
337.101
330.534
330.153
329.698
329.598
329.705
329.975
330.403
330.897
331.307
331.609
331.763
331.743
331.506
331.09
330.612
330.131
329.907
329.984
330.164
330.523
323.821
323.461
323.237
323.063
323.143
323.329
323.624
324.026
324.504
324.673
324.888
324.886
324.573
324.258
323.822
323.533
323.371
323.287
323.552
323.844
317.111
316.831
316.652
316.595
316.57
316.707
316.944
317.18
317.474
317.666
317.768
317.685
317.62
317.304
317.035
316.891
316.691
316.684
316.865
317.053
310.231
310.098
309.962
309.968
309.972
310.132
310.219
310.322
310.556
310.699
310.718
310.685
310.586
310.451
310.308
310.123
310.08
310.142
310.143
310.195
303.448
303.311
303.377
303.35
303.362
303.388
303.37
303.521
303.481
303.645
303.547
303.66
303.56
303.536
303.47
303.403
303.277
303.285
303.426
303.448
351.796
351.017
350.439
350.128
350.351
350.581
351.359
352.129
352.886
353.419
353.769
353.648
353.171
352.463
351.701
350.942
350.639
350.581
350.961
351.557
345.134
344.476
343.896
343.679
343.875
344.212
344.689
345.413
346.135
346.534
346.766
346.671
346.324
345.668
345.069
344.491
344.252
344.17
344.471
344.924
338.329
337.818
337.431
337.168
337.284
337.544
338.054
338.593
339.159
339.51
339.82
339.641
339.272
338.79
338.278
337.812
337.545
337.499
337.72
338.236
331.54
331.043
330.691
330.594
330.609
330.871
331.228
331.693
332.107
332.418
332.645
332.585
332.243
331.932
331.41
331.075
330.854
330.832
331.006
331.388
324.565
324.254
323.95
323.851
323.922
324.047
324.395
324.703
325.108
325.4
325.389
325.377
325.175
324.876
324.522
324.27
324.042
324.026
324.27
324.52
317.625
317.478
317.178
317.08
317.105
317.211
317.504
317.707
318.001
318.132
318.258
318.228
318.044
317.833
317.565
317.411
317.182
317.21
317.405
317.578
310.607
310.417
310.275
310.285
310.272
310.342
310.527
310.69
310.739
310.918
310.88
310.882
310.883
310.708
310.587
310.446
310.405
310.308
310.408
310.602
303.608
303.499
303.425
303.432
303.468
303.559
303.582
303.564
303.664
303.607
303.705
303.662
303.647
303.595
303.514
303.52
303.519
303.465
303.554
303.496
353.481
352.668
352.051
351.825
351.889
352.243
352.8
353.535
354.212
354.708
355.015
354.938
354.436
353.748
353.006
352.478
352.171
352.134
352.45
353.06
346.612
345.996
345.413
345.156
345.233
345.497
346.112
346.554
347.281
347.609
347.942
347.792
347.412
346.818
346.203
345.761
345.463
345.469
345.779
346.243
339.675
339.167
338.602
338.367
338.426
338.728
339.127
339.546
340.046
340.515
340.709
340.606
340.267
339.749
339.23
338.872
338.686
338.679
338.899
339.331
332.573
332.108
331.738
331.562
331.646
331.769
332.127
332.527
332.901
333.237
333.381
333.343
333.095
332.664
332.299
331.929
331.742
331.722
331.94
332.33
325.433
325.046
324.759
324.668
324.789
324.838
324.979
325.338
325.601
325.831
326.085
325.947
325.866
325.525
325.141
324.896
324.809
324.735
325.061
325.193
318.196
317.962
317.781
317.683
317.588
317.712
317.991
318.166
318.412
318.467
318.666
318.672
318.467
318.226
318.025
317.817
317.806
317.765
317.855
318.089
310.991
310.805
310.732
310.653
310.627
310.694
310.772
310.879
311.015
311.156
311.18
311.209
311.178
311.013
310.753
310.693
310.653
310.677
310.75
310.825
303.667
303.633
303.561
303.564
303.546
303.546
303.687
303.581
303.705
303.823
303.73
303.751
303.718
303.718
303.639
303.626
303.594
303.561
303.543
303.572
355.108
354.438
353.806
353.484
353.481
353.757
354.331
354.9
355.454
356.043
356.183
356.076
355.685
355.134
354.457
353.941
353.653
353.65
353.945
354.558
348.005
347.383
346.865
346.654
346.634
346.851
347.238
347.84
348.329
348.734
348.894
348.905
348.527
348.001
347.449
347.045
346.738
346.831
347.166
347.602
340.863
340.343
339.816
339.613
339.576
339.803
340.21
340.612
341.167
341.384
341.565
341.503
341.153
340.789
340.336
339.986
339.748
339.806
340.106
340.447
333.628
333.141
332.835
332.626
332.626
332.749
333.054
333.36
333.793
333.96
334.082
334.078
333.836
333.475
333.159
332.869
332.631
332.685
332.995
333.283
326.209
325.888
325.585
325.432
325.405
325.56
325.781
326.035
326.286
326.467
326.578
326.554
326.445
326.19
325.88
325.621
325.552
325.524
325.679
325.9
318.733
318.534
318.323
318.254
318.248
318.314
318.43
318.663
318.78
318.902
319.008
318.961
318.894
318.752
318.47
318.413
318.246
318.295
318.436
318.555
311.27
311.158
311.029
310.91
310.892
310.978
311.036
311.282
311.398
311.458
311.445
311.416
311.409
311.259
311.149
311.032
310.966
310.947
311.027
311.199
303.748
303.742
303.722
303.691
303.678
303.655
303.774
303.753
303.818
303.839
303.799
303.794
303.823
303.775
303.737
303.719
303.621
303.705
303.68
303.772
356.834
356.059
355.468
355.092
355.129
355.35
355.684
356.235
356.768
357.045
357.339
357.289
356.923
356.339
355.822
355.339
355.079
355.243
355.583
356.163
349.522
348.911
348.338
348.008
347.99
348.248
348.675
349.024
349.44
349.732
349.963
349.883
349.505
349.188
348.597
348.288
348.038
348.087
348.503
349.018
342.159
341.528
341.178
340.911
340.882
341.029
341.275
341.657
342.012
342.344
342.414
342.395
342.117
341.684
341.385
341.092
340.801
340.965
341.197
341.639
334.652
334.21
333.885
333.646
333.625
333.641
333.935
334.223
334.52
334.721
334.863
334.773
334.539
334.252
334.032
333.735
333.569
333.607
333.926
334.191
326.978
326.681
326.357
326.301
326.253
326.259
326.479
326.661
326.974
327.114
327.192
327.082
326.965
326.699
326.568
326.302
326.229
326.271
326.477
326.62
319.37
319.143
318.92
318.839
318.833
318.749
318.889
319.068
319.267
319.388
319.462
319.45
319.276
319.24
318.98
318.863
318.729
318.844
318.936
319.149
311.605
311.47
311.338
311.296
311.278
311.353
311.344
311.459
311.555
311.685
311.743
311.58
311.555
311.526
311.411
311.364
311.219
311.384
311.378
311.474
303.94
303.886
303.842
303.754
303.736
303.776
303.819
303.778
303.917
303.986
303.867
303.901
303.897
303.917
303.778
303.791
303.826
303.784
303.854
303.799
358.566
357.869
357.23
356.792
356.754
356.872
357.233
357.586
358.071
358.326
358.452
358.425
358.052
357.53
357.175
356.748
356.54
356.71
357.141
357.735
350.96
350.341
349.875
349.562
349.421
349.568
349.76
350.174
350.562
350.914
350.959
350.825
350.601
350.216
349.816
349.488
349.321
349.467
349.82
350.339
343.391
342.939
342.36
342.174
342.073
342.141
342.352
342.554
342.987
343.163
343.322
343.231
343.046
342.714
342.36
342.077
341.916
342.078
342.378
342.791
335.658
335.218
334.863
334.583
334.494
334.633
334.795
335.066
335.192
335.471
335.528
335.456
335.271
335.057
334.772
334.571
334.474
334.652
334.815
335.136
327.904
327.479
327.198
326.998
326.945
327.01
327.178
327.287
327.511
327.697
327.698
327.689
327.575
327.398
327.133
327.012
326.89
327.007
327.211
327.372
319.892
319.673
319.536
319.393
319.355
319.329
319.362
319.623
319.72
319.817
319.879
319.823
319.682
319.546
319.427
319.348
319.281
319.289
319.537
319.663
312.031
311.789
311.791
311.632
311.593
311.669
311.723
311.732
311.866
311.899
311.936
311.941
311.79
311.721
311.591
311.659
311.607
311.681
311.667
311.83
303.998
304.04
303.95
303.872
303.836
303.91
303.928
304.013
303.951
303.926
304.001
304.018
303.967
303.967
303.915
303.974
303.861
303.949
303.902
304.018
360.278
359.512
358.855
358.393
358.363
358.431
358.632
358.952
359.338
359.535
359.544
359.522
359.233
358.959
358.473
358.238
358.077
358.223
358.627
359.223
352.495
351.931
351.33
350.933
350.869
350.889
351.106
351.363
351.619
351.832
351.917
351.847
351.612
351.337
350.972
350.745
350.609
350.808
351.12
351.614
344.655
344.205
343.697
343.316
343.197
343.292
343.401
343.709
343.911
344.067
344.139
344.104
343.92
343.685
343.434
343.121
343.044
343.264
343.495
343.993
336.677
336.33
335.828
335.628
335.568
335.564
335.636
335.868
336.046
336.165
336.242
336.206
336.057
335.804
335.555
335.486
335.375
335.433
335.761
336.077
328.667
328.342
328.012
327.842
327.688
327.776
327.899
327.979
328.103
328.211
328.255
328.262
328.133
327.903
327.843
327.712
327.634
327.723
327.855
328.21
320.558
320.285
320.066
319.89
319.883
319.871
319.933
320.016
320.065
320.249
320.259
320.183
320.114
320.019
319.895
319.808
319.761
319.875
319.97
320.188
312.332
312.231
312.086
311.988
311.923
311.974
311.974
312.093
312.094
312.17
312.184
312.199
312.149
312.116
311.93
311.94
311.875
311.953
312.125
312.123
304.16
304.124
304.067
304.02
303.94
304.056
304.04
303.988
304.009
304.058
304.146
304.077
304.036
304.097
303.965
304.029
303.95
304.036
304.088
303.97
361.947
361.281
360.535
360.087
359.858
359.914
360.078
360.326
360.567
360.784
360.83
360.731
360.414
360.182
359.853
359.608
359.578
359.746
360.236
360.775
353.988
353.371
352.737
352.422
352.202
352.256
352.338
352.509
352.715
352.946
352.925
352.918
352.751
352.486
352.191
351.992
351.95
352.101
352.551
353.041
345.915
345.372
344.848
344.54
344.373
344.422
344.489
344.634
344.834
344.989
344.973
344.964
344.79
344.578
344.3
344.121
344.178
344.346
344.69
345.077
337.657
337.346
336.881
336.587
336.491
336.461
336.542
336.704
336.792
336.942
336.919
336.941
336.809
336.48
336.4
336.333
336.204
336.444
336.648
337.08
329.497
329.13
328.808
328.536
328.469
328.434
328.564
328.558
328.763
328.799
328.851
328.786
328.704
328.57
328.358
328.367
328.341
328.462
328.637
328.898
321.04
320.887
320.695
320.454
320.417
320.424
320.401
320.457
320.591
320.609
320.602
320.631
320.582
320.395
320.343
320.316
320.265
320.418
320.502
320.679
312.699
312.58
312.433
312.279
312.233
312.316
312.261
312.378
312.42
312.389
312.464
312.497
312.446
312.301
312.211
312.253
312.149
312.206
312.363
312.555
304.281
304.257
304.187
304.137
304.128
304.199
304.141
304.137
304.123
304.121
304.151
304.06
304.104
304.129
304.105
304.056
304.121
304.123
304.138
304.203
363.556
362.864
362.104
361.63
361.467
361.339
361.384
361.713
361.748
361.857
361.939
361.85
361.705
361.396
361.089
360.963
361.072
361.222
361.724
362.31
355.402
354.693
354.176
353.727
353.655
353.492
353.499
353.637
353.866
353.874
353.955
353.88
353.726
353.535
353.253
353.174
353.146
353.356
353.81
354.314
347.13
346.622
346.099
345.749
345.437
345.47
345.476
345.615
345.701
345.819
345.908
345.797
345.578
345.496
345.251
345.129
345.127
345.378
345.781
346.194
338.721
338.192
337.916
337.574
337.4
337.347
337.345
337.427
337.519
337.617
337.616
337.665
337.392
337.421
337.164
337.164
337.059
337.312
337.616
338.012
330.187
329.837
329.515
329.3
329.264
329.112
329.138
329.18
329.259
329.416
329.382
329.329
329.221
329.14
329.006
328.881
329.058
329.11
329.348
329.665
321.548
321.414
321.175
321.008
320.906
320.823
320.842
320.929
321.06
320.979
320.984
320.94
320.977
320.82
320.825
320.777
320.713
320.879
321.024
321.194
313.052
312.933
312.689
312.607
312.592
312.555
312.542
312.581
312.618
312.706
312.658
312.696
312.574
312.53
312.476
312.445
312.471
312.568
312.712
312.784
304.335
304.346
304.276
304.241
304.223
304.166
304.219
304.273
304.18
304.232
304.3
304.225
304.278
304.192
304.187
304.205
304.137
304.186
304.199
304.294
365.053
364.287
363.559
363.081
362.795
362.676
362.76
362.813
362.919
363.013
362.982
362.967
362.705
362.527
362.343
362.237
362.331
362.593
363.085
363.578
356.762
356.065
355.471
355.105
354.748
354.627
354.594
354.621
354.777
354.836
354.895
354.824
354.684
354.468
354.33
354.212
354.344
354.498
355.094
355.533
348.145
347.691
347.207
346.736
346.528
346.351
346.349
346.439
346.587
346.649
346.647
346.578
346.461
346.347
346.207
346.078
346.187
346.358
346.746
347.187
339.51
339.158
338.685
338.391
338.203
338.076
338.196
338.189
338.224
338.283
338.298
338.214
338.118
338.007
337.934
337.882
337.905
338.048
338.401
338.736
330.945
330.532
330.213
329.971
329.853
329.723
329.807
329.786
329.81
329.78
329.909
329.857
329.608
329.663
329.526
329.504
329.543
329.708
329.91
330.212
322.062
321.865
321.61
321.574
321.311
321.229
321.349
321.289
321.351
321.351
321.33
321.385
321.31
321.312
321.064
321.255
321.237
321.342
321.406
321.681
313.365
313.1
313.055
312.947
312.854
312.794
312.827
312.746
312.833
312.877
312.887
312.809
312.812
312.82
312.72
312.741
312.742
312.774
312.917
313.059
304.478
304.373
304.349
304.242
304.318
304.281
304.285
304.257
304.281
304.288
304.378
304.428
304.295
304.247
304.267
304.262
304.229
304.255
304.366
304.374
366.154
365.378
364.708
364.162
363.876
363.685
363.655
363.714
363.744
363.873
363.865
363.736
363.602
363.418
363.267
363.164
363.314
363.587
364.124
364.745
357.579
356.941
356.333
355.907
355.55
355.534
355.459
355.496
355.55
355.565
355.565
355.488
355.449
355.235
355.065
354.971
355.126
355.356
355.869
356.382
348.931
348.34
347.857
347.372
347.226
347.12
347.11
347.04
347.148
347.169
347.171
347.137
347.065
346.926
346.765
346.676
346.763
347.016
347.445
347.858
340.196
339.758
339.226
338.948
338.723
338.616
338.563
338.667
338.76
338.785
338.666
338.688
338.593
338.484
338.401
338.34
338.388
338.59
338.972
339.266
331.331
331.049
330.699
330.398
330.294
330.08
330.024
330.16
330.176
330.2
330.113
330.199
330.131
330.032
329.862
329.876
329.926
330.091
330.424
330.64
322.382
322.167
321.875
321.75
321.648
321.636
321.586
321.571
321.605
321.617
321.59
321.555
321.563
321.482
321.477
321.35
321.46
321.499
321.814
321.935
313.51
313.377
313.205
313.099
313.077
312.923
312.956
312.987
312.941
312.972
312.968
312.961
312.925
312.949
312.876
312.885
312.886
312.99
313.041
313.247
304.622
304.487
304.45
304.401
304.278
304.329
304.342
304.425
304.442
304.296
304.407
304.354
304.367
304.338
304.363
304.38
304.298
304.382
304.415
304.367
)
;

boundaryField
{
    hotSide
    {
        type            fixedGradient;
        gradient        nonuniform List<scalar> 
400
(
321.511
322.87
325.591
329.677
335.133
341.965
350.181
359.788
370.794
383.208
397.037
412.289
428.971
447.088
466.647
487.651
510.105
534.011
559.372
586.191
323.738
325.08
327.767
331.802
337.194
343.949
352.078
361.591
372.498
384.81
398.537
413.687
430.268
448.289
467.755
488.672
511.043
534.872
560.161
586.913
326.149
327.47
330.116
334.091
339.406
346.071
354.099
363.503
374.296
386.491
400.101
415.136
431.606
449.52
468.885
489.706
511.988
535.735
560.948
587.63
328.704
330
332.597
336.503
341.73
348.292
356.205
365.485
376.15
388.215
401.695
416.604
432.954
450.753
470.009
490.73
512.919
536.579
561.714
588.325
331.33
332.599
335.142
338.97
344.099
350.546
358.332
367.477
378.003
389.928
403.271
418.047
434.27
451.949
471.095
491.712
513.807
537.382
562.439
588.978
333.918
335.158
337.643
341.389
346.414
352.74
360.392
369.397
379.779
391.562
404.765
419.407
435.503
453.065
472.101
492.618
514.622
538.114
563.096
589.569
336.321
337.531
339.959
343.622
348.544
354.751
362.274
371.142
381.385
393.031
406.101
420.618
436.595
454.047
472.983
493.409
515.33
538.747
563.663
590.076
338.36
339.543
341.92
345.509
350.339
356.44
363.847
372.595
382.718
394.244
407.2
421.608
437.485
454.844
473.695
494.045
515.897
539.253
564.114
590.478
339.852
341.015
343.352
346.885
351.645
357.665
364.985
373.643
383.675
395.113
407.984
422.312
438.116
455.407
474.197
494.491
516.294
539.606
564.428
590.758
340.643
341.795
344.11
347.613
352.334
358.311
365.584
374.193
384.176
395.567
408.393
422.679
438.443
455.699
474.456
494.722
516.498
539.788
564.589
590.901
340.643
341.795
344.11
347.613
352.334
358.311
365.584
374.193
384.176
395.567
408.393
422.679
438.443
455.699
474.456
494.722
516.498
539.788
564.589
590.901
339.852
341.015
343.352
346.885
351.645
357.665
364.985
373.643
383.675
395.113
407.984
422.312
438.116
455.407
474.197
494.491
516.294
539.606
564.428
590.758
338.36
339.543
341.92
345.509
350.339
356.44
363.847
372.595
382.718
394.244
407.2
421.608
437.485
454.844
473.695
494.045
515.897
539.253
564.114
590.478
336.321
337.531
339.959
343.622
348.544
354.751
362.274
371.142
381.385
393.031
406.101
420.618
436.595
454.047
472.983
493.409
515.33
538.747
563.663
590.076
333.918
335.158
337.643
341.389
346.414
352.74
360.392
369.397
379.779
391.562
404.765
419.407
435.503
453.065
472.101
492.618
514.622
538.114
563.096
589.569
331.33
332.599
335.142
338.97
344.099
350.546
358.332
367.477
378.003
389.928
403.271
418.047
434.27
451.949
471.095
491.712
513.807
537.382
562.439
588.978
328.704
330
332.597
336.503
341.73
348.292
356.205
365.485
376.15
388.215
401.695
416.604
432.954
450.753
470.009
490.73
512.919
536.579
561.714
588.325
326.149
327.47
330.116
334.091
339.406
346.071
354.099
363.503
374.296
386.491
400.101
415.136
431.606
449.52
468.885
489.706
511.988
535.735
560.948
587.63
323.738
325.08
327.767
331.802
337.194
343.949
352.078
361.591
372.498
384.81
398.537
413.687
430.268
448.289
467.755
488.672
511.043
534.872
560.161
586.913
321.511
322.87
325.591
329.677
335.133
341.965
350.181
359.788
370.794
383.208
397.037
412.289
428.971
447.088
466.647
487.651
510.105
534.011
559.372
586.191
)
;
    }
    coldSide
    {
        type            mixed;
        refValue        uniform 300;
        refGradient     uniform 0;
        valueFraction   uniform 0.991591;
        source          uniform 0;
        value           nonuniform List<scalar> 
400
(
300.024
300.024
300.024
300.024
300.025
300.026
300.026
300.027
300.028
300.029
300.03
300.031
300.032
300.033
300.034
300.035
300.036
300.036
300.038
300.039
300.022
300.023
300.024
300.024
300.025
300.026
300.026
300.026
300.028
300.028
300.029
300.031
300.031
300.033
300.034
300.035
300.036