/*--------------------------------*- C++ -*----------------------------------*\
| =========                 |                                                 |
| \\      /  F ield         | OpenFOAM: The Open Source CFD Toolbox           |
|  \\    /   O peration     | Version:  2212                                  |
|   \\  /    A nd           | Website:  www.openfoam.com                      |
|    \\/     M anipulation  |                                                 |
\*---------------------------------------------------------------------------*/
FoamFile
{
    version     2.0;
    format      ascii;
    arch        "LSB;label=32;scalar=64";
    class       volScalarField;
    location    "./ITHACAoutput/true/9.6";
    object      trueState;
}
// * * * * * * * * * * * * * * * * * * * * * * * * * * * * * * * * * * * * * //

dimensions      [0 0 0 1 0 0 0];

internalField   nonuniform List<scalar> 
3200
(
338.525
339.004
339.616
340.282
340.969
341.643
342.265
342.79
343.172
343.374
343.374
343.172
342.79
342.265
341.643
340.969
340.282
339.616
339.004
338.525
333.505
333.91
334.438
335.014
335.608
336.191
336.729
337.183
337.513
337.687
337.687
337.513
337.183
336.729
336.191
335.608
335.014
334.438
333.91
333.505
328.435
328.772
329.216
329.703
330.205
330.698
331.152
331.535
331.813
331.961
331.961
331.813
331.535
331.152
330.698
330.205
329.703
329.216
328.772
328.435
323.325
323.596
323.958
324.356
324.767
325.169
325.54
325.852
326.08
326.2
326.2
326.08
325.852
325.54
325.169
324.767
324.356
323.958
323.596
323.325
318.181
318.389
318.67
318.979
319.298
319.611
319.899
320.142
320.319
320.412
320.412
320.319
320.142
319.899
319.611
319.298
318.979
318.67
318.389
318.181
313.011
313.158
313.359
313.58
313.808
314.031
314.236
314.41
314.536
314.602
314.602
314.536
314.41
314.236
314.031
313.808
313.58
313.359
313.158
313.011
307.823
307.911
308.031
308.164
308.3
308.434
308.558
308.662
308.737
308.777
308.777
308.737
308.662
308.558
308.434
308.3
308.164
308.031
307.911
307.823
302.624
302.653
302.693
302.738
302.783
302.828
302.87
302.905
302.93
302.943
302.943
302.93
302.905
302.87
302.828
302.783
302.738
302.693
302.653
302.624
338.659
339.134
339.74
340.401
341.08
341.747
342.361
342.88
343.257
343.457
343.457
343.257
342.88
342.361
341.747
341.08
340.401
339.74
339.134
338.659
333.621
334.023
334.546
335.117
335.705
336.282
336.813
337.261
337.587
337.759
337.759
337.587
337.261
336.813
336.282
335.705
335.117
334.546
334.023
333.621
328.534
328.867
329.308
329.791
330.288
330.775
331.224
331.602
331.877
332.022
332.022
331.877
331.602
331.224
330.775
330.288
329.791
329.308
328.867
328.534
323.406
323.674
324.033
324.428
324.834
325.232
325.599
325.907
326.132
326.251
326.251
326.132
325.907
325.599
325.232
324.834
324.428
324.033
323.674
323.406
318.244
318.45
318.729
319.035
319.351
319.66
319.945
320.185
320.359
320.451
320.451
320.359
320.185
319.945
319.66
319.351
319.035
318.729
318.45
318.244
313.056
313.202
313.401
313.62
313.845
314.066
314.269
314.441
314.565
314.631
314.631
314.565
314.441
314.269
314.066
313.845
313.62
313.401
313.202
313.056
307.85
307.937
308.056
308.188
308.323
308.456
308.578
308.68
308.755
308.794
308.794
308.755
308.68
308.578
308.456
308.323
308.188
308.056
307.937
307.85
302.633
302.662
302.702
302.746
302.791
302.836
302.876
302.911
302.936
302.949
302.949
302.936
302.911
302.876
302.836
302.791
302.746
302.702
302.662
302.633
338.926
339.394
339.99
340.638
341.304
341.956
342.556
343.062
343.43
343.624
343.624
343.43
343.062
342.556
341.956
341.304
340.638
339.99
339.394
338.926
333.853
334.249
334.763
335.324
335.9
336.464
336.983
337.42
337.738
337.906
337.906
337.738
337.42
336.983
336.464
335.9
335.324
334.763
334.249
333.853
328.731
329.059
329.492
329.966
330.453
330.93
331.368
331.737
332.005
332.147
332.147
332.005
331.737
331.368
330.93
330.453
329.966
329.492
329.059
328.731
323.567
323.831
324.185
324.572
324.97
325.359
325.718
326.019
326.238
326.353
326.353
326.238
326.019
325.718
325.359
324.97
324.572
324.185
323.831
323.567
318.37
318.573
318.847
319.148
319.457
319.76
320.038
320.272
320.442
320.532
320.532
320.442
320.272
320.038
319.76
319.457
319.148
318.847
318.573
318.37
313.146
313.29
313.485
313.7
313.921
314.137
314.336
314.503
314.624
314.688
314.688
314.624
314.503
314.336
314.137
313.921
313.7
313.485
313.29
313.146
307.904
307.99
308.107
308.236
308.369
308.498
308.618
308.718
308.791
308.829
308.829
308.791
308.718
308.618
308.498
308.369
308.236
308.107
307.99
307.904
302.651
302.679
302.719
302.762
302.806
302.85
302.89
302.923
302.948
302.961
302.961
302.948
302.923
302.89
302.85
302.806
302.762
302.719
302.679
302.651
339.328
339.785
340.366
340.997
341.643
342.274
342.854
343.342
343.696
343.882
343.882
343.696
343.342
342.854
342.274
341.643
340.997
340.366
339.785
339.328
334.203
334.589
335.09
335.636
336.195
336.741
337.243
337.664
337.97
338.132
338.132
337.97
337.664
337.243
336.741
336.195
335.636
335.09
334.589
334.203
329.027
329.348
329.77
330.231
330.704
331.165
331.589
331.945
332.203
332.339
332.339
332.203
331.945
331.589
331.165
330.704
330.231
329.77
329.348
329.027
323.81
324.068
324.413
324.789
325.176
325.553
325.899
326.19
326.401
326.512
326.512
326.401
326.19
325.899
325.553
325.176
324.789
324.413
324.068
323.81
318.559
318.757
319.024
319.317
319.618
319.911
320.18
320.405
320.569
320.655
320.655
320.569
320.405
320.18
319.911
319.618
319.317
319.024
318.757
318.559
313.282
313.422
313.612
313.821
314.036
314.245
314.437
314.599
314.715
314.777
314.777
314.715
314.599
314.437
314.245
314.036
313.821
313.612
313.422
313.282
307.986
308.069
308.183
308.309
308.438
308.564
308.679
308.775
308.846
308.883
308.883
308.846
308.775
308.679
308.564
308.438
308.309
308.183
308.069
307.986
302.678
302.706
302.744
302.786
302.83
302.872
302.91
302.943
302.966
302.979
302.979
302.966
302.943
302.91
302.872
302.83
302.786
302.744
302.706
302.678
339.867
340.31
340.872
341.48
342.101
342.706
343.26
343.725
344.062
344.239
344.239
344.062
343.725
343.26
342.706
342.101
341.48
340.872
340.31
339.867
334.671
335.045
335.53
336.056
336.594
337.117
337.597
337.999
338.29
338.443
338.443
338.29
337.999
337.597
337.117
336.594
336.056
335.53
335.045
334.671
329.424
329.735
330.143
330.588
331.043
331.485
331.89
332.229
332.475
332.604
332.604
332.475
332.229
331.89
331.485
331.043
330.588
330.143
329.735
329.424
324.136
324.386
324.719
325.082
325.454
325.815
326.146
326.424
326.624
326.73
326.73
326.624
326.424
326.146
325.815
325.454
325.082
324.719
324.386
324.136
318.813
319.005
319.263
319.545
319.834
320.116
320.373
320.588
320.744
320.826
320.826
320.744
320.588
320.373
320.116
319.834
319.545
319.263
319.005
318.813
313.463
313.599
313.783
313.985
314.191
314.392
314.576
314.729
314.841
314.899
314.899
314.841
314.729
314.576
314.392
314.191
313.985
313.783
313.599
313.463
308.095
308.176
308.286
308.407
308.531
308.652
308.762
308.854
308.921
308.956
308.956
308.921
308.854
308.762
308.652
308.531
308.407
308.286
308.176
308.095
302.715
302.742
302.779
302.819
302.861
302.901
302.938
302.969
302.992
303.003
303.003
302.992
302.969
302.938
302.901
302.861
302.819
302.779
302.742
302.715
340.544
340.97
341.509
342.091
342.683
343.257
343.781
344.22
344.537
344.704
344.704
344.537
344.22
343.781
343.257
342.683
342.091
341.509
340.97
340.544
335.259
335.619
336.085
336.588
337.1
337.597
338.051
338.43
338.704
338.849
338.849
338.704
338.43
338.051
337.597
337.1
336.588
336.085
335.619
335.259
329.923
330.222
330.614
331.039
331.473
331.893
332.276
332.597
332.828
332.95
332.95
332.828
332.597
332.276
331.893
331.473
331.039
330.614
330.222
329.923
324.544
324.785
325.105
325.453
325.807
326.15
326.464
326.725
326.914
327.014
327.014
326.914
326.725
326.464
326.15
325.807
325.453
325.105
324.785
324.544
319.131
319.316
319.564
319.834
320.11
320.377
320.62
320.824
320.97
321.048
321.048
320.97
320.824
320.62
320.377
320.11
319.834
319.564
319.316
319.131
313.691
313.822
313.999
314.192
314.388
314.579
314.753
314.898
315.003
315.058
315.058
315.003
314.898
314.753
314.579
314.388
314.192
313.999
313.822
313.691
308.232
308.31
308.416
308.532
308.65
308.764
308.869
308.956
309.019
309.052
309.052
309.019
308.956
308.869
308.764
308.65
308.532
308.416
308.31
308.232
302.761
302.787
302.822
302.861
302.901
302.939
302.974
303.003
303.024
303.035
303.035
303.024
303.003
302.974
302.939
302.901
302.861
302.822
302.787
302.761
341.361
341.768
342.282
342.834
343.393
343.934
344.426
344.835
345.131
345.286
345.286
345.131
344.835
344.426
343.934
343.393
342.834
342.282
341.768
341.361
335.969
336.313
336.757
337.234
337.719
338.187
338.612
338.967
339.222
339.356
339.356
339.222
338.967
338.612
338.187
337.719
337.234
336.757
336.313
335.969
330.525
330.811
331.185
331.588
331.998
332.393
332.753
333.053
333.268
333.382
333.382
333.268
333.053
332.753
332.393
331.998
331.588
331.185
330.811
330.525
325.038
325.268
325.573
325.903
326.238
326.561
326.855
327.1
327.276
327.369
327.369
327.276
327.1
326.855
326.561
326.238
325.903
325.573
325.268
325.038
319.516
319.693
319.929
320.185
320.446
320.697
320.926
321.116
321.253
321.325
321.325
321.253
321.116
320.926
320.697
320.446
320.185
319.929
319.693
319.516
313.966
314.091
314.26
314.443
314.629
314.809
314.972
315.108
315.205
315.257
315.257
315.205
315.108
314.972
314.809
314.629
314.443
314.26
314.091
313.966
308.397
308.472
308.573
308.683
308.794
308.902
309
309.082
309.14
309.171
309.171
309.14
309.082
309
308.902
308.794
308.683
308.573
308.472
308.397
302.816
302.841
302.875
302.912
302.949
302.985
303.018
303.045
303.065
303.075
303.075
303.065
303.045
303.018
302.985
302.949
302.912
302.875
302.841
302.816
342.32
342.707
343.193
343.713
344.238
344.743
345.2
345.58
345.853
345.996
345.996
345.853
345.58
345.2
344.743
344.238
343.713
343.193
342.707
342.32
336.802
337.13
337.549
337.999
338.454
338.891
339.287
339.615
339.851
339.975
339.975
339.851
339.615
339.287
338.891
338.454
337.999
337.549
337.13
336.802
331.232
331.504
331.857
332.238
332.622
332.992
333.326
333.604
333.803
333.908
333.908
333.803
333.604
333.326
332.992
332.622
332.238
331.857
331.504
331.232
325.618
325.836
326.125
326.436
326.75
327.052
327.326
327.553
327.716
327.801
327.801
327.716
327.553
327.326
327.052
326.75
326.436
326.125
325.836
325.618
319.967
320.135
320.359
320.601
320.845
321.08
321.293
321.469
321.596
321.662
321.662
321.596
321.469
321.293
321.08
320.845
320.601
320.359
320.135
319.967
314.289
314.408
314.567
314.74
314.915
315.083
315.235
315.36
315.451
315.498
315.498
315.451
315.36
315.235
315.083
314.915
314.74
314.567
314.408
314.289
308.591
308.662
308.758
308.861
308.966
309.067
309.158
309.234
309.288
309.317
309.317
309.288
309.234
309.158
309.067
308.966
308.861
308.758
308.662
308.591
302.881
302.905
302.937
302.972
303.007
303.041
303.071
303.097
303.115
303.124
303.124
303.115
303.097
303.071
303.041
303.007
302.972
302.937
302.905
302.881
343.424
343.789
344.247
344.734
345.223
345.691
346.113
346.462
346.712
346.843
346.843
346.712
346.462
346.113
345.691
345.223
344.734
344.247
343.789
343.424
337.761
338.071
338.465
338.887
339.311
339.716
340.081
340.383
340.6
340.713
340.713
340.6
340.383
340.081
339.716
339.311
338.887
338.465
338.071
337.761
332.045
332.302
332.635
332.991
333.349
333.692
334.001
334.256
334.439
334.535
334.535
334.439
334.256
334.001
333.692
333.349
332.991
332.635
332.302
332.045
326.284
326.491
326.762
327.054
327.347
327.627
327.88
328.088
328.238
328.316
328.316
328.238
328.088
327.88
327.627
327.347
327.054
326.762
326.491
326.284
320.487
320.646
320.856
321.082
321.31
321.528
321.725
321.887
322.003
322.064
322.064
322.003
321.887
321.725
321.528
321.31
321.082
320.856
320.646
320.487
314.661
314.773
314.923
315.085
315.248
315.404
315.544
315.66
315.743
315.786
315.786
315.743
315.66
315.544
315.404
315.248
315.085
314.923
314.773
314.661
308.815
308.882
308.972
309.069
309.167
309.26
309.344
309.414
309.464
309.49
309.49
309.464
309.414
309.344
309.26
309.167
309.069
308.972
308.882
308.815
302.956
302.979
303.009
303.041
303.074
303.105
303.134
303.157
303.174
303.182
303.182
303.174
303.157
303.134
303.105
303.074
303.041
303.009
302.979
302.956
344.674
345.018
345.446
345.899
346.352
346.783
347.17
347.489
347.717
347.836
347.836
347.717
347.489
347.17
346.783
346.352
345.899
345.446
345.018
344.674
338.848
339.139
339.508
339.901
340.293
340.666
341.002
341.278
341.475
341.578
341.578
341.475
341.278
341.002
340.666
340.293
339.901
339.508
339.139
338.848
332.967
333.208
333.519
333.851
334.183
334.499
334.783
335.016
335.183
335.269
335.269
335.183
335.016
334.783
334.499
334.183
333.851
333.519
333.208
332.967
327.04
327.234
327.488
327.759
328.031
328.289
328.521
328.712
328.848
328.919
328.919
328.848
328.712
328.521
328.289
328.031
327.759
327.488
327.234
327.04
321.076
321.225
321.422
321.633
321.844
322.045
322.225
322.373
322.479
322.534
322.534
322.479
322.373
322.225
322.045
321.844
321.633
321.422
321.225
321.076
315.082
315.188
315.328
315.479
315.629
315.773
315.902
316.008
316.084
316.123
316.123
316.084
316.008
315.902
315.773
315.629
315.479
315.328
315.188
315.082
309.068
309.131
309.215
309.305
309.396
309.482
309.56
309.623
309.669
309.692
309.692
309.669
309.623
309.56
309.482
309.396
309.305
309.215
309.131
309.068
303.041
303.062
303.09
303.121
303.151
303.18
303.206
303.227
303.242
303.25
303.25
303.242
303.227
303.206
303.18
303.151
303.121
303.09
303.062
303.041
346.074
346.395
346.793
347.213
347.631
348.026
348.379
348.668
348.874
348.982
348.982
348.874
348.668
348.379
348.026
347.631
347.213
346.793
346.395
346.074
340.064
340.336
340.68
341.043
341.405
341.747
342.053
342.304
342.482
342.575
342.575
342.482
342.304
342.053
341.747
341.405
341.043
340.68
340.336
340.064
333.998
334.224
334.514
334.821
335.127
335.417
335.675
335.887
336.038
336.117
336.117
336.038
335.887
335.675
335.417
335.127
334.821
334.514
334.224
333.998
327.886
328.067
328.303
328.555
328.805
329.042
329.254
329.427
329.55
329.615
329.615
329.55
329.427
329.254
329.042
328.805
328.555
328.303
328.067
327.886
321.734
321.874
322.057
322.253
322.447
322.632
322.796
322.931
323.027
323.077
323.077
323.027
322.931
322.796
322.632
322.447
322.253
322.057
321.874
321.734
315.553
315.652
315.783
315.922
316.061
316.193
316.311
316.407
316.476
316.511
316.511
316.476
316.407
316.311
316.193
316.061
315.922
315.783
315.652
315.553
309.351
309.41
309.488
309.572
309.656
309.735
309.805
309.863
309.904
309.926
309.926
309.904
309.863
309.805
309.735
309.656
309.572
309.488
309.41
309.351
303.136
303.156
303.182
303.21
303.238
303.265
303.288
303.308
303.321
303.329
303.329
303.321
303.308
303.288
303.265
303.238
303.21
303.182
303.156
303.136
347.624
347.923
348.292
348.679
349.062
349.423
349.743
350.005
350.19
350.287
350.287
350.19
350.005
349.743
349.423
349.062
348.679
348.292
347.923
347.624
341.411
341.664
341.983
342.318
342.65
342.962
343.24
343.466
343.627
343.711
343.711
343.627
343.466
343.24
342.962
342.65
342.318
341.983
341.664
341.411
335.141
335.351
335.619
335.903
336.184
336.448
336.683
336.874
337.011
337.081
337.081
337.011
336.874
336.683
336.448
336.184
335.903
335.619
335.351
335.141
328.822
328.991
329.21
329.442
329.672
329.888
330.08
330.237
330.348
330.406
330.406
330.348
330.237
330.08
329.888
329.672
329.442
329.21
328.991
328.822
322.464
322.594
322.764
322.944
323.123
323.291
323.44
323.562
323.649
323.694
323.694
323.649
323.562
323.44
323.291
323.123
322.944
322.764
322.594
322.464
316.075
316.167
316.288
316.417
316.545
316.665
316.772
316.859
316.921
316.953
316.953
316.921
316.859
316.772
316.665
316.545
316.417
316.288
316.167
316.075
309.665
309.72
309.792
309.87
309.946
310.019
310.083
310.135
310.172
310.192
310.192
310.172
310.135
310.083
310.019
309.946
309.87
309.792
309.72
309.665
303.241
303.26
303.284
303.31
303.336
303.36
303.381
303.399
303.411
303.418
303.418
303.411
303.399
303.381
303.36
303.336
303.31
303.284
303.26
303.241
349.326
349.603
349.944
350.3
350.65
350.977
351.267
351.502
351.669
351.756
351.756
351.669
351.502
351.267
350.977
350.65
350.3
349.944
349.603
349.326
342.89
343.125
343.419
343.727
344.03
344.314
344.565
344.769
344.914
344.989
344.989
344.914
344.769
344.565
344.314
344.03
343.727
343.419
343.125
342.89
336.395
336.59
336.838
337.098
337.355
337.595
337.808
337.98
338.103
338.166
338.166
338.103
337.98
337.808
337.595
337.355
337.098
336.838
336.59
336.395
329.85
330.007
330.21
330.423
330.632
330.829
331.003
331.144
331.244
331.296
331.296
331.244
331.144
331.003
330.829
330.632
330.423
330.21
330.007
329.85
323.265
323.386
323.543
323.708
323.871
324.024
324.16
324.27
324.347
324.388
324.388
324.347
324.27
324.16
324.024
323.871
323.708
323.543
323.386
323.265
316.649
316.734
316.846
316.964
317.081
317.19
317.287
317.365
317.421
317.45
317.45
317.421
317.365
317.287
317.19
317.081
316.964
316.846
316.734
316.649
310.009
310.06
310.127
310.198
310.268
310.334
310.392
310.439
310.473
310.49
310.49
310.473
310.439
310.392
310.334
310.268
310.198
310.127
310.06
310.009
303.357
303.374
303.396
303.42
303.444
303.466
303.485
303.501
303.512
303.518
303.518
303.512
303.501
303.485
303.466
303.444
303.42
303.396
303.374
303.357
351.18
351.436
351.75
352.076
352.394
352.691
352.952
353.164
353.313
353.39
353.39
353.313
353.164
352.952
352.691
352.394
352.076
351.75
351.436
351.18
344.501
344.718
344.989
345.271
345.547
345.804
346.03
346.214
346.343
346.41
346.41
346.343
346.214
346.03
345.804
345.547
345.271
344.989
344.718
344.501
337.761
337.941
338.169
338.408
338.641
338.859
339.051
339.206
339.315
339.372
339.372
339.315
339.206
339.051
338.859
338.641
338.408
338.169
337.941
337.761
330.97
331.115
331.301
331.496
331.687
331.866
332.023
332.149
332.239
332.285
332.285
332.239
332.149
332.023
331.866
331.687
331.496
331.301
331.115
330.97
324.137
324.249
324.393
324.545
324.694
324.832
324.954
325.053
325.123
325.159
325.159
325.123
325.053
324.954
324.832
324.694
324.545
324.393
324.249
324.137
317.273
317.351
317.454
317.563
317.669
317.768
317.855
317.926
317.976
318.001
318.001
317.976
317.926
317.855
317.768
317.669
317.563
317.454
317.351
317.273
310.384
310.431
310.493
310.558
310.622
310.682
310.734
310.776
310.806
310.822
310.822
310.806
310.776
310.734
310.682
310.622
310.558
310.493
310.431
310.384
303.483
303.498
303.519
303.541
303.562
303.582
303.6
303.614
303.624
303.629
303.629
303.624
303.614
303.6
303.582
303.562
303.541
303.519
303.498
303.483
353.183
353.42
353.708
354.005
354.294
354.562
354.797
354.987
355.12
355.189
355.189
355.12
354.987
354.797
354.562
354.294
354.005
353.708
353.42
353.183
346.24
346.441
346.69
346.947
347.198
347.43
347.634
347.798
347.914
347.974
347.974
347.914
347.798
347.634
347.43
347.198
346.947
346.69
346.441
346.24
339.236
339.402
339.612
339.83
340.042
340.239
340.411
340.55
340.648
340.698
340.698
340.648
340.55
340.411
340.239
340.042
339.83
339.612
339.402
339.236
332.179
332.312
332.483
332.662
332.835
332.996
333.138
333.251
333.331
333.373
333.373
333.331
333.251
333.138
332.996
332.835
332.662
332.483
332.312
332.179
325.079
325.181
325.314
325.453
325.588
325.713
325.823
325.912
325.974
326.006
326.006
325.974
325.912
325.823
325.713
325.588
325.453
325.314
325.181
325.079
317.946
318.018
318.113
318.212
318.309
318.398
318.477
318.54
318.585
318.608
318.608
318.585
318.54
318.477
318.398
318.309
318.212
318.113
318.018
317.946
310.789
310.832
310.889
310.949
311.007
311.061
311.108
311.146
311.172
311.186
311.186
311.172
311.146
311.108
311.061
311.007
310.949
310.889
310.832
310.789
303.618
303.633
303.652
303.672
303.691
303.709
303.725
303.738
303.747
303.751
303.751
303.747
303.738
303.725
303.709
303.691
303.672
303.652
303.633
303.618
355.326
355.544
355.808
356.079
356.342
356.584
356.795
356.964
357.083
357.145
357.145
357.083
356.964
356.795
356.584
356.342
356.079
355.808
355.544
355.326
348.101
348.285
348.513
348.748
348.975
349.185
349.368
349.515
349.618
349.672
349.672
349.618
349.515
349.368
349.185
348.975
348.748
348.513
348.285
348.101
340.812
340.965
341.157
341.355
341.548
341.726
341.881
342.005
342.092
342.138
342.138
342.092
342.005
341.881
341.726
341.548
341.355
341.157
340.965
340.812
333.469
333.592
333.749
333.912
334.069
334.215
334.342
334.443
334.515
334.552
334.552
334.515
334.443
334.342
334.215
334.069
333.912
333.749
333.592
333.469
326.084
326.178
326.3
326.426
326.549
326.662
326.761
326.84
326.896
326.924
326.924
326.896
326.84
326.761
326.662
326.549
326.426
326.3
326.178
326.084
318.664
318.731
318.818
318.908
318.996
319.077
319.147
319.204
319.244
319.264
319.264
319.244
319.204
319.147
319.077
318.996
318.908
318.818
318.731
318.664
311.221
311.261
311.313
311.367
311.419
311.468
311.51
311.545
311.568
311.581
311.581
311.568
311.545
311.51
311.468
311.419
311.367
311.313
311.261
311.221
303.763
303.776
303.794
303.812
303.83
303.846
303.86
303.871
303.879
303.884
303.884
303.879
303.871
303.86
303.846
303.83
303.812
303.794
303.776
303.763
357.586
357.787
358.029
358.276
358.513
358.731
358.921
359.073
359.179
359.234
359.234
359.179
359.073
358.921
358.731
358.513
358.276
358.029
357.787
357.586
350.058
350.228
350.437
350.651
350.857
351.046
351.211
351.342
351.434
351.482
351.482
351.434
351.342
351.211
351.046
350.857
350.651
350.437
350.228
350.058
342.467
342.608
342.784
342.965
343.139
343.3
343.439
343.551
343.629
343.669
343.669
343.629
343.551
343.439
343.3
343.139
342.965
342.784
342.608
342.467
334.823
334.936
335.08
335.228
335.371
335.502
335.616
335.708
335.772
335.804
335.804
335.772
335.708
335.616
335.502
335.371
335.228
335.08
334.936
334.823
327.136
327.223
327.334
327.45
327.561
327.663
327.752
327.823
327.873
327.898
327.898
327.873
327.823
327.752
327.663
327.561
327.45
327.334
327.223
327.136
319.416
319.477
319.557
319.639
319.719
319.792
319.855
319.906
319.942
319.96
319.96
319.942
319.906
319.855
319.792
319.719
319.639
319.557
319.477
319.416
311.672
311.709
311.756
311.806
311.854
311.898
311.936
311.966
311.988
311.999
311.999
311.988
311.966
311.936
311.898
311.854
311.806
311.756
311.709
311.672
303.914
303.926
303.942
303.959
303.975
303.99
304.003
304.013
304.02
304.024
304.024
304.02
304.013
304.003
303.99
303.975
303.959
303.942
303.926
303.914
359.903
360.087
360.308
360.534
360.75
360.947
361.118
361.254
361.349
361.398
361.398
361.349
361.254
361.118
360.947
360.75
360.534
360.308
360.087
359.903
352.056
352.211
352.403
352.598
352.785
352.957
353.105
353.223
353.306
353.348
353.348
353.306
353.223
353.105
352.957
352.785
352.598
352.403
352.211
352.056
344.149
344.278
344.44
344.605
344.764
344.909
345.035
345.135
345.205
345.241
345.241
345.205
345.135
345.035
344.909
344.764
344.605
344.44
344.278
344.149
336.194
336.298
336.429
336.565
336.695
336.814
336.917
336.999
337.056
337.085
337.085
337.056
336.999
336.917
336.814
336.695
336.565
336.429
336.298
336.194
328.198
328.278
328.381
328.486
328.587
328.68
328.76
328.824
328.868
328.891
328.891
328.868
328.824
328.76
328.68
328.587
328.486
328.381
328.278
328.198
320.173
320.23
320.302
320.378
320.45
320.516
320.574
320.619
320.651
320.668
320.668
320.651
320.619
320.574
320.516
320.45
320.378
320.302
320.23
320.173
312.126
312.16
312.204
312.249
312.292
312.332
312.366
312.394
312.413
312.423
312.423
312.413
312.394
312.366
312.332
312.292
312.249
312.204
312.16
312.126
304.066
304.078
304.092
304.107
304.122
304.135
304.147
304.156
304.162
304.166
304.166
304.162
304.156
304.147
304.135
304.122
304.107
304.092
304.078
304.066
362.123
362.294
362.498
362.705
362.903
363.082
363.237
363.361
363.446
363.491
363.491
363.446
363.361
363.237
363.082
362.903
362.705
362.498
362.294
362.123
353.947
354.091
354.268
354.448
354.619
354.776
354.91
355.018
355.092
355.131
355.131
355.092
355.018
354.91
354.776
354.619
354.448
354.268
354.091
353.947
345.725
345.845
345.994
346.146
346.292
346.424
346.539
346.63
346.693
346.726
346.726
346.693
346.63
346.539
346.424
346.292
346.146
345.994
345.845
345.725
337.466
337.562
337.684
337.809
337.928
338.037
338.131
338.206
338.257
338.284
338.284
338.257
338.206
338.131
338.037
337.928
337.809
337.684
337.562
337.466
329.177
329.251
329.346
329.443
329.536
329.621
329.694
329.752
329.793
329.814
329.814
329.793
329.752
329.694
329.621
329.536
329.443
329.346
329.251
329.177
320.867
320.919
320.987
321.056
321.123
321.183
321.236
321.277
321.306
321.321
321.321
321.306
321.277
321.236
321.183
321.123
321.056
320.987
320.919
320.867
312.54
312.572
312.612
312.654
312.694
312.731
312.762
312.787
312.804
312.813
312.813
312.804
312.787
312.762
312.731
312.694
312.654
312.612
312.572
312.54
304.205
304.215
304.229
304.243
304.256
304.268
304.279
304.287
304.293
304.296
304.296
304.293
304.287
304.279
304.268
304.256
304.243
304.229
304.215
304.205
363.856
364.016
364.208
364.403
364.587
364.755
364.899
365.014
365.093
365.134
365.134
365.093
365.014
364.899
364.755
364.587
364.403
364.208
364.016
363.856
355.367
355.503
355.67
355.839
356
356.146
356.272
356.372
356.441
356.477
356.477
356.441
356.372
356.272
356.146
356
355.839
355.67
355.503
355.367
346.872
346.985
347.126
347.27
347.407
347.531
347.638
347.723
347.782
347.813
347.813
347.782
347.723
347.638
347.531
347.407
347.27
347.126
346.985
346.872
338.369
338.461
338.576
338.694
338.807
338.909
338.997
339.067
339.115
339.14
339.14
339.115
339.067
338.997
338.909
338.807
338.694
338.576
338.461
338.369
329.86
329.93
330.02
330.112
330.2
330.279
330.348
330.403
330.441
330.46
330.46
330.441
330.403
330.348
330.279
330.2
330.112
330.02
329.93
329.86
321.344
321.393
321.458
321.523
321.586
321.644
321.693
321.732
321.759
321.773
321.773
321.759
321.732
321.693
321.644
321.586
321.523
321.458
321.393
321.344
312.823
312.852
312.891
312.931
312.968
313.003
313.033
313.056
313.072
313.081
313.081
313.072
313.056
313.033
313.003
312.968
312.931
312.891
312.852
312.823
304.299
304.309
304.322
304.335
304.348
304.359
304.369
304.377
304.382
304.385
304.385
304.382
304.377
304.369
304.359
304.348
304.335
304.322
304.309
304.299
)
;

boundaryField
{
    hotSide
    {
        type            fixedGradient;
        gradient        nonuniform List<scalar> 
400
(
397.123
398.512
401.293
405.477
411.079
418.116
426.609
436.579
448.05
461.045
475.585
491.693
509.387
528.684
549.6
572.148
596.338
622.179
649.679
678.842
403.427
404.765
407.448
411.49
416.909
423.729
431.977
441.682
452.872
465.579
479.828
495.647
513.058
532.082
552.736
575.036
598.992
624.615
651.911
680.886
410.248
411.527
414.093
417.965
423.169
429.733
437.695
447.091
457.959
470.335
484.254
499.747
516.843
535.565
555.932
577.962
601.667
627.056
654.137
682.914
417.474
418.684
421.115
424.791
429.744
436.016
443.652
452.698
463.203
475.211
488.765
503.902
520.655
539.052
559.114
580.858
604.299
629.446
656.305
684.88
424.904
426.035
428.314
431.77
436.446
442.394
449.67
458.334
468.445
480.058
493.223
507.984
524.379
542.438
562.185
583.639
606.813
631.716
658.353
686.728
432.227
433.275
435.391
438.613
442.994
448.6
455.5
463.767
473.471
484.679
497.449
511.832
527.868
545.593
565.031
586.202
609.118
633.788
660.215
688.4
439.025
439.989
441.943
444.932
449.022
454.29
460.822
468.703
478.015
488.836
501.231
515.256
530.958
548.373
567.527
588.439
611.121
635.58
661.818
689.835
444.794
445.683
447.49
450.27
454.1
459.068
465.274
472.815
481.784
492.268
504.339
518.058
533.475
550.628
569.542
590.238
612.725
637.01
663.094
690.972
449.016
449.847
451.543
454.163
457.794
462.535
468.494
475.78
484.493
494.726
506.557
520.051
535.259
552.22
570.962
591.501
613.849
638.009
663.982
691.763
451.253
452.053
453.688
456.221
459.744
464.362
470.188
477.336
485.912
496.01
507.714
521.088
536.185
553.046
571.695
592.153
614.427
638.523
664.438
692.168
451.253
452.053
453.688
456.221
459.744
464.362
470.188
477.336
485.912
496.01
507.714
521.088
536.185
553.046
571.695
592.153
614.427
638.523
664.438
692.168
449.016
449.847
451.543
454.163
457.794
462.535
468.494
475.78
484.493
494.726
506.557
520.051
535.259
552.22
570.962
591.501
613.849
638.009
663.982
691.763
444.794
445.683
447.49
450.27
454.1
459.068
465.274
472.815
481.784
492.268
504.339
518.058
533.475
550.628
569.542
590.238
612.725
637.01
663.094
690.972
439.025
439.989
441.943
444.932
449.022
454.29
460.822
468.703
478.015
488.836
501.231
515.256
530.958
548.373
567.527
588.439
611.121
635.58
661.818
689.835
432.227
433.275
435.391
438.613
442.994
448.6
455.5
463.767
473.471
484.679
497.449
511.832
527.868
545.593
565.031
586.202
609.118
633.788
660.215
688.4
424.904
426.035
428.314
431.77
436.446
442.394
449.67
458.334
468.445
480.058
493.223
507.984
524.379
542.438
562.185
583.639
606.813
631.716
658.353
686.728
417.474
418.684
421.115
424.791
429.744
436.016
443.652
452.698
463.203
475.211
488.765
503.902
520.655
539.052
559.114
580.858
604.299
629.446
656.305
684.88
410.248
411.527
414.093
417.965
423.169
429.733
437.695
447.091
457.959
470.335
484.254
499.747
516.843
535.565
555.932
577.962
601.667
627.056
654.137
682.914
403.427
404.765
407.448
411.49
416.909
423.729
431.977
441.682
452.872
465.579
479.828
495.647
513.058
532.082
552.736
575.036
598.992
624.615
651.911
680.886
397.123
398.512
401.293
405.477
411.079
418.116
426.609
436.579
448.05
461.045
475.585
491.693
509.387
528.684
549.6
572.148
596.338
622.179
649.679
678.842
)
;
    }
    coldSide
    {
        type            mixed;
        refValue        uniform 300;
        refGradient     uniform 0;
        valueFraction   uniform 0.991591;
        source          uniform 0;
        value           nonuniform List<scalar> 
400
(
300.022
300.022
300.022
300.023
300.023
300.023
300.024
300.024
300.025
300.026
300.026
300.027
300.028
300.029
300.03
300.032
300.033
300.034
300.035
300.036
300.022
300.022
300.023
300.023
300.023
300.023
300.024
300.024
300.025
300.026
300.027
300.027
300.028
300.029