/*--------------------------------*- C++ -*----------------------------------*\
| =========                 |                                                 |
| \\      /  F ield         | OpenFOAM: The Open Source CFD Toolbox           |
|  \\    /   O peration     | Version:  2212                                  |
|   \\  /    A nd           | Website:  www.openfoam.com                      |
|    \\/     M anipulation  |                                                 |
\*---------------------------------------------------------------------------*/
FoamFile
{
    version     2.0;
    format      ascii;
    arch        "LSB;label=32;scalar=64";
    class       volScalarField;
    location    "./ITHACAoutput/true/12.7";
    object      error;
}
// * * * * * * * * * * * * * * * * * * * * * * * * * * * * * * * * * * * * * //

dimensions      [0 0 0 1 0 0 0];

internalField   nonuniform List<scalar> 
3200
(
4.73578
4.91208
5.14467
5.49556
5.81493
6.14261
6.49443
6.83691
6.93733
7.0191
6.95508
6.81522
6.53006
6.08315
5.69717
5.26479
4.84637
4.47378
4.03716
3.86843
3.98471
4.16343
4.39849
4.64029
4.81444
5.2102
5.56793
5.70586
5.94229
5.90439
5.94972
5.81819
5.53417
5.2068
4.81552
4.38584
4.08015
3.74176
3.44531
3.19582
3.32245
3.41939
3.5755
3.81011
4.09917
4.32355
4.60625
4.73575
4.89817
5.01443
4.96073
4.77417
4.62542
4.29416
3.89857
3.66322
3.48148
3.08825
2.85026
2.58684
2.59392
2.75519
2.81153
3.07033
3.27413
3.52038
3.73342
3.85069
4.00664
4.02368
3.99234
3.92264
3.70988
3.5238
3.22688
2.92709
2.65144
2.47377
2.24395
2.13402
1.99894
2.00596
2.152
2.32187
2.56027
2.70252
2.78853
2.92487
3.03219
3.06691
3.05763
3.0236
2.85227
2.69546
2.52362
2.26371
2.12302
1.93129
1.66521
1.6417
1.41246
1.49339
1.54177
1.65926
1.79762
1.9008
1.95222
2.1025
2.22197
2.16785
2.12016
2.08593
1.98168
1.88431
1.78095
1.66412
1.46554
1.31921
1.25333
1.22666
0.857313
0.85209
1.00418
0.950563
1.09607
1.14357
1.12979
1.28762
1.25739
1.31067
1.26982
1.216
1.206
1.11136
1.07736
0.927091
0.884953
0.800799
0.789086
0.688955
0.272146
0.303873
0.33891
0.32271
0.324044
0.374394
0.357639
0.438655
0.461634
0.435438
0.446301
0.445775
0.382909
0.380316
0.280635
0.365729
0.303795
0.259963
0.218252
0.23426
4.22879
4.35759
4.6376
4.91914
5.20702
5.70545
5.92319
6.17802
6.38144
6.41899
6.36873
6.23554
5.86304
5.57515
5.13817
4.77667
4.23259
3.87898
3.50871
3.33956
3.53105
3.64818
3.96743
4.1001
4.45263
4.82321
4.98639
5.31187
5.36075
5.55424
5.41486
5.30357
5.12186
4.6564
4.31541
4.03635
3.59277
3.33966
3.03143
2.86192
2.95419
3.145
3.30429
3.48685
3.7203
3.90578
4.1798
4.40229
4.44039
4.66646
4.54283
4.43334
4.2285
3.95059
3.58528
3.36551
2.97477
2.7646
2.59219
2.38126
2.34105
2.46348
2.5894
2.78839
3.04939
3.2049
3.40127
3.52036
3.67138
3.71525
3.6895
3.56507
3.36778
3.24016
2.95487
2.64797
2.43429
2.13515
1.97042
1.90109
1.85889
1.82874
2.06407
2.11782
2.35317
2.40402
2.63299
2.76198
2.80915
2.89824
2.80486
2.76864
2.63504
2.47613
2.27747
1.99978
1.86734
1.63048
1.51414
1.49487
1.27301
1.41734
1.40177
1.48259
1.5355
1.77089
1.82303
1.95772
2.00796
2.00839
2.0291
1.9598
1.85298
1.79445
1.50673
1.46186
1.35467
1.2215
1.05285
0.971154
0.784786
0.791451
0.874717
0.842779
1.01427
1.03934
1.06595
1.15824
1.14729
1.18423
1.23701
1.15851
1.07065
1.14061
1.00446
0.873222
0.820924
0.656624
0.671599
0.593114
0.23081
0.283354
0.319862
0.362427
0.314034
0.363091
0.377565
0.415358
0.396803
0.413406
0.369135
0.359961
0.420224
0.40694
0.283654
0.294307
0.26863
0.256431
0.185356
0.221601
3.59483
3.82853
4.03134
4.26988
4.57248
4.85565
5.18673
5.46009
5.54368
5.61179
5.51138
5.41325
5.14207
4.72188
4.36871
3.93391
3.4051
3.1701
2.89506
2.72297
3.07538
3.21365
3.33773
3.59655
3.88349
4.13791
4.43516
4.5644
4.71296
4.78965
4.74212
4.59965
4.34103
4.0465
3.79055
3.30648
2.94849
2.67697
2.44828
2.28111
2.49455
2.65058
2.81467
3.01102
3.20924
3.37905
3.66326
3.85829
3.92247
3.99693
3.94993
3.88804
3.68114
3.4032
3.05685
2.81018
2.50678
2.22995
2.05141
1.93006
2.0787
2.14618
2.30645
2.43006
2.54782
2.75966
2.8872
3.14219
3.24638
3.28738
3.19183
3.16661
2.95266
2.71061
2.47878
2.22252
2.01575
1.79776
1.63949
1.55049
1.57506
1.67994
1.80922
1.85911
2.02268
2.13798
2.28306
2.32048
2.45959
2.43749
2.48901
2.41643
2.2701
2.1731
1.89677
1.76692
1.53338
1.3922
1.23499
1.22651
1.14896
1.19667
1.23586
1.37434
1.40213
1.47736
1.62324
1.7871
1.72936
1.76327
1.84394
1.70082
1.57646
1.4604
1.30971
1.225
1.13073
1.0179
0.845101
0.802579
0.675094
0.674173
0.688142
0.776476
0.836662
0.942277
1.00374
0.99062
1.02799
1.09164
1.07808
1.00031
0.92522
0.894919
0.819072
0.708896
0.666811
0.570781
0.540103
0.569845
0.233721
0.19226
0.267883
0.236748
0.302549
0.314259
0.369886
0.321387
0.341941
0.337627
0.363832
0.313448
0.318313
0.289885
0.275971
0.237352
0.288316
0.190833
0.149862
0.113876
3.03805
3.06259
3.27231
3.53128
3.79666
4.13811
4.28268
4.61249
4.7949
4.83021
4.74612
4.51568
4.22953
3.85987
3.5591
3.12924
2.81495
2.47357
2.21952
2.07761
2.58005
2.70046
2.7684
3.04912
3.17138
3.4577
3.67907
3.81241
4.01365
4.09014
3.98748
3.83352
3.60662
3.39562
2.96522
2.65971
2.38622
2.12856
1.92201
1.69514
2.05242
2.1642
2.32451
2.48015
2.70397
2.88995
3.1332
3.20863
3.31567
3.4031
3.35376
3.22233
3.06882
2.71364
2.47708
2.2203
1.91789
1.69692
1.54311
1.40513
1.70689
1.77476
1.86178
2.0129
2.20861
2.29463
2.4744
2.62572
2.68311
2.77161
2.62261
2.54155
2.46157
2.20618
2.05429
1.75157
1.53097
1.38457
1.1865
1.15692
1.32128
1.4218
1.45585
1.45365
1.62328
1.74293
1.97089
2.02456
2.10078
2.13986
2.05914
1.97145
1.91864
1.68296
1.54895
1.36803
1.22367
1.00731
0.964635
0.872387
0.863121
0.920104
0.966627
1.02277
1.16589
1.29922
1.38911
1.37774
1.45537
1.48842
1.45022
1.44182
1.34389
1.16287
1.09141
0.978872
0.824834
0.689038
0.637725
0.545557
0.467972
0.546637
0.617613
0.681038
0.724325
0.759661
0.826005
0.902712
0.894483
0.883267
0.873516
0.823629
0.802586
0.735904
0.671593
0.624569
0.500988
0.463612
0.412644
0.369979
0.169851
0.179746
0.127518
0.236297
0.186002
0.235749
0.260242
0.244133
0.344835
0.317794
0.327346
0.309752
0.338541
0.195881
0.229954
0.187776
0.168816
0.204138
0.139935
0.157271
2.41398
2.53706
2.58358
2.91277
3.08761
3.38446
3.57788
3.78842
3.9082
3.95886
3.91622
3.78543
3.47166
3.16879
2.74083
2.43711
2.04402
1.75937
1.50826
1.37634
2.03284
2.1428
2.24546
2.44705
2.58964
2.80778
2.99081
3.22326
3.20637
3.36031
3.30873
3.15506
2.94332
2.65734
2.33638
2.02683
1.77183
1.43634
1.24989
1.14508
1.72956
1.69759
1.81247
1.96789
2.10781
2.33105
2.48361
2.56779
2.71787
2.7734
2.70854
2.59882
2.40759
2.22626
1.96689
1.69162
1.35984
1.22021
1.02352
0.940621
1.37481
1.41413
1.50678
1.65894
1.74394
1.8939
2.03865
2.12905
2.19606
2.22486
2.19548
2.10039
1.95071
1.68908
1.54191
1.35235
1.15262
0.977967
0.830191
0.768552
0.972482
1.08258
1.1576
1.13787
1.34381
1.4387
1.5367
1.60904
1.58407
1.74988
1.59869
1.62172
1.53498
1.42552
1.15665
1.02577
0.910499
0.83491
0.645753
0.566577
0.745703
0.79713
0.777155
0.893989
0.898778
0.978373
1.02336
1.14298
1.2124
1.22547
1.24341
1.11474
1.07085
0.917875
0.865444
0.714502
0.559138
0.517107
0.465351
0.360649
0.430366
0.476232
0.435728
0.465556
0.546202
0.552536
0.591526
0.766232
0.7726
0.731864
0.742615
0.734283
0.636447
0.577514
0.508843
0.44042
0.425051
0.32167
0.34887
0.223747
0.274441
0.11682
0.207687
0.126595
0.181455
0.212349
0.226542
0.302262
0.277444
0.215197
0.305082
0.151955
0.233166
0.209445
0.197176
0.144888
0.102503
0.0486472
0.0975177
0.0333323
1.93805
1.95762
2.08832
2.21576
2.44014
2.62407
2.8142
2.98292
3.12701
3.13634
3.03089
2.8387
2.67893
2.38345
1.91062
1.72437
1.33168
1.19678
0.942419
0.825307
1.5859
1.60927
1.73479
1.85204
2.00406
2.16674
2.3944
2.50683
2.63058
2.63346
2.53787
2.48002
2.23458
1.9612
1.72536
1.38081
1.16188
0.933973
0.711932
0.662962
1.29568
1.31453
1.40264
1.52567
1.71746
1.79233
2.00094
2.10917
2.16289
2.20225
2.18246
2.00915
1.83873
1.58912
1.36179
1.14461
1.00599
0.713873
0.58868
0.609135
0.997619
1.02412
1.10322
1.15896
1.33813
1.36636
1.53711
1.67735
1.70313
1.7437
1.74587
1.59957
1.37893
1.28301
1.16634
0.904518
0.727049
0.573926
0.512902
0.409444
0.762825
0.814948
0.835405
0.830094
1.0134
1.10258
1.1898
1.28927
1.37259
1.35489
1.29882
1.21815
1.11346
0.96956
0.784404
0.728117
0.643521
0.44963
0.406505
0.230922
0.618819
0.571091
0.545157
0.62632
0.643942
0.738872
0.842881
0.829405
0.936566
0.870739
0.964006
0.843775
0.806957
0.650007
0.6086
0.449316
0.430766
0.234346
0.204928
0.176827
0.222301
0.340554
0.398252
0.369719
0.380368
0.50766
0.580074
0.563265
0.651515
0.572826
0.578229
0.486723
0.444332
0.40384
0.314306
0.250394
0.251519
0.0907796
0.206768
0.105136
0.0559001
0.220383
0.0469591
0.0787657
0.0878406
0.118068
0.147041
0.226745
0.217304
0.194105
0.242673
0.227493
0.126658
0.162094
0.172508
0.113895
0.0878813
0.0478566
0.0336814
0.0235524
1.47559
1.46786
1.51516
1.62185
1.80612
1.95128
2.07164
2.23808
2.28383
2.34853
2.24716
2.08046
1.91228
1.58794
1.36004
0.998089
0.765006
0.544476
0.393634
0.317885
1.23758
1.15489
1.29009
1.38622
1.51888
1.67754
1.71528
1.85538
1.92623
1.93071
1.89079
1.76187
1.55097
1.28361
1.13666
0.87036
0.598164
0.421602
0.323737
0.203341
0.965329
0.968624
1.02887
1.18212
1.19794
1.32753
1.41183
1.52215
1.5285
1.60349
1.54243
1.41944
1.31682
1.10773
0.857125
0.662416
0.43822
0.299112
0.154169
0.178209
0.819803
0.814839
0.78035
0.898774
0.901099
1.03692
1.16026
1.24341
1.2283
1.30108
1.20836
1.17147
1.06344
0.800812
0.740816
0.533276
0.344239
0.249037
0.141881
0.0936207
0.572163
0.548969
0.597133
0.675353
0.711167
0.799944
0.82405
0.963589
0.914853
1.05827
0.985332
0.850772
0.768681
0.599776
0.53116
0.370864
0.302745
0.167598
0.0966951
0.0429435
0.359913
0.383031
0.440592
0.485518
0.479188
0.533445
0.573609
0.641137
0.621379
0.678399
0.660025
0.589139
0.518669
0.446597
0.440787
0.261278
0.159583
0.131134
0.102147
0.0075807
0.213687
0.176479
0.303517
0.252029
0.274969
0.352782
0.372662
0.407564
0.411643
0.386501
0.359269
0.353845
0.315129
0.244572
0.186328
0.156932
0.0709679
0.0119742
-0.00361895
0.0142792
0.114975
0.0422552
0.0525223
0.0556205
0.136308
0.0506783
0.1582
0.108123
0.180966
0.145238
0.0894297
0.10094
0.120183
0.036778
0.0202385
0.0120876
0.039214
0.038453
0.00902153
0.031195
1.09477
1.03661
1.07335
1.15771
1.32775
1.38574
1.50399
1.56588
1.57801
1.67092
1.57201
1.45211
1.2285
0.918664
0.701595
0.39514
0.220642
0.0545634
-0.0286512
-0.106544
0.811738
0.771306
0.810491
0.878886
0.981958
1.13627
1.22348
1.3029
1.40467
1.37762
1.26844
1.18743
1.00437
0.734166
0.542519
0.308626
0.148055
-0.0347894
-0.127546
-0.144303
0.647175
0.688438
0.70933
0.702442
0.792756
0.924522
1.00267
1.0273
1.08094
1.04445
1.06715
0.901044
0.732766
0.590684
0.425474
0.26288
0.11756
-0.0421444
-0.159769
-0.201748
0.539479
0.437331
0.548452
0.534627
0.626957
0.633878
0.742594
0.840197
0.830719
0.763551
0.768158
0.695941
0.570166
0.44651
0.343187
0.198018
-0.0113103
-0.0951261
-0.197094
-0.125096
0.344019
0.332825
0.349415
0.413094
0.454275
0.472495
0.563173
0.539542
0.603446
0.608081
0.645157
0.527236
0.440004
0.253677
0.210338
0.164712
0.0563988
-0.088708
-0.110339
-0.128924
0.229545
0.278816
0.207787
0.321388
0.311291
0.408624
0.325369
0.413366
0.405587
0.454406
0.354289
0.387025
0.26768
0.227359
0.138453
0.0871593
-0.0225641
-0.0484245
-0.119134
-0.105882
0.125214
0.194442
0.069294
0.152517
0.155911
0.146841
0.221993
0.275492
0.227408
0.284944
0.269665
0.18009
0.188915
0.10417
0.0542398
0.00657514
-0.0746763
-0.0381872
-0.0734317
-0.0538703
0.0093434
0.0188957
0.114171
0.00932328
0.0736057
0.10547
0.0874376
0.116615
0.0710832
0.10725
0.159515
0.0772351
-0.00597705
0.0111533
0.116621
0.0462717
-0.0219494
-0.0757979
0.0313024
-0.0873041
0.797181
0.752566
0.676609
0.698447
0.734671
0.798912
0.948608
0.966594
1.02465
0.956581
0.896262
0.778356
0.605234
0.409571
0.143338
-0.0300574
-0.202099
-0.390437
-0.50901
-0.465497
0.603667
0.514309
0.529736
0.621968
0.584872
0.668032
0.759329
0.764317
0.792266
0.801732
0.749098
0.562756
0.449985
0.230313
0.0300517
-0.0496584
-0.255502
-0.397199
-0.425172
-0.51792
0.402254
0.330325
0.418774
0.405343
0.487122
0.447023
0.542826
0.622441
0.669928
0.599982
0.556669
0.403284
0.390142
0.200203
-0.0237106
-0.163561
-0.282327
-0.366108
-0.403601
-0.417522
0.332528
0.23816
0.307105
0.260209
0.262927
0.374012
0.399109
0.406114
0.483599
0.497082
0.455975
0.382484
0.264816
0.10014
-0.0415759
-0.0934932
-0.220215
-0.373555
-0.352502
-0.37206
0.152564
0.187353
0.179719
0.157712
0.280619
0.204909
0.296601
0.346322
0.27758
0.310564
0.382183
0.197237
0.148768
0.0672312
-0.0230689
-0.17267
-0.181348
-0.216299
-0.284146
-0.356935
0.170758
0.228057
0.143374
0.109061
0.13133
0.165381
0.209016
0.191857
0.265933
0.284685
0.207306
0.156115
0.0827136
0.0234319
-0.00589608
-0.118683
-0.108224
-0.247314
-0.214306
-0.22868
0.0741448
0.0531449
0.0206088
0.0834325
0.057736
0.125858
0.182023
0.0803241
0.121442
0.150617
0.145007
0.101913
0.046522
0.042279
-0.045119
-0.0987622
-0.083968
-0.191052
-0.189271
-0.183546
0.0580947
0.0371536
0.00148098
0.023019
-0.0153032
-0.0453561
0.0149977
0.0202345
0.0904557
-0.0105681
0.0746675
0.054628
-0.0162263
-0.00309029
0.00151213
-0.062068
-0.0279209
-0.084373
-0.0801013
-0.0599733
0.572363
0.409495
0.420879
0.369048
0.385546
0.468564
0.398216
0.472527
0.515352
0.45543
0.415518
0.233295
0.0277071
-0.136731
-0.301788
-0.482692
-0.603164
-0.738307
-0.693736
-0.782333
0.381375
0.331739
0.239113
0.216867
0.233801
0.260657
0.34003
0.348386
0.335036
0.310128
0.289111
0.0762352
-0.0436345
-0.121348
-0.286194
-0.495425
-0.597946
-0.768806
-0.66668
-0.668715
0.237998
0.23285
0.120195
0.138746
0.177898
0.173054
0.201558
0.162537
0.279605
0.22591
0.0948383
0.0838099
-0.0403995
-0.194646
-0.278035
-0.419128
-0.537932
-0.579375
-0.682107
-0.641421
0.172499
0.105912
0.148763
0.104111
0.0350879
0.104456
0.1505
0.127243
0.184977
0.114069
-0.00890058
0.076772
-0.0914834
-0.193055
-0.257629
-0.386776
-0.491341
-0.563036
-0.550397
-0.504281
0.129822
0.118138
0.108597
-0.021748
0.0144694
0.0751358
0.0472508
0.0472232
-0.0133869
0.104094
0.0158932
0.0137765
-0.133813
-0.232214
-0.218509
-0.372869
-0.418424
-0.510224
-0.493698
-0.450654
0.0431753
0.0507717
-0.0230497
0.0176547
0.022735
-0.00212217
0.0821954
0.066458
0.0555579
0.00599198
0.088341
-0.024483
-0.0741435
-0.0736166
-0.212418
-0.207123
-0.242271
-0.288009
-0.366901
-0.290305
0.0202899
-0.0522243
0.0189958
-0.0173056
0.0176939
-0.0207909
0.0330678
0.00485354
-0.0335357
-0.00682025
-0.00953435
0.0205743
-0.0524249
-0.13955
-0.0809132
-0.205016
-0.197082
-0.157059
-0.210837
-0.26173
-0.053615
0.0353274
0.0128123
0.0175025
0.00897822
-0.0177338
-0.00786815
-0.0532703
-0.0498295
0.00415784
0.00643853
0.0139154
-0.0246075
-0.0250469
-0.119181
-0.0489669
-0.0512905
-0.0603247
-0.0362092
-0.0311357
0.415074
0.336252
0.19436
0.122893
0.113594
0.0514143
0.0400428
0.037346
0.00857867
-0.0189858
-0.0529034
-0.200115
-0.328646
-0.485505
-0.718564
-0.808143
-0.879299
-0.96842
-0.911847
-0.875095
0.297673
0.167599
0.122239
-0.0105512
-0.0109987
-0.00630644
-0.0303078
0.0106709
-0.0687093
-0.0705359
-0.18491
-0.199104
-0.358472
-0.513342
-0.649798
-0.781131
-0.881274
-1.00131
-0.867791
-0.90679
0.130748
0.0501969
0.0572782
-0.0503217
-0.0130742
-0.0214882
-0.043302
-0.0801926
-0.104716
-0.186823
-0.164252
-0.182183
-0.326859
-0.460074
-0.549435
-0.73883
-0.771735
-0.880365
-0.779888
-0.756078
0.122919
0.0536278
-0.0233928
-0.088692
-0.169855
-0.0990519
-0.0819353
-0.117306
-0.109116
-0.0816199
-0.255602
-0.265046
-0.363249
-0.501195
-0.568469
-0.634421
-0.680176
-0.681273
-0.709053
-0.665877
0.0294512
0.0175202
-0.0835126
-0.0439481
-0.092739
-0.0913121
-0.116497
-0.12786
-0.13513
-0.136921
-0.0648651
-0.205797
-0.283605
-0.411754
-0.451239
-0.458923
-0.491493
-0.568706
-0.578937
-0.608723
0.00191401
-0.106315
-0.0477919
-0.103408
-0.0955204
-0.0466123
-0.0725842
-0.0734163
-0.160211
-0.0725874
-0.131944
-0.193805
-0.258034
-0.292569
-0.278988
-0.350159
-0.348173
-0.371722
-0.441766
-0.311008
-0.0140172
-0.139891
-0.0401627
-0.0823237
0.00972546
-0.072599
-0.0430172
-0.0276119
-0.0573058
0.00926212
-0.06214
-0.0920686
-0.131415
-0.140005
-0.185235
-0.235174
-0.229909
-0.274734
-0.247656
-0.206595
0.0323863
0.00478783
-0.011458
-0.00972723
-0.0297085
-0.0641795
-0.0420862
-0.00589324
-0.0397544
0.00502673
0.0393295
-0.0622196
-0.0510735
-0.0192695
-0.0664885
-0.00781811
0.00431791
-0.076537
-0.0925031
-0.0889321
0.392206
0.20364
0.133538
-0.0930074
-0.10699
-0.0948296
-0.255636
-0.153316
-0.232078
-0.279886
-0.375399
-0.485552
-0.658429
-0.789159
-0.850511
-1.01918
-1.04162
-1.0338
-1.06275
-0.95351
0.264624
0.141587
0.0531182
-0.114817
-0.23818
-0.23476
-0.273434
-0.238533
-0.259887
-0.366586
-0.461537
-0.463181
-0.569688
-0.76275
-0.843404
-0.959005
-0.956586
-0.985194
-0.960476
-0.94589
0.213058
0.00174998
-0.0118827
-0.0875092
-0.226247
-0.290086
-0.165787
-0.313464
-0.359876
-0.316545
-0.471158
-0.526965
-0.523641
-0.679063
-0.830498
-0.861076
-0.907234
-0.934831
-0.793232
-0.858945
0.0442386
-0.03233
-0.0898774
-0.174355
-0.188817
-0.291323
-0.218978
-0.286171
-0.308672
-0.388743
-0.366881
-0.509233
-0.529042
-0.61928
-0.674881
-0.71404
-0.710331
-0.73866
-0.689322
-0.719015
0.0582844
0.0153044
-0.154654
-0.21249
-0.231914
-0.245638
-0.173114
-0.240371
-0.274383
-0.236847
-0.281616
-0.304453
-0.474934
-0.469799
-0.58345
-0.641776
-0.63771
-0.658076
-0.593854
-0.528114
0.0590646
0.0182007
-0.0564411
-0.186247
-0.137253
-0.227211
-0.195303
-0.199118
-0.175828
-0.236231
-0.239284
-0.255704
-0.34053
-0.368683
-0.460501
-0.45561
-0.445002
-0.434667
-0.379026
-0.423035
-0.0133209
-0.0492472
-0.0637502
-0.0312049
-0.0551979
-0.0414156
-0.0736684
-0.0901428
-0.122287
-0.13279
-0.176134
-0.139241
-0.191468
-0.272644
-0.212063
-0.241534
-0.261387
-0.265284
-0.23161
-0.175145
0.0387828
-0.0171034
-0.11229
-0.0274218
-0.0811796
-0.0528925
-0.0380302
-0.0242355
-0.0138369
0.0137033
-0.102998
-0.0930504
-0.050504
-0.140306
-0.0504526
-0.0572958
-0.0939605
-0.138968
-0.070509
-0.145669
0.495526
0.232616
0.0670803
-0.029639
-0.160184
-0.27317
-0.372666
-0.419897
-0.507587
-0.585893
-0.664248
-0.746624
-0.902179
-0.938918
-1.10451
-1.09849
-1.10048
-1.12991
-1.01862
-0.991974
0.276873
0.198532
0.0373561
-0.166063
-0.305178
-0.389529
-0.387729
-0.409717
-0.55962
-0.555348
-0.657407
-0.656422
-0.788279
-0.903166
-1.02664
-1.1264
-1.09078
-0.979424
-0.960247
-0.954216
0.202617
0.0902631
0.0348721
-0.245808
-0.278725
-0.34467
-0.371141
-0.502746
-0.383054
-0.524138
-0.649119
-0.643803
-0.772976
-0.790688
-0.858679
-0.896594
-0.911849
-0.941691
-0.824209
-0.727657
0.106827
0.041768
-0.0888982
-0.219186
-0.210014
-0.316947
-0.383697
-0.382301
-0.416262
-0.462443
-0.514066
-0.587491
-0.641467
-0.785676
-0.735395
-0.816202
-0.851046
-0.736285
-0.767468
-0.663106
0.115658
-0.0121125
-0.0915722
-0.146679
-0.23953
-0.290507
-0.329597
-0.289457
-0.38337
-0.432983
-0.406586
-0.452997
-0.469155
-0.516438
-0.657158
-0.632743
-0.622636
-0.604961
-0.673834
-0.526551
0.0596686
-0.00777173
-0.102198
-0.0731623
-0.157193
-0.235369
-0.179254
-0.253237
-0.29564
-0.308823
-0.369264
-0.356855
-0.434642
-0.430875
-0.434297
-0.427238
-0.478942
-0.472982
-0.475631
-0.409731
0.02208
-0.0351967
-0.054763
-0.0739336
-0.144723
-0.142136
-0.149632
-0.132439
-0.148495
-0.148357
-0.191254
-0.222334
-0.236185
-0.257187
-0.293817
-0.317797
-0.215459
-0.289478
-0.225878
-0.275869
-0.0236001
0.0506599
-0.0477326
-0.0445949
0.0419056
0.00474436
-0.0871592
-0.13986
-0.120677
-0.09792
-0.0606927
-0.0720372
-0.0161969
-0.0666847
-0.147596
-0.109138
-0.110851
-0.148677
-0.145113
-0.124888
0.715627
0.383916
0.223452
0.0835572
-0.144834
-0.319383
-0.415279
-0.405296
-0.568384
-0.584149
-0.710957
-0.872639
-0.868559
-1.03245
-1.10176
-1.0775
-1.09947
-0.992168
-0.917062
-0.834786
0.478725
0.243576
0.0695295
-0.159025
-0.223625
-0.357139
-0.447311
-0.508951
-0.566793
-0.656579
-0.765459
-0.776947
-0.885684
-0.921036
-0.980749
-1.02717
-1.02507
-0.942226
-0.85305
-0.770955
0.358793
0.151967
0.00403482
-0.192284
-0.300439
-0.374151
-0.42205
-0.492547
-0.470716
-0.591561
-0.729219
-0.695519
-0.795931
-0.887483
-0.846673
-0.939317
-0.88532
-0.866732
-0.779446
-0.648276
0.199483
0.105836
-0.0196891
-0.206981
-0.198712
-0.344914
-0.390949
-0.422205
-0.471173
-0.580602
-0.57634
-0.625497
-0.645403
-0.765597
-0.804308
-0.795116
-0.853067
-0.75393
-0.648954
-0.611071
0.160502
0.0222616
-0.0218393
-0.164103
-0.280537
-0.233702
-0.357116
-0.397078
-0.458455
-0.483797
-0.458019
-0.516812
-0.563166
-0.560904
-0.625214
-0.629725
-0.630972
-0.59994
-0.571604
-0.507468
0.100813
-0.036958
-0.0981849
-0.166264
-0.157594
-0.189649
-0.243775
-0.224962
-0.209598
-0.33826
-0.346751
-0.358275
-0.417094
-0.474131
-0.45302
-0.41955
-0.44093
-0.424115
-0.494352
-0.366382
0.0433058
0.0395141
-0.0683177
-0.0409454
-0.157069
-0.139568
-0.211466
-0.20431
-0.140883
-0.231932
-0.187941
-0.239153
-0.25337
-0.260808
-0.26484
-0.247986
-0.24755
-0.249062
-0.269973
-0.181713
-0.0526896
0.0345985
-0.063969
0.0305001
-0.000187988
-0.0153707
0.0275977
-0.027981
-0.0817136
-0.0687399
0.000283756
-0.0832746
-0.0418359
-0.0410328
-0.0780552
-0.0854135
-0.0751058
-0.0881261
-0.110183
-0.0444668
1.00343
0.694974
0.3919
0.212679
0.0271204
-0.2515
-0.286903
-0.440653
-0.57896
-0.550908
-0.700365
-0.810925
-0.87096
-0.972894
-0.942985
-0.978168
-0.954195
-0.797776
-0.721646
-0.563326
0.769075
0.451887
0.357289
0.107585
-0.0506535
-0.213624
-0.348031
-0.443328
-0.531911
-0.616774
-0.657905
-0.743046
-0.861155
-0.928276
-0.913978
-0.972854
-0.898779
-0.751534
-0.703198
-0.551677
0.50909
0.358256
0.243436
0.00286998
-0.171323
-0.249397
-0.388264
-0.429318
-0.539172
-0.594886
-0.661704
-0.703854
-0.770106
-0.881963
-0.833458
-0.873043
-0.766846
-0.717078
-0.655992
-0.53234
0.373167
0.300664
0.0601648
-0.0558541
-0.187412
-0.26345
-0.310952
-0.44691
-0.398746
-0.547016
-0.592834
-0.657965
-0.663992
-0.668021
-0.620844
-0.71363
-0.717264
-0.595591
-0.534293
-0.428073
0.272818
0.167222
0.0433474
-0.104297
-0.0871508
-0.232285
-0.330313
-0.359527
-0.427328
-0.447869
-0.516191
-0.544499
-0.548342
-0.54309
-0.633257
-0.556201
-0.618739
-0.528965
-0.447462
-0.363805
0.180491
0.139719
-0.0505675
-0.0700427
-0.096377
-0.233846
-0.243992
-0.26747
-0.362872
-0.39561
-0.391395
-0.375541
-0.51523
-0.425988
-0.439559
-0.47354
-0.404065
-0.300548
-0.305846
-0.285221
0.133032
0.10889
-0.0200302
-0.0611235
-0.0768623
-0.0912349
-0.115734
-0.133338
-0.18417
-0.149466
-0.190527
-0.279801
-0.281923
-0.275666
-0.277589
-0.188944
-0.232608
-0.292808
-0.236709
-0.164891
0.066436
0.0165992
0.0397503
0.0270779
-0.105663
-0.05841
-0.0379915
-0.033788
-0.086445
-0.0343045
-0.0521043
-0.0887957
-0.0434277
-0.0882826
-0.0603189
-0.0886627
-0.127418
-0.0467059
-0.0741823
-0.145802
1.36697
1.0885
0.75264
0.43347
0.257766
0.0515271
-0.0758412
-0.227
-0.349335
-0.425567
-0.613696
-0.629535
-0.754662
-0.777475
-0.794125
-0.685359
-0.712134
-0.530317
-0.401351
-0.139739
1.13387
0.834825
0.536948
0.361455
0.110417
-0.0561867
-0.215133
-0.269245
-0.40883
-0.506013
-0.546832
-0.654783
-0.707367
-0.756443
-0.734161
-0.721369
-0.671092
-0.575537
-0.368088
-0.249506
0.880763
0.608232
0.429343
0.163913
0.0464689
-0.0393911
-0.182502
-0.273247
-0.400735
-0.442314
-0.505446
-0.580516
-0.664825
-0.701439
-0.709961
-0.68737
-0.58524
-0.488291
-0.413733
-0.292112
0.598024
0.49716
0.319596
0.125561
-0.0187359
-0.178856
-0.187307
-0.295219
-0.335609
-0.470495
-0.438754
-0.575494
-0.623939
-0.574968
-0.654849
-0.589624
-0.541724
-0.403191
-0.37405
-0.242471
0.460716
0.329376
0.182395
0.059365
-0.0724914
-0.166684
-0.239428
-0.230589
-0.393631
-0.420288
-0.464862
-0.510773
-0.491898
-0.537672
-0.489146
-0.549183
-0.45096
-0.372242
-0.2658
-0.265442
0.331574
0.305939
0.104622
0.0847848
-0.065173
-0.109437
-0.096499
-0.204021
-0.29197
-0.285702
-0.330258
-0.240629
-0.409737
-0.326594
-0.328982
-0.347513
-0.355436
-0.22505
-0.191758
-0.164829
0.169004
0.0193279
0.0913059
0.00865579
-0.000293287
-0.122072
-0.0597896
-0.203315
-0.0858124
-0.204928
-0.188568
-0.24454
-0.224747
-0.139495
-0.123184
-0.167826
-0.179818
-0.249523
-0.120046
-0.102768
0.0212246
-0.0241563
-0.00634422
-0.012822
0.0211486
0.00603565
-0.0648174
-0.0468313
-0.0399989
-0.0931043
-0.0208038
-0.00469987
-0.0781326
-0.00844676
-0.124043
-0.00179828
-0.0486762
-0.0439338
0.031318
-0.0195658
1.88139
1.61495
1.27009
0.897376
0.633329
0.444601
0.229885
0.11246
-0.0961723
-0.232343
-0.219394
-0.416478
-0.407664
-0.497466
-0.45426
-0.430275
-0.30302
-0.0807542
0.0984911
0.270775
1.51142
1.33139
0.840245
0.713006
0.43545
0.292842
0.0538388
-0.0517868
-0.150818
-0.253535
-0.357177
-0.413591
-0.399376
-0.486074
-0.486632
-0.402683
-0.301424
-0.165304
0.0258855
0.180484
1.23489
0.922344
0.696266
0.504784
0.275418
0.212118
0.0551569
-0.0679865
-0.175246
-0.288132
-0.334575
-0.435617
-0.393988
-0.507237
-0.424492
-0.434573
-0.272213
-0.225982
0.0048682
0.104062
0.882522
0.83546
0.611095
0.375869
0.207218
0.115524
-0.0562482
-0.161513
-0.172118
-0.238746
-0.333634
-0.399961
-0.390596
-0.450288
-0.377511
-0.348381
-0.339028
-0.271659
-0.0807713
0.0675677
0.58427
0.585307
0.398657
0.239653
0.0849494
0.0216959
0.0073676
-0.14025
-0.221614
-0.235129
-0.282426
-0.401182
-0.375548
-0.367363
-0.323394
-0.342156
-0.245726
-0.177926
-0.134638
-0.0721199
0.51513
0.377024
0.297929
0.226189
0.0800582
0.0522303
-0.0137425
-0.17873
-0.125303
-0.140663
-0.209266
-0.26312
-0.222255
-0.251091
-0.217607
-0.269249
-0.221163
-0.123579
-0.0748264
0.0142339
0.284787
0.203049
0.196097
0.103739
0.127384
0.0402122
-0.0371464
-0.130086
-0.0657654
-0.127011
-0.15117
-0.143878
-0.147047
-0.169343
-0.101208
-0.19863
-0.0716067
-0.0672446
-0.0732135
-0.00492667
0.0971745
0.0836104
0.0719334
0.0368789
-0.0316974
0.0169109
-0.0371775
-0.0169602
-0.0528985
-0.0408527
-0.017814
-0.0217161
-0.0195977
-0.0629434
-0.0507196
-0.0282302
-0.0428459
-0.0118168
-0.0639054
-0.0367231
2.48976
2.11552
1.78521
1.41547
1.15674
0.901932
0.659055
0.512187
0.307198
0.210477
0.073432
0.0564732
-0.0292467
-0.00829582
0.0236596
0.0115708
0.191333
0.394107
0.639973
0.881149
2.06836
1.78352
1.37273
1.12397
0.911539
0.713704
0.415427
0.391633
0.199786
0.0822663
-0.0967767
-0.124478
-0.120719
-0.0396959
-0.0975531
-0.0122118
0.101685
0.26388
0.41089
0.64952
1.64298
1.35632
1.09005
0.868345
0.675281
0.483313
0.376409
0.169702
0.0592222
-0.0875267
-0.0836152
-0.125202
-0.129438
-0.223509
-0.139135
-0.120956
0.0149654
0.135113
0.375782
0.550558
1.25609
1.03814
0.805744
0.669314
0.482196
0.372749
0.171072
0.0808318
-0.00153981
-0.0304272
-0.0826171
-0.197156
-0.249291
-0.162091
-0.173375
-0.179119
-0.0428289
0.0919711
0.247796
0.38428
0.93349
0.78929
0.6691
0.471806
0.315996
0.245654
0.0940905
0.064598
-0.0499708
-0.107639
-0.145976
-0.13434
-0.137408
-0.189583
-0.142556
-0.0956665
-0.0155531
0.116638
0.126163
0.274732
0.60707
0.550103
0.42195
0.375626
0.20036
0.11304
0.15159
-0.0183053
-0.0645026
-0.0284914
-0.0705101
-0.134702
-0.169916
-0.0757798
-0.136806
-0.10693
-0.0865228
-0.00112789
0.134335
0.158743
0.334508
0.288087
0.262548
0.189641
0.128586
0.0346118
-0.0125986
0.00202508
-0.0312956
-0.0311982
-0.0628095
-0.00467448
-0.0384493
-0.102168
-0.0438133
-0.0739134
-0.0234169
0.0188709
0.0923191
0.154901
0.149592
0.125669
0.0831822
0.0449747
0.0159483
0.0543346
0.0403775
-0.0125874
-0.0285236
-0.0226171
-0.00759773
-0.0260431
-0.0392664
-0.013787
0.00301478
-0.018174
0.0250796
0.0794319
0.0893369
-0.0398215
3.18842
2.76561
2.37212
2.04961
1.64508
1.39295
1.11903
1.05088
0.840854
0.641623
0.561006
0.486734
0.497608
0.478548
0.532563
0.611326
0.797885
0.954875
1.26146
1.47993
2.58245
2.25868
1.88314
1.62195
1.30916
1.14264
0.921123
0.710664
0.590985
0.468734
0.374696
0.26388
0.271836
0.275915
0.351872
0.478926
0.565332
0.729784
0.912548
1.23722
2.10772
1.79183
1.55337
1.32504
1.0415
0.798989
0.585786
0.464468
0.442991
0.320081
0.223692
0.100835
0.146732
0.128721
0.136221
0.258784
0.403117
0.534228
0.736761
0.904055
1.66682
1.41349
1.17751
0.960097
0.797876
0.584871
0.467654
0.416673
0.199196
0.18973
0.101468
0.113216
0.0532124
0.0968124
0.0891236
0.16193
0.367525
0.389938
0.57128
0.776488
1.16572
1.08224
0.844619
0.73978
0.534406
0.433428
0.373104
0.202397
0.225006
0.00677516
0.0657298
0.0234105
0.00868822
0.0611266
0.0681897
0.105113
0.124493
0.295002
0.416114
0.475876
0.880285
0.78824
0.679906
0.482941
0.365426
0.316644
0.226365
0.182558
0.118394
0.0347268
0.0122368
0.0397206
-0.0180467
0.0106952
0.00340294
0.0581145
0.159101
0.1431
0.304226
0.305418
0.5257
0.374224
0.397921
0.341233
0.244202
0.15447
0.185156
0.0231836
0.0291706
-0.00374756
0.0334752
-0.00933576
-0.0175531
0.0404836
-0.00104687
0.000263417
0.056935
0.107697
0.127193
0.227496
0.223289
0.111782
0.089269
0.125941
0.0659608
0.0403459
0.017672
-0.00537128
-0.0366544
0.0257018
-0.0115503
0.00728263
0.00184968
-0.0114378
0.00491135
0.00852645
0.0458182
0.102957
0.000605767
0.0695679
3.68644
3.26965
2.83323
2.45441
2.10842
1.90385
1.61108
1.40801
1.28988
1.07735
0.985045
0.923219
0.852116
0.90787
1.02809
1.04021
1.26005
1.44251
1.78161
1.98687
3.02694
2.68042
2.34297
2.06077
1.77263
1.43843
1.23487
1.10729
0.908152
0.804186
0.743901
0.676038
0.624827
0.617722
0.673723
0.820214
0.991131
1.13796
1.39315
1.60975
2.47154
2.147
1.88802
1.59939
1.36307
1.15185
0.98993
0.838802
0.673926
0.535471
0.520989
0.513816
0.363862
0.435788
0.473887
0.652383
0.692978
0.855367
1.06698
1.32258
1.90665
1.71953
1.4493
1.23427
0.991887
0.91579
0.747351
0.636983
0.466265
0.358911
0.415024
0.306012
0.295118
0.287769
0.429807
0.380491
0.527225
0.628694
0.794894
0.989813
1.38792
1.27252
1.0734
0.911736
0.683099
0.67784
0.536904
0.404523
0.331898
0.216528
0.25147
0.231576
0.15367
0.19718
0.2846
0.292528
0.324794
0.429893
0.557261
0.782162
1.03755
0.879116
0.77435
0.573767
0.497094
0.454759
0.3587
0.317424
0.207628
0.11788
0.123174
0.0998431
0.0491905
0.0696213
0.174123
0.239745
0.277817
0.337552
0.418384
0.531017
0.583924
0.426985
0.474
0.361274
0.266145
0.282278
0.258811