/*--------------------------------*- C++ -*----------------------------------*\
| =========                 |                                                 |
| \\      /  F ield         | OpenFOAM: The Open Source CFD Toolbox           |
|  \\    /   O peration     | Version:  2212                                  |
|   \\  /    A nd           | Website:  www.openfoam.com                      |
|    \\/     M anipulation  |                                                 |
\*---------------------------------------------------------------------------*/
FoamFile
{
    version     2.0;
    format      ascii;
    arch        "LSB;label=32;scalar=64";
    class       volScalarField;
    location    "0";
    object      stateMean;
}
// * * * * * * * * * * * * * * * * * * * * * * * * * * * * * * * * * * * * * //

dimensions      [0 0 0 1 0 0 0];

internalField   nonuniform List<scalar> 
3200
(
314.322
314.497
314.713
314.851
315.035
315.201
315.306
315.349
315.529
315.595
315.659
315.651
315.656
315.717
315.647
315.585
315.501
315.384
315.372
315.19
312.529
312.649
312.801
312.982
313.243
313.275
313.311
313.506
313.512
313.678
313.632
313.636
313.678
313.672
313.669
313.671
313.542
313.457
313.367
313.318
310.651
310.801
310.97
311.093
311.172
311.308
311.359
311.51
311.552
311.544
311.597
311.676
311.621
311.671
311.733
311.608
311.422
311.458
311.37
311.386
308.839
308.876
309.085
309.119
309.216
309.265
309.324
309.436
309.446
309.517
309.549
309.53
309.577
309.533
309.558
309.563
309.538
309.423
309.387
309.299
306.895
307.04
307.1
307.157
307.153
307.24
307.365
307.407
307.429
307.463
307.472
307.437
307.48
307.459
307.419
307.449
307.356
307.321
307.381
307.252
304.943
304.97
305.068
305.113
305.141
305.202
305.302
305.279
305.251
305.354
305.402
305.387
305.399
305.37
305.322
305.275
305.306
305.291
305.21
305.128
302.96
303.03
302.966
303.116
303.071
303.122
303.226
303.145
303.231
303.206
303.247
303.272
303.227
303.245
303.189
303.24
303.182
303.169
303.093
303.128
301.008
300.997
300.992
301.04
301.073
301.056
301.102
301.047
301.042
301.079
301.068
301.058
301.103
301.08
301.149
301.031
301.059
301.071
301.083
301.046
314.883
315.102
315.267
315.47
315.681
315.672
315.904
316.03
316.103
316.212
316.262
316.248
316.345
316.252
316.239
316.111
316.156
316.026
315.951
315.772
313.03
313.208
313.273
313.559
313.637
313.69
313.916
313.919
314.109
314.042
314.181
314.166
314.109
314.246
314.198
314.054
314.066
313.9
313.825
313.699
311.058
311.112
311.276
311.447
311.579
311.75
311.805
311.86
312.024
311.905
312.028
312.031
312.034
312.034
312.071
311.933
311.959
311.815
311.665
311.631
309.124
309.199
309.336
309.427
309.464
309.6
309.672
309.78
309.794
309.836
309.862
309.9
309.932
309.833
309.85
309.865
309.781
309.79
309.692
309.564
307.06
307.241
307.21
307.381
307.378
307.554
307.533
307.58
307.661
307.64
307.733
307.701
307.707
307.69
307.681
307.731
307.632
307.644
307.556
307.424
305.1
305.063
305.224
305.303
305.416
305.343
305.44
305.43
305.472
305.52
305.499
305.52
305.535
305.469
305.607
305.49
305.431
305.404
305.427
305.402
303.043
303.101
303.104
303.233
303.161
303.233
303.296
303.279
303.345
303.337
303.284
303.333
303.366
303.221
303.268
303.302
303.255
303.322
303.22
303.235
301.052
301.022
301.014
301.004
301.085
301.069
301.084
301.072
301.109
301.102
301.146
301.146
301.067
301.055
301.148
301.105
301.097
301.078
301.12
301.061
315.625
315.734
315.969
316.206
316.392
316.586
316.696
316.794
316.979
317.054
317.155
317.11
317.112
317.161
317.073
317.03
317.071
316.83
316.668
316.497
313.58
313.731
313.984
314.136
314.273
314.432
314.515
314.707
314.791
314.837
314.885
314.904
314.93
314.904
314.779
314.85
314.785
314.645
314.497
314.374
311.596
311.681
311.835
311.986
312.145
312.325
312.362
312.438
312.571
312.599
312.646
312.605
312.615
312.622
312.647
312.544
312.49
312.42
312.281
312.161
309.45
309.577
309.676
309.836
310.01
310.084
310.22
310.186
310.242
310.286
310.381
310.321
310.375
310.396
310.365
310.335
310.25
310.184
310.084
309.979
307.394
307.438
307.509
307.68
307.743
307.85
307.909
308.044
308.028
308.117
308.065
308.072
308.094
308.019
308.091
307.999
308.006
307.926
307.883
307.742
305.26
305.317
305.421
305.441
305.575
305.659
305.658
305.617
305.764
305.777
305.696
305.792
305.828
305.821
305.826
305.752
305.684
305.639
305.669
305.606
303.174
303.238
303.31
303.317
303.353
303.343
303.369
303.455
303.472
303.436
303.45
303.5
303.521
303.478
303.466
303.481
303.426
303.427
303.372
303.279
301.056
301.119
301.072
301.135
301.101
301.122
301.096
301.169
301.166
301.18
301.154
301.195
301.172
301.176
301.16
301.167
301.084
301.149
301.161
301.176
316.346
316.656
316.873
317.076
317.284
317.406
317.686
317.715
317.792
317.894
317.978
318.071
318.097
318.109
317.985
317.952
317.792
317.671
317.499
317.306
314.216
314.379
314.679
314.798
315.086
315.2
315.346
315.523
315.545
315.587
315.69
315.725
315.728
315.629
315.693
315.597
315.461
315.318
315.157
315.101
312.158
312.281
312.43
312.613
312.736
312.888
312.956
313.141
313.223
313.236
313.285
313.317
313.281
313.375
313.301
313.22
313.175
313.058
312.902
312.805
309.919
310.041
310.206
310.332
310.419
310.61
310.684
310.746
310.843
310.836
310.985
310.984
310.91
310.952
310.851
310.876
310.814
310.683
310.629
310.469
307.723
307.768
307.929
308.146
308.197
308.292
308.262
308.373
308.417
308.441
308.522
308.547
308.479
308.55
308.486
308.452
308.376
308.378
308.225
308.172
305.6
305.646
305.738
305.835
305.85
305.87
305.921
306.05
306.059
306.071
306.109
306.072
306.084
306.147
306.078
306.037
306.033
306.016
305.928
305.917
303.414
303.396
303.409
303.438
303.489
303.546
303.564
303.558
303.618
303.657
303.666
303.688
303.658
303.654
303.634
303.588
303.618
303.563
303.53
303.512
301.131
301.142
301.222
301.145
301.226
301.207
301.211
301.251
301.167
301.204
301.195
301.202
301.156
301.275
301.213
301.224
301.212
301.146
301.182
301.144
317.189
317.391
317.756
317.873
318.153
318.301
318.514
318.644
318.772
318.851
318.894
318.895
318.96
318.923
318.944
318.804
318.742
318.581
318.42
318.227
314.952
315.117
315.371
315.554
315.806
315.972
316.14
316.203
316.434
316.392
316.443
316.485
316.483
316.474
316.444
316.369
316.229
316.18
316.01
315.84
312.64
312.9
313.086
313.256
313.449
313.55
313.694
313.859
313.89
313.929
313.993
314.009
314.019
313.952
313.914
313.865
313.864
313.678
313.574
313.429
310.382
310.527
310.678
310.792
310.98
311.095
311.193
311.306
311.386
311.435
311.465
311.482
311.484
311.543
311.447
311.372
311.298
311.207
311.111
310.988
308.173
308.203
308.318
308.545
308.551
308.662
308.753
308.838
308.978
308.872
309.023
308.94
308.912
308.864
308.944
308.869
308.773
308.641
308.64
308.578
305.789
305.838
305.993
306.024
306.17
306.238
306.328
306.321
306.333
306.363
306.345
306.43
306.393
306.433
306.351
306.354
306.359
306.253
306.17
306.174
303.495
303.509
303.63
303.688
303.699
303.781
303.823
303.716
303.758
303.825
303.814
303.797
303.846
303.837
303.825
303.805
303.729
303.744
303.636
303.701
301.042
301.219
301.155
301.265
301.242
301.241
301.253
301.2
301.242
301.312
301.222
301.367
301.269
301.271
301.256
301.278
301.289
301.314
301.238
301.283
317.942
318.235
318.5
318.798
319.009
319.246
319.441
319.593
319.682
319.795
319.9
319.97
319.897
319.872
319.959
319.725
319.682
319.391
319.251
319.055
315.638
315.88
316.095
316.347
316.571
316.773
316.878
317.043
317.12
317.224
317.319
317.271
317.315
317.311
317.215
317.194
317.037
316.896
316.777
316.561
313.276
313.476
313.676
313.865
313.991
314.225
314.297
314.424
314.539
314.59
314.61
314.693
314.694
314.709
314.655
314.563
314.385
314.365
314.202
313.963
310.924
311.074
311.23
311.429
311.509
311.733
311.792
311.844
311.957
311.989
311.987
312.06
312.142
312.046
311.933
311.942
311.861
311.759
311.585
311.513
308.51
308.594
308.756
308.959
308.978
309.084
309.175
309.225
309.249
309.324
309.38
309.404
309.401
309.395
309.403
309.263
309.145
309.141
309.002
309.042
306.007
306.151
306.307
306.367
306.494
306.538
306.562
306.682
306.651
306.758
306.665
306.744
306.704
306.755
306.668
306.689
306.562
306.618
306.517
306.449
303.758
303.696
303.717
303.83
303.906
303.862
303.867
303.948
303.905
304.008
304.003
304.07
304.067
304.043
304.056
304.036
303.948
304.024
303.83
303.875
301.278
301.133
301.332
301.329
301.349
301.347
301.344
301.285
301.31
301.342
301.293
301.3
301.385
301.329
301.292
301.323
301.32
301.331
301.319
301.31
318.74
319.047
319.377
319.674
319.901
320.152
320.392
320.526
320.697
320.746
320.848
320.901
320.852
320.876
320.743
320.709
320.531
320.348
320.121
319.898
316.276
316.612
316.802
317.057
317.279
317.463
317.738
317.858
317.975
318.068
318.108
318.139
318.162
318.169
318.004
317.928
317.845
317.67
317.443
317.311
313.851
314.057
314.271
314.414
314.699
314.859
315.039
315.148
315.3
315.308
315.369
315.409
315.353
315.343
315.33
315.235
315.158
315.001
314.872
314.638
311.301
311.475
311.734
311.857
312.1
312.202
312.294
312.391
312.535
312.53
312.623
312.592
312.571
312.653
312.498
312.468
312.412
312.265
312.148
312.027
308.856
309.009
309.134
309.244
309.399
309.495
309.638
309.638
309.787
309.697
309.77
309.851
309.833
309.862
309.764
309.739
309.616
309.563
309.461
309.385
306.377
306.446
306.511
306.6
306.744
306.822
306.9
306.933
307.025
307.005
307.023
307.057
307.055
307.027
306.914
306.962
306.926
306.821
306.727
306.729
303.832
303.925
303.871
304.004
304.063
304.064
304.116
304.14
304.18
304.227
304.255
304.238
304.233
304.244
304.231
304.181
304.185
304.163
304.105
304.032
301.241
301.333
301.346
301.37
301.318
301.429
301.347
301.417
301.358
301.402
301.458
301.438
301.405
301.468
301.46
301.442
301.387
301.361
301.366
301.325
319.517
319.859
320.18
320.476
320.691
321.003
321.221
321.437
321.625
321.637
321.736
321.751
321.774
321.806
321.687
321.624
321.413
321.198
320.925
320.719
317.045
317.326
317.595
317.856
318.086
318.253
318.456
318.617
318.688
318.806
318.916
318.906
318.916
318.945
318.846
318.759
318.587
318.44
318.225
318.001
314.458
314.617
314.855
315.141
315.332
315.471
315.638
315.818
315.91
316.024
316.001
316.09
316.112
316.05
315.971
315.862
315.725
315.606
315.465
315.307
311.818
312.081
312.181
312.422
312.561
312.775
312.867
312.936
313.065
313.194
313.19
313.2
313.206
313.163
313.066
312.99
312.968
312.824
312.715
312.482
309.267
309.402
309.55
309.663
309.801
309.956
310.021
310.173
310.203
310.246
310.209
310.279
310.273
310.33
310.218
310.09
310.02
309.988
309.845
309.74
306.637
306.676
306.864
306.877
307.015
307.04
307.236
307.24
307.313
307.3
307.4
307.332
307.385
307.334
307.311
307.239
307.221
307.12
307.074
306.973
304
303.983
304.178
304.17
304.244
304.327
304.319
304.321
304.409
304.372
304.387
304.456
304.407
304.437
304.42
304.393
304.398
304.285
304.25
304.179
301.374
301.381
301.309
301.44
301.401
301.394
301.435
301.423
301.483
301.454
301.401
301.477
301.546
301.511
301.382
301.429
301.471
301.499
301.369
301.47
320.274
320.586
320.997
321.333
321.655
321.934
322.094
322.332
322.457
322.621
322.682
322.704
322.694
322.633
322.59
322.42
322.233
322.064
321.848
321.536
317.649
317.966
318.239
318.456
318.804
319.018
319.195
319.412
319.542
319.615
319.668
319.771
319.726
319.724
319.656
319.439
319.334
319.166
318.905
318.771
315.037
315.298
315.453
315.728
315.909
316.2
316.331
316.439
316.525
316.665
316.708
316.792
316.671
316.674
316.671
316.56
316.415
316.238
316.032
315.857
312.297
312.543
312.673
312.934
313.146
313.241
313.401
313.547
313.579
313.623
313.664
313.681
313.688
313.7
313.657
313.502
313.414
313.354
313.134
313.002
309.67
309.753
309.914
310.102
310.146
310.382
310.434
310.504
310.657
310.669
310.598
310.738
310.701
310.664
310.61
310.6
310.441
310.31
310.224
310.18
306.848
306.873
307.068
307.221
307.318
307.398
307.457
307.559
307.546
307.559
307.637
307.656
307.668
307.643
307.569
307.568
307.438
307.458
307.315
307.248
304.141
304.212
304.31
304.319
304.415
304.416
304.422
304.575
304.57
304.56
304.566
304.589
304.608
304.562
304.587
304.572
304.486
304.522
304.454
304.399
301.355
301.392
301.45
301.452
301.514
301.567
301.528
301.54
301.482
301.59
301.504
301.517
301.576
301.546
301.52
301.561
301.503
301.535
301.509
301.473
321.021
321.436
321.738
322.122
322.437
322.671
323.025
323.184
323.309
323.456
323.495
323.591
323.629
323.56
323.442
323.306
323.094
322.897
322.539
322.375
318.323
318.585
318.949
319.259
319.529
319.776
319.943
320.138
320.295
320.396
320.417
320.554
320.53
320.404
320.323
320.258
320.074
319.957
319.584
319.373
315.582
315.764
316.105
316.33
316.534
316.771
316.95
317.16
317.165
317.283
317.414
317.361
317.363
317.347
317.222
317.131
317.007
316.804
316.679
316.461
312.769
312.977
313.12
313.364
313.632
313.753
313.877
314.04
314.082
314.205
314.328
314.19
314.258
314.22
314.115
314.054
313.959
313.832
313.633
313.445
309.935
310.056
310.209
310.495
310.614
310.7
310.861
310.969
311.107
311.031
311.119
311.08
311.15
311.14
310.994
311.001
310.891
310.828
310.668
310.516
307.148
307.217
307.394
307.464
307.569
307.7
307.71
307.804
307.869
307.948
307.866
307.949
307.944
307.866
307.91
307.799
307.724
307.659
307.635
307.481
304.299
304.417
304.408
304.51
304.542
304.644
304.646
304.721
304.793
304.784
304.787
304.738
304.778
304.819
304.704
304.765
304.69
304.584
304.576
304.581
301.502
301.428
301.471
301.488
301.519
301.567
301.576
301.637
301.645
301.597
301.595
301.581
301.609
301.593
301.668
301.577
301.557
301.544
301.499
301.479
321.765
322.08
322.514
322.893
323.208
323.561
323.831
324.046
324.225
324.332
324.366
324.434
324.412
324.357
324.331
324.13
323.895
323.676
323.328
323.055
318.913
319.243
319.541
319.941
320.206
320.452
320.7
320.843
321.054
321.124
321.238
321.184
321.212
321.183
321.096
320.976
320.811
320.664
320.279
320.118
316.117
316.364
316.569
316.902
317.089
317.31
317.521
317.714
317.849
317.989
317.966
317.926
317.961
317.938
317.838
317.815
317.624
317.506
317.194
317.004
313.168
313.37
313.62
313.87
314.135
314.238
314.376
314.538
314.62
314.641
314.815
314.776
314.784
314.795
314.707
314.599
314.461
314.278
314.133
313.957
310.307
310.42
310.657
310.76
310.952
311.085
311.231
311.342
311.419
311.458
311.386
311.49
311.498
311.527
311.445
311.318
311.207
311.142
311.017
310.945
307.383
307.563
307.601
307.758
307.853
307.901
308.013
308.084
308.221
308.16
308.219
308.255
308.269
308.233
308.133
308.107
308.003
307.925
307.899
307.696
304.449
304.618
304.576
304.679
304.649
304.79
304.811
304.839
304.898
304.848
304.919
304.933
304.942
304.908
304.902
304.894
304.827
304.811
304.726
304.642
301.455
301.496
301.531
301.551
301.591
301.645
301.64
301.618
301.663
301.623
301.589
301.685
301.663
301.617
301.647
301.569
301.537
301.597
301.594
301.576
322.443
322.85
323.191
323.702
323.997
324.249
324.645
324.734
324.949
325.068
325.163
325.203
325.239
325.178
325.005
324.909
324.651
324.359
324.117
323.789
319.512
319.82
320.143
320.557
320.923
321.149
321.391
321.523
321.662
321.83
321.925
321.865
321.854
321.881
321.757
321.644
321.399
321.181
320.922
320.723
316.513
316.878
317.089
317.373
317.716
317.974
318.023
318.31
318.457
318.466
318.62
318.624
318.521
318.536
318.514
318.351
318.192
318.012
317.673
317.585
313.636
313.836
314.055
314.309
314.492
314.753
314.822
315.004
315.108
315.231
315.209
315.308
315.247
315.222
315.137
315.017
314.845
314.704
314.493
314.399
310.581
310.719
311.014
311.203
311.354
311.491
311.528
311.684
311.782
311.778
311.823
311.812
311.919
311.825
311.828
311.764
311.629
311.517
311.328
311.167
307.542
307.65
307.813
308.037
308.082
308.26
308.307
308.374
308.397
308.48
308.483
308.477
308.516
308.481
308.494
308.401
308.296
308.192
308.047
308.024
304.578
304.654
304.722
304.746
304.826
304.865
304.945
305
305.059
305.084
305.127
305.076
305.101
305.144
305.036
305.013
304.976
304.923
304.837
304.74
301.491
301.56
301.673
301.607
301.68
301.67
301.671
301.67
301.669
301.645
301.762
301.748
301.697
301.773
301.667
301.656
301.674
301.7
301.614
301.676
323.061
323.527
323.944
324.301
324.688
325.041
325.353
325.573
325.784
325.925
326.003
326.023
326.055
325.919
325.873
325.626
325.371
325.141
324.779
324.549
320.124
320.374
320.752
321.181
321.542
321.835
322.017
322.189
322.445
322.495
322.597
322.541
322.567
322.532
322.472
322.363
322.106
321.768
321.533
321.355
317.049
317.305
317.542
318.014
318.235
318.478
318.659
318.918
318.888
319.075
319.2
319.149
319.188
319.079
318.992
318.853
318.68
318.519
318.219
317.98
314.003
314.183
314.463
314.749
314.894
315.145
315.339
315.441
315.548
315.632
315.684
315.719
315.7
315.741
315.563
315.5
315.381
315.11
314.992
314.773
310.857
311.073
311.268
311.445
311.658
311.821
311.959
311.999
312.15
312.229
312.203
312.22
312.179
312.145
312.187
312.051
311.921
311.781
311.735
311.5
307.779
307.91
308.086
308.144
308.313
308.471
308.486
308.618
308.702
308.736
308.796
308.763
308.8
308.738
308.67
308.583
308.55
308.457
308.378
308.249
304.686
304.78
304.849
304.92
305.043
305.088
305.139
305.155
305.196
305.208
305.251
305.27
305.259
305.246
305.24
305.216
305.061
305.083
304.971
304.984
301.602
301.539
301.655
301.669
301.6
301.653
301.759
301.824
301.813
301.794
301.757
301.764
301.7
301.739
301.806
301.751
301.735
301.756
301.735
301.703
323.632
324.152
324.543
324.921
325.383
325.775
326.063
326.208
326.48
326.553
326.68
326.785
326.672
326.68
326.558
326.315
326.104
325.758
325.453
325.183
320.605
320.999
321.372
321.808
322.075
322.397
322.653
322.849
323.002
323.141
323.249
323.212
323.226
323.127
323.021
322.878
322.674
322.384
322.096
321.855
317.47
317.809
318.125
318.496
318.775
319.009
319.197
319.382
319.44
319.603
319.74
319.665
319.685
319.662
319.482
319.414
319.189
318.996
318.74
318.477
314.382
314.581
314.844
315.174
315.306
315.583
315.744
315.868
315.983
316.127
316.122
316.137
316.091
316.119
316.042
315.902
315.82
315.578
315.336
315.192
311.178
311.398
311.548
311.801
312.028
312.082
312.295
312.407
312.519
312.572
312.546
312.578
312.573
312.499
312.473
312.377
312.268
312.126
311.992
311.846
307.999
308.195
308.331
308.479
308.549
308.654
308.772
308.804
308.826
308.973
308.982
308.974
308.996
309.002
308.917
308.811
308.754
308.657
308.652
308.466
304.822
304.859
305.012
305.033
305.196
305.223
305.332
305.356
305.315
305.417
305.373
305.413
305.405
305.382
305.348
305.287
305.24
305.193
305.169
305.047
301.683
301.607
301.721
301.642
301.689
301.718
301.688
301.755
301.816
301.807
301.738
301.817
301.769
301.757
301.781
301.774
301.748
301.745
301.752
301.674
324.203
324.685
325.199
325.596
325.995
326.469
326.677
326.97
327.206
327.229
327.378
327.438
327.4
327.363
327.161
327
326.763
326.389
326.102
325.769
321.057
321.521
321.798
322.236
322.579
322.912
323.196
323.411
323.585
323.714
323.755
323.796
323.829
323.776
323.612
323.501
323.243
322.907
322.676
322.378
317.946
318.219
318.488
318.887
319.217
319.439
319.705
319.848
320.03
320.123
320.19
320.195
320.189
320.199
320.023
319.919
319.657
319.448
319.233
318.987
314.719
314.889
315.255
315.502
315.761
315.955
316.106
316.326
316.336
316.515
316.561
316.595
316.543
316.463
316.313
316.288
316.163
315.911
315.724
315.52
311.462
311.644
311.865
312.114
312.196
312.433
312.611
312.706
312.819
312.863
312.931
312.936
312.894
312.824
312.834
312.665
312.629
312.437
312.258
312.099
308.203
308.297
308.557
308.649
308.745
308.949
309.017
309.086
309.215
309.265
309.26
309.228
309.334
309.199
309.155
309.123
308.983
308.807
308.743
308.668
304.901
304.957
305.128
305.212
305.271
305.324
305.384
305.429
305.5
305.475
305.517
305.596
305.578
305.544
305.511
305.383
305.384
305.401
305.303
305.199
301.621
301.681
301.672
301.7
301.847
301.812
301.804
301.809
301.868
301.819
301.837
301.871
301.818
301.854
301.814
301.83
301.854
301.759
301.772
301.833
324.763
325.202
325.73
326.249
326.616
327
327.283
327.558
327.767
327.889
328.077
328.048
328.086
327.984
327.846
327.559
327.394
327.013
326.691
326.27
321.489
321.923
322.388
322.736
323.154
323.474
323.767
323.929
324.145
324.281
324.322
324.391
324.367
324.308
324.152
323.985
323.768
323.501
323.126
322.873
318.246
318.631
318.951
319.362
319.621
319.836
320.094
320.275
320.467
320.541
320.604
320.647
320.667
320.612
320.507
320.354
320.111
319.868
319.653
319.419
315.042
315.234
315.526
315.839
316.099
316.366
316.467
316.65
316.743
316.904
316.873
316.982
316.979
316.855
316.842
316.67
316.507
316.249
316.105
315.882
311.7
311.901
312.137
312.353
312.574
312.752
312.897
312.947
313.151
313.198
313.243
313.268
313.208
313.196
313.074
313.051
312.863
312.691
312.496
312.426
308.355
308.43
308.694
308.781
308.995
309.098
309.137
309.287
309.404
309.413
309.457
309.353
309.493
309.368
309.318
309.278
309.221
309.024
308.928
308.852
305.048
305.227
305.193
305.315
305.362
305.52
305.489
305.657
305.558
305.686
305.67
305.717
305.679
305.568
305.521
305.53
305.504
305.534
305.366
305.32
301.727
301.782
301.777
301.797
301.776
301.803
301.885
301.875
301.874
301.93
301.858
301.839
301.906
301.828
301.933
301.799
301.833
301.815
301.727
301.768
325.227
325.64
326.163
326.717
327.155
327.503
327.857
328.087
328.372
328.549
328.536
328.692
328.607
328.584
328.402
328.218
327.917
327.514
327.157
326.837
321.955
322.259
322.903
323.187
323.617
323.897
324.257
324.46
324.626
324.764
324.867
324.889
324.807
324.797
324.677
324.455
324.201
323.908
323.564
323.286
318.602
319.018
319.373
319.697
320.055
320.236
320.495
320.7
320.864
321.006
321.053
321.125
321.026
321.057
320.872
320.765
320.474
320.295
319.935
319.733
315.336
315.467
315.796
316.14
316.414
316.601
316.857
317.03
317.086
317.177
317.272
317.314
317.259
317.251
317.095
316.969
316.855
316.679
316.383
316.151
312.025
312.088
312.356
312.599
312.836
312.974
313.054
313.253
313.372
313.403
313.45
313.551
313.489
313.428
313.319
313.263
313.085
312.933
312.808
312.681
308.491
308.674
308.812
308.944
309.148
309.23
309.343
309.545
309.517
309.546
309.614
309.655
309.588
309.58
309.5
309.497
309.391
309.234
309.126
308.992
305.123
305.232
305.274
305.402
305.414
305.534
305.638
305.754
305.706
305.775
305.799
305.784
305.771
305.77
305.675
305.74
305.578
305.537
305.508
305.413
301.716
301.738
301.761
301.808
301.889
301.851
301.914
301.902
301.943
301.934
301.911
301.912
301.905
301.94
301.919
301.885
301.888
301.845
301.886
301.85
325.627
326.136
326.63
327.165
327.582
327.981
328.349
328.596
328.871
329.004
329.141
329.122
329.137
329.016
328.859
328.727
328.389
328.021
327.612
327.236
322.263
322.662
323.213
323.605
323.955
324.278
324.686
324.796
325.048
325.197
325.376
325.372
325.309
325.141
325.09
324.879
324.627
324.322
324.035
323.681
318.919
319.301
319.686
320.029
320.338
320.637
320.836
321.115
321.278
321.451
321.447
321.462
321.414
321.436
321.259
321.134
320.882
320.641
320.281
320.011
315.552
315.846
316.175
316.411
316.693
316.89
317.167
317.317
317.442
317.492
317.545
317.637
317.647
317.5
317.436
317.354
317.123
316.889
316.636
316.424
312.132
312.334
312.529
312.803
313.034
313.172
313.382
313.458
313.606
313.681
313.719
313.69
313.66
313.666
313.561
313.446
313.291
313.081
312.997
312.79
308.723
308.822
309.003
309.104
309.333
309.469
309.472
309.676
309.746
309.721
309.764
309.816
309.828
309.7
309.719
309.64
309.567
309.426
309.238
309.171
305.267
305.339
305.396
305.502
305.595
305.718
305.791
305.796
305.843
305.851
305.883
305.817
305.836
305.88
305.797
305.798
305.715
305.64
305.535
305.447
301.727
301.76
301.813
301.863
301.902
301.874
301.897
301.956
301.977
301.973
301.958
301.974
301.982
301.951
301.925
301.936
301.883
301.817
301.797
301.917
325.904
326.451
326.995
327.468
328.018
328.402
328.79
328.948
329.221
329.452
329.533
329.575
329.501
329.43
329.262
329.052
328.72
328.412
327.956
327.612
322.575
323.004
323.509
323.902
324.341
324.622
324.943
325.231
325.406
325.556
325.65
325.733
325.67
325.588
325.413
325.171
324.959
324.662
324.35
323.92
319.139
319.543
319.891
320.231
320.622
320.961
321.258
321.447
321.514
321.661
321.757
321.856
321.764
321.715
321.624
321.404
321.153
320.91
320.598
320.343
315.691
316.016
316.341
316.65
316.9
317.192
317.378
317.484
317.74
317.769
317.858
317.826
317.848
317.749
317.688
317.536
317.242
317.129
316.858
316.582
312.321
312.459
312.766
312.942
313.216
313.379
313.493
313.707
313.713
313.947
313.888
313.915
313.9
313.805
313.744
313.645
313.558
313.316
313.125
313.011
308.749
308.879
309.037
309.285
309.452
309.544
309.673
309.747
309.833
309.927
309.95
309.911
309.948
309.888
309.858
309.759
309.609
309.574
309.363
309.324
305.254
305.429
305.435
305.522
305.649
305.765
305.757
305.938
305.945
305.984
305.947
305.983
305.979
305.902
305.92
305.893
305.806
305.725
305.676
305.553
301.714
301.833
301.866
301.839
301.909
301.944
301.973
302.003
302.039
301.978
302.016
301.995
301.996
302.002
301.979
301.966
301.919
301.852
301.944
301.867
326.174
326.707
327.285
327.807
328.288
328.615
329.014
329.301
329.477
329.72
329.812
329.844
329.857
329.717
329.491
329.356
329.001
328.675
328.195
327.873
322.756
323.203
323.662
324.068
324.474
324.916
325.212
325.413
325.663
325.793
325.853
325.895
325.895
325.829
325.68
325.427
325.138
324.867
324.49
324.173
319.278
319.686
320.048
320.443
320.779
321.082
321.322
321.535
321.744
321.905
321.919
321.904
322.01
321.876
321.76
321.49
321.349
321.081
320.766
320.427
315.846
316.1
316.455
316.757
317.082
317.233
317.466
317.627
317.834
317.959
317.903
317.994
317.969
317.925
317.719
317.694
317.464
317.275
317.025
316.763
312.396
312.562
312.828
313.057
313.35
313.414
313.605
313.777
313.878
314.007
313.973
313.978
314.028
313.945
313.807
313.74
313.644
313.471
313.278
313.002
308.798
308.993
309.145
309.394
309.517
309.601
309.733
309.803
309.932
310.033
310.028
310.04
310.071
310.022
309.882
309.774
309.69
309.581
309.454
309.305
305.318
305.497
305.478
305.62
305.743
305.752
305.797
305.933
305.914
305.972
305.95
306.007
306.02
306.078
305.95
305.896
305.797
305.748
305.692
305.66
301.785
301.803
301.824
301.819
301.959
301.932
301.948
302.011
302.062
302.016
302.043
302.014
302.068
302.044
301.966
301.98
302.051
301.913
301.864
301.887
)
;

boundaryField
{
    hotSide
    {
        type            fixedGradient;
        gradient        nonuniform List<scalar> 
400
(
321.511
322.87
325.591
329.677
335.133
341.965
350.181
359.788
370.794
383.208
397.037
412.289
428.971
447.088
466.647
487.651
510.105
534.011
559.372
586.191
323.738
325.08
327.767
331.802
337.194
343.949
352.078
361.591
372.498
384.81
398.537
413.687
430.268
448.289
467.755
488.672
511.043
534.872
560.161
586.913
326.149
327.47
330.116
334.091
339.406
346.071
354.099
363.503
374.296
386.491
400.101
415.136
431.606
449.52
468.885
489.706
511.988
535.735
560.948
587.63
328.704
330
332.597
336.503
341.73
348.292
356.205
365.485
376.15
388.215
401.695
416.604
432.954
450.753
470.009
490.73
512.919
536.579
561.714
588.325
331.33
332.599
335.142
338.97
344.099
350.546
358.332
367.477
378.003
389.928
403.271
418.047
434.27
451.949
471.095
491.712
513.807
537.382
562.439
588.978
333.918
335.158
337.643
341.389
346.414
352.74
360.392
369.397
379.779
391.562
404.765
419.407
435.503
453.065
472.101
492.618
514.622
538.114
563.096
589.569
336.321
337.531
339.959
343.622
348.544
354.751
362.274
371.142
381.385
393.031
406.101
420.618
436.595
454.047
472.983
493.409
515.33
538.747
563.663
590.076
338.36
339.543
341.92
345.509
350.339
356.44
363.847
372.595
382.718
394.244
407.2
421.608
437.485
454.844
473.695
494.045
515.897
539.253
564.114
590.478
339.852
341.015
343.352
346.885
351.645
357.665
364.985
373.643
383.675
395.113
407.984
422.312
438.116
455.407
474.197
494.491
516.294
539.606
564.428
590.758
340.643
341.795
344.11
347.613
352.334
358.311
365.584
374.193
384.176
395.567
408.393
422.679
438.443
455.699
474.456
494.722
516.498
539.788
564.589
590.901
340.643
341.795
344.11
347.613
352.334
358.311
365.584
374.193
384.176
395.567
408.393
422.679
438.443
455.699
474.456
494.722
516.498
539.788
564.589
590.901
339.852
341.015
343.352
346.885
351.645
357.665
364.985
373.643
383.675
395.113
407.984
422.312
438.116
455.407
474.197
494.491
516.294
539.606
564.428
590.758
338.36
339.543
341.92
345.509
350.339
356.44
363.847
372.595
382.718
394.244
407.2
421.608
437.485
454.844
473.695
494.045
515.897
539.253
564.114
590.478
336.321
337.531
339.959
343.622
348.544
354.751
362.274
371.142
381.385
393.031
406.101
420.618
436.595
454.047
472.983
493.409
515.33
538.747
563.663
590.076
333.918
335.158
337.643
341.389
346.414
352.74
360.392
369.397
379.779
391.562
404.765
419.407
435.503
453.065
472.101
492.618
514.622
538.114
563.096
589.569
331.33
332.599
335.142
338.97
344.099
350.546
358.332
367.477
378.003
389.928
403.271
418.047
434.27
451.949
471.095
491.712
513.807
537.382
562.439
588.978
328.704
330
332.597
336.503
341.73
348.292
356.205
365.485
376.15
388.215
401.695
416.604
432.954
450.753
470.009
490.73
512.919
536.579
561.714
588.325
326.149
327.47
330.116
334.091
339.406
346.071
354.099
363.503
374.296
386.491
400.101
415.136
431.606
449.52
468.885
489.706
511.988
535.735
560.948
587.63
323.738
325.08
327.767
331.802
337.194
343.949
352.078
361.591
372.498
384.81
398.537
413.687
430.268
448.289
467.755
488.672
511.043
534.872
560.161
586.913
321.511
322.87
325.591
329.677
335.133
341.965
350.181
359.788
370.794
383.208
397.037
412.289
428.971
447.088
466.647
487.651
510.105
534.011
559.372
586.191
)
;
    }
    coldSide
    {
        type            mixed;
        refValue        uniform 300;
        refGradient     uniform 0;
        valueFraction   uniform 0.991591;
        source          uniform 0;
        value           nonuniform List<scalar> 
400
(
300.008
300.009
300.009
300.01
300.009
300.011
300.01
300.012
300.011
300.013
300.012
300.013
300.013
300.014
300.014
300.015
300.014
300.015
300.014
300.015
300.008
300.009
300.009
300.01
300.01
300.01
300.011
300.012
300.012
300.012
300.013
300.013
300.013
300.014
300.014
300.015
300.015
300.015
300.015
300.015
300.008