/*--------------------------------*- C++ -*----------------------------------*\
| =========                 |                                                 |
| \\      /  F ield         | OpenFOAM: The Open Source CFD Toolbox           |
|  \\    /   O peration     | Version:  2212                                  |
|   \\  /    A nd           | Website:  www.openfoam.com                      |
|    \\/     M anipulation  |                                                 |
\*---------------------------------------------------------------------------*/
FoamFile
{
    version     2.0;
    format      ascii;
    arch        "LSB;label=32;scalar=64";
    class       volScalarField;
    location    "0";
    object      Ttrue;
}
// * * * * * * * * * * * * * * * * * * * * * * * * * * * * * * * * * * * * * //

dimensions      [0 0 0 1 0 0 0];

internalField   nonuniform List<scalar> 
3200
(
331.503
331.722
332.002
332.308
332.623
332.932
333.217
333.457
333.633
333.725
333.725
333.633
333.457
333.217
332.932
332.623
332.308
332.002
331.722
331.503
327.48
327.666
327.907
328.172
328.444
328.711
328.958
329.166
329.317
329.397
329.397
329.317
329.166
328.958
328.711
328.444
328.172
327.907
327.666
327.48
323.382
323.536
323.74
323.963
324.193
324.419
324.627
324.802
324.93
324.998
324.998
324.93
324.802
324.627
324.419
324.193
323.963
323.74
323.536
323.382
319.22
319.344
319.51
319.693
319.881
320.065
320.235
320.379
320.483
320.538
320.538
320.483
320.379
320.235
320.065
319.881
319.693
319.51
319.344
319.22
315.007
315.102
315.231
315.373
315.519
315.662
315.794
315.906
315.986
316.029
316.029
315.986
315.906
315.794
315.662
315.519
315.373
315.231
315.102
315.007
310.753
310.82
310.912
311.014
311.118
311.22
311.315
311.394
311.452
311.482
311.482
311.452
311.394
311.315
311.22
311.118
311.014
310.912
310.82
310.753
306.471
306.511
306.566
306.627
306.689
306.751
306.807
306.855
306.89
306.908
306.908
306.89
306.855
306.807
306.751
306.689
306.627
306.566
306.511
306.471
302.171
302.184
302.203
302.223
302.244
302.265
302.284
302.3
302.311
302.317
302.317
302.311
302.3
302.284
302.265
302.244
302.223
302.203
302.184
302.171
331.63
331.848
332.126
332.428
332.74
333.045
333.327
333.565
333.738
333.829
333.829
333.738
333.565
333.327
333.045
332.74
332.428
332.126
331.848
331.63
327.591
327.775
328.015
328.277
328.546
328.811
329.054
329.26
329.409
329.488
329.488
329.409
329.26
329.054
328.811
328.546
328.277
328.015
327.775
327.591
323.476
323.629
323.831
324.052
324.28
324.503
324.709
324.882
325.009
325.075
325.075
325.009
324.882
324.709
324.503
324.28
324.052
323.831
323.629
323.476
319.298
319.421
319.585
319.766
319.953
320.135
320.303
320.445
320.547
320.602
320.602
320.547
320.445
320.303
320.135
319.953
319.766
319.585
319.421
319.298
315.067
315.162
315.289
315.43
315.575
315.717
315.847
315.957
316.037
316.079
316.079
316.037
315.957
315.847
315.717
315.575
315.43
315.289
315.162
315.067
310.796
310.863
310.954
311.055
311.158
311.259
311.352
311.431
311.488
311.518
311.518
311.488
311.431
311.352
311.259
311.158
311.055
310.954
310.863
310.796
306.497
306.537
306.591
306.651
306.714
306.774
306.83
306.877
306.912
306.93
306.93
306.912
306.877
306.83
306.774
306.714
306.651
306.591
306.537
306.497
302.18
302.193
302.211
302.232
302.252
302.273
302.291
302.307
302.319
302.325
302.325
302.319
302.307
302.291
302.273
302.252
302.232
302.211
302.193
302.18
331.884
332.099
332.372
332.669
332.974
333.273
333.549
333.78
333.949
334.038
334.038
333.949
333.78
333.549
333.273
332.974
332.669
332.372
332.099
331.884
327.813
327.994
328.23
328.487
328.751
329.01
329.248
329.448
329.594
329.671
329.671
329.594
329.448
329.248
329.01
328.751
328.487
328.23
327.994
327.813
323.665
323.816
324.014
324.231
324.455
324.673
324.874
325.043
325.166
325.231
325.231
325.166
325.043
324.874
324.673
324.455
324.231
324.014
323.816
323.665
319.453
319.574
319.736
319.914
320.096
320.275
320.439
320.577
320.677
320.73
320.73
320.677
320.577
320.439
320.275
320.096
319.914
319.736
319.574
319.453
315.188
315.282
315.407
315.545
315.687
315.826
315.953
316.06
316.138
316.179
316.179
316.138
316.06
315.953
315.826
315.687
315.545
315.407
315.282
315.188
310.883
310.949
311.039
311.137
311.238
311.338
311.429
311.505
311.561
311.59
311.59
311.561
311.505
311.429
311.338
311.238
311.137
311.039
310.949
310.883
306.549
306.588
306.642
306.701
306.762
306.821
306.876
306.922
306.955
306.973
306.973
306.955
306.922
306.876
306.821
306.762
306.701
306.642
306.588
306.549
302.197
302.21
302.228
302.248
302.269
302.289
302.307
302.322
302.333
302.339
302.339
302.333
302.322
302.307
302.289
302.269
302.248
302.228
302.21
302.197
332.267
332.476
332.743
333.032
333.328
333.617
333.883
334.107
334.269
334.355
334.355
334.269
334.107
333.883
333.617
333.328
333.032
332.743
332.476
332.267
328.147
328.324
328.554
328.804
329.06
329.31
329.54
329.733
329.874
329.948
329.948
329.874
329.733
329.54
329.31
329.06
328.804
328.554
328.324
328.147
323.949
324.096
324.29
324.501
324.718
324.929
325.123
325.286
325.405
325.467
325.467
325.405
325.286
325.123
324.929
324.718
324.501
324.29
324.096
323.949
319.686
319.805
319.963
320.135
320.312
320.485
320.644
320.777
320.874
320.925
320.925
320.874
320.777
320.644
320.485
320.312
320.135
319.963
319.805
319.686
315.371
315.462
315.584
315.718
315.856
315.99
316.114
316.217
316.292
316.332
316.332
316.292
316.217
316.114
315.99
315.856
315.718
315.584
315.462
315.371
311.014
311.078
311.165
311.261
311.36
311.456
311.544
311.617
311.671
311.699
311.699
311.671
311.617
311.544
311.456
311.36
311.261
311.165
311.078
311.014
306.628
306.666
306.718
306.776
306.835
306.892
306.945
306.99
307.022
307.039
307.039
307.022
306.99
306.945
306.892
306.835
306.776
306.718
306.666
306.628
302.224
302.236
302.254
302.273
302.293
302.312
302.33
302.345
302.356
302.361
302.361
302.356
302.345
302.33
302.312
302.293
302.273
302.254
302.236
302.224
332.778
332.981
333.239
333.517
333.802
334.079
334.334
334.547
334.701
334.782
334.782
334.701
334.547
334.334
334.079
333.802
333.517
333.239
332.981
332.778
328.592
328.764
328.986
329.228
329.474
329.714
329.934
330.118
330.251
330.322
330.322
330.251
330.118
329.934
329.714
329.474
329.228
328.986
328.764
328.592
324.328
324.471
324.658
324.862
325.07
325.273
325.459
325.614
325.727
325.786
325.786
325.727
325.614
325.459
325.273
325.07
324.862
324.658
324.471
324.328
319.998
320.113
320.265
320.432
320.602
320.768
320.92
321.047
321.139
321.187
321.187
321.139
321.047
320.92
320.768
320.602
320.432
320.265
320.113
319.998
315.614
315.702
315.821
315.95
316.082
316.211
316.329
316.428
316.499
316.537
316.537
316.499
316.428
316.329
316.211
316.082
315.95
315.821
315.702
315.614
311.188
311.251
311.335
311.427
311.522
311.614
311.698
311.769
311.82
311.846
311.846
311.82
311.769
311.698
311.614
311.522
311.427
311.335
311.251
311.188
306.732
306.77
306.82
306.876
306.933
306.988
307.038
307.081
307.111
307.127
307.127
307.111
307.081
307.038
306.988
306.933
306.876
306.82
306.77
306.732
302.259
302.271
302.288
302.307
302.326
302.344
302.361
302.375
302.386
302.391
302.391
302.386
302.375
302.361
302.344
302.326
302.307
302.288
302.271
302.259
333.419
333.614
333.861
334.128
334.399
334.662
334.903
335.104
335.249
335.326
335.326
335.249
335.104
334.903
334.662
334.399
334.128
333.861
333.614
333.419
329.151
329.316
329.53
329.76
329.995
330.223
330.431
330.605
330.731
330.797
330.797
330.731
330.605
330.431
330.223
329.995
329.76
329.53
329.316
329.151
324.804
324.941
325.12
325.315
325.514
325.707
325.882
326.029
326.135
326.191
326.191
326.135
326.029
325.882
325.707
325.514
325.315
325.12
324.941
324.804
320.389
320.499
320.646
320.805
320.967
321.125
321.268
321.388
321.475
321.521
321.521
321.475
321.388
321.268
321.125
320.967
320.805
320.646
320.499
320.389
315.919
316.004
316.117
316.241
316.368
316.49
316.602
316.695
316.762
316.797
316.797
316.762
316.695
316.602
316.49
316.368
316.241
316.117
316.004
315.919
311.407
311.467
311.548
311.636
311.726
311.814
311.893
311.96
312.008
312.033
312.033
312.008
311.96
311.893
311.814
311.726
311.636
311.548
311.467
311.407
306.864
306.9
306.948
307.001
307.056
307.108
307.156
307.196
307.225
307.24
307.24
307.225
307.196
307.156
307.108
307.056
307.001
306.948
306.9
306.864
302.303
302.315
302.331
302.349
302.367
302.385
302.401
302.414
302.424
302.429
302.429
302.424
302.414
302.401
302.385
302.367
302.349
302.331
302.315
302.303
334.19
334.376
334.612
334.865
335.121
335.369
335.594
335.782
335.918
335.989
335.989
335.918
335.782
335.594
335.369
335.121
334.865
334.612
334.376
334.19
329.823
329.981
330.185
330.404
330.626
330.84
331.035
331.198
331.315
331.376
331.376
331.315
331.198
331.035
330.84
330.626
330.404
330.185
329.981
329.823
325.375
325.507
325.678
325.863
326.051
326.232
326.397
326.534
326.633
326.685
326.685
326.633
326.534
326.397
326.232
326.051
325.863
325.678
325.507
325.375
320.859
320.964
321.104
321.255
321.409
321.557
321.692
321.804
321.885
321.927
321.927
321.885
321.804
321.692
321.557
321.409
321.255
321.104
320.964
320.859
316.286
316.367
316.475
316.593
316.712
316.828
316.932
317.02
317.082
317.115
317.115
317.082
317.02
316.932
316.828
316.712
316.593
316.475
316.367
316.286
311.67
311.727
311.804
311.888
311.973
312.056
312.131
312.193
312.238
312.261
312.261
312.238
312.193
312.131
312.056
311.973
311.888
311.804
311.727
311.67
307.022
307.056
307.103
307.153
307.204
307.254
307.299
307.336
307.363
307.377
307.377
307.363
307.336
307.299
307.254
307.204
307.153
307.103
307.056
307.022
302.356
302.367
302.383
302.4
302.417
302.434
302.449
302.461
302.47
302.475
302.475
302.47
302.461
302.449
302.434
302.417
302.4
302.383
302.367
302.356
335.092
335.269
335.492
335.73
335.971
336.202
336.412
336.586
336.711
336.777
336.777
336.711
336.586
336.412
336.202
335.971
335.73
335.492
335.269
335.092
330.61
330.76
330.953
331.159
331.367
331.568
331.749
331.9
332.008
332.065
332.065
332.008
331.9
331.749
331.568
331.367
331.159
330.953
330.76
330.61
326.045
326.169
326.331
326.506
326.682
326.852
327.005
327.132
327.224
327.271
327.271
327.224
327.132
327.005
326.852
326.682
326.506
326.331
326.169
326.045
321.409
321.509
321.641
321.784
321.928
322.067
322.192
322.296
322.371
322.41
322.41
322.371
322.296
322.192
322.067
321.928
321.784
321.641
321.509
321.409
316.716
316.793
316.895
317.006
317.118
317.226
317.323
317.404
317.462
317.492
317.492
317.462
317.404
317.323
317.226
317.118
317.006
316.895
316.793
316.716
311.977
312.032
312.105
312.184
312.264
312.341
312.411
312.468
312.51
312.532
312.532
312.51
312.468
312.411
312.341
312.264
312.184
312.105
312.032
311.977
307.207
307.24
307.284
307.331
307.379
307.426
307.467
307.502
307.527
307.54
307.54
307.527
307.502
307.467
307.426
307.379
307.331
307.284
307.24
307.207
302.418
302.429
302.444
302.46
302.476
302.491
302.505
302.517
302.525
302.53
302.53
302.525
302.517
302.505
302.491
302.476
302.46
302.444
302.429
302.418
336.126
336.294
336.503
336.727
336.951
337.165
337.359
337.519
337.633
337.693
337.693
337.633
337.519
337.359
337.165
336.951
336.727
336.503
336.294
336.126
331.512
331.654
331.835
332.028
332.222
332.408
332.576
332.714
332.813
332.865
332.865
332.813
332.714
332.576
332.408
332.222
332.028
331.835
331.654
331.512
326.812
326.93
327.083
327.246
327.41
327.567
327.709
327.826
327.91
327.954
327.954
327.91
327.826
327.709
327.567
327.41
327.246
327.083
326.93
326.812
322.04
322.135
322.259
322.392
322.527
322.655
322.771
322.867
322.935
322.971
322.971
322.935
322.867
322.771
322.655
322.527
322.392
322.259
322.135
322.04
317.208
317.281
317.377
317.481
317.586
317.686
317.776
317.85
317.903
317.931
317.931
317.903
317.85
317.776
317.686
317.586
317.481
317.377
317.281
317.208
312.33
312.382
312.451
312.525
312.599
312.671
312.735
312.788
312.826
312.846
312.846
312.826
312.788
312.735
312.671
312.599
312.525
312.451
312.382
312.33
307.42
307.45
307.492
307.536
307.581
307.624
307.662
307.694
307.717
307.729
307.729
307.717
307.694
307.662
307.624
307.581
307.536
307.492
307.45
307.42
302.489
302.5
302.513
302.528
302.543
302.558
302.571
302.581
302.589
302.593
302.593
302.589
302.581
302.571
302.558
302.543
302.528
302.513
302.5
302.489
337.294
337.451
337.647
337.855
338.063
338.26
338.438
338.584
338.688
338.743
338.743
338.688
338.584
338.438
338.26
338.063
337.855
337.647
337.451
337.294
332.531
332.664
332.833
333.013
333.193
333.364
333.518
333.644
333.735
333.782
333.782
333.735
333.644
333.518
333.364
333.193
333.013
332.833
332.664
332.531
327.679
327.789
327.932
328.084
328.236
328.381
328.511
328.618
328.694
328.734
328.734
328.694
328.618
328.511
328.381
328.236
328.084
327.932
327.789
327.679
322.752
322.841
322.957
323.082
323.206
323.325
323.431
323.518
323.581
323.613
323.613
323.581
323.518
323.431
323.325
323.206
323.082
322.957
322.841
322.752
317.764
317.832
317.923
318.019
318.116
318.208
318.291
318.359
318.407
318.433
318.433
318.407
318.359
318.291
318.208
318.116
318.019
317.923
317.832
317.764
312.729
312.777
312.841
312.91
312.98
313.045
313.104
313.153
313.188
313.206
313.206
313.188
313.153
313.104
313.045
312.98
312.91
312.841
312.777
312.729
307.659
307.688
307.727
307.768
307.81
307.849
307.885
307.914
307.935
307.946
307.946
307.935
307.914
307.885
307.849
307.81
307.768
307.727
307.688
307.659
302.57
302.579
302.592
302.606
302.62
302.633
302.645
302.655
302.662
302.666
302.666
302.662
302.655
302.645
302.633
302.62
302.606
302.592
302.579
302.57
338.596
338.743
338.926
339.118
339.309
339.49
339.652
339.785
339.879
339.929
339.929
339.879
339.785
339.652
339.49
339.309
339.118
338.926
338.743
338.596
333.666
333.791
333.948
334.115
334.281
334.438
334.578
334.693
334.775
334.817
334.817
334.775
334.693
334.578
334.438
334.281
334.115
333.948
333.791
333.666
328.645
328.748
328.881
329.022
329.162
329.295
329.413
329.511
329.58
329.616
329.616
329.58
329.511
329.413
329.295
329.162
329.022
328.881
328.748
328.645
323.546
323.629
323.737
323.853
323.967
324.076
324.173
324.252
324.309
324.338
324.338
324.309
324.252
324.173
324.076
323.967
323.853
323.737
323.629
323.546
318.384
318.448
318.532
318.621
318.711
318.795
318.871
318.932
318.976
318.999
318.999
318.976
318.932
318.871
318.795
318.711
318.621
318.532
318.448
318.384
313.173
313.218
313.278
313.342
313.406
313.466
313.52
313.564
313.595
313.612
313.612
313.595
313.564
313.52
313.466
313.406
313.342
313.278
313.218
313.173
307.927
307.954
307.99
308.028
308.066
308.102
308.135
308.161
308.18
308.19
308.19
308.18
308.161
308.135
308.102
308.066
308.028
307.99
307.954
307.927
302.659
302.668
302.681
302.693
302.706
302.718
302.729
302.738
302.744
302.748
302.748
302.744
302.738
302.729
302.718
302.706
302.693
302.681
302.668
302.659
340.032
340.169
340.339
340.516
340.692
340.857
341.004
341.124
341.209
341.253
341.253
341.209
341.124
341.004
340.857
340.692
340.516
340.339
340.169
340.032
334.919
335.035
335.181
335.335
335.487
335.63
335.757
335.861
335.935
335.973
335.973
335.935
335.861
335.757
335.63
335.487
335.335
335.181
335.035
334.919
329.711
329.807
329.93
330.06
330.189
330.31
330.417
330.505
330.568
330.6
330.6
330.568
330.505
330.417
330.31
330.189
330.06
329.93
329.807
329.711
324.422
324.499
324.6
324.706
324.811
324.911
324.999
325.07
325.122
325.148
325.148
325.122
325.07
324.999
324.911
324.811
324.706
324.6
324.499
324.422
319.068
319.127
319.205
319.288
319.37
319.447
319.515
319.571
319.611
319.632
319.632
319.611
319.571
319.515
319.447
319.37
319.288
319.205
319.127
319.068
313.663
313.705
313.76
313.819
313.878
313.933
313.982
314.022
314.05
314.065
314.065
314.05
314.022
313.982
313.933
313.878
313.819
313.76
313.705
313.663
308.221
308.247
308.28
308.315
308.35
308.384
308.413
308.437
308.454
308.463
308.463
308.454
308.437
308.413
308.384
308.35
308.315
308.28
308.247
308.221
302.758
302.767
302.778
302.79
302.802
302.813
302.823
302.831
302.836
302.839
302.839
302.836
302.831
302.823
302.813
302.802
302.79
302.778
302.767
302.758
341.604
341.731
341.888
342.051
342.211
342.361
342.494
342.602
342.678
342.718
342.718
342.678
342.602
342.494
342.361
342.211
342.051
341.888
341.731
341.604
336.29
336.397
336.532
336.674
336.812
336.943
337.058
337.151
337.217
337.252
337.252
337.217
337.151
337.058
336.943
336.812
336.674
336.532
336.397
336.29
330.877
330.966
331.08
331.199
331.317
331.427
331.524
331.603
331.659
331.688
331.688
331.659
331.603
331.524
331.427
331.317
331.199
331.08
330.966
330.877
325.38
325.452
325.545
325.642
325.739
325.829
325.908
325.973
326.019
326.043
326.043
326.019
325.973
325.908
325.829
325.739
325.642
325.545
325.452
325.38
319.816
319.871
319.943
320.019
320.094
320.164
320.226
320.276
320.312
320.33
320.33
320.312
320.276
320.226
320.164
320.094
320.019
319.943
319.871
319.816
314.199
314.238
314.289
314.343
314.397
314.447
314.491
314.527
314.553
314.566
314.566
314.553
314.527
314.491
314.447
314.397
314.343
314.289
314.238
314.199
308.544
308.567
308.598
308.631
308.663
308.693
308.719
308.741
308.756
308.764
308.764
308.756
308.741
308.719
308.693
308.663
308.631
308.598
308.567
308.544
302.867
302.874
302.885
302.896
302.906
302.916
302.925
302.933
302.938
302.94
302.94
302.938
302.933
302.925
302.916
302.906
302.896
302.885
302.874
302.867
343.31
343.428
343.572
343.721
343.867
344.003
344.123
344.22
344.288
344.323
344.323
344.288
344.22
344.123
344.003
343.867
343.721
343.572
343.428
343.31
337.777
337.877
338.001
338.13
338.257
338.375
338.478
338.563
338.622
338.653
338.653
338.622
338.563
338.478
338.375
338.257
338.13
338.001
337.877
337.777
332.142
332.224
332.329
332.438
332.545
332.645
332.733
332.804
332.854
332.88
332.88
332.854
332.804
332.733
332.645
332.545
332.438
332.329
332.224
332.142
326.42
326.486
326.572
326.661
326.749
326.83
326.902
326.96
327.002
327.023
327.023
327.002
326.96
326.902
326.83
326.749
326.661
326.572
326.486
326.42
320.627
320.678
320.745
320.814
320.882
320.946
321.002
321.047
321.079
321.096
321.096
321.079
321.047
321.002
320.946
320.882
320.814
320.745
320.678
320.627
314.78
314.816
314.863
314.913
314.962
315.007
315.047
315.08
315.102
315.114
315.114
315.102
315.08
315.047
315.007
314.962
314.913
314.863
314.816
314.78
308.894
308.915
308.944
308.973
309.003
309.03
309.054
309.073
309.087
309.094
309.094
309.087
309.073
309.054
309.03
309.003
308.973
308.944
308.915
308.894
302.984
302.991
303.001
303.011
303.02
303.03
303.038
303.044
303.049
303.051
303.051
303.049
303.044
303.038
303.03
303.02
303.011
303.001
302.991
302.984
345.147
345.256
345.388
345.524
345.657
345.779
345.887
345.974
346.035
346.067
346.067
346.035
345.974
345.887
345.779
345.657
345.524
345.388
345.256
345.147
339.378
339.47
339.584
339.702
339.817
339.924
340.017
340.092
340.145
340.173
340.173
340.145
340.092
340.017
339.924
339.817
339.702
339.584
339.47
339.378
333.503
333.579
333.675
333.775
333.872
333.963
334.042
334.106
334.15
334.174
334.174
334.15
334.106
334.042
333.963
333.872
333.775
333.675
333.579
333.503
327.538
327.599
327.678
327.759
327.839
327.913
327.978
328.03
328.067
328.086
328.086
328.067
328.03
327.978
327.913
327.839
327.759
327.678
327.599
327.538
321.5
321.547
321.608
321.671
321.733
321.791
321.841
321.882
321.91
321.925
321.925
321.91
321.882
321.841
321.791
321.733
321.671
321.608
321.547
321.5
315.405
315.438
315.482
315.527
315.571
315.613
315.649
315.678
315.698
315.709
315.709
315.698
315.678
315.649
315.613
315.571
315.527
315.482
315.438
315.405
309.27
309.29
309.316
309.343
309.369
309.394
309.416
309.433
309.445
309.452
309.452
309.445
309.433
309.416
309.394
309.369
309.343
309.316
309.29
309.27
303.11
303.117
303.125
303.135
303.143
303.152
303.159
303.165
303.169
303.171
303.171
303.169
303.165
303.159
303.152
303.143
303.135
303.125
303.117
303.11
347.106
347.206
347.327
347.451
347.571
347.682
347.779
347.857
347.911
347.939
347.939
347.911
347.857
347.779
347.682
347.571
347.451
347.327
347.206
347.106
341.084
341.169
341.273
341.381
341.485
341.581
341.665
341.732
341.78
341.804
341.804
341.78
341.732
341.665
341.581
341.485
341.381
341.273
341.169
341.084
334.952
335.022
335.11
335.202
335.29
335.371
335.442
335.499
335.539
335.56
335.56
335.539
335.499
335.442
335.371
335.29
335.202
335.11
335.022
334.952
328.728
328.784
328.856
328.931
329.003
329.07
329.128
329.174
329.207
329.224
329.224
329.207
329.174
329.128
329.07
329.003
328.931
328.856
328.784
328.728
322.428
322.471
322.527
322.585
322.641
322.693
322.738
322.775
322.8
322.813
322.813
322.8
322.775
322.738
322.693
322.641
322.585
322.527
322.471
322.428
316.07
316.1
316.14
316.181
316.222
316.259
316.291
316.317
316.335
316.345
316.345
316.335
316.317
316.291
316.259
316.222
316.181
316.14
316.1
316.07
309.669
309.688
309.711
309.736
309.76
309.783
309.802
309.818
309.829
309.834
309.834
309.829
309.818
309.802
309.783
309.76
309.736
309.711
309.688
309.669
303.244
303.25
303.258
303.267
303.275
303.282
303.289
303.294
303.298
303.299
303.299
303.298
303.294
303.289
303.282
303.275
303.267
303.258
303.25
303.244
349.163
349.255
349.366
349.479
349.588
349.688
349.775
349.844
349.893
349.918
349.918
349.893
349.844
349.775
349.688
349.588
349.479
349.366
349.255
349.163
342.872
342.95
343.046
343.144
343.238
343.325
343.4
343.461
343.503
343.525
343.525
343.503
343.461
343.4
343.325
343.238
343.144
343.046
342.95
342.872
336.469
336.533
336.614
336.697
336.777
336.851
336.915
336.966
337.001
337.02
337.02
337.001
336.966
336.915
336.851
336.777
336.697
336.614
336.533
336.469
329.971
330.023
330.089
330.157
330.222
330.283
330.335
330.377
330.406
330.421
330.421
330.406
330.377
330.335
330.283
330.222
330.157
330.089
330.023
329.971
323.397
323.436
323.487
323.54
323.591
323.638
323.679
323.711
323.734
323.746
323.746
323.734
323.711
323.679
323.638
323.591
323.54
323.487
323.436
323.397
316.762
316.791
316.827
316.865
316.901
316.935
316.964
316.987
317.003
317.012
317.012
317.003
316.987
316.964
316.935
316.901
316.865
316.827
316.791
316.762
310.086
310.103
310.124
310.147
310.169
310.189
310.207
310.221
310.23
310.235
310.235
310.23
310.221
310.207
310.189
310.169
310.147
310.124
310.103
310.086
303.384
303.389
303.397
303.404
303.412
303.418
303.424
303.429
303.432
303.434
303.434
303.432
303.429
303.424
303.418
303.412
303.404
303.397
303.389
303.384
351.263
351.347
351.449
351.552
351.651
351.741
351.82
351.882
351.926
351.948
351.948
351.926
351.882
351.82
351.741
351.651
351.552
351.449
351.347
351.263
344.689
344.76
344.848
344.937
345.023
345.102
345.17
345.224
345.262
345.281
345.281
345.262
345.224
345.17
345.102
345.023
344.937
344.848
344.76
344.689
338.003
338.062
338.136
338.212
338.285
338.352
338.409
338.455
338.487
338.504
338.504
338.487
338.455
338.409
338.352
338.285
338.212
338.136
338.062
338.003
331.224
331.272
331.332
331.395
331.454
331.509
331.556
331.593
331.62
331.633
331.633
331.62
331.593
331.556
331.509
331.454
331.395
331.332
331.272
331.224
324.37
324.407
324.453
324.502
324.548
324.591
324.627
324.657
324.677
324.688
324.688
324.677
324.657
324.627
324.591
324.548
324.502
324.453
324.407
324.37
317.457
317.483
317.516
317.551
317.584
317.614
317.641
317.662
317.676
317.684
317.684
317.676
317.662
317.641
317.614
317.584
317.551
317.516
317.483
317.457
310.503
310.518
310.538
310.559
310.579
310.597
310.613
310.625
310.634
310.639
310.639
310.634
310.625
310.613
310.597
310.579
310.559
310.538
310.518
310.503
303.523
303.529
303.535
303.542
303.549
303.555
303.56
303.565
303.567
303.569
303.569
303.567
303.565
303.56
303.555
303.549
303.542
303.535
303.529
303.523
353.265
353.343
353.437
353.532
353.622
353.705
353.776
353.832
353.872
353.892
353.892
353.872
353.832
353.776
353.705
353.622
353.532
353.437
353.343
353.265
346.4
346.466
346.547
346.63
346.708
346.78
346.842
346.891
346.925
346.943
346.943
346.925
346.891
346.842
346.78
346.708
346.63
346.547
346.466
346.4
339.433
339.488
339.557
339.626
339.693
339.754
339.806
339.848
339.877
339.892
339.892
339.877
339.848
339.806
339.754
339.693
339.626
339.557
339.488
339.433
332.382
332.426
332.482
332.539
332.594
332.644
332.687
332.721
332.745
332.757
332.757
332.745
332.721
332.687
332.644
332.594
332.539
332.482
332.426
332.382
325.262
325.296
325.34
325.384
325.427
325.466
325.499
325.526
325.544
325.554
325.554
325.544
325.526
325.499
325.466
325.427
325.384
325.34
325.296
325.262
318.09
318.114
318.145
318.177
318.208
318.236
318.26
318.279
318.292
318.299
318.299
318.292
318.279
318.26
318.236
318.208
318.177
318.145
318.114
318.09
310.881
310.896
310.914
310.933
310.952
310.968
310.983
310.994
311.002
311.006
311.006
311.002
310.994
310.983
310.968
310.952
310.933
310.914
310.896
310.881
303.65
303.655
303.661
303.667
303.674
303.679
303.684
303.688
303.691
303.692
303.692
303.691
303.688
303.684
303.679
303.674
303.667
303.661
303.655
303.65
354.816
354.89
354.978
355.067
355.152
355.228
355.295
355.347
355.383
355.402
355.402
355.383
355.347
355.295
355.228
355.152
355.067
354.978
354.89
354.816
347.676
347.739
347.815
347.893
347.967
348.034
348.091
348.137
348.169
348.185
348.185
348.169
348.137
348.091
348.034
347.967
347.893
347.815
347.739
347.676
340.468
340.519
340.584
340.65
340.713
340.77
340.819
340.858
340.885
340.899
340.899
340.885
340.858
340.819
340.77
340.713
340.65
340.584
340.519
340.468
333.199
333.241
333.294
333.348
333.399
333.446
333.487
333.519
333.541
333.552
333.552
333.541
333.519
333.487
333.446
333.399
333.348
333.294
333.241
333.199
325.881
325.913
325.954
325.996
326.037
326.073
326.105
326.13
326.147
326.156
326.156
326.147
326.13
326.105
326.073
326.037
325.996
325.954
325.913
325.881
318.524
318.546
318.576
318.606
318.635
318.661
318.684
318.702
318.714
318.72
318.72
318.714
318.702
318.684
318.661
318.635
318.606
318.576
318.546
318.524
311.138
311.152
311.169
311.188
311.205
311.221
311.234
311.245
311.253
311.256
311.256
311.253
311.245
311.234
311.221
311.205
311.188
311.169
311.152
311.138
303.736
303.74
303.746
303.752
303.758
303.763
303.768
303.771
303.774
303.775
303.775
303.774
303.771
303.768
303.763
303.758
303.752
303.746
303.74
303.736
)
;

boundaryField
{
    hotSide
    {
        type            fixedGradient;
        gradient        nonuniform List<scalar> 
400
(
314.847
316.12
318.669
322.498
327.615
334.026
341.741
350.771
361.126
372.817
385.853
400.245
416
433.128
451.635
471.527
492.809
515.485
539.559
565.031
317.736
318.986
321.491
325.255
330.287
336.599
344.202
353.11
363.337
374.895
387.798
402.057
417.683
434.686
453.073
472.851
494.026
516.602
540.582
565.969
320.863
322.086
324.537
328.223
333.156
339.351
346.823
355.59
365.668
377.075
389.827
403.937
419.418
436.282
454.538
474.193
495.252
517.721
541.602
566.898
324.176
325.367
327.755
331.352
336.171
342.231
349.554
358.16
368.072
379.31
391.894
405.841
421.166
437.881
455.996
475.52
496.459
518.816
542.596
567.799
327.581
328.737
331.056
334.551
339.243
345.155
352.313
360.744
370.475
381.532
393.938
407.712
422.873
439.433
457.404
476.795
497.611
519.857
543.535
568.647
330.938
332.056
334.3
337.688
342.245
348
354.985
363.234
372.779
383.651
395.875
409.476
424.472
440.879
458.709
477.97
498.668
520.807
544.388
569.413
334.054
335.134
337.303
340.585
345.008
350.608
357.425
365.497
374.863
385.556
397.609
411.046
425.889
442.154
459.853
478.995
499.586
521.628
545.123
570.071
336.699
337.744
339.846
343.032
347.336
352.798
359.466
367.382
376.59
387.13
399.034
412.331
427.043
443.187
460.777
479.82
500.321
522.284
545.708
570.592
338.634
339.653
341.704
344.816
349.029
354.388
360.942
368.741
377.832
388.256
400.05
413.244
427.86
443.917
461.427
480.399
500.836
522.742
546.115
570.954
339.66
340.664
342.687
345.76
349.923
355.225
361.718
369.454
378.482
388.845
400.581
413.719
428.285
444.296
461.764
480.698
501.102
522.977
546.324
571.14
339.66
340.664
342.687
345.76
349.923
355.225
361.718
369.454
378.482
388.845
400.581
413.719
428.285
444.296
461.764
480.698
501.102
522.977
546.324
571.14
338.634
339.653
341.704
344.816
349.029
354.388
360.942
368.741
377.832
388.256
400.05
413.244
427.86
443.917
461.427
480.399
500.836
522.742
546.115
570.954
336.699
337.744
339.846
343.032
347.336
352.798
359.466
367.382
376.59
387.13
399.034
412.331
427.043
443.187
460.777
479.82
500.321
522.284
545.708
570.592
334.054
335.134
337.303
340.585
345.008
350.608
357.425
365.497
374.863
385.556
397.609
411.046
425.889
442.154
459.853
478.995
499.586
521.628
545.123
570.071
330.938
332.056
334.3
337.688
342.245
348
354.985
363.234
372.779
383.651
395.875
409.476
424.472
440.879
458.709
477.97
498.668
520.807
544.388
569.413
327.581
328.737
331.056
334.551
339.243
345.155
352.313
360.744
370.475
381.532
393.938
407.712
422.873
439.433
457.404
476.795
497.611
519.857
543.535
568.647
324.176
325.367
327.755
331.352
336.171
342.231
349.554
358.16
368.072
379.31
391.894
405.841
421.166
437.881
455.996
475.52
496.459
518.816
542.596
567.799
320.863
322.086
324.537
328.223
333.156
339.351
346.823
355.59
365.668
377.075
389.827
403.937
419.418
436.282
454.538
474.193
495.252
517.721
541.602
566.898
317.736
318.986
321.491
325.255
330.287
336.599
344.202
353.11
363.337
374.895
387.798
402.057
417.683
434.686
453.073
472.851
494.026
516.602
540.582
565.969
314.847
316.12
318.669
322.498
327.615
334.026
341.741
350.771
361.126
372.817
385.853
400.245
416
433.128
451.635
471.527
492.809
515.485
539.559
565.031
)
;
    }
    coldSide
    {
        type            mixed;
        refValue        uniform 300;
        refGradient     uniform 0;
        valueFraction   uniform 0.991591;
        source          uniform 0;
        value           nonuniform List<scalar> 
400
(
300.018
300.018
300.018
300.019
300.019
300.019
300.02
300.02
300.021
300.022
300.022
300.023
300.024
300.025
300.026
300.027
300.028
300.03
300.031
300.031
300.018
300.018
300.019
300.019
300.019
300.019
300.02
300.02
300.021
300.022
300.022
300.023
300.024
300.025
300.026
300.027