/*--------------------------------*- C++ -*----------------------------------*\
| =========                 |                                                 |
| \\      /  F ield         | OpenFOAM: The Open Source CFD Toolbox           |
|  \\    /   O peration     | Version:  2212                                  |
|   \\  /    A nd           | Website:  www.openfoam.com                      |
|    \\/     M anipulation  |                                                 |
\*---------------------------------------------------------------------------*/
FoamFile
{
    version     2.0;
    format      ascii;
    arch        "LSB;label=32;scalar=64";
    class       volScalarField;
    location    "0";
    object      stateMean;
}
// * * * * * * * * * * * * * * * * * * * * * * * * * * * * * * * * * * * * * //

dimensions      [0 0 0 1 0 0 0];

internalField   nonuniform List<scalar> 
3200
(
349.335
347.597
346.113
345.331
345.139
345.35
345.801
346.284
346.64
346.892
347.062
346.91
346.581
346.282
345.874
345.628
345.766
346.342
347.603
349.233
342.836
341.343
340.125
339.416
339.207
339.348
339.712
340.1
340.472
340.689
340.799
340.718
340.553
340.209
339.84
339.659
339.645
340.288
341.398
342.704
336.187
335.053
333.996
333.415
333.287
333.394
333.645
333.982
334.283
334.494
334.645
334.488
334.335
334.051
333.757
333.599
333.631
334.147
334.998
336.189
329.702
328.65
327.887
327.384
327.186
327.353
327.635
327.899
328.071
328.24
328.295
328.224
328.109
327.861
327.706
327.501
327.594
328.043
328.692
329.601
323.064
322.368
321.667
321.292
321.188
321.296
321.445
321.605
321.88
322.034
322.069
321.941
321.866
321.723
321.546
321.492
321.521
321.865
322.458
323.027
316.428
315.962
315.471
315.23
315.183
315.257
315.354
315.473
315.631
315.695
315.705
315.713
315.697
315.488
315.491
315.347
315.396
315.544
316.053
316.479
309.838
309.679
309.301
309.176
309.105
309.179
309.266
309.268
309.359
309.493
309.497
309.486
309.416
309.333
309.204
309.254
309.264
309.391
309.679
309.905
303.367
303.223
303.176
303.113
303.012
303.104
303.105
303.16
303.192
303.139
303.121
303.201
303.118
303.173
303.099
303.123
303.106
303.188
303.243
303.3
349.574
347.863
346.409
345.689
345.545
345.735
346.193
346.666
347.109
347.453
347.617
347.39
347.203
346.756
346.29
346.004
346.022
346.572
347.839
349.483
342.963
341.491
340.374
339.632
339.571
339.727
340.051
340.493
340.919
341.179
341.315
341.164
340.909
340.56
340.267
339.973
340.057
340.511
341.601
342.952
336.404
335.224
334.183
333.601
333.456
333.643
333.952
334.279
334.71
334.876
334.886
334.824
334.638
334.374
334.032
333.844
333.802
334.361
335.225
336.366
329.745
328.887
327.997
327.502
327.531
327.552
327.835
328.097
328.397
328.584
328.588
328.536
328.363
328.09
327.874
327.771
327.865
328.232
328.905
329.776
323.22
322.44
321.849
321.481
321.328
321.454
321.663
321.946
322.166
322.158
322.269
322.27
322.115
321.889
321.711
321.619
321.722
321.939
322.561
323.194
316.633
316.031
315.612
315.367
315.362
315.358
315.467
315.729
315.831
315.822
315.882
315.875
315.766
315.635
315.508
315.527
315.439
315.75
316.112
316.539
309.974
309.669
309.403
309.171
309.179
309.188
309.385
309.378
309.487
309.467
309.613
309.531
309.466
309.469
309.345
309.304
309.34
309.383
309.643
310.009
303.28
303.285
303.216
303.044
303.101
303.091
303.187
303.115
303.172
303.145
303.254
303.228
303.123
303.157
303.174
303.058
303.132
303.18
303.26
303.334
350.153
348.38
346.974
346.253
346.201
346.452
346.914
347.499
347.993
348.303
348.459
348.263
347.99
347.472
347.029
346.64
346.591
347.192
348.355
349.994
343.474
341.976
340.885
340.244
340.143
340.373
340.69
341.194
341.59
341.877
342.064
341.933
341.717
341.225
340.834
340.571
340.55
340.964
342.154
343.438
336.854
335.664
334.553
334.229
334.024
334.14
334.496
334.934
335.199
335.426
335.563
335.571
335.21
334.976
334.56
334.42
334.402
334.85
335.661
336.743
330.194
329.252
328.416
327.927
327.801
327.927
328.291
328.525
328.785
329.026
329.155
329.075
328.891
328.611
328.39
328.12
328.153
328.491
329.163
330.099
323.441
322.737
322.122
321.769
321.697
321.755
322.045
322.224
322.455
322.592
322.682
322.655
322.542
322.264
322.057
321.951
321.942
322.209
322.746
323.434
316.801
316.264
315.788
315.611
315.528
315.546
315.662
315.904
316.022
316.152
316.177
316.093
316.052
315.929
315.828
315.573
315.716
315.913
316.342
316.741
310.065
309.748
309.49
309.35
309.365
309.386
309.359
309.559
309.692
309.739
309.69
309.703
309.668
309.613
309.488
309.403
309.371
309.586
309.755
310.021
303.402
303.295
303.137
303.138
303.001
303.135
303.221
303.175
303.202
303.252
303.236
303.222
303.241
303.159
303.219
303.15
303.134
303.185
303.38
303.253
351.022
349.268
348.015
347.278
347.155
347.489
347.945
348.559
349.041
349.379
349.562
349.438
349.106
348.596
348.182
347.573
347.586
348.094
349.271
350.783
344.271
342.878
341.706
341.07
340.927
341.245
341.619
342.064
342.481
342.844
343.055
342.866
342.634
342.094
341.697
341.392
341.368
341.752
342.723
344.1
337.473
336.28
335.275
334.831
334.66
334.877
335.222
335.636
335.955
336.275
336.371
336.306
336.036
335.749
335.313
335.073
335.048
335.54
336.298
337.405
330.689
329.727
328.967
328.535
328.506
328.592
328.79
329.091
329.511
329.721
329.79
329.718
329.473
329.311
328.9
328.701
328.739
328.998
329.71
330.642
323.873
323.128
322.584
322.187
322.115
322.234
322.465
322.717
322.932
323.017
323.135
323.093
322.942
322.788
322.626
322.383
322.369
322.631
323.177
323.858
317.175
316.637
316.094
315.875
315.785
315.913
316.046
316.236
316.361
316.53
316.544
316.565
316.387
316.263
316.116
315.992
315.971
316.231
316.499
316.993
310.205
309.953
309.751
309.471
309.498
309.584
309.65
309.706
309.877
309.862
309.966
309.937
309.879
309.763
309.612
309.626
309.576
309.719
309.923
310.197
303.467
303.381
303.262
303.181
303.198
303.17
303.265
303.264
303.256
303.377
303.366
303.283
303.297
303.284
303.196
303.139
303.207
303.251
303.318
303.458
352.222
350.611
349.173
348.522
348.372
348.713
349.237
349.815
350.324
350.775
350.835
350.797
350.333
349.753
349.232
348.869
348.884
349.39
350.42
351.889
345.314
343.85
342.752
342.157
342.035
342.155
342.595
343.111
343.694
343.887
344.101
344.067
343.727
343.228
342.807
342.422
342.454
342.846
343.748
344.991
338.375
337.258
336.28
335.699
335.657
335.752
336.182
336.526
336.936
337.219
337.298
337.249
336.95
336.595
336.236
335.952
335.895
336.404
337.117
338.089
331.376
330.453
329.62
329.252
329.202
329.262
329.62
329.941
330.152
330.382
330.505
330.502
330.231
329.998
329.738
329.421
329.485
329.786
330.443
331.228
324.428
323.817
323.105
322.767
322.734
322.771
322.938
323.293
323.458
323.691
323.816
323.707
323.531
323.336
323.042
322.912
322.959
323.152
323.751
324.337
317.404
317.015
316.476
316.254
316.224
316.202
316.515
316.571
316.838
316.864
316.961
316.968
316.713
316.712
316.461
316.455
316.404
316.596
316.932
317.382
310.452
310.136
309.956
309.76
309.759
309.755
309.885
309.927
310.148
310.095
310.108
310.166
310.087
310.033
309.988
309.825
309.847
309.995
310.156
310.381
303.591
303.389
303.341
303.215
303.274
303.233
303.28
303.299
303.39
303.361
303.461
303.39
303.422
303.436
303.339
303.233
303.344
303.374
303.383
303.539
353.677
352.025
350.688
350.019
349.86
350.101
350.572
351.244
351.747
352.206
352.408
352.215
351.839
351.277
350.715
350.354
350.323
350.718
351.769
353.14
346.516
345.229
344.058
343.418
343.25
343.545
343.86
344.418
344.912
345.208
345.433
345.3
344.973
344.511
343.997
343.672
343.686
344.107
345.054
346.239
339.394
338.326
337.388
336.82
336.664
336.807
337.15
337.547
338.045
338.229
338.4
338.304
338.06
337.74
337.276
336.969
337.008
337.388
338.236
339.095
332.217
331.351
330.69
330.205
330.022
330.118
330.426
330.729
331.036
331.312
331.439
331.32
331.088
330.848
330.565
330.328
330.254
330.632
331.258
332.037
325.124
324.461
323.834
323.545
323.362
323.429
323.727
324.017
324.163
324.354
324.428
324.379
324.289
324.013
323.786
323.613
323.575
323.875
324.371
324.888
317.982
317.479
317.011
316.754
316.705
316.798
316.936
317.134
317.216
317.318
317.512
317.414
317.312
317.164
316.959
316.942
316.832
317.129
317.393
317.777
310.829
310.529
310.311
310.158
310.033
310.016
310.136
310.244
310.32
310.363
310.464
310.521
310.437
310.306
310.24
310.185
310.111
310.221
310.461
310.725
303.577
303.455
303.425
303.319
303.336
303.419
303.401
303.468
303.529
303.445
303.545
303.47
303.473
303.409
303.394
303.429
303.403
303.455
303.561
303.647
355.316
353.802
352.428
351.824
351.489
351.656
352.189
352.797
353.314
353.683
353.943
353.909
353.429
352.929
352.431
351.916
351.983
352.414
353.41
354.736
347.969
346.673
345.537
344.882
344.671
344.852
345.241
345.722
346.267
346.561
346.832
346.65
346.291
345.883
345.371
345.024
345.073
345.58
346.447
347.509
340.641
339.638
338.643
337.931
337.914
338.02
338.321
338.655
339.087
339.355
339.57
339.495
339.232
338.778
338.384
338.129
338.154
338.576
339.334
340.248
333.259
332.377
331.612
331.145
331.059
331.074
331.339
331.719
332.053
332.257
332.379
332.313
332.108
331.799
331.52
331.287
331.383
331.692
332.268
332.946
325.865
325.189
324.592
324.232
324.116
324.199
324.397
324.612
324.919
325.054
325.14
325.073
324.954
324.7
324.485
324.361
324.423
324.604
325.108
325.666
318.464
318.072
317.546
317.305
317.193
317.22
317.502
317.579
317.787
317.917
318.043
318.009
317.827
317.681
317.576
317.363
317.356
317.618
317.896
318.359
311.087
310.801
310.548
310.406
310.309
310.321
310.502
310.618
310.754
310.779
310.759
310.745
310.734
310.618
310.55
310.499
310.481
310.647
310.761
311.032
303.744
303.686
303.55
303.488
303.442
303.494
303.545
303.522
303.598
303.688
303.603
303.651
303.55
303.615
303.618
303.531
303.495
303.576
303.662
303.597
357.142
355.555
354.348
353.6
353.298
353.478
353.855
354.493
354.982
355.432
355.644
355.505
355.158
354.56
354.062
353.693
353.792
354.136
355.168
356.563
349.46
348.335
347.144
346.464
346.309
346.407
346.644
347.156
347.723
348.101
348.22
348.185
347.769
347.372
346.936
346.595
346.598
346.96
347.88
348.994
341.902
340.834
340.089
339.449
339.136
339.261
339.45
339.902
340.332
340.702
340.768
340.723
340.425
340.124
339.732
339.439
339.465
339.806
340.575
341.531
334.346
333.528
332.756
332.367
332.094
332.19
332.327
332.618
333.029
333.287
333.364
333.306
333.131
332.728
332.46
332.32
332.34
332.647
333.317
334.006
326.67
326.038
325.431
325.139
324.949
325.029
325.131
325.393
325.696
325.917
325.938
325.919
325.777
325.483
325.29
325.127
325.211
325.499
325.894
326.403
319.103
318.655
318.213
317.94
317.929
317.879
318.053
318.124
318.327
318.508
318.553
318.513
318.543
318.244
318.095
318
317.967
318.125
318.483
318.86
311.491
311.292
310.946
310.784
310.798
310.789
310.846
310.943
310.971
311.15
311.151
311.142
311.031
310.992
310.862
310.797
310.814
310.951
311.094
311.331
303.867
303.786
303.714
303.615
303.562
303.644
303.651
303.648
303.644
303.721
303.737
303.768
303.705
303.675
303.634
303.613
303.606
303.602
303.708
303.784
359.065
357.622
356.376
355.531
355.288
355.433
355.743
356.188
356.69
357.208
357.405
357.272
356.922
356.349
355.894
355.494
355.621
356.068
357.12
358.368
351.197
350.006
348.952
348.268
347.886
347.967
348.313
348.748
349.159
349.527
349.671
349.665
349.37
348.809
348.442
348.136
348.251
348.655
349.54
350.602
343.367
342.313
341.476
340.726
340.602
340.656
340.876
341.268
341.58
341.99
342.043
341.936
341.706
341.376
341.072
340.776
340.854
341.288
341.978
342.754
335.503
334.678
333.955
333.453
333.165
333.286
333.484
333.647
334.051
334.244
334.402
334.367
334.094
333.84
333.595
333.38
333.388
333.785
334.384
335.083
327.557
327.019
326.35
325.995
325.845
325.837
326.016
326.233
326.454
326.686
326.793
326.721
326.603
326.401
326.122
326.073
326.063
326.25
326.703
327.265
319.709
319.313
318.911
318.546
318.421
318.505
318.662
318.734
318.893
318.93
319.042
319.1
318.965
318.786
318.727
318.573
318.618
318.808
319.07
319.546
311.863
311.605
311.338
311.175
311.12
311.168
311.202
311.277
311.322
311.469
311.529
311.436
311.406
311.331
311.136
311.134
311.198
311.371
311.479
311.732
303.94
303.892
303.793
303.758
303.729
303.721
303.709
303.84
303.771
303.828
303.823
303.84
303.853
303.79
303.759
303.773
303.755
303.753
303.773
303.842
361.139
359.739
358.465
357.601
357.282
357.254
357.598
357.956
358.507
358.915
359.061
358.97
358.667
358.154
357.742
357.464
357.534
358.032
358.893
360.135
352.969
351.84
350.734
349.933
349.703
349.69
349.931
350.294
350.802
351.085
351.172
351.133
350.858
350.465
350.029
349.839
349.903
350.361
351.217
352.15
344.826
343.917
343.034
342.285
342.145
342.029
342.244
342.49
342.898
343.204
343.345
343.192
343.028
342.636
342.4
342.189
342.289
342.704
343.398
344.207
336.725
335.849
335.143
334.682
334.418
334.492
334.562
334.881
335.216
335.322
335.435
335.359
335.254
334.855
334.712
334.494
334.618
334.911
335.55
336.244
328.555
327.916
327.36
326.928
326.813
326.791
326.884
327.087
327.338
327.445
327.537
327.562
327.422
327.118
326.963
326.904
326.944
327.342
327.659
328.168
320.412
319.977
319.617
319.377
319.181
319.163
319.311
319.402
319.497
319.566
319.658
319.66
319.604
319.421
319.228
319.272
319.274
319.461
319.835
320.147
312.363
311.963
311.79
311.619
311.509
311.505
311.56
311.675
311.708
311.815
311.864
311.9
311.739
311.748
311.557
311.597
311.587
311.734
311.952
312.055
304.089
304
303.949
303.897
303.823
303.845
303.948
303.923
303.907
304.013
303.891
303.977
304.015
303.964
303.925
303.862
303.845
303.881
304.019
304.032
363.23
361.808
360.67
359.832
359.358
359.296
359.443
359.85
360.286
360.678
360.857
360.755
360.459
360
359.649
359.423
359.511
360.082
361.007
362.151
354.897
353.658
352.622
351.852
351.541
351.412
351.563
351.981
352.25
352.544
352.675
352.711
352.476
351.986
351.659
351.549
351.576
352.104
353.024
354
346.487
345.482
344.585
343.943
343.582
343.548
343.612
343.887
344.167
344.516
344.557
344.549
344.306
344.045
343.718
343.678
343.689
344.073
344.833
345.74
338.028
337.265
336.461
335.995
335.619
335.648
335.779
336.01
336.245
336.348
336.574
336.521
336.247
336.012
335.828
335.742
335.828
336.151
336.856
337.341
329.564
328.954
328.425
328.067
327.812
327.756
327.858
327.967
328.177
328.303
328.389
328.362
328.256
328.094
327.783
327.83
327.907
328.128
328.628
329.091
321.094
320.67
320.304
320.004
319.83
319.854
319.888
319.955
320.151
320.221
320.247
320.242
320.211
320.032
319.96
319.824
319.921
320.141
320.443
320.789
312.713
312.522
312.27
312.053
311.84
311.88
311.886
311.989
312.07
312.136
312.147
312.196
312.116
311.997
312.013
311.901
312.063
312.163
312.241
312.501
304.252
304.217
303.998
303.989
304.057
304.004
304.11
303.995
304.111
304.085
304.038
304.089
304.004
304.051
304.049
304.034
303.951
303.997
304.08
304.221
365.304
364.138
362.901
362.048
361.481
361.41
361.511
361.783
362.137
362.41
362.58
362.572
362.268
361.861
361.548
361.354
361.565
362.054
363.078
364.21
356.685
355.584
354.59
353.784
353.384
353.279
353.29
353.612
353.918
354.15
354.325
354.172
353.931
353.626
353.297
353.192
353.381
353.86
354.752
355.672
347.979
347.169
346.227
345.573
345.144
345.035
345.174
345.308
345.597
345.793
345.944
345.764
345.64
345.402
345.205
345.073
345.237
345.706
346.412
347.144
339.266
338.596
337.821
337.294
336.978
336.917
336.91
337.081
337.314
337.486
337.582
337.508
337.344
337.173
336.974
336.938
337.005
337.353
337.879
338.634
330.545
330.004
329.411
328.949
328.813
328.727
328.763
328.924
329.009
329.151
329.196
329.183
329.047
328.899
328.814
328.692
328.793
329.054
329.584
330.063
321.855
321.445
321.076
320.761
320.522
320.552
320.556
320.538
320.727
320.848
320.892
320.823
320.762
320.683
320.52
320.566
320.639
320.893
321.157
321.428
313.147
312.898
312.602
312.491
312.379
312.372
312.308
312.455
312.451
312.522
312.486
312.62
312.468
312.41
312.354
312.291
312.428
312.577
312.668
312.928
304.343
304.338
304.229
304.217
304.094
304.09
304.133
304.156
304.253
304.202
304.209
304.178
304.196
304.181
304.105
304.172
304.148
304.182
304.216
304.394
367.57
366.336
365.142
364.3
363.68
363.393
363.455
363.746
364.034
364.237
364.329
364.275
363.983
363.719
363.465
363.365
363.553
364.178
365.196
366.183
358.697
357.568
356.502
355.726
355.315
355.015
355.058
355.264
355.406
355.674
355.815
355.712
355.546
355.263
355.02
354.913
355.24
355.716
356.478
357.452
349.725
348.723
347.832
347.2
346.732
346.57
346.504
346.814
346.954
347.122
347.148
347.159
346.936
346.869
346.588
346.515
346.644
347.157
347.887
348.602
340.65
339.973
339.154
338.699
338.339
338.121
338.09
338.276
338.327
338.5
338.668
338.625
338.419
338.351
338.116
338.046
338.288
338.656
339.289
339.83
331.588
331.059
330.468
330.081
329.844
329.711
329.676
329.744
329.845
329.903
330.085
330.047
329.919
329.741
329.616
329.702
329.797
330.078
330.551
331.075
322.576
322.322
321.851
321.44
321.284
321.17
321.227
321.3
321.33
321.38
321.507
321.419
321.32
321.215
321.172
321.248
321.273
321.533
321.805
322.123
313.507
313.339
313.081
312.895
312.775
312.791
312.786
312.78
312.73
312.843
312.794
312.912
312.854
312.673
312.737
312.705
312.787
312.935
313.094
313.295
304.56
304.474
304.424
304.345
304.281
304.329
304.266
304.253
304.324
304.323
304.281
304.318
304.254
304.319
304.293
304.272
304.238
304.352
304.349
304.494
369.985
368.641
367.419
366.509
365.857
365.585
365.556
365.644
365.827
365.982
366.058
366.048
365.878
365.632
365.419
365.373
365.747
366.352
367.249
368.305
360.64
359.55
358.47
357.655
357.137
356.931
356.787
356.892
357.076
357.155
357.359
357.242
357.017
356.833
356.732
356.734
356.996
357.489
358.396
359.271
351.231
350.41
349.617
348.819
348.402
348.155
348.12
348.158
348.311
348.434
348.441
348.401
348.327
348.115
348.038
348.063
348.235
348.665
349.311
350.147
341.991
341.295
340.546
339.993
339.633
339.412
339.352
339.415
339.518
339.57
339.7
339.617
339.549
339.438
339.316
339.303
339.475
339.903
340.517
340.994
332.739
332.116
331.583
331.106
330.852
330.664
330.599
330.64
330.676
330.782
330.84
330.852
330.793
330.592
330.617
330.546
330.735
331.102
331.455
331.958
323.45
323.002
322.601
322.281
322.052
321.944
321.874
321.863
322.017
322.03
322.086
321.94
321.944
321.89
321.841
321.89
321.946
322.151
322.541
322.908
314.081
313.78
313.528
313.344
313.286
313.201
313.106
313.184
313.241
313.265
313.258
313.273
313.217
313.155
313.134
313.124
313.267
313.361
313.508
313.715
304.692
304.602
304.513
304.48
304.409
304.457
304.399
304.34
304.399
304.46
304.506
304.432
304.423
304.361
304.394
304.382
304.485
304.441
304.517
304.591
372.183
370.948
369.725
368.751
368.125
367.742
367.536
367.688
367.673
367.851
367.812
367.773
367.613
367.457
367.362
367.45
367.702
368.358
369.319
370.374
362.646
361.482
360.441
359.639
358.994
358.699
358.667
358.649
358.704
358.77
358.771
358.821
358.684
358.519
358.463
358.559
358.737
359.235
360.137
361.012
352.958
352.154
351.214
350.544
350.116
349.727
349.585
349.616
349.731
349.684
349.728
349.767
349.677
349.568
349.488
349.606
349.724
350.294
350.968
351.7
343.386
342.643
341.88
341.332
340.884
340.736
340.513
340.549
340.614
340.749
340.692
340.669
340.563
340.532
340.407
340.511
340.663
341.124
341.747
342.285
333.763
333.24
332.653
332.158
331.922
331.642
331.553
331.576
331.601
331.723
331.752
331.59
331.646
331.458
331.581
331.569
331.668
332.008
332.485
332.947
324.143
323.739
323.346
323.021
322.728
322.69
322.561
322.569
322.547
322.591
322.692
322.643
322.557
322.48
322.455
322.534
322.692
322.915
323.203
323.532
314.494
314.227
314.066
313.883
313.627
313.593
313.537
313.582
313.658
313.669
313.506
313.58
313.525
313.636
313.631
313.619
313.611
313.78
313.97
314.16
304.832
304.796
304.732
304.593
304.603
304.608
304.481
304.54
304.582
304.515
304.584
304.545
304.556
304.516
304.543
304.53
304.645
304.62
304.602
304.703
374.516
373.162
372.064
370.965
370.22
369.861
369.666
369.605
369.639
369.582
369.589
369.471
369.45
369.335
369.284
369.426
369.821
370.492
371.424
372.407
364.582
363.523
362.507
361.695
361.015
360.634
360.421
360.323
360.291
360.404
360.418
360.26
360.257
360.111
360.123
360.236
360.583
361.15
362.025
362.953
354.687
353.774
352.853
352.1
351.602
351.279
351.148
351.016
350.989
351.085
351.159
351.063
351.013
350.886
350.956
351.005
351.265
351.807
352.513
353.292
344.775
344.042
343.238
342.687
342.245
342.013
341.889
341.796
341.786
341.822
341.859
341.734
341.719
341.695
341.616
341.763
342.077
342.39
343.04
343.618
334.861
334.165
333.716
333.224
332.947
332.663
332.51
332.509
332.559
332.496
332.523
332.587
332.439
332.398
332.423
332.515
332.664
333.081
333.476
333.911
324.862
324.459
324.114
323.796
323.519
323.324
323.253
323.218
323.238
323.277
323.227
323.252
323.125
323.222
323.149
323.168
323.46
323.593
323.867
324.279
314.962
314.781
314.469
314.281
314.158
314.007
313.999
313.901
313.931
313.947
314.019
314.048
313.912
313.922
313.946
313.982
314.07
314.108
314.423
314.631
304.987
304.889
304.818
304.805
304.734
304.729
304.661
304.691
304.665
304.635
304.663
304.646
304.645
304.723
304.664
304.63
304.647
304.73
304.772
304.871
376.727
375.486
374.202
373.217
372.501
371.961
371.644
371.565
371.542
371.461
371.488
371.353
371.279
371.14
371.228
371.498
371.83
372.579
373.65
374.566
366.545
365.445
364.47
363.523
362.842
362.377
362.112
361.932
361.915
361.982
362.016
361.874
361.808
361.77
361.759
362.004
362.348
363.002
363.765
364.731
356.298
355.449
354.581
353.789
353.193
352.859
352.601
352.505
352.497
352.452
352.448
352.456
352.338
352.311
352.331
352.473
352.836
353.356
354.027
354.802
346.06
345.372
344.721
344.07
343.543
343.257
343.181
343.043
342.958
342.9
342.842
342.885
342.839
342.79
342.841
342.934
343.242
343.651
344.239
344.802
335.853
335.306
334.831
334.226
333.925
333.719
333.516
333.36
333.454
333.386
333.367
333.349
333.366
333.358
333.376
333.414
333.66
334.077
334.496
334.839
325.632
325.267
324.831
324.562
324.239
324.053
323.949
323.828
323.846
323.855
323.823
323.861
323.802
323.826
323.854
323.918
324.129
324.318
324.708
324.96
315.348
315.12
314.922
314.683
314.485
314.473
314.351
314.326
314.333
314.356
314.268
314.284
314.331
314.267
314.328
314.373
314.443
314.546
314.798
314.962
305.124
305.073
305.023
304.856
304.841
304.848
304.784
304.76
304.816
304.84
304.808
304.728
304.822
304.817
304.772
304.868
304.792
304.891
304.962
305.057
378.925
377.695
376.431
375.379
374.536
374.101
373.625
373.49
373.33
373.286
373.287
373.157
373.153
373.077
373.227
373.379
373.863
374.532
375.607
376.677
368.335
367.368
366.358
365.388
364.765
364.154
363.968
363.652
363.582
363.511
363.439
363.493
363.401
363.335
363.441
363.693
364.108
364.745
365.566
366.399
357.862
357.055
356.152
355.301
354.738
354.266
354.008
353.91
353.861
353.757
353.713
353.647
353.663
353.608
353.73
353.954
354.24
354.801
355.596
356.265
347.456
346.625
345.989
345.311
344.846
344.454
344.29
344.117
344.031
344.002
343.944
343.934
343.899
343.839
343.976
344.154
344.457
344.852
345.488
346.103
336.825
336.304
335.733
335.269
334.895
334.596
334.382
334.282
334.279
334.232
334.198
334.197
334.133
334.139
334.282
334.294
334.53
334.931
335.47
335.851
326.283
325.944
325.558
325.175
324.954
324.726
324.692
324.564
324.479
324.391
324.434
324.471
324.371
324.399
324.419
324.483
324.814
324.946
325.337
325.569
315.8
315.553
315.346
315.123
314.905
314.851
314.761
314.715
314.726
314.628
314.652
314.655
314.643
314.72
314.686
314.762
314.791
315.006
315.152
315.326
305.222
305.236
305.096
305.131
305.047
305.017
305.006
304.899
304.907
304.957
304.85
304.914
304.932
304.904
304.894
304.88
305.01
305.023
305.216
305.163
380.899
379.661
378.439
377.385
376.512
375.928
375.574
375.173
374.987
374.946
374.891
374.844
374.821
374.833
374.965
375.167
375.669
376.513
377.537
378.575
370.063
369.131
368.032
367.11
366.382
365.762
365.417
365.17
365.025
364.994
364.935
364.801
364.753
364.829
364.977
365.302
365.687
366.352
367.207
368.148
359.238
358.41
357.604
356.869
356.1
355.608
355.384
355.08
355.015
354.956
354.85
354.838
354.871
354.893
354.983
355.197
355.649
356.135
356.871
357.63
348.537
347.812
347.118
346.443
345.948
345.562
345.351
345.122
345.025
345.011
344.944
344.929
344.826
344.874
344.973
345.158
345.463
345.98
346.606
347.147
337.749
337.218
336.592
336.073
335.71
335.487
335.263
335.119
335.054
334.927
334.937
334.955
334.943
334.92
334.973
335.066
335.332
335.762
336.232
336.67
327.004
326.653
326.095
325.781
325.536
325.344
325.126
325.092
325.086
324.996
324.918
324.891
324.961
325.012
325.02
325.081
325.334
325.579
325.869
326.205
316.12
315.978
315.64
315.544
315.317
315.135
315.122
315.004
315.061
315.022
315.017
314.954
315.037
314.947
314.985
315.054
315.219
315.318
315.636
315.762
305.438
305.388
305.285
305.145
305.11
305.162
305.082
305.031
305.052
305.031
305.019
304.978
305.111
305.092
305.05
305.087
305.092
305.17
305.221
305.325
382.321
381.15
379.854
378.814
377.998
377.374
376.9
376.524
376.396
376.27
376.185
376.106
376.021
376.144
376.222
376.703
377.061
377.916
378.886
379.972
371.296
370.363
369.219
368.335
367.508
366.961
366.503
366.25
366.157
366.041
365.922
365.87
365.834
365.928
365.978
366.372
366.77
367.478
368.366
369.277
360.26
359.405
358.55
357.775
357.099
356.581
356.251
355.994
355.883
355.771
355.776
355.693
355.681
355.699
355.873
356.151
356.529
357.115
357.753
358.557
349.299
348.572
347.863
347.219
346.708
346.257
346.094
345.867
345.727
345.697
345.544
345.602
345.461
345.558
345.773
345.934
346.23
346.727
347.364
347.906
338.305
337.76
337.184
336.691
336.261
335.935
335.817
335.686
335.57
335.46
335.432
335.48
335.483
335.442
335.468
335.721
335.938
336.34
336.833
337.273
327.396
327.043
326.651
326.151
325.955
325.708
325.511
325.451
325.327
325.397
325.255
325.31
325.292
325.339
325.382
325.54
325.663
325.904
326.339
326.59
316.39
316.167
315.957
315.717
315.522
315.456
315.355
315.319
315.162
315.181
315.157
315.205
315.24
315.22
315.215
315.351
315.431
315.612
315.797
315.974
305.436
305.373
305.33
305.257
305.202
305.208
305.136
305.135
305.114
305.115
305.127
305.091
305.121
305.127
305.129
305.078
305.188
305.245
305.269
305.398
)
;

boundaryField
{
    hotSide
    {
        type            fixedGradient;
        gradient        nonuniform List<scalar> 
400
(
321.511
322.87
325.591
329.677
335.133
341.965
350.181
359.788
370.794
383.208
397.037
412.289
428.971
447.088
466.647
487.651
510.105
534.011
559.372
586.191
323.738
325.08
327.767
331.802
337.194
343.949
352.078
361.591
372.498
384.81
398.537
413.687
430.268
448.289
467.755
488.672
511.043
534.872
560.161
586.913
326.149
327.47
330.116
334.091
339.406
346.071
354.099
363.503
374.296
386.491
400.101
415.136
431.606
449.52
468.885
489.706
511.988
535.735
560.948
587.63
328.704
330
332.597
336.503
341.73
348.292
356.205
365.485
376.15
388.215
401.695
416.604
432.954
450.753
470.009
490.73
512.919
536.579
561.714
588.325
331.33
332.599
335.142
338.97
344.099
350.546
358.332
367.477
378.003
389.928
403.271
418.047
434.27
451.949
471.095
491.712
513.807
537.382
562.439
588.978
333.918
335.158
337.643
341.389
346.414
352.74
360.392
369.397
379.779
391.562
404.765
419.407
435.503
453.065
472.101
492.618
514.622
538.114
563.096
589.569
336.321
337.531
339.959
343.622
348.544
354.751
362.274
371.142
381.385
393.031
406.101
420.618
436.595
454.047
472.983
493.409
515.33
538.747
563.663
590.076
338.36
339.543
341.92
345.509
350.339
356.44
363.847
372.595
382.718
394.244
407.2
421.608
437.485
454.844
473.695
494.045
515.897
539.253
564.114
590.478
339.852
341.015
343.352
346.885
351.645
357.665
364.985
373.643
383.675
395.113
407.984
422.312
438.116
455.407
474.197
494.491
516.294
539.606
564.428
590.758
340.643
341.795
344.11
347.613
352.334
358.311
365.584
374.193
384.176
395.567
408.393
422.679
438.443
455.699
474.456
494.722
516.498
539.788
564.589
590.901
340.643
341.795
344.11
347.613
352.334
358.311
365.584
374.193
384.176
395.567
408.393
422.679
438.443
455.699
474.456
494.722
516.498
539.788
564.589
590.901
339.852
341.015
343.352
346.885
351.645
357.665
364.985
373.643
383.675
395.113
407.984
422.312
438.116
455.407
474.197
494.491
516.294
539.606
564.428
590.758
338.36
339.543
341.92
345.509
350.339
356.44
363.847
372.595
382.718
394.244
407.2
421.608
437.485
454.844
473.695
494.045
515.897
539.253
564.114
590.478
336.321
337.531
339.959
343.622
348.544
354.751
362.274
371.142
381.385
393.031
406.101
420.618
436.595
454.047
472.983
493.409
515.33
538.747
563.663
590.076
333.918
335.158
337.643
341.389
346.414
352.74
360.392
369.397
379.779
391.562
404.765
419.407
435.503
453.065
472.101
492.618
514.622
538.114
563.096
589.569
331.33
332.599
335.142
338.97
344.099
350.546
358.332
367.477
378.003
389.928
403.271
418.047
434.27
451.949
471.095
491.712
513.807
537.382
562.439
588.978
328.704
330
332.597
336.503
341.73
348.292
356.205
365.485
376.15
388.215
401.695
416.604
432.954
450.753
470.009
490.73
512.919
536.579
561.714
588.325
326.149
327.47
330.116
334.091
339.406
346.071
354.099
363.503
374.296
386.491
400.101
415.136
431.606
449.52
468.885
489.706
511.988
535.735
560.948
587.63
323.738
325.08
327.767
331.802
337.194
343.949
352.078
361.591
372.498
384.81
398.537
413.687
430.268
448.289
467.755
488.672
511.043
534.872
560.161
586.913
321.511
322.87
325.591
329.677
335.133
341.965
350.181
359.788
370.794
383.208
397.037
412.289
428.971
447.088
466.647
487.651
510.105
534.011
559.372
586.191
)
;
    }
    coldSide
    {
        type            mixed;
        refValue        uniform 300;
        refGradient     uniform 0;
        valueFraction   uniform 0.991591;
        source          uniform 0;
        value           nonuniform List<scalar> 
400
(
300.028
300.028
300.029
300.029
300.03
300.03
300.031
300.033
300.033
300.034
300.036
300.037
300.038
300.039
300.041
300.042
300.043
300.044
300.046
300.046
300.027
300.028
300.028
300.028
300.028
300.029
300.031
300.032
300.033
300.034
300.035
300.036
300.038
300.039
300.04
300.041