/*--------------------------------*- C++ -*----------------------------------*\
| =========                 |                                                 |
| \\      /  F ield         | OpenFOAM: The Open Source CFD Toolbox           |
|  \\    /   O peration     | Version:  2212                                  |
|   \\  /    A nd           | Website:  www.openfoam.com                      |
|    \\/     M anipulation  |                                                 |
\*---------------------------------------------------------------------------*/
FoamFile
{
    version     2.0;
    format      ascii;
    arch        "LSB;label=32;scalar=64";
    class       volScalarField;
    location    "./ITHACAoutput/true/8.5";
    object      error;
}
// * * * * * * * * * * * * * * * * * * * * * * * * * * * * * * * * * * * * * //

dimensions      [0 0 0 1 0 0 0];

internalField   nonuniform List<scalar> 
3200
(
1.21028
1.20475
-1.27694
1.70426
-2.4032
0.927883
2.72694
-0.129348
5.90029
2.95727
1.23827
1.13386
0.981512
2.04137
5.13312
3.71434
2.66694
6.92427
10.4761
7.40342
-0.0131034
-0.480719
-1.20486
4.36318
0.417159
-0.669182
1.29626
1.0415
-0.668538
0.627813
3.52836
3.4716
2.9358
0.649537
2.76255
-0.381949
2.70269
5.28992
6.87846
2.38288
-2.38753
2.08571
2.86031
5.92257
0.740512
0.491113
1.39753
0.310378
-1.64148
5.96911
2.7701
2.04002
5.68451
5.26449
2.0754
2.57255
4.90235
3.31662
5.50198
-0.977662
2.40376
4.55795
-1.28277
1.18763
-0.560485
-1.73042
2.43072
0.0886797
-0.855058
0.954036
1.29106
3.61397
3.96596
1.2356
4.39737
1.54421
1.70669
3.35893
4.50374
1.87234
-2.41283
-0.211532
-0.489117
-1.15875
-0.285088
0.038159
-2.37087
5.29614
3.14375
1.71979
-0.841996
-0.313651
1.28329
-2.03008
-0.26386
5.19407
3.35055
2.27855
2.74651
-3.06933
4.56599
0.706795
4.25926
1.34079
0.855857
1.10023
0.0496029
-0.293687
0.171312
-2.79481
2.73808
0.796076
3.12462
-0.532553
2.43328
1.28664
1.54163
-1.73161
1.0131
-0.00316312
-1.21505
-0.990901
2.00824
-1.58007
-2.02447
-0.651461
0.90568
-0.230761
-2.63007
-1.41483
-0.290837
4.829
0.723916
-0.343383
-1.14082
0.717004
0.196713
-0.969458
2.84861
-2.44636
0.234977
0.485264
0.218221
3.12228
-0.281695
-0.587634
3.45274
-4.09494
-0.745375
-0.745748
0.739703
2.76973
-1.95942
2.49923
-0.954407
-1.44539
-4.30715
0.35058
-3.95629
-0.53129
0.940067
5.26677
-0.116832
5.65673
-0.0594436
3.53966
7.80614
-1.51831
4.90847
2.35243
3.50645
4.21787
2.63736
2.20956
4.90792
5.19825
3.93188
5.0155
3.77111
6.56827
1.46859
-0.449682
-2.7167
-4.07191
1.43189
-1.40404
-2.11679
1.16857
4.43726
1.15845
0.547214
2.1111
0.459188
0.849734
0.339481
-3.07965
-0.0235355
6.11735
1.17253
4.94855
0.461428
1.27512
1.83527
-0.909234
-3.54449
-0.0178868
-0.155416
0.020082
2.89694
-2.47707
1.18768
-1.48545
2.77224
-1.40459
4.84918
-0.596115
7.21144
0.999872
3.90293
2.94666
0.0925364
2.14176
2.18301
-2.41023
-1.91981
3.54853
1.25147
-1.74358
1.7924
-0.700965
-0.631582
-0.325382
-0.151135
1.66841
1.23659
-1.23383
6.99362
2.44542
-0.0885831
-1.21531
0.103295
0.873308
0.985954
-0.247122
-2.06679
-3.49738
0.00836479
-1.3045
1.36096
-3.9064
-0.59449
4.32536
1.36299
2.31068
1.27595
5.2859
3.19811
7.57125
-4.29219
-1.17747
-3.41548
-0.434446
1.65411
1.44416
0.420691
-1.4136
-2.45943
2.09624
3.44099
7.63803
0.218345
2.6704
3.71433
3.38509
5.06279
4.20897
1.11163
4.5313
2.39685
1.27258
1.74745
-4.95214
-0.830573
-0.0313702
1.18193
-0.0440906
0.440443
1.45109
0.377056
2.5109
-1.75165
-0.222409
3.6122
4.45248
0.710121
-4.47128
6.6599
-3.68384
0.0465357
0.149588
1.6516
0.39796
-2.2226
1.12147
-5.01391
2.41756
-0.204903
-0.297925
-2.26321
-1.53245
2.13758
-3.38023
1.21584
0.283434
0.661776
0.960419
1.00766
2.92045
1.10712
-0.652405
0.345476
-2.28689
-2.38527
1.7421
0.373564
1.49149
2.21691
0.939956
-2.35779
3.25623
7.08034
-1.25465
-4.72305
4.35999
3.20252
-6.45926
1.36252
1.11286
-0.190004
0.802065
2.62132
6.39677
-3.09916
-4.79603
1.07844
0.658658
1.17648
5.00577
-4.81257
1.01211
-0.44165
-0.763292
-2.58575
-2.22587
1.60388
0.213961
4.1512
2.41073
2.81926
-2.05855
-1.41708
-0.0163309
-5.36101
-4.85383
-6.38446
-3.14261
-2.99697
2.72543
3.04631
0.408453
0.868126
0.717187
-0.423099
-1.89204
0.498086
-1.76285
2.49484
-0.530113
2.65024
-0.337236
-4.72822
-3.32
-1.23149
-1.16514
0.549024
-2.68718
-6.38681
0.387315
2.0047
-2.43271
-1.67665
-0.975898
-0.861192
-2.12812
0.531101
2.27876
-0.448136
-1.90861
2.19211
-1.83014
-0.452003
0.0881717
0.0205185
-0.65447
3.08761
-7.17621
-1.39825
1.15223
1.49071
-0.220383
-0.654431
2.91433
0.583552
-3.07354
0.941507
7.05963
0.868827
-0.198501
-0.436331
0.42012
1.38583
3.09758
-1.09034
-0.0785521
-1.58855
1.61074
-1.08958
-0.626973
-0.0094675
-1.18549
-0.349963
1.02312
-0.837253
-0.38954
-4.00356
5.40391
3.59279
-1.89052
-2.65289
-1.73651
-5.58204
1.57662
-2.67301
-1.91589
5.40399
-0.655622
4.36219
-1.69685
1.68926
-1.44033
-0.130341
1.6976
-0.20176
0.185128
1.95284
-2.34163
1.485
-3.07762
-2.43836
1.60205
-1.95726
-0.913031
3.60005
-1.87755
0.67674
-3.47322
3.26701
-4.07356
1.22327
0.512206
-0.375629
2.18774
2.75316
-4.14849
-3.05292
0.201554
-1.62793
-2.43208
0.024547
-0.964113
5.91587
1.31595
-0.0264877
-2.48871
-1.69259
-0.709169
-0.618088
0.424598
-0.678105
-0.909953
0.594293
1.67572
-1.17112
-2.19767
0.457498
-1.22709
-3.66771
1.82391
3.19168
-1.69361
3.54565
-2.70192
-1.74366
-0.576689
-1.72831
-0.552752
-3.95289
-0.0534005
0.293918
0.850949
-0.596307
-0.300436
-0.0294225
0.532649
-0.0938596
1.50765
0.476256
-1.88212
-0.414351
-0.71898
-4.64932
2.37162
-0.331306
0.137927
-0.226364
-4.60074
-5.55535
-0.941131
-1.83141
2.59757
-1.48119
-0.219362
0.453202
-3.01863
-3.17132
1.84124
-0.564888
1.83814
-1.32331
0.596762
1.09929
0.509963
1.49229
2.37636
-2.90937
-3.22367
2.70824
-2.5696
-1.5442
0.311264
0.91624
-2.08028
-3.70596
4.01841
-0.832686
0.279375
3.23704
-0.467418
2.78083
-4.70403
1.33796
-1.9703
-0.592793
-1.25488
1.02218
-1.7666
-0.551238
1.69205
0.562501
-2.97496
0.695008
-2.11819
2.1871
-1.0788
-1.42463
1.27273
5.69569
1.3351
-0.92195
1.30577
0.0730368
0.2024
-0.0865065
-7.25037
-2.1948
-0.55086
0.137533
1.58569
-0.535501
1.61753
-1.93035
-2.41349
-1.59095
-1.88988
1.73933
-1.57539
0.489138
-1.58999
0.462738
-1.8586
-1.87761
1.50202
-2.97391
-1.65846
1.10742
1.7671
-2.90982
0.713933
4.07222
-2.9092
-6.19154
-1.49589
0.448573
-0.524037
1.30438
0.799578
-0.692241
1.25339
-0.760161
1.5382
-0.923156
0.0736583
0.3934
-0.974976
2.16429
-0.55868
3.30983
1.64213
0.477855
-1.90713
-2.86827
3.86027
0.342853
-1.93598
-0.954032
3.51592
-1.56543
2.41572
3.87741
1.48154
-2.32593
-1.63566
-1.04012
-1.81856
-5.49505
-4.64966
-1.05229
0.937864
-4.41994
0.925456
-1.7958
-3.69781
-2.86248
-2.91976
-1.32267
-1.65384
-1.98209
-1.83654
-3.71702
4.24881
-2.13515
-5.61097
-5.19534
1.58772
0.307243
0.273509
-2.95484
0.13527
2.0303
-2.69237
-6.27159
-3.24363
2.93947
-2.02095
-2.6732
-1.69221
-3.53946
2.7992
-0.842599
2.76949
-4.56536
-4.25337
-0.792734
-3.25652
-1.54157
-1.51501
-0.402229
-1.80778
-0.515862
-4.52739
1.70664
-2.53629
-3.41774
-3.26981
-2.18289
0.310068
-4.94349
-3.92944
-0.399828
-1.92361
3.37627
-3.37141
-3.65752
-0.85981
-1.67224
-1.19955
-4.46795
-1.38335
-1.37567
2.66824
-2.8738
-3.61061
-2.08201
-1.5108
-0.850995
-2.32666
-2.62722
2.5259
-1.49392
-2.27583
4.69716
1.61207
-4.37968
-0.419031
3.82749
-0.603109
-2.76982
-5.70788
-0.967697
-1.19431
6.26531
-4.54089
-7.04499
-1.59482
-1.3262
1.81869
4.62637
-0.896169
-2.3027
-1.56223
-2.19986
-0.0833159
0.516212
-6.50518
-3.16659
0.0354395
0.722647
-1.86597
1.53072
1.2764
-2.47095
3.17858
-2.32197
-0.322285
2.30652
0.337557
-1.16239
-2.81293
-5.48136
0.0700265
-1.43584
-0.304231
-0.643982
2.09298
-2.48449
-5.17623
2.03911
-1.82494
-0.6169
-1.16506
-1.20352
-0.486724
-3.70029
-2.8513
2.49016
-1.16409
0.659114
-0.231845
0.18068
-3.30889
3.38593
0.301529
2.92124
-1.28597
-1.42401
-1.3662
0.815196
0.346115
-2.02592
1.01772
-0.554469
1.00165
0.105038
-3.10637
4.16158
-3.18775
1.13427
-2.65187
-1.86962
-1.25209
-2.6965
-3.47127
-4.97688
2.5472
-5.10553
-4.16984
-2.65764
-6.32935
-0.749127
0.710212
-1.70557
-4.75665
-2.1543
-2.02853
-2.088
-1.41645
-0.805187
-0.790628
-6.43494
-1.45495
2.70179
-3.19835
-3.76583
-0.858329
-6.33386
-0.616648
-4.68382
0.671305
0.945639
-0.402658
-1.1756
-1.06146
-1.41923
0.442703
0.283625
-4.78081
0.257874
-0.131358
0.77264
3.99839
-0.610605
-2.66157
-1.96211
3.40355
-3.77722
-3.98488
-3.03125
0.870076
-6.28759
-0.806933
1.12005
-0.614114
-0.583243
-4.70613
-1.9936
-5.84113
-5.4071
-1.99269
-1.99418
0.271902
1.01658
0.986741
-1.81129
-1.11853
2.67148
0.177716
-1.73824
-5.013
0.0341895
-2.94461
1.15233
-2.39952
-4.18528
-2.73816
-3.02942
-3.64845
-2.26472
0.22056
-1.92907
1.68392
-1.27502
-4.58884
-1.4775
-2.75928
0.724253
-0.568967
-0.0601562
-2.28886
4.8946
-3.72802
-2.41108
-3.35813
0.772201
-3.60723
1.02632
-4.73509
-0.61678
1.74696
1.50022
2.84429
0.736929
0.195924
-1.61596
-1.15263
-2.86331
-2.15026
-2.89369
-3.07758
-1.38769
-2.76208
-1.69051
0.0134563
2.34553
-4.78255
-2.71652
-2.51009
0.176272
-3.23792
0.390926
-0.0562251
-2.00653
-2.03482
-0.975267
1.89729
0.788591
2.78932
-3.85573
-1.6839
3.9789
0.0103956
-0.39029
-0.718398
-3.88918
-2.30762
-0.592328
-3.00993
-1.18977
0.417441
-0.336008
0.752635
1.21044
3.64008
3.40589
-2.74909
0.614739
2.65446
-2.4951
2.89169
-0.270332
1.79163
1.88797
-0.923199
2.94417
-0.161471
1.02623
-2.24803
0.326009
1.23301
1.28114
-3.6322
-2.83679
-5.6686
-2.84299
-4.03492
-4.52662
0.205723
-7.95543
-2.21801
-1.68056
-2.01312
-1.6014
-6.35122
-1.90512
-5.32532
-1.12245
-4.42086
4.10045
0.688215
-3.19182
1.74507
0.0985534
-0.175164
-4.18796
-3.2859
-0.792807
-5.12964
-4.55101
-0.848147
-3.80225
-1.04325
-0.484882
-5.87882
-3.47498
-2.39279
-5.55188
-3.11056
-2.58461
-0.101234
-2.05059
0.513585
-1.45757
-4.17368
-2.32183
-3.55714
-3.02389
-3.06775
-6.87364
-1.15275
-5.08882
-4.08786
-7.59621
-4.34936
-5.43374
-3.21438
-2.94935
-4.90387
-1.29431
0.875681
0.692169
2.2278
0.353292
-3.41849
-4.29512
-2.9013
-3.18881
2.54496
-2.42017
-5.4151
-1.97669
-3.44169
-2.5171
-2.84663
-1.40019
0.0229686
0.46488
-0.402801
-1.98679
-3.09396
1.03543
0.567785
-2.9676
-2.35197
-3.58542
1.29637
-2.64484
-0.61141
-0.281479
-4.46461
-0.888733
-8.37803
-1.58297
-3.07929
1.12848
-6.06997
-2.81607
-0.712538
6.03306
-2.2876
-3.46933
3.56633
0.989022
-0.468278
-2.80623
-3.32485
-1.887
-4.09428
-4.13423
-0.32686
-2.65593
-4.41698
-1.45801
-3.67212
-2.14688
-2.42495
-0.152139
-2.981
4.10949
-2.73079
-2.89138
4.1311
-0.00568932
-2.07594
-0.886015
0.309807
-1.53796
0.625731
-4.77971
0.0554671
-1.51432
0.0589619
1.5131
1.06633
0.327837
1.4338
-0.783619
-5.90103
1.85252
0.313586
-0.434699
0.0841426
4.3932
-3.15416
-0.525791
1.78279
1.26455
0.860093
-2.02554
-1.2605
2.16213
0.0237792
0.497159
2.83585
0.165632
-3.23588
-0.799979
0.578199
0.778315
-0.750417
0.554715
-2.82572
-2.93092
0.217502
-5.20734
-6.52041
-6.97022
-3.45183
-4.35932
0.780918
-2.38915
-2.26594
-6.43444
-1.05576
-0.0517085
-1.88353
-1.73284
-6.13856
1.72048
-0.618895
1.62829
1.74087
0.98515
-0.449697
-3.60428
2.16843
-1.26536
0.0138813
-0.295035
0.145571
-6.60072
0.744583
-0.215149
-0.29423
-1.05671
-7.09638
-0.461083
-4.69362
-0.0176816
-1.22333
-0.758556
-0.221017
-1.73348
1.00847
-1.37775
-5.44616
-4.04372
-5.02621
-4.24228
-5.31588
0.0274397
-4.23887
-4.64087
-7.3024
-6.62987
-5.5238
-5.8055
0.148146
-2.80804
-2.16761
-1.94945
-4.99358
-5.40007
0.208598
-0.394009
-6.83391
0.456993
-1.58901
0.486578
-2.58361
1.5018
-1.98575
-2.5063
-6.28352
-0.964412
-5.52856
-3.27846
-1.07223
-1.56761
-0.675706
-0.357633
0.953264
-1.14261
-2.65469
-1.70773
-2.54378
-0.908204
-0.926183
-0.461144
-0.97314
-6.5414
-2.11161
-4.39503
-2.58891
-2.12063
-2.22044
-1.87726
-4.38839
-0.614144
0.206604
-3.59082
-4.63415
-3.48635
-0.868072
2.9308
-2.1436
-2.3833
2.86095
-3.08866
-1.33359
0.599513
0.329108
-1.76424
-2.10149
3.37767
-0.489007
-4.68932
1.58876
5.04306
0.840295
0.635826
-2.57623
-0.874506
0.104282
0.566394
-0.916137
-2.63067
0.0247101
0.0298025
0.828834
-1.15689
-0.626971
-1.70356
-0.68916
4.12123
-0.140376
-2.06012
-1.17543
-3.49842
3.74697
-0.927882
-0.288147
1.54466
2.91036
-1.58089
-1.13034
1.20809
-3.12049
-2.62138
2.29312
1.71765
-0.417364
-1.0284
-2.31904
-0.16069
-2.36249
2.79657
-1.25276
-0.667891
-0.796595
-1.32116
-0.405982
-0.115971
1.98373
-3.34756
-2.63843
-3.4529
-2.46418
-3.78459
-8.68621
-4.80793
-0.16929
-2.90342
-2.2311
-7.01268
-8.16304
-4.28415
-2.98755
-1.04205
0.277054
-2.22144
3.05478
-4.29766
-2.19602
-7.04827
-2.89919
-3.60339
-8.0971
-0.725462
-1.37463
-4.06224
-0.141815
-2.88001
-1.97201
-4.55915
-6.85767
-2.06444
-4.81149
-1.26538
-3.70695
1.25714
0.772866
-0.917116
0.159275
0.454987
-3.88602
-4.17356
-2.44253
0.27057
-1.37552
-4.50734
1.36318
-6.04267
-7.50183
-5.74342
0.177274
-0.268781
0.876449
0.74183
0.628177
-0.936517
-1.85898
-1.15607
-4.19196
-0.303004
2.21837
-3.29064
-7.09016
-5.28816
-2.7575
-0.497913
-1.07534
-3.89907
-6.46358
-3.3528
-2.28456
2.05858
-1.10897
-4.88276
-0.416794
-1.33954
-0.505975
0.102547
1.2927
1.78219
-1.24226
-1.78733
-3.87432
-5.11461
-5.6212
-1.80383
-3.03203
-4.9006
-1.86769
2.4618
-3.59222
-0.000448249
1.48679
-3.02074
-1.1684
1.01765
1.15484
0.506303
5.19976
-2.26048
0.719931
-0.544049
-1.48778
0.309775
-2.06427
-2.40744
3.1165
-0.897925
-2.84567
2.5629
-3.25439
-0.998888
-0.348978
-1.32057
-1.54325
-1.08575
1.37514
3.2805
1.86262
4.47478
-3.92135
-0.376686
-2.18723
-2.26877
-2.12805
1.93649
0.646608
-1.42886
-2.94215
-1.03994
0.92906
-0.35397
-1.29393
-0.279667
-1.21915
5.43599
-1.9017
-3.28221
3.63201
-0.374654
0.125037
-1.17349
-2.81832
-2.27246
2.34966
1.69684
0.825284
-0.539067
-2.78476
-0.909993
2.50152
2.94739
0.617366
1.07198
-0.768348
-2.32837
-1.08739
-3.90165
-3.29997
0.694918
-6.04705
-2.17205
-2.64367
-9.27353
-2.02517
-3.44482
-7.64347
-6.00856
-5.97843
-6.5241
-4.64534
-5.36614
-6.14732
-2.34442
-0.643286
-3.14655
3.62889
1.25556
-1.53056
1.51942
-1.68205
4.80933
0.5673
-1.40446
1.64121
-3.01149
-1.69594
-0.704651
-5.36263
0.127629
-0.659144
0.488599
1.29082
-0.654783
-2.61598
-0.206438
0.0473135
-1.01951
-1.59332
0.73108
-2.91225
-2.18813
-6.2381
-4.58227
-5.25065
-2.10504
-0.348697
-4.62009
-1.60552
0.342518
-6.89144
-3.81801
-4.03968
-1.42697
-3.91829
-1.83869
-2.20501
1.64479
-2.11767
-6.36164
-1.43169
0.338069
1.10073
-5.93321
-0.414437
-0.876517
-1.12163
-3.36425
-2.66096
-0.61336
-4.21697
-4.89295
-5.45017
-3.48861
-1.40996
-2.41261
2.91935
0.144429
-2.391
-5.60028
-1.19627
1.12041
0.0553111
0.920747
1.72274
-6.35062
-0.978021
-3.2498
-3.54885
-4.27036
-0.537407
-0.555255
-2.46533
-8.03503
4.0831
-1.65286
0.888222
2.31995
-0.400387
-2.55305
-0.237748
-5.18337
1.50755
-0.201995
-2.7709
0.202642
0.293613
-5.09683
0.554689
-3.15832
-2.51478
3.1493
-2.50675
-0.902908
-1.73259
-3.08333
-4.10476
-1.8788
-2.01242
-4.78295
-2.73396
0.838887
1.35776
4.65305
-1.36243
-2.36362
0.0135958
0.339646
-1.89599
0.450917
2.89169
-2.81537
-1.84861
-0.260991
-2.59165
-1.69067
-0.601652
1.56532
-2.41131
0.461321
-2.32396
-2.99803
-0.0837253
-1.33772
-6.77209
-1.526
-3.13607
-2.31918
3.83282
-3.28369
-2.29771
-2.59256
1.55839
-0.996713
0.167867
3.68607
-0.210257
0.959176
-2.4083
0.399847
-3.05787
-2.55138
-2.3961
-5.62264
-2.8327
-7.42734
-2.36677
-3.96191
-2.25144
-3.3964
-4.18366
-1.80062
-6.17719
-5.59673
1.82212
-2.9166
1.45954
2.17684
-4.42073
-0.475159
1.95863
-0.890684
-0.786426
-2.85731
1.00997
-4.63625
-0.912874
-0.481457
0.12249
-0.118291
-4.82434
-0.0988798
-4.22667
0.158717
-2.59343
-0.238065
0.457366
-0.988216
-4.9209
-4.23593
-2.56055
2.26977
1.33713
-5.56267
-0.386095
-3.70225
-2.73573
-7.91551
3.50805
-4.25672
-4.37168
-0.228109
-0.316475
-0.981864
1.01612
-2.43067
0.619417
3.94751
-2.22795
-4.19165
1.413
-3.58425
1.51019
-4.99105
-2.99503
-2.10557
-1.43054
-0.539233
-6.75649
-3.91208
-3.47085
-0.141523
-2.56287
-2.47356
-1.09291
-3.84319
4.48439
2.27734
-2.30819
1.61119
2.48687
0.222613
0.0728089
-3.81618
-0.166755
-4.30538
-1.01737
1.29248
-0.16656
4.92769
-3.16503
-2.53741
-4.16797
0.540603
1.84984
5.1459
0.212241
-0.506732
-0.793494
-1.69686
0.486983
-1.38648
1.61564
0.205423
1.24795
-0.449298
-6.20268
0.055959
0.961844
-3.58319
-2.49569
2.72291
-2.2088
0.568835
0.712904
1.07934
2.60872
-1.24598
0.8564
-0.837106
-2.19112
0.226367
1.14287
-4.36254
-0.510761
-1.81553
4.50731
-0.9757
-0.650815
-0.0473897
-0.921992
-2.63932
-1.76022
-5.42691
-4.0677
-4.06666
1.53934
-1.87867
0.459736
-1.00931
-2.82434
-3.39784
-1.03698
2.89629
2.85041
-0.499232
2.32846
-0.887269
0.0448379
-2.83228
-1.07711
0.544028
-0.00130929
0.51765
0.680396
2.47292
1.93183
-0.440033
-5.63113
-3.68427
-1.12832
-3.75205
0.189816
-7.09412
-6.12257
-2.12778
-7.97687
-4.50522
-5.05961
-5.02766
-5.47577
-6.18595
-6.04654
-0.792723
4.04469
-1.2017
2.18159
-0.414593
-0.46668
-4.88914
-5.90451
0.863626
-2.78694
-3.11983
-5.6902
-0.374533
-2.26617
-2.12246
-7.37797
-2.82265
-3.73131
0.750653
-3.04356
-0.232511
-1.12681
2.84939
4.47194
-0.431236
-1.82226
2.80976
-1.26164
1.96841
0.1724
-3.38559
-6.00713
2.20135
-1.61341
-3.91257
0.879525
-8.175
-6.11218
-3.46397
-2.48634
-3.34297
-1.31131
0.605174
0.540179
1.50015
4.04037
0.893008
-0.145449
-2.40947
-4.50712
1.18882
-5.21553
0.136814
-0.723708
-1.81478
-1.59355
-4.5747
-2.8454
-2.80488
-2.27459
-1.17707
3.97701
3.71222
-0.423337
0.869489
1.87399
-0.00412762
-2.00939
-2.59421
-2.80369
-1.1574
-0.213453
-5.46978
-2.09974
-3.87709
-5.63618
-3.99412
-1.97895
-2.14095
-1.96711
3.64982
-0.0509217
-0.530915
5.85865
4.74962
-0.783696
-3.34399
2.74903
-0.601119
-1.44964
-1.709
-0.498053
-0.317961
3.90235
-0.711583
-0.909278
-1.90704
3.56685
-3.66207
0.653435
2.38796
-1.06831
-1.36129
-1.27535
0.232424
-1.51747
-2.92825
-3.21619
-2.982
0.413173
-2.73679
0.0143054
-0.369598
1.94714
1.65004
-2.37661
-2.19358
3.20517
0.944204
-5.90563
1.47503
-0.582088
0.691498
-2.07898
-0.241268
0.92403
-5.78935
-0.210997
-2.58357
-1.71056
-0.0581126
-4.53917
-1.1328
-0.553117
-2.82259
2.26212
-0.102249
2.1556
0.513241
2.57358
-2.13028
-0.725917
-1.97419
-0.965037
2.19552
0.775389
-1.85253
-1.1683
-4.50579
-2.02808
-3.63828
-6.56805
-0.409558
-2.26293
-2.94298
-4.6369
-3.73887
-2.72901
-2.10692
0.563749
0.268326
-2.79737
0.896572
-0.298991
1.54959
-1.79952
-0.00469535
-1.39146
1.06677
-0.128506
-2.90559
-0.325758
-2.83307
0.391356
-0.206803
-1.93103
1.10763
-3.03483
-0.0939713
1.37083
-0.324184
2.03636
0.728861
3.404
-0.879381
-1.22277
-2.39256
-2.87284
-4.86279
1.28441
-0.127287
-1.99608
-3.49481
-2.5708
-3.63075
1.50117
-1.10021
-4.07219
0.662516
-2.3021
-1.52749
0.849581
2.21207
-0.920629
1.81045
-0.785995
-3.04352
-1.96255
-1.28118
-1.8379
-3.20232
-1.31557
-5.23137
-5.44599
-3.53874
-5.76385
-5.30373
-1.00112
-2.94822
8.0794
-1.96154
-2.15597
-0.488253
-1.28301
4.26384
-0.263789
-1.81348
-1.81898
-4.19183
-2.86788
-5.59943
-4.41996
-2.09822
-0.846553
-3.60263
-1.7103
0.719121
-3.50242
0.134142
-2.56921
-2.38707
-3.82563
3.3574
-1.29765
0.399901
-1.28047
3.50633
-4.9881
-2.57033
2.05435
-1.44819
0.950106
-2.97022
-0.10167
0.49638
-1.52505
1.79171
-1.91687
-2.22637
-0.585048
3.08772
1.77744
-3.36427
2.71227
0.487499
-2.53033
-1.17803
-0.554634
-2.25707
-3.14025
1.16788
-1.53059
-0.6631
-0.172587
0.161093
-0.91462
-0.905461
-1.897
2.52114
0.123278
1.03212
0.16204
0.779913
-2.34478
-5.45545
1.19433
2.02559
-0.549495
1.5327
-1.55597
-4.69871
-1.21983
-2.73576
0.433997
2.6362
-2.31541
4.56177
0.620921
-0.558089
-1.29157
-2.16089
-1.03243
3.10773
0.672734
0.780367
1.25319
0.293959
-1.05184
1.88655
-1.85712
3.47635
-5.0428
-0.171199
-3.17825
-2.08993
-2.69831
-1.77195
-2.63974
-1.7263
-2.88714
0.62267
1.90152
0.245393
3.47159
1.28305
0.406149
0.462036
3.67174
0.631258
-3.76497
-3.52097
-1.80729
-1.65152
-4.30602
-4.95198
-10.1786
-0.938196
1.03132
-0.677002
-0.806486
0.0717878
-2.6731
-0.853432
6.84093
-1.84603
2.29584
-0.144057
-0.965223
2.57751
2.02576
0.897283
0.58195
-1.07317
-1.05853
-2.09016
0.923347
-5.7475
-0.218957
0.331171
1.33257
-1.07036
0.445456
5.05313
3.15125
-0.400818
0.238637
-0.374058
0.31375
1.31875
-1.35602
2.63976
-0.286162
2.8281
-0.565878
4.08273
-1.78146
3.56166
-3.06482
2.09197
0.979861
-2.68873
4.76355
-0.557457
8.46127
-2.19384
-1.85584
-0.090415
0.523688
0.368224
-5.68754
-0.74611
-2.39131
1.73788
-2.02646
-0.664508
-1.03101
-2.8508
1.24691
-1.26713
4.41167
4.28713
0.156968
-2.14904
4.0906
2.31536
0.880967
-3.57427
2.06435
-1.13052
1.31379
-0.442442
1.06178
1.34352
-3.16778
0.664366
-0.212048
0.300106
-0.345173
-1.27111
2.14261
1.54888
4.35227
-1.7995
2.69318
-5.54007
1.38707
0.86919
-0.975134
1.90932
-3.47458
-1.57864
-0.0489721
2.66305
0.747338
0.525069
-1.17328
-1.56672
0.524494
-4.38654
0.266479
2.12355
-0.656507
1.23036
2.41306
1.17075
-1.10974
4.38786
-2.91207
-0.248363
-2.64415
0.672324
2.76627
3.99533
0.520208
-3.24343
-4.48998
-1.48407
-3.07464
-5.98135
0.272878
-1.59997
3.40184
0.73638
1.28769
6.82471
-1.01453
0.819626
1.2692
-2.02637
0.101566
-2.10993
-4.43676
-1.21737
-1.84976
1.50466
-4.21216
-0.0673636
-1.00704
-2.43571
4.92222
-0.314248
-0.113094
6.03611
8.63003
5.43046
1.39438
4.55502
0.507394
-2.43022
0.0964011
1.7902
0.922291
0.677326
-0.014679
-0.0177265
-1.62622
-0.0307024
0.0319696
-0.74325
2.67339
-0.416766
0.768962
0.182098
3.98495
2.85446
6.6144
1.23365
0.272252
2.05127
-0.215693
-2.12354
-2.40095
-2.66065
-1.72487
-1.17913
1.19697
3.87737
-0.0792041
0.551628
0.391267
2.32052
1.87278
2.44364
6.41062
2.9684
-1.95541
-2.16935
3.43332
-3.49818
-0.32421
-6.22047
1.43701
-4.57484
0.0363511
1.11335
0.458511
-1.32168
0.727869
1.45973
2.32264
0.192245
2.70223
0.444348
3.72181
0.386896
2.02193
-1.53893
-0.401627
2.872
4.76911
-2.89291
-2.88401
-1.7293
0.0488094
0.647792
1.66113
4.95587
2.64199
3.06246
0.995603
-1.35723
4.34999
2.07386
1.66212
1.85904
3.6325
-0.258197
-0.447941
-3.08725
3.44436
1.63115
-4.14146
-0.310292
-4.49963
-2.35108
1.19472
3.60979
0.743206
-1.20028
0.991391
0.520786
-0.563855
1.03077
-1.8541
-2.03645
0.326084
0.844199
-2.48199
2.72869
-0.252837
0.194273
2.06055
-2.56097
0.700301
0.0471053
-4.682
-0.946791
-0.382758
-2.38316
0.724743
4.17874
-0.476109
3.77927
-2.85268
2.77686
0.73894
4.57144
-0.606998
0.592411
1.29091
0.5866
0.251378
1.50651
-2.451
-2.84875
-0.254454
-0.825146
-2.93191
-2.56295
-0.954215
1.31201
-4.40194
1.95039
-2.61762
2.68232
6.8291
2.71706
0.418879
-0.233771
3.43841
-2.62018
-0.966233
2.50088
1.02942
-1.28361
-1.736
0.651942
6.06044
0.643869
4.58635
2.78996
6.15161
8.90274
8.66269
6.56001
2.63182
5.4872
0.662361
-0.910025
0.183317
2.43828
2.55172
-0.699334
0.77036
-1.0175
0.588446
2.87114
1.88396
0.276477
4.48018
6.08962
5.28961
5.37595
10.0511
3.06788
-0.595831
4.58368
3.09247
5.81551
-0.917235
-0.408026
1.95887
-1.62414
1.839
-2.13764
3.33541
0.941769
-1.97811
3.2169
2.51083
4.20991
4.38124
9.14841
2.75746
5.38953
4.9661
0.278594
2.88846
4.23644
-0.563319
-1.86892
1.27655
-0.10067
-3.39561
1.47812
1.73722
2.18462
1.06694
1.16047
-0.182141
1.36503
2.82668
2.73255
4.28958
1.53871
4.6202
3.59067
-0.302574
-0.798364
-1.99773
-0.917871
-2.08228
-0.264345
4.91128
1.26284
-4.1276
2.79278
-0.716434
3.91873
-3.71541
3.81446
1.55066
3.08501
4.10001
2.7717
1.21889
4.47554
1.32968
0.0250024
-0.222333
1.72155
2.0297
-2.39525
-4.06546
0.626778
-1.28047
-1.70633
-1.34391
-1.26688
-4.49021
0.948517
-0.233764
4.94289
3.30468
1.98056
0.840181
2.94328
0.0595924
2.95955
4.99939
1.74722
1.55198
-3.29351
-1.28736
-0.684298
0.342191
3.17252
3.73469
1.64502
0.435882
4.07498
2.2757
4.48127
3.87661
-0.462362
5.41237
0.56647
1.93431
0.338378
-4.92044
5.94994
1.47978
-0.563504
2.52257
0.230066
-1.89333
-0.617532
2.11989
2.06251
-1.87363
4.1973
1.15172
0.771655
0.844222
7.65522
7.81385
7.74143
6.34632
5.053
2.1102
1.42363
1.46639
0.987034
-1.26001
2.74615
0.156194
9.05761
4.7284
1.58539
5.40979
3.53598
6.22846
7.09386
7.50895
13.0686
-1.66681
6.20987
1.25602
2.39814
0.785191
0.891846
0.714801
-0.409953
-0.0479234
0.315562
-1.29672
0.409959
4.89509
-0.411067
6.35585
0.567844
7.71844
-0.0350619
2.25882
6.87048
7.09096
4.47055
3.23824
-0.299117
0.0034098
1.45929
2.4846
3.16808
2.47094
0.875934
-0.102362
1.99677
2.23158
3.90265
2.6561
1.53635
8.99661
4.02342
1.70578
2.54745
5.7172
-0.394038
3.25415
0.358613
3.07528
-1.31655
2.61954
2.38225
0.901984
0.565489
0.590757
3.81593
1.8582
-0.488424
2.22081
5.02733
0.97199
4.92301
6.61951
4.30401
1.01409
4.66873
2.90654
4.12918
0.950048
2.97341
-0.911082
4.2994
1.92586
0.654346
1.24837
-0.723328
4.43616
4.67329
2.50116
-0.307828
4.55653
4.64349
9.79381
5.76001
2.46502
8.21057
-1.12977
6.77121
3.9432
0.439982
-1.52998
3.7446
-0.203339
0.263746
-0.374189
2.60997
0.399384
3.35375
-3.20593
0.960592
1.61365
2.22719
7.38388
-2.00303
-0.728391
1.69836
0.467469
-3.76833
0.631336
1.57945
3.0183
-0.6395
-0.818909
-2.29115
-3.55417
3.60924
1.82137
3.30016
-1.32745
-0.49086
1.54141
1.13871
0.446026
0.922874
0.638529
3.80626
2.70911
-2.90176
-0.028969
0.91778
0.273903
-2.95191
0.654831
-0.596887
-3.48106
-4.00215
-0.0847092
0.60796
1.24664
1.28567
3.31384
-2.59359
-2.79703
9.41271
10.3282
4.35796
7.01526
8.08664
7.96401
3.05788
3.40009
4.29305
4.17886
0.816601
5.61827
5.2455
6.46435
4.43086
6.42952
6.3081
10.8327
9.14666
13.7225
7.05513
8.32913
7.50635
6.11696
7.32619
1.88175
9.53116
4.67269
6.99925
2.51795
2.72899
1.4024
4.46708
8.29407
5.69312
3.35283
6.05233
7.81251
9.76656
11.7289
9.80567
3.78005
3.80862
7.64547
8.3079
1.87732
5.52533
6.92171
3.51866
7.26674
5.13836
5.44216
3.74782
4.9167
9.75648
3.01025
6.89642
8.48785
12.65
7.3665
6.46342
3.79559
4.01395
6.43456
4.02779
1.38739
7.57537
3.83333
1.28019
4.36972
6.87295
4.45174
-0.419843
5.88531
3.15715
3.86096
4.19513
4.93679
11.8789
14.4119
4.44596
5.6959
3.80961
0.234005
4.51594
5.91995
0.77852
-0.75689
2.58104
2.78393
2.28267
-1.0825
1.686
2.37915
1.04233
5.61312
0.741345
1.49031
7.40085
6.91475
4.49349
3.85326
1.59422
1.0133
-2.2926
-0.82656
1.16377
6.34761
4.91415
0.0817269
1.2411
5.35337
2.00506
1.94117
6.25776
1.24494
2.3252
2.68907
4.35618
9.11646
1.98728
3.80597
1.75246
1.07884
0.813791
1.18124
-3.41161
-0.602327
-5.8583
-1.68001
1.99675
5.61574
0.981352
-1.77725
0.199647
1.86929
1.17814
6.25825
2.20544
3.21535
3.80526
0.196033
3.64137
0.00532074
1.33132
-2.11847
1.98503
0.909048
-6.36585
2.85649
3.62476
-0.509878
2.74032
-2.70023
1.2906
4.05355
-1.96471
-1.24904
2.84171
0.963859
12.337
13.1857
10.9236
8.01905
8.32859
8.97217
14.1624
0.222983
6.28706
5.43063
7.03834
2.83605
8.23763
4.90741
10.1649
11.1923
16.59
5.06016
15.1108
12.0396
11.8082
1.32643
8.48687
0.244329
4.42731
0.3948
8.91263
-0.146265
7.06418
0.906057
0.519402
7.63955
-0.0454811
1.24646
0.715342
10.8893
1.63229
13.2611
0.448935
13.5186
7.33142
5.03196
4.90482
4.94991
12.5309
6.47122
6.09358
5.59541
2.92547
4.71975
1.3837
4.01478
1.72505
0.994022
3.01489
5.15454
9.77441
4.90813
9.67408
10.0721
9.25945
8.23444
6.58095
6.13001
4.83494
6.26713
5.68499
6.47949
4.78486
2.32571
3.61948
2.45962
6.23622
7.70367
3.73569
5.72009
5.59218
2.19918
7.26569
8.07803
3.31543
4.19898
3.63247
3.99487
6.78234
4.96121
1.8228
4.60267
-2.44811
2.16636
4.35046
3.89142
2.48085
3.89741
2.6631
1.86174
2.83972
2.511
2.44499
8.12861
7.68277
-3.39271
-0.460291
3.31318
5.77388
2.78673
2.10302
2.48803
-1.42619
3.66454
3.17324
2.57443
7.6674
-2.5688
0.0207753
2.2811
2.07496
2.88949
0.816997
3.33597
-0.259426
3.11795
4.03953
1.2829
4.26946
1.23519
1.42079
-1.21406
-0.172585
1.02822
2.39637
0.918673
1.1236
4.14994
2.10635
4.22303
4.63539
3.74949
2.06017
1.69359
1.89235
3.67747
-0.693008
-2.4243
-1.39191
-4.14788
-2.38469
-1.40569
0.391381
-0.719236
4.0809
0.582975
0.782819
0.836793
-1.20191
-1.11194
-2.61682
-7.11558
-1.78664
4.1421
14.1826
11.6571
14.3588
10.47
12.5156
10.8164
7.51795
10.0725
11.1577
5.97347
7.59942
3.56647
10.4995
7.42813
8.53267
11.2545
13.5988
11.1491
15.4527
18.4546
11.5663
12.3915
7.70064
8.99013
5.84969
10.2396
9.52898
1.93074
6.52916
5.78082
7.32618
7.8189
3.44327
9.81795
8.81985
9.3454
8.48709
13.7727
11.7124
12.3362
17.0675
8.34354
3.67907
5.04059
5.77925
5.2374
10.3405
7.3991
7.20989
4.37306
6.17814
1.85091
9.33345
8.38779
9.10652
9.3085
7.85779
10.3197
6.72615
9.61392
10.1748
5.85801
8.00457
8.68168
3.28191
6.39247
5.6171
3.64328
5.51136
6.29389
6.47714
6.06515
4.43903
1.92389
7.14865
9.66947
6.30111
8.68926
9.75885
7.69303
3.29312
4.31626
2.39301
2.02467
5.38706
1.60002
8.73384
-0.357213
2.66481
-0.0686095
7.43339
2.29238
2.35356
1.60325
6.00195
3.23131
4.03921
-1.45571
5.90116
13.0975
3.8332
9.54418
4.32408
3.66607
0.541066
0.376414
6.43521
0.818801
3.52317
1.10474
1.73279
1.98181
4.43996
-0.7984
2.07207
3.80952
1.64021
8.77928
5.47457
5.25304
0.717749
3.035
-0.747435
6.53802
1.74728
2.44658
4.00668
-0.332907
-0.70064
3.36108
4.69459
1.38843
0.752453
2.3713
1.30746
3.73137
3.22635
3.39908
1.82867
1.22043
4.65972
-0.0787864
6.0962
0.672495
0.829858
0.00592219
-3.10957
0.813489
-2.63865
0.609632
-3.78471
1.70462
-0.124258
3.55182
0.452626
-1.7
0.761108
2.27505
-0.725358
3.82118
)
;

boundaryField
{
    hotSide
    {
        type            calculated;
        value           nonuniform List<scalar> 
400
(
2.21607
1.94822
1.35837
6.93594
-1.29618
-1.65449
-1.77983
-1.85623
0.979348
-2.7827
2.10488
0.735628
3.40444
2.02595
8.11039
4.01164
9.03175
10.8401
13.8188
15.7226
2.24059
6.30473
-1.24464
2.36469
-0.578117
-2.4025
-4.58605
1.31652
3.10204
-2.1594
-1.24237
-4.43663
2.00182
2.51497
0.286109
8.17219
9.20303
11.7671
14.6781
13.2068
-0.208573
0.953372
-1.31134
1.05312
0.0472652
-3.87948
-1.73318
-4.08253
-2.205
1.85816
1.58687
-2.47021
-0.608055
1.57234
2.1355
4.0741
9.14337
5.80856
12.4267
15.9182
2.80708
6.76106
2.8495
-1.37656
-0.699817
3.67456
-2.89671
-5.36887
-1.47088
-4.86056
-1.84933
0.105543
0.094354
0.243169
2.60024
1.78973
7.76081
8.47726
9.53246
12.0388
-1.26496
1.07993
1.51529
-0.54716
-4.34436
-3.94777
-3.35971
-5.79181
-2.26035
-0.962451
-1.3216
-2.49872
-3.22539
3.1977
-0.68068
1.15034
6.47947
9.55946
9.85177
14.0932
2.10104
4.71356
2.66696
0.468887
-3.46774
-2.9825
1.40042
-2.24752
-1.24766
-1.41203
-1.14616
1.46149
-0.731042
-0.530926
1.46083
4.83474
3.54766
9.44671
10.5042
12.4019
3.9325
9.01204
3.42361
0.59009
0.158358
-1.44316
-6.73536
-3.13148
-2.54641
-8.02208
-4.35468
-5.80612
-2.3265
4.8158