/*--------------------------------*- C++ -*----------------------------------*\
| =========                 |                                                 |
| \\      /  F ield         | OpenFOAM: The Open Source CFD Toolbox           |
|  \\    /   O peration     | Version:  2212                                  |
|   \\  /    A nd           | Website:  www.openfoam.com                      |
|    \\/     M anipulation  |                                                 |
\*---------------------------------------------------------------------------*/
FoamFile
{
    version     2.0;
    format      ascii;
    arch        "LSB;label=32;scalar=64";
    class       volScalarField;
    location    "0";
    object      relativeErrorField;
}
// * * * * * * * * * * * * * * * * * * * * * * * * * * * * * * * * * * * * * //

dimensions      [0 0 0 1 0 0 0];

internalField   nonuniform List<scalar> 
3200
(
0.00349616
0.00347483
0.00367581
0.00489541
0.0068879
0.00265372
0.00778353
0.000368582
0.0167927
0.00841124
0.00352196
0.00322706
0.00279686
0.00582671
0.0146806
0.0106458
0.00766068
0.0199323
0.030216
0.0213865
3.85281e-05
0.00141158
0.00353184
0.0127658
0.00121816
0.0019504
0.00377149
0.00302579
0.00194018
0.00182096
0.010234
0.010075
0.00852916
0.00188983
0.00805172
0.00111534
0.00790754
0.0155065
0.0201978
0.00700639
0.0071484
0.00623772
0.00854164
0.0176577
0.0022041
0.00145939
0.00414666
0.000919763
0.00485983
0.0176637
0.00819726
0.00603976
0.0168453
0.0156204
0.00616726
0.00765705
0.014616
0.00990432
0.0164548
0.00292717
0.00733169
0.0138894
0.00390415
0.00360971
0.00170118
0.00524503
0.00735845
0.000268174
0.00258377
0.00288169
0.00389969
0.0109205
0.0119933
0.00374049
0.0133287
0.00468699
0.00518736
0.010223
0.0137242
0.0057108
0.00750029
0.000657076
0.00151785
0.00359204
0.000882775
0.000118032
0.00732617
0.0163518
0.00970042
0.00530492
0.00259725
0.000967808
0.00396215
0.00627313
0.00081616
0.0160835
0.0103864
0.00707087
0.00853138
0.00954104
0.0144713
0.00223893
0.0134827
0.00424093
0.00270492
0.00347453
0.000156532
0.000926225
0.00054004
0.00880824
0.00862945
0.00250953
0.00985437
0.00168058
0.00768427
0.00406639
0.00487619
0.00548139
0.00320922
1.00251e-05
0.00392804
0.00320238
0.00648739
0.0051018
0.0065335
0.00210142
0.00292015
0.000743757
0.00847457
0.00455818
0.000936996
0.0155599
0.00233322
0.00110716
0.00367996
0.00231396
0.000635157
0.00313173
0.00920611
0.00790863
0.000775176
0.00160069
0.000719716
0.0102959
0.000928749
0.00193711
0.0113801
0.013495
0.00245617
0.00245729
0.00243737
0.00912687
0.00645735
0.00823736
0.00314616
0.00476545
0.014203
0.00115625
0.0130502
0.00175269
0.00271431
0.0151838
0.000336164
0.0162419
0.000170306
0.0101196
0.0222733
0.00432506
0.0139655
0.00668889
0.0099702
0.0120006
0.0075128
0.00630457
0.0140313
0.014893
0.0112894
0.0144313
0.0108719
0.018965
0.00431629
0.0013199
0.00796041
0.0119092
0.00417983
0.00409087
0.00615693
0.00339398
0.0128739
0.00335915
0.00158675
0.00612498
0.00133366
0.00247154
0.000989123
0.00898981
6.88347e-05
0.0179249
0.0034416
0.0145441
0.00138105
0.00381215
0.00547874
0.00270994
0.0105468
5.3137e-05
0.000461014
5.94951e-05
0.00857472
0.00732842
0.00351375
0.0043968
0.00821308
0.00416646
0.0144056
0.00177377
0.0214934
0.00298487
0.0116684
0.00881931
0.00028216
0.00652463
0.00664219
0.00732376
0.0058255
0.0107533
0.00378768
0.0052716
0.0054151
0.00211687
0.00190734
0.000983027
0.000456945
0.0050496
0.00374727
0.00374396
0.0212509
0.00744064
0.000269859
0.00370569
0.000321016
0.00271209
0.00305897
0.000765893
0.00639851
0.0108159
2.58432e-05
0.00402695
0.00419874
0.0120479
0.00183349
0.0133443
0.00420751
0.00713891
0.00394596
0.0163645
0.00991177
0.0234901
0.0133296
0.00365931
0.0108231
0.00137598
0.0052352
0.0045672
0.00132938
0.0044635
0.00776019
0.00661025
0.010846
0.0240695
0.000688064
0.00841712
0.0117127
0.0106809
0.015986
0.0133004
0.00351556
0.0143414
0.0075913
0.00403258
0.00564857
0.0160026
0.00268281
0.00010128
0.00381403
0.000142211
0.00141999
0.00467661
0.00121485
0.00808884
0.00564293
0.000716591
0.0116415
0.0143548
0.00229045
0.0144286
0.0215018
0.0118991
0.000150378
0.000483538
0.00544832
0.00131266
0.00733007
0.003698
0.0165304
0.00796914
0.000675333
0.000981797
0.00745759
0.0050494
0.00704329
0.0111383
0.00400673
0.000934159
0.00218145
0.00316641
0.00332271
0.00963158
0.00365179
0.00215216
0.000996566
0.00658689
0.00685711
0.00499774
0.0010694
0.00426082
0.00632107
0.00267579
0.00670411
0.00925302
0.0201198
0.00356745
0.0134452
0.0124316
0.00914879
0.0184909
0.00390882
0.00319922
0.000547265
0.00231365
0.00769779
0.0187604
0.00907393
0.0140165
0.00314584
0.0019178
0.00341977
0.0145301
0.0139549
0.00293319
0.00127995
0.0022133
0.00750556
0.00647011
0.00467
0.000624132
0.012132
0.00705831
0.00826831
0.00604515
0.00423824
4.87892e-05
0.0159931
0.0144573
0.0189856
0.0093305
0.00888516
0.00807026
0.00901245
0.00120783
0.00256713
0.00212178
0.00125284
0.00560935
0.00147883
0.00524224
0.00743094
0.00158145
0.00791771
0.00100861
0.0144085
0.0101081
0.00374489
0.0035385
0.00166512
0.00813913
0.0193215
0.00117052
0.00605401
0.0073437
0.00506137
0.00294712
0.00260264
0.00643803
0.00160864
0.00691117
0.00136097
0.00580401
0.00667411
0.00557706
0.00140404
0.000273692
6.36309e-05
0.0020275
0.00955493
0.0221843
0.00431839
0.00355571
0.00459752
0.000679479
0.00201772
0.00898814
0.0018008
0.00949236
0.00291055
0.0218468
0.00269156
0.000615583
0.00135441
0.00130501
0.00438992
0.00980728
0.00344976
0.000248344
0.00501835
0.00508454
0.00343702
0.00197659
2.98345e-05
0.00373493
0.00110258
0.0032241
0.00263952
0.00122879
0.0126379
0.0170713
0.0113587
0.00598145
0.00839935
0.0055008
0.0180399
0.00509373
0.00863228
0.00618433
0.0174353
0.0021143
0.0140615
0.0054678
0.00544193
0.00463937
0.000419832
0.00546879
0.000650135
0.000596759
0.00629767
0.007555
0.00479347
0.00993893
0.00787783
0.00517747
0.00645617
0.00301139
0.0118721
0.00619071
0.00223101
0.0114483
0.010767
0.0134235
0.00403065
0.00168762
0.00123763
0.00720855
0.00907241
0.0136721
0.0100629
0.000664461
0.00536765
0.0080204
8.09615e-05
0.0031802
0.0170408
0.00378504
7.60443e-05
0.00713054
0.00483951
0.00202361
0.00176045
0.00120748
0.00192624
0.0025833
0.00168716
0.0047601
0.00333045
0.00625945
0.00130547
0.00350853
0.0105085
0.00523631
0.00918019
0.00487849
0.0103991
0.00791448
0.00509918
0.00168348
0.00503612
0.00160781
0.0114792
0.000154864
0.000851534
0.00246407
0.00172671
0.000870417
8.53268e-05
0.00154682
0.000273013
0.00439315
0.00139029
0.00550411
0.00121372
0.00210871
0.0138902
0.0070778
0.000987355
0.000410418
0.000672517
0.0136477
0.0164564
0.0027846
0.00541414
0.00767565
0.00437683
0.000648491
0.00134092
0.008942
0.00940745
0.00547023
0.00168089
0.00547801
0.00394926
0.00178287
0.00334687
0.00155126
0.0045341
0.00721105
0.0088169
0.00975692
0.00818735
0.00776062
0.0046604
0.000939047
0.00276419
0.0062783
0.0111926
0.0121481
0.00252025
0.000846651
0.00982275
0.00142018
0.00845902
0.0143218
0.00415307
0.00611168
0.00183709
0.00388499
0.0031613
0.00545805
0.00170152
0.00521882
0.00173395
0.00916783
0.00214178
0.0065295
0.00674571
0.00332995
0.00440152
0.00393618
0.0176333
0.00413753
0.00285981
0.00405314
0.000231239
0.000640493
0.000273565
0.0229114
0.0069304
0.00173814
0.000433666
0.00499714
0.00168688
0.00509427
0.00607948
0.00760273
0.00501371
0.00595915
0.00548815
0.00497452
0.00154569
0.00502814
0.00146433
0.00588444
0.00606609
0.00485118
0.0096011
0.00535183
0.00357198
0.00569719
0.00937743
0.00229998
0.0131156
0.00936858
0.0199388
0.0048179
0.00144511
0.00168881
0.00420535
0.00257903
0.00223385
0.0040465
0.00245515
0.00496953
0.00304477
0.000242916
0.0012972
0.0032144
0.00713433
0.00184134
0.0109072
0.00541085
0.0015744
0.00628316
0.0094497
0.0127185
0.00112971
0.00637982
0.00314437
0.0115898
0.00516106
0.00796563
0.0127872
0.00488644
0.00668712
0.00469592
0.00298077
0.0052015
0.015686
0.0132472
0.00299278
0.00266342
0.0125387
0.0026239
0.00509155
0.0104901
0.0081291
0.00830397
0.00376839
0.00472099
0.00566924
0.00526313
0.0106714
0.0122155
0.0062517
0.0164087
0.0151693
0.00462786
0.000893984
0.000794477
0.00856976
0.000391806
0.00587519
0.00778721
0.0181395
0.00938626
0.00851412
0.00586127
0.00776501
0.0049238
0.0103167
0.00817306
0.0024641
0.00810901
0.0136196
0.0126757
0.00235926
0.00967748
0.00457421
0.00448881
0.00119017
0.00534315
0.00152346
0.0133648
0.00503797
0.00749027
0.0101016
0.00967517
0.00646769
0.000920049
0.0146907
0.0116944
0.00119155
0.0057386
0.0102669
0.0102434
0.0111002
0.00260622
0.00506245
0.00362703
0.0134945
0.0041742
0.00414824
0.00804302
0.00866264
0.0108875
0.00628238
0.00456304
0.00257312
0.0070436
0.00796353
0.00766583
0.004539
0.00692056
0.0145662
0.00499581
0.0135605
0.00129615
0.0118274
0.00186188
0.00854322
0.0175924
0.00298096
0.003678
0.0192947
0.0139881
0.0217135
0.00491905
0.00409415
0.00561998
0.0143104
0.00277475
0.00713607
0.00484457
0.00696001
0.000263472
0.00163137
0.0205435
0.00999289
0.000111758
0.0022774
0.00587736
0.0048195
0.00401795
0.00777825
0.0100078
0.00731365
0.00101567
0.00727362
0.00106524
0.00367084
0.00888962
0.0173338
0.000221553
0.00463683
0.000982183
0.00207821
0.00675137
0.0080107
0.0166824
0.00656921
0.00587728
0.00198628
0.00375075
0.00387457
0.00156714
0.0119169
0.00918577
0.0080255
0.00375335
0.00212612
0.000748194
0.000583309
0.0106856
0.0111659
0.000994263
0.00963122
0.00423916
0.00469349
0.00450227
0.00268609
0.00114033
0.00667415
0.00335261
0.00182655
0.00329981
0.000346063
0.0102356
0.0137144
0.0105067
0.00373908
0.00874311
0.00616488
0.00412906
0.00773404
0.00994267
0.0142306
0.00726983
0.014544
0.0118568
0.00754439
0.0179425
0.00212151
0.00201024
0.00482757
0.0134707
0.00610703
0.0057585
0.00593717
0.00403498
0.00229804
0.00226067
0.0184314
0.00417305
0.00789414
0.00933398
0.0109735
0.00249705
0.0183959
0.00178809
0.0135617
0.00194135
0.00273228
0.00116288
0.00339513
0.00306693
0.00410428
0.00128182
0.000822424
0.0138852
0.000750207
0.000382772
0.00225486
0.0116826
0.00181827
0.00791779
0.00582943
0.0100977
0.0111902
0.011789
0.00895644
0.0025681
0.0185442
0.00237897
0.00330208
0.00181123
0.00172149
0.0139052
0.00589794
0.0173046
0.0160418
0.00592026
0.00593238
0.000809673
0.00308662
0.00299358
0.00548917
0.00338574
0.00807682
0.000536675
0.00524369
0.0151092
0.000102982
0.00886649
0.00346978
0.00722755
0.0126144
0.00826011
0.00914838
0.0110306
0.00685523
0.000668414
0.00585241
0.00511285
0.00394917
0.014204
0.00456946
0.00852567
0.00223568
0.00175472
0.000185369
0.00704813
0.0150644
0.0114709
0.00741874
0.0103355
0.00237785
0.0111156
0.0031652
0.0146166
0.00190574
0.00540281
0.00464369
0.0088097
0.00232947
0.000619041
0.00510262
0.00363712
0.00902888
0.00677587
0.00911298
0.00968716
0.00436637
0.00868921
0.00531817
4.23402e-05
0.00738292
0.0150615
0.00856024
0.00791508
0.000556224
0.0102242
0.00123517
0.000177731
0.00647633
0.00656576
0.0031457
0.0061171
0.00254144
0.00898561
0.0124163
0.00542086
0.0128061
3.34542e-05
0.00125599
0.00231215
0.0125201
0.00743106
0.00190814
0.00970028
0.00383596
0.00134645
0.0010842
0.00242922
0.00399096
0.0120006
0.0112271
0.00906074
0.00202583
0.00874634
0.00822021
0.00952573
0.000890454
0.00590125
0.00621859
0.00304095
0.0096986
0.000531972
0.00338139
0.00740823
0.00107449
0.00406446
0.00422366
0.0119758
0.00811308
0.0161909
0.00810696
0.0114857
0.0128625
0.000583565
0.0225317
0.00627381
0.00474918
0.00568619
0.00452324
0.0179482
0.00538878
0.0150826
0.00318401
0.0125619
0.0116722
0.00196249
0.00911661
0.00499081
0.000287225
0.000509927
0.0121742
0.00953718
0.00229748
0.0148428
0.0131504
0.00244797
0.0109652
0.00300731
0.00139774
0.0169538
0.0100297
0.00691409
0.0160645
0.00901414
0.00750172
0.000294281
0.00596957
0.0014968
0.00433088
0.0123895
0.00688378
0.0105322
0.00894121
0.00905906
0.0202738
0.00339668
0.0149841
0.0120322
0.0223588
0.0128067
0.016011
0.00948083
0.00870942
0.0145
0.00383228
0.00259623
0.00205469
0.00661948
0.00107073
0.0103525
0.0129938
0.00876739
0.00962536
0.00767354
0.00729008
0.016298
0.00594579
0.0103492
0.00756896
0.00856254
0.0042142
6.91862e-05
0.0014017
0.00121584
0.00600387
0.00936005
0.00313566
0.0017208
0.00917827
0.00726979
0.0110733
0.00400022
0.00815384
0.0018833
0.000866347
0.0137324
0.00273231
0.025751
0.00486547
0.00946692
0.00347102
0.0186824
0.00867424
0.0021967
0.0186162
0.00706509
0.0107235
0.01103
0.00312305
0.00147804
0.00885208
0.0104813
0.00594471
0.0128903
0.0130086
0.00102799
0.00835018
0.0138844
0.00458312
0.0115451
0.00675207
0.00763024
0.00047899
0.0093912
0.0129548
0.00861411
0.00912611
0.0130448
1.8351e-05
0.00669419
0.00285605
0.000998261
0.00495364
0.00201464
0.0153836
0.00017847
0.00487142
0.000189654
0.00486696
0.00343028
0.00105484
0.00461474
0.00252298
0.0190067
0.00596919
0.00101084
0.00140175
0.000271403
0.0144817
0.0103964
0.00173284
0.00587471
0.0041664
0.00283344
0.00667201
0.00415161
0.0071207
7.83109e-05
0.00163726
0.00933953
0.000545526
0.0106588
0.0026354
0.00190504
0.00256473
0.00247313
0.00182839
0.00931467
0.00835417
0.000619197
0.0148016
0.0185035
0.0197471
0.00976366
0.0123128
0.00220305
0.00673425
0.00638409
0.0181285
0.00297584
0.000145875
0.00531999
0.00490143
0.017391
0.00488233
0.00175918
0.0046355
0.0049621
0.00286261
0.00130533
0.0104478
0.00627657
0.00365726
4.00643e-05
0.000850448
0.00041917
0.0189923
0.00214154
0.000618804
0.000846591
0.00304277
0.0204556
0.00133078
0.0135659
5.11799e-05
0.00354611
0.00220185
0.000642223
0.00513749
0.00298609
0.00407479
0.0160871
0.0119294
0.0148099
0.0124863
0.015632
8.06368e-05
0.0124524
0.0136334
0.0214595
0.0194959
0.0162582
0.0171061
0.000437049
0.00829455
0.00641085
0.00577237
0.0147994
0.0163311
0.000630386
0.00118954
0.0206105
0.00137679
0.00478238
0.00146309
0.00776277
0.00450988
0.00596145
0.00752422
0.0188693
0.00289769
0.0166238
0.00986705
0.00323033
0.00472779
0.00204001
0.00108077
0.0028829
0.00352789
0.00819179
0.00526562
0.00783699
0.00279568
0.00284872
0.00141734
0.00298916
0.0200843
0.00648189
0.0134912
0.00794882
0.00651388
0.00682458
0.00577402
0.0135086
0.00189208
0.000637042
0.0110805
0.0143082
0.0109952
0.00273657
0.00923407
0.00674974
0.00749992
0.00899769
0.00970867
0.00419006
0.00188303
0.00103354
0.00554045
0.00660064
0.0106124
0.00153711
0.0147479
0.00499961
0.0158795
0.00264751
0.00200442
0.00812488
0.00281859
0.00033602
0.00182443
0.0029499
0.00846738
7.95057e-05
9.58597e-05
0.00266521
0.00371942
0.0020155
0.00547638
0.00221565
0.0132523
0.000451519
0.00662853
0.00378336
0.0112647
0.0120695
0.00298985
0.000928716
0.00509048
0.00959034
0.0052088
0.00372381
0.00397946
0.0102776
0.00863278
0.00755104
0.00565572
0.0013742
0.00338609
0.0076359
0.000529141
0.0077802
0.00921077
0.00412659
0.00220032
0.00262466
0.00435353
0.00133792
0.000329289
0.00562611
0.00948035
0.0074606
0.00974862
0.00694688
0.0106552
0.0244285
0.0135109
0.000475532
0.00815562
0.00626966
0.019722
0.0229823
0.0120776
0.00843478
0.00294656
0.000784622
0.00630028
0.00867376
0.0124455
0.00635308
0.0203646
0.00836528
0.010383
0.0233011
0.00208522
0.00394733
0.0116568
0.000406799
0.00826137
0.0056588
0.0130918
0.0197112
0.00594084
0.0138641
0.00365111
0.0107105
0.00363689
0.00223813
0.00271006
0.000470257
0.00134187
0.0114474
0.01228
0.00717862
0.000794405
0.0040352
0.0132148
0.00399535
0.0177105
0.0219941
0.0168488
0.000520482
0.000789952
0.0025788
0.00218527
0.00185265
0.00276505
0.00549325
0.00348764
0.0126376
0.000912638
0.00667511
0.00989187
0.0212934
0.0158682
0.00826863
0.00149229
0.00322207
0.0116829
0.019372
0.0100537
0.00685528
0.0061824
0.00333364
0.0146923
0.00125537
0.00403833
0.00152643
0.000316002
0.00398134
0.00548494
0.00382026
0.00549217
0.0118962
0.015694
0.0172389
0.00552973
0.0092929
0.0150199
0.0057255
0.00754978
0.0110226
1.37636e-06
0.00456868
0.00928949
0.0035959
0.00313422
0.00355867
0.00159449
0.0163691
0.00711233
0.0022639
0.00170984
0.00467326
0.000972554
0.00647822
0.00755301
0.00977608
0.00281668
0.0089279
0.00804307
0.0102173
0.00313759
0.00109677
0.00415266
0.00485567
0.003418
0.0043307
0.010564
0.00599662
0.0144017
0.0126161
0.00121148
0.00703211
0.00729208
0.00683809
0.00622145
0.00207719
0.00459012
0.00945236
0.00334165
0.0029861
0.00113804
0.0041615
0.00089977
0.00392374
0.017501
0.00612389
0.0108134
0.0119648
0.00123407
0.000411809
0.00386444
0.00927998
0.00748183
0.00773533
0.00558583
0.00271667
0.0017745
0.00916716
0.00299579
0.00823596
0.00970498
0.00203306
0.00353056
0.00253086
0.00767027
0.00358244
0.0110304
0.00931926
0.00195983
0.0170298
0.00610828
0.0074245
0.0260124
0.00567496
0.00964626
0.0213955
0.0168191
0.016741
0.018282
0.0130303
0.0150703
0.0172876
0.0066024
0.00181422
0.00888601
0.0102593
0.00362202
0.0044112
0.0043739
0.00483596
0.0138096
0.00162701
0.00402364
0.00469776
0.00861462
0.00484977
0.00201505
0.0153403
0.000365325
0.00188839
0.00140129
0.00370649
0.00188252
0.00753053
0.000594972
0.000136489
0.00300264
0.00468891
0.00214926
0.00855224
0.00641877
0.0182803
0.0134155
0.0153606
0.00615488
0.00101926
0.0135048
0.00469436
0.00100203
0.0201761
0.0111884
0.0118502
0.00419049
0.0115192
0.00541099
0.00649415
0.00494827
0.00636675
0.0191099
0.00429678
0.00101369
0.00329766
0.0177614
0.00123985
0.00262105
0.0033532
0.0100577
0.00795707
0.00183496
0.0126238
0.0146587
0.0163422
0.01047
0.00423543
0.00725348
0.00878272
0.000444083
0.00734795
0.017199
0.00367119
0.00343591
0.000169503
0.00281993
0.00527348
0.0194329
0.00299218
0.00994251
0.0108595
0.013072
0.00164589
0.0017016
0.00756031
0.0246585
0.0125396
0.00507951
0.00273105
0.0072944
0.00125843
0.0080204
0.000746492
0.0162663
0.00472859
0.000633292
0.0086841
0.000634918
0.000919821
0.0159672
0.00173795
0.00989827
0.0078843
0.00987812
0.00786662
0.00283499
0.00544293
0.00969104
0.0129062
0.00604419
0.00647258
0.0153788
0.00878778
0.00269556
0.00436147
0.0149426
0.00437427
0.00758749
4.36405e-05
0.00109021
0.00608634
0.00144773
0.00928628
0.00904371
0.00594004
0.000838904
0.00833304
0.00543771
0.00193554
0.00515524
0.00794082
0.00151905
0.00765151
0.00986976
0.000275602
0.00440299
0.022288
0.00502204
0.0103204
0.00763214
0.0126137
0.0108072
0.00756272
0.00853403
0.00513034
0.00328163
0.000552757
0.0121388
0.000692463
0.00269862
0.00676886
0.00112243
0.00857256
0.00714333
0.0067003
0.0157055
0.00790533
0.0207145
0.0065986
0.0110459
0.00627916
0.00947848
0.011686
0.00503514
0.0172948
0.0156901
0.00511495
0.00819751
0.00410638
0.0062529
0.0126873
0.00136218
0.0056085
0.0025475
0.00224685
0.00815551
0.00288042
0.013215
0.00260125
0.00137192
0.00034914
0.000337364
0.01377
0.000282504
0.012089
0.000454482
0.00743485
0.000683238
0.00131377
0.00289972
0.0144288
0.0124085
0.00749324
0.00663567
0.0039054
0.0162334
0.00112595
0.0107914
0.00797216
0.0230665
0.0102254
0.0124137
0.0127578
0.000666246
0.000925215
0.00287334
0.00297657
0.00712706
0.00181756
0.0118392
0.0066779
0.0125538
0.00422832
0.0107167
0.0045118
0.0149007
0.00893645
0.00627993
0.0042657
0.00160793
0.0201514
0.0116727
0.0103621
0.000422812
0.00766285
0.007402
0.00327321
0.0115193
0.0134494
0.00698499
0.00707625
0.00493635
0.00761415
0.00068113
0.000222633
0.0116625
0.000509381
0.0131472
0.00310616
0.00394613
0.000508618
0.0150524
0.00967253
0.00775882
0.0127527
0.00165518
0.00566751
0.0157758
0.00065098
0.00159041
0.00248956
0.00532142
0.00152645
0.00434379
0.00505942
0.000643025
0.00390508
0.0014056
0.0194023
0.000175043
0.00300907
0.0112125
0.0078121
0.00852688
0.00692011
0.00178302
0.00223569
0.00338638
0.00818762
0.00400392
0.00275144
0.00268869
0.00703555
0.000726633
0.00366753
0.0139961
0.00163831
0.0058226
0.0144543
0.00312894
0.00208724
0.000152007
0.00295797
0.00846972
0.00565026
0.0174255
0.013065
0.0130654
0.00494665
0.00618488
0.00151342
0.00332225
0.00929566
0.011182
0.00341231
0.00952973
0.00937812
0.00164243
0.00766023
0.00291897
0.000147513
0.00931845
0.00354405
0.00179019
4.30879e-06
0.00170373
0.0022396
0.00814066
0.0063599
0.00123145
0.0157442
0.0102891
0.00314728
0.0104533
0.00052824
0.0197227
0.0170078
0.00590733
0.0221394
0.012504
0.0140469
0.0139663
0.0152234
0.0172149
0.0168458
0.00221118
0.0112957
0.00335988
0.00610528
0.0011853
0.00133314
0.0139524
0.016832
0.00245934
0.00792847
0.0088677
0.016162
0.00106325
0.00643166
0.00602379
0.0209451
0.00801724
0.0106057
0.00213551
0.00866712
0.000662819
0.00321564
0.00813968
0.0127851
0.00126022
0.00532164
0.00819831
0.00367782
0.00573288
0.000501674
0.00984437
0.0174562
0.00639413
0.00468529
0.011362
0.0025547
0.0237559
0.0177726
0.01008
0.00724134
0.0097451
0.00382614
0.00176732
0.00157859
0.00448384
0.0120695
0.00266568
0.000433837
0.00718136
0.0134237
0.00353844
0.0155156
0.000406855
0.00215174
0.00539571
0.00473886
0.0136092
0.00846913
0.00835384
0.00677936
0.0035109
0.0118716
0.0110893
0.00126532
0.00265963
0.00572971
1.26128e-05
0.00613633
0.00791745
0.00855191
0.00352855
0.000650481
0.0166638
0.00639592
0.0118098
0.0171707
0.0121717
0.00603318
0.00653038
0.00600356
0.011146
0.000155602
0.00162327
0.0179207
0.0148773
0.00245399
0.0104666
0.00860051
0.00187981
0.00453136
0.00534011
0.00155579
0.000993018
0.012186
0.00222208
0.00283975
0.00595711
0.0111453
0.0114471
0.00204341
0.00747091
0.00334377
0.00426262
0.00399479
0.000745974
0.00486943
0.00939406
0.0103149
0.00956121
0.00132442
0.00877072
4.58364e-05
0.00118409
0.00623767
0.0052859
0.007614
0.00702854
0.0102718
0.00302663
0.0189353
0.00473069
0.00186738
0.00221896
0.00667256
0.000793958
0.00304057
0.0190485
0.000694168
0.008499
0.00562662
0.000191137
0.0149287
0.00372547
0.001819
0.00928248
0.00743949
0.000336282
0.00708994
0.00168823
0.00846615
0.00700852
0.00238846
0.00649618
0.00317572
0.00610867
0.00215553
0.00514447
0.00324079
0.0124853
0.005614
0.0100622
0.0181518
0.00113129
0.00624906
0.00812702
0.0128082
0.0103329
0.00754751
0.00583224
0.00156212
0.000744321
0.0077683
0.00249242
0.000831893
0.00440745
0.0051145
1.33324e-05
0.00394719
0.00302324
0.000363861
0.00822056
0.000921048
0.00800655
0.00110575
0.000584311
0.00545729
0.00313172
0.00858622
0.000266076
0.00388494
0.000919621
0.00578225
0.00207153
0.00968191
0.00255843
0.00355521
0.00695079
0.00833905
0.0141036
0.00372228
0.000368633
0.00577756
0.0101116
0.0074366
0.0105027
0.00434334
0.00318449
0.0117933
0.00192001
0.0066768
0.00443389
0.00246818
0.00643162
0.00267843
0.00539113
0.0023393
0.00905212
0.00583295
0.00380517
0.00545511
0.00949942
0.00390069
0.015506
0.0161394
0.0104872
0.0170843
0.0157257
0.00296974
0.00875069
0.0239963
0.00582995
0.00641233
0.00145315
0.00382052
0.0130036
0.000804163
0.00552545
0.00553908
0.0127577
0.00872376
0.017025
0.0134338
0.00637555
0.00257194
0.0109453
0.00519684
0.00218566
0.0106491
0.000408045
0.0078193
0.00726899
0.0116562
0.0102351
0.00395751
0.00124989
0.00400091
0.0109515
0.0155731
0.00802147
0.00640874
0.00451624
0.00296214
0.00925845
0.000316884
0.00154711
0.00475371
0.00558599
0.00597785
0.00694539
0.00182581
0.00964004
0.00555154
0.0105119
0.00847716
0.00156255
0.00810883
0.00377428
0.00177653
0.00722772
0.0100535
0.00373821
0.00489837
0.00212187
0.000552233
0.000515454
0.00292672
0.00289776
0.006072
0.00807148
0.000394768
0.00330594
0.000519156
0.00249935
0.00751556
0.0179444
0.00392821
0.00666173
0.00180701
0.00503985
0.00511594
0.015448
0.00401021
0.00899348
0.00142668
0.008666
0.00761164
0.0149969
0.00204141
0.00183497
0.00424695
0.00710607
0.00339542
0.0102215
0.00221279
0.00215764
0.00346221
0.000811337
0.00290021
0.00519666
0.00511093
0.00955948
0.013858
0.000470251
0.00872801
0.00573931
0.00741176
0.00486946
0.00725891
0.0047509
0.00795285
0.00171687
0.00524827
0.00067795
0.00959862
0.00362905
0.00114798
0.00130483
0.0103601
0.0017796
0.0106054
0.00991103
0.00508433
0.00464422
0.0121064
0.0139225
0.0286232
0.00263937
0.00290303
0.00190702
0.0022736
0.000202556
0.0075491
0.00241224
0.0193493
0.00534485
0.00664336
0.000416541
0.00278881
0.00744156
0.00584449
0.00258714
0.0016771
0.00309166
0.00304891
0.00602035
0.00266003
0.0165635
0.000631321
0.000955458
0.00384728
0.00309258
0.00128804
0.014622
0.00912391
0.00118872
0.000707394
0.00110815
0.000928883
0.00390179
0.00400971
0.00780166
0.000845382
0.00835233
0.00167097
0.0120558
0.00526126
0.0105219
0.0090579
0.00618589
0.00289912
0.00796022
0.014112
0.00165248
0.0250939
0.00666908
0.00563945
0.000274616
0.00158977
0.00111726
0.017249
0.00226184
0.00724686
0.00526542
0.006139
0.00201307
0.00312375
0.00863932
0.00378004
0.00384291
0.0133858
0.0130145
0.000476755
0.00653042
0.0124351
0.00721953
0.00274619
0.0111379
0.00643037
0.00352022
0.00408947
0.00137678
0.00330323
0.00417899
0.00985245
0.00206632
0.000659572
0.000933637
0.0010741
0.00395662
0.00667166
0.00482468
0.0135622
0.00560948
0.00839762
0.0177313
0.00443866
0.00278082
0.00311904
0.00610572
0.0111088
0.00504623
0.000156519
0.00851045
0.00238817
0.0016779
0.00374951
0.00500737
0.00167658
0.0140245
0.000852161
0.00679233
0.00210038
0.00393718
0.00772316
0.00384895
0.00364818
0.0144236
0.00957168
0.000816281
0.00868974
0.00220939
0.00909003
0.0131282
0.00170932
0.0106574
0.0147536
0.00487668
0.0101039
0.0196571
0.000896851
0.00525894
0.0111824
0.00242079
0.00423342
0.0187428
0.00278421
0.00224734
0.00347685
0.00554615
0.000277757
0.00576601
0.0121177
0.00332354
0.00504896
0.004107
0.0114996
0.000183984
0.00275202
0.00666107
0.0134721
0.000860854
0.000310093
0.0165651
0.0237008
0.0152682
0.00391793
0.0127887
0.00142342
0.00681229
0.00027003
0.00501136
0.00258048
0.00189441
4.10479e-05
4.95697e-05
0.00454836
8.59021e-05
8.94937e-05
0.00208193
0.00749394
0.00116918
0.00215895
0.000511661
0.011204
0.00822183
0.0190416
0.00354906
0.000782688
0.0058931
0.000619273
0.00609351
0.00688647
0.00762896
0.00494498
0.0033804
0.00343211
0.0111212
0.000227277
0.00158377
0.00112407
0.00667117
0.00538775
0.00703476
0.0184648
0.00876528
0.00577153
0.00639938
0.010122
0.0103073
0.000954776
0.0183103
0.00422833
0.0134577
0.000106919
0.00327469
0.0013488
0.003889
0.00214253
0.00429879
0.00684363
0.000566771
0.00797132
0.00131152
0.01099
0.00117205
0.00612306
0.00465831
0.00121514
0.00868542
0.0144165
0.0087417
0.00871222
0.00522289
0.0001474
0.00195627
0.005017
0.014971
0.00798347
0.00925749
0.00301087
0.00410636
0.0131673
0.00628033
0.0050352
0.00578194
0.0112948
0.000802569
0.00139189
0.00958979
0.0106957
0.00506381
0.0128541
0.000962925
0.0139625
0.00729548
0.00370755
0.011204
0.00230724
0.00372721
0.00307951
0.00161824
0.00175266
0.00320507
0.00576656
0.00650757
0.00104185
0.00269671
0.0079268
0.00871289
0.000807168
0.000620102
0.0065762
0.00817252
0.00223467
0.000150314
0.0149411
0.00302167
0.00122173
0.00760812
0.00231415
0.0133457
0.00152088
0.0120749
0.00911586
0.0091243
0.0024279
0.0150191
0.0019941
0.00194604
0.00424028
0.00192671
0.000825621
0.00494778
0.00804962
0.00935592
0.000835696
0.0027101
0.00962997
0.0084186
0.00313454
0.0043102
0.0144622
0.00640831
0.00860105
0.00731391
0.0186086
0.00739777
0.00113955
0.000635461
0.00933981
0.00711269
0.00262157
0.00678289
0.00279148
0.00348076
0.00470839
0.00176884
0.0164516
0.00174895
0.0124671
0.00759
0.0167491
0.0242591
0.0236207
0.0183271
0.00734843
0.0153102
0.00184675
0.00253547
0.000510417
0.00678515
0.00709757
0.00194457
0.0021417
0.0028288
0.00163623
0.00798603
0.00524259
0.000769804
0.0124825
0.0169787
0.0147589
0.0150105
0.0280803
0.00878799
0.00170593
0.0131155
0.00884306
0.0166195
0.00261977
0.00116481
0.00558989
0.0046334
0.00524561
0.00609747
0.00951536
0.00268745
0.00564702
0.009188
0.00717543
0.0120384
0.0125363
0.0261929
0.00789878
0.0158411
0.0145906
0.000818106
0.00847758
0.0124275
0.00165169
0.00547753
0.00374013
0.000294882
0.00994517
0.00432916
0.00508866
0.00640065
0.00312704
0.00340257
0.000534304
0.00400633
0.00830069
0.00802836
0.0126081
0.00464416
0.0139403
0.0108295
0.000912181
0.00240586
0.00601784
0.00276402
0.00626878
0.000795672
0.0147814
0.00380076
0.012424
0.00840779
0.00215743
0.0118046
0.0111964
0.0114996
0.00467681
0.00930825
0.0123747
0.0085971
0.00377981
0.0138746
0.00412086
7.74624e-05
0.000688638
0.00533089
0.00628389
0.00741459
0.0125839
0.00194008
0.00396376
0.00528272
0.00416151
0.00392396
0.0139116
0.00293958
0.000724692
0.0153281
0.0102503
0.00631839
0.00267996
0.00938658
0.000190013
0.00943488
0.015935
0.00556823
0.00494542
0.010494
0.00410169
0.00218025
0.00109031
0.0101093
0.0119021
0.00524331
0.00138956
0.0129932
0.00725755
0.0142941
0.0123672
0.00151837
0.017773
0.00186004
0.00635099
0.00111094
0.0161535
0.0195323
0.00485756
0.00184972
0.00828027
0.000755187
0.00621492
0.00202713
0.00695911
0.00677106
0.00615138
0.0137811
0.00378176
0.00253394
0.00277237
0.0207176
0.0211341
0.020923
0.0171396
0.0136369
0.00569123
0.00383734
0.00395082
0.00265845
0.00339312
0.0073952
0.000420689
0.0244034
0.0127453
0.00427581
0.0145998
0.00954969
0.0168338
0.0191868
0.0203218
0.0362686
0.00462336
0.0172137
0.00347938
0.006639
0.00217245
0.00246629
0.00197589
0.00113289
0.000132415
0.000871919
0.00358343
0.00113323
0.0135368
0.00113733
0.0175955
0.00157302
0.0213955
9.72542e-05
0.00626876
0.0195675
0.0201865
0.0127196
0.00920814
0.000850087
9.68569e-06
0.00414334
0.00705202
0.0089897
0.00701062
0.00248522
0.000290462
0.0056674
0.0063361
0.0110857
0.00754862
0.0043687
0.0255972
0.0114538
0.00485817
0.0074515
0.0167171
0.00115163
0.00950608
0.0010471
0.00897554
0.00384105
0.00764031
0.00694675
0.00262995
0.00164882
0.00172268
0.0111298
0.00542134
0.00142552
0.00648444
0.0146859
0.00284076
0.0143949
0.0193626
0.0129405
0.00304807
0.0140277
0.00872964
0.0123972
0.00285138
0.00892144
0.00273296
0.0128947
0.00577553
0.00196234
0.00374411
0.00216976
0.0133103
0.0140259
0.0075093
0.000924544
0.0136906
0.0139571
0.0294461
0.0178156
0.00762268
0.0253829
0.00349169
0.0209214
0.0121805
0.0013588
0.00472421
0.0115611
0.000627747
0.000814234
0.00115527
0.00805898
0.00123342
0.0103597
0.00990555
0.00296881
0.00498859
0.00688723
0.0228383
0.00637892
0.00231936
0.00540704
0.00148801
0.011993
0.00200896
0.00502526
0.00960213
0.00203429
0.0026049
0.00728799
0.0113061
0.0114821
0.00579493
0.0105014
0.00422472
0.00156246
0.00490734
0.0036259
0.00142043
0.00302882
0.00209553
0.0124907
0.00888971
0.00952129
9.50486e-05