/*--------------------------------*- C++ -*----------------------------------*\
| =========                 |                                                 |
| \\      /  F ield         | OpenFOAM: The Open Source CFD Toolbox           |
|  \\    /   O peration     | Version:  2212                                  |
|   \\  /    A nd           | Website:  www.openfoam.com                      |
|    \\/     M anipulation  |                                                 |
\*---------------------------------------------------------------------------*/
FoamFile
{
    version     2.0;
    format      ascii;
    arch        "LSB;label=32;scalar=64";
    class       volScalarField;
    location    "0";
    object      Tdirect;
}
// * * * * * * * * * * * * * * * * * * * * * * * * * * * * * * * * * * * * * //

dimensions      [0 0 0 1 0 0 0];

internalField   nonuniform List<scalar> 
3200
(
343.451
344.369
345.54
346.817
348.132
349.423
350.614
351.62
352.352
352.739
352.739
352.352
351.62
350.614
349.423
348.132
346.817
345.54
344.369
343.451
337.684
338.461
339.471
340.576
341.714
342.83
343.86
344.729
345.362
345.696
345.696
345.362
344.729
343.86
342.83
341.714
340.576
339.471
338.461
337.684
331.907
332.551
333.402
334.336
335.297
336.241
337.11
337.844
338.377
338.659
338.659
338.377
337.844
337.11
336.241
335.297
334.336
333.402
332.551
331.907
326.121
326.64
327.334
328.097
328.883
329.653
330.364
330.962
331.398
331.628
331.628
331.398
330.962
330.364
329.653
328.883
328.097
327.334
326.64
326.121
320.329
320.727
321.265
321.858
322.469
323.068
323.62
324.085
324.423
324.602
324.602
324.423
324.085
323.62
323.068
322.469
321.858
321.265
320.727
320.329
314.531
314.813
315.197
315.62
316.056
316.484
316.878
317.21
317.451
317.579
317.579
317.451
317.21
316.878
316.484
316.056
315.62
315.197
314.813
314.531
308.73
308.898
309.128
309.382
309.644
309.901
310.138
310.337
310.482
310.558
310.558
310.482
310.337
310.138
309.901
309.644
309.382
309.128
308.898
308.73
302.927
302.983
303.06
303.145
303.233
303.319
303.398
303.465
303.513
303.539
303.539
303.513
303.465
303.398
303.319
303.233
303.145
303.06
302.983
302.927
343.562
344.472
345.634
346.898
348.2
349.477
350.654
351.647
352.37
352.752
352.752
352.37
351.647
350.654
349.477
348.2
346.898
345.634
344.472
343.562
337.78
338.55
339.552
340.646
341.773
342.877
343.895
344.753
345.378
345.707
345.707
345.378
344.753
343.895
342.877
341.773
340.646
339.552
338.55
337.78
331.988
332.627
333.471
334.395
335.347
336.28
337.14
337.864
338.391
338.669
338.669
338.391
337.864
337.14
336.28
335.347
334.395
333.471
332.627
331.988
326.187
326.702
327.39
328.145
328.923
329.686
330.388
330.979
331.409
331.636
331.636
331.409
330.979
330.388
329.686
328.923
328.145
327.39
326.702
326.187
320.38
320.775
321.309
321.896
322.501
323.093
323.639
324.098
324.432
324.608
324.608
324.432
324.098
323.639
323.093
322.501
321.896
321.309
320.775
320.38
314.568
314.848
315.228
315.647
316.079
316.502
316.892
317.219
317.458
317.583
317.583
317.458
317.219
316.892
316.502
316.079
315.647
315.228
314.848
314.568
308.752
308.919
309.147
309.399
309.658
309.912
310.146
310.343
310.485
310.561
310.561
310.485
310.343
310.146
309.912
309.658
309.399
309.147
308.919
308.752
302.934
302.99
303.066
303.151
303.237
303.323
303.401
303.467
303.515
303.54
303.54
303.515
303.467
303.401
303.323
303.237
303.151
303.066
302.99
302.934
343.785
344.68
345.822
347.063
348.339
349.588
350.738
351.707
352.411
352.783
352.783
352.411
351.707
350.738
349.588
348.339
347.063
345.822
344.68
343.785
337.972
338.73
339.715
340.789
341.893
342.974
343.968
344.805
345.414
345.735
345.735
345.414
344.805
343.968
342.974
341.893
340.789
339.715
338.73
337.972
332.15
332.779
333.609
334.516
335.449
336.362
337.202
337.909
338.422
338.693
338.693
338.422
337.909
337.202
336.362
335.449
334.516
333.609
332.779
332.15
326.32
326.826
327.502
328.244
329.007
329.753
330.439
331.016
331.435
331.656
331.656
331.435
331.016
330.439
329.753
329.007
328.244
327.502
326.826
326.32
320.483
320.872
321.396
321.973
322.566
323.145
323.678
324.127
324.452
324.624
324.624
324.452
324.127
323.678
323.145
322.566
321.973
321.396
320.872
320.483
314.641
314.917
315.291
315.702
316.125
316.539
316.92
317.24
317.472
317.595
317.595
317.472
317.24
316.92
316.539
316.125
315.702
315.291
314.917
314.641
308.796
308.96
309.185
309.432
309.686
309.934
310.163
310.355
310.494
310.568
310.568
310.494
310.355
310.163
309.934
309.686
309.432
309.185
308.96
308.796
302.949
303.004
303.079
303.162
303.247
303.33
303.407
303.471
303.518
303.542
303.542
303.518
303.471
303.407
303.33
303.247
303.162
303.079
303.004
302.949
344.121
344.996
346.109
347.316
348.554
349.763
350.874
351.808
352.486
352.844
352.844
352.486
351.808
350.874
349.763
348.554
347.316
346.109
344.996
344.121
338.263
339.003
339.963
341.008
342.079
343.125
344.086
344.893
345.479
345.788
345.788
345.479
344.893
344.086
343.125
342.079
341.008
339.963
339.003
338.263
332.395
333.01
333.818
334.701
335.607
336.491
337.302
337.984
338.478
338.739
338.739
338.478
337.984
337.302
336.491
335.607
334.701
333.818
333.01
332.395
326.52
327.015
327.674
328.395
329.136
329.858
330.521
331.078
331.481
331.694
331.694
331.481
331.078
330.521
329.858
329.136
328.395
327.674
327.015
326.52
320.639
321.018
321.53
322.09
322.666
323.227
323.742
324.175
324.488
324.654
324.654
324.488
324.175
323.742
323.227
322.666
322.09
321.53
321.018
320.639
314.752
315.021
315.386
315.786
316.197
316.598
316.966
317.274
317.498
317.616
317.616
317.498
317.274
316.966
316.598
316.197
315.786
315.386
315.021
314.752
308.863
309.023
309.242
309.482
309.729
309.97
310.19
310.376
310.51
310.581
310.581
310.51
310.376
310.19
309.97
309.729
309.482
309.242
309.023
308.863
302.971
303.025
303.098
303.179
303.261
303.342
303.416
303.478
303.523
303.547
303.547
303.523
303.478
303.416
303.342
303.261
303.179
303.098
303.025
302.971
344.573
345.421
346.498
347.662
348.852
350.011
351.072
351.963
352.608
352.948
352.948
352.608
351.963
351.072
350.011
348.852
347.662
346.498
345.421
344.573
338.654
339.372
340.3
341.308
342.338
343.34
344.259
345.028
345.586
345.88
345.88
345.586
345.028
344.259
343.34
342.338
341.308
340.3
339.372
338.654
332.725
333.321
334.103
334.954
335.825
336.673
337.448
338.098
338.569
338.817
338.817
338.569
338.098
337.448
336.673
335.825
334.954
334.103
333.321
332.725
326.79
327.269
327.907
328.603
329.314
330.007
330.641
331.172
331.556
331.759
331.759
331.556
331.172
330.641
330.007
329.314
328.603
327.907
327.269
326.79
320.848
321.216
321.711
322.251
322.805
323.343
323.836
324.248
324.547
324.704
324.704
324.547
324.248
323.836
323.343
322.805
322.251
321.711
321.216
320.848
314.902
315.162
315.515
315.901
316.296
316.681
317.033
317.327
317.54
317.652
317.652
317.54
317.327
317.033
316.681
316.296
315.901
315.515
315.162
314.902
308.952
309.108
309.319
309.551
309.789
310.019
310.231
310.407
310.535
310.602
310.602
310.535
310.407
310.231
310.019
309.789
309.551
309.319
309.108
308.952
303.001
303.053
303.124
303.202
303.281
303.359
303.429
303.489
303.531
303.554
303.554
303.531
303.489
303.429
303.359
303.281
303.202
303.124
303.053
303.001
345.146
345.962
346.995
348.108
349.242
350.342
351.347
352.187
352.794
353.114
353.114
352.794
352.187
351.347
350.342
349.242
348.108
346.995
345.962
345.146
339.148
339.839
340.73
341.694
342.676
343.628
344.497
345.223
345.748
346.024
346.024
345.748
345.223
344.497
343.628
342.676
341.694
340.73
339.839
339.148
333.143
333.716
334.467
335.281
336.111
336.916
337.65
338.264
338.707
338.94
338.94
338.707
338.264
337.65
336.916
336.111
335.281
334.467
333.716
333.143
327.13
327.592
328.204
328.87
329.548
330.206
330.806
331.308
331.67
331.86
331.86
331.67
331.308
330.806
330.206
329.548
328.87
328.204
327.592
327.13
321.113
321.467
321.942
322.459
322.987
323.498
323.965
324.354
324.635
324.783
324.783
324.635
324.354
323.965
323.498
322.987
322.459
321.942
321.467
321.113
315.091
315.341
315.68
316.049
316.426
316.792
317.125
317.403
317.603
317.709
317.709
317.603
317.403
317.125
316.792
316.426
316.049
315.68
315.341
315.091
309.066
309.215
309.418
309.64
309.867
310.086
310.286
310.453
310.573
310.637
310.637
310.573
310.453
310.286
310.086
309.867
309.64
309.418
309.215
309.066
303.039
303.089
303.157
303.232
303.307
303.381
303.448
303.504
303.544
303.565
303.565
303.544
303.504
303.448
303.381
303.307
303.232
303.157
303.089
303.039
345.841
346.622
347.606
348.663
349.735
350.77
351.712
352.497
353.063
353.36
353.36
353.063
352.497
351.712
350.77
349.735
348.663
347.606
346.622
345.841
339.75
340.41
341.259
342.174
343.102
343.998
344.813
345.492
345.982
346.239
346.239
345.982
345.492
344.813
343.998
343.102
342.174
341.259
340.41
339.75
333.65
334.198
334.914
335.687
336.472
337.229
337.918
338.492
338.905
339.122
339.122
338.905
338.492
337.918
337.229
336.472
335.687
334.914
334.198
333.65
327.545
327.986
328.569
329.201
329.843
330.463
331.026
331.494
331.832
332.009
332.009
331.832
331.494
331.026
330.463
329.843
329.201
328.569
327.986
327.545
321.435
321.773
322.226
322.717
323.216
323.698
324.135
324.5
324.762
324.9
324.9
324.762
324.5
324.135
323.698
323.216
322.717
322.226
321.773
321.435
315.321
315.56
315.883
316.234
316.59
316.934
317.247
317.507
317.694
317.792
317.792
317.694
317.507
317.247
316.934
316.59
316.234
315.883
315.56
315.321
309.204
309.347
309.54
309.751
309.965
310.172
310.359
310.515
310.628
310.687
310.687
310.628
310.515
310.359
310.172
309.965
309.751
309.54
309.347
309.204
303.085
303.133
303.198
303.269
303.34
303.41
303.472
303.525
303.562
303.582
303.582
303.562
303.525
303.472
303.41
303.34
303.269
303.198
303.133
303.085
346.665
347.407
348.338
349.334
350.339
351.306
352.182
352.909
353.432
353.706
353.706
353.432
352.909
352.182
351.306
350.339
349.334
348.338
347.407
346.665
340.462
341.089
341.893
342.755
343.626
344.463
345.221
345.85
346.302
346.539
346.539
346.302
345.85
345.221
344.463
343.626
342.755
341.893
341.089
340.462
334.252
334.772
335.449
336.178
336.914
337.622
338.263
338.795
339.177
339.377
339.377
339.177
338.795
338.263
337.622
336.914
336.178
335.449
334.772
334.252
328.036
328.455
329.007
329.603
330.205
330.784
331.308
331.742
332.055
332.218
332.218
332.055
331.742
331.308
330.784
330.205
329.603
329.007
328.455
328.036
321.816
322.138
322.566
323.029
323.498
323.948
324.355
324.693
324.935
325.062
325.062
324.935
324.693
324.355
323.948
323.498
323.029
322.566
322.138
321.816
315.593
315.82
316.126
316.457
316.791
317.113
317.404
317.645
317.818
317.909
317.909
317.818
317.645
317.404
317.113
316.791
316.457
316.126
315.82
315.593
309.367
309.503
309.686
309.885
310.086
310.279
310.453
310.598
310.702
310.757
310.757
310.702
310.598
310.453
310.279
310.086
309.885
309.686
309.503
309.367
303.14
303.186
303.247
303.313
303.381
303.446
303.504
303.553
303.587
303.606
303.606
303.587
303.553
303.504
303.446
303.381
303.313
303.247
303.186
303.14
347.621
348.321
349.198
350.13
351.067
351.963
352.772
353.44
353.919
354.17
354.17
353.919
353.44
352.772
351.963
351.067
350.13
349.198
348.321
347.621
341.288
341.881
342.637
343.444
344.255
345.032
345.732
346.31
346.725
346.942
346.942
346.725
346.31
345.732
345.032
344.255
343.444
342.637
341.881
341.288
334.949
335.441
336.078
336.761
337.447
338.103
338.695
339.184
339.535
339.718
339.718
339.535
339.184
338.695
338.103
337.447
336.761
336.078
335.441
334.949
328.606
329.002
329.521
330.079
330.64
331.178
331.661
332.061
332.347
332.497
332.497
332.347
332.061
331.661
331.178
330.64
330.079
329.521
329.002
328.606
322.259
322.563
322.966
323.399
323.836
324.254
324.63
324.941
325.163
325.28
325.28
325.163
324.941
324.63
324.254
323.836
323.399
322.966
322.563
322.259
315.909
316.124
316.411
316.721
317.033
317.331
317.6
317.822
317.981
318.064
318.064
317.981
317.822
317.6
317.331
317.033
316.721
316.411
316.124
315.909
309.557
309.685
309.858
310.044
310.231
310.41
310.571
310.705
310.8
310.85
310.85
310.8
310.705
310.571
310.41
310.231
310.044
309.858
309.685
309.557
303.204
303.247
303.304
303.367
303.429
303.49
303.544
303.588
303.62
303.637
303.637
303.62
303.588
303.544
303.49
303.429
303.367
303.304
303.247
303.204
348.713
349.371
350.191
351.059
351.927
352.753
353.494
354.104
354.541
354.768
354.768
354.541
354.104
353.494
352.753
351.927
351.059
350.191
349.371
348.713
342.232
342.789
343.496
344.248
345
345.715
346.357
346.886
347.263
347.46
347.46
347.263
346.886
346.357
345.715
345
344.248
343.496
342.789
342.232
335.747
336.208
336.805
337.44
338.076
338.681
339.224
339.671
339.99
340.157
340.157
339.99
339.671
339.224
338.681
338.076
337.44
336.805
336.208
335.747
329.257
329.629
330.115
330.635
331.155
331.65
332.094
332.459
332.72
332.856
332.856
332.72
332.459
332.094
331.65
331.155
330.635
330.115
329.629
329.257
322.765
323.05
323.427
323.831
324.236
324.621
324.966
325.25
325.453
325.559
325.559
325.453
325.25
324.966
324.621
324.236
323.831
323.427
323.05
322.765
316.27
316.472
316.741
317.03
317.319
317.594
317.84
318.043
318.188
318.264
318.264
318.188
318.043
317.84
317.594
317.319
317.03
316.741
316.472
316.27
309.774
309.894
310.056
310.229
310.402
310.568
310.716
310.838
310.925
310.97
310.97
310.925
310.838
310.716
310.568
310.402
310.229
310.056
309.894
309.774
303.276
303.317
303.371
303.429
303.487
303.542
303.592
303.633
303.662
303.677
303.677
303.662
303.633
303.592
303.542
303.487
303.429
303.371
303.317
303.276
349.946
350.561
351.324
352.129
352.928
353.685
354.361
354.915
355.31
355.516
355.516
355.31
354.915
354.361
353.685
352.928
352.129
351.324
350.561
349.946
343.298
343.819
344.477
345.174
345.866
346.522
347.108
347.588
347.93
348.108
348.108
347.93
347.588
347.108
346.522
345.866
345.174
344.477
343.819
343.298
336.647
337.079
337.634
338.223
338.808
339.363
339.859
340.265
340.554
340.704
340.704
340.554
340.265
339.859
339.363
338.808
338.223
337.634
337.079
336.647
329.993
330.34
330.793
331.274
331.754
332.208
332.613
332.945
333.181
333.304
333.304
333.181
332.945
332.613
332.208
331.754
331.274
330.793
330.34
329.993
323.336
323.603
323.954
324.329
324.701
325.054
325.37
325.628
325.812
325.907
325.907
325.812
325.628
325.37
325.054
324.701
324.329
323.954
323.603
323.336
316.678
316.867
317.117
317.385
317.651
317.903
318.128
318.313
318.444
318.513
318.513
318.444
318.313
318.128
317.903
317.651
317.385
317.117
316.867
316.678
310.019
310.131
310.281
310.442
310.602
310.754
310.889
311
311.078
311.119
311.119
311.078
311
310.889
310.754
310.602
310.442
310.281
310.131
310.019
303.358
303.396
303.446
303.5
303.554
303.605
303.65
303.687
303.714
303.727
303.727
303.714
303.687
303.65
303.605
303.554
303.5
303.446
303.396
303.358
351.323
351.896
352.603
353.345
354.078
354.768
355.382
355.883
356.239
356.424
356.424
356.239
355.883
355.382
354.768
354.078
353.345
352.603
351.896
351.323
344.489
344.974
345.584
346.226
346.862
347.46
347.992
348.426
348.734
348.894
348.894
348.734
348.426
347.992
347.46
346.862
346.226
345.584
344.974
344.489
337.652
338.055
338.569
339.112
339.65
340.156
340.606
340.973
341.234
341.369
341.369
341.234
340.973
340.606
340.156
339.65
339.112
338.569
338.055
337.652
330.814
331.138
331.558
332.002
332.441
332.856
333.224
333.524
333.737
333.848
333.848
333.737
333.524
333.224
332.856
332.441
332.002
331.558
331.138
330.814
323.975
324.223
324.549
324.894
325.236
325.558
325.845
326.078
326.244
326.33
326.33
326.244
326.078
325.845
325.558
325.236
324.894
324.549
324.223
323.975
317.134
317.31
317.542
317.788
318.033
318.263
318.468
318.635
318.753
318.815
318.815
318.753
318.635
318.468
318.263
318.033
317.788
317.542
317.31
317.134
310.292
310.397
310.536
310.684
310.831
310.97
311.092
311.193
311.264
311.301
311.301
311.264
311.193
311.092
310.97
310.831
310.684
310.536
310.397
310.292
303.45
303.485
303.532
303.581
303.631
303.677
303.718
303.752
303.776
303.788
303.788
303.776
303.752
303.718
303.677
303.631
303.581
303.532
303.485
303.45
352.847
353.379
354.032
354.713
355.383
356.01
356.565
357.016
357.336
357.502
357.502
357.336
357.016
356.565
356.01
355.383
354.713
354.032
353.379
352.847
345.807
346.257
346.821
347.411
347.991
348.535
349.016
349.407
349.684
349.827
349.827
349.684
349.407
349.016
348.535
347.991
347.411
346.821
346.257
345.807
338.766
339.139
339.614
340.113
340.604
341.065
341.471
341.802
342.036
342.158
342.158
342.036
341.802
341.471
341.065
340.604
340.113
339.614
339.139
338.766
331.724
332.024
332.412
332.82
333.222
333.598
333.931
334.202
334.394
334.493
334.493
334.394
334.202
333.931
333.598
333.222
332.82
332.412
332.024
331.724
324.681
324.912
325.213
325.53
325.843
326.136
326.395
326.605
326.754
326.831
326.831
326.754
326.605
326.395
326.136
325.843
325.53
325.213
324.912
324.681
317.638
317.801
318.016
318.243
318.466
318.675
318.861
319.011
319.117
319.173
319.173
319.117
319.011
318.861
318.675
318.466
318.243
318.016
317.801
317.638
310.595
310.692
310.821
310.957
311.091
311.217
311.328
311.419
311.483
311.516
311.516
311.483
311.419
311.328
311.217
311.091
310.957
310.821
310.692
310.595
303.552
303.584
303.627
303.673
303.718
303.76
303.797
303.828
303.849
303.86
303.86
303.849
303.828
303.797
303.76
303.718
303.673
303.627
303.584
303.552
354.521
355.013
355.614
356.238
356.847
357.416
357.916
358.321
358.607
358.755
358.755
358.607
358.321
357.916
357.416
356.847
356.238
355.614
355.013
354.521
347.254
347.67
348.189
348.73
349.258
349.751
350.185
350.536
350.784
350.912
350.912
350.784
350.536
350.185
349.751
349.258
348.73
348.189
347.67
347.254
339.988
340.333
340.771
341.228
341.675
342.092
342.459
342.756
342.966
343.075
343.075
342.966
342.756
342.459
342.092
341.675
341.228
340.771
340.333
339.988
332.723
333
333.357
333.731
334.097
334.438
334.739
334.982
335.153
335.242
335.242
335.153
334.982
334.739
334.438
334.097
333.731
333.357
333
332.723
325.457
325.67
325.947
326.238
326.523
326.788
327.022
327.211
327.345
327.414
327.414
327.345
327.211
327.022
326.788
326.523
326.238
325.947
325.67
325.457
318.192
318.343
318.541
318.748
318.952
319.142
319.309
319.444
319.539
319.589
319.589
319.539
319.444
319.309
319.142
318.952
318.748
318.541
318.343
318.192
310.928
311.018
311.136
311.261
311.383
311.497
311.597
311.679
311.736
311.766
311.766
311.736
311.679
311.597
311.497
311.383
311.261
311.136
311.018
310.928
303.663
303.693
303.733
303.775
303.816
303.854
303.887
303.915
303.934
303.944
303.944
303.934
303.915
303.887
303.854
303.816
303.775
303.733
303.693
303.663
356.343
356.797
357.349
357.918
358.472
358.986
359.436
359.799
360.054
360.186
360.186
360.054
359.799
359.436
358.986
358.472
357.918
357.349
356.797
356.343
348.83
349.214
349.69
350.184
350.664
351.109
351.499
351.814
352.035
352.15
352.15
352.035
351.814
351.499
351.109
350.664
350.184
349.69
349.214
348.83
341.319
341.637
342.038
342.456
342.862
343.239
343.57
343.836
344.023
344.12
344.12
344.023
343.836
343.57
343.239
342.862
342.456
342.038
341.637
341.319
333.809
334.065
334.393
334.734
335.067
335.376
335.646
335.864
336.017
336.097
336.097
336.017
335.864
335.646
335.376
335.067
334.734
334.393
334.065
333.809
326.302
326.498
326.752
327.018
327.277
327.517
327.727
327.897
328.016
328.078
328.078
328.016
327.897
327.727
327.517
327.277
327.018
326.752
326.498
326.302
318.795
318.934
319.115
319.305
319.49
319.662
319.812
319.933
320.018
320.063
320.063
320.018
319.933
319.812
319.662
319.49
319.305
319.115
318.934
318.795
311.289
311.372
311.481
311.595
311.706
311.809
311.9
311.972
312.024
312.05
312.05
312.024
311.972
311.9
311.809
311.706
311.595
311.481
311.372
311.289
303.784
303.812
303.848
303.887
303.924
303.958
303.989
304.013
304.03
304.039
304.039
304.03
304.013
303.989
303.958
303.924
303.887
303.848
303.812
303.784
358.308
358.725
359.231
359.75
360.252
360.716
361.12
361.445
361.673
361.79
361.79
361.673
361.445
361.12
360.716
360.252
359.75
359.231
358.725
358.308
350.527
350.88
351.317
351.767
352.202
352.604
352.955
353.237
353.434
353.536
353.536
353.434
353.237
352.955
352.604
352.202
351.767
351.317
350.88
350.527
342.751
343.044
343.412
343.792
344.161
344.501
344.798
345.037
345.204
345.29
345.29
345.204
345.037
344.798
344.501
344.161
343.792
343.412
343.044
342.751
334.979
335.214
335.514
335.826
336.127
336.406
336.649
336.844
336.981
337.052
337.052
336.981
336.844
336.649
336.406
336.127
335.826
335.514
335.214
334.979
327.209
327.39
327.623
327.865
328.1
328.317
328.506
328.658
328.765
328.82
328.82
328.765
328.658
328.506
328.317
328.1
327.865
327.623
327.39
327.209
319.443
319.571
319.737
319.91
320.078
320.233
320.368
320.477
320.553
320.592
320.592
320.553
320.477
320.368
320.233
320.078
319.91
319.737
319.571
319.443
311.678
311.754
311.854
311.958
312.059
312.152
312.233
312.298
312.344
312.368
312.368
312.344
312.298
312.233
312.152
312.059
311.958
311.854
311.754
311.678
303.915
303.94
303.973
304.008
304.042
304.073
304.1
304.122
304.138
304.146
304.146
304.138
304.122
304.1
304.073
304.042
304.008
303.973
303.94
303.915
360.394
360.778
361.241
361.714
362.169
362.587
362.95
363.241
363.444
363.549
363.549
363.444
363.241
362.95
362.587
362.169
361.714
361.241
360.778
360.394
352.326
352.651
353.051
353.461
353.856
354.218
354.533
354.786
354.962
355.053
355.053
354.962
354.786
354.533
354.218
353.856
353.461
353.051
352.651
352.326
344.267
344.536
344.873
345.22
345.554
345.862
346.128
346.342
346.491
346.568
346.568
346.491
346.342
346.128
345.862
345.554
345.22
344.873
344.536
344.267
336.214
336.431
336.706
336.99
337.263
337.515
337.733
337.908
338.031
338.094
338.094
338.031
337.908
337.733
337.515
337.263
336.99
336.706
336.431
336.214
328.168
328.334
328.547
328.768
328.981
329.177
329.347
329.483
329.579
329.628
329.628
329.579
329.483
329.347
329.177
328.981
328.768
328.547
328.334
328.168
320.126
320.244
320.396
320.554
320.706
320.846
320.968
321.065
321.133
321.168
321.168
321.133
321.065
320.968
320.846
320.706
320.554
320.396
320.244
320.126
312.088
312.158
312.249
312.344
312.436
312.52
312.593
312.651
312.692
312.713
312.713
312.692
312.651
312.593
312.52
312.436
312.344
312.249
312.158
312.088
304.052
304.075
304.106
304.138
304.168
304.196
304.221
304.241
304.254
304.261
304.261
304.254
304.241
304.221
304.196
304.168
304.138
304.106
304.075
304.052
362.549
362.902
363.326
363.758
364.171
364.549
364.876
365.137
365.319
365.412
365.412
365.319
365.137
364.876
364.549
364.171
363.758
363.326
362.902
362.549
354.176
354.475
354.841
355.216
355.574
355.903
356.186
356.413
356.571
356.652
356.652
356.571
356.413
356.186
355.903
355.574
355.216
354.841
354.475
354.176
345.819
346.066
346.376
346.692
346.996
347.275
347.515
347.707
347.841
347.91
347.91
347.841
347.707
347.515
347.275
346.996
346.692
346.376
346.066
345.819
337.475
337.674
337.927
338.186
338.435
338.663
338.86
339.017
339.127
339.183
339.183
339.127
339.017
338.86
338.663
338.435
338.186
337.927
337.674
337.475
329.143
329.296
329.491
329.693
329.887
330.064
330.218
330.34
330.426
330.47
330.47
330.426
330.34
330.218
330.064
329.887
329.693
329.491
329.296
329.143
320.819
320.928
321.067
321.212
321.35
321.477
321.587
321.674
321.735
321.767
321.767
321.735
321.674
321.587
321.477
321.35
321.212
321.067
320.928
320.819
312.503
312.568
312.651
312.738
312.821
312.898
312.964
313.016
313.053
313.072
313.072
313.053
313.016
312.964
312.898
312.821
312.738
312.651
312.568
312.503
304.191
304.212
304.24
304.269
304.297
304.323
304.345
304.363
304.375
304.381
304.381
304.375
304.363
304.345
304.323
304.297
304.269
304.24
304.212
304.191
364.632
364.958
365.35
365.746
366.125
366.469
366.766
367.002
367.166
367.251
367.251
367.166
367.002
366.766
366.469
366.125
365.746
365.35
364.958
364.632
355.943
356.219
356.558
356.902
357.231
357.53
357.788
357.994
358.137
358.21
358.21
358.137
357.994
357.788
357.53
357.231
356.902
356.558
356.219
355.943
347.285
347.514
347.8
348.092
348.371
348.625
348.844
349.018
349.14
349.202
349.202
349.14
349.018
348.844
348.625
348.371
348.092
347.8
347.514
347.285
338.655
338.84
339.073
339.312
339.541
339.749
339.929
340.072
340.171
340.222
340.222
340.171
340.072
339.929
339.749
339.541
339.312
339.073
338.84
338.655
330.048
330.19
330.371
330.557
330.736
330.898
331.038
331.15
331.227
331.267
331.267
331.227
331.15
331.038
330.898
330.736
330.557
330.371
330.19
330.048
321.46
321.56
321.69
321.823
321.95
322.067
322.167
322.247
322.302
322.331
322.331
322.302
322.247
322.167
322.067
321.95
321.823
321.69
321.56
321.46
312.885
312.945
313.023
313.103
313.179
313.249
313.309
313.357
313.391
313.408
313.408
313.391
313.357
313.309
313.249
313.179
313.103
313.023
312.945
312.885
304.318
304.338
304.364
304.391
304.417
304.44
304.461
304.477
304.488
304.494
304.494
304.488
304.477
304.461
304.44
304.417
304.391
304.364
304.338
304.318
366.275
366.581
366.95
367.321
367.675
367.997
368.273
368.492
368.644
368.722
368.722
368.644
368.492
368.273
367.997
367.675
367.321
366.95
366.581
366.275
357.283
357.543
357.862
358.186
358.495
358.775
359.016
359.207
359.34
359.409
359.409
359.34
359.207
359.016
358.775
358.495
358.186
357.862
357.543
357.283
348.362
348.579
348.849
349.125
349.387
349.626
349.831
349.993
350.107
350.165
350.165
350.107
349.993
349.831
349.626
349.387
349.125
348.849
348.579
348.362
339.5
339.675
339.896
340.122
340.338
340.534
340.703
340.836
340.929
340.977
340.977
340.929
340.836
340.703
340.534
340.338
340.122
339.896
339.675
339.5
330.685
330.819
330.991
331.167
331.336
331.489
331.62
331.725
331.797
331.835
331.835
331.797
331.725
331.62
331.489
331.336
331.167
330.991
330.819
330.685
321.904
321.999
322.122
322.248
322.369
322.478
322.573
322.648
322.7
322.726
322.726
322.7
322.648
322.573
322.478
322.369
322.248
322.122
321.999
321.904
313.147
313.204
313.278
313.354
313.427
313.493
313.549
313.594
313.626
313.642
313.642
313.626
313.594
313.549
313.493
313.427
313.354
313.278
313.204
313.147
304.406
304.425
304.449
304.475
304.499
304.521
304.54
304.555
304.566
304.571
304.571
304.566
304.555
304.54
304.521
304.499
304.475
304.449
304.425
304.406
)
;

boundaryField
{
    hotSide
    {
        type            fixedGradient;
        gradient        nonuniform List<scalar> 
400
(
460.409
461.627
464.074
467.768
472.736
479.013
486.637
495.652
506.1
518.027
531.475
546.483
563.09
581.328
601.225
622.808
646.095
671.106
697.852
726.344
472.482
473.605
475.864
479.285
483.903
489.765
496.92
505.426
515.338
526.712
539.602
554.057
570.122
587.836
607.232
628.339
651.179
675.771
702.128
730.261
485.549
486.558
488.593
491.689
495.893
501.266
507.873
515.788
525.08
535.822
548.079
561.912
577.372
594.507
613.354
633.944
656.303
680.448
706.392
734.145
499.391
500.268
502.043
504.763
508.489
513.301
519.283
526.528
535.125
545.163
556.72
569.87
584.675
601.187
619.448
639.492
661.345
685.025
710.545
737.91
513.623
514.35
515.834
518.132
521.327
525.517
530.812
537.324
545.168
554.448
565.26
577.69
591.807
607.672
625.331
644.818
666.16
689.373
714.469
741.451
527.652
528.218
529.39
531.24
533.87
537.405
541.979
547.73
554.795
563.3
573.356
585.06
598.492
613.717
630.784
649.729
670.577
693.343
718.035
744.654
540.672
541.079
541.94
543.344
545.416
548.305
552.174
557.186
563.5
571.262
580.599
591.619
604.411
619.042
635.564
654.013
674.412
696.775
721.105
747.402
551.724
551.986
552.567
553.57
555.143
557.458
560.701
565.062
570.72
577.836
586.553
596.987
609.232
623.361
639.425
657.459
677.486
699.516
723.549
749.581
559.811
559.963
560.329
561.027
562.22
564.099
566.871
570.742
575.908
582.545
590.802
600.804
612.649
626.412
642.143
659.879
679.638
701.429
725.25
751.095
564.096
564.188
564.438
564.97
565.956
567.598
570.115
573.723
578.626
585.005
593.017
602.79
614.424
627.992
643.549
661.127
680.746
702.412
726.124
751.871
564.096
564.188
564.438
564.97
565.956
567.598
570.115
573.723
578.626
585.005
593.017
602.79
614.424
627.992
643.549
661.127
680.746
702.412
726.124
751.871
559.811
559.963
560.329
561.027
562.22
564.099
566.871
570.742
575.908
582.545
590.802
600.804
612.649
626.412
642.143
659.879
679.638
701.429
725.25
751.095
551.724
551.986
552.567
553.57
555.143
557.458
560.701
565.062
570.72
577.836
586.553
596.987
609.232
623.361
639.425
657.459
677.486
699.516
723.549
749.581
540.672
541.079
541.94
543.344
545.416
548.305
552.174
557.186
563.5
571.262
580.599
591.619
604.411
619.042
635.564
654.013
674.412
696.775
721.105
747.402
527.652
528.218
529.39
531.24
533.87
537.405
541.979
547.73
554.795
563.3
573.356
585.06
598.492
613.717
630.784
649.729
670.577
693.343
718.035
744.654
513.623
514.35
515.834
518.132
521.327
525.517
530.812
537.324
545.168
554.448
565.26
577.69
591.807
607.672
625.331
644.818
666.16
689.373
714.469
741.451
499.391
500.268
502.043
504.763
508.489
513.301
519.283
526.528
535.125
545.163
556.72
569.87
584.675
601.187
619.448
639.492
661.345
685.025
710.545
737.91
485.549
486.558
488.593
491.689
495.893
501.266
507.873
515.788
525.08
535.822
548.079
561.912
577.372
594.507
613.354
633.944
656.303
680.448
706.392
734.145
472.482
473.605
475.864
479.285
483.903
489.765
496.92
505.426
515.338
526.712
539.602
554.057
570.122
587.836
607.232
628.339
651.179
675.771
702.128
730.261
460.409
461.627
464.074
467.768
472.736
479.013
486.637
495.652
506.1
518.027
531.475
546.483
563.09
581.328
601.225
622.808
646.095
671.106
697.852
726.344
)
;
    }
    coldSide
    {
        type            mixed;
        refValue        uniform 300;
        refGradient     uniform 0;
        valueFraction   uniform 0.991591;
        source          uniform 0;
        value           nonuniform List<scalar> 
400
(
300.025
300.025
300.025
300.025
300.025
300.026
300.026
300.026
300.027
300.028
300.028
300.029
300.03
300.031
300.032
300.033
300.034
300.035
300.036
300.037
300.025
300.025
300.025
300.025
300.026
300.026
300.026
300.027
300.027
300.028
300.029
300.029
300.03
300.031
300.032
300.033
300.034
300.035
300.036
300.037