/*--------------------------------*- C++ -*----------------------------------*\
| =========                 |                                                 |
| \\      /  F ield         | OpenFOAM: The Open Source CFD Toolbox           |
|  \\    /   O peration     | Version:  2212                                  |
|   \\  /    A nd           | Website:  www.openfoam.com                      |
|    \\/     M anipulation  |                                                 |
\*---------------------------------------------------------------------------*/
FoamFile
{
    version     2.0;
    format      ascii;
    arch        "LSB;label=32;scalar=64";
    class       volScalarField;
    location    "0";
    object      T;
}
// * * * * * * * * * * * * * * * * * * * * * * * * * * * * * * * * * * * * * //

dimensions      [0 0 0 1 0 0 0];

internalField   nonuniform List<scalar> 
3200
(
338.138
339.138
340.167
340.575
341.082
341.585
341.857
342.23
342.447
342.55
342.676
342.619
342.218
341.592
341.08
340.588
340.219
339.349
338.646
337.684
332.933
333.764
334.652
334.956
335.406
335.785
335.974
336.365
336.489
336.609
336.73
336.68
336.321
335.77
335.347
334.864
334.592
333.857
333.233
332.428
327.749
328.429
329.153
329.4
329.816
330.139
330.226
330.599
330.706
330.79
330.892
330.818
330.54
330.101
329.724
329.285
329.113
328.474
327.968
327.302
322.665
323.209
323.758
323.938
324.288
324.59
324.612
324.99
324.992
325.087
325.135
325.049
324.894
324.53
324.167
323.824
323.73
323.252
322.77
322.21
317.562
318.038
318.413
318.566
318.816
319.119
319.082
319.377
319.366
319.443
319.487
319.371
319.277
319.021
318.71
318.402
318.412
318.067
317.664
317.217
312.5
312.891
313.142
313.249
313.425
313.622
313.577
313.808
313.8
313.838
313.873
313.803
313.745
313.557
313.333
313.075
313.108
312.93
312.634
312.302
307.495
307.683
307.893
307.947
308.056
308.201
308.117
308.277
308.248
308.291
308.289
308.273
308.264
308.115
307.971
307.823
307.858
307.776
307.617
307.378
302.462
302.574
302.659
302.666
302.69
302.758
302.71
302.776
302.752
302.774
302.765
302.767
302.769
302.73
302.664
302.607
302.628
302.636
302.551
302.462
339.116
340.008
341.036
341.588
342.231
342.683
343.13
343.282
343.558
343.739
343.77
343.665
343.387
342.817
342.415
341.674
341.329
340.339
339.671
338.746
333.677
334.422
335.316
335.763
336.254
336.694
337.1
337.245
337.412
337.555
337.688
337.533
337.223
336.749
336.419
335.773
335.493
334.616
334.019
333.26
328.326
328.946
329.726
330.045
330.44
330.82
331.163
331.337
331.389
331.566
331.693
331.53
331.259
330.849
330.598
330.049
329.786
329.018
328.518
327.944
323.098
323.531
324.192
324.432
324.741
325.095
325.357
325.54
325.521
325.745
325.778
325.659
325.425
325.08
324.859
324.451
324.226
323.625
323.167
322.725
317.942
318.218
318.728
318.945
319.158
319.491
319.654
319.802
319.793
319.99
319.942
319.867
319.723
319.409
319.206
318.918
318.765
318.317
317.94
317.574
312.808
312.968
313.367
313.527
313.629
313.913
313.964
314.119
314.127
314.265
314.217
314.163
314.057
313.839
313.667
313.479
313.415
313.053
312.763
312.494
307.699
307.784
308.046
308.105
308.157
308.373
308.349
308.455
308.446
308.574
308.538
308.499
308.422
308.284
308.183
308.08
308.064
307.831
307.645
307.465
302.596
302.625
302.694
302.704
302.732
302.795
302.8
302.841
302.82
302.868
302.868
302.842
302.833
302.765
302.742
302.705
302.671
302.634
302.555
302.511
340.494
341.294
342.151
342.875
343.736
344.33
344.668
344.767
345.222
345.343
345.206
344.997
344.817
344.391
343.828
343.001
342.664
341.756
340.718
340.024
334.845
335.474
336.26
336.85
337.629
338.067
338.354
338.455
338.804
338.977
338.842
338.625
338.472
338.133
337.615
336.904
336.623
335.79
334.912
334.327
329.324
329.821
330.491
331.002
331.629
331.948
332.185
332.3
332.576
332.727
332.638
332.475
332.303
331.992
331.558
330.987
330.735
330.062
329.317
328.807
323.84
324.275
324.789
325.259
325.722
325.968
326.161
326.272
326.481
326.637
326.572
326.405
326.274
325.995
325.632
325.188
324.938
324.5
323.861
323.436
318.481
318.831
319.2
319.55
319.917
320.082
320.271
320.384
320.483
320.639
320.593
320.462
320.394
320.152
319.818
319.463
319.317
318.996
318.499
318.175
313.17
313.437
313.669
313.941
314.174
314.296
314.441
314.492
314.583
314.673
314.669
314.575
314.554
314.34
314.109
313.841
313.74
313.521
313.199
312.954
307.893
308.041
308.174
308.347
308.505
308.574
308.651
308.673
308.741
308.754
308.768
308.711
308.711
308.546
308.463
308.258
308.223
308.093
307.919
307.763
302.656
302.693
302.749
302.79
302.842
302.874
302.9
302.902
302.921
302.921
302.917
302.891
302.921
302.84
302.838
302.78
302.749
302.703
302.663
302.598
342.007
342.654
343.388
344.462
345.108
345.833
346.209
346.409
346.655
346.748
346.717
346.666
346.35
345.878
345.428
344.553
344.107
343.282
342.188
341.557
336.141
336.665
337.283
338.286
338.749
339.373
339.683
339.846
340.069
340.098
340.079
340.076
339.773
339.355
338.954
338.234
337.859
337.162
336.182
335.651
330.391
330.812
331.373
332.203
332.561
333.096
333.309
333.466
333.667
333.667
333.636
333.653
333.369
333.02
332.694
332.103
331.775
331.166
330.314
329.921
324.76
325.071
325.547
326.211
326.464
326.908
327.062
327.223
327.379
327.355
327.337
327.375
327.138
326.84
326.572
326.093
325.79
325.352
324.584
324.31
319.203
319.407
319.832
320.284
320.459
320.853
320.919
321.067
321.231
321.167
321.168
321.217
321.044
320.792
320.586
320.205
319.957
319.595
318.976
318.797
313.692
313.806
314.119
314.429
314.542
314.856
314.874
314.976
315.083
315.072
315.078
315.141
314.987
314.841
314.675
314.436
314.173
313.93
313.43
313.354
308.223
308.282
308.493
308.655
308.692
308.899
308.914
308.964
309.073
309.047
309.041
309.074
308.95
308.902
308.803
308.679
308.488
308.337
308.042
308.005
302.758
302.786
302.855
302.893
302.914
302.994
302.98
303.009
303.034
303.022
303.028
303.02
302.994
302.998
302.942
302.897
302.854
302.792
302.684
302.689
343.525
344.097
344.773
345.94
346.476
347.171
347.615
347.873
348.143
348.151
348.268
348.083
347.844
347.351
346.974
345.924
345.464
344.826
343.577
342.802
337.473
337.918
338.487
339.512
339.981
340.553
340.894
341.119
341.322
341.306
341.449
341.27
341.096
340.664
340.325
339.399
339.008
338.412
337.364
336.687
331.536
331.86
332.361
333.241
333.65
334.11
334.34
334.571
334.681
334.662
334.767
334.66
334.507
334.171
333.824
333.058
332.73
332.227
331.354
330.793
325.65
325.932
326.335
327.08
327.425
327.765
327.885
328.11
328.19
328.145
328.26
328.186
328.077
327.787
327.486
326.875
326.555
326.203
325.484
324.984
319.846
320.078
320.369
321.029
321.246
321.531
321.514
321.802
321.833
321.74
321.863
321.809
321.776
321.495
321.257
320.78
320.533
320.281
319.704
319.286
314.111
314.312
314.531
314.97
315.181
315.395
315.281
315.549
315.566
315.427
315.561
315.546
315.532
315.323
315.137
314.795
314.594
314.485
314.029
313.708
308.43
308.576
308.724
308.972
309.118
309.232
309.135
309.321
309.338
309.265
309.332
309.31
309.313
309.201
309.08
308.859
308.746
308.698
308.436
308.191
302.823
302.881
302.93
303.002
303.067
303.09
303.04
303.118
303.141
303.099
303.155
303.13
303.116
303.072
303.045
302.968
302.93
302.923
302.821
302.733
344.638
345.583
346.337
347.318
348.213
348.603
349.122
349.453
349.611
349.845
349.729
349.712
349.563
348.893
348.572
347.502
347.032
346.08
345.21
344.194
338.413
339.24
339.843
340.705
341.443
341.765
342.141
342.508
342.6
342.798
342.673
342.717
342.572
341.989
341.708
340.791
340.341
339.552
338.759
337.859
332.32
333.013
333.491
334.24
334.798
335.103
335.384
335.737
335.781
335.933
335.833
335.9
335.74
335.279
334.992
334.259
333.827
333.198
332.527
331.741
326.347
326.886
327.268
327.923
328.287
328.512
328.774
329.078
329.108
329.223
329.108
329.187
329.091
328.664
328.46
327.878
327.459
326.962
326.45
325.815
320.437
320.831
321.123
321.683
321.897
322.057
322.297
322.497
322.537
322.643
322.602
322.566
322.557
322.145
322.019
321.593
321.243
320.839
320.478
320.003
314.602
314.855
315.053
315.47
315.613
315.712
315.845
316.003
316.045
316.138
316.142
316.037
316.11
315.762
315.641
315.368
315.144
314.826
314.626
314.267
308.745
308.894
308.998
309.293
309.394
309.429
309.482
309.557
309.601
309.691
309.694
309.611
309.685
309.45
309.364
309.18
309.087
308.87
308.774
308.529
302.914
302.983
303.013
303.111
303.165
303.138
303.188
303.185
303.215
303.256
303.24
303.202
303.255
303.165
303.132
303.068
303.033
302.98
302.929
302.868
345.675
346.894
347.934
348.477
349.496
350.215
350.697
351.026
351.209
351.306
351.211
351.173
350.975
350.403
349.995
349.212
348.497
347.505
346.521
345.495
339.314
340.316
341.197
341.66
342.543
343.136
343.552
343.822
344.004
344.026
343.974
343.919
343.784
343.277
342.947
342.274
341.605
340.742
339.934
339.038
333.102
333.848
334.595
335.013
335.781
336.253
336.562
336.814
336.98
336.972
336.9
336.859
336.783
336.34
336.035
335.49
334.889
334.157
333.479
332.706
326.953
327.5
328.136
328.516
329.106
329.476
329.706
329.977
330.115
330.086
330.016
329.933
329.931
329.563
329.291
328.869
328.372
327.76
327.222
326.513
320.902
321.288
321.793
322.098
322.518
322.757
322.962
323.251
323.341
323.293
323.236
323.149
323.21
322.866
322.648
322.353
321.994
321.479
321.036
320.485
314.939
315.173
315.496
315.734
316.042
316.189
316.336
316.617
316.656
316.587
316.581
316.485
316.571
316.283
316.09
315.916
315.652
315.358
314.992
314.554
309.014
309.083
309.288
309.431
309.628
309.668
309.811
309.958
309.988
309.925
309.962
309.891
309.976
309.757
309.644
309.535
309.389
309.199
308.977
308.704
303.037
303.037
303.12
303.172
303.235
303.236
303.277
303.334
303.358
303.316
303.325
303.325
303.334
303.254
303.225
303.2
303.136
303.072
303.009
302.908
347.19
348.148
349.092
349.877
350.805
351.476
351.9
352.392
352.728
352.915
353.075
352.751
352.427
351.757
351.334
350.601
349.926
348.865
347.624
346.596
340.642
341.413
342.238
342.864
343.711
344.245
344.637
344.974
345.296
345.403
345.575
345.289
345.008
344.435
344.095
343.408
342.824
341.922
340.855
339.972
334.216
334.8
335.516
336.019
336.743
337.168
337.523
337.781
338.07
338.088
338.259
338.048
337.779
337.337
337.047
336.437
335.978
335.161
334.239
333.53
327.898
328.302
328.933
329.277
329.913
330.218
330.556
330.756
331.007
330.957
331.096
330.986
330.695
330.427
330.129
329.633
329.275
328.57
327.843
327.217
321.62
321.92
322.415
322.673
323.161
323.376
323.692
323.873
324.028
323.974
324.088
324.053
323.783
323.61
323.32
322.942
322.661
322.126
321.527
321.05
315.399
315.625
316.012
316.143
316.5
316.63
316.898
317.039
317.136
317.088
317.165
317.131
316.914
316.835
316.572
316.319
316.121
315.727
315.354
314.97
309.231
309.385
309.597
309.66
309.905
309.946
310.145
310.254
310.293
310.278
310.286
310.258
310.129
310.117
309.936
309.769
309.674
309.434
309.222
308.977
303.103
303.146
303.201
303.241
303.331
303.334
303.394
303.463
303.432
303.449
303.457
303.421
303.387
303.385
303.326
303.282
303.247
303.162
303.099
302.996
348.457
349.206
350.364
351.361
352.119
352.628
353.25
353.793
353.977
354.122
354.41
354.132
353.765
353.22
352.699
351.936
351.231
350.111
349.007
347.896
341.708
342.305
343.316
344.173
344.798
345.197
345.731
346.176
346.346
346.479
346.748
346.511
346.15
345.7
345.199
344.588
343.946
343.031
342.025
341.064
335.1
335.584
336.451
337.13
337.654
337.949
338.484
338.808
338.943
339.033
339.245
339.104
338.738
338.388
337.915
337.446
336.832
336.103
335.244
334.499
328.638
329
329.644
330.211
330.649
330.848
331.323
331.552
331.709
331.742
331.911
331.838
331.475
331.254
330.86
330.432
329.899
329.327
328.673
328.024
322.184
322.445
322.983
323.425
323.74
323.883
324.306
324.402
324.561
324.574
324.717
324.661
324.335
324.195
323.93
323.553
323.112
322.639
322.198
321.69
315.782
316.039
316.395
316.738
316.933
316.997
317.335
317.349
317.452
317.473
317.616
317.579
317.314
317.231
317.049
316.734
316.455
316.086
315.837
315.436
309.451
309.643
309.842
310.052
310.136
310.202
310.4
310.395
310.436
310.505
310.561
310.511
310.398
310.333
310.207
310.039
309.878
309.65
309.498
309.245
303.165
303.234
303.318
303.369
303.391
303.411
303.469
303.498
303.477
303.516
303.536
303.503
303.472
303.455
303.415
303.369
303.31
303.228
303.181
303.073
349.423
350.317
351.663
352.547
353.314
353.899
354.726
355.069
355.562
355.634
355.579
355.469
355.066
354.459
353.89
353.085
352.223
351.194
350.264
349.178
342.587
343.321
344.468
345.226
345.797
346.331
347.062
347.339
347.722
347.797
347.731
347.642
347.308
346.762
346.244
345.59
344.816
343.928
343.11
342.226
335.802
336.435
337.398
338.081
338.488
338.968
339.529
339.799
340.103
340.118
340.041
340.01
339.741
339.266
338.821
338.3
337.636
336.875
336.164
335.452
329.141
329.673
330.481
331.03
331.311
331.729
332.145
332.376
332.596
332.619
332.526
332.578
332.308
331.962
331.559
331.149
330.578
329.994
329.412
328.836
322.586
323.001
323.622
324.024
324.256
324.604
324.882
325.07
325.207
325.206
325.136
325.211
325.024
324.763
324.471
324.112
323.639
323.239
322.78
322.307
316.109
316.41
316.834
317.108
317.299
317.521
317.731
317.838
317.933
317.936
317.869
317.952
317.828
317.655
317.45
317.179
316.826
316.516
316.224
315.883
309.683
309.865
310.087
310.279
310.383
310.496
310.619
310.675
310.75
310.743
310.687
310.744
310.653
310.595
310.471
310.287
310.06
309.884
309.714
309.535
303.241
303.31
303.387
303.431
303.481
303.503
303.561
303.595
303.603
303.594
303.579
303.58
303.575
303.553
303.533
303.448
303.37
303.308
303.263
303.198
350.521
351.521
352.701
353.751
354.36
355.178
355.926
356.353
356.703
357.037
356.884
356.716
356.362
355.896
355.288
354.285
353.638
352.441
351.357
350.297
343.506
344.33
345.338
346.277
346.726
347.455
348.025
348.414
348.69
348.99
348.877
348.726
348.4
347.99
347.454
346.594
346.075
345
344.084
343.144
336.646
337.293
338.13
338.937
339.304
339.866
340.348
340.641
340.893
341.191
341.06
340.949
340.625
340.302
339.848
339.126
338.673
337.789
336.962
336.225
329.877
330.378
331.005
331.696
332.011
332.461
332.806
333.054
333.283
333.56
333.389
333.318
333.048
332.761
332.384
331.841
331.432
330.703
330.016
329.415
323.181
323.574
324.035
324.578
324.854
325.171
325.401
325.605
325.793
326.008
325.828
325.812
325.596
325.348
325.068
324.669
324.3
323.74
323.256
322.75
316.555
316.799
317.106
317.514
317.734
317.951
318.102
318.261
318.386
318.539
318.36
318.395
318.235
318.034
317.837
317.564
317.281
316.918
316.566
316.16
309.956
310.109
310.265
310.509
310.631
310.789
310.854
310.981
310.992
311.123
310.973
311.008
310.906
310.81
310.644
310.496
310.337
310.133
309.921
309.652
303.327
303.388
303.447
303.528
303.552
303.621
303.638
303.677
303.689
303.73
303.672
303.694
303.646
303.624
303.559
303.486
303.453
303.387
303.322
303.222
351.564
352.49
353.787
354.698
355.514
356.395
356.945
357.655
358.022
358.109
358.165
357.701
357.593
357.04
356.303
355.702
354.827
353.558
352.334
351.421
344.446
345.17
346.246
347.028
347.698
348.446
348.928
349.558
349.886
349.943
349.963
349.53
349.452
348.919
348.342
347.837
347.098
345.916
344.895
344.175
337.44
338.011
338.829
339.543
340.101
340.72
341.076
341.658
341.906
341.994
341.96
341.529
341.517
341.072
340.624
340.13
339.514
338.519
337.689
337.132
330.509
330.997
331.586
332.2
332.658
333.112
333.409
333.92
334.104
334.187
334.136
333.759
333.767
333.4
333.076
332.59
332.116
331.286
330.65
330.21
323.648
324.076
324.462
324.944
325.278
325.601
325.894
326.243
326.376
326.482
326.426
326.126
326.155
325.841
325.609
325.164
324.856
324.161
323.729
323.368
316.859
317.172
317.417
317.778
318.003
318.244
318.448
318.655
318.752
318.846
318.823
318.615
318.624
318.399
318.236
317.875
317.71
317.177
316.908
316.623
310.144
310.303
310.39
310.645
310.786
310.943
311.079
311.18
311.211
311.295
311.289
311.129
311.14
311.029
310.938
310.667
310.635
310.305
310.137
309.959
303.395
303.469
303.485
303.565
303.603
303.645
303.711
303.732
303.75
303.788
303.808
303.716
303.731
303.688
303.676
303.575
303.554
303.443
303.401
303.314
352.592
353.455
354.606
355.673
356.666
357.26
357.905
358.44
358.988
359.279
359.042
359.022
358.828
358.002
357.434
356.708
355.753
354.541
353.445
352.368
345.265
346.015
346.965
347.916
348.688
349.172
349.758
350.188
350.663
350.919
350.701
350.708
350.52
349.793
349.277
348.673
347.889
346.805
345.872
344.975
338.057
338.729
339.49
340.317
340.889
341.355
341.795
342.216
342.538
342.726
342.587
342.571
342.415
341.803
341.371
340.889
340.248
339.275
338.499
337.74
330.952
331.529
332.139
332.815
333.256
333.664
334.01
334.396
334.555
334.766
334.64
334.604
334.455
334.043
333.635
333.231
332.72
331.938
331.263
330.648
324.027
324.428
324.895
325.379
325.775
326.103
326.306
326.688
326.737
326.899
326.818
326.768
326.646
326.391
326.006
325.721
325.363
324.707
324.195
323.719
317.156
317.405
317.751
318.072
318.367
318.573
318.734
319.052
319.015
319.157
319.107
319.069
318.943
318.791
318.513
318.294
318.061
317.58
317.203
316.853
310.266
310.428
310.667
310.834
310.99
311.126
311.237
311.412
311.411
311.473
311.466
311.463
311.365
311.259
311.116
310.944
310.834
310.49
310.306
310.101
303.435
303.482
303.567
303.635
303.654
303.744
303.764
303.823
303.816
303.828
303.825
303.839
303.794
303.744
303.727
303.673
303.618
303.492
303.448
303.381
353.208
354.245
355.479
356.71
357.558
358.203
359.024
359.43
359.753
360.032
360.088
359.794
359.434
358.842
358.3
357.648
356.614
355.369
354.189
353.242
345.842
346.666
347.715
348.771
349.478
350.017
350.72
351.066
351.356
351.588
351.56
351.34
351.019
350.487
350.019
349.47
348.608
347.462
346.502
345.778
338.6
339.188
340.132
341.037
341.599
342.026
342.605
342.958
343.111
343.321
343.248
343.096
342.827
342.335
341.985
341.501
340.799
339.856
339.056
338.454
331.461
331.86
332.689
333.385
333.855
334.218
334.711
335.019
335.034
335.234
335.167
335.075
334.829
334.386
334.121
333.725
333.153
332.408
331.797
331.263
324.397
324.662
325.331
325.883
326.216
326.558
326.907
327.159
327.107
327.279
327.26
327.152
326.955
326.605
326.423
326.119
325.676
325.045
324.631
324.188
317.391
317.58
318.065
318.442
318.661
318.949
319.164
319.38
319.344
319.434
319.436
319.352
319.174
318.938
318.84
318.549
318.263
317.807
317.544
317.211
310.439
310.534
310.805
311.106
311.143
311.378
311.471
311.619
311.642
311.645
311.678
311.597
311.492
311.333
311.281
311.091
310.96
310.674
310.486
310.316
303.519
303.521
303.611
303.737
303.725
303.792
303.83
303.861
303.927
303.907
303.935
303.885
303.865
303.798
303.785
303.715
303.661
303.559
303.502
303.461
353.855
355.043
356.104
357.279
358.361
359.127
359.792
360.352
360.647
360.929
360.917
360.654
360.158
359.747
359.28
358.429
357.446
356.296
355.084
354.089
346.373
347.336
348.27
349.311
350.186
350.815
351.364
351.866
352.085
352.313
352.347
352.135
351.687
351.271
350.867
350.134
349.301
348.356
347.299
346.463
339.076
339.828
340.624
341.52
342.236
342.716
343.128
343.575
343.726
344.006
344.012
343.835
343.431
343.051
342.672
342.08
341.443
340.619
339.726
339.024
331.845
332.434
333.111
333.795
334.38
334.771
335.11
335.446
335.593
335.855
335.854
335.657
335.357
335.016
334.717
334.205
333.724
333.014
332.33
331.709
324.673
325.157
325.669
326.154
326.659
326.952
327.16
327.464
327.568
327.78
327.791
327.62
327.413
327.1
326.906
326.486
326.138
325.567
325.034
324.489
317.614
317.922
318.319
318.681
319.016
319.216
319.351
319.589
319.656
319.801
319.792
319.644
319.487
319.295
319.185
318.852
318.644
318.214
317.825
317.397
310.573
310.73
311.005
311.238
311.418
311.536
311.573
311.77
311.777
311.859
311.854
311.763
311.67
311.572
311.481
311.299
311.19
310.908
310.697
310.417
303.542
303.588
303.678
303.75
303.824
303.851
303.882
303.947
303.934
303.96
303.967
303.93
303.929
303.871
303.853
303.776
303.757
303.664
303.589
303.473
354.395
355.608
356.741
358.046
359.158
359.854
360.498
361.074
361.341
361.729
361.735
361.431
361.062
360.554
359.926
359.119
358.202
356.988
355.817
354.753
346.845
347.805
348.819
349.914
350.901
351.431
351.979
352.473
352.697
353.031
353.139
352.769
352.448
351.997
351.449
350.768
349.968
348.942
347.964
346.985
339.396
340.172
341.037
341.949
342.785
343.19
343.636
344.075
344.285
344.59
344.71
344.364
344.073
343.642
343.23
342.614
341.936
341.091
340.313
339.438
332.109
332.683
333.413
334.156
334.829
335.109
335.477
335.876
336.038
336.274
336.404
336.114
335.834
335.476
335.193
334.666
334.132
333.372
332.808
332.056
324.904
325.323
325.874
326.459
326.959
327.176
327.469
327.793
327.917
328.086
328.175
327.99
327.76
327.436
327.276
326.878
326.446
325.782
325.434
324.816
317.797
318.02
318.421
318.855
319.176
319.338
319.556
319.809
319.872
320.041
320.035
319.947
319.793
319.539
319.444
319.196
318.821
318.341
318.127
317.669
310.669
310.832
311.043
311.299
311.445
311.613
311.719
311.87
311.921
312.002
311.994
311.945
311.852
311.71
311.663
311.577
311.311
310.976
310.86
310.601
303.578
303.631
303.692
303.772
303.839
303.894
303.922
303.975
303.993
304.016
304.017
304
303.977
303.939
303.926
303.886
303.792
303.684
303.64
303.566
354.952
356.014
357.103
358.527
359.734
360.511
361.053
361.864
362.085
362.178
362.445
362.131
361.718
361.401
360.354
359.703
358.754
357.439
356.237
355.182
347.34
348.136
349.105
350.289
351.394
352.047
352.473
353.204
353.332
353.466
353.69
353.392
353.004
352.714
351.859
351.233
350.424
349.3
348.319
347.375
339.842
340.466
341.281
342.293
343.225
343.755
344.095
344.694
344.814
344.947
345.111
344.841
344.56
344.235
343.569
343.035
342.331
341.342
340.605
339.809
332.473
332.932
333.659
334.421
335.23
335.586
335.88
336.342
336.436
336.619
336.684
336.511
336.275
335.906
335.45
335.012
334.389
333.616
333.036
332.395
325.142
325.509
326.115
326.651
327.337
327.513
327.785
328.125
328.192
328.41
328.425
328.337
328.137
327.767
327.472
327.081
326.614
326.017
325.56
325.077
317.909
318.168
318.594
318.955
319.516
319.575
319.779
320.03
320.076
320.257
320.252
320.207
320.088
319.739
319.582
319.304
318.93
318.502
318.175
317.881
310.736
310.889
311.134
311.369
311.739
311.719
311.833
311.986
312.06
312.143
312.132
312.104
312.072
311.822
311.767
311.561
311.321
311.069
310.875
310.707
303.595
303.636
303.742
303.813
303.932
303.896
303.955
304.014
304.042
304.056
304.068
304.075
304.055
303.959
303.937
303.876
303.782
303.707
303.641
303.594
355.339
356.572
357.769
359.235
360.225
360.921
361.645
362.408
362.598
362.781
362.96
362.686
362.267
361.753
361.052
360.301
359.185
358.021
356.786
355.636
347.634
348.673
349.712
350.942
351.746
352.392
352.996
353.683
353.785
353.933
354.068
353.853
353.472
353.078
352.407
351.771
350.835
349.772
348.836
347.794
340.083
340.966
341.814
342.813
343.498
344.067
344.52
345.129
345.187
345.324
345.402
345.191
344.909
344.58
343.97
343.515
342.732
341.768
341.02
340.135
332.63
333.319
334.03
334.795
335.408
335.878
336.231
336.762
336.745
336.897
336.951
336.76
336.525
336.294
335.711
335.405
334.799
333.922
333.384
332.638
325.202
325.772
326.411
326.916
327.44
327.795
328.047
328.49
328.433
328.564
328.614
328.485
328.283
328.101
327.627
327.407
326.94
326.262
325.844
325.291
317.924
318.365
318.896
319.158
319.563
319.783
319.995
320.283
320.226
320.311
320.388
320.305
320.125
320.02
319.657
319.487
319.182
318.701
318.385
318.013
310.711
310.992
311.33
311.501
311.748
311.813
311.986
312.173
312.097
312.163
312.224
312.183
312.057
312.001
311.772
311.68
311.484
311.206
311.003
310.788
303.561
303.68
303.796
303.854
303.929
303.941
304.023
304.064
304.056
304.07
304.104
304.064
304.034
304.011
303.952
303.915
303.834
303.76
303.674
303.622
355.58
356.707
358.152
359.554
360.525
361.3
361.965
362.581
362.823
363.138
363.222
363.139
362.634
362.127
361.418
360.624
359.875
358.55
357.047
355.936
347.804
348.786
350.057
351.19
352.055
352.737
353.236
353.778
353.99
354.281
354.325
354.223
353.829
353.368
352.711
352.054
351.463
350.294
348.967
348.05
340.222
341.047
342.108
343.045
343.753
344.358
344.749
345.187
345.367
345.554
345.618
345.508
345.227
344.812
344.237
343.692
343.229
342.248
341.087
340.409
332.743
333.419
334.336
335.068
335.631
336.107
336.398
336.77
336.917
337.098
337.156
336.96
336.802
336.48
335.973
335.514
335.18
334.345
333.435
332.902
325.375
325.855
326.611
327.118
327.603
327.962
328.213
328.475
328.59
328.732
328.805
328.544
328.485
328.265
327.859
327.523
327.252
326.578
325.913
325.53
318.092
318.407
318.981
319.289
319.694
319.919
320.126
320.269
320.352
320.446
320.539
320.298
320.285
320.117
319.851
319.595
319.388
318.927
318.451
318.225
310.847
311.003
311.372
311.577
311.82
311.916
312.066
312.166
312.173
312.259
312.326
312.184
312.204
312.064
311.92
311.761
311.595
311.325
311.082
310.956
303.644
303.681
303.823
303.883
303.953
303.988
304.05
304.091
304.074
304.109
304.135
304.102
304.076
304.024
304.001
303.957
303.881
303.784
303.719
303.685
355.79
356.883
358.486
359.616
360.744
361.527
362.003
362.587
362.97
363.443
363.382
363.449
362.973
362.367
361.575
360.62
360.032
358.649
357.265
356.193
348.042
348.941
350.326
351.318
352.239
352.854
353.281
353.768
354.118
354.534
354.454
354.525
354.061
353.525
352.835
352.028
351.556
350.373
349.141
348.309
340.397
341.153
342.331
343.114
343.939
344.429
344.797
345.158
345.505
345.862
345.722
345.794
345.428
344.934
344.359
343.687
343.341
342.313
341.244
340.577
332.859
333.512
334.505
335.092
335.765
336.217
336.424
336.696
337.044
337.331
337.169
337.267
336.991
336.583
336.026
335.524
335.265
334.43
333.493
333.045
325.436
325.946
326.759
327.172
327.739
328.087
328.167
328.385
328.638
328.865
328.8
328.842
328.643
328.348
327.865
327.49
327.291
326.665
325.924
325.63
318.127
318.463
319.066
319.358
319.774
320.051
320.061
320.243
320.383
320.534
320.494
320.556
320.392
320.145
319.869
319.55
319.456
318.981
318.434
318.275
310.859
311.052
311.443
311.601
311.862
312.028
312.002
312.161
312.214
312.285
312.276
312.326
312.227
312.1
311.926
311.712
311.688
311.384
311.042
310.968
303.62
303.689
303.844
303.878
303.977
303.99
303.997
304.103
304.082
304.103
304.11
304.119
304.099
304.064
303.997
303.926
303.899
303.826
303.698
303.694
)
;

boundaryField
{
    hotSide
    {
        type            fixedGradient;
        gradient        nonuniform List<scalar> 
400
(
429.405
446.175
462.684
478.858
494.623
509.905
524.632
538.731
552.133
564.77
576.577
587.493
597.462
606.43
614.35
621.181
626.885
631.433
634.8
636.97
440.6
457.887
474.909
491.591
507.855
523.627
538.83
553.39
567.236
580.297
592.507
603.802
614.123
623.417
631.633
638.728
644.664
649.41
652.942
655.24
450.718
468.48
485.974
503.122
519.846
536.068
551.71
566.696
580.952
594.405
606.987
618.633
629.281
638.877
647.368
654.71
660.864
665.797
669.483
671.904
459.711
477.902
495.822
513.393
530.533
547.163
563.204
578.576
593.204
607.014
619.935
631.9
642.848
652.72
661.463
669.032
675.387
680.492
684.323
686.859
467.538
486.109
504.408
522.354
539.864
556.857
573.251
588.967
603.927
618.055
631.28
643.531
654.747
664.866
673.837
681.61
688.146
693.408
697.371
700.013
474.168
493.067
511.693
529.963
547.794
565.101
581.803
597.818
613.067
627.472
640.961
653.462
664.912
675.249
684.418
692.372
699.068
704.469
708.549
711.286
479.573
498.747
517.647
536.189
554.287
571.859
588.819
605.086
620.578
635.217
648.928
661.641
673.289
683.81
693.149
701.256
708.089
713.61
717.792
720.612
483.735
503.127
522.245
541.003
559.317
577.099
594.266
610.734
626.422
641.249
655.14
668.023
679.832
690.503
699.98
708.213
715.158
720.778
725.045
727.935
486.637
506.19
525.469
544.387
562.859
580.798
598.119
614.737
630.57
645.538
659.564
672.576
684.506
695.29
704.872
713.201
720.233
725.93
730.263
733.209
488.27
507.924
527.305
546.325
564.898
582.938
600.358
617.074
633.002
648.061
662.176
675.273
687.283
698.144
707.797
716.191
723.283
729.033
733.413
736.4
488.625
508.322
527.744
546.808
565.425
583.508
600.972
617.731
633.701
648.803
662.96
676.097
688.146
699.045
708.734
717.162
724.286
730.066
734.473
737.485
487.701
507.378
526.784
545.83
564.432
582.502
599.953
616.701
632.662
647.756
661.906
675.039
687.086
697.982
707.672
716.103
723.23
729.016
733.431
736.451
485.498
505.096
524.423
543.393
561.921
579.919
597.302
613.984
629.883
644.92
659.015
672.098
684.1
694.956
704.611
713.012
720.115
725.882
730.284
733.297
482.02
501.478
520.668
539.503
557.898
575.767
593.025
609.587
625.372
640.3
654.294
667.283
679.197
689.975
699.559
707.898
714.949
720.673
725.041
728.031
477.278
496.536
515.528
534.169
552.374
570.058
587.136
603.525
619.144
633.914
647.76
660.61
672.396
683.056
692.535
700.782
707.752
713.41
717.725
720.676
471.284
490.285
509.022
527.411
545.369
562.812
579.657
595.82
611.223
625.787
639.439
652.106
663.724
674.23
683.57
691.694
698.557
704.126
708.369
711.266
464.061
482.748
501.173
519.255
536.911
554.059
570.617
586.504
601.642
615.954
629.367
641.811
653.221
663.538
672.706
680.677
687.409
692.866
697.019
699.848
455.636
473.953
492.012
509.732
527.034
543.836
560.057
575.62
590.446
604.461
617.592
629.773
640.939
651.032
659.998
667.789
674.365
679.69
683.736
686.484
446.043
463.938
481.579
498.888
515.784
532.191
548.028
563.22
577.69
591.365
604.176
616.056
626.943
636.78
645.514
653.1
659.497
664.671
668.596
671.251
435.327
452.751
469.925
486.773
503.218
519.183
534.591
549.369
563.441
576.737
589.19
600.735
611.31
620.862
629.339
636.695
642.893
647.899
651.688
654.239
)
;
    }
    coldSide
    {
        type            mixed;
        refValue        uniform 300;
        refGradient     uniform 0;
        valueFraction   uniform 0.991591;
        source          uniform 0;
        value           nonuniform List<scalar> 
400
(
300.021
300.022
300.022
300.023
300.024
300.025
300.026
300.026
300.027
300.027
300.028
300.029
300.029
300.03
300.03
300.03
300.03
300.03
300.031
300.03
300.022
300.022
300.023
300.023
300.024
300.025
300.026
300.026
300.027
300.028
300.028
300.029
300.029
300.03
300.03
300.031
300.031
300.031
300.031
300.031