/*--------------------------------*- C++ -*----------------------------------*\
| =========                 |                                                 |
| \\      /  F ield         | OpenFOAM: The Open Source CFD Toolbox           |
|  \\    /   O peration     | Version:  2212                                  |
|   \\  /    A nd           | Website:  www.openfoam.com                      |
|    \\/     M anipulation  |                                                 |
\*---------------------------------------------------------------------------*/
FoamFile
{
    version     2.0;
    format      ascii;
    arch        "LSB;label=32;scalar=64";
    class       volScalarField;
    location    "0";
    object      T;
}
// * * * * * * * * * * * * * * * * * * * * * * * * * * * * * * * * * * * * * //

dimensions      [0 0 0 1 0 0 0];

internalField   nonuniform List<scalar> 
3200
(
346.97
347.636
348.702
349.681
350.455
351.077
351.936
352.3
352.562
352.564
352.563
352.511
351.904
351.696
350.856
350.024
349.222
348.114
347.006
346.224
340.915
341.441
342.38
343.256
343.898
344.432
345.192
345.498
345.724
345.717
345.703
345.694
345.138
345
344.205
343.483
342.83
341.871
340.875
340.216
334.729
335.155
335.969
336.744
337.305
337.736
338.381
338.605
338.837
338.851
338.786
338.832
338.316
338.19
337.493
336.862
336.36
335.554
334.672
334.202
328.496
328.834
329.516
330.203
330.623
330.999
331.53
331.676
331.867
331.926
331.806
331.875
331.437
331.329
330.78
330.228
329.84
329.209
328.454
328.06
322.225
322.482
322.99
323.602
323.915
324.223
324.624
324.722
324.82
324.934
324.777
324.903
324.499
324.442
323.996
323.59
323.252
322.805
322.205
321.831
315.918
316.071
316.455
316.916
317.149
317.333
317.61
317.705
317.716
317.834
317.737
317.854
317.518
317.509
317.183
316.925
316.64
316.347
315.873
315.606
309.517
309.672
309.913
310.142
310.32
310.389
310.591
310.638
310.622
310.705
310.678
310.722
310.537
310.568
310.311
310.181
309.997
309.851
309.514
309.372
303.196
303.239
303.33
303.404
303.472
303.482
303.541
303.555
303.547
303.574
303.596
303.587
303.527
303.547
303.477
303.413
303.351
303.307
303.186
303.134
347.827
348.708
350.175
350.701
351.891
352.431
353.013
353.441
353.811
353.886
353.619
353.595
353.181
352.889
352.175
351.143
350.336
349.252
348.047
347.082
341.544
342.283
343.58
344.065
345.083
345.553
346.091
346.453
346.711
346.836
346.54
346.582
346.219
345.962
345.322
344.424
343.713
342.811
341.757
340.936
335.198
335.86
336.933
337.343
338.26
338.624
339.093
339.415
339.564
339.72
339.458
339.477
339.183
339.001
338.405
337.648
337.091
336.333
335.422
334.761
328.812
329.402
330.248
330.63
331.366
331.67
332.021
332.268
332.445
332.58
332.361
332.388
332.073
331.982
331.455
330.853
330.465
329.815
329.016
328.547
322.457
322.882
323.535
323.865
324.419
324.689
324.956
325.157
325.278
325.369
325.185
325.273
324.975
324.927
324.518
324.038
323.725
323.23
322.586
322.238
316.054
316.356
316.824
317.06
317.445
317.694
317.851
317.996
318.076
318.139
317.993
318.107
317.88
317.838
317.564
317.203
316.968
316.644
316.124
315.864
309.638
309.854
310.134
310.246
310.496
310.656
310.723
310.812
310.884
310.861
310.806
310.871
310.739
310.762
310.571
310.367
310.209
309.973
309.683
309.515
303.225
303.316
303.381
303.454
303.531
303.576
303.59
303.628
303.653
303.638
303.611
303.654
303.574
303.608
303.542
303.476
303.436
303.351
303.23
303.19
349.165
350.26
351.481
352.368
353.243
353.91
354.481
355.033
355.493
355.511
355.25
355.12
354.662
354.23
353.425
352.803
351.698
350.638
349.367
348.145
342.716
343.677
344.712
345.501
346.278
346.792
347.275
347.797
348.126
348.178
347.997
347.817
347.46
347.106
346.367
345.808
344.892
343.997
342.909
341.803
336.171
337.045
337.906
338.545
339.242
339.621
340.065
340.498
340.789
340.816
340.69
340.518
340.205
339.925
339.312
338.868
338.04
337.289
336.396
335.425
329.653
330.329
331.067
331.585
332.135
332.475
332.876
333.196
333.409
333.415
333.375
333.211
332.915
332.709
332.221
331.862
331.206
330.526
329.829
329.045
323.113
323.618
324.213
324.613
325.008
325.304
325.614
325.872
326.006
325.993
326.014
325.877
325.628
325.487
325.098
324.817
324.313
323.751
323.219
322.624
316.534
316.889
317.327
317.658
317.884
318.05
318.34
318.527
318.592
318.591
318.649
318.492
318.334
318.212
317.958
317.711
317.338
316.968
316.604
316.194
309.945
310.15
310.439
310.627
310.769
310.823
311.05
311.11
311.124
311.174
311.219
311.126
311.026
310.99
310.799
310.629
310.42
310.203
309.959
309.735
303.361
303.4
303.515
303.575
303.619
303.632
303.723
303.732
303.731
303.73
303.76
303.746
303.708
303.691
303.61
303.569
303.497
303.415
303.348
303.276
350.671
351.774
352.875
354.01
355.017
355.648
356.234
356.647
356.962
357.2
357.203
356.908
356.378
355.771
355.035
354.19
353.233
352.091
350.889
349.781
344.02
344.999
345.919
346.851
347.788
348.302
348.854
349.206
349.47
349.621
349.647
349.395
348.919
348.399
347.797
347.053
346.199
345.18
344.188
343.21
337.297
338.154
338.94
339.706
340.497
340.88
341.402
341.676
341.926
342.064
342.065
341.807
341.464
341.007
340.522
339.887
339.142
338.235
337.45
336.636
330.554
331.212
331.919
332.541
333.208
333.478
333.952
334.133
334.361
334.474
334.469
334.234
333.977
333.593
333.19
332.666
332.039
331.255
330.683
330.039
323.762
324.294
324.855
325.319
325.895
326.02
326.437
326.57
326.773
326.824
326.836
326.649
326.446
326.16
325.812
325.466
324.968
324.323
323.932
323.422
316.955
317.372
317.769
318.137
318.518
318.57
318.926
318.994
319.136
319.19
319.168
319.048
318.912
318.694
318.436
318.241
317.85
317.39
317.132
316.755
310.192
310.439
310.685
310.938
311.119
311.124
311.39
311.409
311.502
311.524
311.502
311.463
311.347
311.229
311.044
310.961
310.717
310.488
310.306
310.088
303.421
303.506
303.591
303.659
303.715
303.725
303.826
303.83
303.862
303.853
303.85
303.853
303.808
303.77
303.695
303.666
303.597
303.491
303.477
303.381
352.308
353.169
354.631
355.565
356.776
357.199
357.815
358.406
358.586
358.66
358.724
358.541
358.033
357.485
356.837
355.727
354.679
353.585
352.327
351.223
345.449
346.094
347.423
348.214
349.298
349.62
350.172
350.682
350.81
350.901
350.937
350.805
350.407
349.907
349.271
348.395
347.467
346.519
345.382
344.473
338.564
339.057
340.215
340.872
341.79
341.989
342.523
342.933
343.048
343.14
343.171
343.031
342.764
342.336
341.705
341.005
340.224
339.418
338.46
337.717
331.653
331.984
332.969
333.47
334.293
334.397
334.843
335.132
335.244
335.376
335.38
335.223
335.034
334.644
334.115
333.624
332.957
332.304
331.558
330.936
324.69
324.895
325.703
326.087
326.722
326.784
327.114
327.346
327.423
327.59
327.565
327.396
327.217
326.969
326.565
326.202
325.695
325.14
324.594
324.123
317.69
317.817
318.375
318.653
319.13
319.162
319.37
319.58
319.556
319.764
319.722
319.587
319.433
319.299
318.97
318.759
318.432
317.98
317.58
317.237
310.617
310.719
311.055
311.174
311.525
311.482
311.66
311.765
311.737
311.902
311.834
311.757
311.682
311.623
311.391
311.275
311.087
310.769
310.598
310.36
303.56
303.611
303.702
303.748
303.884
303.853
303.911
303.944
303.955
303.978
303.96
303.921
303.922
303.911
303.844
303.795
303.723
303.602
303.553
303.458
353.83
354.754
356.103
357.041
358.236
358.95
359.642
360.042
360.326
360.418
360.338
360.121
359.777
359.226
358.256
357.358
356.243
355.223
353.747
352.772
346.776
347.518
348.706
349.494
350.575
351.163
351.77
352.104
352.355
352.397
352.329
352.147
351.856
351.38
350.525
349.735
348.804
347.943
346.667
345.854
339.704
340.271
341.233
341.944
342.862
343.366
343.815
344.142
344.367
344.357
344.314
344.135
343.884
343.56
342.793
342.122
341.317
340.637
339.539
338.847
332.579
333.01
333.746
334.404
335.193
335.54
335.855
336.121
336.324
336.323
336.314
336.133
335.924
335.718
335.017
334.492
333.809
333.285
332.394
331.807
325.371
325.715
326.261
326.807
327.42
327.65
327.907
328.119
328.259
328.263
328.264
328.129
327.956
327.817
327.303
326.846
326.324
325.898
325.233
324.786
318.119
318.414
318.765
319.185
319.614
319.773
319.941
320.089
320.176
320.199
320.206
320.111
320.004
319.9
319.566
319.167
318.845
318.496
318.056
317.733
310.859
311.073
311.275
311.547
311.803
311.901
312.003
312.051
312.121
312.143
312.132
312.09
312.021
311.981
311.766
311.529
311.328
311.14
310.859
310.674
303.639
303.735
303.779
303.876
303.97
303.986
304.036
304.034
304.062
304.063
304.058
304.05
304.033
304.017
303.949
303.867
303.797
303.743
303.637
303.562
355.088
356.347
357.864
358.785
359.521
360.611
361.212
361.553
361.968
361.942
361.941
361.726
361.313
360.777
359.629
358.859
357.76
356.572
355.06
353.924
347.874
348.906
350.255
351.052
351.641
352.583
353.123
353.423
353.732
353.765
353.729
353.544
353.181
352.754
351.737
351.071
350.183
349.058
347.755
346.809
340.611
341.436
342.603
343.274
343.754
344.551
344.976
345.288
345.517
345.563
345.487
345.347
345.031
344.706
343.863
343.28
342.577
341.55
340.381
339.662
333.261
333.899
334.878
335.462
335.866
336.482
336.826
337.089
337.275
337.307
337.221
337.129
336.854
336.643
335.94
335.471
334.901
334.006
332.997
332.539
325.873
326.36
327.135
327.604
327.908
328.382
328.661
328.905
329.042
329.02
328.972
328.92
328.679
328.522
327.989
327.61
327.177
326.465
325.679
325.334
318.501
318.824
319.404
319.737
319.952
320.279
320.476
320.665
320.792
320.759
320.701
320.674
320.487
320.435
320.023
319.692
319.423
318.922
318.356
318.101
311.107
311.323
311.695
311.849
311.993
312.171
312.29
312.401
312.545
312.476
312.442
312.419
312.294
312.265
312.018
311.793
311.634
311.393
311.029
310.835
303.731
303.803
303.919
303.976
304.017
304.089
304.09
304.178
304.218
304.179
304.169
304.165
304.11
304.112
304.048
303.943
303.913
303.834
303.687
303.638
356.494
357.657
359.142
360.369
361.142
362.016
362.824
363.21
363.481
363.529
363.234
363.445
362.982
362.358
361.407
360.397
359.457
358.087
356.711
355.056
349.08
350.031
351.358
352.422
353.061
353.785
354.524
354.838
355.092
355.144
354.857
355.018
354.661
354.132
353.273
352.408
351.638
350.42
349.203
347.813
341.59
342.416
343.583
344.433
344.931
345.534
346.196
346.436
346.66
346.756
346.455
346.584
346.309
345.871
345.085
344.376
343.77
342.687
341.674
340.506
334.069
334.757
335.726
336.389
336.784
337.242
337.843
338.001
338.214
338.34
338.051
338.129
337.927
337.598
336.885
336.329
335.815
334.926
334.13
333.209
326.525
327.045
327.818
328.326
328.648
328.961
329.434
329.561
329.715
329.918
329.606
329.742
329.51
329.243
328.715
328.268
327.88
327.172
326.604
325.888
319.01
319.309
319.892
320.252
320.497
320.738
321.01
321.106
321.22
321.411
321.137
321.244
321.109
320.887
320.527
320.204
319.937
319.435
319.043
318.521
311.415
311.598
311.999
312.199
312.337
312.473
312.572
312.656
312.739
312.859
312.673
312.738
312.654
312.521
312.328
312.163
311.931
311.707
311.494
311.137
303.837
303.91
304.039
304.103
304.149
304.187
304.219
304.229
304.268
304.317
304.252
304.276
304.235
304.185
304.124
304.081
304.002
303.931
303.851
303.758
357.803
359.216
360.504
361.8
362.85
363.49
364.371
364.659
364.873
364.863
364.951
364.799
364.534
363.776
363
361.776
360.636
359.394
357.967
356.617
350.205
351.396
352.489
353.65
354.51
355.09
355.871
356.095
356.286
356.296
356.355
356.212
355.991
355.368
354.65
353.63
352.617
351.583
350.329
349.17
342.59
343.592
344.444
345.457
346.164
346.643
347.329
347.512
347.642
347.718
347.714
347.626
347.449
346.939
346.26
345.461
344.556
343.688
342.632
341.708
334.923
335.741
336.394
337.219
337.794
338.201
338.781
338.931
338.941
339.117
339.058
339.031
338.868
338.455
337.884
337.234
336.474
335.735
334.904
334.214
327.215
327.841
328.346
328.971
329.395
329.743
330.144
330.305
330.263
330.486
330.378
330.375
330.255
329.938
329.514
328.99
328.382
327.816
327.164
326.672
319.486
319.873
320.282
320.743
321.006
321.29
321.547
321.647
321.655
321.836
321.688
321.705
321.63
321.401
321.095
320.726
320.314
319.918
319.413
319.091
311.736
311.934
312.212
312.458
312.605
312.773
312.95
313.003
313.003
313.097
313.011
313.057
312.989
312.85
312.715
312.465
312.202
312.008
311.682
311.457
303.942
303.995
304.092
304.19
304.211
304.29
304.354
304.336
304.34
304.382
304.379
304.355
304.354
304.322
304.271
304.173
304.083
304.038
303.912
303.829
359.206
360.548
361.545
363.033
364.126
364.751
365.586
366.146
366.463
366.408
366.237
366.207
365.612
364.978
364.18
363.192
361.957
360.407
359.009
357.803
351.445
352.578
353.47
354.712
355.676
356.145
356.88
357.383
357.683
357.611
357.505
357.441
356.947
356.364
355.699
354.835
353.786
352.441
351.174
350.202
343.628
344.544
345.328
346.383
347.185
347.531
348.133
348.564
348.854
348.819
348.692
348.654
348.243
347.721
347.19
346.468
345.563
344.461
343.341
342.602
335.8
336.5
337.119
338.008
338.648
338.95
339.411
339.751
340.008
339.973
339.895
339.825
339.495
339.072
338.664
338.071
337.286
336.44
335.512
334.915
327.936
328.421
328.834
329.614
330.083
330.34
330.656
330.936
331.097
331.125
331.093
331.004
330.755
330.425
330.117
329.624
328.998
328.371
327.664
327.239
319.999
320.32
320.591
321.148
321.528
321.726
321.916
322.136
322.199
322.261
322.261
322.201
321.974
321.772
321.533
321.161
320.745
320.255
319.784
319.491
312.038
312.207
312.363
312.66
312.951
313.049
313.2
313.279
313.319
313.424
313.368
313.318
313.223
313.085
312.998
312.707
312.491
312.169
311.898
311.712
304.039
304.104
304.167
304.242
304.36
304.363
304.448
304.458
304.46
304.497
304.463
304.454
304.444
304.379
304.367
304.239
304.208
304.083
303.997
303.93
360.443
361.504
362.782
364.036
365.365
366.047
366.872
367.34
367.597
367.723
367.45
367.3
366.801
366.235
365.443
364.249
363.215
361.705
360.057
358.727
352.469
353.414
354.509
355.588
356.746
357.304
358.039
358.431
358.633
358.784
358.518
358.359
357.972
357.485
356.773
355.734
354.854
353.529
352.142
350.961
344.47
345.284
346.229
347.097
348.057
348.561
349.17
349.477
349.651
349.776
349.533
349.403
349.121
348.728
348.081
347.159
346.438
345.354
344.166
343.156
336.453
337.091
337.912
338.566
339.339
339.773
340.234
340.517
340.665
340.751
340.53
340.458
340.259
339.965
339.379
338.607
338.018
337.182
336.204
335.385
328.375
328.875
329.542
329.989
330.596
330.957
331.315
331.529
331.652
331.715
331.552
331.474
331.341
331.17
330.672
330.058
329.634
328.969
328.194
327.591
320.287
320.637
321.156
321.4
321.88
322.166
322.408
322.544
322.603
322.669
322.505
322.502
322.405
322.299
321.923
321.489
321.206
320.705
320.188
319.757
312.177
312.417
312.761
312.863
313.136
313.312
313.455
313.573
313.538
313.628
313.525
313.51
313.45
313.407
313.182
312.918
312.738
312.414
312.128
311.872
304.095
304.159
304.288
304.301
304.409
304.481
304.496
304.538
304.504
304.57
304.538
304.507
304.511
304.467
304.417
304.326
304.282
304.155
304.076
303.969
361.273
362.419
363.91
365.236
366.393
367.168
368.026
368.482
368.804
368.81
368.716
368.576
367.936
367.5
366.539
365.633
364.24
362.692
361.13
359.564
353.213
354.158
355.464
356.612
357.603
358.256
359.037
359.448
359.741
359.687
359.608
359.471
358.943
358.61
357.736
356.958
355.741
354.365
353.082
351.664
345.09
345.913
346.988
347.959
348.77
349.326
349.986
350.384
350.655
350.538
350.468
350.346
349.921
349.719
348.919
348.253
347.222
346.076
344.973
343.75
336.914
337.617
338.467
339.252
339.964
340.36
340.887
341.253
341.497
341.341
341.288
341.272
340.871
340.76
340.116
339.493
338.653
337.746
336.844
335.846
328.738
329.284
329.994
330.544
331.139
331.454
331.801
332.097
332.304
332.16
332.183
332.155
331.805
331.741
331.249
330.784
330.089
329.373
328.718
327.916
320.541
320.908
321.468
321.838
322.249
322.471
322.741
322.917
323.091
322.981
323.012
322.997
322.726
322.745
322.315
322.035
321.51
320.981
320.572
319.958
312.318
312.581
312.904
313.128
313.348
313.45
313.644
313.772
313.85
313.773
313.829
313.807
313.628
313.661
313.361
313.23
312.929
312.589
312.344
312.01
304.125
304.202
304.306
304.413
304.475
304.482
304.586
304.616
304.63
304.586
304.649
304.62
304.566
304.605
304.484
304.414
304.32
304.225
304.125
304.03
362.084
363.366
364.928
366.244
367.457
368.22
368.933
369.599
369.727
370.111
369.751
369.666
369.109
368.514
367.48
366.524
365.218
363.708
362.093
360.69
353.942
354.968
356.367
357.506
358.548
359.194
359.837
360.358
360.507
360.817
360.516
360.421
359.933
359.423
358.581
357.743
356.573
355.255
353.897
352.69
345.722
346.58
347.761
348.722
349.588
350.182
350.683
351.079
351.263
351.522
351.264
351.117
350.733
350.325
349.69
348.925
347.91
346.811
345.654
344.648
337.476
338.193
339.126
339.849
340.613
341.082
341.5
341.758
341.973
342.23
341.973
341.85
341.558
341.18
340.755
340.061
339.246
338.321
337.399
336.579
329.192
329.743
330.466
331.012
331.609
331.974
332.316
332.48
332.679
332.887
332.647
332.585
332.289
332.042
331.753
331.15
330.537
329.836
329.111
328.482
320.879
321.264
321.801
322.209
322.584
322.847
323.107
323.203
323.349
323.527
323.335
323.315
323.04
322.907
322.72
322.252
321.794
321.321
320.832
320.388
312.545
312.757
313.097
313.315
313.561
313.704
313.906
313.931
314.048
314.146
314.036
314.03
313.792
313.775
313.617
313.369
313.069
312.805
312.561
312.233
304.21
304.272
304.383
304.447
304.567
304.594
304.692
304.67
304.704
304.743
304.706
304.693
304.621
304.623
304.569
304.476
304.366
304.283
304.206
304.095
362.906
364.173
365.622
367.039
368.344
369.199
369.969
370.486
370.625
370.703
370.806
370.589
369.846
369.111
368.492
367.338
365.997
364.506
362.816
361.399
354.631
355.658
356.928
358.152
359.34
360.097
360.709
361.194
361.292
361.339
361.459
361.279
360.586
359.942
359.429
358.37
357.264
355.959
354.512
353.278
346.306
347.109
348.224
349.286
350.273
350.938
351.419
351.844
351.944
351.959
352.096
351.918
351.319
350.766
350.333
349.393
348.54
347.365
346.19
345.121
337.919
338.588
339.513
340.369
341.224
341.741
342.139
342.407
342.52
342.559
342.694
342.521
342.041
341.57
341.224
340.414
339.765
338.781
337.831
336.985
329.543
330.037
330.783
331.43
332.092
332.479
332.848
333.002
333.119
333.139
333.244
333.089
332.748
332.363
332.099
331.449
331.006
330.191
329.439
328.804
321.147
321.496
321.987
322.452
322.912
323.225
323.49
323.583
323.677
323.689
323.777
323.634
323.434
323.111
322.933
322.472
322.157
321.635
321.076
320.609
312.689
312.92
313.193
313.485
313.792
313.957
314.089
314.142
314.189
314.236
314.277
314.175
314.078
313.887
313.782
313.483
313.309
313.031
312.685
312.421
304.256
304.322
304.408
304.517
304.64
304.669
304.736
304.76
304.747
304.777
304.771
304.745
304.736
304.668
304.63
304.506
304.456
304.386
304.269
304.178
363.707
365.004
366.474
367.793
369.057
369.921
370.745
371.189
371.411
371.641
371.765
371.431
370.867
370.137
369.262
368.112
366.649
365.144
363.494
362.053
355.315
356.425
357.668
358.821
359.952
360.673
361.358
361.801
361.956
362.095
362.273
361.964
361.477
360.87
360.14
359.107
357.799
356.511
355.093
353.867
346.886
347.806
348.825
349.818
350.836
351.362
351.976
352.318
352.485
352.605
352.792
352.465
352.074
351.542
350.94
350.048
348.959
347.883
346.715
345.644
338.415
339.128
339.987
340.794
341.675
342.087
342.554
342.805
343.007
343.064
343.27
342.978
342.672
342.203
341.694
340.973
340.072
339.23
338.284
337.375
329.919
330.468
331.163
331.75
332.475
332.813
333.121
333.28
333.505
333.478
333.728
333.463
333.219
332.863
332.453
331.88
331.189
330.577
329.808
329.119
321.393
321.739
322.284
322.674
323.235
323.445
323.693
323.733
323.975
323.944
324.104
323.978
323.729
323.481
323.206
322.802
322.282
321.873
321.329
320.824
312.841
313.045
313.363
313.647
313.968
314.065
314.235
314.22
314.401
314.381
314.487
314.412
314.261
314.119
313.928
313.742
313.399
313.139
312.84
312.528
304.28
304.363
304.463
304.562
304.669
304.699
304.749
304.758
304.842
304.821
304.851
304.839
304.793
304.723
304.672
304.623
304.489
304.409
304.321
304.206
364.211
365.477
366.891
368.349
369.821
370.644
371.531
371.729
372.115
372.327
372.515
372.124
371.732
370.715
370.029
368.818
367.361
365.738
364.099
362.757
355.713
356.831
358.082
359.297
360.582
361.27
362.072
362.217
362.555
362.747
362.952
362.591
362.248
361.339
360.762
359.734
358.433
357.075
355.636
354.456
347.225
348.133
349.241
350.234
351.346
351.914
352.573
352.671
352.984
353.155
353.338
353.073
352.743
351.936
351.456
350.596
349.475
348.33
347.159
346.143
338.693
339.392
340.368
341.136
342.059
342.518
343.055
343.096
343.368
343.521
343.678
343.544
343.193
342.52
342.116
341.46
340.506
339.544
338.668
337.813
330.091
330.651
331.446
332.03
332.707
333.087
333.505
333.5
333.762
333.894
334.014
333.969
333.657
333.127
332.75
332.254
331.518
330.767
330.135
329.445
321.492
321.935
322.495
322.899
323.367
323.666
323.938
323.935
324.101
324.266
324.329
324.332
324.103
323.684
323.373
323.068
322.559
321.999
321.574
321.072
312.89
313.177
313.54
313.757
314.024
314.228
314.381
314.364
314.448
314.624
314.624
314.618
314.495
314.256
314.054
313.886
313.575
313.185
312.973
312.694
304.335
304.407
304.537
304.633
304.685
304.758
304.82
304.815
304.866
304.9
304.892
304.909
304.867
304.79
304.69
304.648
304.562
304.411
304.349
304.252
364.755
365.966
367.536
368.935
370.397
371.394
372.101
372.614
372.975
372.991
372.988
372.633
372.121
371.357
370.274
369.257
367.689
366.239
364.502
363.295
356.184
357.232
358.583
359.814
361.084
361.999
362.515
362.993
363.331
363.339
363.362
363.013
362.566
361.909
360.975
360.077
358.738
357.488
355.952
354.937
347.645
348.548
349.568
350.668
351.724
352.517
352.89
353.364
353.655
353.625
353.693
353.373
352.984
352.394
351.677
350.908
349.747
348.698
347.414
346.511
339.021
339.768
340.578
341.508
342.352
343.014
343.274
343.722
343.951
343.889
343.943
343.72
343.412
342.87
342.337
341.688
340.743
339.83
338.903
338.099
330.379
330.986
331.584
332.316
332.936
333.512
333.702
334.023
334.171
334.139
334.163
334.061
333.793
333.367
332.979
332.446
331.74
330.959
330.293
329.694
321.728
322.15
322.59
323.094
323.538
323.969
324.081
324.287
324.417
324.369
324.392
324.379
324.162
323.804
323.595
323.144
322.684
322.08
321.671
321.246
313.055
313.302
313.561
313.857
314.146
314.417
314.435
314.609
314.666
314.616
314.618
314.64
314.536
314.264
314.183
313.874
313.639
313.221
313.037
312.758
304.382
304.457
304.553
304.647
304.743
304.843
304.833
304.909
304.914
304.895
304.906
304.897
304.868
304.789
304.759
304.642
304.588
304.417
304.362
304.283
365.135
366.337
367.731
369.242
370.729
371.712
372.467
373.071
373.475
373.441
373.299
373.052
372.455
371.78
370.794
369.521
368.296
366.465
364.877
363.604
356.588
357.576
358.746
360.071
361.338
362.231
362.923
363.412
363.749
363.764
363.597
363.372
362.864
362.322
361.421
360.265
359.194
357.666
356.284
355.177
347.953
348.753
349.742
350.919
351.915
352.72
353.32
353.724
354.02
354.053
353.886
353.651
353.256
352.801
351.992
351.014
350.151
348.789
347.683
346.726
339.31
339.935
340.749
341.728
342.489
343.176
343.665
343.982
344.229
344.285
344.112
343.884
343.576
343.184
342.545
341.763
341.087
339.963
339.057
338.261
330.596
331.08
331.7
332.502
333.038
333.626
333.962
334.254
334.415
334.477
334.314
334.096
333.952
333.588
333.088
332.554
332.016
331.12
330.417
329.754
321.854
322.229
322.662
323.255
323.611
324.053
324.27
324.553
324.609
324.608
324.53
324.333
324.277
324.008
323.631
323.267
322.886
322.255
321.784
321.273
313.123
313.352
313.62
313.994
314.158
314.442
314.531
314.776
314.787
314.758
314.738
314.596
314.563
314.424
314.178
314.015
313.743
313.35
313.111
312.816
304.41
304.469
304.566
304.697
304.774
304.823
304.855
304.954
304.981
304.946
304.937
304.888
304.897
304.827
304.747
304.714
304.604
304.468
304.401
304.299
365.502
366.625
368.034
369.894
370.908
372.072
372.818
373.256
373.551
373.662
373.547
373.278
372.672
371.869
371.102
369.889
368.373
366.963
365.415
363.766
356.867
357.798
359.033
360.665
361.521
362.557
363.197
363.537
363.862
363.902
363.769
363.583
363.036
362.364
361.638
360.623
359.297
358.092
356.775
355.357
348.202
348.99
349.976
351.391
352.128
352.976
353.499
353.793
354.095
354.176
353.969
353.852
353.401
352.785
352.205
351.327
350.241
349.215
348.126
346.91
339.5
340.173
340.949
342.058
342.671
343.381
343.761
344.064
344.308
344.359
344.185
344.108
343.738
343.207
342.746
342.053
341.22
340.325
339.468
338.431
330.754
331.255
331.859
332.722
333.181
333.773
334.082
334.315
334.501
334.496
334.38
334.377
334.061
333.667
333.267
332.775
332.13
331.389
330.773
329.916
321.982
322.397
322.793
323.397
323.692
324.14
324.373
324.545
324.672
324.652
324.613
324.569
324.368
324.061
323.775
323.496
322.973
322.49
322.04
321.406
313.202
313.473
313.696
314.062
314.225
314.531
314.62
314.744
314.826
314.784
314.825
314.774
314.665
314.488
314.29
314.145
313.818
313.526
313.272
312.87
304.42
304.49
304.566
304.717
304.76
304.876
304.906
304.957
304.98
304.963
304.985
304.955
304.892
304.878
304.786
304.729
304.644
304.537
304.448
304.309
365.606
367.016
368.074
369.778
371.226
371.956
372.806
373.334
373.805
373.967
373.721
373.54
372.917
371.99
371.091
370.297
368.697
367.201
365.698
364.062
356.944
358.126
359.068
360.525
361.803
362.417
363.171
363.587
364.071
364.203
363.988
363.832
363.27
362.437
361.698
361.018
359.584
358.256
357.022
355.632
348.255
349.242
350.027
351.242
352.327
352.807
353.529
353.819
354.323
354.406
354.166
354.097
353.628
352.868
352.292
351.699
350.444
349.324
348.32
347.16
339.568
340.304
340.983
341.971
342.835
343.22
343.785
344.061
344.535
344.596
344.344
344.291
343.99
343.28
342.783
342.409
341.278
340.361
339.571
338.622
330.852
331.385
331.919
332.698
333.35
333.59
334.059
334.272
334.681
334.745
334.527
334.474
334.304
333.719
333.292
333.062
332.098
331.374
330.825
330.075
322.055
322.456
322.823
323.351
323.848
323.969
324.328
324.485
324.788
324.844
324.673
324.66
324.545
324.107
323.776
323.701
322.933
322.385
322.065
321.494
313.275
313.566
313.695
314.043
314.371
314.402
314.626
314.709
314.869
314.939
314.821
314.803
314.771
314.466
314.28
314.261
313.808
313.425
313.268
312.947
304.449
304.554
304.587
304.743
304.816
304.84
304.903
304.933
304.98
305.018
304.961
304.937
304.964
304.864
304.766
304.781
304.637
304.513
304.466
304.355
)
;

boundaryField
{
    hotSide
    {
        type            fixedGradient;
        gradient        nonuniform List<scalar> 
400
(
475.947
493.614
510.948
527.871
544.304
560.172
575.397
589.905
603.623
616.484
628.421
639.371
649.279
658.091
665.762
672.25
677.522
681.548
684.309
685.791
488.85
507.011
524.83
542.228
559.124
575.439
591.096
606.016
620.127
633.357
645.638
656.906
667.104
676.176
684.076
690.761
696.196
700.352
703.207
704.748
500.468
519.071
537.326
555.15
572.461
589.179
605.222
620.513
634.975
648.536
661.126
672.679
683.137
692.442
700.547
707.409
712.99
717.262
720.202
721.795
510.726
529.719
548.356
566.554
584.23
601.3
617.683
633.299
648.069
661.92
674.781
686.584
697.269
706.779
715.064
722.08
727.789
732.162
735.176
736.815
519.564
538.889
557.852
576.369
594.356
611.727
628.4
644.292
659.325
673.424
686.515
698.531
709.409
719.093
727.53
734.677
740.495
744.953
748.028
749.705
526.93
546.527
565.758
584.538
602.779
620.397
637.307
653.426
668.675
682.975
696.255
708.444
719.481
729.305
737.867
745.119
751.024
755.551
758.675
760.381
532.783
552.592
572.031
591.014
609.453
627.261
644.355
660.649
676.062
690.518
703.943
716.265
727.422
737.355
746.011
753.343
759.314
763.891
767.051
768.778
537.094
557.052
576.637
595.762
614.34
632.282
649.503
665.919
681.448
696.012
709.536
721.95
733.19
743.196
751.915
759.301
765.315
769.925
773.107
774.845
539.84
559.884
579.554
598.761
617.417
635.434
652.727
669.211
684.804
699.427
713.006
725.469
736.753
746.797
755.549
762.962
768.996
773.62
776.81
778.549
541.013
561.079
580.77
599.996
618.671
636.705
654.014
670.512
686.117
700.75
714.338
726.808
738.097
748.145
756.898
764.31
770.342
774.961
778.144
779.875
540.608
560.633
580.282
599.467
618.1
636.094
653.361
669.819
685.385
699.98
713.531
725.966
737.221
747.236
755.959
763.344
769.35
773.946
777.109
778.821
538.633
558.554
578.1
597.182
615.714
633.608
650.779
667.143
682.619
697.128
710.596
722.954
734.137
744.086
752.748
760.078
766.036
770.591
773.719
775.404
535.103
554.858
574.239
593.159
611.531
629.27
646.289
662.507
677.843
692.218
705.56
717.799
728.872
738.721
747.292
754.541
760.429
764.925
768.005
769.653
530.041
549.569
568.726
587.425
605.581
623.108
639.923
655.944
671.09
685.286
698.458
710.54
721.467
731.181
739.633
746.776
752.572
756.991
760.011
761.614
523.479
542.722
561.597
580.019
597.903
615.165
631.724
647.498
662.408
676.38
689.342
701.227
711.972
721.522
729.825
736.838
742.523
746.849
749.796
751.346
515.458
534.36
552.897
570.987
588.547
605.494
621.746
637.226
651.856
665.561
678.272
689.924
700.455
709.809
717.938
724.798
730.352
734.571
737.433
738.923
506.028
524.535
542.682
560.388
577.573
594.155
610.055
625.196
639.502
652.901
665.325
676.709
686.994
696.125
704.054
710.74
716.146
720.244
723.011
724.435
495.247
513.308
531.015
548.29
565.052
581.224
596.728
611.488
625.431
638.486
650.587
661.671
671.681
680.563
688.27
694.762
700.003
703.967
706.631
707.983
483.183
500.751
517.972
534.769
551.066
566.785
581.851
596.191
609.734
622.411
634.158
644.913
654.62
663.229
670.693
676.974
682.036
685.855
688.408
689.685
469.913
486.945
503.637
519.916
535.706
550.933
565.525
579.41
592.519
604.787
616.149
626.548
635.93
644.244
651.447
657.5
662.372
666.035
668.471
669.668
)
;
    }
    coldSide
    {
        type            mixed;
        refValue        uniform 300;
        refGradient     uniform 0;
        valueFraction   uniform 0.991591;
        source          uniform 0;
        value           nonuniform List<scalar> 
400
(
300.027
300.027
300.028
300.029
300.03
300.031
300.031
300.032
300.033
300.034
300.034
300.035
300.035
300.036
300.036
300.036
300.037
300.037
300.037
300.037
300.027
300.028
300.029
300.029
300.03
300.031
300.032
300.033
300.034
300.035
300.035
300.035
300.036
300.036
300.037