/*--------------------------------*- C++ -*----------------------------------*\
| =========                 |                                                 |
| \\      /  F ield         | OpenFOAM: The Open Source CFD Toolbox           |
|  \\    /   O peration     | Version:  2212                                  |
|   \\  /    A nd           | Website:  www.openfoam.com                      |
|    \\/     M anipulation  |                                                 |
\*---------------------------------------------------------------------------*/
FoamFile
{
    version     2.0;
    format      ascii;
    arch        "LSB;label=32;scalar=64";
    class       volScalarField;
    location    "./ITHACAoutput/true/4.2";
    object      error;
}
// * * * * * * * * * * * * * * * * * * * * * * * * * * * * * * * * * * * * * //

dimensions      [0 0 0 1 0 0 0];

internalField   nonuniform List<scalar> 
3200
(
-0.378208
-0.585471
-0.534799
-0.393871
-0.0927117
0.388645
0.923099
1.43546
1.83982
2.11615
2.17574
2.02351
1.81344
1.35198
1.00991
0.674403
0.365564
0.328469
0.456992
0.709115
-0.237149
-0.381037
-0.394285
-0.206463
0.103537
0.487253
0.901503
1.40183
1.74451
1.95723
1.96437
1.92556
1.66496
1.317
1.09117
0.722689
0.518775
0.482008
0.502565
0.676006
-0.0568912
-0.268419
-0.176317
-0.10272
0.202526
0.52195
0.957033
1.24703
1.57623
1.81708
1.8682
1.65781
1.45465
1.21637
0.897036
0.729194
0.525851
0.390494
0.531436
0.644589
-0.00994322
-0.124054
-0.117211
0.0434986
0.161831
0.523642
0.841571
0.997979
1.39045
1.51016
1.56644
1.47553
1.37554
1.10445
0.881024
0.637963
0.552065
0.412255
0.527055
0.628343
0.0691356
-0.0189478
-0.0780679
0.0867784
0.147619
0.439101
0.664692
0.926871
1.09524
1.21953
1.26723
1.1784
1.07838
0.883818
0.660587
0.563955
0.461749
0.42654
0.456186
0.59351
0.0603876
-0.00264845
-0.00986423
0.113013
0.192482
0.311645
0.490663
0.710146
0.863843
0.909804
0.90026
0.871428
0.783557
0.654696
0.512942
0.451009
0.332118
0.321207
0.269657
0.375606
0.0135779
0.00812782
-0.0274611
0.0274263
0.0735249
0.200515
0.312395
0.401371
0.542341
0.602538
0.548147
0.580652
0.540654
0.420398
0.325437
0.251272
0.180223
0.27979
0.178095
0.298063
-0.00908786
0.0388441
-0.0284412
0.00777038
0.151225
0.0689854
0.120595
0.0991937
0.1196
0.174702
0.244953
0.110204
0.173488
0.107576
0.14743
0.086237
0.132562
0.0461603
0.0120954
0.0337089
-1.14982
-1.36949
-1.35813
-1.33041
-0.931809
-0.482872
-0.0185132
0.477408
0.878626
1.16669
1.17063
1.08569
0.80326
0.502871
0.151022
-0.14701
-0.401851
-0.478626
-0.370182
-0.0821327
-0.802765
-0.895764
-1.00899
-0.930038
-0.555403
-0.15949
0.220641
0.588994
0.935538
1.23147
1.30999
1.18161
0.937494
0.579524
0.344822
0.0858941
-0.220919
-0.200361
-0.0758633
0.1248
-0.597911
-0.716921
-0.750637
-0.495697
-0.366039
-0.115468
0.306738
0.694475
0.94368
1.1342
1.16434
1.18292
0.88855
0.687971
0.461269
0.196858
-0.0259959
-0.00359551
0.0590107
0.216146
-0.308011
-0.426854
-0.48646
-0.410196
-0.181126
0.034794
0.355137
0.66278
0.891638
1.03754
1.05175
0.968494
0.859289
0.672987
0.397485
0.141258
0.113349
0.0258151
0.127038
0.252005
-0.258937
-0.348027
-0.358844
-0.279716
-0.128765
0.0622176
0.322987
0.503342
0.698051
0.859746
0.919818
0.861902
0.646245
0.538067
0.415512
0.240644
0.16791
0.0783571
0.120272
0.201884
-0.197631
-0.108974
-0.178507
-0.0884129
-0.0172382
0.155377
0.264226
0.408023
0.564588
0.684797
0.615175
0.617507
0.491346
0.450231
0.337775
0.2008
0.0955384
0.151558
0.171951
0.255719
-0.0412923
-0.095374
-0.130598
-0.123321
0.0572645
0.00419277
0.146619
0.246379
0.378803
0.383411
0.434146
0.327766
0.38125
0.245909
0.189235
0.119003
0.0718428
0.0908128
0.103182
0.125177
-0.0351127
-0.100415
-0.0628001
0.0263031
-0.078201
0.00835411
0.132122
0.106986
0.162481
0.138978
0.12401
0.107248
0.116558
0.104048
0.0704159
0.0106135
0.0503391
0.053921
0.0385809
0.0189133
-2.00739
-2.22581
-2.28828
-2.18781
-1.90474
-1.58968
-1.10282
-0.610852
-0.322605
-0.0157902
0.0527465
-0.0706206
-0.317262
-0.626663
-0.944506
-1.25409
-1.28415
-1.38502
-1.15862
-0.949545
-1.53434
-1.72978
-1.76461
-1.79825
-1.45886
-1.11138
-0.725112
-0.378019
-0.00480566
0.222142
0.260863
0.166864
0.00546464
-0.357658
-0.621787
-0.867709
-0.965888
-0.944464
-0.812073
-0.560832
-1.21606
-1.28719
-1.3374
-1.31255
-1.02718
-0.792777
-0.482003
-0.087983
0.132984
0.32074
0.312654
0.354638
0.139989
-0.071008
-0.282544
-0.555422
-0.645208
-0.668912
-0.588361
-0.371834
-0.842662
-0.948722
-1.06003
-0.960278
-0.788507
-0.543776
-0.25704
0.0334221
0.170473
0.374237
0.364371
0.328412
0.20661
0.0135356
-0.161911
-0.34566
-0.433404
-0.506405
-0.420595
-0.226629
-0.590051
-0.7839
-0.672131
-0.702962
-0.545886
-0.420416
-0.159664
0.0410914
0.28426
0.373586
0.424875
0.276446
0.204008
0.0733998
-0.0646791
-0.185381
-0.321101
-0.274411
-0.251685
-0.14493
-0.431718
-0.465363
-0.511499
-0.519559
-0.318003
-0.23643
-0.153818
0.0644338
0.210689
0.324486
0.289712
0.231546
0.236478
0.144962
-0.131958
-0.0662167
-0.114725
-0.157287
-0.147715
-0.0188017
-0.237391
-0.303832
-0.319404
-0.28381
-0.174613
-0.121832
-0.0373647
0.0656619
0.165284
0.143881
0.217124
0.151963
0.0832583
0.102022
-0.0620848
-0.0697486
-0.111229
-0.14579
-0.0998628
-0.0132008
-0.0774967
-0.0799417
-0.106436
-0.12247
-0.0107279
-0.0377198
-0.0228915
0.0602024
0.0539577
0.0802849
0.039478
0.101353
0.10596
0.0500586
-0.0284755
-0.0208381
-3.71106e-05
-0.012156
-0.00961923
0.0648843
-2.8675
-3.01712
-3.22212
-3.21774
-2.98668
-2.61914
-2.28695
-1.81626
-1.45208
-1.26676
-1.16615
-1.30012
-1.37656
-1.80932
-2.01693
-2.18944
-2.35087
-2.28996
-2.05107
-1.71198
-2.21661
-2.46899
-2.55749
-2.52276
-2.3469
-2.06568
-1.63243
-1.41437
-1.01834
-0.851969
-0.73546
-0.882413
-1.03981
-1.21313
-1.53476
-1.69651
-1.74302
-1.70837
-1.49108
-1.22722
-1.72916
-1.92891
-2.04616
-1.93588
-1.76273
-1.60844
-1.24193
-0.891544
-0.724725
-0.544499
-0.480246
-0.6022
-0.659061
-0.96636
-1.08858
-1.18715
-1.36008
-1.3371
-1.14909
-0.89605
-1.29893
-1.41225
-1.50813
-1.49617
-1.33107
-1.16688
-0.920512
-0.690967
-0.46975
-0.420326
-0.300953
-0.323098
-0.439749
-0.546625
-0.715954
-0.999171
-0.996056
-0.923553
-0.830197
-0.66567
-0.899078
-1.0972
-1.19684
-1.0728
-0.973751
-0.811657
-0.748329
-0.444396
-0.345634
-0.22953
-0.169457
-0.219975
-0.303741
-0.435601
-0.511932
-0.649211
-0.712871
-0.722474
-0.594347
-0.478557
-0.646797
-0.779737
-0.779415
-0.718139
-0.700967
-0.56755
-0.39863
-0.189891
-0.132462
-0.106383
-0.0551039
-0.0992561
-0.136358
-0.263111
-0.313272
-0.460002
-0.464884
-0.410447
-0.367442
-0.307178
-0.370777
-0.370882
-0.4645
-0.373982
-0.405539
-0.328804
-0.246185
-0.114225
-0.0519685
-0.0743969
-0.0353512
-0.020802
-0.0948624
-0.0908004
-0.215692
-0.226767
-0.216526
-0.276063
-0.304865
-0.182942
-0.117037
-0.134585
-0.157097
-0.0747007
-0.106902
-0.1353
-0.0482227
-0.0448736
-0.0840227
0.0453903
0.00427314
0.0687274
-0.0377465
-0.020814
-0.0130039
-0.0859416
-0.0922301
-0.0259642
-0.113561
-0.0848137
-3.42392
-3.74852
-3.93425
-3.99931
-3.87578
-3.64181
-3.22062
-2.88583
-2.62686
-2.3979
-2.28634
-2.35982
-2.46439
-2.70633
-2.95697
-3.13673
-3.12787
-3.00746
-2.63428
-2.31106
-2.78653
-3.06397
-3.24256
-3.2494
-3.13395
-2.85989
-2.56219
-2.24475
-1.97928
-1.76248
-1.72139
-1.79152
-1.90063
-2.11489
-2.22446
-2.42781
-2.40761
-2.40012
-2.04356
-1.86354
-2.19382
-2.41
-2.53249
-2.50582
-2.47951
-2.21592
-2.03134
-1.71431
-1.49771
-1.37549
-1.28368
-1.31487
-1.44395
-1.67162
-1.79166
-1.89477
-1.8334
-1.86254
-1.65139
-1.36806
-1.77034
-1.90819
-1.97969
-2.03286
-1.8064
-1.75597
-1.50002
-1.32117
-1.1328
-0.997735
-0.962824
-0.983124
-1.0549
-1.24504
-1.30987
-1.43744
-1.46522
-1.39399
-1.27543
-1.0399
-1.23732
-1.32961
-1.47013
-1.50716
-1.47826
-1.21743
-1.15728
-0.999663
-0.770619
-0.680909
-0.609592
-0.720474
-0.679247
-0.959773
-1.00987
-0.96218
-1.13698
-1.04222
-0.877463
-0.733442
-0.830823
-0.932199
-1.03219
-1.07869
-0.972521
-0.909388
-0.791128
-0.649343
-0.569154
-0.418147
-0.404207
-0.466074
-0.557293
-0.643619
-0.673739
-0.70268
-0.71482
-0.68963
-0.542769
-0.509366
-0.548361
-0.582355
-0.643878
-0.618636
-0.562206
-0.473501
-0.461626
-0.351803
-0.297322
-0.257645
-0.265088
-0.218094
-0.273586
-0.25969
-0.385767
-0.41922
-0.406291
-0.477315
-0.308529
-0.260516
-0.149642
-0.177867
-0.213743
-0.0999231
-0.215399
-0.248288
-0.143821
-0.128665
-0.151248
-0.0663365
-0.0905483
-0.00460997
-0.0803433
-0.057115
-0.0907913
-0.113811
-0.140757
-0.115259
-0.0862604
-0.115183
-3.90233
-4.40717
-4.50782
-4.71867
-4.60248
-4.41192
-4.15328
-3.81715
-3.57572
-3.3426
-3.27384
-3.37318
-3.50731
-3.56538
-3.75879
-3.84228
-3.74844
-3.50315
-3.29791
-2.8107
-3.10793
-3.45865
-3.73101
-3.72554
-3.67248
-3.54495
-3.37459
-3.03855
-2.80748
-2.72795
-2.57132
-2.62192
-2.70238
-2.93196
-2.98967
-3.07789
-3.08047
-2.81379
-2.52997
-2.20597
-2.55883
-2.7439
-2.95588
-3.01608
-2.9774
-2.84161
-2.60525
-2.45104
-2.23139
-2.09047
-2.01289
-2.09
-2.09505
-2.27818
-2.33867
-2.45266
-2.31038
-2.27432
-1.98702
-1.69441
-2.00743
-2.16436
-2.34999
-2.37674
-2.34005
-2.2669
-2.05445
-1.90869
-1.66729
-1.53295
-1.55921
-1.5513
-1.65251
-1.71634
-1.78983
-1.89363
-1.82332
-1.73045
-1.49884
-1.26089
-1.47612
-1.65683
-1.69005
-1.75602
-1.73042
-1.71872
-1.4806
-1.33461
-1.26594
-1.09859
-1.20277
-1.19436
-1.15623
-1.26941
-1.3538
-1.33575
-1.33035
-1.27528
-1.09002
-0.956666
-1.02343
-1.17527
-1.20264
-1.22246
-1.2596
-1.09443
-1.05095
-0.974405
-0.860175
-0.798387
-0.708723
-0.764519
-0.826557
-0.850324
-0.923957
-0.929754
-0.980877
-0.860199
-0.695679
-0.648465
-0.590444
-0.613986
-0.708446
-0.819457
-0.683009
-0.64285
-0.594205
-0.520276
-0.528963
-0.497068
-0.460307
-0.47927
-0.425262
-0.542652
-0.541129
-0.604111
-0.508106
-0.455672
-0.433463
-0.394457
-0.20427
-0.208706
-0.18695
-0.191362
-0.283972
-0.236599
-0.206931
-0.207141
-0.170665
-0.168636
-0.187535
-0.181878
-0.174478
-0.127756
-0.189242
-0.190367
-0.208982
-0.201789
-0.168205
-0.113617
-4.16796
-4.63644
-4.91929
-5.19314
-5.17997
-5.06502
-4.83362
-4.57339
-4.40548
-4.19496
-4.12727
-4.16344
-4.19825
-4.3403
-4.41145
-4.35357
-4.26671
-3.95312
-3.48599
-2.97456
-3.36679
-3.80341
-4.04069
-4.22222
-4.16401
-4.05005
-3.88526
-3.7307
-3.53975
-3.42551
-3.27911
-3.27497
-3.36907
-3.44119
-3.53417
-3.50963
-3.46422
-3.21795
-2.88355
-2.43782
-2.70322
-3.03036
-3.24612
-3.36051
-3.33297
-3.27603
-3.0798
-2.89608
-2.79381
-2.72219
-2.58749
-2.6436
-2.68323
-2.76458
-2.80413
-2.81549
-2.73034
-2.50625
-2.25139
-1.8864
-2.11159
-2.3261
-2.55023
-2.64218
-2.64938
-2.56254
-2.5043
-2.25886
-2.20525
-1.985
-1.89657
-2.0055
-2.0806
-2.10314
-2.18898
-2.22022
-2.07004
-1.96944
-1.70359
-1.41768
-1.58593
-1.74523
-1.88956
-1.983
-2.02716
-1.89887
-1.81457
-1.72879
-1.59993
-1.52266
-1.50255
-1.4999
-1.47584
-1.56101
-1.56867
-1.6398
-1.60333
-1.42867
-1.26279
-1.07648
-1.1325
-1.24637
-1.2946
-1.40911
-1.37973
-1.40666
-1.35493
-1.15631
-1.17513
-1.00933
-1.018
-1.05955
-1.08093
-1.08768
-1.13668
-1.09928
-1.16278
-1.03364
-0.82897
-0.710183
-0.634315
-0.742786
-0.779914
-0.763525
-0.831138
-0.819501
-0.706898
-0.67817
-0.659887
-0.617157
-0.571317
-0.597559
-0.630351
-0.598706
-0.662666
-0.696396
-0.659504
-0.566066
-0.525735
-0.456469
-0.170249
-0.215505
-0.27999
-0.270629
-0.283537
-0.203123
-0.238821
-0.211802
-0.284507
-0.206361
-0.179078
-0.145819
-0.273715
-0.30169
-0.253966
-0.209338
-0.286224
-0.227348
-0.120326
-0.141144
-4.23938
-4.72834
-5.13971
-5.44522
-5.59742
-5.49396
-5.37098
-5.18376
-5.01825
-4.84009
-4.6821
-4.73161
-4.81788
-4.77124
-4.87615
-4.68776
-4.44071
-4.13554
-3.65188
-3.05972
-3.43504
-3.9076
-4.13781
-4.45149
-4.49944
-4.49631
-4.37118
-4.1577
-4.0187
-3.94335
-3.85094
-3.86542
-3.87724
-3.92813
-3.87958
-3.77385
-3.70631
-3.31544
-2.92776
-2.4631
-2.76322
-3.13691
-3.41565
-3.57894
-3.61045
-3.58963
-3.51802
-3.37573
-3.18468
-3.12051
-3.07022
-3.02897
-3.09083
-3.15736
-3.05758
-3.03421
-2.8806
-2.67046
-2.2336
-1.97312
-2.18384
-2.46515
-2.63589
-2.85072
-2.87227
-2.815
-2.75805
-2.55942
-2.51539
-2.49056
-2.32278
-2.36748
-2.44406
-2.45556
-2.35557
-2.33368
-2.24675
-2.00531
-1.75108
-1.45289
-1.59918
-1.8569
-2.00301
-2.12765
-2.10175
-2.10817
-2.02065
-1.98625
-1.88001
-1.77555
-1.80831
-1.81656
-1.81956
-1.857
-1.82276
-1.75549
-1.68817
-1.51391
-1.24836
-1.09796
-1.10762
-1.24194
-1.42695
-1.50003
-1.36106
-1.5555
-1.36204
-1.34757
-1.22498
-1.26453
-1.23725
-1.18813
-1.17161
-1.24911
-1.20533
-1.25473
-1.15583
-1.05295
-0.892902
-0.736596
-0.690281
-0.773969
-0.737036
-0.803666
-0.799405
-0.928818
-0.812211
-0.815955
-0.732339
-0.794137
-0.701612
-0.72629
-0.729138
-0.752296
-0.743859
-0.658882
-0.6855
-0.569911
-0.532545
-0.406097
-0.22939
-0.277088
-0.227855
-0.334757
-0.281508
-0.314591
-0.277097
-0.259991
-0.222476
-0.218922
-0.225221
-0.251453
-0.235527
-0.265205
-0.154226
-0.20504
-0.298845
-0.257601
-0.161189
-0.198507
-4.03918
-4.64718
-5.10281
-5.47315
-5.63427
-5.74813
-5.58587
-5.50014
-5.37026
-5.28101
-5.16801
-5.15709
-5.14767
-5.03044
-5.0172
-4.86898
-4.53503
-4.07151
-3.53343
-2.86914
-3.30535
-3.74339
-4.23224
-4.46695
-4.60784
-4.73771
-4.6115
-4.51361
-4.35779
-4.22286
-4.26423
-4.21037
-4.17517
-4.17406
-4.08896
-3.96812
-3.59275
-3.2521
-2.81488
-2.32926
-2.6382
-3.01071
-3.40265
-3.66451
-3.71544
-3.75251
-3.68074
-3.57977
-3.50088
-3.36124
-3.32978
-3.4295
-3.3131
-3.25338
-3.26282
-3.12925
-2.87669
-2.59518
-2.22099
-1.80784
-2.05903
-2.35627
-2.64512
-2.84918
-2.86483
-2.95496
-2.93901
-2.87045
-2.76764
-2.66119
-2.62817
-2.57702
-2.58913
-2.51981
-2.48738
-2.42304
-2.28812
-2.01515
-1.70695
-1.34658
-1.53639
-1.833
-1.95169
-2.11027
-2.18522
-2.21264
-2.15844
-2.15239
-2.02105
-1.98363
-1.99055
-1.98316
-1.95423
-1.87514
-1.90156
-1.82787
-1.69414
-1.5003
-1.22377
-0.957242
-1.05833
-1.17618
-1.37564
-1.46333
-1.52634
-1.54969
-1.52853
-1.49801
-1.47255
-1.38692
-1.28832
-1.31021
-1.41203
-1.29149
-1.34744
-1.26076
-1.12593
-1.02287
-0.886647
-0.730664
-0.65151
-0.718446
-0.811483
-0.852763
-0.969033
-0.957089
-0.949667
-0.872052
-0.800777
-0.835798
-0.795814
-0.775003
-0.82209
-0.703179
-0.763729
-0.776352
-0.696544
-0.569757
-0.542596
-0.392987
-0.210983
-0.230275
-0.247405
-0.326817
-0.286069
-0.330258
-0.259752
-0.268408
-0.255453
-0.281746
-0.256697
-0.211411
-0.266602
-0.316538
-0.198479
-0.306812
-0.246799
-0.193287
-0.158168
-0.172281
-3.66881
-4.30747
-4.86524
-5.33318
-5.56922
-5.69228
-5.69304
-5.56901
-5.50329
-5.37649
-5.36946
-5.30006
-5.18228
-5.13391
-5.0379
-4.78201
-4.34773
-3.81894
-3.16588
-2.409
-2.92569
-3.54374
-3.87704
-4.3105
-4.53592
-4.60432
-4.60476
-4.5961
-4.44376
-4.42647
-4.37944
-4.29513
-4.2363
-4.14943
-4.02969
-3.80484
-3.50133
-3.0033
-2.54704
-1.89912
-2.27413
-2.83266
-3.13901
-3.48462
-3.62166
-3.68505
-3.73481
-3.67254
-3.6731
-3.57046
-3.49906
-3.43944
-3.37868
-3.27603
-3.22754
-3.01324
-2.72792
-2.31587
-1.92388
-1.53425
-1.77503
-2.10016
-2.48426
-2.64412
-2.87062
-2.88992
-2.87371
-2.8176
-2.76819
-2.76145
-2.71167
-2.67959
-2.65822
-2.60081
-2.50159
-2.41433
-2.14962
-1.77635
-1.47765
-1.14982
-1.38339
-1.58677
-1.80736
-2.02565
-2.183
-2.26849
-2.1941
-2.1299
-2.12248
-2.12799
-1.9657
-2.01013
-1.98506
-1.94477
-1.91393
-1.80728
-1.63577
-1.36946
-1.09131
-0.879215
-0.974367
-1.17439
-1.27494
-1.40172
-1.46776
-1.57624
-1.52113
-1.4595
-1.45442
-1.43579
-1.46274
-1.38277
-1.37928
-1.33306
-1.2748
-1.23588
-1.17316
-0.900832
-0.733866
-0.561423
-0.557826
-0.637077
-0.748827
-0.838387
-0.828417
-0.864011
-0.913134
-0.819688
-0.917859
-0.853532
-0.8398
-0.834002
-0.819467
-0.781685
-0.757791
-0.746387
-0.608466
-0.54893
-0.380099
-0.341649
-0.257057
-0.287281
-0.318459
-0.29861
-0.282623
-0.325056
-0.293961
-0.314686
-0.295541
-0.232908
-0.301045
-0.300088
-0.260819
-0.248465
-0.253662
-0.236426
-0.21393
-0.13592
-0.160432
-0.135417
-3.12075
-3.76955
-4.34106
-4.84643
-5.12915
-5.3917
-5.47735
-5.49879
-5.47243
-5.39045
-5.3307
-5.23446
-5.02715
-4.89693
-4.71027
-4.38646
-3.96097
-3.36229
-2.5719
-1.88144
-2.44968
-2.99093
-3.42471
-3.92718
-4.26776
-4.33377
-4.50041
-4.49476
-4.38047
-4.36718
-4.37532
-4.21962
-4.07065
-3.97408
-3.83052
-3.47706
-3.14543
-2.57718
-1.96591
-1.4115
-1.95642
-2.30172
-2.79239
-3.1455
-3.32056
-3.48378
-3.56628
-3.51551
-3.55084
-3.45651
-3.477
-3.37243
-3.24999
-3.18033
-2.96962
-2.78405
-2.46101
-2.04499
-1.50797
-1.06526
-1.42888
-1.82475
-2.23913
-2.49732
-2.67864
-2.75856
-2.8124
-2.74891
-2.79339
-2.73712
-2.6471
-2.60978
-2.55936
-2.46338
-2.37193
-2.18355
-1.94044
-1.48724
-1.13154
-0.725131
-1.17143
-1.34083
-1.60459
-1.82506
-2.01439
-1.97089
-2.1
-2.07163
-2.07745
-2.09045
-2.00694
-1.86026
-1.88575
-1.79778
-1.65477
-1.57839
-1.47218
-1.17431
-0.84495
-0.525973
-0.672519
-0.943999
-1.10833
-1.27357
-1.37115
-1.41758
-1.4397
-1.46803
-1.42008
-1.45383
-1.3602
-1.40355
-1.32178
-1.33576
-1.20386
-1.11919
-0.957083
-0.823149
-0.547677
-0.352097
-0.478528
-0.598023
-0.688414
-0.712873
-0.860773
-0.843279
-0.900637
-0.885566
-0.774282
-0.822325
-0.83361
-0.817588
-0.775259
-0.762537
-0.72752
-0.637709
-0.520826
-0.40681
-0.303439
-0.233437
-0.111258
-0.170778
-0.187901
-0.25792
-0.376055
-0.221041
-0.217613
-0.3437
-0.273701
-0.219912
-0.332055
-0.2931
-0.265649
-0.213652
-0.296765
-0.143222
-0.187056
-0.167829
-0.062924
-0.0293944
-2.24666
-2.89047
-3.59585
-4.15992
-4.64726
-4.87236
-5.01139
-5.00819
-5.10899
-4.94184
-4.93465
-4.81542
-4.62247
-4.45319
-4.14903
-3.7527
-3.2302
-2.59138
-1.7825
-0.952806
-1.58978
-2.2406
-2.88753
-3.34446
-3.72743
-3.89654
-4.10385
-4.14228
-4.07491
-4.03144
-3.94875
-3.89293
-3.71445
-3.63021
-3.3965
-3.03771
-2.49493
-1.95783
-1.26016
-0.628695
-1.25719
-1.69841
-2.15069
-2.62703
-2.93674
-3.18475
-3.19078
-3.21624
-3.32889
-3.18012
-3.12526
-3.0605
-2.95734
-2.83665
-2.6172
-2.31872
-1.89633
-1.45224
-0.89181
-0.39784
-0.950455
-1.34001
-1.72223
-2.09206
-2.25324
-2.4369
-2.55678
-2.47969
-2.52329
-2.50584
-2.43029
-2.36416
-2.39566
-2.21975
-1.93978
-1.81068
-1.52992
-1.13453
-0.656853
-0.23371
-0.711528
-0.97776
-1.27361
-1.52365
-1.69885
-1.88566
-1.86852
-1.89754
-1.87108
-1.79136
-1.79157
-1.8634
-1.61033
-1.57075
-1.49636
-1.24884
-1.16975
-0.77747
-0.421137
-0.133084
-0.446977
-0.646854
-0.835447
-1.04426
-1.23169
-1.31286
-1.26381
-1.34628
-1.37096
-1.33014
-1.29852
-1.19838
-1.25627
-1.14264
-1.06094
-0.945743
-0.692337
-0.521852
-0.307212
-0.055761
-0.236174
-0.328909
-0.492089
-0.600169
-0.696712
-0.758621
-0.827426
-0.772608
-0.766569
-0.734355
-0.694088
-0.741446
-0.71556
-0.663962
-0.588268
-0.511299
-0.432006
-0.268657
-0.141123
-0.000771293
-0.0683483
-0.135663
-0.222008
-0.224328
-0.186735
-0.231237
-0.239681
-0.24713
-0.304094
-0.248734
-0.28792
-0.213731
-0.322272
-0.167027
-0.170642
-0.197902
-0.147203
-0.146729
-0.0399498
-0.000740379
-1.04394
-1.78661
-2.53192
-3.20915
-3.67032
-4.03564
-4.22257
-4.38681
-4.37146
-4.31736
-4.261
-4.15554
-3.99521
-3.72352
-3.36955
-2.85252
-2.31376
-1.54127
-0.736538
0.215059
-0.679862
-1.38303
-2.04141
-2.49943
-3.02129
-3.134
-3.41724
-3.51149
-3.50844
-3.50631
-3.37483
-3.33424
-3.16699
-2.98057
-2.59386
-2.21294
-1.69193
-1.03791
-0.344168
0.357126
-0.376928
-1.01767
-1.45842
-1.96798
-2.34995
-2.48876
-2.69478
-2.77114
-2.74271
-2.77202
-2.65776
-2.57369
-2.4473
-2.29549
-1.97172
-1.67075
-1.2934
-0.712886
-0.135741
0.414337
-0.281254
-0.640431
-1.08271
-1.42072
-1.71132
-1.9449
-2.03287
-2.09048
-2.13267
-2.05316
-2.05605
-2.00756
-1.89314
-1.72519
-1.49443
-1.1804
-0.954065
-0.45182
-0.0249833
0.465544
-0.110262
-0.491381
-0.776649
-1.02221
-1.28383
-1.52186
-1.51702
-1.53931
-1.62258
-1.58259
-1.50055
-1.46218
-1.42856
-1.31429
-1.10992
-0.835571
-0.603918
-0.352701
0.0437672
0.386379
-0.0205249
-0.286661
-0.483228
-0.697499
-0.962252
-1.0051
-1.00063
-1.15118
-1.09716
-1.03997
-1.03729
-1.01177
-0.943289
-0.83685
-0.704481
-0.530816
-0.375502
-0.244434
0.0855264
0.318937
-0.0174561
-0.123459
-0.289418
-0.444993
-0.463305
-0.53135
-0.659747
-0.611801
-0.642702
-0.645988
-0.547155
-0.567456
-0.582079
-0.45051
-0.410894
-0.308464
-0.284079
-0.0938099
0.0826971
0.18333
0.0887463
0.0350226
-0.129379
-0.112438
-0.0833253
-0.161232
-0.155282
-0.170192
-0.255103
-0.225856
-0.197994
-0.171782
-0.234772
-0.141824
-0.0914721
-0.114949
-0.0853076
0.00496031
0.0442812
0.0854959
0.376445
-0.433189
-1.28569
-1.98122
-2.55056
-2.90972
-3.15992
-3.3583
-3.45095
-3.45234
-3.33389
-3.2377
-3.00859
-2.6365
-2.28276
-1.70664
-1.00167
-0.200045
0.721589
1.53302
0.471651
-0.120366
-0.834489
-1.46444
-1.93764
-2.27803
-2.46056
-2.61525
-2.65565
-2.69779
-2.61847
-2.49764
-2.27798
-2.02833
-1.62202
-1.2098
-0.6931
-0.0318057
0.791643
1.53196
0.565147
-0.000730364
-0.568307
-1.09144
-1.362
-1.77492
-1.95626
-1.94122
-2.04116
-2.11268
-2.02412
-1.88149
-1.67516
-1.54846
-1.24707
-0.856602
-0.352789
0.203546
0.904992
1.4766
0.519173
0.171755
-0.312642
-0.708004
-1.02916
-1.28263
-1.4241
-1.50068
-1.52928
-1.57072
-1.47306
-1.3889
-1.28223
-1.12576
-0.949471
-0.527197
-0.165975
0.297403
0.809255
1.30253
0.497049
0.142867
-0.162102
-0.540075
-0.705534
-0.910292
-1.058
-1.12958
-1.14516
-1.16672
-1.09571
-0.999243
-0.902836
-0.849072
-0.575684
-0.349347
-0.0314153
0.328792
0.699461
1.06315
0.441341
0.133572
-0.0409046
-0.314917
-0.488075
-0.630607
-0.734848
-0.729358
-0.726776
-0.745968
-0.73444
-0.730546
-0.630358
-0.545146
-0.399455
-0.221881
-0.0144428
0.322782
0.554238
0.754438
0.25044
0.123427
-0.0413855
-0.188377
-0.282374
-0.309765
-0.424178
-0.459318
-0.416243
-0.44801
-0.433335
-0.411191
-0.385409
-0.293256
-0.25339
-0.130614
-0.0214475
0.171916
0.338524
0.528514
0.162103
0.0131052
-0.0171979
-0.0288898
-0.0840758
-0.0859622
-0.156917
-0.108071
-0.13297
-0.141478
-0.162745
-0.100551
-0.130459
-0.078419
-0.0595681
-0.0787669
-0.0565475
0.0359834
0.0986206
0.139203
2.01302
1.16527
0.2271
-0.494051
-1.15859
-1.50686
-1.94465
-2.07362
-2.24516
-2.236
-2.15884
-1.95455
-1.71429
-1.29243
-0.833247
-0.252698
0.337392
1.29626
2.27121
3.23321
1.98
1.2541
0.499301
-0.179805
-0.702779
-0.929566
-1.35632
-1.56326
-1.60437
-1.62971
-1.48912
-1.39836
-1.15647
-0.917053
-0.469412
-0.0260529
0.653704
1.35406
2.23581
3.03012
1.75486
1.20692
0.589808
0.0462006
-0.41873
-0.702912
-0.916257
-1.09539
-1.13798
-1.11902
-1.10121
-0.948386
-0.807831
-0.590592
-0.176416
0.261147
0.735099
1.40598
2.05418
2.72347
1.58194
1.08761
0.574833
0.113656
-0.175216
-0.479339
-0.652125
-0.781212
-0.819843
-0.761629
-0.709403
-0.729779
-0.54233
-0.351421
0.00259606
0.290131
0.70903
1.23795
1.80926
2.32507
1.33435
0.898707
0.553805
0.173642
-0.161282
-0.309297
-0.458859
-0.554298
-0.54244
-0.573786
-0.542738
-0.455657
-0.328296
-0.0915546
0.0705527
0.30726
0.573702
0.945084
1.46796
1.84606
0.969653
0.729448
0.378028
0.166306
0.0488761
-0.146334
-0.221982
-0.361995
-0.330841
-0.394466
-0.310836
-0.244202
-0.182652
-0.0832617
0.0400852
0.181974
0.48279
0.761266
1.14632
1.34442
0.596218
0.403196
0.296245
0.150565
-0.0694693
-0.0569108
-0.105437
-0.198591
-0.251941
-0.196198
-0.241192
-0.140148
-0.118413
0.0146113
-0.0114667
0.172342
0.32888
0.461682
0.676217
0.801154
0.165953
0.0915681
0.147802
0.00857594
0.0707575
0.0538673
0.0109054
-0.058006
-0.0380104
0.00401137
-0.0691298
-0.0391315
0.0444767
-0.024512
0.0226739
0.0822111
0.146437
0.139685
0.168826
0.246644
3.94328
3.03871
2.02405
1.22803
0.574879
0.112692
-0.282301
-0.574549
-0.734027
-0.713691
-0.578845
-0.386223
-0.168733
0.262589
0.805476
1.46261
2.19552
3.13509
4.19394
5.12262
3.6004
2.8251
2.11806
1.39133
0.851348
0.381826
0.0436499
-0.175242
-0.304579
-0.243561
-0.260481
-0.0906476
0.169956
0.513132
0.873217
1.52136
2.19427
2.90539
3.80204
4.63106
3.23454
2.55596
1.95133
1.31914
0.90111
0.547502
0.211628
0.0673673
-0.0133715
-0.0170843
0.037525
0.122805
0.39374
0.663523
1.00034
1.46891
2.06224
2.74191
3.45358
4.13636
2.76817
2.18289
1.68527
1.18956
0.766266
0.595756
0.281539
0.209057
0.150573
0.019521
0.120047
0.250792
0.357037
0.628075
0.947588
1.34232
1.73768
2.28763
2.84907
3.46724
2.17061
1.77326
1.4286
1.00789
0.699015
0.479276
0.435582
0.193543
0.159398
0.183766
0.233342
0.262922
0.35602
0.608199
0.799003
1.04223
1.49567
1.80962
2.32693
2.70599
1.61598
1.35785
0.999785
0.753949
0.501428
0.380787
0.270384
0.219812
0.122373
0.0958212
0.253796
0.21158
0.236518
0.458629
0.575943
0.861614
1.08089
1.37945
1.69527
1.95568
0.931791
0.758746
0.556759
0.479945
0.399861
0.207603
0.188818
0.146118
0.081161
0.0625189
0.155521
0.119664
0.133843
0.281102
0.409322
0.512197
0.659207
0.873818
1.02629
1.16035
0.351951
0.290164
0.197947
0.216965
0.124642
0.0929514
0.059745
0.0306571
0.0113568
0.0378199
0.00138436
0.0376726
0.0863263
0.0984365
0.0547674
0.127104
0.208402
0.317923
0.335454
0.336455
6.04785
5.11149
4.12043
3.26583
2.58517
1.97631
1.62303
1.25647
1.19998
1.09462
1.18744
1.4161
1.72715
2.0874
2.72354
3.4312
4.18129
5.18698
6.23329
7.2623
5.43283
4.6792
3.86912
3.13217
2.49254
2.01497
1.60871
1.39662
1.28296
1.15994
1.34152
1.5094
1.82846
2.08705
2.62382
3.18004
3.89799
4.78067
5.69472
6.39362
4.76796
4.12045
3.41962
2.80329
2.30439
1.93895
1.56158
1.38485
1.31195
1.2407
1.30656
1.50145
1.61967
1.99256
2.36069
2.88214
3.47432
4.25102
4.93999
5.64288
4.02099
3.44655
2.86589
2.44337
1.95742
1.71371
1.38821
1.30292
1.16382
1.14074
1.15804
1.30212
1.48569
1.74897
2.05515
2.48303
2.99687
3.57692
4.13988
4.68368
3.15701
2.70416
2.26556
1.9226
1.57681
1.36687
1.12525
1.01535
0.987314
0.99332
1.02576
1.15987
1.24644
1.46471
1.63553
1.97364
2.38003
2.79915
3.29041
3.70221
2.30118
1.98764
1.6271
1.42565
1.20617
0.983314
0.937358
0.787176
0.774764
0.768024
0.711435
0.856165
0.914595
1.05393
1.2701
1.46895
1.72618
2.06532
2.39782
2.71145
1.30597
1.20957
1.07017
0.89592
0.805626
0.553497
0.528881
0.527433
0.400565
0.504253
0.406489
0.552621
0.623836
0.616244
0.764499
0.948565
1.07019
1.24747
1.44792
1.66094
0.494975
0.403652
0.362235
0.279032
0.283518
0.193329
0.117182
0.172479
0.120512
0.132891
0.200376
0.122001
0.207456
0.256043
0.227304
0.287712
0.372397
0.426513
0.477853
0.579852
8.39283
7.39002
6.37845
5.46781
4.6807
4.0601
3.64707
3.36593
3.16887
3.16411
3.22353
3.4522
3.73299
4.16227
4.78416
5.57497
6.43545
7.43882
8.55025
9.61637
7.3918
6.56486
5.7255
5.06699
4.29493
3.85542
3.42587
3.22049
2.99722
3.00138
3.08027
3.19618
3.50887
3.91789
4.41575
4.9905
5.79889
6.66204
7.56973
8.48375
6.39034
5.76838
4.9671
4.38105
3.82737
3.39569
3.13302
2.88071
2.73578
2.74773
2.77942
2.94151
3.18165
3.4559
3.95633
4.48146
5.10043
5.8277
6.56007
7.30123
5.26026
4.77389
4.13044
3.66716
3.21976
2.9773
2.71215
2.44917
2.33957
2.25414
2.45446
2.51642
2.75655
2.91521
3.37237
3.81645
4.22356
4.84076
5.43735
6.04527
4.19846
3.7654
3.3225
2.91803
2.66273
2.2479
2.09684
2.08241
1.9621
1.86616
1.92329
1.98871
2.15143
2.39314
2.64695
2.9629
3.30495
3.79597
4.29116
4.73797
2.96721
2.69432
2.45135
2.15185
1.88824
1.66942
1.59074
1.5202
1.36818
1.43016
1.42052
1.4347
1.55276
1.72678
1.8525
2.18834
2.42507
2.72718
3.11644
3.37447
1.76681
1.60533
1.41199
1.27938
1.15012
1.01499
0.955
0.841154
0.839939
0.794069
0.897098
0.890651
0.980904
1.03183
1.17778
1.28398
1.45909
1.60766
1.94078
2.05431
0.601276
0.577254
0.470291
0.469894
0.376599
0.333988
0.392114
0.323381
0.353002
0.27943
0.24385
0.301827
0.334519
0.400708
0.382664
0.374579
0.472695
0.576731
0.66559
0.687768
10.644
9.62517
8.58703
7.70672
6.91712
6.26039
5.81232
5.49435
5.27779
5.25255
5.34327
5.54088
5.82326
6.31213
6.94234
7.73069
8.58593
9.6888
10.7943
11.8608
9.40328
8.61796
7.61944
6.89962
6.20683
5.58841
5.20216
4.94707
4.79825
4.74516
4.80343
4.93905
5.31225
5.66828
6.215
6.92885
7.72699
8.5242
9.57795
10.4231
7.98628
7.34618
6.6132
5.94725
5.37016
4.89255
4.57221
4.37585
4.19241
4.26273
4.26716
4.34959
4.5795
4.96952
5.44262
5.96205
6.57699
7.42262
8.22539
8.87623
6.63897
6.0942
5.47069
4.95882
4.46809
4.09976
3.84459
3.63006
3.49804
3.45694
3.55165
3.61837
3.87633
4.1447
4.5486
5.00278
5.48982
6.05098
6.76416
7.32082
5.18143
4.78957
4.31282
3.88875
3.51155
3.23825
3.00384
2.85396
2.79725
2.77961
2.87983
2.89392
3.12186
3.30387
3.58335
3.84305
4.30962
4.85753
5.32006
5.70665
3.71699
3.43056
3.10066
2.81125
2.56308
2.32809
2.17001
2.07572
2.01163
1.94847
2.04763
2.08581
2.29725
2.36531
2.58948
2.86039
3.1136
3.48547
3.80011
4.20741
2.25656
2.00696
1.8984
1.7146
1.54195
1.45764
1.22408
1.25781
1.29625
1.23649
1.19988
1.28025
1.36586
1.404
1.55097
1.71621
1.92482
2.10837
2.29613
2.45755
0.724969
0.689289
0.625435
0.554984
0.536623
0.461096
0.511129
0.446149
0.450809
0.446813
0.429698
0.469037
0.516392
0.573835
0.589916
0.579273
0.621208
0.691704
0.699093
0.835079
12.5457
11.5176
10.4636
9.52402
8.7053
8.00046
7.54196
7.2264
7.03914
6.99266
7.08817
7.27292
7.56283
8.12499
8.67705
9.53067
10.3903
11.4373
12.6499
13.7503
10.9259
10.0192
9.13248
8.28477
7.65811
7.13665
6.63286
6.36455
6.11935
6.16895
6.21299
6.36818
6.6518
7.06851
7.6811
8.29877
9.09363
10.0256
11.0556
11.9621
9.24481
8.57345
7.82109
7.02329
6.58019
6.08449
5.71613
5.38759
5.32962
5.29416
5.35304
5.56025
5.70564
6.04345
6.58898
7.05535
7.79036
8.61398
9.38023
10.0714
7.58331
7.00816
6.46424
5.8639
5.35972
5.06913
4.76684
4.47864
4.4651
4.39034
4.36962
4.54285
4.71513
5.08571
5.44115
5.77821
6.42582
7.03002
7.66681
8.36199
5.87907
5.4802
5.00587
4.62117
4.2209
3.9476
3.66859
3.55259
3.43424
3.45825
3.46506
3.6131
3.74965
3.94064
4.28588
4.55076
4.96627
5.50525
6.01437
6.466
4.25363
3.98582
3.56618
3.22079
3.07356
2.83155
2.67782
2.56718
2.49358
2.44593
2.49293
2.58594
2.65202
2.86057
3.04827
3.28731
3.56819
3.94278
4.24822
4.53606
2.54881
2.3856
2.20228
2.00998
1.83987
1.71509
1.59334
1.55264
1.50676
1.47652
1.50899
1.57534
1.65716
1.74387
1.84321
1.97273
2.10623
2.34736
2.63451
2.76697
0.896434
0.791339
0.743423
0.685279
0.630573
0.522358
0.564168
0.571658
0.507712
0.537904
0.510747
0.548768
0.475558
0.567371
0.572803
0.645813
0.770616
0.775216
0.892863
0.994777
)
;

boundaryField
{
    hotSide
    {
        type            calculated;
        value           nonuniform List<scalar> 
400
(
0.629369
-0.14181
-0.998475
-1.85712
-2.41139