/*--------------------------------*- C++ -*----------------------------------*\
| =========                 |                                                 |
| \\      /  F ield         | OpenFOAM: The Open Source CFD Toolbox           |
|  \\    /   O peration     | Version:  2212                                  |
|   \\  /    A nd           | Website:  www.openfoam.com                      |
|    \\/     M anipulation  |                                                 |
\*---------------------------------------------------------------------------*/
FoamFile
{
    version     2.0;
    format      ascii;
    arch        "LSB;label=32;scalar=64";
    class       volScalarField;
    location    "0";
    object      relativeErrorField;
}
// * * * * * * * * * * * * * * * * * * * * * * * * * * * * * * * * * * * * * //

dimensions      [0 0 0 1 0 0 0];

internalField   nonuniform List<scalar> 
3200
(
0.0157229
0.0156407
0.0157923
0.0159975
0.0164926
0.0170283
0.0177776
0.0182498
0.0185658
0.0190189
0.0187969
0.0185455
0.0180071
0.0173959
0.0164463
0.0159776
0.0151837
0.0147407
0.014364
0.0143381
0.0142658
0.01421
0.014203
0.0145256
0.0149834
0.0153425
0.0161153
0.0164483
0.0167732
0.0170415
0.0170452
0.0165942
0.0160967
0.0153974
0.0147247
0.0141326
0.0134355
0.0131921
0.0129792
0.0128239
0.0123749
0.0124617
0.0124946
0.0129051
0.0131167
0.0132613
0.0139729
0.0142802
0.0147144
0.0150044
0.0145936
0.014402
0.0140888
0.0132197
0.0128377
0.0122767
0.0117156
0.0115392
0.0113646
0.0111516
0.010479
0.0103421
0.01064
0.0107995
0.010915
0.0113458
0.0115124
0.0120179
0.0123285
0.0124893
0.0123413
0.0121805
0.0118909
0.0113794
0.0108199
0.0101054
0.00967989
0.00947283
0.00944269
0.00942165
0.00822202
0.00835835
0.00833014
0.00853629
0.00875273
0.00918385
0.00920678
0.00940491
0.00966424
0.00988479
0.00990495
0.00952368
0.00953315
0.00901604
0.00888015
0.00796914
0.00780774
0.00772848
0.0077105
0.00743307
0.00616456
0.0060917
0.00641059
0.00595115
0.00623377
0.0065407
0.00693299
0.00695517
0.00727152
0.00735464
0.00725914
0.00708774
0.00702474
0.00667714
0.00618629
0.00594431
0.00573226
0.00564522
0.00533955
0.00534971
0.00359734
0.00391978
0.00377093
0.00358024
0.00375645
0.00383577
0.00425472
0.00410984
0.00439345
0.00440168
0.00421171
0.00442961
0.00412218
0.00412981
0.00372323
0.00371837
0.00344611
0.00344585
0.00328136
0.0033848
0.00139873
0.00112268
0.00118534
0.00103066
0.00132639
0.00125378
0.00145948
0.00123807
0.00151507
0.00149299
0.00162168
0.0015942
0.00168516
0.00143615
0.00140929
0.001134
0.00109274
0.00113652
0.00113313
0.000966022
0.0138525
0.0139074
0.0139576
0.0141778
0.0145339
0.0150848
0.01581
0.0163098
0.0168027
0.0168704
0.0166632
0.0163592
0.0157794
0.0151608
0.0144273
0.0138133
0.0131415
0.0127132
0.0126837
0.0125779
0.0126158
0.0127176
0.0126015
0.0129284
0.0132289
0.0137645
0.014273
0.0147314
0.0151461
0.0150169
0.0150832
0.0148513
0.014455
0.0138495
0.0130592
0.0124182
0.0118071
0.0116255
0.01141
0.0114684
0.01111
0.011183
0.0112553
0.0114618
0.0117567
0.0122995
0.0126389
0.0130346
0.013264
0.013543
0.0134012
0.0131415
0.0125671
0.0120662
0.011564
0.010841
0.0103154
0.0100555
0.00990713
0.00993813
0.00946991
0.0096878
0.00969545
0.00975166
0.0100872
0.0104005
0.0108411
0.0111056
0.0111321
0.0114306
0.0112966
0.011108
0.0106693
0.0100504
0.00968855
0.0091313
0.00881378
0.00847395
0.00840423
0.00818245
0.00765504
0.00753973
0.00752769
0.00764202
0.00802222
0.00840635
0.00856054
0.00893693
0.00911924
0.00893907
0.00889801
0.00892081
0.00851147
0.0079691
0.00793959
0.00727017
0.00707554
0.00674279
0.00670384
0.00683938
0.00558889
0.00537717
0.00550532
0.00557421
0.00569881
0.00610235
0.0062847
0.00646875
0.00648518
0.00667834
0.00637214
0.00669565
0.00615558
0.0058383
0.00567781
0.00522175
0.00509847
0.00508116
0.00473497
0.00488653
0.00331149
0.00349592
0.0033174
0.00362468
0.00340969
0.00380371
0.00389476
0.00403363
0.00396178
0.00404865
0.0041816
0.00388829
0.00375882
0.00372858
0.00349337
0.00340455
0.00299872
0.00293342
0.00293775
0.00299322
0.00115162
0.00114202
0.0010966
0.0011113
0.00102117
0.00123636
0.00130268
0.00132059
0.00143197
0.00136794
0.00157432
0.00118799
0.00112545
0.00114285
0.0013457
0.00111562
0.00110711
0.00116031
0.000872359
0.000943186
0.0119115
0.0118845
0.0113069
0.011662
0.0122424
0.0126358
0.0133145
0.0135989
0.0140138
0.0140411
0.0140305
0.0136654
0.0131639
0.0125523
0.0117102
0.0112482
0.0106617
0.0105244
0.0106036
0.0105164
0.0109906
0.0105851
0.0106643
0.011123
0.0111464
0.0115419
0.0121114
0.0126087
0.0129031
0.01286
0.0127684
0.0124506
0.0121416
0.0114258
0.0110229
0.0102545
0.00979314
0.00963985
0.00953197
0.00959669
0.00983502
0.00955595
0.0096217
0.00997086
0.0100589
0.0103743
0.0106965
0.0111402
0.0114178
0.0115533
0.011655
0.0112598
0.0105284
0.0103692
0.00979155
0.0091354
0.00888606
0.00866581
0.00852419
0.0084779
0.00807313
0.00803301
0.00809481
0.00833688
0.00852474
0.00892645
0.00934346
0.00956806
0.00981283
0.00979009
0.0099301
0.00935314
0.00930028
0.00860377
0.00826486
0.00775501
0.00727856
0.00730333
0.00723587
0.00722416
0.00659961
0.00661739
0.00656769
0.00661339
0.00691921
0.00730823
0.00736723
0.00757691
0.00760011
0.00768161
0.00769547
0.00770056
0.0074185
0.00715677
0.00684722
0.00629963
0.00592399
0.00583801
0.00570056
0.00597884
0.00495084
0.00457857
0.00467871
0.00495228
0.00508881
0.00520909
0.00544767
0.00564911
0.00564528
0.00572812
0.00573545
0.00575614
0.00526547
0.00509992
0.00477375
0.004579
0.00434803
0.00410495
0.00402187
0.00423259
0.00316349
0.00285052
0.00294364
0.00310323
0.00301834
0.00330946
0.00336593
0.00328494
0.00343392
0.00350523
0.00351986
0.0034323
0.00335038
0.00316348
0.00289135
0.00299342
0.00285061
0.00230378
0.00255349
0.00265608
0.00093831
0.00122241
0.000906695
0.000783872
0.0011444
0.00128825
0.00102217
0.00117847
0.00115566
0.00111627
0.00125247
0.00125198
0.00108574
0.00122944
0.00112003
0.00109615
0.00107282
0.00102842
0.000724574
0.000830103
0.00999736
0.00962741
0.00945985
0.00946722
0.00973248
0.0102069
0.0103621
0.0111308
0.0112357
0.0115091
0.0114549
0.0110652
0.0105356
0.0100473
0.00934304
0.00905155
0.00826047
0.00793171
0.0078806
0.00834411
0.00906886
0.00912663
0.00894317
0.00891544
0.00913616
0.00946621
0.00970581
0.0102412
0.0107716
0.0105806
0.010384
0.0103473
0.00971678
0.00931724
0.00868487
0.00817905
0.00777194
0.00736585
0.00742758
0.00763297
0.00831369
0.00830099
0.00799307
0.00810867
0.00833333
0.00858101
0.00881555
0.00910152
0.00961552
0.00958855
0.00932045
0.00917472
0.0084666
0.00823092
0.00799226
0.00747741
0.00693208
0.00683866
0.00677986
0.00671177
0.00729279
0.00716862
0.00672879
0.00716024
0.00701511
0.00752877
0.00767303
0.00784409
0.00804791
0.00822534
0.00793543
0.00786039
0.0075467
0.00708953
0.0067298
0.00612232
0.00603254
0.00591449
0.00587821
0.00591483
0.00590982
0.00588099
0.00578342
0.00562461
0.00569317
0.00600697
0.00625707
0.00647013
0.00627296
0.00657089
0.00641469
0.00624388
0.0059514
0.00585171
0.00540201
0.00506273
0.00478948
0.00468592
0.00444829
0.00457365
0.00425548
0.00404769
0.00416094
0.00398102
0.00447852
0.00434967
0.00460921
0.0046982
0.00465041
0.00484153
0.00476128
0.00454712
0.00428563
0.00430645
0.00406866
0.00370785
0.00374469
0.00344994
0.00330416
0.00335917
0.00251249
0.00227968
0.00269295
0.0025467
0.00261032
0.00279614
0.00286765
0.00270338
0.00310048
0.00283241
0.00292252
0.00271471
0.00272955
0.00257174
0.00220655
0.00227323
0.00220152
0.00226821
0.00195237
0.00209791
0.000877443
0.000772025
0.000834295
0.000737679
0.000871279
0.000707347
0.00109547
0.000884763
0.00114555
0.000973658
0.000864045
0.000949885
0.000873363
0.000769565
0.000854092
0.000684759
0.000620244
0.000732065
0.000558732
0.00077121
0.00827769
0.00776243
0.00758868
0.00753027
0.00755266
0.00781883
0.00818532
0.00826973
0.00884862
0.00880199
0.00871615
0.00852261
0.00804743
0.00749456
0.00692983
0.00642345
0.00633532
0.00588332
0.00581545
0.00625635
0.00779678
0.00753643
0.00721022
0.00719188
0.00728168
0.00763292
0.00779144
0.00811915
0.00807855
0.00840576
0.0081947
0.00805081
0.00749531
0.00708762
0.00676387
0.00632457
0.00610273
0.00554153
0.00572573
0.00591199
0.00683006
0.00689925
0.00661842
0.00654371
0.00689384
0.00701595
0.00710142
0.00729301
0.00782608
0.00755505
0.00752174
0.00717445
0.0067559
0.00656212
0.00594435
0.00567261
0.00569306
0.00524907
0.00517853
0.0053993
0.00613662
0.00575867
0.00590159
0.00563606
0.00583292
0.00596374
0.00601459
0.00662303
0.00655298
0.00642983
0.00657535
0.006363
0.00591918
0.00550802
0.00525217
0.00474433
0.00466643
0.00463173
0.0044797
0.00470183
0.00495368
0.00474027
0.00446251
0.00466061
0.00445469
0.00477965
0.0052292
0.00514008
0.00534628
0.00525881
0.00536955
0.00499693
0.00484325
0.00445123
0.00437734
0.0039643
0.00374357
0.0034526
0.00383405
0.00377374
0.00371427
0.0034747
0.00343245
0.00355081
0.00336574
0.00344955
0.00368649
0.00369976
0.00389353
0.00390555
0.00399955
0.00364595
0.00348157
0.00338193
0.00323518
0.00285618
0.00295777
0.00275106
0.00273883
0.00287873
0.00225426
0.00225124
0.00208748
0.00193929
0.00197567
0.00234448
0.00253525
0.00262218
0.00273259
0.00234977
0.00241049
0.00234892
0.0022845
0.00221491
0.00201388
0.00189221
0.00174805
0.00175551
0.00156028
0.00162498
0.000730544
0.000804423
0.000773253
0.000910975
0.000828148
0.000919782
0.000803641
0.000728245
0.000696911
0.00109006
0.000830346
0.000754523
0.000552937
0.000693011
0.000689616
0.000469696
0.000511418
0.000448247
0.000608723
0.000590852
0.00684186
0.00625306
0.00577599
0.005777
0.0057526
0.00577626
0.00622849
0.00638116
0.00640686
0.00634985
0.00647645
0.00607199
0.00572854
0.00535968
0.00477187
0.00419049
0.00429927
0.00417841
0.00439847
0.00483825
0.00646331
0.00628086
0.00603948
0.00570238
0.00585512
0.00578146
0.00606101
0.00636319
0.00646187
0.00636129
0.00605263
0.00610006
0.00546994
0.00523079
0.0048369
0.00440687
0.00440442
0.00401411
0.00432568
0.00470547
0.00597772
0.00568908
0.00556847
0.00532617
0.00498745
0.00520612
0.00569438
0.00586181
0.00586672
0.00588745
0.00592847
0.00554628
0.00519412
0.00491021
0.00461719
0.0043843
0.00389121
0.00367574
0.00403402
0.00421359
0.00518039
0.00496121
0.00485667
0.00460578
0.00476251
0.00484329
0.00493313
0.00519642
0.005059
0.00508072
0.00503354
0.00493886
0.00446315
0.00413157
0.00381905
0.00392309
0.0035157
0.00340045
0.00354077
0.00373486
0.00430555
0.00379092
0.00391781
0.00371033
0.0039192
0.00376432
0.00409189
0.00434057
0.00443403
0.00423631
0.00424468
0.0039235
0.00375554
0.00346703
0.00337458
0.00307121
0.00311569
0.00264486
0.00289552
0.0029354
0.00292416
0.00273908
0.00302001
0.00270204
0.00297366
0.00294015
0.00309569
0.00327522
0.00282383
0.00303987
0.0029968
0.00281826
0.00273569
0.00270513
0.00235719
0.00218935
0.00227623
0.00193088
0.00218597
0.00239765
0.00210824
0.00170154
0.00177579
0.00174766
0.00195109
0.00176315
0.00192653
0.00206352
0.00202058
0.00198294
0.00190663
0.0018491
0.00163605
0.00154825
0.00147023
0.00131459
0.0013497
0.00117399
0.0012302
0.00147528
0.000709053
0.00071826
0.000729787
0.000672674
0.000566403
0.00078782
0.000772911
0.000394389
0.000533949
0.000795154
0.00068124
0.000954542
0.000612753
0.000465189
0.000501679
0.000535981
0.000635339
0.00041246
0.00056364
0.000391405
0.0060316
0.00522847
0.00484785
0.00422259
0.00399934
0.00406762
0.00417434
0.00410766
0.00433076
0.00452142
0.00463705
0.00429949
0.00381401
0.00329011
0.00303736
0.00270671
0.00265531
0.00288665
0.00320364
0.00360193
0.00557425
0.00516415
0.00486536
0.0043797
0.00430354
0.00432787
0.00444657
0.00450504
0.00441912
0.00471244
0.00451107
0.00422435
0.00398792
0.00376901
0.00315255
0.00306591
0.00287385
0.00291542
0.00303909
0.00362819
0.00512638
0.00484326
0.00445323
0.00425214
0.00441938
0.00405647
0.00409725
0.0045605
0.00437982
0.00433381
0.0044619
0.00432628
0.00379631
0.00357963
0.00311137
0.0030173
0.00258799
0.0028472
0.00316929
0.00331051
0.00463344
0.00424003
0.00394398
0.00376519
0.00366595
0.00380618
0.00391132
0.00402067
0.00398848
0.00397444
0.00393993
0.0036439
0.00336041
0.00306902
0.00276056
0.00284772
0.00262967
0.00232152
0.0026471
0.00281009
0.00385194
0.00356677
0.00338861
0.00286834
0.00326405
0.00339427
0.00313936
0.00321942
0.00317637
0.00343394
0.00310349
0.00302656
0.00279578
0.00250067
0.00252847
0.00215693
0.00187566
0.00210464
0.00213108
0.00237894
0.00269617
0.00271759
0.00246353
0.00243711
0.00232232
0.00226346
0.00240076
0.00248062
0.00261411
0.00247221
0.00255799
0.00227994
0.0021367
0.00176536
0.00197324
0.00157735
0.00165403
0.00163876
0.00159172
0.0018411
0.0016101
0.00145519
0.00155618
0.0013925
0.00154684
0.00135424
0.00157215
0.00156325
0.00155144
0.00166757
0.00143626
0.00124656
0.00147642
0.00113949
0.00125732
0.000957675
0.000977524
0.00110649
0.000982498
0.00106426
0.000489631
0.000431587
0.000516356
0.000511004
0.000609831
0.000683621
0.000406523
0.00055808
0.000222672
0.000537662
0.000559579
0.000397881
0.000572791
0.000538624
0.000324346
0.000437694
0.000288976
0.000516847
0.000264708
0.000315404
0.00507994
0.0044012
0.00378418
0.00327246
0.00324818
0.0031047
0.00300049
0.0027773
0.00274941
0.00298814
0.00265473
0.00250824
0.00226021
0.001607
0.00174306
0.00159472
0.00141265
0.00151922
0.00209265
0.00247711
0.00524111
0.0046336
0.00395011
0.00356167
0.00347484
0.0032203
0.00298017
0.00301813
0.0033522
0.00312411
0.00303034
0.00293854
0.00259133
0.0020911
0.00210137
0.00178606
0.0016755
0.00186542
0.0023457
0.00272269
0.00472806
0.00438536
0.00383888
0.00362408
0.0033174
0.00313808
0.00324672
0.00308027
0.00339352
0.00304143
0.00310734
0.0027295
0.00268945
0.00230471
0.0020904
0.00200629
0.00187152
0.00217652
0.00193549
0.00265204
0.00411851
0.00356674
0.00349015
0.00304194
0.00301184
0.00308631
0.00292186
0.00315323
0.00287008
0.00287761
0.00272527
0.00259066
0.00213473
0.00225498
0.00213825
0.00202561
0.00165905
0.00195352
0.00194958
0.00217705
0.00354936
0.00282957
0.00279592
0.00253724
0.00251093
0.00258631
0.00242149
0.00242811
0.00246126
0.00242489
0.00237178
0.00239722
0.00209052
0.00171037
0.00183348
0.0016257
0.00190524
0.00168806
0.00168952
0.00202379
0.00225796
0.00222075
0.00217446
0.0018879
0.00210174
0.00169958
0.00202462
0.00186824
0.00212399
0.0016091
0.00175989
0.00167268
0.00143427
0.00152175
0.00119172
0.00137928
0.00123382
0.00112459
0.00140759
0.00137492
0.00159034
0.00153114
0.00156476
0.00129407
0.00115338
0.00100612
0.00128888
0.00106582
0.00128897
0.000844188
0.00107935
0.000993607
0.00108285
0.000891125
0.000848893
0.000706795
0.000745042
0.000711506
0.000828884
0.000931804
0.000410083
0.00017708
0.000504128
0.000297745
0.000426788
0.000593008
0.000468233
0.000464905
0.000418869
0.000552777
0.000454051
9.97373e-05
0.000252954
0.000142543
0.000366743
0.000373204
0.000212198
0.000105366
0.000382046
0.000265768
0.00483378
0.00404868
0.00332043
0.00272245
0.00210115
0.00217176
0.00181767
0.00163425
0.0014494
0.00154434
0.00139584
0.00133305
0.00116429
0.000833827
0.000640499
0.000411551
0.000772296
0.00115318
0.00150025
0.00214962
0.00477963
0.0042074
0.00360361
0.00310964
0.00265104
0.00239775
0.00232068
0.00219657
0.00219558
0.00171956
0.00187293
0.00167442
0.00161583
0.00128986
0.00106782
0.00106345
0.00104677
0.00140314
0.00156299
0.00236641
0.00440719
0.00398098
0.00355816
0.00297031
0.0029384
0.00251254
0.00260801
0.00246244
0.00225965
0.00214036
0.00235071
0.00193923
0.00178632
0.0013574
0.00127908
0.00112667
0.00130938
0.00133807
0.00177888
0.00231821
0.0039984
0.00355373
0.0031106
0.00263926
0.00260356
0.00262257
0.00239991
0.00238099
0.0021968
0.00225535
0.0019067
0.00202271
0.00175644
0.00168337
0.00129336
0.00127358
0.00112918
0.0013444
0.0018631
0.00211274
0.00333934
0.00281613
0.00266876
0.00245463
0.00228355
0.00211964
0.00211478
0.00186525
0.00187566
0.00162681
0.00179672
0.00173741
0.00144985
0.00133484
0.00125458
0.0013167
0.00112623
0.0011974
0.00157448
0.00174529
0.00250188
0.0023082
0.00212393
0.00173751
0.00171081
0.00169716
0.00161904
0.00162736
0.00138245
0.00151859
0.00125486
0.00116689
0.00123728
0.00114911
0.000917583
0.000924236
0.00112148
0.000965021
0.00118544
0.00133712
0.00150793
0.00144518
0.00127397
0.00117442
0.00111047
0.00097731
0.000843038
0.000888783
0.00083298
0.000996628
0.000611964
0.000536624
0.000760394
0.000728459
0.000505283
0.00038153
0.000548259
0.000486724
0.000727065
0.000884242
0.000830048
0.000444936
0.000242782
0.000443486
0.0002499
0.000304534
0.000291014
0.00026433
0.000431756
0.000479939
0.00042518
0.000161024
0.000188749
0.000190246
0.00010287
0.000329787
0.000308888
0.000125703
6.15715e-05
0.000338458
0.00504497
0.00415308
0.00322253
0.00230826
0.00176965
0.00137955
0.0011096
0.00106264
0.000999134
0.000776535
0.000766957
0.00024667
0.00014679
5.95425e-05
0.000115533
8.88475e-05
0.000344184
0.000643913
0.00123746
0.00196954
0.00500209
0.004258
0.00342625
0.00282431
0.00232713
0.00202668
0.00179413
0.00155968
0.00122747
0.00158358
0.0012723
0.00103437
0.000785211
0.000629687
0.000544172
0.000686833
0.000780478
0.000992322
0.0018652
0.00206029
0.004545
0.00405612
0.00321489
0.00285648
0.00243991
0.0021895
0.00192671
0.00179498
0.0016597
0.00151855
0.00149337
0.00129346
0.00110523
0.000977563
0.000762577
0.000655401
0.000918358
0.00128504
0.00149591
0.00215118
0.00405538
0.00342332
0.00313595
0.00261929
0.00249384
0.00192504
0.00211292
0.00198097
0.00153302
0.00165533
0.00139601
0.00136378
0.00119373
0.000866357
0.000803368
0.000740888
0.000851405
0.00154056
0.00172557
0.00220288
0.00334766
0.00287633
0.00254696
0.00214117
0.00203817
0.001888
0.0018124
0.00150191
0.00151392
0.00139627
0.00104583
0.00121677
0.000970146
0.00119644
0.00090738
0.000911254
0.000847383
0.00108882
0.0012128
0.00193323
0.00250646
0.00210553
0.00187541
0.00169029
0.00142906
0.00145822
0.00113043
0.00124934
0.00113755
0.00105736
0.00122781
0.00115691
0.00110081
0.000659508
0.000795834
0.000745897
0.000891081
0.000894915
0.00110122
0.00116478
0.00166783
0.00132087
0.00111224
0.00104758
0.000949169
0.000786276
0.000773495
0.000636245
0.000613976
0.000800473
0.000608732
0.000842782
0.000723313
0.000449275
0.000267139
0.000373113
0.000476033
0.000578321
0.000758119
0.000587338
0.000688904
0.000526037
0.000127326
0.000493655
0.00051078
0.000261114
0.00056754
0.000285737
0.000338208
0.000259211
0.000258516
0.000201461
0.000179461
0.000117498
0.000276346
0.000156984
0.000246107
0.000280818
0.000212809
0.000423925
0.00565976
0.00461365
0.00352788
0.00262733
0.00220663
0.00142705
0.00103609
0.000819623
0.000635169
0.000182927
0.000220823
1.19525e-05
3.19605e-05
8.71068e-05
0.000103487
2.0251e-05
0.000194811
0.000937803
0.00177887
0.00273646
0.0055806
0.00494753
0.00390404
0.00281457
0.00246631
0.00202771
0.00145317
0.00142008
0.00120078
0.00111207
0.000846414
0.000747301
0.000628866
0.000320922
0.00053591
0.000577897
0.000861855
0.00120843
0.00198459
0.00267096
0.00510676
0.00431903
0.00374031
0.00289247
0.00228445
0.00235097
0.00172918
0.00172694
0.00131653
0.00116396
0.000872695
0.00112263
0.000972156
0.000756851
0.000754891
0.000717882
0.0010879
0.00144639
0.00187876
0.00256532
0.00451557
0.00377046
0.00329629
0.00288601
0.00231414
0.00214144
0.00190346
0.00169434
0.00143208
0.00133762
0.00127623
0.000924922
0.00096037
0.000864391
0.000676125
0.00076821
0.00105213
0.00132634
0.00171766
0.00214876
0.00354363
0.00328512
0.00269146
0.00247905
0.00206366
0.00168265
0.00162584
0.00153869
0.00134207
0.00145407
0.00131202
0.000949422
0.000972755
0.000646243
0.000959926
0.00102891
0.000910633
0.00138547
0.00141539
0.001933
0.00277535
0.00236898
0.00192983
0.00185254
0.00164915
0.00129056
0.00115442
0.00117321
0.000876723
0.00102247
0.000908302
0.000926281
0.00084395
0.000745688
0.00064386
0.000782857
0.000870133
0.000925873
0.00110026
0.00129651
0.00168831
0.00147446
0.00119384
0.00106073
0.00104532
0.000752451
0.000736249
0.000935487
0.000735986
0.000531001
0.000513724
0.000688582
0.000617421
0.000653934
0.000225392
0.000730234
0.000554666
0.000544045
0.000905025
0.000948064
0.000508585
0.000253212
0.000606802
0.000339689
0.00019573
0.000211872
0.000204277
0.000180649
0.000230986
3.66075e-05
0.000284954
0.000255493
5.40126e-05
0.000391035
4.87348e-05
1.25334e-05
0.000273574
0.000219354
0.000355189
0.000338523
0.00657055
0.00561018
0.00450387
0.00332012
0.00241896
0.00192837
0.00141385
0.000940189
0.000789222
0.000716312
0.000341267
0.000323797
0.000139221
7.45171e-06
0.000221546
0.000455327
0.000758267
0.00163506
0.00247704
0.00347722
0.00654189
0.00542236
0.00434333
0.00346168
0.00291955
0.00247922
0.00193152
0.00125552
0.00151761
0.00107552
0.000934603
0.000734666
0.000547317
0.000680485
0.000584898
0.000948225
0.00149877
0.00175839
0.00273418
0.00335284
0.00593082
0.00487012
0.00423468
0.00339941
0.00303822
0.00229981
0.00202959
0.00162019
0.0015969
0.00129879
0.00131817
0.00119447
0.000951446
0.000780982
0.000808238
0.00137995
0.00152306
0.00178184
0.00253701
0.00321043
0.00501199
0.004385
0.00370786
0.00302128
0.00253531
0.00242858
0.00205395
0.00176912
0.001843
0.00144791
0.001456
0.00134839
0.00107314
0.00092078
0.0010055
0.00140217
0.00143903
0.00171446
0.00241958
0.00289476
0.00398834
0.00367039
0.00321239
0.00248155
0.00225774
0.00209823
0.00171363
0.00146594
0.00123465
0.00131738
0.00105786
0.00111295
0.000959709
0.000888019
0.000980254
0.00104713
0.00117787
0.00151701
0.00180167
0.00224119
0.00315867
0.00255076
0.00235086
0.00203704
0.00163052
0.00159164
0.00127665
0.00120714
0.0012362
0.00111197
0.00107382
0.000769526
0.000773249
0.000627946
0.000658061
0.000883579
0.000779465
0.00114926
0.00143735
0.0018447
0.0019636
0.00177318
0.00133714
0.00124348
0.000959282
0.00108404
0.00101207
0.000510157
0.000643266
0.000773212
0.000443964
0.000619677
0.000619939
0.000469347
0.000599223
0.000614957
0.000478831
0.000770868
0.000913334
0.000961225
0.000664376
0.000651722
0.000452453
0.00052312
0.000161217
0.000250059
0.00015342
0.000256455
0.000252729
0.000319261
4.41931e-05
0.00021417
0.000471043
0.000160364
0.000260166
6.19555e-05
0.00024665
0.00049643
0.000221837
0.000626452
0.0080203
0.00692333
0.00567941
0.00445732
0.00371358
0.00272746
0.00203859
0.00173464
0.00140312
0.001333
0.00102096
0.000873779
0.000868271
0.000694599
0.00101569
0.00141454
0.00185846
0.00281989
0.00375124
0.00490164
0.00755148
0.00654149
0.00571371
0.0044019
0.00370247
0.00323193
0.00258466
0.00223934
0.00182098
0.00160699
0.0014916
0.00136936
0.0013632
0.0011319
0.00158961
0.00181208
0.00202879
0.0029011
0.00369697
0.00445111
0.00684901
0.00608861
0.00517423
0.00426753
0.00375788
0.00297282
0.00276376
0.00205184
0.00198856
0.00168913
0.00144258
0.00175354
0.0015518
0.00145752
0.00161818
0.00170762
0.00236528
0.00265834
0.00365262
0.00408596
0.00606392
0.00526187
0.00470004
0.00387483
0.00337469
0.00266343
0.00258866
0.00205845
0.00193831
0.00178489
0.0015385
0.00133642
0.00131744
0.00147548
0.00145853
0.00170551
0.00199827
0.00238219
0.00305881
0.00347543
0.0049716
0.00415842
0.00372778
0.0030598
0.00279194
0.00259516
0.00188894
0.00181082
0.00160996
0.00128722
0.00152733
0.001398
0.00125436
0.00102302
0.00116864
0.00143928
0.00153
0.00227927
0.00237681
0.00294521
0.00336287
0.00305739
0.002851
0.0022493
0.00205001
0.00169255
0.00174622
0.0012697
0.00126527
0.0011392
0.00118862
0.000985352
0.000908247
0.00118244
0.00087454
0.00109695
0.00157721
0.00154399
0.0018488
0.00241038
0.00202775
0.00199994
0.00176045
0.00137476
0.00130383
0.00115045
0.00114458
0.00119419
0.000830744
0.00083603
0.000475288
0.000792135
0.000476452
0.000517126
0.000672574
0.000753947
0.000701684
0.00100133
0.00115299
0.00140951
0.00083095
0.000693233
0.000737257
0.000201528
0.000342387
0.000487883
0.000395606
0.000344791
0.000156624
0.000201584
0.000191988
0.000230381
0.000237522
0.000165915
8.87787e-05
0.000436181
0.000378228
0.000481425
0.000466216
0.000479693
0.0102665
0.00879339
0.00747964
0.00617581
0.00510607
0.00418108
0.00363477
0.00307598
0.00262272
0.00252457
0.00219567
0.00204797
0.00188512
0.00188492
0.00221182
0.00292074
0.00326603
0.00438858
0.00562608
0.00660893
0.00941866
0.00822597
0.00705981
0.00597064
0.00493615
0.00413313
0.00383757
0.00329416
0.00301885
0.00251935
0.00233246
0.00240366
0.00223104
0.00240777
0.00255334
0.00306957
0.00352133
0.00422315
0.00503307
0.00600057
0.00842535
0.00745354
0.00659046
0.0056173
0.00474164
0.00413632
0.00367155
0.00303566
0.00306997
0.00271117
0.00244418
0.00229516
0.00238917
0.00221156
0.00258178
0.00276345
0.00325391
0.00398852
0.00466317
0.00538668
0.0072266
0.00643148
0.00547787
0.00483026
0.00418494
0.00367167
0.00324949
0.00300164
0.00293291
0.00235693
0.00221015
0.0022145
0.00219006
0.00211228
0.00233537
0.00241022
0.00285661
0.00350856
0.00400325
0.00447735
0.0058242
0.0053957
0.00464985
0.00396937
0.00322284
0.0030159
0.00280219
0.00255469
0.00206534
0.00207216
0.00198852
0.00181371
0.00181093
0.00153971
0.00198808
0.00204663
0.0023116
0.00264286
0.00328375
0.00343762
0.00429414
0.00379824
0.00338825
0.00305012
0.00254624
0.00233027
0.00225399
0.00176583
0.00172268
0.00130287
0.00154558
0.00154726
0.00135922
0.00145996
0.00119648
0.00161482
0.0017381
0.00209293
0.0025136
0.00296119
0.00282063
0.00238816
0.00210109
0.00199698
0.00167075
0.00129088
0.00132106
0.0011069
0.00104114
0.000998041
0.000823079
0.000935555
0.000938377
0.000850108
0.000968458
0.000888316
0.00132165
0.00114743
0.00149772
0.00183352
0.000842497
0.000718863
0.000499356
0.000781395
0.000470531
0.000573964
0.000618969
0.000246311
0.000347943
0.000316674
0.000150065
0.00053691
0.000231376
0.000515989
0.000390579
0.000313808
0.000334142
0.000379093
0.000560284
0.000712602
0.012602
0.0111698
0.00965216
0.00833281
0.00725751
0.00616417
0.00538648
0.0046604
0.00438653
0.00398447
0.00355628
0.00345256
0.0035321
0.00387897
0.00413561
0.004864
0.00545566
0.00632039
0.00769648
0.00886266
0.0116364
0.010426
0.00901943
0.00769143
0.00689295
0.00600747
0.00548885
0.0046126
0.00435517
0.00408311
0.0038185
0.00378692
0.00376127
0.00394321
0.00412825
0.0046035
0.00511052
0.00606162
0.00690433
0.00814978
0.0103258
0.00924115
0.00796789
0.00708295
0.00616438
0.0056852
0.00488085
0.00468298
0.00403358
0.00395865
0.00349871
0.00347915
0.00362285
0.00368763
0.00396386
0.00437913
0.00478683
0.00530269
0.00633464
0.00703172
0.00873143
0.0078393
0.00699927
0.00611495
0.00538891
0.00476134
0.00429253
0.00393913
0.00372802
0.00354109
0.00322899
0.0032656
0.00310504
0.00330668
0.00338881
0.00363301
0.00432964
0.00471471
0.00541131
0.00611201
0.00681242
0.00619301
0.00556596
0.00487828
0.00449574
0.00417165
0.00358203
0.00338528
0.00305968
0.00253755
0.00273317
0.00256109
0.00258617
0.00278753
0.00286946
0.00300063
0.00330424
0.00369047
0.00423756
0.00477676
0.00525196
0.00450398
0.00399696
0.00361042
0.00344828
0.00304953
0.0026768
0.00239106
0.00221522
0.00227883
0.00209972
0.00210092
0.0020051
0.00211402
0.00208924
0.00215208
0.00255067
0.00305276
0.00326131
0.00354623
0.00323618
0.00270413
0.00251891
0.00228104
0.00222444
0.00200031
0.00200007
0.00177573
0.00140052
0.00139536
0.00130209
0.00143642
0.00148987
0.00138496
0.00133518
0.0013029
0.00159994
0.00172975
0.00183684
0.00213805
0.000855142
0.000849634
0.000902537
0.000939066
0.00062563
0.00066717
0.000587549
0.000447149
0.000618896
0.000438896
0.000548788
0.0004836
0.00080412
0.000295366
0.000297109
0.000483706
0.000795807
0.000726222
0.000626466
0.000772379
0.0154084
0.0139057
0.0124736
0.0108774
0.00956334
0.00864576
0.00761827
0.00714426
0.00641031
0.00594758
0.00585832
0.00577165
0.00585108
0.00589855
0.00628788
0.0071534
0.00796896
0.00909572
0.0102785
0.0115194
0.0141057
0.0126751
0.0114938
0.0101236
0.00928199
0.00817884
0.00736607
0.00685927
0.00625808
0.00583603
0.0056821
0.00557522
0.00557936
0.00575961
0.00606974
0.00669908
0.00747929
0.00823681
0.00949672
0.0104015
0.0124619
0.0112449
0.0101626
0.00907118
0.00808719
0.00729844
0.00681023
0.00600551
0.00573435
0.0053506
0.00539412
0.00510176
0.00519903
0.00513477
0.00567302
0.0059909
0.00658016
0.00743681
0.00842473
0.00922281
0.010311
0.00958898
0.00867772
0.00779781
0.00688737
0.00627529
0.00574195
0.00524182
0.00508843
0.0047313
0.00470467
0.00456346
0.00457248
0.00473869
0.00483553
0.00502707
0.00553358
0.00617727
0.00714225
0.00769672
0.00841146
0.00772247
0.00673925
0.00606741
0.0057237
0.0050413
0.00454455
0.00435512
0.0041442
0.00394424
0.00380269
0.00365267
0.00348933
0.00381289
0.0038117
0.00417084
0.00464745
0.00495426
0.00582024
0.006166
0.00612297
0.00548818
0.00498587
0.00458139
0.00421749
0.00387111
0.00318023
0.00334067
0.00325714
0.00303509
0.00264047
0.00280073
0.00267525
0.00268825
0.00290779
0.00312214
0.00344439
0.0037034
0.00402384
0.00436141
0.00374707
0.00350666
0.00319638
0.00284638
0.00252663
0.00225814
0.0022471
0.00194931
0.00180831
0.00192425
0.00178711
0.00184572
0.00170709
0.00166581
0.00176054
0.00197254
0.00236375
0.0022087
0.00257773
0.00267796
0.00118456
0.000906927
0.000892353
0.00102702
0.00106527
0.000831509
0.00075131
0.000699148
0.000684869
0.000370056
0.000758228
0.00056319
0.000636091
0.000468493
0.000824314
0.000598621
0.000780528
0.000741865
0.000827144
0.000842848
0.0185781
0.0173236
0.0153818
0.0139989
0.0125274
0.0114877
0.0106966
0.0100303
0.00901485
0.00888784
0.00842844
0.00844651
0.00858893
0.00861263
0.00928384
0.00990846
0.0108254
0.0120304
0.0134978
0.0148607
0.0167061
0.0155535
0.0141305
0.0127021
0.0116335
0.0105569
0.00974491
0.00902976
0.00862825
0.00823034
0.00812209
0.00798811
0.00772896
0.00818093
0.00858961
0.00886832
0.00987647
0.0109599
0.0120307
0.0132924
0.0146523
0.0135191
0.0125146
0.0111879
0.0100872
0.0094937
0.00862833
0.00782209
0.00765978
0.00726675
0.00729433
0.00686562
0.00732739
0.00723937
0.00777013
0.00795239
0.00886404
0.00960788
0.0107997
0.0114959
0.0124492
0.0116158
0.0105602
0.00961883
0.00887535
0.00813674
0.00733803
0.00712524
0.00660988
0.00634383
0.00625944
0.00606339
0.00633344
0.00622772
0.00642749
0.00684432
0.00751414
0.00798506
0.00894958
0.0096033
0.0100868
0.00922082
0.0082655
0.00763891
0.00715091
0.0065793
0.0060697
0.00571644
0.00533452
0.0052054