/*--------------------------------*- C++ -*----------------------------------*\
| =========                 |                                                 |
| \\      /  F ield         | OpenFOAM: The Open Source CFD Toolbox           |
|  \\    /   O peration     | Version:  2212                                  |
|   \\  /    A nd           | Website:  www.openfoam.com                      |
|    \\/     M anipulation  |                                                 |
\*---------------------------------------------------------------------------*/
FoamFile
{
    version     2.0;
    format      ascii;
    arch        "LSB;label=32;scalar=64";
    class       volScalarField;
    location    "0";
    object      stateMean;
}
// * * * * * * * * * * * * * * * * * * * * * * * * * * * * * * * * * * * * * //

dimensions      [0 0 0 1 0 0 0];

internalField   nonuniform List<scalar> 
3200
(
321.552
321.887
322.234
322.597
322.879
323.138
323.294
323.477
323.619
323.6
323.673
323.626
323.557
323.419
323.329
323.048
322.864
322.578
322.305
322.004
318.432
318.713
319.056
319.325
319.561
319.822
319.919
320.104
320.211
320.236
320.235
320.27
320.218
320.152
320.022
319.837
319.678
319.383
319.111
318.897
315.479
315.67
315.947
316.132
316.39
316.662
316.729
316.877
316.918
316.92
317.053
317.019
316.939
316.971
316.798
316.659
316.513
316.253
316.02
315.87
312.547
312.767
312.908
313.116
313.346
313.471
313.659
313.701
313.751
313.778
313.825
313.798
313.741
313.701
313.637
313.603
313.47
313.277
313.051
312.881
309.74
309.833
310.026
310.163
310.303
310.371
310.551
310.648
310.681
310.672
310.666
310.725
310.607
310.611
310.466
310.548
310.39
310.214
310.036
309.987
306.878
306.996
307.028
307.315
307.376
307.427
307.44
307.546
307.53
307.547
307.577
307.587
307.524
307.519
307.537
307.465
307.383
307.265
307.229
307.129
304.171
304.129
304.253
304.398
304.434
304.498
304.45
304.563
304.525
304.55
304.608
304.514
304.559
304.488
304.532
304.446
304.439
304.353
304.324
304.236
301.343
301.445
301.453
301.529
301.47
301.521
301.486
301.576
301.509
301.524
301.485
301.485
301.441
301.493
301.475
301.528
301.51
301.468
301.442
301.473
322.255
322.545
322.922
323.277
323.6
323.851
324.01
324.18
324.261
324.368
324.436
324.408
324.355
324.224
324.067
323.837
323.617
323.33
322.945
322.672
319.045
319.273
319.65
319.915
320.198
320.398
320.577
320.718
320.793
320.948
320.926
320.89
320.808
320.715
320.627
320.461
320.278
319.965
319.696
319.415
315.95
316.144
316.407
316.654
316.883
317.025
317.207
317.325
317.43
317.434
317.48
317.469
317.475
317.391
317.261
317.177
317.022
316.791
316.552
316.325
312.92
313.027
313.258
313.497
313.655
313.814
313.913
314.029
314.167
314.149
314.191
314.175
314.168
314.163
314.04
313.958
313.794
313.644
313.433
313.327
309.96
310.131
310.316
310.48
310.567
310.648
310.786
310.824
310.88
310.997
311.01
310.942
310.958
310.971
310.795
310.803
310.657
310.562
310.392
310.215
307.086
307.247
307.337
307.459
307.567
307.586
307.663
307.717
307.794
307.777
307.872
307.729
307.814
307.801
307.718
307.715
307.606
307.468
307.445
307.303
304.276
304.277
304.409
304.402
304.556
304.522
304.574
304.599
304.67
304.668
304.628
304.693
304.683
304.625
304.617
304.558
304.593
304.526
304.447
304.373
301.423
301.445
301.486
301.511
301.567
301.532
301.538
301.555
301.538
301.566
301.504
301.611
301.614
301.586
301.499
301.538
301.512
301.467
301.527
301.486
323.076
323.388
323.965
324.27
324.511
324.804
324.971
325.205
325.306
325.424
325.427
325.421
325.348
325.222
325.109
324.838
324.598
324.221
323.808
323.532
319.731
320.119
320.428
320.643
321.011
321.248
321.401
321.522
321.633
321.755
321.785
321.78
321.674
321.624
321.417
321.3
321.075
320.76
320.46
320.182
316.493
316.797
317.057
317.254
317.542
317.751
317.932
318.029
318.114
318.162
318.129
318.165
318.226
318.038
317.938
317.839
317.601
317.363
317.127
316.927
313.473
313.657
313.868
314.044
314.243
314.37
314.47
314.595
314.66
314.742
314.698
314.806
314.68
314.705
314.579
314.487
314.379
314.118
313.909
313.741
310.376
310.503
310.697
310.879
310.985
311.061
311.224
311.31
311.414
311.447
311.443
311.383
311.36
311.29
311.205
311.179
311.095
310.925
310.789
310.57
307.344
307.553
307.65
307.706
307.808
307.912
307.968
308.014
308.095
308.111
308.109
308.06
308.133
308.076
308.046
307.965
307.892
307.827
307.725
307.566
304.358
304.51
304.558
304.594
304.707
304.702
304.764
304.853
304.856
304.859
304.854
304.856
304.833
304.826
304.83
304.714
304.671
304.753
304.6
304.513
301.501
301.433
301.554
301.62
301.541
301.525
301.632
301.607
301.63
301.65
301.609
301.601
301.635
301.57
301.576
301.555
301.533
301.518
301.583
301.533
323.983
324.401
324.835
325.242
325.576
325.83
326.156
326.22
326.415
326.446
326.464
326.471
326.416
326.26
326.114
325.8
325.639
325.336
324.974
324.524
320.594
320.827
321.213
321.577
321.87
322.118
322.367
322.466
322.492
322.66
322.724
322.631
322.637
322.493
322.372
322.181
321.948
321.725
321.377
321.059
317.184
317.396
317.771
318.033
318.269
318.49
318.692
318.831
318.833
318.93
319.017
318.975
319.035
318.88
318.68
318.544
318.41
318.14
317.883
317.696
313.885
314.093
314.457
314.565
314.864
314.947
315.126
315.262
315.335
315.351
315.443
315.394
315.356
315.312
315.2
315.147
314.923
314.715
314.501
314.321
310.72
310.859
311.064
311.304
311.48
311.572
311.67
311.75
311.919
311.882
311.931
311.928
311.913
311.797
311.762
311.677
311.566
311.407
311.307
311.137
307.651
307.807
307.897
308.089
308.075
308.252
308.297
308.375
308.466
308.447
308.472
308.498
308.503
308.391
308.339
308.314
308.162
308.116
308.037
307.928
304.612
304.738
304.686
304.814
304.878
304.904
304.958
305.071
304.995
305.101
305.074
305.113
305.063
305.048
305.084
304.981
304.919
304.816
304.838
304.738
301.537
301.588
301.594
301.65
301.639
301.715
301.624
301.709
301.645
301.706
301.739
301.704
301.712
301.723
301.671
301.695
301.686
301.625
301.652
301.569
324.924
325.38
325.805
326.22
326.617
326.925
327.165
327.44
327.467
327.599
327.627
327.575
327.513
327.393
327.218
326.989
326.613
326.365
326.019
325.586
321.331
321.659
322.081
322.43
322.752
322.979
323.24
323.395
323.599
323.591
323.66
323.608
323.598
323.469
323.262
323.063
322.784
322.622
322.246
321.941
317.932
318.112
318.468
318.782
318.967
319.217
319.453
319.613
319.601
319.773
319.783
319.811
319.786
319.627
319.561
319.359
319.055
318.907
318.663
318.39
314.473
314.756
314.928
315.25
315.43
315.625
315.825
315.812
315.966
316.074
316.027
316.026
316.036
315.986
315.851
315.776
315.558
315.331
315.161
314.927
311.192
311.384
311.64
311.762
312.016
312.098
312.125
312.293
312.331
312.412
312.378
312.441
312.387
312.369
312.224
312.17
312.049
311.956
311.667
311.561
307.941
308.105
308.238
308.333
308.526
308.631
308.678
308.774
308.787
308.822
308.793
308.864
308.842
308.772
308.697
308.684
308.517
308.449
308.332
308.199
304.764
304.819
304.941
305.066
305.136
305.102
305.116
305.15
305.16
305.3
305.281
305.277
305.253
305.214
305.203
305.161
305.125
305.043
305.03
304.957
301.607
301.602
301.636
301.621
301.673
301.672
301.731
301.774
301.799
301.688
301.766
301.781
301.827
301.765
301.742
301.781
301.742
301.734
301.661
301.649
325.868
326.34
326.849
327.229
327.622
327.99
328.183
328.419
328.618
328.745
328.703
328.729
328.635
328.47
328.322
328.137
327.715
327.374
326.949
326.526
322.171
322.466
322.848
323.286
323.571
323.919
324.125
324.274
324.421
324.547
324.648
324.539
324.566
324.396
324.227
324.043
323.708
323.506
323.1
322.741
318.548
318.836
319.131
319.486
319.879
320.083
320.176
320.331
320.481
320.554
320.54
320.584
320.546
320.429
320.272
320.073
319.947
319.738
319.366
319.114
315.055
315.283
315.525
315.832
316.014
316.213
316.388
316.476
316.643
316.702
316.717
316.681
316.709
316.643
316.538
316.28
316.177
315.987
315.733
315.513
311.612
311.894
312.016
312.258
312.373
312.596
312.652
312.708
312.774
312.887
312.884
312.934
312.891
312.849
312.718
312.639
312.444
312.415
312.174
312.04
308.341
308.484
308.512
308.737
308.782
308.917
308.983
309.023
309.23
309.2
309.214
309.232
309.19
309.104
309.098
309.025
308.868
308.849
308.655
308.504
304.902
305.078
305.124
305.209
305.224
305.357
305.376
305.391
305.446
305.478
305.501
305.498
305.521
305.491
305.446
305.419
305.33
305.308
305.222
305.095
301.644
301.658
301.679
301.721
301.779
301.737
301.765
301.899
301.87
301.799
301.833
301.743
301.833
301.858
301.824
301.788
301.732
301.774
301.705
301.74
326.707
327.237
327.699
328.266
328.705
329.036
329.323
329.613
329.733
329.771
329.733
329.743
329.711
329.615
329.377
329.132
328.783
328.344
327.903
327.506
322.953
323.312
323.698
324.169
324.51
324.808
325.048
325.261
325.456
325.448
325.514
325.52
325.43
325.269
325.192
324.914
324.659
324.333
324.002
323.585
319.236
319.514
319.883
320.212
320.426
320.801
321.024
321.07
321.27
321.359
321.318
321.287
321.317
321.191
321.106
320.877
320.747
320.399
320.051
319.819
315.567
315.842
316.136
316.408
316.659
316.826
316.985
317.111
317.237
317.301
317.312
317.346
317.321
317.253
317.159
316.919
316.769
316.651
316.347
316.145
312.015
312.22
312.432
312.762
312.809
312.932
313.163
313.261
313.364
313.331
313.435
313.412
313.394
313.363
313.204
313.156
313.074
312.834
312.67
312.477
308.598
308.673
308.862
308.99
309.147
309.284
309.349
309.413
309.435
309.513
309.486
309.539
309.519
309.546
309.374
309.378
309.233
309.118
309.021
308.862
305.167
305.263
305.298
305.421
305.447
305.577
305.574
305.63
305.672
305.656
305.727
305.765
305.657
305.706
305.606
305.627
305.548
305.436
305.408
305.334
301.748
301.782
301.778
301.805
301.799
301.801
301.906
301.877
301.992
301.904
301.897
301.939
301.873
301.866
301.909
301.851
301.872
301.778
301.832
301.801
327.693
328.17
328.691
329.201
329.553
329.93
330.265
330.587
330.775
330.79
330.9
330.855
330.759
330.727
330.381
330.1
329.815
329.439
328.931
328.55
323.64
324.051
324.549
324.97
325.296
325.666
326.004
326.205
326.252
326.407
326.438
326.387
326.345
326.294
326.031
325.847
325.586
325.228
324.796
324.459
319.851
320.139
320.546
320.864
321.215
321.515
321.698
321.934
321.964
322.146
322.125
322.178
322.06
322.002
321.853
321.637
321.428
321.081
320.927
320.518
316.128
316.446
316.659
317.005
317.221
317.395
317.626
317.701
317.898
317.951
318
317.987
318.026
317.839
317.697
317.534
317.444
317.147
316.96
316.744
312.418
312.755
312.911
313.15
313.319
313.449
313.641
313.754
313.827
313.882
313.899
313.847
313.86
313.864
313.686
313.597
313.349
313.258
313.112
312.896
308.953
309.042
309.161
309.363
309.411
309.646
309.645
309.776
309.756
309.947
309.901
309.896
309.911
309.801
309.803
309.635
309.566
309.487
309.294
309.226
305.305
305.369
305.421
305.572
305.684
305.795
305.768
305.887
305.854
306.008
305.936
305.945
305.881
305.89
305.843
305.821
305.74
305.682
305.583
305.506
301.816
301.903
301.825
301.909
301.893
301.866
301.924
301.941
301.966
301.933
301.963
302.063
302.005
302.022
301.934
301.909
301.935
301.945
301.841
301.86
328.548
329.047
329.587
330.104
330.63
330.914
331.308
331.597
331.823
331.878
331.927
331.862
331.753
331.634
331.422
331.19
330.749
330.304
329.889
329.434
324.457
324.845
325.302
325.739
326.166
326.514
326.779
327.018
327.16
327.39
327.34
327.331
327.208
327.117
326.95
326.685
326.413
326.02
325.708
325.244
320.515
320.821
321.174
321.597
321.843
322.204
322.376
322.591
322.776
322.877
322.809
322.88
322.809
322.78
322.603
322.427
322.133
321.89
321.53
321.188
316.623
316.899
317.218
317.559
317.763
317.94
318.177
318.319
318.476
318.508
318.619
318.531
318.519
318.405
318.364
318.186
318.039
317.78
317.436
317.222
312.839
313.107
313.291
313.507
313.71
313.904
314.034
314.219
314.292
314.411
314.357
314.336
314.35
314.28
314.176
314.014
313.924
313.753
313.497
313.339
309.13
309.264
309.419
309.645
309.76
309.866
309.982
310.057
310.187
310.173
310.255
310.254
310.178
310.128
310.108
310.004
309.836
309.779
309.612
309.491
305.482
305.545
305.656
305.75
305.834
305.936
306.033
306.064
306.114
306.081
306.199
306.205
306.103
306.068
306.08
306.057
305.942
305.897
305.765
305.672
301.74
301.871
301.952
301.913
301.993
301.997
302.019
302.043
302.004
301.994
302.011
302.085
302.066
302.05
302.058
301.968
301.954
301.987
302.024
301.889
329.356
329.875
330.465
331.064
331.54
331.952
332.297
332.521
332.692
332.844
332.848
332.943
332.826
332.646
332.449
332.098
331.716
331.32
330.841
330.374
325.138
325.572
326.086
326.54
326.96
327.303
327.599
327.858
328.096
328.047
328.149
328.159
328.112
327.981
327.79
327.498
327.209
326.882
326.354
326.1
321.106
321.421
321.897
322.23
322.582
322.871
323.141
323.337
323.49
323.593
323.601
323.609
323.56
323.448
323.332
323.159
322.856
322.52
322.247
321.878
317.122
317.451
317.708
318.051
318.268
318.619
318.711
318.879
319.111
319.119
319.202
319.165
319.131
319.109
318.978
318.828
318.614
318.216
317.991
317.712
313.237
313.483
313.715
313.981
314.152
314.331
314.473
314.669
314.734
314.808
314.918
314.827
314.836
314.667
314.64
314.507
314.388
314.174
314.006
313.681
309.415
309.609
309.772
309.928
310.108
310.193
310.38
310.412
310.496
310.547
310.494
310.49
310.458
310.526
310.399
310.32
310.176
310.076
309.92
309.831
305.604
305.752
305.87
305.95
306.039
306.146
306.201
306.284
306.321
306.28
306.338
306.251
306.257
306.3
306.305
306.216
306.125
306.034
305.924
305.935
301.84
301.903
302.043
301.952
301.967
302.061
301.986
302.085
302.079
302.108
302.108
302.12
302.117
302.121
302.057
302.074
302.027
301.996
301.998
301.92
330.132
330.689
331.311
331.886
332.299
332.818
333.18
333.442
333.639
333.861
333.848
333.855
333.727
333.555
333.328
333.041
332.695
332.172
331.631
331.102
325.794
326.179
326.746
327.341
327.693
328.061
328.451
328.626
328.816
328.906
328.993
328.965
328.886
328.823
328.552
328.313
327.982
327.631
327.15
326.747
321.635
322.037
322.414
322.889
323.287
323.456
323.827
323.967
324.199
324.3
324.395
324.262
324.212
324.142
323.973
323.794
323.474
323.156
322.826
322.457
317.554
317.911
318.217
318.512
318.859
319.069
319.284
319.465
319.63
319.702
319.721
319.792
319.7
319.616
319.538
319.353
319.098
318.846
318.566
318.309
313.625
313.797
314.104
314.299
314.558
314.798
314.924
315.041
315.165
315.163
315.208
315.289
315.219
315.233
315.026
314.884
314.793
314.516
314.385
314.132
309.651
309.842
310.064
310.18
310.334
310.533
310.652
310.709
310.846
310.825
310.86
310.831
310.811
310.779
310.734
310.604
310.486
310.376
310.236
310.11
305.79
305.894
306.031
306.127
306.187
306.328
306.379
306.356
306.445
306.522
306.527
306.46
306.454
306.405
306.49
306.283
306.282
306.23
306.069
306.017
301.959
302.049
301.96
302.058
302.121
302.133
302.151
302.171
302.165
302.228
302.153
302.158
302.21
302.095
302.182
302.176
302.078
302.077
302.019
302.011
330.914
331.429
332.04
332.688
333.24
333.64
334.022
334.352
334.525
334.612
334.738
334.681
334.714
334.497
334.211
333.896
333.543
332.997
332.473
331.945
326.412
326.946
327.508
328.019
328.413
328.764
329.126
329.498
329.517
329.718
329.765
329.776
329.731
329.539
329.388
329.063
328.665
328.359
327.829
327.459
322.154
322.635
323.017
323.474
323.774
324.188
324.429
324.688
324.786
324.928
324.922
324.916
324.906
324.835
324.672
324.313
324.083
323.813
323.391
323.036
318.036
318.347
318.707
319.078
319.384
319.56
319.807
320.001
320.05
320.215
320.212
320.209
320.224
320.17
320.016
319.747
319.584
319.345
318.975
318.713
313.982
314.167
314.422
314.771
314.958
315.119
315.339
315.497
315.627
315.631
315.713
315.665
315.657
315.599
315.472
315.34
315.182
314.956
314.756
314.532
309.887
310.136
310.278
310.459
310.67
310.761
310.929
311.007
311.039
311.099
311.111
311.184
311.142
311.131
311.051
310.902
310.851
310.652
310.482
310.296
305.918
306.012
306.194
306.274
306.411
306.419
306.485
306.672
306.656
306.629
306.73
306.663
306.639
306.651
306.568
306.516
306.508
306.368
306.276
306.225
301.983
301.999
302.075
302.071
302.197
302.186
302.23
302.21
302.22
302.203
302.287
302.231
302.146
302.228
302.183
302.227
302.154
302.062
302.129
301.995
331.62
332.167
332.806
333.448
333.925
334.471
334.892
335.149
335.369
335.449
335.554
335.547
335.439
335.343
335.045
334.696
334.319
333.763
333.228
332.662
327.104
327.59
328.056
328.69
329.119
329.46
329.838
330.087
330.319
330.44
330.478
330.469
330.377
330.319
330.003
329.743
329.473
328.984
328.528
328.126
322.718
323.093
323.552
324.017
324.351
324.764
324.971
325.316
325.418
325.556
325.637
325.494
325.479
325.397
325.205
325.018
324.636
324.37
323.885
323.616
318.402
318.762
319.074
319.478
319.775
320.133
320.271
320.534
320.637
320.722
320.801
320.831
320.772
320.628
320.52
320.311
320.08
319.817
319.468
319.232
314.216
314.552
314.79
315.11
315.301
315.464
315.776
315.873
315.987
316.117
316.041
316.055
316.049
316.05
315.915
315.729
315.593
315.248
315.114
314.856
310.212
310.363
310.5
310.765
310.904
311.088
311.134
311.334
311.372
311.43
311.414
311.459
311.447
311.309
311.342
311.201
310.975
310.907
310.739
310.509
306.132
306.173
306.291
306.456
306.524
306.614
306.654
306.669
306.803
306.813
306.924
306.815
306.89
306.846
306.761
306.693
306.663
306.524
306.433
306.322
302.012
302.064
302.065
302.243
302.216
302.186
302.227
302.253
302.318
302.307
302.31
302.295
302.285
302.297
302.307
302.188
302.19
302.142
302.133
302.118
332.16
332.821
333.467
334.118
334.685
335.191
335.546
335.873
336.123
336.207
336.318
336.317
336.274
336.135
335.854
335.42
335.096
334.506
333.885
333.387
327.601
328.137
328.7
329.244
329.767
330.202
330.448
330.748
330.924
331.134
331.196
331.128
331.101
330.922
330.725
330.386
330.056
329.639
329.194
328.732
323.143
323.577
324.007
324.481
324.919
325.259
325.536
325.846
325.906
326.061
326.148
326.16
326.057
326.013
325.767
325.565
325.252
324.856
324.487
324.134
318.793
319.143
319.572
319.907
320.24
320.522
320.76
320.923
321.004
321.219
321.266
321.235
321.184
321.126
320.952
320.811
320.542
320.205
319.923
319.676
314.539
314.748
315.078
315.393
315.727
315.883
316.031
316.174
316.375
316.396
316.423
316.455
316.41
316.431
316.209
316.1
315.918
315.713
315.416
315.294
310.346
310.551
310.747
310.923
311.15
311.282
311.364
311.562
311.608
311.756
311.681
311.663
311.689
311.611
311.636
311.44
311.332
311.15
310.951
310.761
306.143
306.306
306.435
306.51
306.652
306.807
306.832
306.926
306.966
306.989
307.043
306.999
306.978
306.977
306.906
306.892
306.717
306.728
306.579
306.446
302.093
302.141
302.221
302.15
302.258
302.239
302.238
302.36
302.336
302.348
302.399
302.279
302.364
302.269
302.295
302.305
302.285
302.257
302.189
302.133
332.768
333.405
334.104
334.743
335.295
335.839
336.255
336.625
336.804
336.986
337.131
337.12
337.006
336.765
336.524
336.103
335.714
335.228
334.576
334.028
328.068
328.599
329.229
329.837
330.267
330.712
331.018
331.417
331.579
331.708
331.796
331.768
331.701
331.533
331.337
331.028
330.695
330.211
329.768
329.225
323.534
323.997
324.55
324.982
325.421
325.706
326.083
326.238
326.515
326.573
326.724
326.696
326.586
326.474
326.27
326.005
325.733
325.422
324.947
324.611
319.134
319.508
319.89
320.292
320.64
320.948
321.19
321.379
321.5
321.587
321.688
321.649
321.648
321.508
321.39
321.206
320.868
320.626
320.29
319.977
314.866
315.13
315.416
315.724
315.934
316.119
316.378
316.498
316.642
316.83
316.768
316.801
316.752
316.63
316.532
316.409
316.224
316.01
315.75
315.512
310.503
310.784
311.004
311.189
311.304
311.487
311.655
311.786
311.87
311.865
311.921
311.905
311.906
311.83
311.787
311.709
311.52
311.299
311.172
311.035
306.29
306.481
306.575
306.687
306.743
306.847
306.878
306.972
307.104
307.116
307.145
307.093
307.06
307.067
307.051
307.026
306.896
306.817
306.748
306.627
302.181
302.192
302.189
302.191
302.299
302.298
302.332
302.383
302.337
302.394
302.361
302.378
302.275
302.421
302.41
302.342
302.234
302.242
302.26
302.206
333.31
333.96
334.615
335.333
335.949
336.418
336.904
337.176
337.503
337.699
337.73
337.719
337.615
337.488
337.218
336.767
336.319
335.76
335.188
334.626
328.528
329.125
329.666
330.276
330.705
331.21
331.6
331.866
332.134
332.31
332.362
332.363
332.294
332.137
331.914
331.567
331.159
330.752
330.184
329.762
323.914
324.413
324.892
325.38
325.828
326.204
326.465
326.811
326.957
327.113
327.099
327.165
327.077
327.016
326.738
326.517
326.198
325.787
325.338
324.977
319.505
319.819
320.215
320.604
321.002
321.294
321.55
321.778
321.875
322.014
322.023
322.045
321.995
321.874
321.76
321.603
321.336
321.023
320.609
320.349
315.042
315.322
315.714
316.01
316.2
316.49
316.713
316.825
316.929
317.012
317.057
317.086
317.101
316.946
316.882
316.694
316.461
316.281
315.926
315.755
310.718
310.96
311.174
311.36
311.531
311.692
311.955
311.941
311.993
312.077
312.2
312.136
312.15
312.109
311.993
311.873
311.716
311.575
311.418
311.268
306.424
306.524
306.655
306.797
306.931
307.045
307.076
307.19
307.249
307.222
307.264
307.238
307.265
307.255
307.198
307.101
306.946
306.959
306.81
306.753
302.18
302.273
302.288
302.259
302.26
302.341
302.375
302.398
302.408
302.505
302.388
302.445
302.418
302.46
302.344
302.401
302.334
302.334
302.297
302.283
333.802
334.359
335.176
335.806
336.462
336.958
337.35
337.677
338.092
338.171
338.328
338.286
338.168
338.061
337.709
337.354
336.887
336.317
335.66
335.067
329.009
329.504
330.115
330.733
331.224
331.709
332.088
332.413
332.608
332.772
332.809
332.823
332.849
332.612
332.368
332.151
331.68
331.177
330.683
330.151
324.328
324.793
325.237
325.792
326.268
326.568
326.944
327.283
327.387
327.543
327.534
327.649
327.446
327.403
327.136
326.972
326.557
326.195
325.688
325.367
319.737
320.08
320.516
320.917
321.251
321.576
321.909
322.038
322.247
322.355
322.382
322.424
322.295
322.269
322.13
321.91
321.599
321.35
320.944
320.659
315.225
315.557
315.934
316.209
316.437
316.686
316.907
317.065
317.22
317.278
317.31
317.376
317.269
317.209
317.092
316.97
316.698
316.464
316.242
316.017
310.838
311.09
311.246
311.527
311.721
311.901
312.097
312.227
312.248
312.288
312.347
312.356
312.285
312.257
312.177
312.026
311.904
311.763
311.568
311.409
306.498
306.678
306.756
306.884
306.997
307.12
307.197
307.237
307.365
307.365
307.306
307.417
307.356
307.3
307.292
307.261
307.09
307.092
306.91
306.824
302.256
302.225
302.226
302.317
302.377
302.378
302.427
302.478
302.473
302.489
302.414
302.424
302.437
302.467
302.427
302.372
302.416
302.36
302.326
302.26
334.086
334.887
335.625
336.284
336.942
337.376
337.862
338.273
338.551
338.726
338.836
338.807
338.73
338.527
338.209
337.796
337.365
336.731
336.131
335.573
329.286
329.857
330.513
331.073
331.632
332.142
332.462
332.886
333.055
333.199
333.287
333.259
333.203
333.05
332.85
332.519
332.087
331.569
331.036
330.563
324.591
325.081
325.55
326.083
326.534
326.934
327.186
327.515
327.704
327.937
327.921
327.914
327.859
327.749
327.571
327.271
326.974
326.535
325.979
325.657
319.965
320.379
320.787
321.199
321.586
321.851
322.094
322.379
322.575
322.656
322.741
322.734
322.609
322.599
322.418
322.19
321.895
321.578
321.248
320.914
315.45
315.767
316.037
316.392
316.638
316.974
317.067
317.295
317.414
317.508
317.636
317.624
317.624
317.446
317.296
317.138
316.997
316.745
316.484
316.072
311.032
311.2
311.417
311.695
311.812
312.042
312.172
312.323
312.508
312.473
312.514
312.528
312.49
312.364
312.387
312.258
312.131
311.888
311.703
311.558
306.514
306.698
306.889
307.008
307.093
307.229
307.27
307.419
307.41
307.444
307.464
307.512
307.563
307.417
307.443
307.277
307.231
307.206
306.958
306.923
302.138
302.252
302.327
302.303
302.333
302.416
302.392
302.474
302.466
302.527
302.474
302.493
302.43
302.516
302.447
302.531
302.405
302.409
302.385
302.406
334.429
335.147
335.882
336.627
337.234
337.828
338.288
338.561
338.911
339.16
339.161
339.244
339.108
338.911
338.582
338.284
337.762
337.089
336.554
335.807
329.492
330.163
330.788
331.401
331.942
332.37
332.771
333.115
333.382
333.546
333.615
333.556
333.537
333.367
333.107
332.806
332.374
331.866
331.39
330.846
324.97
325.31
325.813
326.333
326.782
327.143
327.585
327.796
328.063
328.144
328.184
328.219
328.109
327.957
327.778
327.522
327.176
326.784
326.327
325.904
320.21
320.51
321.044
321.392
321.757
322.128
322.375
322.578
322.786
322.869
322.917
322.973
322.888
322.842
322.635
322.375
322.153
321.806
321.428
321.096
315.553
315.908
316.243
316.596
316.853
317.113
317.344
317.523
317.644
317.689
317.824
317.766
317.657
317.685
317.443
317.374
317.192
316.875
316.597
316.358
311.116
311.366
311.519
311.808
311.991
312.207
312.394
312.498
312.53
312.625
312.596
312.63
312.541
312.589
312.46
312.277
312.254
312.039
311.892
311.615
306.614
306.815
306.844
307.025
307.28
307.287
307.356
307.488
307.538
307.593
307.584
307.589
307.511
307.575
307.446
307.369
307.321
307.23
307.128
306.938
302.231
302.227
302.321
302.324
302.411
302.453
302.469
302.487
302.491
302.515
302.541
302.58
302.475
302.535
302.572
302.475
302.449
302.419
302.387
302.348
334.636
335.254
336.162
336.798
337.478
337.961
338.503
338.9
339.149
339.321
339.445
339.46
339.348
339.152
338.792
338.488
337.963
337.314
336.75
336.045
329.727
330.293
330.926
331.545
332.119
332.568
332.966
333.34
333.622
333.659
333.9
333.784
333.755
333.585
333.319
333.011
332.621
332.077
331.503
331.025
324.95
325.433
325.939
326.484
326.97
327.348
327.772
327.983
328.196
328.32
328.356
328.411
328.362
328.167
328.061
327.685
327.408
326.967
326.553
326.139
320.333
320.662
321.104
321.524
321.902
322.22
322.521
322.686
322.954
323.016
323.09
323.048
323.021
322.946
322.765
322.578
322.274
321.915
321.502
321.196
315.689
315.953
316.297
316.674
316.913
317.242
317.379
317.595
317.793
317.77
317.827
317.888
317.793
317.784
317.549
317.443
317.216
317.063
316.673
316.497
311.143
311.378
311.612
311.806
311.99
312.232
312.369
312.567
312.621
312.623
312.725
312.737
312.697
312.629
312.464
312.407
312.372
312.077
311.88
311.688
306.67
306.836
306.988
307.062
307.211
307.366
307.425
307.454
307.575
307.639
307.637
307.648
307.674
307.551
307.56
307.403
307.333
307.206
307.138
307.042
302.272
302.342
302.325
302.331
302.416
302.424
302.442
302.498
302.587
302.534
302.552
302.542
302.533
302.603
302.51
302.507
302.452
302.391
302.41
302.334
)
;

boundaryField
{
    hotSide
    {
        type            fixedGradient;
        gradient        nonuniform List<scalar> 
400
(
321.511
322.87
325.591
329.677
335.133
341.965
350.181
359.788
370.794
383.208
397.037
412.289
428.971
447.088
466.647
487.651
510.105
534.011
559.372
586.191
323.738
325.08
327.767
331.802
337.194
343.949
352.078
361.591
372.498
384.81
398.537
413.687
430.268
448.289
467.755
488.672
511.043
534.872
560.161
586.913
326.149
327.47
330.116
334.091
339.406
346.071
354.099
363.503
374.296
386.491
400.101
415.136
431.606
449.52
468.885
489.706
511.988
535.735
560.948
587.63
328.704
330
332.597
336.503
341.73
348.292
356.205
365.485
376.15
388.215
401.695
416.604
432.954
450.753
470.009
490.73
512.919
536.579
561.714
588.325
331.33
332.599
335.142
338.97
344.099
350.546
358.332
367.477
378.003
389.928
403.271
418.047
434.27
451.949
471.095
491.712
513.807
537.382
562.439
588.978
333.918
335.158
337.643
341.389
346.414
352.74
360.392
369.397
379.779
391.562
404.765
419.407
435.503
453.065
472.101
492.618
514.622
538.114
563.096
589.569
336.321
337.531
339.959
343.622
348.544
354.751
362.274
371.142
381.385
393.031
406.101
420.618
436.595
454.047
472.983
493.409
515.33
538.747
563.663
590.076
338.36
339.543
341.92
345.509
350.339
356.44
363.847
372.595
382.718
394.244
407.2
421.608
437.485
454.844
473.695
494.045
515.897
539.253
564.114
590.478
339.852
341.015
343.352
346.885
351.645
357.665
364.985
373.643
383.675
395.113
407.984
422.312
438.116
455.407
474.197
494.491
516.294
539.606
564.428
590.758
340.643
341.795
344.11
347.613
352.334
358.311
365.584
374.193
384.176
395.567
408.393
422.679
438.443
455.699
474.456
494.722
516.498
539.788
564.589
590.901
340.643
341.795
344.11
347.613
352.334
358.311
365.584
374.193
384.176
395.567
408.393
422.679
438.443
455.699
474.456
494.722
516.498
539.788
564.589
590.901
339.852
341.015
343.352
346.885
351.645
357.665
364.985
373.643
383.675
395.113
407.984
422.312
438.116
455.407
474.197
494.491
516.294
539.606
564.428
590.758
338.36
339.543
341.92
345.509
350.339
356.44
363.847
372.595
382.718
394.244
407.2
421.608
437.485
454.844
473.695
494.045
515.897
539.253
564.114
590.478
336.321
337.531
339.959
343.622
348.544
354.751
362.274
371.142
381.385
393.031
406.101
420.618
436.595
454.047
472.983
493.409
515.33
538.747
563.663
590.076
333.918
335.158
337.643
341.389
346.414
352.74
360.392
369.397
379.779
391.562
404.765
419.407
435.503
453.065
472.101
492.618
514.622
538.114
563.096
589.569
331.33
332.599
335.142
338.97
344.099
350.546
358.332
367.477
378.003
389.928
403.271
418.047
434.27
451.949
471.095
491.712
513.807
537.382
562.439
588.978
328.704
330
332.597
336.503
341.73
348.292
356.205
365.485
376.15
388.215
401.695
416.604
432.954
450.753
470.009
490.73
512.919
536.579
561.714
588.325
326.149
327.47
330.116
334.091
339.406
346.071
354.099
363.503
374.296
386.491
400.101
415.136
431.606
449.52
468.885
489.706
511.988
535.735
560.948
587.63
323.738
325.08
327.767
331.802
337.194
343.949
352.078
361.591
372.498
384.81
398.537
413.687
430.268
448.289
467.755
488.672
511.043
534.872
560.161
586.913
321.511
322.87
325.591
329.677
335.133
341.965
350.181
359.788
370.794
383.208
397.037
412.289
428.971
447.088
466.647
487.651
510.105
534.011
559.372
586.191
)
;
    }
    coldSide
    {
        type            mixed;
        refValue        uniform 300;
        refGradient     uniform 0;
        valueFraction   uniform 0.991591;
        source          uniform 0;
        value           nonuniform List<scalar> 
400
(
300.011
300.012
300.013
300.013
300.014
300.014
300.015
300.015
300.015
300.015
300.016
300.017
300.017
300.018
300.018
300.018
300.019
300.018
300.019
300.019
300.012
300.012
300.012
300.013
300.013
300.014
300.015
300.016
300.016
300.016
300.017
300.017
300.017
300.018
300.018
300.019
300.019
300.019