/*--------------------------------*- C++ -*----------------------------------*\
| =========                 |                                                 |
| \\      /  F ield         | OpenFOAM: The Open Source CFD Toolbox           |
|  \\    /   O peration     | Version:  2212                                  |
|   \\  /    A nd           | Website:  www.openfoam.com                      |
|    \\/     M anipulation  |                                                 |
\*---------------------------------------------------------------------------*/
FoamFile
{
    version     2.0;
    format      ascii;
    arch        "LSB;label=32;scalar=64";
    class       volScalarField;
    location    "0";
    object      T;
}
// * * * * * * * * * * * * * * * * * * * * * * * * * * * * * * * * * * * * * //

dimensions      [0 0 0 1 0 0 0];

internalField   nonuniform List<scalar> 
3200
(
314.392
314.522
314.159
314.61
314.111
313.953
314.234
314.212
313.994
313.846
313.739
313.622
313.367
313.209
313.173
313.042
312.902
312.698
312.66
312.774
312.728
312.9
312.599
312.931
312.484
312.345
312.641
312.602
312.417
312.254
312.116
312.067
311.809
311.668
311.642
311.575
311.375
311.201
311.179
311.27
310.993
311.097
310.847
311.132
310.786
310.646
310.936
310.849
310.714
310.552
310.403
310.371
310.164
310
309.982
309.918
309.76
309.582
309.632
309.715
309.132
309.197
309.015
309.255
308.985
308.844
309.107
309.027
308.955
308.773
308.621
308.582
308.431
308.289
308.266
308.213
308.065
307.942
307.994
308.021
307.197
307.239
307.117
307.301
307.089
306.924
307.198
307.096
307.058
306.869
306.764
306.724
306.63
306.497
306.495
306.458
306.341
306.261
306.279
306.325
305.163
305.242
305.138
305.282
305.097
304.966
305.225
305.119
305.088
304.9
304.826
304.841
304.775
304.669
304.666
304.648
304.569
304.512
304.52
304.564
303.104
303.165
303.119
303.189
303.083
303.013
303.139
303.105
303.084
302.952
302.902
302.918
302.859
302.829
302.81
302.798
302.761
302.748
302.739
302.758
301.058
301.083
301.055
301.066
301.036
300.994
301.06
301.039
301.043
300.995
300.966
300.972
300.959
300.915
300.938
300.943
300.936
300.903
300.929
300.92
315.264
315.27
315.024
315.171
315.04
314.923
314.969
314.851
314.421
314.563
314.244
314.319
314.166
313.873
313.867
313.709
313.922
313.666
313.445
313.531
313.438
313.49
313.287
313.421
313.285
313.192
313.253
313.058
312.75
312.854
312.543
312.633
312.5
312.214
312.205
312.089
312.257
312.065
311.8
311.915
311.511
311.566
311.417
311.555
311.428
311.289
311.428
311.189
311.016
311.04
310.758
310.864
310.747
310.513
310.428
310.373
310.522
310.356
310.077
310.216
309.494
309.624
309.469
309.571
309.454
309.327
309.505
309.258
309.118
309.139
308.936
308.983
308.943
308.677
308.585
308.624
308.68
308.567
308.308
308.474
307.407
307.566
307.419
307.561
307.43
307.291
307.469
307.326
307.179
307.167
307.038
307.026
307.017
306.8
306.715
306.743
306.807
306.771
306.487
306.68
305.31
305.435
305.34
305.444
305.353
305.229
305.373
305.276
305.203
305.157
305.053
305.042
305.034
304.904
304.846
304.861
304.877
304.928
304.609
304.844
303.167
303.242
303.219
303.281
303.253
303.143
303.263
303.212
303.118
303.101
303.039
303.044
302.997
302.978
302.905
302.922
302.926
302.998
302.744
302.918
301.069
301.061
301.068
301.099
301.093
301.058
301.109
301.07
301.045
301.04
301.018
301.022
300.976
301.001
300.968
300.965
300.969
301.002
300.905
300.984
315.865
315.919
315.947
316.078
316.362
315.944
315.813
315.755
315.588
315.636
315.5
315.262
315.196
315.09
315.017
314.68
314.93
314.661
314.263
314.301
313.926
314.038
314.083
314.165
314.406
314.039
313.931
313.882
313.741
313.773
313.642
313.459
313.378
313.324
313.199
312.889
313.163
312.895
312.53
312.565
311.946
312.07
312.063
312.136
312.33
312.014
311.985
311.887
311.777
311.827
311.676
311.551
311.474
311.439
311.307
311.031
311.29
311.073
310.703
310.711
309.854
309.983
309.982
310.017
310.172
309.932
309.912
309.826
309.785
309.792
309.648
309.581
309.511
309.461
309.322
309.11
309.355
309.162
308.816
308.807
307.731
307.832
307.839
307.88
307.971
307.732
307.763
307.701
307.689
307.687
307.56
307.576
307.458
307.433
307.3
307.096
307.322
307.173
306.913
306.874
305.526
305.656
305.632
305.725
305.753
305.499
305.582
305.522
305.55
305.514
305.425
305.459
305.368
305.356
305.236
305.109
305.28
305.159
304.974
304.923
303.324
303.4
303.405
303.483
303.5
303.281
303.397
303.323
303.371
303.331
303.26
303.317
303.242
303.243
303.178
303.086
303.209
303.099
303.007
302.976
301.139
301.117
301.15
301.182
301.175
301.098
301.161
301.124
301.155
301.125
301.104
301.126
301.085
301.101
301.076
301.039
301.087
301.032
301.001
300.993
317.007
317.116
317.271
316.983
317.21
317.032
317.155
317.06
316.814
316.556
316.518
316.361
316.153
316.356
316.17
315.922
315.912
315.755
315.365
315.411
314.98
315.055
315.192
314.972
315.152
315.005
315.111
315.075
314.738
314.602
314.467
314.436
314.182
314.422
314.227
313.972
314
313.819
313.476
313.534
312.822
312.895
313.04
312.877
312.956
312.876
312.936
312.9
312.62
312.503
312.355
312.378
312.143
312.413
312.198
311.97
311.961
311.863
311.515
311.542
310.566
310.675
310.739
310.677
310.771
310.63
310.671
310.628
310.44
310.357
310.138
310.236
310.042
310.292
310.068
309.925
309.872
309.835
309.503
309.516
308.282
308.393
308.393
308.384
308.461
308.308
308.357
308.339
308.164
308.133
307.893
308.045
307.85
308.058
307.915
307.76
307.788
307.719
307.421
307.41
305.938
306.029
306.053
306.038
306.082
305.96
305.961
305.999
305.865
305.853
305.628
305.827
305.657
305.794
305.667
305.559
305.637
305.565
305.297
305.284
303.556
303.626
303.622
303.629
303.649
303.592
303.586
303.618
303.51
303.545
303.388
303.53
303.444
303.497
303.368
303.38
303.36
303.396
303.186
303.138
301.217
301.219
301.2
301.194
301.234
301.203
301.22
301.213
301.166
301.19
301.132
301.204
301.136
301.185
301.116
301.145
301.132
301.142
301.068
301.05
318.04
318.058
318.307
318.324
318.274
318.216
318.232
318.324
318.183
317.698
317.396
317.644
317.443
317.465
317.593
317.363
317.015
316.771
316.448
316.386
315.883
315.876
316.157
316.067
316.097
316.058
316.033
316.135
315.998
315.592
315.294
315.489
315.276
315.342
315.467
315.253
314.925
314.687
314.411
314.373
313.59
313.551
313.848
313.733
313.8
313.729
313.688
313.792
313.703
313.348
313.114
313.244
313.014
313.124
313.181
313.046
312.731
312.526
312.281
312.319
311.216
311.156
311.463
311.312
311.402
311.32
311.288
311.338
311.302
311.085
310.845
310.952
310.724
310.839
310.874
310.754
310.48
310.314
310.108
310.171
308.795
308.687
308.995
308.831
308.954
308.873
308.838
308.899
308.835
308.725
308.503
308.598
308.414
308.46
308.493
308.423
308.231
308.096
307.904
308.003
306.306
306.243
306.43
306.269
306.454
306.386
306.324
306.416
306.331
306.285
306.127
306.163
306.052
306.043
306.075
306.018
305.913
305.841
305.679
305.753
303.794
303.779
303.873
303.732
303.895
303.86
303.793
303.878
303.817
303.805
303.702
303.722
303.646
303.634
303.682
303.622
303.577
303.521
303.448
303.475
301.301
301.27
301.3
301.245
301.336
301.287
301.276
301.296
301.288
301.268
301.235
301.247
301.212
301.215
301.238
301.213
301.185
301.176
301.167
301.183
319.235
318.98
319.284
319.311
319.353
319.5
319.354
319.428
319.242
319.072
318.972
319
318.945
318.755
318.622
318.512
318.33
317.679
317.681
317.15
316.915
316.661
316.975
316.964
316.946
317.142
316.978
317.114
316.927
316.767
316.681
316.688
316.656
316.473
316.353
316.265
316.126
315.483
315.453
315.017
314.483
314.215
314.536
314.512
314.517
314.692
314.526
314.689
314.51
314.328
314.306
314.239
314.263
314.087
313.978
313.958
313.818
313.214
313.156
312.851
311.946
311.677
312.029
311.977
311.965
312.194
311.986
312.144
311.998
311.832
311.874
311.758
311.811
311.626
311.542
311.578
311.365
310.906
310.816
310.647
309.376
309.122
309.413
309.419
309.356
309.606
309.384
309.566
309.405
309.245
309.333
309.185
309.225
309.095
309.05
309.106
308.858
308.563
308.448
308.376
306.712
306.552
306.771
306.751
306.712
306.952
306.778
306.921
306.775
306.599
306.757
306.608
306.603
306.499
306.465
306.533
306.355
306.162
306.052
306.006
304.011
303.957
304.094
304.081
304.088
304.191
304.106
304.192
304.091
303.946
304.092
303.983
303.956
303.869
303.866
303.934
303.826
303.742
303.622
303.634
301.312
301.319
301.386
301.357
301.381
301.411
301.375
301.41
301.382
301.329
301.383
301.355
301.317
301.311
301.287
301.327
301.294
301.272
301.198
301.219
320.136
320.3
320.318
320.448
320.54
320.663
320.584
320.576
320.556
320.332
320.308
320.187
320.059
319.981
319.574
319.592
319.425
318.845
318.774
318.409
317.703
317.828
317.85
317.932
318.082
318.185
318.106
318.089
318.074
317.875
317.841
317.729
317.588
317.534
317.151
317.199
317.035
316.482
316.411
316.091
315.151
315.259
315.223
315.307
315.468
315.58
315.496
315.487
315.429
315.287
315.241
315.178
315.013
314.953
314.634
314.741
314.539
314.086
314.014
313.745
312.513
312.551
312.579
312.6
312.761
312.861
312.769
312.829
312.738
312.589
312.581
312.557
312.374
312.32
312.03
312.211
311.969
311.642
311.547
311.348
309.753
309.841
309.86
309.81
310.004
310.102
309.975
310.104
309.969
309.84
309.846
309.834
309.67
309.635
309.401
309.585
309.361
309.099
309.032
308.891
306.966
307.079
307.103
307.021
307.179
307.256
307.153
307.254
307.19
307.051
307.075
307.057
306.939
306.932
306.737
306.887
306.707
306.563
306.492
306.413
304.175
304.227
304.302
304.241
304.349
304.384
304.276
304.37
304.35
304.267
304.253
304.241
304.214
304.203
304.012
304.166
304.068
303.944
303.889
303.899
301.399
301.426
301.46
301.407
301.478
301.475
301.434
301.465
301.451
301.451
301.416
301.434
301.417
301.414
301.327
301.403
301.366
301.318
301.3
301.303
321.266
321.285
321.369
321.55
321.637
321.669
321.652
321.74
321.759
321.652
321.574
321.454
321.106
321.079
320.808
320.722
320.568
320.173
320.125
319.63
318.656
318.685
318.806
318.969
318.994
319.089
319.025
319.095
319.107
319.036
318.925
318.818
318.509
318.485
318.245
318.147
317.996
317.667
317.594
317.169
315.951
315.94
316.084
316.266
316.252
316.368
316.308
316.381
316.344
316.285
316.216
316.099
315.853
315.822
315.595
315.494
315.392
315.076
314.994
314.681
313.157
313.124
313.236
313.41
313.439
313.495
313.454
313.54
313.477
313.469
313.387
313.264
313.08
313.087
312.861
312.772
312.711
312.44
312.328
312.119
310.288
310.288
310.324
310.527
310.537
310.559
310.521
310.623
310.544
310.569
310.464
310.377
310.241
310.278
310.059
309.98
309.941
309.728
309.629
309.493
307.386
307.39
307.395
307.591
307.535
307.548
307.508
307.626
307.579
307.605
307.512
307.459
307.331
307.374
307.224
307.207
307.156
306.962
306.888
306.769
304.428
304.452
304.449
304.567
304.536
304.527
304.514
304.606
304.563
304.609
304.544
304.484
304.448
304.451
304.369
304.362
304.331
304.199
304.172
304.078
301.468
301.501
301.505
301.54
301.516
301.512
301.513
301.545
301.544
301.554
301.53
301.497
301.521
301.488
301.479
301.46
301.435
301.416
301.409
301.36
322.23
322.329
322.481
322.651
322.642
322.804
322.761
323.082
322.954
322.896
322.594
322.596
322.321
322.119
322.003
321.91
321.597
321.418
321.004
320.739
319.476
319.573
319.706
319.861
319.854
320.027
319.96
320.265
320.164
320.071
319.828
319.822
319.531
319.445
319.29
319.143
318.918
318.729
318.392
318.151
316.648
316.723
316.807
316.972
316.955
317.12
316.995
317.32
317.266
317.147
316.965
316.953
316.659
316.646
316.461
316.294
316.126
315.995
315.666
315.501
313.729
313.81
313.866
314.024
313.95
314.094
313.972
314.286
314.248
314.14
314.029
313.986
313.705
313.768
313.572
313.386
313.245
313.159
312.893
312.851
310.776
310.779
310.857
311.024
310.922
311.005
310.906
311.183
311.153
311.063
310.983
310.948
310.73
310.779
310.64
310.427
310.366
310.319
310.115
310.082
307.753
307.711
307.782
307.914
307.857
307.883
307.784
308.035
307.994
307.95
307.886
307.859
307.685
307.74
307.626
307.465
307.447
307.446
307.255
307.274
304.689
304.623
304.689
304.738
304.718
304.785
304.699
304.872
304.785
304.792
304.771
304.738
304.633
304.698
304.618
304.485
304.476
304.485
304.406
304.391
301.595
301.517
301.58
301.58
301.581
301.612
301.577
301.634
301.605
301.623
301.612
301.589
301.538
301.582
301.56
301.516
301.51
301.51
301.495
301.482
323.178
323.118
323.467
323.792
323.615
323.927
323.875
324.354
323.971
324.073
323.894
323.649
323.367
323.41
323.2
323.111
322.873
322.523
322.09
321.822
320.347
320.296
320.574
320.838
320.723
320.972
320.956
321.39
321.052
321.107
320.963
320.766
320.517
320.499
320.324
320.228
320.016
319.716
319.307
319.099
317.351
317.322
317.535
317.762
317.704
317.921
317.876
318.268
318.01
318.057
317.903
317.774
317.551
317.491
317.351
317.257
317.051
316.879
316.48
316.253
314.233
314.241
314.456
314.651
314.638
314.798
314.724
315.042
314.871
314.907
314.805
314.692
314.467
314.405
314.29
314.203
313.989
313.89
313.569
313.298
311.071
311.124
311.299
311.473
311.481
311.609
311.494
311.75
311.627
311.67
311.634
311.504
311.33
311.239
311.171
311.124
310.902
310.852
310.621
310.322
307.925
307.985
308.044
308.229
308.266
308.334
308.236
308.415
308.355
308.357
308.386
308.248
308.139
308.052
308.008
307.997
307.825
307.762
307.616
307.364
304.793
304.808
304.826
304.958
304.969
305.008
304.935
305.043
305.027
305.018
305.071
304.962
304.923
304.837
304.801
304.823
304.686
304.66
304.615
304.418
301.63
301.612
301.624
301.675
301.661
301.68
301.656
301.676
301.699
301.673
301.715
301.674
301.662
301.633
301.616
301.623
301.582
301.557
301.552
301.475
324.123
324.326
324.497
324.794
324.822
325.055
324.88
325.19
325.022
324.912
324.987
324.865
324.612
324.525
324.384
324.366
323.831
323.65
323.13
322.935
321.194
321.276
321.496
321.729
321.787
321.949
321.825
322.104
321.953
321.842
321.901
321.829
321.547
321.446
321.352
321.384
320.834
320.647
320.264
320.077
318.128
318.153
318.351
318.555
318.618
318.754
318.649
318.869
318.73
318.706
318.737
318.652
318.395
318.285
318.241
318.253
317.742
317.562
317.278
317.088
314.912
314.922
315.136
315.305
315.369
315.501
315.394
315.534
315.41
315.444
315.468
315.397
315.21
315.061
315.024
315.039
314.63
314.484
314.227
314.056
311.642
311.715
311.832
311.971
312.021
312.161
312.071
312.126
312.034
312.077
312.083
312.026
311.942
311.758
311.759
311.787
311.463
311.365
311.157
310.929
308.386
308.432
308.47
308.578
308.645
308.745
308.653
308.666
308.639
308.658
308.669
308.602
308.632
308.399
308.419
308.435
308.22
308.14
308.048
307.801
305.103
305.09
305.094
305.185
305.168
305.289
305.206
305.236
305.2
305.201
305.248
305.17
305.259
305.08
305.061
305.067
304.963
304.906
304.836
304.708
301.716
301.726
301.703
301.744
301.704
301.764
301.739
301.76
301.737
301.748
301.749
301.715
301.777
301.696
301.701
301.678
301.66
301.664
301.609
301.577
325.039
325.274
325.318
325.694
325.911
326.088
326.116
326.046
326.109
326.139
326.11
325.885
325.764
325.663
325.503
325.237
324.891
324.707
324.134
323.682
322.016
322.147
322.252
322.534
322.724
322.857
322.886
322.825
322.855
322.917
322.881
322.699
322.541
322.478
322.334
322.06
321.728
321.619
321.14
320.706
318.811
318.936
319.041
319.254
319.446
319.517
319.536
319.49
319.498
319.543
319.53
319.436
319.249
319.182
319.083
318.786
318.452
318.448
318.095
317.641
315.514
315.629
315.741
315.896
316.013
316.07
316.119
316.113
316.081
316.128
316.104
316.053
315.892
315.827
315.749
315.469
315.144
315.171
314.937
314.532
312.128
312.218
312.341
312.457
312.494
312.555
312.601
312.619
312.606
312.622
312.594
312.537
312.453
312.354
312.333
312.113
311.827
311.874
311.684
311.397
308.685
308.796
308.864
308.93
308.936
309
309.012
309.064
309.095
309.032
309.08
308.988
308.968
308.831
308.823
308.704
308.46
308.51
308.359
308.163
305.219
305.321
305.373
305.346
305.382
305.435
305.407
305.449
305.5
305.441
305.51
305.423
305.418
305.353
305.327
305.243
305.099
305.115
305.032
304.911
301.759
301.801
301.785
301.792
301.791
301.826
301.821
301.829
301.851
301.837
301.848
301.823
301.793
301.777
301.786
301.731
301.723
301.739
301.676
301.656
326.026
326.38
326.331
326.743
326.954
327.065
327.16
327.188
327.221
327.243
327.35
326.95
326.728
326.658
326.525
326.142
325.951
325.575
324.976
324.617
322.807
323.141
323.071
323.442
323.667
323.69
323.791
323.817
323.865
323.876
323.964
323.593
323.398
323.323
323.256
322.841
322.69
322.341
321.881
321.545
319.513
319.753
319.722
320.065
320.227
320.223
320.301
320.335
320.404
320.379
320.446
320.117
319.938
319.914
319.855
319.45
319.333
319.032
318.691
318.385
316.089
316.295
316.245
316.548
316.64
316.633
316.744
316.726
316.83
316.764
316.85
316.584
316.428
316.395
316.38
316.028
315.912
315.66
315.387
315.084
312.558
312.765
312.695
312.964
313.01
313.003
313.107
313.068
313.165
313.109
313.229
312.983
312.831
312.862
312.803
312.519
312.451
312.229
312.002
311.772
308.996
309.175
309.048
309.308
309.326
309.304
309.41
309.37
309.446
309.387
309.518
309.296
309.189
309.25
309.173
308.97
308.939
308.768
308.608
308.422
305.406
305.551
305.43
305.599
305.632
305.608
305.684
305.649
305.656
305.627
305.743
305.59
305.52
305.585
305.5
305.406
305.405
305.267
305.183
305.056
301.804
301.846
301.837
301.869
301.878
301.863
301.908
301.89
301.89
301.88
301.95
301.872
301.863
301.871
301.846
301.798
301.808
301.752
301.749
301.719
326.819
327.154
327.311
327.646
327.965
328.09
328.174
328.285
328.309
328.425
328.243
327.828
327.777
327.611
327.568
327.118
326.822
326.58
326.113
325.625
323.542
323.824
323.954
324.242
324.553
324.538
324.641
324.793
324.818
324.905
324.71
324.324
324.3
324.179
324.105
323.647
323.429
323.258
322.838
322.388
320.146
320.39
320.486
320.721
320.968
320.928
321.012
321.161
321.179
321.244
321.108
320.73
320.75
320.676
320.568
320.132
320.007
319.806
319.461
319.093
316.581
316.829
316.859
317.092
317.29
317.254
317.314
317.462
317.461
317.48
317.418
317.044
317.105
317.051
316.975
316.589
316.461
316.273
316.011
315.754
312.973
313.168
313.218
313.387
313.516
313.511
313.563
313.671
313.698
313.648
313.641
313.332
313.361
313.349
313.277
313.011
312.85
312.699
312.548
312.316
309.319
309.447
309.466
309.585
309.696
309.7
309.75
309.827
309.849
309.749
309.75
309.606
309.573
309.586
309.483
309.381
309.206
309.133
309.036
308.828
305.602
305.688
305.695
305.777
305.817
305.873
305.862
305.926
305.914
305.861
305.841
305.792
305.761
305.793
305.701
305.669
305.544
305.487
305.472
305.318
301.89
301.91
301.914
301.943
301.935
301.96
301.967
301.993
301.975
301.965
301.966
301.952
301.921
301.944
301.922
301.904
301.851
301.838
301.837
301.785
327.641
327.889
328.265
328.57
328.573
328.897
328.995
329.235
329.043
329.21
329.025
328.928
328.818
328.66
328.504
327.893
327.728
327.543
327.021
326.584
324.238
324.453
324.763
325.015
325.028
325.299
325.42
325.602
325.458
325.564
325.43
325.338
325.214
325.082
324.916
324.368
324.238
324.038
323.599
323.259
320.674
320.867
321.186
321.39
321.386
321.609
321.7
321.787
321.719
321.795
321.709
321.622
321.492
321.376
321.229
320.771
320.67
320.457
320.118
319.83
317.052
317.194
317.455
317.677
317.624
317.799
317.856
317.907
317.867
317.911
317.906
317.837
317.718
317.632
317.497
317.108
317
316.809
316.516
316.336
313.36
313.452
313.631
313.872
313.799
313.921
313.964
314.005
313.909
314.017
314.003
313.986
313.852
313.816
313.708
313.367
313.284
313.099
312.844
312.752
309.609
309.645
309.762
309.961
309.873
309.971
310.005
310.049
309.943
310.102
310.026
310.055
309.925
309.897
309.846
309.603
309.558
309.402
309.194
309.126
305.792
305.794
305.876
306.001
305.941
305.981
306.025
306.034
305.953
306.106
306.023
306.058
305.944
305.921
305.932
305.764
305.739
305.674
305.544
305.479
301.957
301.958
301.976
302.01
301.995
302.015
302.035
302.023
301.996
302.028
301.997
302.032
302.013
302.002
301.983
301.941
301.928
301.902
301.87
301.853
328.247
328.579
329.249
329.335
329.534
329.581
329.964
330.102
330.084
330.168
330.176
329.903
329.686
329.603
329.341
328.78
328.657
328.228
327.867
327.433
324.783
325.011
325.648
325.74
325.876
325.92
326.237
326.348
326.342
326.39
326.401
326.164
326.005
325.863
325.623
325.14
325.046
324.647
324.34
323.94
321.208
321.381
321.861
322.016
322.06
322.126
322.399
322.477
322.487
322.499
322.572
322.307
322.179
322.025
321.833
321.431
321.359
320.962
320.682
320.413
317.508
317.652
317.986
318.159
318.196
318.211
318.47
318.5
318.532
318.504
318.643
318.368
318.284
318.184
317.97
317.656
317.578
317.233
317.005
316.807
313.724
313.782
314.039
314.242
314.245
314.24
314.446
314.463
314.476
314.485
314.552
314.341
314.312
314.24
314.015
313.816
313.736
313.419
313.232
313.119
309.915
309.86
310.077
310.255
310.232
310.196
310.359
310.357
310.359
310.398
310.422
310.269
310.274
310.194
310.053
309.901
309.837
309.591
309.445
309.437
305.983
305.916
306.048
306.187
306.176
306.121
306.182
306.222
306.242
306.291
306.297
306.194
306.179
306.154
306.07
305.933
305.896
305.755
305.649
305.706
302.017
302.015
302.053
302.066
302.076
302.053
302.065
302.072
302.092
302.102
302.117
302.091
302.064
302.073
302.039
301.999
301.966
301.924
301.897
301.907
329.044
329.285
329.585
330.004
330.511
330.751
330.8
330.839
330.85
331.142
330.939
330.749
330.593
330.578
330.092
329.678
329.485
329.099
328.646
328.226
325.428
325.662
325.931
326.305
326.714
326.942
326.953
327.004
326.995
327.297
327.115
326.906
326.767
326.741
326.327
325.887
325.79
325.444
325.026
324.638
321.674
321.925
322.159
322.449
322.793
322.964
323.01
323.057
323.034
323.302
323.111
322.957
322.802
322.768
322.39
322.001
321.999
321.626
321.277
320.971
317.827
318.061
318.292
318.465
318.764
318.871
318.966
318.979
319.007
319.196
319.089
318.898
318.752
318.732
318.378
318.073
318.13
317.779
317.445
317.237
313.895
314.169
314.303
314.41
314.694
314.691
314.808
314.818
314.884
315.04
314.924
314.758
314.626
314.607
314.352
314.086
314.191
313.874
313.619
313.478
309.935
310.186
310.212
310.322
310.537
310.517
310.614
310.596
310.717
310.783
310.708
310.567
310.476
310.435
310.277
310.059
310.246
309.937
309.777
309.698
305.979
306.128
306.143
306.208
306.338
306.31
306.383
306.36
306.443
306.48
306.409
306.36
306.289
306.263
306.186
306.04
306.179
305.932
305.887
305.84
301.996
302.033
302.06
302.074
302.118
302.131
302.151
302.144
302.153
302.182
302.162
302.118
302.119
302.108
302.07
302.04
302.088
301.974
301.966
301.964
329.444
329.894
330.331
330.801
331.209
331.484
331.36
331.398
331.769
331.795
331.648
331.404
331.243
331.1
330.849
330.606
330.408
329.941
329.389
328.978
325.79
326.191
326.55
326.976
327.315
327.597
327.435
327.467
327.798
327.816
327.633
327.488
327.319
327.157
326.958
326.759
326.508
326.127
325.674
325.3
321.986
322.359
322.671
323.027
323.311
323.58
323.377
323.381
323.676
323.725
323.513
323.421
323.316
323.092
322.981
322.795
322.607
322.253
321.873
321.494
318.095
318.39
318.681
318.957
319.179
319.45
319.238
319.274
319.436
319.511
319.313
319.305
319.163
318.985
318.928
318.772
318.578
318.311
317.996
317.665
314.145
314.354
314.612
314.818
314.949
315.168
315.046
315.05
315.192
315.253
315.138
315.099
314.994
314.881
314.793
314.68
314.481
314.289
314.031
313.832
310.09
310.303
310.493
310.615
310.703
310.846
310.792
310.84
310.892
310.986
310.884
310.808
310.752
310.669
310.594
310.506
310.36
310.237
310.023
309.898
306.05
306.22
306.307
306.381
306.448
306.514
306.499
306.559
306.559
306.64
306.566
306.505
306.475
306.434
306.398
306.349
306.245
306.175
306.033
305.929
302.023
302.106
302.131
302.154
302.171
302.18
302.193
302.202
302.208
302.225
302.214
302.188
302.171
302.161
302.165
302.117
302.091
302.075
302.045
301.996
330.208
330.34
331.045
331.293
331.667
332.163
331.914
332.269
332.404
332.346
332.438
332.139
332.122
331.932
331.603
331.163
330.831
330.408
329.828
329.508
326.398
326.554
327.198
327.395
327.688
328.158
327.896
328.218
328.351
328.339
328.344
328.068
328.101
327.894
327.563
327.144
326.932
326.527
326.015
325.784
322.494
322.649
323.175
323.373
323.589
323.993
323.774
324.039
324.195
324.202
324.117
323.927
323.94
323.707
323.413
323.105
322.926
322.597
322.153
321.938
318.55
318.644
319.076
319.236
319.404
319.746
319.568
319.784
319.905
319.941
319.858
319.688
319.711
319.493
319.194
319.023
318.849
318.576
318.246
318.038
314.51
314.585
314.895
314.984
315.207
315.397
315.276
315.449
315.57
315.585
315.521
315.353
315.45
315.222
314.939
314.814
314.703
314.505
314.257
314.098
310.384
310.445
310.675
310.734
310.93
311.038
310.948
311.081
311.15
311.182
311.151
310.977
311.07
310.935
310.692
310.59
310.589
310.417
310.198
310.15
306.255
306.301
306.444
306.428
306.614
306.639
306.549
306.686
306.697
306.712
306.727
306.587
306.668
306.595
306.46
306.334
306.415
306.269
306.126
306.13
302.102
302.097
302.147
302.164
302.235
302.22
302.202
302.235
302.241
302.254
302.259
302.247
302.224
302.198
302.176
302.124
302.178
302.105
302.037
302.059
330.388
330.687
331.122
331.55
331.923
332.51
332.448
332.746
332.499
332.705
332.979
332.514
332.503
332.521
331.925
331.637
331.143
330.878
330.216
330.008
326.654
326.831
327.159
327.598
327.889
328.44
328.326
328.612
328.389
328.588
328.789
328.37
328.386
328.47
327.844
327.599
327.172
326.894
326.344
326.18
322.736
322.868
323.124
323.53
323.757
324.226
324.075
324.377
324.194
324.368
324.502
324.148
324.183
324.269
323.66
323.446
323.094
322.866
322.388
322.349
318.725
318.825
318.995
319.341
319.545
319.932
319.778
320.047
319.948
320.059
320.128
319.842
319.931
319.971
319.434
319.257
318.984
318.774
318.362
318.46
314.605
314.688
314.8
315.078
315.284
315.566
315.395
315.662
315.637
315.669
315.651
315.46
315.587
315.57
315.151
315.017
314.819
314.653
314.316
314.525
310.44
310.506
310.586
310.769
310.946
311.223
311.034
311.231
311.261
311.218
311.189
311.055
311.214
311.14
310.849
310.701
310.618
310.488
310.218
310.429
306.297
306.275
306.357
306.447
306.592
306.772
306.615
306.771
306.791
306.718
306.715
306.634
306.781
306.695
306.548
306.408
306.393
306.316
306.118
306.31
302.1
302.093
302.146
302.144
302.229
302.276
302.215
302.278
302.268
302.242
302.247
302.232
302.275
302.231
302.219
302.137
302.161
302.111
302.072
302.115
)
;

boundaryField
{
    hotSide
    {
        type            fixedGradient;
        gradient        nonuniform List<scalar> 
400
(
120.497
130.74
141.115
151.577
162.08
172.575
183.012
193.34
203.508
213.465
223.159
232.541
241.561
250.172
258.328
265.988
273.11
279.659
285.6
290.905
120.194
130.734
141.418
152.201
163.033
173.865
184.646
195.322
205.84
216.149
226.194
235.924
245.288
254.237
262.724
270.703
278.135
284.979
291.202
296.773
119.642
130.456
141.425
152.503
163.64
174.785
185.884
196.883
207.729
218.365
228.738
238.794
248.48
257.746
266.543
274.824
282.546
289.671
296.16
301.982
118.898
129.96
141.189
152.536
163.951
175.381
186.772
198.068
209.213
220.151
230.826
241.182
251.166
260.724
269.808
278.369
286.362
293.746
300.484
306.541
118.02
129.304
140.765
152.354
164.018
175.705
187.358
198.921
210.337
221.547
232.495
243.123
253.376
263.201
272.546
281.361
289.601
297.222
304.188
310.461
117.066
128.544
140.208
152.008
163.892
175.804
187.689
199.487
211.142
222.593
233.783
244.652
255.145
265.207
274.783
283.825
292.285
300.12
307.289
313.756
116.089
127.731
139.568
151.549
163.621
175.726
187.809
199.811
211.67
223.329
234.727
245.805
256.504
266.77
276.548
285.787
294.438
302.457
309.804
316.44
115.137
126.914
138.894
151.023
163.249
175.514
187.761
199.929
211.959
223.79
235.36
246.611
257.483
267.919
277.865
287.268
296.079
304.253
311.748
318.527
114.251
126.133
138.223
150.468
162.813
175.203
187.577
199.876
212.039
224.005
235.711
247.098
258.105
268.676
278.754
288.287
297.225
305.522
313.135
320.027
113.465
125.42
137.586
149.912
162.343
174.82
187.285
199.677
211.935
223.997
235.8
247.284
258.389
269.057
279.231
288.858
297.887
306.273
313.973
320.948
112.799
124.795
137.005
149.377
161.856
174.384
186.902
199.348
211.662
223.78
235.641
247.183
258.346
269.071
279.303
288.987
298.072
306.513
314.266
321.292
112.265
124.269
136.489
148.872
161.363
173.904
186.435
198.896
211.225
223.36
235.238
246.797
257.979
268.723
278.973
288.676
297.78
306.24
314.012
321.057
111.864
123.843
136.038
148.396
160.861
173.376
185.883
198.319
210.623
222.733
234.587
246.123
257.282
268.005
278.235
287.918
297.005
305.448
313.205
320.236
111.583
123.505
135.64
147.936
160.339
172.791
185.232
197.603
209.842
221.887
233.676
245.148
256.244
266.906
277.076
286.702
295.734
304.125
311.832
318.817
111.403
123.233
135.274
147.473
159.775
172.125
184.462
196.728
208.861
220.801
232.485
243.853
254.846
265.406
275.478
285.009
293.95
302.253
309.878
316.786
111.291
122.998
134.909
146.975
159.14
171.35
183.545
195.666
207.654
219.448
230.987
242.211
253.062
263.483
273.419
282.819
291.632
299.814
307.323
314.123
111.211
122.76
134.508
146.405
158.397
170.429
182.444
194.383
206.187
217.796
229.151
240.192
250.864
261.108
270.872
280.104
288.757
296.785
304.148
310.809
111.116
122.476
134.027
145.721
157.504
169.323
181.12
192.839
204.421
215.809
226.943
237.765
248.22
258.252
267.809
276.841
285.3
293.144
300.331
306.828
110.959
122.097
133.42
144.876
156.417
167.987
179.531
190.995
202.32
213.45
224.327
234.895
245.1
254.886
264.204
273.004
281.24
288.87
295.855
302.161
110.689
121.576
132.637
143.825
155.089
166.377
177.636
188.81
199.845
210.683
221.271
231.552
241.474
250.984
260.032
268.571
276.556
283.947
290.705
296.798
)
;
    }
    coldSide
    {
        type            mixed;
        refValue        uniform 300;
        refGradient     uniform 0;
        valueFraction   uniform 0.991591;
        source          uniform 0;
        value           nonuniform List<scalar> 
400
(
300.009
300.009
300.01
300.01
300.011
300.011
300.012
300.012
300.013
300.014
300.014
300.015
300.015
300.016
300.016
300.017
300.017
300.017
300.018
300.018
300.009
300.009
300.009
300.01
300.011
300.011
300.012
300.013
300.013
300.014
300.015
300.015
300.016
300.016
300.016
300.017
300.017
300.018