/*--------------------------------*- C++ -*----------------------------------*\
| =========                 |                                                 |
| \\      /  F ield         | OpenFOAM: The Open Source CFD Toolbox           |
|  \\    /   O peration     | Version:  2212                                  |
|   \\  /    A nd           | Website:  www.openfoam.com                      |
|    \\/     M anipulation  |                                                 |
\*---------------------------------------------------------------------------*/
FoamFile
{
    version     2.0;
    format      ascii;
    arch        "LSB;label=32;scalar=64";
    class       volScalarField;
    location    "./ITHACAoutput/true/8.3";
    object      error;
}
// * * * * * * * * * * * * * * * * * * * * * * * * * * * * * * * * * * * * * //

dimensions      [0 0 0 1 0 0 0];

internalField   nonuniform List<scalar> 
3200
(
3.10193
2.77525
2.51664
2.48505
2.58972
2.74616
3.03019
3.30632
3.56228
3.8284
4.00466
3.96159
3.92901
3.80534
3.79153
3.7846
3.93264
4.22255
4.5141
4.86931
2.44612
2.25454
2.11876
1.96592
2.12165
2.20505
2.49217
2.7183
2.92232
3.12418
3.30173
3.27612
3.23654
3.18222
3.21441
3.15417
3.3169
3.56759
3.83586
4.19607
2.03119
1.81806
1.67993
1.63789
1.58788
1.71868
1.93427
2.21967
2.37312
2.51426
2.61092
2.66263
2.60246
2.59195
2.61641
2.63194
2.66753
2.91056
3.18453
3.45784
1.57591
1.36593
1.23494
1.17184
1.22254
1.3161
1.44656
1.67328
1.91491
2.03015
2.06546
2.05497
2.09036
2.04923
2.02296
2.11776
2.18984
2.31234
2.54467
2.84744
1.14152
1.001
0.888426
0.876081
0.946348
1.00065
1.14398
1.28299
1.34021
1.51422
1.58086
1.54667
1.52678
1.59006
1.58288
1.62016
1.67402
1.74068
1.93098
2.1288
0.746135
0.701056
0.667328
0.610876
0.61701
0.677562
0.834738
0.835498
1.0155
1.01074
1.11343
1.12119
1.19802
1.14289
1.19398
1.09923
1.16548
1.21925
1.3519
1.52068
0.442874
0.337663
0.345591
0.239396
0.355825
0.388155
0.400749
0.487274
0.49013
0.683598
0.670605
0.643642
0.646311
0.655609
0.669548
0.717611
0.681422
0.753134
0.815763
0.904692
0.222744
0.160931
0.121511
0.120926
0.120523
0.077179
0.154609
0.192501
0.122173
0.218656
0.156922
0.2179
0.18303
0.281369
0.255271
0.240862
0.182834
0.231083
0.20123
0.316695
2.22936
1.86901
1.61069
1.57935
1.55441
1.71651
1.98266
2.28973
2.54523
2.75079
2.91044
2.85832
2.84966
2.79614
2.77869
2.86061
3.0472
3.25421
3.69863
4.1821
1.8164
1.46733
1.33528
1.2736
1.28085
1.42124
1.6118
1.80566
2.07
2.2673
2.46992
2.41163
2.40223
2.37044
2.36231
2.40961
2.52421
2.79173
3.16178
3.47087
1.39032
1.22455
0.970707
0.91943
0.930885
1.14054
1.27668
1.47984
1.69813
1.85399
1.99098
1.93964
1.98978
1.98486
1.91739
1.97055
2.06907
2.30838
2.65004
2.95706
1.08323
0.832336
0.748725
0.688165
0.716523
0.779377
0.966405
1.10559
1.30913
1.44156
1.52395
1.47698
1.56191
1.51874
1.56493
1.57367
1.69081
1.84608
2.09519
2.36554
0.794016
0.707975
0.536908
0.49137
0.518302
0.553168
0.709182
0.915374
1.08095
1.06033
1.18353
1.12073
1.16746
1.16438
1.18024
1.27148
1.37091
1.44579
1.55457
1.87851
0.570604
0.379848
0.350161
0.312201
0.364782
0.484194
0.520909
0.676592
0.660149
0.796501
0.782902
0.834387
0.853892
0.84057
0.856148
0.815259
0.904628
1.03741
1.16322
1.3102
0.290461
0.335118
0.224447
0.307813
0.171076
0.241408
0.256883
0.39085
0.350715
0.467981
0.478921
0.489154
0.505267
0.433275
0.503605
0.555846
0.582027
0.654889
0.68108
0.758667
0.0444825
0.097772
0.0699348
0.128395
0.0797529
0.0599655
0.10607
0.0283166
0.194347
0.135849
0.232337
0.147554
0.158992
0.192277
0.212864
0.169732
0.186554
0.185432
0.282959
0.242259
1.19667
0.842915
0.574552
0.361096
0.379451
0.514142
0.775797
0.948735
1.1971
1.39406
1.51254
1.62675
1.63731
1.57785
1.59936
1.67576
1.9297
2.25154
2.6184
3.07362
0.923362
0.599399
0.331588
0.220264
0.265408
0.374082
0.489465
0.715587
0.935775
1.14635
1.34375
1.31281
1.30273
1.27986
1.33734
1.47627
1.52836
1.89534
2.32621
2.64724
0.675486
0.418315
0.255325
0.098031
0.10776
0.186106
0.361376
0.565937
0.826234
0.921463
0.994226
0.991105
1.08132
1.07634
1.10362
1.20508
1.34404
1.56166
1.88117
2.21846
0.498792
0.321448
0.15079
0.0918435
-0.0610287
0.120671
0.316422
0.441379
0.515995
0.675304
0.763475
0.854799
0.793381
0.913379
0.826341
0.894991
1.03389
1.17995
1.50473
1.77176
0.32332
0.185964
0.0371
-0.0258181
-0.0326842
0.0630913
0.1554
0.30887
0.404475
0.466659
0.565372
0.674457
0.573797
0.649049
0.651675
0.746926
0.8174
0.952
1.20924
1.3345
0.264139
0.176207
-0.0340508
-0.0382851
-0.0362725
0.00669407
0.118754
0.192267
0.305051
0.351186
0.392042
0.492282
0.468448
0.483322
0.461425
0.496659
0.508464
0.734764
0.879562
0.991529
0.139683
0.0398003
-0.022054
-0.0386641
-0.048019
-0.0091853
0.015415
0.150403
0.0933258
0.202972
0.201202
0.300513
0.2768
0.267396
0.25524
0.259692
0.338176
0.380431
0.508782
0.583118
0.0379026
0.0183377
0.00777785
-0.0082774
-0.0228177
-0.0018901
0.0164493
0.0700586
-0.000436512
0.0935085
0.148258
0.0885827
0.152293
0.0391828
0.100947
0.145156
0.0926958
0.178522
0.160794
0.181394
0.251596
-0.186894
-0.574045
-0.684728
-0.805384
-0.662235
-0.541026
-0.341544
-0.089933
0.105529
0.180272
0.312844
0.375163
0.345208
0.404801
0.475364
0.803639
1.24218
1.71655
2.21092
0.0958357
-0.25446
-0.578422
-0.657704
-0.759448
-0.739524
-0.577697
-0.342945
-0.158689
0.0299996
0.099184
0.200079
0.240865
0.261331
0.329099
0.443578
0.732362
1.00989
1.4258
1.88388
-0.0943194
-0.313231
-0.56346
-0.699333
-0.768328
-0.555255
-0.581793
-0.42865
-0.232189
-0.0540242
0.00783472
0.186881
0.184044
0.244593
0.221753
0.367115
0.536937
0.814226
1.12427
1.59118
-0.171963
-0.246472
-0.504975
-0.620623
-0.70972
-0.584241
-0.512664
-0.36658
-0.245296
-0.0465149
-0.00363446
0.0680653
0.117616
0.134289
0.164888
0.247343
0.434759
0.638012
0.990917
1.33377
-0.072744
-0.349981
-0.442561
-0.528628
-0.425092
-0.450376
-0.4007
-0.261289
-0.171646
-0.179098
-0.0194256
0.0306016
0.0623319
0.067303
0.0661351
0.173191
0.339778
0.470238
0.753031
0.973868
-0.119876
-0.199536
-0.374605
-0.335431
-0.365505
-0.404955
-0.353774
-0.294609
-0.235529
-0.0689924
-0.0709553
0.00917157
0.0634224
-0.0119945
0.0929406
0.101198
0.254518
0.366005
0.539914
0.699104
-0.0625087
-0.143508
-0.230202
-0.272522
-0.240831
-0.178663
-0.136266
-0.0979411
-0.120054
-0.062055
0.00301305
-0.0334692
-0.0191365
0.0324806
0.0812832
0.0643906
0.0700644
0.221929
0.332919
0.456615
-0.0412824
-0.0271325
-0.145079
-0.0184524
-0.0711707
-0.127354
-0.159999
0.0165158
-0.0173767
0.0112276
0.00208396
-0.013479
-0.050783
-0.0392758
0.084574
-0.00119269
-0.00843122
0.132416
0.0698479
0.0700746
-0.625469
-1.06728
-1.42139
-1.7362
-1.77402
-1.7657
-1.67503
-1.46303
-1.21488
-1.08003
-0.938955
-0.899968
-0.779025
-0.76971
-0.606232
-0.397489
-0.146106
0.337096
0.942362
1.45729
-0.594855
-1.00003
-1.31445
-1.58384
-1.64356
-1.65381
-1.50682
-1.37275
-1.18973
-1.07448
-0.93174
-0.776595
-0.800577
-0.659716
-0.523827
-0.432637
-0.116659
0.254271
0.787013
1.23815
-0.615769
-0.939262
-1.15483
-1.44062
-1.4517
-1.37952
-1.36893
-1.17985
-1.0314
-0.896584
-0.88377
-0.712232
-0.669164
-0.613041
-0.493538
-0.288508
-0.0815777
0.166877
0.654528
0.9897
-0.57611
-0.845083
-1.0292
-1.16733
-1.28172
-1.23464
-1.15548
-1.03865
-0.990759
-0.853449
-0.704662
-0.698832
-0.543207
-0.526914
-0.450597
-0.324454
-0.133764
0.181236
0.504428
0.859193
-0.4813
-0.606136
-0.812615
-0.928656
-0.970454
-0.94288
-0.91637
-0.77694
-0.728013
-0.610164
-0.624673
-0.553337
-0.446694
-0.440683
-0.324887
-0.286465
-0.127235
0.123557
0.33431
0.658948
-0.361845
-0.51581
-0.548696
-0.754018
-0.759376
-0.772817
-0.662661
-0.592684
-0.552436
-0.489825
-0.462549
-0.387159
-0.382933
-0.327419
-0.28589
-0.24899
-0.00940702
0.135573
0.264253
0.417689
-0.222603
-0.302288
-0.374224
-0.408659
-0.372868
-0.337776
-0.455355
-0.375076
-0.365388
-0.280239
-0.238582
-0.227878
-0.16821
-0.179165
-0.160103
-0.163658
-0.0432105
0.0385489
0.232276
0.28008
-0.0703838
-0.0661875
-0.109332
-0.124249
-0.102343
-0.162046
-0.0640434
-0.143129
-0.0960968
-0.0885191
-0.122681
-0.10796
-0.0080527
-0.0761367
-0.0540217
-0.0514398
5.78881e-05
0.0178778
0.0243759
0.0422417
-1.26849
-1.7231
-2.17929
-2.48003
-2.66584
-2.73772
-2.59199
-2.4811
-2.24206
-2.14195
-1.99826
-1.8945
-1.80848
-1.59706
-1.49462
-1.19584
-0.888786
-0.308107
0.259386
0.862305
-1.10406
-1.59389
-1.9938
-2.20769
-2.37737
-2.40247
-2.26136
-2.22997
-2.07354
-1.91231
-1.88352
-1.64446
-1.60514
-1.46363
-1.31522
-1.10842
-0.730616
-0.24412
0.187912
0.802929
-1.0719
-1.38147
-1.67565
-1.96545
-2.05947
-2.11362
-2.09458
-1.94948
-1.82235
-1.63768
-1.59322
-1.45999
-1.43138
-1.32605
-1.14446
-0.909336
-0.674379
-0.317456
0.189075
0.569141
-0.891138
-1.18958
-1.44226
-1.73587
-1.72596
-1.77266
-1.75026
-1.62564
-1.58069
-1.43805
-1.3244
-1.32503
-1.13275
-1.07147
-1.04417
-0.811423
-0.579467
-0.217341
0.104622
0.440498
-0.7341
-0.93454
-1.16277
-1.37191
-1.37656
-1.44298
-1.38246
-1.3203
-1.23437
-1.07718
-1.03981
-0.960223
-0.910852
-0.899716
-0.826092
-0.647264
-0.474252
-0.165508
0.144872
0.315792
-0.576324
-0.713572
-0.811602
-0.893934
-1.00239
-1.06051
-1.01612
-0.989023
-0.885357
-0.804127
-0.724845
-0.68126
-0.649534
-0.622524
-0.523149
-0.470772
-0.306058
-0.171614
0.0592082
0.296294
-0.31753
-0.458586
-0.488711
-0.597851
-0.625236
-0.621501
-0.635309
-0.625031
-0.508496
-0.447969
-0.435996
-0.466918
-0.400883
-0.41411
-0.377886
-0.249078
-0.184331
-0.124723
0.0136581
0.202033
-0.0891023
-0.144454
-0.158719
-0.183597
-0.200123
-0.191029
-0.222396
-0.182054
-0.112519
-0.156144
-0.213622
-0.194226
-0.132738
-0.063639
-0.146925
-0.0393837
-0.0622583
-0.00122408
0.0205748
0.0959858
-1.59259
-2.08209
-2.67576
-3.09405
-3.29623
-3.4224
-3.34388
-3.34581
-3.09092
-3.00599
-2.86118
-2.61972
-2.58571
-2.34367
-2.13802
-1.79502
-1.386
-0.869906
-0.11234
0.562473
-1.48684
-2.00455
-2.48506
-2.74142
-2.92606
-3.02471
-2.99616
-2.90227
-2.71263
-2.6376
-2.58129
-2.39434
-2.23867
-2.15422
-1.90316
-1.58265
-1.23079
-0.614562
-0.12854
0.476983
-1.33034
-1.71097
-2.13263
-2.36108
-2.5294
-2.60654
-2.62137
-2.51042
-2.45493
-2.36538
-2.19866
-2.05883
-1.90366
-1.77291
-1.60454
-1.36619
-1.09383
-0.564571
-0.157547
0.346582
-1.19889
-1.45822
-1.84048
-2.03321
-2.14964
-2.18341
-2.1303
-2.10191
-2.03281
-1.92026
-1.78809
-1.67608
-1.6179
-1.55002
-1.34193
-1.13054
-0.89817
-0.589241
-0.10084
0.278261
-0.970726
-1.1416
-1.35074
-1.59469
-1.74334
-1.75037
-1.6856
-1.63681
-1.64533
-1.52349
-1.47612
-1.38609
-1.29029
-1.18958
-1.07528
-0.845406
-0.652146
-0.466483
-0.0611878
0.240819
-0.73202
-0.875725
-1.03012
-1.15967
-1.21767
-1.25677
-1.28392
-1.17123
-1.15476
-1.08374
-0.999581
-0.933503
-0.93993
-0.86299
-0.831137
-0.627882
-0.513991
-0.283006
0.00260884
0.148762
-0.452731
-0.552548
-0.611341
-0.741698
-0.726084
-0.753187
-0.836157
-0.70248
-0.666935
-0.664712
-0.59068
-0.597377
-0.552369
-0.579272
-0.475262
-0.438973
-0.3068
-0.210892
-0.100293
0.0565827
-0.118335
-0.18114
-0.220575
-0.228665
-0.300425
-0.193347
-0.272568
-0.245226
-0.156887
-0.237755
-0.198112
-0.21401
-0.184244
-0.211894
-0.157674
-0.135446
-0.0609676
-0.0337596
-0.0328148
0.035384
-1.76007
-2.36198
-2.95916
-3.46411
-3.7435
-3.80847
-3.9426
-3.88231
-3.80479
-3.61888
-3.4359
-3.27158
-3.15016
-2.89559
-2.59951
-2.21077
-1.64117
-1.00979
-0.30342
0.479513
-1.62895
-2.12954
-2.66375
-2.99912
-3.33984
-3.39134
-3.39132
-3.39039
-3.30602
-3.18459
-3.00284
-2.87892
-2.74557
-2.55029
-2.23807
-1.95943
-1.4844
-0.897203
-0.222658
0.356053
-1.4485
-1.91064
-2.31989
-2.61176
-2.84345
-2.97522
-2.96562
-2.96151
-2.92703
-2.76238
-2.63087
-2.51335
-2.3335
-2.24513
-1.93468
-1.62621
-1.22956
-0.736031
-0.177636
0.318237
-1.29415
-1.6523
-1.91681
-2.15093
-2.42472
-2.46526
-2.46606
-2.45263
-2.35411
-2.3496
-2.19358
-2.04551
-1.94433
-1.85104
-1.63365
-1.39203
-0.998679
-0.663861
-0.157675
0.203053
-1.00851
-1.25576
-1.56467
-1.77575
-1.93398
-1.92205
-1.9664
-1.94832
-1.90942
-1.80818
-1.69696
-1.62483
-1.59368
-1.4345
-1.24415
-1.07199
-0.82122
-0.509191
-0.124181
0.183794
-0.817275
-0.906365
-1.09501
-1.30073
-1.32726
-1.43785
-1.39953
-1.40117
-1.34806
-1.28204
-1.25479
-1.2
-1.16669
-1.01886
-0.86909
-0.79793
-0.584102
-0.309291
-0.100904
0.0734176
-0.46845
-0.541055
-0.713413
-0.766677
-0.812354
-0.878567
-0.898732
-0.852528
-0.876816
-0.819107
-0.698377
-0.738146
-0.732268
-0.625325
-0.587494
-0.463439
-0.345435
-0.274488
-0.056318
0.0145372
-0.201237
-0.151418
-0.189376
-0.284181
-0.248196
-0.299219
-0.284615
-0.206141
-0.242826
-0.27754
-0.242742
-0.260036
-0.282819
-0.201491
-0.182043
-0.16553
-0.10742
-0.1477
-0.0708872
0.0947469
-1.63101
-2.29069
-2.95219
-3.50587
-3.80214
-4.05699
-4.13952
-4.12975
-4.11635
-3.91325
-3.80073
-3.68907
-3.44645
-3.15917
-2.82804
-2.31687
-1.75164
-1.01839
-0.229556
0.635359
-1.5189
-2.12438
-2.70628
-3.12431
-3.46421
-3.66433
-3.65212
-3.65773
-3.61643
-3.51241
-3.36389
-3.20786
-3.02956
-2.81459
-2.46771
-2.0461
-1.56574
-0.908423
-0.149592
0.505781
-1.43538
-1.78039
-2.39294
-2.67555
-2.92361
-3.16104
-3.19358
-3.19954
-3.08179
-3.00019
-2.90555
-2.68578
-2.53585
-2.30136
-2.07524
-1.69976
-1.26189
-0.763805
-0.0830092
0.377723
-1.20074
-1.56871
-1.97093
-2.2938
-2.51304
-2.64907
-2.66631
-2.63217
-2.60742
-2.47431
-2.36586
-2.32347
-2.15733
-2.0016
-1.76175
-1.4809
-1.09276
-0.610905
-0.165558
0.283484
-0.976256
-1.31839
-1.58552
-1.727
-1.95696
-2.04482
-2.06401
-2.14616
-2.05504
-1.96425
-1.91061
-1.86047
-1.70004
-1.6288
-1.38837
-1.19088
-0.853174
-0.460819
-0.0578287
0.18244
-0.828685
-0.960467
-1.16661
-1.24261
-1.38498
-1.53434
-1.50184
-1.50443
-1.4859
-1.43526
-1.30844
-1.27076
-1.1856
-1.1273
-0.967002
-0.802445
-0.619516
-0.430612
-0.0627214
0.18567
-0.371649
-0.557865
-0.711748
-0.824763
-0.885908
-0.90257
-0.950546
-0.896723
-0.896325
-0.825043
-0.802409
-0.711456
-0.75025
-0.714093
-0.577588
-0.481661
-0.305851
-0.192697
-0.0935746
0.0631992
-0.158585
-0.217975
-0.251519
-0.281127
-0.241298
-0.312006
-0.278548
-0.283879
-0.223027
-0.252844
-0.341488
-0.223652
-0.242402
-0.272034
-0.150922
-0.186126
-0.117718
-0.067137
0.0132321
0.00793816
-1.32328
-2.01729
-2.71588
-3.32193
-3.7543
-4.02556
-4.19843
-4.18812
-4.18698
-4.02855
-3.90669
-3.73877
-3.44131
-3.15204
-2.64137
-2.16197
-1.4829
-0.724783
0.126734
0.974482
-1.23915
-1.82988
-2.43786
-2.94517
-3.32168
-3.62213
-3.64029
-3.78117
-3.67361
-3.59672
-3.4587
-3.27893
-3.09072
-2.64828
-2.3823
-1.96273
-1.33604
-0.607009
0.0556321
0.852595
-1.07379
-1.60739
-2.11817
-2.57951
-2.85032
-3.13956
-3.18079
-3.25616
-3.24555
-3.10607
-2.9449
-2.79636
-2.59882
-2.42159
-2.10086
-1.62607
-1.11342
-0.52504
0.0891758
0.708501
-0.981993
-1.35295
-1.86148
-2.12686
-2.46415
-2.57222
-2.64318
-2.63314
-2.61679
-2.57639
-2.40024
-2.3152
-2.1505
-1.97134
-1.68098
-1.39184
-0.96341
-0.438827
0.0676248
0.540189
-0.822997
-1.12971
-1.43207
-1.69222
-1.91566
-2.06143
-2.09717
-2.13671
-2.08315
-2.07316
-1.83691
-1.90114
-1.68818
-1.47236
-1.38396
-1.10498
-0.740903
-0.328549
0.0319723
0.427708
-0.618478
-0.785655
-1.05922
-1.25067
-1.42788
-1.44077
-1.50755
-1.46632
-1.45248
-1.44728
-1.34691
-1.27778
-1.19654
-1.09914
-0.87134
-0.83388
-0.561344
-0.26359
0.0745533
0.314626
-0.385511
-0.464292
-0.665937
-0.797431
-0.839032
-0.894189
-0.932264
-0.897317
-0.885919
-0.875753
-0.845548
-0.789201
-0.723513
-0.742127
-0.552365
-0.499587
-0.341586
-0.169057
0.0251005
0.135442
-0.197112
-0.149814
-0.264182
-0.245703
-0.276013
-0.285343
-0.240085
-0.269157
-0.330002
-0.262844
-0.291914
-0.324883
-0.217052
-0.18272
-0.158709
-0.142148
-0.0665872
-0.0357139
-0.0414075
0.106931
-0.706371
-1.43524
-2.14016
-2.90459
-3.36813
-3.71409
-3.90769
-3.97031
-3.9709
-3.79198
-3.61377
-3.52675
-3.1997
-2.76978
-2.2851
-1.65232
-1.05394
-0.216584
0.816698
1.69289
-0.803274
-1.34683
-1.98887
-2.53561
-3.04659
-3.29022
-3.53197
-3.45566
-3.51588
-3.46336
-3.20592
-3.10931
-2.8188
-2.50556
-2.0897
-1.5522
-1.03398
-0.230816
0.645399
1.40333
-0.648167
-1.26309
-1.79632
-2.27294
-2.58122
-2.9274
-2.91494
-3.02358
-3.03309
-2.91559
-2.84617
-2.6521
-2.44108
-2.10426
-1.74377
-1.36463
-0.788628
-0.11665
0.573131
1.23389
-0.61401
-1.02127
-1.49053
-1.88439
-2.19699
-2.37302
-2.44291
-2.5176
-2.5003
-2.4898
-2.36001
-2.20001
-2.02963
-1.70612
-1.4823
-1.14186
-0.655267
-0.214591
0.462151
0.902075
-0.548531
-0.816108
-1.20976
-1.5938
-1.76073
-1.9432
-2.00661
-2.0109
-1.88492
-1.92625
-1.80502
-1.66773
-1.57088
-1.36139
-1.14059
-0.899568
-0.518348
-0.153586
0.443073
0.711707
-0.432791
-0.671321
-0.879106
-1.08846
-1.30289
-1.35808
-1.33866
-1.46169
-1.42869
-1.40794
-1.32685
-1.18083
-1.13055
-1.00051
-0.816615
-0.614749
-0.390196
-0.139984
0.194405
0.529952
-0.205677
-0.399375
-0.557638
-0.709897
-0.740464
-0.835797
-0.904554
-0.831291
-0.856166
-0.86153
-0.818945
-0.755802
-0.69725
-0.609168
-0.506742
-0.400632
-0.154898
-0.0596802
0.152822
0.346683
-0.0698902
-0.144052
-0.163163
-0.205319
-0.250324
-0.307803
-0.181354
-0.298209
-0.264368
-0.281997
-0.305156
-0.245219
-0.186933
-0.190011
-0.195225
-0.101233
-0.0879852
-0.0418398
0.0286943
0.108828
0.185596
-0.524744
-1.41075
-2.16434
-2.64571
-3.07312
-3.33462
-3.47198
-3.50184
-3.44478
-3.21794
-2.91455
-2.65159
-2.22623
-1.6835
-1.0612
-0.342648
0.642361
1.73368
2.59461
0.0771587
-0.64318
-1.3363
-1.90804
-2.44952
-2.74528
-2.98726
-3.02129
-3.09834
-2.97073
-2.8689
-2.59162
-2.38128
-2.00441
-1.51087
-0.982064
-0.252403
0.477522
1.42392
2.20021
-0.0772414
-0.552593
-1.20668
-1.69807
-2.10669
-2.49291
-2.53151
-2.6063
-2.64938
-2.55205
-2.46071
-2.30574
-2.03373
-1.67916
-1.26671
-0.816806
-0.174767
0.470285
1.17254
1.89215
-0.105303
-0.521614
-0.996845
-1.48771
-1.80034
-1.97901
-2.16023
-2.20094
-2.19179
-2.18766
-2.12688
-1.83818
-1.66726
-1.37356
-1.05757
-0.67803
-0.19541
0.346644
0.984299
1.51369
-0.148398
-0.477218
-0.769429
-1.12829
-1.37954
-1.6032
-1.72705
-1.75969
-1.7641
-1.67717
-1.56796
-1.47014
-1.2969
-1.15358
-0.846039
-0.521592
-0.194178
0.195475
0.731654
1.11236
-0.100787
-0.367797
-0.617907
-0.812382
-1.08217
-1.12893
-1.20612
-1.18094
-1.27152
-1.15069
-1.2471
-1.01618
-0.900849
-0.803357
-0.653227
-0.318742
-0.169038
0.211713
0.563814
0.84575
-0.0751743
-0.218344
-0.362709
-0.45785
-0.592979
-0.718604
-0.727649
-0.780238
-0.805051
-0.760936
-0.69216
-0.612747
-0.585615
-0.425873
-0.419652
-0.24126
-0.0365654
0.12811
0.319539
0.512425
-0.0212121
-0.1398
-0.085081
-0.21354
-0.222773
-0.314659
-0.17721
-0.23566
-0.270525
-0.257263
-0.230814
-0.180142
-0.18627
-0.112549
-0.14789
-0.0772187
-0.0129759
0.0593328
0.148167
0.191436
1.40199
0.487092
-0.360846
-1.20556
-1.72364
-2.20254
-2.43693
-2.6795
-2.72971
-2.58462
-2.44098
-2.15792
-1.91241
-1.36992
-0.770651
-0.111581
0.741652
1.73447
2.85722
3.84057
1.11606
0.312233
-0.413641
-1.07792
-1.61819
-1.95346
-2.20901
-2.34853
-2.34932
-2.34213
-2.17629
-1.88319
-1.61041
-1.23353
-0.716349
-0.0752972
0.656721
1.52125
2.43774
3.29189
0.792415
0.202452
-0.381749
-0.954599
-1.44587
-1.70196
-1.93812
-2.05096
-1.98972
-2.00887
-1.84585
-1.63342
-1.4005
-1.08846
-0.601555
-0.0820356
0.545285
1.29667
2.10156
2.78364
0.626485
0.181432
-0.35582
-0.816989
-1.1696
-1.4068
-1.64042
-1.7588
-1.76225
-1.66837
-1.58693
-1.35584
-1.20376
-0.862961
-0.532548
-0.0525498
0.434943
1.01654
1.67731
2.29963
0.466292
0.0586952
-0.357526
-0.688924
-0.906368
-1.15724
-1.32879
-1.30164
-1.37571
-1.32731
-1.24729
-1.13834
-0.963153
-0.73192
-0.370686
-0.09351
0.313351
0.82501
1.33356
1.72655
0.286008
0.0796526
-0.248831
-0.54695
-0.732417
-0.854017
-0.963939
-0.928724
-0.978791
-0.948648
-0.921852
-0.832575
-0.702019
-0.489888
-0.311105
-0.0542802
0.209437
0.622932
0.939406
1.31842
0.129896
0.0610894
-0.130566
-0.406817
-0.400182
-0.47384
-0.606221
-0.656064
-0.635751
-0.594278
-0.523495
-0.471484
-0.338198
-0.316203
-0.166838
-0.0136651
0.14524
0.38318
0.556476
0.704316
0.0291114
0.0364159
-0.105287
-0.182748
-0.137884
-0.0962135
-0.221829
-0.147532
-0.211452
-0.20517
-0.165441
-0.188011
-0.138044
-0.125528
-0.0379081
0.00797886
-0.00197122
0.15431
0.20527
0.265358
2.88738
2.00359
0.982929
0.194718
-0.42968
-0.96911
-1.37735
-1.52231
-1.54586
-1.48074
-1.35931
-1.0433
-0.704678
-0.172913
0.474709
1.19844
2.1154
3.20855
4.30856
5.33757
2.38492
1.58299
0.769324
0.0921979
-0.51271
-0.905295
-1.15015
-1.36365
-1.42762
-1.38917
-1.233
-0.932771
-0.628286
-0.168689
0.371948
1.02658
1.87751
2.73649
3.75813
4.58061
1.93811
1.23755
0.667652
0.0448591
-0.453844
-0.8724
-1.10174
-1.24562
-1.30023
-1.17664
-1.09344
-0.847348
-0.603116
-0.211607
0.265852
0.873466
1.57089
2.3053
3.19678
3.84534
1.50178
1.02863
0.463312
-0.040728
-0.460599
-0.777022
-0.934357
-0.95802
-1.09362
-0.969841
-0.855733
-0.737595
-0.448472
-0.147676
0.208413
0.739917
1.29367
1.90208
2.48502
3.13473
1.05781
0.737102
0.306997
-0.0693104
-0.39918
-0.600741
-0.777867
-0.920118
-0.823537
-0.79041
-0.683508
-0.534711
-0.420669
-0.17301
0.21984
0.573949
0.966096
1.41511
1.95734
2.51312
0.780449
0.529335
0.247607
-0.0403137
-0.243174
-0.392033
-0.580126
-0.621458
-0.637347
-0.597935
-0.548352
-0.382707
-0.332358
-0.0991101
0.142965
0.377762
0.720535
1.03358
1.42463
1.75001
0.401014
0.261108
0.0929263
-0.0587056
-0.147014
-0.325785
-0.318758
-0.361684
-0.415613
-0.371884
-0.321919
-0.283144
-0.22052
-0.147094
0.0485783
0.180742
0.433377
0.609657
0.792794
1.04966
0.156621
0.0988942
0.133802
0.00287153
-0.0632264
-0.0769603
-0.0930254
-0.133059
-0.157421
-0.15413
-0.0600438
-0.067168
-0.132785
-0.00374733
-0.0115821
0.0817702
0.118629
0.240995
0.29542
0.344619
4.6043
3.66613
2.75681
1.81311
1.10752
0.572252
0.166389
-0.0120383
-0.108383
-0.0758716
0.068701
0.386908
0.733784
1.32099
1.94585
2.77542
3.80797
4.8143
6.02641
7.07325
3.89423
3.09264
2.21588
1.48282
0.82008
0.387084
0.0700453
-0.0818196
-0.179316
-0.136864
-0.00447318
0.268736
0.658193
1.14753
1.75433
2.40179
3.26638
4.16959
5.21203
6.12977
3.15236
2.57963
1.79839
1.19806
0.73847
0.287158
0.0289874
-0.185224
-0.219409
-0.133474
-0.0234641
0.137972
0.553885
0.872806
1.45072
2.06276
2.77833
3.51872
4.43611
5.17165
2.53778
2.03801
1.5289
0.962252
0.561041
0.206502
-0.0483118
-0.177437
-0.19328
-0.178351
-0.0218771
0.129931
0.345052
0.695577
1.16818
1.60267
2.25077
2.88446
3.65428
4.188
1.94686
1.62411
1.13038
0.716329
0.328565
0.0521327
-0.0281192
-0.122858
-0.126894
-0.111579
-0.0573098
0.0544775
0.278592
0.524264
0.877214
1.27755
1.80809
2.23366
2.73166
3.2489
1.4424
1.03076
0.730774
0.515318
0.218498
0.0556425
-0.042163
-0.116074
-0.157894
-0.137364
-0.044816
-0.00244933
0.274213
0.406561
0.660817
0.938946
1.21033
1.61437
2.03589
2.36072
0.789411
0.646843
0.477126
0.280562
0.119544
-0.0263123
-0.0564519
-0.0697423
-0.0511716
-0.0537949
-0.0268062
0.0112259
0.0735451
0.295857
0.379616
0.546375
0.777806
1.02721
1.17368
1.40098
0.277254
0.22473
0.125449
0.0562952
0.0181973
0.0303774
-0.0117478
0.00979887
-0.0555954
-0.0386001
-0.0257749
-0.0154433
0.0442348
0.150364
0.0925549
0.228829
0.24762
0.340447
0.37809
0.480704
6.64399
5.71784
4.63383
3.7112
2.97891
2.48344
1.95683
1.72663
1.61964
1.73094
1.85635
2.06503
2.55277
3.12608
3.78138
4.74136
5.71794
6.85777
8.05439
9.15181
5.59671
4.81567
3.9325
3.15715
2.4863
2.00176
1.66143
1.42391
1.39341
1.35172
1.57117
1.78263
2.16358
2.70224
3.29762
4.07
4.92427
5.86514
6.97104
7.91826
4.68623
4.03413
3.29877
2.53775
1.99729
1.65168
1.36005
1.23051
1.11544
1.23702
1.18231
1.51729
1.84515
2.235
2.78032
3.41628
4.21017
4.99588
5.92557
6.66777
3.79366
3.25749
2.58602
2.06428
1.59044
1.30511
1.09916
0.980481
0.852688
0.959035
0.997107
1.16928
1.46894
1.82642
2.21181
2.81014
3.43981
4.11725
4.81907
5.41593
2.83485
2.46926
2.0461
1.61031
1.24467
1.05916
0.787167
0.710891
0.638338
0.667729
0.747508
0.894987
1.07604
1.36522
1.73554
2.16131
2.6026
3.21548
3.76614
4.22338
2.09245
1.69315
1.41548
1.08393
0.834516
0.737481
0.608488
0.500472
0.406043
0.381821
0.545956
0.626099
0.829164
0.969762
1.28126
1.58077
1.8864
2.21455
2.63512
3.06091
1.21394
0.962312
0.820996
0.695097
0.498056
0.428254
0.277385
0.307018
0.285001
0.271767
0.299337
0.298519
0.533341
0.541624
0.758744
0.976591
1.09135
1.43987
1.60728
1.77943
0.427044
0.318477
0.296036
0.23281
0.187061
0.0556141
0.0778761
0.0385578
0.0726457
0.0692061
0.0776997
0.147879
0.156644
0.204648
0.261434
0.281908
0.354229
0.396367
0.486359
0.579673
8.99269
7.95801
6.87581
5.90419
5.14083
4.47703
4.04328
3.78955
3.65547
3.61755
3.87355
4.16922
4.66662
5.1699
5.99467
6.91707
7.93153
9.08746
10.3833
11.5649
7.70584
6.79177
5.82893
5.04883
4.34575
3.84898
3.49289
3.22874
3.06931
3.15453
3.22057
3.52046
3.98643
4.45215
5.14304
5.90013
6.81244
7.85775
8.98674
9.98789
6.32876
5.7254
4.85722
4.19074
3.65317
3.09656
2.8703
2.72608
2.59663
2.60782
2.78033
2.91306
3.30794
3.78495
4.33054
4.98061
5.71719
6.61161
7.56101
8.45942
5.09878
4.63119
3.92173
3.33443
2.90308
2.53856
2.30083
2.16654
2.121
2.06795
2.18669
2.39578
2.66006
3.05991
3.46189
4.0422
4.77458
5.42641
6.14068
6.84414
3.96687
3.48968
2.97091
2.57396
2.23601
1.94386
1.77639
1.65577
1.57844
1.61035
1.65817
1.83211
2.03456
2.4214
2.70663
3.20405
3.66593
4.17327
4.79362
5.31719
2.81419
2.5401
2.20301
1.73964
1.59652
1.37314
1.18357
1.09782
1.16601
1.14086
1.19586
1.30245
1.52651
1.64546
1.92471
2.20824
2.62816
2.9261
3.43978
3.78863
1.69328
1.47761
1.31147
1.04087
0.98168
0.842012
0.748235
0.657274
0.656437
0.703823
0.70285
0.752128
0.913883
0.970826
1.12059
1.33234
1.56334
1.82624
2.02805
2.34199
0.583647
0.481161
0.442547
0.406956
0.302571
0.308651
0.180642
0.262206
0.218546
0.209575
0.191846
0.27573
0.317415
0.361373
0.355304
0.46159
0.545953
0.651073
0.707264
0.766474
11.4147
10.3819
9.30246
8.25693
7.44832
6.86919
6.41723
6.04753
5.88045
5.94104
6.13551
6.42156
6.85198
7.52152
8.32487
9.21476
10.3016
11.4434
12.8323
14.0459
9.76692
8.89775
7.93364
7.05953
6.35175
5.8383
5.4246
5.1299
5.00399
5.04843
5.21407
5.41766
5.9178
6.54581
7.13931
7.94532
8.9014
9.88125
11.108
12.1209
8.16487
7.51123
6.5787
5.8917
5.3731
4.86403
4.51515
4.28556
4.24879
4.20543
4.32505
4.61243
4.98749
5.47268
6.0705
6.7428
7.51195
8.41949
9.34963
10.1506
6.58756
5.99967
5.35198
4.81125
4.26892
3.89499
3.63383
3.49091
3.37294
3.39211
3.55282
3.78547
4.04285
4.37468
4.93315
5.39118
6.06469
6.85134
7.65614
8.31173
5.0519
4.6521
4.14535
3.63572
3.26563
2.99774
2.82572
2.66617
2.61216
2.57313
2.68564
2.89679
3.14891
3.38402
3.78948
4.1974
4.7013
5.25074
5.95003
6.47723
3.62969
3.2334
2.89204
2.58638
2.35554
2.14976
1.96033
1.92367
1.83121
1.86574
1.91187
1.98187
2.22345
2.40867
2.64839
2.99618
3.32838
3.85298
4.18418
4.49461
2.15104
1.98908
1.73794
1.54041
1.39169
1.29829
1.13637
1.06673
1.12001
1.1081
1.15751
1.23618
1.30939
1.44766
1.61738
1.86066
2.02727
2.31064
2.57225
2.7447
0.715714
0.658837
0.62084
0.589333
0.435437
0.396906
0.380473
0.431891
0.291282
0.408725
0.349324
0.43235
0.478365
0.517583
0.493655
0.634329
0.65451
0.81026
0.849663
1.0016
13.9403
12.8984
11.6538
10.744
9.89289
9.18097
8.68033
8.40771
8.14128
8.22226
8.44249
8.71814
9.21427
9.86204
10.6458
11.5896
12.6981
13.9574
15.3441
16.4907
11.8583
11.035
10.0548
9.12567
8.3621
7.82633
7.4118
7.07663
7.03021
7.04726
7.20226
7.53881
7.83678
8.41641
9.09965
9.98417
10.9319
11.9904
13.1508
14.1441
9.92353
9.12839
8.35812
7.62767
6.99787
6.51996
6.17161
5.96353
5.83804
5.85157
6.00756
6.25067
6.58557
7.14231
7.6617
8.35155
9.2178
10.0685
11.1175
11.9371
7.94318
7.39543
6.77232
6.19122
5.64912
5.28262
5.01776
4.81261
4.5903
4.66553
4.86687
5.05976
5.31241
5.77578
6.25411
6.74569
7.5271
8.28279
9.03767
9.69317
6.13751
5.74475
5.17176
4.72582
4.40425
4.03927
3.83464
3.62019
3.59986
3.56481
3.65877
3.81039
4.05826
4.41134
4.78792
5.22579
5.81074
6.3731
7.01186
7.54388
4.38777
4.06918
3.6191
3.32101
3.10853
2.87723
2.70861
2.55961
2.4649
2.53686
2.63665
2.74239
2.91265
3.17419
3.45931
3.77452
4.1946
4.49678
4.99602
5.35502
2.6076
2.5318
2.21722
2.02142
1.84466
1.7111
1.6611
1.57182
1.50649
1.47333
1.58358
1.65239
1.75946
1.8894
2.02371
2.22979
2.47126
2.7407
2.98604
3.20557
0.820503
0.814414
0.827614
0.665017
0.692026
0.620763
0.544199
0.50512
0.557277
0.570998
0.501445
0.576518
0.605929
0.642051
0.622357
0.704031
0.927373
0.954536
0.943783
1.121
15.9131
14.8876
13.7444
12.622
11.7548
11.1144
10.5593
10.3091
10.0742
10.0297
10.2789
10.5811
11.07
11.7789
12.5721
13.5599
14.7523
15.9333
17.3406
18.4807
13.6042
12.5784
11.5813
10.7006
10.0201
9.41143
8.94471
8.6308
8.52552
8.52125
8.63917
8.93441
9.41986
10.0007
10.7091
11.5581
12.4984
13.6398
14.8546
15.7945
11.2455
10.5077
9.66948
8.86622
8.23849
7.80091
7.39096
7.16105
7.11476
7.06827
7.18512
7.49244
7.80233
8.30722
8.97239
9.68798
10.4886
11.4008
12.3713
13.2653
9.01326
8.46256
7.84449
7.17791
6.63854
6.23153
5.93167
5.72944
5.63346
5.72239
5.77124
6.01395
6.31089
6.71324
7.23721
7.78228
8.54216
9.33912
10.0934
10.7322
7.01903
6.46754
6.00387
5.52595
5.07672
4.75386
4.51383
4.42233
4.26977
4.39319
4.45167
4.6567
4.80498
5.15912
5.58167
6.02496
6.52011
7.15762
7.71613
8.27902
4.92917
4.55959
4.20205
3.90094
3.55552
3.41806
3.22236
3.04443
3.06816
3.10622
3.1398
3.22657
3.39792
3.6326
3.99688
4.31691
4.58985
5.07365
5.51669
5.95267
2.92574
2.81266
2.5447
2.36058
2.10524
2.03043
1.85673
1.81341
1.78201
1.83596
1.83242
1.96499
2.01087
2.16736
2.35125
2.56678
2.789
3.05855
3.38412
3.46612
0.991772
0.9312
0.813218
0.892416
0.731255
0.738256
0.626057
0.611755
0.600437
0.620657
0.587909
0.620199
0.713677
0.705098
0.755728
0.889803
0.927143
1.00391
1.12601
1.25868
)
;

boundaryField
{
    hotSide
    {
        type            calculated;
        value           nonuniform List<scalar> 
400
(
4.17583
3.30587
2.27843
1.3413
0.474937
-0.154541
-0.462152
-0.610082
-0.45832
-0.124599
0.521691
1.44653
2.69938
4.2249
5.9857
8.07307
10.4733
12.9508
15.5358
17.5719
3.88009
2.97621
1.95489
0.932329
0.0617363
-0.581593
-0.925294
-1.18695
-1.09432
-0.796352
-0.186351
0.755596
1.8025
3.35779
5.06292
7.16109
9.45167
11.93
14.5048
16.5565
3.65497
2.75109
1.71915
0.57696
-0.261641
-1.00831
-1.4909
-1.75758
-1.73086
-1.47159
-0.869552
-0.110283
0.973147
2.35422
4.16928
6.09145
8.38259
10.8625