/*--------------------------------*- C++ -*----------------------------------*\
| =========                 |                                                 |
| \\      /  F ield         | OpenFOAM: The Open Source CFD Toolbox           |
|  \\    /   O peration     | Version:  2212                                  |
|   \\  /    A nd           | Website:  www.openfoam.com                      |
|    \\/     M anipulation  |                                                 |
\*---------------------------------------------------------------------------*/
FoamFile
{
    version     2.0;
    format      ascii;
    arch        "LSB;label=32;scalar=64";
    class       volScalarField;
    location    "0";
    object      relativeErrorField;
}
// * * * * * * * * * * * * * * * * * * * * * * * * * * * * * * * * * * * * * //

dimensions      [0 0 0 1 0 0 0];

internalField   nonuniform List<scalar> 
3200
(
0.00893628
0.0079826
0.00722429
0.00711808
0.00740131
0.00783125
0.00862379
0.00939366
0.0101084
0.0108564
0.0113563
0.0112415
0.0111628
0.0108298
0.0108123
0.0108162
0.0112645
0.0121213
0.0129841
0.0140279
0.00717521
0.00660429
0.00619567
0.00573771
0.00617999
0.00641056
0.00723237
0.00787683
0.00845881
0.00903788
0.00955152
0.00948288
0.00937852
0.00923493
0.00934496
0.00918756
0.00968066
0.0104323
0.0112365
0.0123083
0.00606912
0.0054261
0.00500625
0.00487293
0.00471613
0.0050961
0.00572659
0.00656307
0.00701023
0.00742347
0.00770885
0.00786543
0.00769488
0.00767373
0.007758
0.00781707
0.00793625
0.00867359
0.00950438
0.0103319
0.00479855
0.00415529
0.00375208
0.00355549
0.00370404
0.00398199
0.00437112
0.00505078
0.00577564
0.00612067
0.00622714
0.00619807
0.00630975
0.00619226
0.00612066
0.00641637
0.0066442
0.00702552
0.00774112
0.0086703
0.00354371
0.00310517
0.00275324
0.00271201
0.00292625
0.00309075
0.00352989
0.00395545
0.0041293
0.0046639
0.00486915
0.00476539
0.00470707
0.00490631
0.00488911
0.00500976
0.00518214
0.00539438
0.00599006
0.00660857
0.00236249
0.00221858
0.00211032
0.00193027
0.00194805
0.00213751
0.00263142
0.00263217
0.00319782
0.00318208
0.00350534
0.00353064
0.00377427
0.00360284
0.00376668
0.00347053
0.00368274
0.00385569
0.00427825
0.00481496
0.00143088
0.0010906
0.00111572
0.0007725
0.00114762
0.00125128
0.00129129
0.00156949
0.00157826
0.00220092
0.00215909
0.00207257
0.00208174
0.0021125
0.00215839
0.00231447
0.00219886
0.00243145
0.0026348
0.00292297
0.000734671
0.000530737
0.000400671
0.000398675
0.000397279
0.000254362
0.000509473
0.000634252
0.000402497
0.000720321
0.000516951
0.000717866
0.000603047
0.000927174
0.000841306
0.000793952
0.000602776
0.000761976
0.00066364
0.00104455
0.00641938
0.0053734
0.00462156
0.00452189
0.00444065
0.0048931
0.00564054
0.00650322
0.00722008
0.00779817
0.00825078
0.00810823
0.00809352
0.00795485
0.00792098
0.00817218
0.00872453
0.00933732
0.0106336
0.0120423
0.00532577
0.00429651
0.00390306
0.0037157
0.00372955
0.00413044
0.00467604
0.00523072
0.00599003
0.00655724
0.00714321
0.00697861
0.00695888
0.00687694
0.00686541
0.00701625
0.00736431
0.00816029
0.00925806
0.0101768
0.00415271
0.00365341
0.00289176
0.00273452
0.00276394
0.00338088
0.00377871
0.00437442
0.00501506
0.00547268
0.00587704
0.0057283
0.00588182
0.00587475
0.00568367
0.00585086
0.00615372
0.00687671
0.00790635
0.00883234
0.00329737
0.00253129
0.00227418
0.00208739
0.00217036
0.00235751
0.00291956
0.00333649
0.00394769
0.00434527
0.00459363
0.00445385
0.00471359
0.0045882
0.0047337
0.00476667
0.00512867
0.00560729
0.00637188
0.00720073
0.00246431
0.00219567
0.0016635
0.00152077
0.00160233
0.00170826
0.00218787
0.00282161
0.00332995
0.00326537
0.00364479
0.0034525
0.00359865
0.00359217
0.00364476
0.00393079
0.00424288
0.0044795
0.00482125
0.00583016
0.00180639
0.00120187
0.00110715
0.000986346
0.00115153
0.00152728
0.00164189
0.00213129
0.00207856
0.00250729
0.00246448
0.00262717
0.00268979
0.00264944
0.00270052
0.00257358
0.00285802
0.00328012
0.00368054
0.00414776
0.00093835
0.00108227
0.000724539
0.000993174
0.00055171
0.000778149
0.00082766
0.00125882
0.00112924
0.0015066
0.00154182
0.00157499
0.00162732
0.00139598
0.00162331
0.00179257
0.00187794
0.00211405
0.00219957
0.00245092
0.00014671
0.000322432
0.000230596
0.000423286
0.00026288
0.000197625
0.000349516
9.3295e-05
0.000640256
0.00044752
0.000765375
0.000486102
0.000523833
0.000633579
0.000701522
0.000559467
0.000615023
0.000611424
0.000933141
0.000799007
0.00344245
0.0024211
0.00164708
0.00103297
0.00108313
0.0014645
0.00220551
0.00269275
0.00339364
0.00394953
0.00428518
0.00461163
0.00464709
0.00448566
0.00455569
0.0047834
0.0055202
0.0064545
0.00752082
0.0088419
0.00270504
0.00175365
0.000968466
0.000642123
0.000772254
0.00108643
0.00141909
0.00207169
0.00270633
0.00331349
0.00388408
0.00379674
0.00377153
0.00371068
0.00388397
0.00429549
0.00445553
0.00553571
0.00680576
0.00775522
0.0020161
0.00124714
0.000760093
0.000291367
0.000319757
0.000551342
0.001069
0.00167205
0.00243889
0.00271869
0.00293337
0.00292556
0.00319474
0.00318397
0.00326951
0.00357583
0.00399475
0.004649
0.00560842
0.00662136
0.0015174
0.000976999
0.000457747
0.000278433
0.00018476
0.000364834
0.000955485
0.00133143
0.00155534
0.00203474
0.0023004
0.00257658
0.00239325
0.00275809
0.00249834
0.00270952
0.00313435
0.00358193
0.00457343
0.00538996
0.00100297
0.000576464
0.000114894
7.98709e-05
0.000101002
0.000194759
0.000479243
0.000951749
0.0012456
0.00143665
0.00174054
0.00207703
0.00176809
0.00200162
0.00201168
0.00230817
0.00252871
0.00294823
0.00374849
0.00413974
0.000835901
0.000557339
0.000107627
0.000120917
0.000114469
2.11088e-05
0.000374207
0.000605494
0.000960259
0.00110523
0.00123381
0.00154963
0.00147525
0.001523
0.00145504
0.00156736
0.00160589
0.00232242
0.00278204
0.00313782
0.000451155
0.000128509
7.1178e-05
0.000124727
0.00015483
2.96025e-05
4.96578e-05
0.000484332
0.000300449
0.000653346
0.000647651
0.000967457
0.000891358
0.00086139
0.000822592
0.000837334
0.00109093
0.00122782
0.00164278
0.00188338
0.000124999
6.04696e-05
2.56441e-05
2.72867e-05
7.52067e-05
6.22871e-06
5.41995e-05
0.000230811
1.43797e-06
0.000308023
0.000488373
0.000291812
0.000501734
0.000129105
0.000332665
0.00047843
0.000305575
0.000588599
0.000530226
0.000598219
0.000722718
0.000536059
0.00164338
0.00195623
0.00229611
0.00188414
0.0015364
0.000968383
0.000254697
0.000298687
0.000510237
0.000885997
0.0010637
0.000980315
0.00115171
0.00135524
0.00229595
0.00355613
0.0049235
0.00635094
0.000280396
0.000743541
0.00168736
0.00191516
0.00220734
0.00214555
0.00167328
0.000991946
0.000458537
8.66386e-05
0.000286443
0.000578136
0.000696688
0.000756934
0.000954801
0.00128926
0.00213256
0.00294602
0.00416624
0.00551185
0.000281201
0.000932841
0.00167566
0.00207648
0.0022777
0.00164349
0.00171959
0.00126543
0.000684857
0.000159275
2.30985e-05
0.000551218
0.00054332
0.000722935
0.000656365
0.00108831
0.00159429
0.0024214
0.00334822
0.00474389
0.000522655
0.000748444
0.0015316
0.00187991
0.00214693
0.00176506
0.00154698
0.00110506
0.000738914
0.000140065
1.0944e-05
0.000205036
0.000354556
0.00040522
0.000498146
0.000748224
0.00131692
0.0019351
0.00300904
0.00405378
0.000225494
0.00108412
0.00136961
0.00163428
0.00131281
0.00138946
0.00123504
0.000804706
0.000528323
0.000551094
5.97736e-05
9.41911e-05
0.000191967
0.000207441
0.000204034
0.000534863
0.00105044
0.00145526
0.00233263
0.00301882
0.00037916
0.000630799
0.00118344
0.00105889
0.00115294
0.00127642
0.00111432
0.000927433
0.000741138
0.00021705
0.000223225
2.88601e-05
0.000199654
3.77806e-05
0.000292949
0.000319216
0.000803462
0.00115628
0.00170685
0.00221122
0.000201828
0.000463217
0.000742736
0.000878874
0.000776303
0.000575644
0.000438857
0.000315316
0.000386408
0.000199705
9.69656e-06
0.000107725
6.16091e-05
0.000104607
0.00026189
0.000207559
0.000225955
0.000716044
0.0010746
0.00147432
0.00013613
8.9461e-05
0.000478285
6.08226e-05
0.000234555
0.000419649
0.000527143
5.44072e-05
5.72385e-05
3.69817e-05
6.8642e-06
4.43993e-05
0.000167293
0.000129401
0.000278684
3.93071e-06
2.7791e-05
0.000436538
0.000230301
0.000231073
0.0017932
0.00305545
0.00406175
0.00495157
0.00504924
0.00501571
0.00474965
0.00414227
0.00343597
0.00305283
0.00265407
0.00254532
0.00220566
0.00218256
0.00172209
0.00113134
0.000416687
0.000963282
0.00269782
0.00417801
0.00173745
0.00291726
0.0038283
0.00460484
0.00476998
0.00479144
0.00435869
0.00396562
0.00343362
0.00309944
0.00268769
0.00224129
0.00231272
0.00190832
0.00151764
0.00125561
0.000339173
0.000740558
0.00229584
0.00361639
0.00183313
0.00279321
0.00342952
0.00427184
0.0042981
0.0040783
0.00404149
0.00347927
0.00303903
0.00264063
0.00260289
0.00209859
0.00197331
0.00180988
0.00145905
0.000854193
0.0002419
0.000495579
0.00194646
0.00294631
0.00174884
0.00256312
0.00311795
0.003532
0.00387312
0.00372623
0.00348335
0.00312818
0.0029819
0.0025677
0.00212005
0.00210328
0.00163602
0.00158846
0.00135994
0.000980444
0.00040473
0.000549052
0.00152992
0.00260817
0.00149049
0.0018758
0.00251251
0.00286844
0.00299451
0.00290655
0.00282228
0.00239105
0.00223925
0.00187623
0.00192085
0.00170198
0.00137471
0.00135724
0.00100151
0.000883937
0.000393006
0.000382024
0.00103459
0.00204062
0.00114368
0.00162951
0.00173226
0.00237874
0.00239387
0.00243449
0.0020861
0.00186478
0.00173746
0.00154022
0.00145445
0.00121765
0.00120483
0.00103074
0.000900595
0.000784919
2.96768e-05
0.00042801
0.00083481
0.00132018
0.000718424
0.000975308
0.00120691
0.00131738
0.00120146
0.00108791
0.00146601
0.00120714
0.00117568
0.000901581
0.000767565
0.000733223
0.000541365
0.000576819
0.000515657
0.00052734
0.000139297
0.000124325
0.000749421
0.000903925
0.000232059
0.000218201
0.000360385
0.000409494
0.000337242
0.000533898
0.000210976
0.000471451
0.000316507
0.000291535
0.000404046
0.000355581
2.65248e-05
0.000250815
0.000177987
0.000169506
1.90785e-07
5.89296e-05
8.03603e-05
0.000139273
0.00362789
0.00492125
0.00621325
0.00705736
0.0075716
0.00776135
0.00733578
0.00701202
0.00633001
0.00604411
0.00563867
0.00534872
0.00511107
0.00451996
0.00423719
0.00339645
0.0025292
0.000878427
0.000740819
0.0024662
0.00321781
0.00463988
0.00579509
0.00640612
0.00688682
0.00694817
0.0065303
0.00643163
0.00597507
0.00550785
0.00542494
0.00473865
0.00462949
0.00422663
0.00380373
0.00321091
0.00212005
0.00070955
0.00054702
0.00234016
0.0031851
0.00410082
0.0049675
0.00581828
0.00608771
0.00623894
0.00617479
0.00574086
0.00536233
0.00481697
0.00468618
0.00429607
0.00421515
0.00390917
0.0033782
0.00268796
0.00199635
0.000941108
0.000561261
0.00169118
0.00270096
0.0036025
0.00436291
0.00524484
0.00520852
0.00534316
0.00526998
0.00489034
0.00475205
0.00432176
0.00398022
0.00398345
0.00340762
0.00322616
0.00314734
0.00244868
0.00175082
0.000657471
0.000316836
0.00133511
0.00227057
0.00288865
0.00359096
0.00423283
0.00424307
0.00444363
0.00425362
0.00405949
0.00379333
0.00330936
0.00319456
0.00295085
0.00280057
0.0027683
0.00254393
0.00199511
0.00146323
0.000511136
0.000447796
0.000976743
0.00181995
0.0022523
0.00256008
0.00281784
0.00315747
0.00333826
0.00319653
0.00310968
0.0027827
0.00252689
0.00227775
0.00214122
0.00204227
0.00195836
0.00164676
0.00148291
0.00096475
0.000541332
0.000186883
0.000935652
0.00102423
0.00147879
0.00157532
0.00192631
0.00201367
0.00200081
0.00204448
0.00201075
0.00163548
0.00144063
0.00140213
0.00150175
0.00128966
0.00133264
0.00121653
0.000802197
0.000593926
0.000402036
4.40431e-05
0.00065168
0.000293719
0.000476135
0.000523085
0.000604985
0.000659342
0.000629292
0.000732526
0.00059958
0.000370543
0.000514187
0.000703464
0.000639615
0.00043716
0.000209613
0.000484003
0.000129757
0.000205152
4.03414e-06
6.78166e-05
0.00031641
0.00454154
0.00592957
0.00760761
0.0087812
0.00933811
0.00967869
0.00944166
0.00943467
0.00870767
0.00846419
0.00805645
0.00738023
0.00729132
0.00661751
0.00604641
0.00508522
0.00393358
0.00247328
0.000319934
0.00160399
0.00432226
0.00582061
0.0072053
0.00793609
0.0084571
0.00872878
0.00863432
0.00835403
0.00780162
0.00758251
0.00742064
0.0068862
0.00644389
0.00620802
0.00549217
0.00457428
0.00356301
0.00178189
0.000373241
0.0013866
0.00394424
0.00506786
0.00630887
0.00697519
0.00746214
0.00767952
0.00771391
0.00738001
0.00721168
0.00694599
0.00645641
0.00604809
0.00559627
0.00521713
0.00472737
0.0040305
0.00323143
0.00167014
0.000466652
0.00102756
0.00362695
0.00440802
0.00555771
0.00613274
0.00647647
0.00657092
0.00640463
0.006314
0.00610275
0.00576304
0.00536636
0.00503178
0.00486005
0.00466005
0.0040385
0.00340611
0.00270913
0.00177934
0.000304826
0.000841816
0.00299801
0.00352354
0.00416559
0.00491352
0.00536662
0.00538353
0.00518015
0.00502687
0.00505062
0.00467543
0.00453005
0.00425484
0.00396267
0.0036558
0.00330718
0.00260246
0.00200937
0.00143861
0.000188857
0.000743751
0.00230912
0.00276118
0.00324602
0.00365185
0.00383194
0.00395243
0.00403548
0.00367949
0.00362649
0.00340281
0.00313857
0.00293163
0.00295285
0.00271245
0.00261386
0.00197591
0.00161858
0.000891784
8.22573e-06
0.000469261
0.00145936
0.00178063
0.00196937
0.00238834
0.0023371
0.00242338
0.00268938
0.00225875
0.002144
0.00213661
0.00189864
0.00192039
0.00177608
0.00186314
0.00152916
0.00141296
0.000987926
0.000679364
0.000323203
0.000182393
0.000389992
0.000596921
0.000726782
0.000753336
0.000989606
0.000636804
0.000897617
0.000807492
0.000516566
0.000782798
0.000652276
0.000704649
0.000606686
0.000697805
0.000519312
0.000446162
0.000200857
0.000111236
0.000108136
0.000116614
0.00500199
0.00670419
0.00838601
0.00980058
0.0105731
0.0107392
0.0111011
0.0109181
0.0106907
0.0101637
0.00964982
0.00919252
0.00885909
0.00815307
0.00733015
0.00624411
0.00464316
0.00286165
0.000861221
0.00136274
0.0047211
0.00616526
0.0077012
0.00865795
0.00962716
0.00976162
0.00974889
0.00973574
0.00948617
0.00913407
0.00861277
0.00826067
0.0078841
0.00733123
0.00644204
0.00564811
0.00428521
0.00259391
0.000644618
0.00103193
0.00428337
0.00564483
0.00684576
0.00769719
0.00836921
0.00874623
0.00870825
0.00868813
0.00858125
0.00809572
0.00771029
0.00736846
0.00684573
0.00659259
0.00568735
0.00478646
0.00362368
0.00217195
0.00052481
0.000941063
0.00390661
0.00498401
0.00577615
0.00647474
0.00729106
0.0074053
0.00740079
0.00735478
0.0070554
0.00703982
0.00657238
0.00613052
0.00583051
0.00555509
0.00490725
0.00418579
0.00300623
0.00200049
0.000475612
0.000612951
0.0031093
0.00386931
0.00481735
0.00546263
0.00594428
0.00590276
0.00603447
0.00597529
0.00585341
0.00554177
0.00520091
0.00498098
0.00488766
0.00440218
0.00382087
0.00329486
0.00252626
0.00156772
0.000382634
0.000566651
0.00257478
0.00285424
0.00344633
0.00409127
0.00417209
0.00451702
0.00439424
0.00439741
0.00422937
0.00402156
0.00393607
0.00376485
0.00366152
0.00319902
0.00273025
0.00250821
0.00183721
0.000973435
0.000317758
0.000231298
0.00150886
0.00174226
0.00229648
0.00246699
0.00261297
0.0028249
0.00288877
0.0027395
0.002817
0.00263131
0.00224348
0.00237148
0.00235306
0.00200997
0.001889
0.00149067
0.00111153
0.000883578
0.000181351
4.68239e-05
0.000663036
0.000498846
0.000623825
0.000936
0.00081737
0.000985273
0.000937082
0.000678645
0.000799363
0.000913604
0.000799056
0.000856014
0.000931081
0.0006634
0.000599435
0.000545129
0.000353807
0.000486538
0.000233538
0.000312172
0.00461712
0.00647692
0.00833502
0.00988275
0.0107011
0.0114013
0.0116176
0.0115772
0.0115304
0.010957
0.0106419
0.0103336
0.00966166
0.00886619
0.00794759
0.00652082
0.00493774
0.00287526
0.000649068
0.00179859
0.0043869
0.00612944
0.00779826
0.00899039
0.00995466
0.0105158
0.0104682
0.010474
0.0103484
0.0100471
0.00962221
0.00917928
0.00867519
0.00806758
0.00708173
0.00587961
0.00450551
0.00261765
0.000431615
0.0014608
0.0042319
0.00524457
0.0070411
0.00786327
0.00858201
0.00926836
0.00935411
0.0093636
0.00901351
0.00877206
0.00849533
0.00785528
0.00742126
0.00674077
0.00608474
0.0049895
0.00370862
0.00224746
0.000244523
0.00111363
0.0036156
0.00472024
0.00592502
0.00688875
0.00753963
0.00794016
0.00798491
0.00787707
0.00779903
0.00739893
0.00707462
0.00694972
0.00645604
0.00599428
0.00528055
0.00444299
0.00328178
0.0018365
0.000498163
0.000853608
0.00300388
0.00405436
0.00487224
0.00530282
0.00600412
0.00626892
0.00632342
0.00657138
0.00628982
0.00601068
0.00584652
0.0056943
0.0052054
0.00499009
0.0042564
0.00365374
0.0026197
0.00141608
0.000177836
0.000561356
0.00260694
0.00302029
0.00366658
0.00390317
0.00434784
0.00481403
0.00470971
0.00471587
0.00465641
0.00449703
0.00409965
0.00398222
0.00371644
0.00353517
0.00303399
0.00251909
0.00194596
0.00135338
0.000197234
0.000584095
0.001196
0.00179482
0.00228915
0.00265169
0.00284726
0.00289982
0.00305302
0.00287941
0.00287761
0.00264851
0.00257585
0.0022841
0.00240908
0.00229357
0.0018557
0.00154803
0.000983341
0.000619758
0.000301058
0.000203381
0.000522346
0.000717903
0.000828287
0.000925677
0.000794432
0.00102711
0.000916867
0.000934333
0.000734004
0.000832105
0.00112383
0.000736061
0.00079782
0.000895427
0.000496825
0.000612789
0.000387614
0.000221091
4.35799e-05
2.61466e-05
0.00372947
0.00567917
0.00763539
0.00932569
0.0105243
0.0112692
0.0117386
0.0116979
0.0116863
0.0112398
0.0108998
0.0104353
0.00961199
0.00881294
0.00739427
0.00606057
0.00416295
0.00203765
0.000356787
0.00274643
0.00356497
0.00525944
0.00699844
0.00844398
0.00951129
0.0103589
0.0103996
0.0107923
0.0104786
0.0102558
0.00986231
0.00935283
0.00882161
0.00756558
0.00681315
0.00562008
0.00383051
0.00174256
0.000159898
0.00245287
0.00315514
0.00471922
0.00621237
0.00755708
0.00834123
0.00917798
0.00928975
0.0095025
0.0094663
0.00905687
0.0085869
0.00815614
0.00758419
0.00707245
0.00614153
0.00475855
0.00326195
0.00153989
0.000261816
0.00208181
0.00294856
0.00405973
0.00558079
0.00637052
0.00737394
0.00769057
0.0078965
0.0078614
0.00780899
0.00768656
0.00716102
0.00690899
0.00642046
0.00588938
0.0050259
0.00416505
0.00288567
0.00131562
0.000202918
0.00162199
0.00252663
0.00346643
0.00439121
0.00518506
0.00586538
0.0063073
0.00641262
0.00653016
0.00636411
0.00633235
0.00561075
0.00580804
0.00515936
0.00450212
0.00423446
0.00338324
0.00227017
0.00100744
9.81048e-05
0.00131308
0.00194246
0.00246658
0.00332379
0.00392242
0.00447579
0.00451387
0.00472092
0.00459008
0.00454555
0.00452863
0.00421457
0.00399881
0.00374558
0.00344198
0.00272987
0.00261386
0.00176052
0.00082713
0.000234062
0.000988147
0.00123936
0.00149228
0.00213973
0.00256138
0.00269412
0.00287032
0.0029917
0.00287888
0.00284183
0.00280898
0.0027121
0.00253158
0.00232126
0.00238154
0.00177308
0.00160417
0.00109719
0.000543198
8.06755e-05
0.000435426
0.000649021
0.000493247
0.000869699
0.000808769
0.000908436
0.000939043
0.000790027
0.000885619
0.00108576
0.000864773
0.000960413
0.00106891
0.000714178
0.000601259
0.000522298
0.000467848
0.000219182
0.000117572
0.000136329
0.000352086
0.00198104
0.00402105
0.00598838
0.00811647
0.00939929
0.0103517
0.0108791
0.0110433
0.0110378
0.0105369
0.0100417
0.00980317
0.00889991
0.00771117
0.00636893
0.00461105
0.00294508
0.000606021
0.00228811
0.00474777
0.00230093
0.0038545
0.00568559
0.00723998
0.0086888
0.0093732
0.0100519
0.00982677
0.00999225
0.00984003
0.00910858
0.00883675
0.00801573
0.00713078
0.00595316
0.00442683
0.00295235
0.000659836
0.00184707
0.00401975
0.00189737
0.00369465
0.00524931
0.00663533
0.00752761
0.00852897
0.00848539
0.00879549
0.00881875
0.00847488
0.0082731
0.00771101
0.007101
0.00612552
0.00508047
0.00397968
0.00230222
0.000340881
0.00167645
0.00361195
0.00183784
0.00305497
0.00445508
0.00562748
0.00655545
0.00707498
0.00727815
0.00749625
0.00744165
0.00740874
0.00702254
0.00654788
0.00604329
0.00508303
0.00441938
0.0034071
0.00195687
0.000641398
0.00138245
0.00270007
0.00167979
0.00249799
0.00370052
0.00487194
0.0053786
0.00593217
0.00612224
0.00613247
0.00574637
0.00587137
0.00550185
0.00508426
0.00479058
0.00415367
0.00348197
0.00274796
0.00158449
0.000469805
0.00135618
0.00217949
0.00135678
0.00210381
0.00275369
0.00340779
0.00407711
0.00424782
0.0041853
0.0045684
0.00446416
0.00439879
0.00414545
0.00368969
0.00353343
0.0031281
0.00255421
0.00192372
0.00122163
0.000438485
0.000609235
0.00166137
0.000660473
0.0012822
0.0017898
0.00227779
0.00237514
0.00268016
0.0028999
0.00266446
0.00274378
0.00276076
0.00262429
0.00242214
0.00223483
0.00195292
0.00162498
0.00128508
0.000497008
0.00019155
0.000490637
0.00111327
0.000230034
0.000474092
0.000536936
0.000675593
0.000823595
0.0010126
0.000596563
0.000980883
0.000869527
0.000927483
0.00100365
0.000806544
0.000614868
0.000625039
0.000642247
0.000333067
0.000289511
0.000137686
9.44365e-05
0.000358191
0.000517699
0.00146232
0.00392678
0.00601697
0.00734634
0.0085234
0.00923931
0.00961201
0.00968899
0.0095282
0.00890078
0.00806404
0.00734078
0.00616828
0.00466924
0.00294664
0.00095258
0.00178799
0.0048313
0.00723737
0.000219959
0.00183203
0.00380237
0.00542333
0.00695497
0.00778684
0.00846562
0.00855583
0.00876947
0.008406
0.00811786
0.00733526
0.00674341
0.00568031
0.00428552
0.00278839
0.00071742
0.00135877
0.00405588
0.00627224
0.00022517
0.00160977
0.00351207
0.00493762
0.00612013
0.0072358
0.00734214
0.00755427
0.0076757
0.00739198
0.00712741
0.0066801
0.00589469
0.00487007
0.00367671
0.0023729
0.000508184
0.00136878
0.00341576
0.00551589
0.000314097
0.00155497
0.00296947
0.0044282
0.00535459
0.00588167
0.00641611
0.00653353
0.00650393
0.00649043
0.0063101
0.00545462
0.00494929
0.0040796
0.00314315
0.0020166
0.000581644
0.00103261
0.00293427
0.00451503
0.00045319
0.00145671
0.00234729
0.00343992
0.00420332
0.00488192
0.00525634
0.00535342
0.00536523
0.00510005
0.00476794
0.00447118
0.0039455
0.00351095
0.00257628
0.00158924
0.000592006
0.000596333
0.00223337
0.00339701
0.000315323
0.00115031
0.00193171
0.00253853
0.00338
0.00352457
0.00376414
0.00368441
0.00396613
0.00358883
0.00388951
0.00316966
0.00281055
0.00250716
0.0020394
0.00099555
0.000528209
0.000661861
0.00176337
0.00264601
0.000241099
0.000700136
0.00116274
0.00146732
0.00189985
0.00230174
0.00233016
0.0024981
0.00257719
0.0024358
0.00221564
0.00196158
0.00187497
0.00136378
0.00134418
0.000772977
0.000117185
0.000410683
0.00102462
0.00164345
6.97867e-05
0.000459904
0.000279868
0.000702355
0.000732655
0.00103475
0.000582707
0.000774855
0.00088945
0.000845823
0.000758866
0.000592281
0.000612459
0.000370087
0.000486334
0.000253956
4.26792e-05
0.000195171
0.00048743
0.000629816
0.00388763
0.0013495
0.000998657
0.00333271
0.00475966
0.00607586
0.00671631
0.00737942
0.00751375
0.00711246
0.00671718
0.00593987
0.00526682
0.00377557
0.00212589
0.000308121
0.00205026
0.00480023
0.00791599
0.0106497
0.00316497
0.000884773
0.00117102
0.00304856
0.00457209
0.00551434
0.00623071
0.00661988
0.00661905
0.00659721
0.00613008
0.00530575
0.00453932
0.00347929
0.00202215
0.000212748
0.00185734
0.00430668
0.00690783
0.00933527
0.00229955
0.000587128
0.0011062
0.00276377
0.00418256
0.00491949
0.0055982
0.00592078
0.00574168
0.00579574
0.00532541
0.0047135
0.00404299
0.00314398
0.00173879
0.00023731
0.00157872
0.00375738
0.00609468
0.00807799
0.00186159
0.000538835
0.00105603
0.00242297
0.00346627
0.00416647
0.00485554
0.00520345
0.00521189
0.00493337
0.00469255
0.00400992
0.00356135
0.0025543
0.00157723
0.000155738
0.00128992
0.00301696
0.00498143
0.0068333
0.00141969
0.000178631
0.00108749
0.0020943
0.00275377
0.00351413
0.00403317
0.00394925
0.00417288
0.00402552
0.00378283
0.00345288
0.00292227
0.00222154
0.00112564
0.000284107
0.000952572
0.00250944
0.00405851
0.0052567
0.00089282
0.000248573
0.000776221
0.00170548
0.00228285
0.00266083
0.00300228
0.0028918
0.00304708
0.00295295
0.00286953
0.0025919
0.0021859
0.0015258
0.000969297
0.000169185
0.000653059
0.00194322
0.00293162
0.00411566
0.000416035
0.000195623
0.000418001
0.00130206
0.00128051
0.00151583
0.00193891
0.00209797
0.00203276
0.00190004
0.00167373
0.00150753
0.00108149
0.00101133
0.000533722
4.37257e-05
0.000464857
0.00122673
0.00178197
0.0022558
9.573e-05
0.000119743
0.000346174
0.000600806
0.000453271
0.00031626
0.000729113
0.000484884
0.000694939
0.000674275
0.00054371
0.000617897
0.000453701
0.00041259
0.000124606
2.62293e-05
6.48065e-06
0.000507357
0.000674967
0.000872604
0.00795555
0.00551602
0.00270341
0.000534999
0.0011794
0.00265757
0.003774
0.00416845
0.00423096
0.00405174
0.00371947
0.00285548
0.00192957
0.000473789
0.00130178
0.00328952
0.00581217
0.00882467
0.0118617
0.0147065
0.00672502
0.00446062
0.00216595
0.000259339
0.0014409
0.00254212
0.00322734
0.00382419
0.00400193
0.00389332
0.00345562
0.00261477
0.00176195
0.000473347
0.00104445
0.00288506
0.00528116
0.00770429
0.0105898
0.0129164
0.00559672
0.00357157
0.00192541
0.000129266
0.00130679
0.00251019
0.00316807
0.00357998
0.0037356
0.00337991
0.0031409
0.00243446
0.0017334
0.00060848
0.000764945
0.00251505
0.00452667
0.00664814
0.00922594
0.0111043
0.00444415
0.00304249
0.00136953
0.000120311
0.00135974
0.00229248
0.00275522
0.0028238
0.00322251
0.00285734
0.00252116
0.00217344
0.00132189
0.000435465
0.000614892
0.00218432
0.00382152
0.00562246
0.0073502
0.00927647
0.00321007
0.00223598
0.000930801
0.000210036
0.00120904
0.00181866
0.0023539
0.00278342
0.00249065
0.00239017
0.0020669
0.00161714
0.00127255
0.000523545
0.000665537
0.00173838
0.00292763
0.00429056
0.00593754
0.00762641
0.00243043
0.00164797
0.00077059
0.000125414
0.000756215
0.0012187
0.00180287
0.00193084
0.00197986
0.00185726
0.00170325
0.00118884
0.00103262
0.000308007
0.000444434
0.00117475
0.00224154
0.00321664
0.00443528
0.0054498
0.00128247
0.000834898
0.000297066
0.000187626
0.000469752
0.00104076
0.00101811
0.00115504
0.00132712
0.00118742
0.00102788
0.000904125
0.000704233
0.000469818
0.000155189
0.000577526
0.00138509
0.00194895
0.00253498
0.0033569
0.000514772
0.000325019
0.000439709
9.43585e-06
0.000207746
0.000252853
0.000305614
0.000437114
0.000517127
0.000506304
0.000197239
0.000220646
0.000436212
1.2311e-05
3.80528e-05
0.000268676
0.000389816
0.000791976
0.000970909
0.00113267
0.0125994
0.0100248
0.00753154
0.0049488
0.00302021
0.00155924
0.000453035
3.27579e-05
0.000294805
0.000206329
0.000186829
0.0010524
0.00199674
0.00359674
0.00530192
0.00756857
0.0103937
0.0131526
0.0164788
0.0193556
0.0109143
0.00866217
0.00620155
0.00414655
0.00229143
0.00108077
0.000195446
0.00022818
0.000499899
0.000381479
1.2468e-05
0.000749183
0.00183559
0.00320192
0.00489825
0.00671097
0.00913408
0.0116694
0.0145984
0.0171798
0.00905523
0.00740602
0.00515956
0.0034348
0.00211569
0.00082217
8.29481e-05
0.000529783
0.000627359
0.00038158
6.70801e-05
0.000394504
0.00158423
0.00249756
0.0041536
0.00590973
0.00796536
0.0100952
0.0127359
0.0148557
0.00747675
0.00600165
0.00449981
0.00283038
0.00164929
0.000606728
0.000141879
0.000520884
0.000567242
0.000523357
6.41965e-05
0.000381323
0.00101294
0.00204272
0.00343226
0.00471136
0.00662042
0.00848944
0.0107613
0.0123386
0.00588717
0.00490948
0.00341543
0.00216334
0.00099182
0.000157302
8.48131e-05
0.000370452
0.00038254
0.000336334
0.000172749
0.00016423
0.000840033
0.00158129
0.00264685
0.00385648
0.0054605
0.00674898
0.00825745
0.00982443
0.0044802
0.00320079
0.0022685
0.00159912
0.000677803
0.000172554
0.000130716
0.000359779
0.000489325
0.000425668
0.000138877
7.59064e-06
0.000849939
0.00126044
0.00204927
0.00291271
0.00375584
0.00501138
0.00632201
0.00733258
0.00252055
0.00206501
0.00152289
0.000895304
0.000381397
8.39311e-05
0.00018004
0.000222395
0.000163161
0.000171517
8.54675e-05
3.57939e-05
0.000234522
0.000943565
0.0012109
0.00174317
0.00248206
0.00327864
0.00374692
0.00447327
0.000910755
0.000738176
0.000412038
0.000184888
5.97603e-05
9.97532e-05
3.8575e-05
3.21741e-05
0.000182538
0.000126735
8.4626e-05
5.07053e-05
0.000145242
0.000493733
0.000303931
0.000751478
0.000813246
0.0011182
0.00124192
0.00157907
0.0180489
0.0155225
0.0125694
0.0100583
0.0080671
0.00672033
0.00529186
0.00466688
0.0043761
0.00467594
0.00501472
0.00557952
0.00689985
0.00845384
0.0102326
0.01284
0.0154971
0.0186019
0.0218657
0.0248616
0.0155848
0.013402
0.0109363
0.00877349
0.00690427
0.00555505
0.00460794
0.00394737
0.00386154
0.00374537
0.00435343
0.00494019
0.00599787
0.0074946
0.00915118
0.0113021
0.0136842
0.0163109
0.0194004
0.0220494
0.013386
0.0115176
0.00941222
0.00723619
0.00569156
0.00470396
0.00387147
0.00350131
0.00317299
0.00351831
0.00336271
0.0043161
0.00525022
0.00636207
0.00791831
0.00973517
0.0120049
0.0142545
0.0169177
0.0190462
0.0111243
0.00954815
0.00757602
0.00604424
0.0046544
0.00381752
0.00321375
0.00286579
0.00249167
0.00280209
0.00291333
0.00341681
0.00429348
0.00534015
0.00646969
0.00822384
0.0100718
0.0120619
0.0141254
0.0158814
0.00854022
0.00743646
0.00615948
0.0048455
0.00374371
0.00318448
0.00236591
0.00213608
0.00191771
0.00200581
0.00224546
0.00268874
0.00323327
0.0041033
0.00521812
0.00650075
0.00783136
0.00967973
0.0113422
0.0127233
0.00648141
0.00524334
0.00438209
0.00335463
0.00258191
0.00228105
0.0018816
0.00154728
0.00125516
0.0011802
0.00168754
0.0019354
0.00256348
0.00299875
0.00396298
0.00489076
0.00583816
0.00685589
0.00816042
0.00948122
0.00386945
0.00306695
0.00261606
0.00221446
0.00158642
0.00136384
0.00088324
0.000977475
0.0009073
0.000865131
0.000952896
0.000950333
0.00169804
0.00172462
0.00241634
0.00311066
0.00347687
0.00458808
0.0051225
0.00567195
0.00140198
0.0010455
0.000971771
0.000764172
0.000613966
0.000182523
0.000255573
0.000126533
0.000238391
0.0002271
0.000254971
0.000485273
0.00051405
0.000671612
0.000858014
0.000925269
0.00116271
0.00130112
0.00159663
0.00190306
0.0242438
0.0214411
0.0185117
0.0158838
0.0138201
0.0120276
0.010856
0.01017
0.00980699
0.00970365
0.0103903
0.0111853
0.0125238
0.0138809
0.0161047
0.0185951
0.0213378
0.0244661
0.0279754
0.0311784
0.0213133
0.0187751
0.0161029
0.0139384
0.0119896
0.0106127
0.00962592
0.00889429
0.00845265
0.00868605
0.0088679
0.00969508
0.0109815
0.0122695
0.0141808
0.016278
0.0188072
0.0217076
0.0248428
0.0276251
0.0179722
0.0162514
0.0137793
0.0118816
0.0103517
0.00876991
0.00812546
0.0077144
0.00734623
0.00737694
0.00786494
0.00824145
0.009361
0.0107147
0.0122647
0.0141131
0.0162094
0.0187563
0.0214618
0.0240228
0.0148781
0.0135086
0.0114337
0.00971669