/*--------------------------------*- C++ -*----------------------------------*\
| =========                 |                                                 |
| \\      /  F ield         | OpenFOAM: The Open Source CFD Toolbox           |
|  \\    /   O peration     | Version:  2212                                  |
|   \\  /    A nd           | Website:  www.openfoam.com                      |
|    \\/     M anipulation  |                                                 |
\*---------------------------------------------------------------------------*/
FoamFile
{
    version     2.0;
    format      ascii;
    arch        "LSB;label=32;scalar=64";
    class       volScalarField;
    location    "0";
    object      T;
}
// * * * * * * * * * * * * * * * * * * * * * * * * * * * * * * * * * * * * * //

dimensions      [0 0 0 1 0 0 0];

internalField   nonuniform List<scalar> 
3200
(
349.938
348.681
347.94
347.453
347.738
348.408
349.035
349.636
350.3
350.733
350.598
350.326
349.643
348.736
347.792
347.117
346.468
346.379
347.068
348.195
343.493
342.423
341.785
341.349
341.579
342.166
342.718
343.193
343.77
344.163
344.029
343.778
343.15
342.363
341.578
340.996
340.45
340.375
340.968
341.882
336.956
336.062
335.514
335.152
335.352
335.819
336.316
336.687
337.149
337.493
337.365
337.15
336.618
335.943
335.308
334.807
334.359
334.315
334.804
335.534
330.34
329.624
329.168
328.866
329.025
329.397
329.846
330.115
330.484
330.763
330.658
330.447
330.028
329.485
328.96
328.561
328.225
328.181
328.545
329.146
323.664
323.116
322.771
322.503
322.629
322.92
323.317
323.488
323.781
323.992
323.898
323.705
323.398
322.981
322.571
322.275
322.014
321.978
322.27
322.721
316.946
316.559
316.32
316.105
316.18
316.41
316.705
316.812
317.03
317.19
317.113
316.957
316.742
316.444
316.158
315.943
315.756
315.723
315.949
316.24
310.196
309.974
309.815
309.676
309.725
309.865
310.051
310.101
310.256
310.324
310.292
310.203
310.07
309.884
309.708
309.564
309.464
309.461
309.596
309.769
303.415
303.352
303.297
303.243
303.261
303.308
303.366
303.386
303.44
303.458
303.449
303.425
303.386
303.32
303.254
303.207
303.168
303.17
303.222
303.277
350.062
348.739
347.992
347.75
348.018
348.636
349.424
350.044
350.725
351.152
351.163
350.933
350.277
349.343
348.386
347.446
346.883
346.682
347.352
348.472
343.585
342.489
341.847
341.614
341.833
342.363
343.019
343.551
344.114
344.492
344.478
344.282
343.699
342.911
342.077
341.277
340.778
340.633
341.198
342.129
337.047
336.121
335.588
335.376
335.558
335.994
336.552
336.983
337.432
337.747
337.731
337.569
337.09
336.426
335.715
335.033
334.596
334.506
334.993
335.742
330.417
329.678
329.238
329.041
329.21
329.552
330.003
330.345
330.697
330.941
330.91
330.79
330.421
329.897
329.303
328.747
328.368
328.339
328.73
329.311
323.734
323.166
322.807
322.669
322.811
323.064
323.409
323.637
323.916
324.096
324.092
324.006
323.713
323.325
322.856
322.414
322.117
322.127
322.408
322.852
317.012
316.602
316.345
316.248
316.345
316.52
316.752
316.889
317.103
317.238
317.223
317.178
316.968
316.696
316.353
316.026
315.815
315.842
316.025
316.344
310.241
309.99
309.848
309.771
309.85
309.947
310.068
310.142
310.288
310.369
310.362
310.314
310.184
310.061
309.822
309.629
309.515
309.53
309.637
309.816
303.43
303.353
303.303
303.285
303.301
303.341
303.378
303.403
303.442
303.493
303.474
303.45
303.413
303.372
303.293
303.232
303.208
303.203
303.242
303.296
350.179
349.099
348.389
348.146
348.575
349.164
350.09
350.984
351.447
351.932
352.084
351.753
351.167
350.195
349.154
348.181
347.473
347.312
347.906
349.029
343.69
342.795
342.201
341.978
342.329
342.813
343.598
344.349
344.732
345.144
345.264
344.981
344.463
343.636
342.722
341.897
341.293
341.181
341.684
342.615
337.154
336.4
335.879
335.704
335.995
336.371
337.018
337.638
337.951
338.301
338.378
338.143
337.711
337.02
336.261
335.544
335.042
334.99
335.39
336.131
330.526
329.905
329.489
329.317
329.564
329.849
330.365
330.869
331.129
331.392
331.471
331.259
330.933
330.376
329.737
329.139
328.73
328.748
329.052
329.624
323.835
323.336
323.006
322.879
323.061
323.28
323.67
324.057
324.244
324.431
324.506
324.346
324.1
323.694
323.187
322.704
322.38
322.442
322.67
323.085
317.081
316.703
316.493
316.385
316.517
316.675
316.942
317.209
317.334
317.485
317.528
317.42
317.243
316.954
316.613
316.237
316.014
316.087
316.242
316.516
310.267
310.039
309.938
309.849
309.925
310.048
310.181
310.346
310.414
310.521
310.528
310.483
310.372
310.183
309.99
309.763
309.625
309.684
309.762
309.939
303.436
303.358
303.328
303.302
303.328
303.38
303.423
303.47
303.5
303.534
303.532
303.513
303.475
303.418
303.343
303.27
303.222
303.258
303.279
303.33
350.762
349.508
348.993
348.794
349.272
349.849
350.778
351.726
352.427
352.956
353.253
352.93
352.225
351.286
350.03
349.075
348.433
348.214
348.704
349.731
344.218
343.147
342.698
342.537
342.94
343.41
344.195
344.971
345.582
346.003
346.269
345.991
345.362
344.571
343.497
342.692
342.137
341.927
342.342
343.222
337.559
336.69
336.293
336.157
336.511
336.884
337.513
338.164
338.668
338.996
339.226
338.987
338.45
337.789
336.921
336.23
335.759
335.587
335.921
336.661
330.84
330.13
329.793
329.673
329.995
330.281
330.769
331.292
331.693
331.976
332.151
331.96
331.52
330.969
330.276
329.728
329.336
329.216
329.451
330.054
324.059
323.495
323.224
323.134
323.405
323.608
323.981
324.384
324.7
324.928
325.056
324.91
324.57
324.128
323.588
323.176
322.873
322.781
322.949
323.405
317.241
316.803
316.623
316.557
316.759
316.908
317.147
317.446
317.678
317.845
317.924
317.813
317.614
317.277
316.868
316.587
316.361
316.301
316.415
316.73
310.371
310.094
309.995
309.955
310.066
310.169
310.302
310.48
310.63
310.738
310.752
310.7
310.594
310.396
310.145
309.978
309.827
309.796
309.857
310.062
303.468
303.379
303.346
303.337
303.379
303.414
303.452
303.507
303.566
303.601
303.604
303.592
303.549
303.482
303.402
303.343
303.303
303.288
303.31
303.379
351.432
350.25
349.614
349.638
350.097
350.87
351.917
352.768
353.52
354.292
354.557
354.285
353.59
352.498
351.304
350.317
349.671
349.336
349.738
350.726
344.793
343.773
343.242
343.246
343.635
344.27
345.141
345.865
346.528
347.157
347.408
347.152
346.55
345.613
344.57
343.755
343.189
342.923
343.258
344.078
338.051
337.202
336.77
336.753
337.087
337.595
338.301
338.895
339.454
339.961
340.212
339.963
339.488
338.673
337.808
337.139
336.667
336.438
336.71
337.384
331.24
330.552
330.221
330.172
330.455
330.844
331.398
331.888
332.335
332.75
332.963
332.763
332.38
331.709
331.006
330.475
330.08
329.876
330.084
330.65
324.379
323.841
323.591
323.529
323.767
324.036
324.457
324.839
325.179
325.505
325.673
325.519
325.21
324.719
324.171
323.767
323.449
323.297
323.44
323.886
317.471
317.08
316.89
316.833
317.032
317.213
317.49
317.759
317.996
318.23
318.363
318.249
318.038
317.693
317.295
317.012
316.765
316.682
316.757
317.072
310.517
310.27
310.142
310.133
310.239
310.346
310.512
310.681
310.805
310.95
311.024
310.98
310.856
310.62
310.394
310.233
310.078
310.03
310.068
310.26
303.527
303.446
303.401
303.403
303.437
303.467
303.529
303.576
303.611
303.67
303.695
303.679
303.637
303.56
303.477
303.441
303.375
303.365
303.375
303.443
352.236
351.127
350.683
350.492
351.005
351.861
352.971
353.885
354.877
355.594
355.911
355.629
354.891
353.924
352.673
351.668
350.848
350.656
351.083
351.935
345.477
344.519
344.135
343.969
344.415
345.143
346.064
346.866
347.71
348.309
348.582
348.309
347.677
346.858
345.747
344.915
344.188
344.031
344.396
345.115
338.616
337.82
337.502
337.361
337.724
338.329
339.091
339.747
340.455
340.965
341.178
340.945
340.416
339.752
338.791
338.094
337.487
337.358
337.639
338.265
331.683
331.069
330.78
330.666
330.969
331.436
332.047
332.602
333.151
333.569
333.762
333.558
333.1
332.566
331.807
331.222
330.755
330.643
330.837
331.394
324.714
324.261
324.003
323.935
324.173
324.483
324.958
325.401
325.829
326.124
326.288
326.154
325.788
325.368
324.786
324.341
323.984
323.886
324.017
324.46
317.714
317.386
317.186
317.149
317.315
317.53
317.874
318.163
318.466
318.664
318.798
318.712
318.443
318.141
317.733
317.421
317.157
317.091
317.166
317.505
310.658
310.465
310.331
310.303
310.417
310.55
310.753
310.91
311.088
311.204
311.299
311.237
311.102
310.894
310.657
310.469
310.317
310.29
310.315
310.518
303.574
303.513
303.464
303.454
303.491
303.545
303.61
303.65
303.716
303.753
303.791
303.774
303.731
303.652
303.576
303.499
303.46
303.455
303.454
303.526
353.186
352.232
351.789
351.708
352.166
353.071
354.08
355.207
356.151
356.927
357.246
357.111
356.296
355.344
354.116
353.265
352.342
352.148
352.522
353.394
346.288
345.472
345.103
344.995
345.399
346.183
347.047
347.998
348.793
349.423
349.688
349.573
348.888
348.053
346.999
346.272
345.48
345.302
345.634
346.376
339.306
338.611
338.318
338.198
338.546
339.219
339.946
340.726
341.38
341.893
342.104
342.011
341.441
340.717
339.827
339.218
338.576
338.423
338.692
339.303
332.277
331.697
331.453
331.347
331.647
332.169
332.765
333.398
333.926
334.32
334.497
334.421
333.952
333.351
332.636
332.146
331.632
331.486
331.702
332.21
325.177
324.738
324.512
324.469
324.685
325.076
325.536
326.002
326.427
326.72
326.884
326.805
326.44
325.961
325.423
325.06
324.625
324.511
324.694
325.104
318.032
317.71
317.553
317.534
317.679
317.942
318.275
318.579
318.91
319.12
319.234
319.177
318.903
318.568
318.178
317.953
317.613
317.527
317.658
317.959
310.851
310.659
310.555
310.534
310.645
310.787
310.977
311.139
311.36
311.5
311.561
311.524
311.352
311.168
310.924
310.795
310.581
310.521
310.609
310.791
303.644
303.581
303.539
303.528
303.564
303.624
303.678
303.726
303.799
303.85
303.877
303.861
303.803
303.748
303.661
303.625
303.559
303.525
303.566
303.621
354.396
353.532
353.005
352.885
353.479
354.31
355.373
356.451
357.577
358.413
358.777
358.576
357.827
356.857
355.664
354.729
353.892
353.812
354.183
354.949
347.337
346.599
346.139
346.035
346.541
347.225
348.147
349.058
350.009
350.709
351.029
350.855
350.195
349.394
348.334
347.542
346.812
346.77
347.086
347.702
340.217
339.601
339.183
339.099
339.513
340.077
340.85
341.611
342.419
342.965
343.246
343.101
342.528
341.883
340.97
340.287
339.687
339.661
339.924
340.422
333.029
332.514
332.173
332.091
332.421
332.866
333.499
334.09
334.785
335.207
335.428
335.3
334.834
334.329
333.575
332.989
332.53
332.531
332.715
333.113
325.758
325.353
325.085
325.037
325.294
325.629
326.11
326.556
327.086
327.428
327.566
327.461
327.133
326.752
326.149
325.69
325.333
325.343
325.477
325.779
318.439
318.156
317.961
317.934
318.101
318.364
318.681
318.972
319.371
319.608
319.707
319.617
319.436
319.144
318.692
318.37
318.124
318.142
318.208
318.417
311.087
310.921
310.798
310.788
310.896
311.061
311.228
311.394
311.639
311.777
311.824
311.778
311.7
311.502
311.233
311.033
310.889
310.903
310.95
311.053
303.723
303.656
303.628
303.621
303.658
303.713
303.766
303.823
303.896
303.945
303.957
303.956
303.927
303.858
303.764
303.695
303.653
303.665
303.674
303.7
355.758
354.812
354.261
354.239
354.757
355.536
356.631
357.63
358.813
359.721
360.205
360.023
359.331
358.416
357.196
356.306
355.599
355.504
355.819
356.656
348.538
347.73
347.237
347.196
347.635
348.306
349.236
350.07
351.083
351.878
352.265
352.095
351.504
350.732
349.663
348.893
348.277
348.219
348.465
349.198
341.206
340.554
340.125
340.063
340.427
341.019
341.761
342.471
343.326
343.985
344.275
344.14
343.64
343.005
342.091
341.413
340.911
340.878
341.092
341.691
333.8
333.307
332.933
332.88
333.152
333.655
334.226
334.823
335.504
336.033
336.269
336.155
335.746
335.258
334.478
333.937
333.5
333.499
333.68
334.13
326.358
325.994
325.69
325.658
325.846
326.244
326.669
327.113
327.659
328.053
328.244
328.167
327.844
327.469
326.848
326.431
326.079
326.089
326.242
326.561
318.857
318.611
318.394
318.369
318.519
318.786
319.06
319.365
319.794
320.061
320.21
320.159
319.911
319.632
319.194
318.885
318.648
318.648
318.772
318.988
311.339
311.203
311.054
311.037
311.154
311.283
311.443
311.625
311.905
312.065
312.14
312.131
311.98
311.798
311.545
311.361
311.221
311.214
311.287
311.409
303.808
303.758
303.711
303.692
303.742
303.793
303.833
303.899
303.989
304.042
304.08
304.067
304.027
303.955
303.875
303.815
303.764
303.762
303.791
303.83
357.054
356.199
355.681
355.706
356.173
356.706
357.849
358.895
360.161
361.014
361.459
361.314
360.833
359.872
358.75
357.848
357.3
357.214
357.596
358.329
349.66
348.919
348.478
348.471
348.877
349.301
350.266
351.151
352.258
352.969
353.344
353.214
352.785
351.965
350.983
350.236
349.748
349.681
350.011
350.633
342.169
341.535
341.166
341.173
341.486
341.831
342.638
343.35
344.314
344.903
345.208
345.08
344.714
344.009
343.183
342.566
342.161
342.104
342.393
342.891
334.595
334.094
333.787
333.779
334.023
334.31
334.972
335.526
336.319
336.778
337.02
336.917
336.629
336.022
335.362
334.864
334.525
334.47
334.727
335.132
326.948
326.622
326.358
326.339
326.512
326.725
327.248
327.68
328.282
328.65
328.837
328.741
328.51
328.033
327.538
327.15
326.862
326.84
327.04
327.346
319.289
319.099
318.853
318.858
318.962
319.119
319.489
319.807
320.234
320.511
320.641
320.558
320.372
320.017
319.705
319.411
319.195
319.192
319.349
319.555
311.602
311.502
311.322
311.32
311.392
311.486
311.725
311.902
312.153
312.332
312.411
312.359
312.229
312.022
311.852
311.669
311.538
311.557
311.622
311.751
303.9
303.863
303.794
303.795
303.825
303.85
303.931
303.991
304.076
304.123
304.166
304.144
304.1
304.045
303.99
303.909
303.875
303.881
303.897
303.931
358.275
357.606
357.075
357.055
357.33
358.048
359.111
360.121
361.339
362.238
362.589
362.655
362.188
361.342
360.212
359.603
359.037
358.88
359.297
360.072
350.689
350.156
349.638
349.64
349.873
350.435
351.379
352.234
353.261
354.026
354.299
354.378
353.971
353.217
352.254
351.745
351.289
351.127
351.494
352.166
343.029
342.598
342.141
342.15
342.349
342.78
343.57
344.289
345.155
345.766
345.981
346.05
345.719
345.075
344.268
343.861
343.477
343.333
343.625
344.208
335.317
334.965
334.58
334.596
334.757
335.074
335.718
336.302
337.02
337.491
337.653
337.7
337.433
336.911
336.234
335.929
335.606
335.514
335.73
336.198
327.54
327.259
326.972
326.982
327.08
327.327
327.85
328.301
328.821
329.216
329.291
329.333
329.119
328.728
328.192
327.96
327.71
327.645
327.836
328.176
319.721
319.515
319.306
319.335
319.381
319.544
319.954
320.264
320.613
320.899
320.935
320.984
320.81
320.532
320.137
319.988
319.814
319.776
319.902
320.147
311.863
311.732
311.589
311.643
311.648
311.728
312.023
312.173
312.384
312.546
312.573
312.606
312.495
312.309
312.097
312.011
311.914
311.9
311.952
312.111
303.983
303.932
303.89
303.912
303.909
303.929
304.036
304.081
304.148
304.205
304.21
304.221
304.182
304.12
304.056
304.025
303.991
304
304.003
304.064
359.65
358.998
358.363
358.298
358.58
359.297
360.295
361.412
362.561
363.457
363.875
363.87
363.444
362.641
361.782
361.153
360.6
360.71
361.068
361.84
351.895
351.329
350.765
350.707
350.907
351.529
352.387
353.336
354.319
355.09
355.42
355.425
355.067
354.364
353.621
353.095
352.613
352.705
353.004
353.681
344.056
343.587
343.088
343.05
343.201
343.695
344.42
345.202
346.018
346.677
346.937
346.936
346.663
346.031
345.413
344.994
344.585
344.677
344.91
345.482
336.145
335.731
335.341
335.334
335.451
335.81
336.425
337.03
337.699
338.25
338.435
338.417
338.235
337.685
337.185
336.865
336.522
336.629
336.789
337.241
328.17
327.847
327.574
327.552
327.669
327.878
328.383
328.811
329.349
329.777
329.918
329.891
329.766
329.336
328.949
328.71
328.428
328.525
328.638
328.994
320.158
319.92
319.749
319.733
319.833
319.913
320.306
320.611
320.985
321.28
321.373
321.372
321.273
320.961
320.689
320.533
320.321
320.404
320.481
320.725
312.109
311.971
311.872
311.888
311.944
311.961
312.204
312.382
312.617
312.787
312.834
312.839
312.778
312.575
312.441
312.337
312.211
312.248
312.308
312.451
304.066
304.012
303.988
303.995
304.009
304.013
304.097
304.144
304.227
304.292
304.307
304.303
304.289
304.219
304.171
304.138
304.102
304.101
304.127
304.181
361.137
360.303
359.867
359.706
359.967
360.752
361.809
362.656
363.625
364.595
365.08
365.035
364.708
363.997
363.33
362.785
362.349
362.404
362.797
363.494
353.156
352.462
352.073
351.908
352.139
352.79
353.709
354.444
355.23
356.074
356.483
356.425
356.132
355.54
354.944
354.502
354.106
354.171
354.496
355.091
345.123
344.521
344.208
344.042
344.241
344.783
345.559
346.174
346.812
347.504
347.833
347.795
347.563
347.036
346.54
346.17
345.831
345.923
346.175
346.645
337.007
336.522
336.263
336.116
336.295
336.71
337.359
337.853
338.37
338.912
339.179
339.145
338.973
338.528
338.102
337.8
337.5
337.63
337.824
338.19
328.857
328.456
328.286
328.146
328.269
328.597
329.098
329.495
329.906
330.288
330.521
330.477
330.343
329.974
329.662
329.424
329.17
329.322
329.435
329.715
320.639
320.366
320.25
320.136
320.227
320.43
320.809
321.076
321.396
321.644
321.822
321.803
321.696
321.431
321.22
321.022
320.841
320.98
321.053
321.247
312.395
312.241
312.16
312.09
312.162
312.288
312.509
312.654
312.871
312.994
313.122
313.115
313.054
312.871
312.749
312.62
312.528
312.612
312.647
312.769
304.154
304.113
304.071
304.056
304.07
304.123
304.188
304.237
304.321
304.353
304.387
304.393
304.377
304.314
304.281
304.229
304.204
304.229
304.237
304.284
362.577
361.835
361.388
361.175
361.469
362.173
363.116
364.004
364.87
365.517
365.99
366.183
365.906
365.294
364.695
364.264
363.933
364.086
364.525
365.189
354.41
353.788
353.4
353.185
353.442
354.04
354.85
355.614
356.329
356.897
357.262
357.451
357.19
356.661
356.128
355.794
355.503
355.634
356.016
356.559
346.163
345.659
345.331
345.101
345.352
345.822
346.516
347.19
347.736
348.225
348.517
348.666
348.444
347.997
347.532
347.251
347.034
347.148
347.474
347.899
337.867
337.448
337.171
336.977
337.19
337.566
338.128
338.694
339.104
339.495
339.748
339.851
339.688
339.295
338.91
338.687
338.525
338.621
338.898
339.232
329.528
329.185
328.957
328.813
328.982
329.307
329.685
330.166
330.448
330.743
330.945
331.018
330.892
330.592
330.259
330.14
329.962
330.095
330.293
330.522
321.131
320.879
320.729
320.607
320.735
320.977
321.233
321.579
321.79
321.956
322.112
322.156
322.092
321.874
321.602
321.549
321.392
321.533
321.651
321.823
312.705
312.551
312.466
312.39
312.462
312.604
312.76
312.968
313.088
313.176
313.287
313.314
313.272
313.145
312.968
312.935
312.837
312.959
313.026
313.112
304.263
304.208
304.192
304.155
304.177
304.224
304.282
304.348
304.392
304.406
304.458
304.463
304.451
304.404
304.34
304.327
304.307
304.352
304.358
304.395
364.109
363.314
362.913
362.639
362.915
363.392
364.312
365.251
365.911
366.592
367.036
367.212
367.086
366.643
366.093
365.751
365.661
365.823
366.216
366.799
355.758
355.078
354.735
354.48
354.686
355.103
355.896
356.702
357.243
357.788
358.179
358.341
358.232
357.83
357.338
357.061
356.976
357.135
357.47
357.95
347.336
346.738
346.469
346.225
346.419
346.758
347.411
348.073
348.529
348.944
349.295
349.409
349.333
348.976
348.579
348.336
348.259
348.398
348.692
349.078
338.842
338.326
338.118
337.925
338.099
338.339
338.87
339.404
339.764
340.089
340.354
340.449
340.411
340.103
339.81
339.59
339.537
339.648
339.89
340.171
330.305
329.873
329.712
329.568
329.703
329.859
330.277
330.672
330.966
331.229
331.412
331.476
331.462
331.221
331.011
330.826
330.785
330.878
331.045
331.274
321.709
321.362
321.253
321.163
321.268
321.358
321.645
321.932
322.161
322.331
322.448
322.492
322.493
322.328
322.171
322.042
322.011
322.1
322.199
322.384
313.062
312.848
312.763
312.727
312.798
312.825
313.005
313.176
313.336
313.409
313.489
313.508
313.503
313.427
313.326
313.25
313.232
313.3
313.353
313.456
304.381
304.321
304.275
304.271
304.29
304.293
304.367
304.412
304.476
304.504
304.528
304.534
304.527
304.495
304.471
304.447
304.438
304.472
304.477
304.508
365.68
364.821
364.369
364.164
364.397
364.765
365.54
366.435
367.138
367.505
368.134
368.154
368.2
367.847
367.519
367.347
367.233
367.459
367.973
368.499
357.106
356.392
355.981
355.795
355.977
356.284
356.951
357.71
358.284
358.603
359.143
359.152
359.215
358.872
358.604
358.448
358.348
358.538
358.991
359.405
348.459
347.886
347.491
347.372
347.501
347.741
348.287
348.92
349.406
349.656
350.098
350.107
350.168
349.887
349.657
349.508
349.43
349.61
349.96
350.295
339.739
339.246
338.949
338.865
338.989
339.16
339.575
340.092
340.477
340.669
341.003
341.046
341.074
340.859
340.685
340.532
340.471
340.641
340.885
341.167
330.981
330.579
330.349
330.292
330.386
330.518
330.831
331.228
331.509
331.657
331.915
331.969
331.944
331.814
331.672
331.538
331.498
331.62
331.81
332.026
322.181
321.884
321.721
321.67
321.734
321.822
322.064
322.319
322.531
322.647
322.812
322.876
322.823
322.754
322.666
322.55
322.516
322.605
322.734
322.9
313.342
313.164
313.058
313.045
313.054
313.107
313.263
313.402
313.548
313.612
313.719
313.744
313.699
313.672
313.622
313.54
313.525
313.562
313.666
313.775
304.48
304.416
304.381
304.373
304.37
304.393
304.453
304.501
304.539
304.563
304.6
304.6
304.582
304.577
304.564
304.545
304.529
304.542
304.575
304.619
367.145
366.35
365.789
365.662
365.739
366.138
366.875
367.583
368.123
368.717
369.174
369.28
369.383
369.138
368.951
368.84
368.8
369.137
369.684
370.27
358.37
357.68
357.202
357.078
357.135
357.472
358.097
358.701
359.146
359.645
360.041
360.145
360.222
359.992
359.844
359.743
359.723
359.998
360.437
360.949
349.517
348.931
348.549
348.423
348.446
348.715
349.267
349.771
350.139
350.526
350.895
350.965
351.021
350.806
350.705
350.625
350.595
350.803
351.174
351.612
340.597
340.102
339.817
339.693
339.722
339.925
340.333
340.786
341.104
341.379
341.69
341.754
341.779
341.584
341.534
341.461
341.441
341.593
341.876
342.269
331.641
331.24
331.014
330.931
330.96
331.102
331.418
331.775
332.031
332.216
332.458
332.509
332.497
332.366
332.338
332.294
332.243
332.382
332.56
332.891
322.65
322.341
322.17
322.134
322.154
322.251
322.49
322.748
322.912
323.033
323.221
323.27
323.222
323.116
323.134
323.085
323.047
323.146
323.254
323.509
313.607
313.417
313.323
313.309
313.313
313.383
313.516
313.669
313.765
313.827
313.956
313.986
313.943
313.875
313.921
313.867
313.844
313.908
313.974
314.138
304.565
304.494
304.467
304.458
304.462
304.483
304.529
304.577
304.61
304.643
304.671
304.692
304.666
304.651
304.668
304.641
304.636
304.665
304.691
304.743
368.744
367.791
367.376
367.155
367.153
367.556
368.098
368.814
369.39
369.791
370.198
370.338
370.535
370.415
370.256
370.356
370.503
370.697
371.326
372.048
359.759
358.94
358.57
358.372
358.375
358.695
359.164
359.764
360.273
360.57
360.904
361.04
361.231
361.106
360.963
361.044
361.184
361.361
361.887
362.49
350.695
350.005
349.691
349.511
349.5
349.769
350.193
350.673
351.091
351.31
351.591
351.721
351.867
351.764
351.646
351.713
351.829
351.954
352.395
352.895
341.559
340.993
340.76
340.591
340.578
340.8
341.163
341.522
341.856
342.035
342.256
342.361
342.486
342.422
342.293
342.361
342.438
342.534
342.867
343.295
332.39
331.924
331.755
331.64
331.583
331.798
332.076
332.361
332.584
332.726
332.877
332.98
333.081
333.035
332.934
332.969
333.025
333.102
333.32
333.687
323.177
322.816
322.719
322.643
322.591
322.746
322.944
323.16
323.277
323.382
323.492
323.607
323.638
323.596
323.558
323.572
323.602
323.655
323.79
324.072
313.946
313.696
313.643
313.619
313.571
313.674
313.802
313.944
313.975
314.035
314.108
314.197
314.199
314.186
314.148
314.159
314.172
314.226
314.29
314.433
304.675
304.592
304.572
304.562
304.551
304.601
304.619
304.683
304.691
304.709
304.729
304.765
304.752
304.762
304.733
304.753
304.746
304.772
304.791
304.837
370.066
369.182
368.692
368.422
368.489
368.791
369.532
370.013
370.424
370.88
371.241
371.381
371.756
371.659
371.562
371.562
371.858
372.198
372.85
373.53
360.885
360.106
359.693
359.437
359.486
359.735
360.389
360.779
361.121
361.525
361.815
361.918
362.265
362.157
362.083
362.077
362.326
362.613
363.171
363.757
351.649
350.963
350.631
350.402
350.427
350.636
351.214
351.497
351.767
352.107
352.356
352.431
352.736
352.627
352.561
352.557
352.783
352.996
353.478
353.971
342.371
341.782
341.497
341.324
341.343
341.491
341.957
342.184
342.408
342.67
342.888
342.932
343.18
343.081
343.016
343.038
343.226
343.378
343.778
344.197
333.018
332.556
332.315
332.193
332.204
332.314
332.682
332.828
333.017
333.206
333.403
333.42
333.588
333.515
333.482
333.472
333.658
333.756
334.065
334.405
323.62
323.293
323.127
323.035
323.039
323.106
323.396
323.471
323.595
323.732
323.886
323.893
323.992
323.945
323.942
323.929
324.061
324.133
324.338
324.61
314.187
314.008
313.905
313.844
313.852
313.877
314.074
314.099
314.181
314.266
314.349
314.351
314.407
314.393
314.395
314.373
314.456
314.488
314.629
314.79
304.75
304.701
304.667
304.653
304.652
304.658
304.715
304.725
304.753
304.792
304.811
304.816
304.825
304.825
304.826
304.823
304.848
304.863
304.906
304.961
371.159
370.294
369.772
369.39
369.44
369.839
370.438
370.936
371.232
371.701
372.141
372.313
372.643
372.468
372.568
372.638
372.936
373.358
373.967
374.903
361.775
361.014
360.555
360.223
360.272
360.632
361.131
361.554
361.797
362.184
362.565
362.692
362.99
362.824
362.893
362.963
363.219
363.581
364.107
364.898
352.386
351.71
351.31
351.022
351.051
351.382
351.772
352.14
352.334
352.653
352.991
353.055
353.312
353.152
353.212
353.288
353.501
353.796
354.281
354.926
342.9
342.348
342.039
341.795
341.81
342.081
342.401
342.685
342.853
343.103
343.391
343.43
343.632
343.485
343.537
343.594
343.805
344.003
344.445
344.942
333.414
332.97
332.73
332.548
332.567
332.757
332.994
333.214
333.341
333.549
333.753
333.789
333.946
333.83
333.874
333.895
334.077
334.24
334.581
334.98
323.907
323.564
323.416
323.269
323.303
323.419
323.585
323.735
323.835
323.972
324.128
324.154
324.263
324.151
324.186
324.197
324.349
324.456
324.714
325.005
314.368
314.159
314.079
313.985
314.018
314.065
314.155
314.251
314.338
314.392
314.507
314.528
314.569
314.49
314.52
314.53
314.636
314.673
314.846
315.01
304.806
304.747
304.724
304.696
304.703
304.726
304.751
304.773
304.809
304.827
304.862
304.88
304.882
304.852
304.864
304.871
304.913
304.906
304.97
305.026
)
;

boundaryField
{
    hotSide
    {
        type            fixedGradient;
        gradient        nonuniform List<scalar> 
400
(
507.841
507.689
510.359
515.77
523.635
533.54
545.047
557.757
571.346
585.564
600.235
615.243
630.528
646.078
661.924
678.134
694.802
712.028
729.891
748.42
490.444
490.647
493.87
500.01
508.718
519.504
531.862
545.349
559.611
574.388
589.497
604.827
620.324
635.985
651.858
668.029
684.619
701.756
719.545
738.029
481.154
482.026
485.88
492.604
501.844
513.11
525.897
539.754
554.323
569.335
584.606
600.024
615.538
631.153
646.922
662.943
679.343
696.257
713.796
732.011
479.437
481.273
485.853
493.059
502.583
514
526.855
540.729
555.274
570.224
585.393
600.667
615.997
631.394
646.913
662.651
678.73
695.272
712.381
730.111
483.277
486.263
491.693
499.439
509.238
520.736
533.544
547.286
561.638
576.342
591.215
606.149
621.101
636.087
651.169
666.443
682.021
698.015
714.517
731.584
490.369
494.6
501.015
509.471
519.726
531.469
544.351
558.03
572.197
586.606
601.083
615.534
629.933
644.313
658.753
673.356
688.238
703.505
719.248
735.527
498.776
504.287
511.807
521.172
532.138
544.398
557.612
571.434
585.555
599.727
613.787
627.665
641.368
654.97
668.581
682.332
696.352
710.758
725.642
741.067
506.965
513.729
522.42
532.854
544.768
557.832
571.673
585.908
600.188
614.245
627.922
641.183
654.095
666.794
679.452
692.24
705.315
718.806
732.81
747.394
513.683
521.579
531.406
542.963
555.965
570.042
584.761
599.663
614.322
628.416
641.786
654.447
666.552
678.329
690.027
701.869
714.043
726.689
739.907
753.758
517.899
526.676
537.446
550.003
564.042
579.158
594.849
610.559
625.758
640.047
653.255
665.455
676.904
687.934
698.869
709.983
721.482
733.512
746.168
759.507
518.864
528.126
539.468
552.683
567.456
583.356
599.833
616.26
632.019
646.645
659.95
672.05
683.274
694.023
704.669
715.509
726.759
738.563
751.014
764.161
516.238
525.497
536.92
550.298
565.31
581.513
598.347
615.173
631.365
646.449
660.226
672.797
684.475
695.649
706.684
717.871
729.426
741.493
754.166
767.497
510.216
518.987
530.012
543.078
557.862
573.921
590.717
607.655
624.17
639.833
654.436
668.016
680.789
693.056
705.122
717.248
729.636
742.432
755.736
769.608
501.56
509.454
519.736
532.199
546.515
562.249
578.89
595.9
612.782
629.153
644.795
659.669
673.879
687.616
701.1
714.54
728.117
741.97
756.205
770.891
491.573
498.339
507.712
519.497
533.359
548.856
565.479
582.717
600.109
617.294
634.039
650.247
665.936
681.204
696.193
711.061
725.956
741.007
756.318
771.966
482.101
487.618
496.06
507.246
520.816
536.28
553.098
570.743
588.756
606.779
624.566
641.983
658.995
675.639
692.002
708.197
724.346
740.563
756.949
773.577
475.603
479.875
487.445
498.144
511.56
527.126
544.232
562.315
580.904
599.639
618.269
636.645
654.702
672.441
689.914
707.204
724.412
741.639
758.978
776.499
475.05
478.229
485.008
495.227
508.42
523.949
541.149
559.428
578.31
597.44
616.569
635.543
654.281
672.765
691.02
709.108
727.111
745.119
763.214
781.459
483.08
485.479
491.53
501.091
513.703
528.729
545.512
563.474
582.151
601.199
620.371
639.51
658.521
677.37
696.06
714.633
733.148
751.68
770.297
789.047
500.491
502.461
507.838
516.509
528.095
542.059
557.83
574.89
592.811
611.264
630.006
648.87
667.752
686.596
705.385
724.136
742.886
761.682
780.573
799.593
)
;
    }
    coldSide
    {
        type            mixed;
        refValue        uniform 300;
        refGradient     uniform 0;
        valueFraction   uniform 0.991591;
        source          uniform 0;
        value           nonuniform List<scalar> 
400
(
300.029
300.029
300.029
300.029
300.03
300.03
300.031
300.031
300.032
300.033
300.033
300.034
300.035
300.036
300.037
300.038
300.038
300.039
300.04
300.04
300.028
300.028
300.028
300.028
300.029
300.03
300.03
300.031
300.032
300.032
300.033
300.034
300.035
300.035
300.036
300.037
300.038
300.039
300.04
300.04
300.028
300.028
300.028