/*--------------------------------*- C++ -*----------------------------------*\
| =========                 |                                                 |
| \\      /  F ield         | OpenFOAM: The Open Source CFD Toolbox           |
|  \\    /   O peration     | Version:  2212                                  |
|   \\  /    A nd           | Website:  www.openfoam.com                      |
|    \\/     M anipulation  |                                                 |
\*---------------------------------------------------------------------------*/
FoamFile
{
    version     2.0;
    format      ascii;
    arch        "LSB;label=32;scalar=64";
    class       volScalarField;
    location    "0";
    object      Tdirect;
}
// * * * * * * * * * * * * * * * * * * * * * * * * * * * * * * * * * * * * * //

dimensions      [0 0 0 1 0 0 0];

internalField   nonuniform List<scalar> 
3200
(
336.078
336.369
336.74
337.144
337.56
337.969
338.346
338.665
338.897
339.019
339.019
338.897
338.665
338.346
337.969
337.56
337.144
336.74
336.369
336.078
331.166
331.412
331.732
332.082
332.442
332.795
333.122
333.397
333.597
333.703
333.703
333.597
333.397
333.122
332.795
332.442
332.082
331.732
331.412
331.166
326.298
326.502
326.772
327.067
327.372
327.671
327.946
328.178
328.347
328.436
328.436
328.347
328.178
327.946
327.671
327.372
327.067
326.772
326.502
326.298
321.469
321.633
321.853
322.094
322.343
322.587
322.812
323.002
323.14
323.212
323.212
323.14
323.002
322.812
322.587
322.343
322.094
321.853
321.633
321.469
316.67
316.796
316.966
317.154
317.348
317.537
317.712
317.859
317.966
318.023
318.023
317.966
317.859
317.712
317.537
317.348
317.154
316.966
316.796
316.67
311.895
311.985
312.106
312.24
312.378
312.514
312.639
312.744
312.82
312.86
312.86
312.82
312.744
312.639
312.514
312.378
312.24
312.106
311.985
311.895
307.138
307.192
307.265
307.345
307.428
307.509
307.584
307.647
307.693
307.717
307.717
307.693
307.647
307.584
307.509
307.428
307.345
307.265
307.192
307.138
302.392
302.409
302.434
302.461
302.489
302.516
302.541
302.562
302.577
302.586
302.586
302.577
302.562
302.541
302.516
302.489
302.461
302.434
302.409
302.392
336.22
336.508
336.876
337.276
337.688
338.093
338.465
338.78
339.009
339.13
339.13
339.009
338.78
338.465
338.093
337.688
337.276
336.876
336.508
336.22
331.288
331.532
331.849
332.196
332.552
332.902
333.224
333.496
333.694
333.798
333.798
333.694
333.496
333.224
332.902
332.552
332.196
331.849
331.532
331.288
326.401
326.604
326.871
327.164
327.465
327.76
328.033
328.262
328.429
328.517
328.517
328.429
328.262
328.033
327.76
327.465
327.164
326.871
326.604
326.401
321.552
321.715
321.933
322.172
322.419
322.66
322.883
323.07
323.206
323.278
323.278
323.206
323.07
322.883
322.66
322.419
322.172
321.933
321.715
321.552
316.735
316.86
317.029
317.215
317.406
317.594
317.767
317.912
318.018
318.074
318.074
318.018
317.912
317.767
317.594
317.406
317.215
317.029
316.86
316.735
311.942
312.03
312.151
312.284
312.42
312.554
312.678
312.781
312.857
312.897
312.897
312.857
312.781
312.678
312.554
312.42
312.284
312.151
312.03
311.942
307.166
307.219
307.291
307.371
307.453
307.534
307.608
307.67
307.715
307.739
307.739
307.715
307.67
307.608
307.534
307.453
307.371
307.291
307.219
307.166
302.401
302.419
302.443
302.47
302.497
302.524
302.549
302.57
302.585
302.593
302.593
302.585
302.57
302.549
302.524
302.497
302.47
302.443
302.419
302.401
336.503
336.787
337.149
337.542
337.946
338.341
338.705
339.012
339.235
339.353
339.353
339.235
339.012
338.705
338.341
337.946
337.542
337.149
336.787
336.503
331.533
331.773
332.084
332.425
332.774
333.116
333.431
333.696
333.889
333.991
333.991
333.889
333.696
333.431
333.116
332.774
332.425
332.084
331.773
331.533
326.607
326.806
327.069
327.356
327.652
327.941
328.207
328.431
328.593
328.679
328.679
328.593
328.431
328.207
327.941
327.652
327.356
327.069
326.806
326.607
321.72
321.881
322.095
322.33
322.571
322.807
323.025
323.207
323.34
323.41
323.41
323.34
323.207
323.025
322.807
322.571
322.33
322.095
321.881
321.72
316.865
316.988
317.154
317.337
317.525
317.708
317.877
318.019
318.122
318.176
318.176
318.122
318.019
317.877
317.708
317.525
317.337
317.154
316.988
316.865
312.035
312.122
312.24
312.371
312.505
312.636
312.756
312.857
312.931
312.97
312.97
312.931
312.857
312.756
312.636
312.505
312.371
312.24
312.122
312.035
307.222
307.274
307.345
307.423
307.504
307.582
307.655
307.715
307.76
307.783
307.783
307.76
307.715
307.655
307.582
307.504
307.423
307.345
307.274
307.222
302.42
302.437
302.461
302.487
302.514
302.54
302.565
302.585
302.6
302.608
302.608
302.6
302.585
302.565
302.54
302.514
302.487
302.461
302.437
302.42
336.93
337.207
337.559
337.942
338.333
338.716
339.068
339.364
339.579
339.692
339.692
339.579
339.364
339.068
338.716
338.333
337.942
337.559
337.207
336.93
331.9
332.134
332.438
332.769
333.109
333.44
333.744
334
334.185
334.283
334.283
334.185
334
333.744
333.44
333.109
332.769
332.438
332.134
331.9
326.917
327.111
327.367
327.647
327.934
328.213
328.47
328.686
328.843
328.925
328.925
328.843
328.686
328.47
328.213
327.934
327.647
327.367
327.111
326.917
321.973
322.129
322.338
322.566
322.801
323.03
323.239
323.416
323.544
323.611
323.611
323.544
323.416
323.239
323.03
322.801
322.566
322.338
322.129
321.973
317.061
317.181
317.343
317.521
317.703
317.881
318.044
318.181
318.28
318.332
318.332
318.28
318.181
318.044
317.881
317.703
317.521
317.343
317.181
317.061
312.174
312.259
312.375
312.501
312.632
312.759
312.875
312.973
313.044
313.081
313.081
313.044
312.973
312.875
312.759
312.632
312.501
312.375
312.259
312.174
307.305
307.356
307.426
307.502
307.58
307.656
307.726
307.785
307.827
307.849
307.849
307.827
307.785
307.726
307.656
307.58
307.502
307.426
307.356
307.305
302.448
302.465
302.488
302.513
302.54
302.565
302.589
302.608
302.622
302.63
302.63
302.622
302.608
302.589
302.565
302.54
302.513
302.488
302.465
302.448
337.499
337.768
338.109
338.478
338.854
339.221
339.557
339.839
340.044
340.151
340.151
340.044
339.839
339.557
339.221
338.854
338.478
338.109
337.768
337.499
332.391
332.618
332.912
333.231
333.558
333.875
334.166
334.41
334.586
334.679
334.679
334.586
334.41
334.166
333.875
333.558
333.231
332.912
332.618
332.391
327.33
327.519
327.767
328.036
328.312
328.58
328.826
329.032
329.181
329.259
329.259
329.181
329.032
328.826
328.58
328.312
328.036
327.767
327.519
327.33
322.31
322.461
322.663
322.884
323.109
323.329
323.529
323.697
323.819
323.883
323.883
323.819
323.697
323.529
323.329
323.109
322.884
322.663
322.461
322.31
317.322
317.439
317.595
317.767
317.942
318.112
318.268
318.399
318.494
318.543
318.543
318.494
318.399
318.268
318.112
317.942
317.767
317.595
317.439
317.322
312.361
312.443
312.555
312.677
312.802
312.924
313.035
313.129
313.196
313.232
313.232
313.196
313.129
313.035
312.924
312.802
312.677
312.555
312.443
312.361
307.417
307.467
307.533
307.607
307.682
307.755
307.822
307.878
307.919
307.94
307.94
307.919
307.878
307.822
307.755
307.682
307.607
307.533
307.467
307.417
302.485
302.502
302.524
302.549
302.574
302.598
302.621
302.639
302.653
302.66
302.66
302.653
302.639
302.621
302.598
302.574
302.549
302.524
302.502
302.485
338.214
338.472
338.799
339.152
339.511
339.859
340.177
340.443
340.636
340.737
340.737
340.636
340.443
340.177
339.859
339.511
339.152
338.799
338.472
338.214
333.007
333.226
333.508
333.813
334.124
334.425
334.7
334.93
335.097
335.184
335.184
335.097
334.93
334.7
334.425
334.124
333.813
333.508
333.226
333.007
327.849
328.03
328.268
328.526
328.789
329.044
329.276
329.47
329.611
329.685
329.685
329.611
329.47
329.276
329.044
328.789
328.526
328.268
328.03
327.849
322.732
322.879
323.072
323.283
323.498
323.706
323.896
324.055
324.17
324.23
324.23
324.17
324.055
323.896
323.706
323.498
323.283
323.072
322.879
322.732
317.65
317.762
317.913
318.076
318.244
318.405
318.553
318.676
318.766
318.812
318.812
318.766
318.676
318.553
318.405
318.244
318.076
317.913
317.762
317.65
312.594
312.674
312.781
312.898
313.017
313.133
313.238
313.326
313.39
313.423
313.423
313.39
313.326
313.238
313.133
313.017
312.898
312.781
312.674
312.594
307.557
307.605
307.669
307.739
307.811
307.881
307.944
307.997
308.035
308.055
308.055
308.035
307.997
307.944
307.881
307.811
307.739
307.669
307.605
307.557
302.532
302.548
302.569
302.593
302.617
302.64
302.661
302.679
302.692
302.699
302.699
302.692
302.679
302.661
302.64
302.617
302.593
302.569
302.548
302.532
339.074
339.321
339.632
339.967
340.306
340.634
340.933
341.181
341.36
341.454
341.454
341.36
341.181
340.933
340.634
340.306
339.967
339.632
339.321
339.074
333.748
333.957
334.226
334.516
334.81
335.094
335.352
335.567
335.722
335.803
335.803
335.722
335.567
335.352
335.094
334.81
334.516
334.226
333.957
333.748
328.473
328.647
328.873
329.118
329.367
329.607
329.825
330.006
330.137
330.206
330.206
330.137
330.006
329.825
329.607
329.367
329.118
328.873
328.647
328.473
323.241
323.381
323.566
323.766
323.969
324.165
324.344
324.492
324.599
324.655
324.655
324.599
324.492
324.344
324.165
323.969
323.766
323.566
323.381
323.241
318.045
318.152
318.295
318.451
318.609
318.761
318.9
319.015
319.098
319.142
319.142
319.098
319.015
318.9
318.761
318.609
318.451
318.295
318.152
318.045
312.876
312.952
313.054
313.165
313.278
313.387
313.486
313.568
313.627
313.658
313.658
313.627
313.568
313.486
313.387
313.278
313.165
313.054
312.952
312.876
307.726
307.772
307.833
307.9
307.967
308.033
308.092
308.142
308.177
308.196
308.196
308.177
308.142
308.092
308.033
307.967
307.9
307.833
307.772
307.726
302.589
302.604
302.624
302.647
302.669
302.691
302.711
302.728
302.74
302.746
302.746
302.74
302.728
302.711
302.691
302.669
302.647
302.624
302.604
302.589
340.081
340.315
340.61
340.926
341.244
341.55
341.828
342.058
342.223
342.31
342.31
342.223
342.058
341.828
341.55
341.244
340.926
340.61
340.315
340.081
334.616
334.815
335.069
335.343
335.618
335.883
336.123
336.323
336.466
336.541
336.541
336.466
336.323
336.123
335.883
335.618
335.343
335.069
334.815
334.616
329.205
329.369
329.584
329.815
330.048
330.272
330.475
330.643
330.764
330.828
330.828
330.764
330.643
330.475
330.272
330.048
329.815
329.584
329.369
329.205
323.838
323.97
324.145
324.334
324.524
324.708
324.874
325.011
325.11
325.162
325.162
325.11
325.011
324.874
324.708
324.524
324.334
324.145
323.97
323.838
318.507
318.609
318.745
318.891
319.04
319.182
319.311
319.418
319.495
319.535
319.535
319.495
319.418
319.311
319.182
319.04
318.891
318.745
318.609
318.507
313.205
313.277
313.374
313.479
313.585
313.687
313.779
313.855
313.91
313.939
313.939
313.91
313.855
313.779
313.687
313.585
313.479
313.374
313.277
313.205
307.924
307.967
308.025
308.088
308.152
308.213
308.268
308.314
308.347
308.364
308.364
308.347
308.314
308.268
308.213
308.152
308.088
308.025
307.967
307.924
302.655
302.669
302.689
302.71
302.731
302.752
302.77
302.785
302.796
302.802
302.802
302.796
302.785
302.77
302.752
302.731
302.71
302.689
302.669
302.655
341.236
341.458
341.735
342.031
342.327
342.611
342.867
343.079
343.23
343.31
343.31
343.23
343.079
342.867
342.611
342.327
342.031
341.735
341.458
341.236
335.612
335.8
336.04
336.295
336.552
336.798
337.02
337.203
337.334
337.403
337.403
337.334
337.203
337.02
336.798
336.552
336.295
336.04
335.8
335.612
330.044
330.199
330.401
330.617
330.835
331.043
331.23
331.385
331.496
331.554
331.554
331.496
331.385
331.23
331.043
330.835
330.617
330.401
330.199
330.044
324.522
324.647
324.811
324.988
325.166
325.336
325.489
325.616
325.707
325.754
325.754
325.707
325.616
325.489
325.336
325.166
324.988
324.811
324.647
324.522
319.038
319.134
319.262
319.399
319.537
319.669
319.789
319.887
319.958
319.994
319.994
319.958
319.887
319.789
319.669
319.537
319.399
319.262
319.134
319.038
313.584
313.652
313.743
313.841
313.94
314.034
314.119
314.189
314.24
314.266
314.266
314.24
314.189
314.119
314.034
313.94
313.841
313.743
313.652
313.584
308.151
308.191
308.246
308.305
308.364
308.421
308.472
308.514
308.545
308.56
308.56
308.545
308.514
308.472
308.421
308.364
308.305
308.246
308.191
308.151
302.731
302.744
302.763
302.782
302.802
302.821
302.838
302.853
302.863
302.868
302.868
302.863
302.853
302.838
302.821
302.802
302.782
302.763
302.744
302.731
342.541
342.75
343.009
343.284
343.559
343.82
344.055
344.248
344.387
344.459
344.459
344.387
344.248
344.055
343.82
343.559
343.284
343.009
342.75
342.541
336.738
336.914
337.138
337.376
337.614
337.841
338.044
338.211
338.331
338.393
338.393
338.331
338.211
338.044
337.841
337.614
337.376
337.138
336.914
336.738
330.992
331.138
331.327
331.528
331.729
331.921
332.093
332.234
332.336
332.388
332.388
332.336
332.234
332.093
331.921
331.729
331.528
331.327
331.138
330.992
325.294
325.412
325.566
325.731
325.895
326.052
326.193
326.308
326.391
326.434
326.434
326.391
326.308
326.193
326.052
325.895
325.731
325.566
325.412
325.294
319.637
319.728
319.847
319.975
320.103
320.225
320.334
320.424
320.489
320.522
320.522
320.489
320.424
320.334
320.225
320.103
319.975
319.847
319.728
319.637
314.011
314.075
314.16
314.252
314.343
314.43
314.508
314.573
314.618
314.642
314.642
314.618
314.573
314.508
314.43
314.343
314.252
314.16
314.075
314.011
308.407
308.445
308.496
308.551
308.606
308.659
308.705
308.744
308.772
308.786
308.786
308.772
308.744
308.705
308.659
308.606
308.551
308.496
308.445
308.407
302.817
302.829
302.847
302.865
302.883
302.901
302.917
302.93
302.939
302.944
302.944
302.939
302.93
302.917
302.901
302.883
302.865
302.847
302.829
302.817
343.997
344.192
344.434
344.689
344.942
345.181
345.396
345.571
345.696
345.761
345.761
345.696
345.571
345.396
345.181
344.942
344.689
344.434
344.192
343.997
337.993
338.158
338.367
338.587
338.807
339.014
339.2
339.352
339.46
339.516
339.516
339.46
339.352
339.2
339.014
338.807
338.587
338.367
338.158
337.993
332.049
332.186
332.362
332.548
332.734
332.91
333.067
333.195
333.287
333.334
333.334
333.287
333.195
333.067
332.91
332.734
332.548
332.362
332.186
332.049
326.157
326.267
326.41
326.563
326.714
326.858
326.987
327.092
327.167
327.206
327.206
327.167
327.092
326.987
326.858
326.714
326.563
326.41
326.267
326.157
320.306
320.391
320.502
320.62
320.738
320.85
320.95
321.032
321.09
321.12
321.12
321.09
321.032
320.95
320.85
320.738
320.62
320.502
320.391
320.306
314.488
314.548
314.627
314.712
314.796
314.876
314.947
315.006
315.047
315.069
315.069
315.047
315.006
314.947
314.876
314.796
314.712
314.627
314.548
314.488
308.693
308.729
308.776
308.827
308.878
308.926
308.969
309.004
309.029
309.042
309.042
309.029
309.004
308.969
308.926
308.878
308.827
308.776
308.729
308.693
302.912
302.924
302.94
302.957
302.974
302.99
303.005
303.017
303.025
303.029
303.029
303.025
303.017
303.005
302.99
302.974
302.957
302.94
302.924
302.912
345.606
345.787
346.011
346.246
346.478
346.697
346.891
347.05
347.162
347.221
347.221
347.162
347.05
346.891
346.697
346.478
346.246
346.011
345.787
345.606
339.38
339.534
339.727
339.93
340.131
340.321
340.489
340.627
340.724
340.775
340.775
340.724
340.627
340.489
340.321
340.131
339.93
339.727
339.534
339.38
333.218
333.345
333.508
333.68
333.85
334.011
334.153
334.269
334.352
334.395
334.395
334.352
334.269
334.153
334.011
333.85
333.68
333.508
333.345
333.218
327.109
327.212
327.345
327.485
327.624
327.756
327.872
327.967
328.035
328.07
328.07
328.035
327.967
327.872
327.756
327.624
327.485
327.345
327.212
327.109
321.045
321.123
321.227
321.336
321.444
321.546
321.637
321.711
321.763
321.791
321.791
321.763
321.711
321.637
321.546
321.444
321.336
321.227
321.123
321.045
315.015
315.07
315.144
315.222
315.299
315.372
315.437
315.49
315.527
315.547
315.547
315.527
315.49
315.437
315.372
315.299
315.222
315.144
315.07
315.015
309.009
309.042
309.086
309.133
309.18
309.224
309.263
309.294
309.317
309.329
309.329
309.317
309.294
309.263
309.224
309.18
309.133
309.086
309.042
309.009
303.018
303.029
303.044
303.06
303.075
303.09
303.103
303.114
303.121
303.125
303.125
303.121
303.114
303.103
303.09
303.075
303.06
303.044
303.029
303.018
347.367
347.535
347.742
347.958
348.17
348.368
348.544
348.687
348.788
348.841
348.841
348.788
348.687
348.544
348.368
348.17
347.958
347.742
347.535
347.367
340.898
341.041
341.219
341.406
341.59
341.762
341.914
342.038
342.126
342.171
342.171
342.126
342.038
341.914
341.762
341.59
341.406
341.219
341.041
340.898
334.497
334.615
334.765
334.923
335.079
335.225
335.354
335.458
335.532
335.571
335.571
335.532
335.458
335.354
335.225
335.079
334.923
334.765
334.615
334.497
328.152
328.247
328.37
328.499
328.626
328.746
328.851
328.937
328.997
329.029
329.029
328.997
328.937
328.851
328.746
328.626
328.499
328.37
328.247
328.152
321.854
321.927
322.022
322.122
322.221
322.314
322.396
322.463
322.51
322.534
322.534
322.51
322.463
322.396
322.314
322.221
322.122
322.022
321.927
321.854
315.591
315.643
315.711
315.783
315.853
315.92
315.978
316.026
316.06
316.077
316.077
316.06
316.026
315.978
315.92
315.853
315.783
315.711
315.643
315.591
309.355
309.386
309.427
309.47
309.512
309.552
309.587
309.616
309.636
309.647
309.647
309.636
309.616
309.587
309.552
309.512
309.47
309.427
309.386
309.355
303.134
303.144
303.158
303.173
303.187
303.2
303.212
303.222
303.228
303.232
303.232
303.228
303.222
303.212
303.2
303.187
303.173
303.158
303.144
303.134
349.28
349.436
349.626
349.824
350.017
350.197
350.355
350.483
350.574
350.621
350.621
350.574
350.483
350.355
350.197
350.017
349.824
349.626
349.436
349.28
342.548
342.68
342.844
343.015
343.182
343.338
343.476
343.587
343.665
343.706
343.706
343.665
343.587
343.476
343.338
343.182
343.015
342.844
342.68
342.548
335.886
335.996
336.134
336.279
336.421
336.553
336.669
336.763
336.829
336.864
336.864
336.829
336.763
336.669
336.553
336.421
336.279
336.134
335.996
335.886
329.285
329.373
329.486
329.604
329.72
329.828
329.923
330
330.054
330.083
330.083
330.054
330
329.923
329.828
329.72
329.604
329.486
329.373
329.285
322.732
322.8
322.887
322.979
323.069
323.154
323.228
323.287
323.33
323.352
323.352
323.33
323.287
323.228
323.154
323.069
322.979
322.887
322.8
322.732
316.218
316.265
316.328
316.394
316.458
316.518
316.571
316.614
316.644
316.66
316.66
316.644
316.614
316.571
316.518
316.458
316.394
316.328
316.265
316.218
309.731
309.759
309.797
309.836
309.875
309.911
309.943
309.968
309.987
309.996
309.996
309.987
309.968
309.943
309.911
309.875
309.836
309.797
309.759
309.731
303.26
303.27
303.282
303.295
303.308
303.32
303.331
303.34
303.346
303.349
303.349
303.346
303.34
303.331
303.32
303.308
303.295
303.282
303.27
303.26
351.343
351.487
351.662
351.842
352.017
352.18
352.322
352.437
352.518
352.56
352.56
352.518
352.437
352.322
352.18
352.017
351.842
351.662
351.487
351.343
344.326
344.448
344.599
344.755
344.907
345.048
345.171
345.271
345.341
345.377
345.377
345.341
345.271
345.171
345.048
344.907
344.755
344.599
344.448
344.326
337.384
337.485
337.612
337.744
337.873
337.992
338.097
338.181
338.24
338.271
338.271
338.24
338.181
338.097
337.992
337.873
337.744
337.612
337.485
337.384
330.505
330.586
330.69
330.798
330.903
331.001
331.087
331.156
331.204
331.23
331.23
331.204
331.156
331.087
331.001
330.903
330.798
330.69
330.586
330.505
323.679
323.741
323.821
323.905
323.987
324.063
324.13
324.184
324.221
324.241
324.241
324.221
324.184
324.13
324.063
323.987
323.905
323.821
323.741
323.679
316.892
316.936
316.994
317.054
317.112
317.167
317.214
317.253
317.28
317.294
317.294
317.28
317.253
317.214
317.167
317.112
317.054
316.994
316.936
316.892
310.135
310.161
310.196
310.232
310.267
310.3
310.328
310.352
310.368
310.376
310.376
310.368
310.352
310.328
310.3
310.267
310.232
310.196
310.161
310.135
303.396
303.404
303.416
303.428
303.44
303.451
303.46
303.468
303.473
303.476
303.476
303.473
303.468
303.46
303.451
303.44
303.428
303.416
303.404
303.396
353.548
353.68
353.84
354.005
354.164
354.31
354.438
354.541
354.613
354.651
354.651
354.613
354.541
354.438
354.31
354.164
354.005
353.84
353.68
353.548
346.225
346.337
346.475
346.618
346.755
346.883
346.994
347.083
347.146
347.178
347.178
347.146
347.083
346.994
346.883
346.755
346.618
346.475
346.337
346.225
338.982
339.075
339.191
339.312
339.429
339.536
339.63
339.706
339.759
339.786
339.786
339.759
339.706
339.63
339.536
339.429
339.312
339.191
339.075
338.982
331.807
331.882
331.977
332.075
332.171
332.259
332.336
332.398
332.441
332.464
332.464
332.441
332.398
332.336
332.259
332.171
332.075
331.977
331.882
331.807
324.688
324.745
324.819
324.895
324.97
325.038
325.098
325.146
325.18
325.197
325.197
325.18
325.146
325.098
325.038
324.97
324.895
324.819
324.745
324.688
317.611
317.652
317.705
317.759
317.812
317.862
317.904
317.939
317.963
317.975
317.975
317.963
317.939
317.904
317.862
317.812
317.759
317.705
317.652
317.611
310.566
310.59
310.622
310.655
310.687
310.716
310.742
310.763
310.777
310.785
310.785
310.777
310.763
310.742
310.716
310.687
310.655
310.622
310.59
310.566
303.54
303.548
303.559
303.57
303.58
303.59
303.599
303.606
303.611
303.613
303.613
303.611
303.606
303.599
303.59
303.58
303.57
303.559
303.548
303.54
355.872
355.993
356.14
356.29
356.434
356.566
356.681
356.773
356.838
356.871
356.871
356.838
356.773
356.681
356.566
356.434
356.29
356.14
355.993
355.872
348.223
348.326
348.453
348.583
348.708
348.822
348.922
349.002
349.058
349.087
349.087
349.058
349.002
348.922
348.822
348.708
348.583
348.453
348.326
348.223
340.661
340.747
340.853
340.963
341.069
341.166
341.251
341.318
341.366
341.39
341.39
341.366
341.318
341.251
341.166
341.069
340.963
340.853
340.747
340.661
333.173
333.241
333.329
333.418
333.505
333.585
333.654
333.709
333.748
333.768
333.768
333.748
333.709
333.654
333.585
333.505
333.418
333.329
333.241
333.173
325.745
325.798
325.865
325.935
326.003
326.065
326.118
326.162
326.192
326.207
326.207
326.192
326.162
326.118
326.065
326.003
325.935
325.865
325.798
325.745
318.364
318.402
318.45
318.5
318.548
318.592
318.631
318.662
318.683
318.694
318.694
318.683
318.662
318.631
318.592
318.548
318.5
318.45
318.402
318.364
311.017
311.04
311.069
311.099
311.128
311.154
311.177
311.196
311.209
311.215
311.215
311.209
311.196
311.177
311.154
311.128
311.099
311.069
311.04
311.017
303.691
303.698
303.708
303.718
303.728
303.737
303.744
303.751
303.755
303.757
303.757
303.755
303.751
303.744
303.737
303.728
303.718
303.708
303.698
303.691
358.258
358.37
358.504
358.641
358.772
358.891
358.995
359.078
359.135
359.165
359.165
359.135
359.078
358.995
358.891
358.772
358.641
358.504
358.37
358.258
350.266
350.36
350.476
350.595
350.709
350.812
350.902
350.974
351.024
351.05
351.05
351.024
350.974
350.902
350.812
350.709
350.595
350.476
350.36
350.266
342.371
342.449
342.547
342.647
342.744
342.832
342.908
342.969
343.011
343.033
343.033
343.011
342.969
342.908
342.832
342.744
342.647
342.547
342.449
342.371
334.558
334.622
334.701
334.784
334.862
334.935
334.997
335.047
335.081
335.099
335.099
335.081
335.047
334.997
334.935
334.862
334.784
334.701
334.622
334.558
326.814
326.863
326.925
326.989
327.05
327.106
327.155
327.194
327.221
327.235
327.235
327.221
327.194
327.155
327.106
327.05
326.989
326.925
326.863
326.814
319.124
319.158
319.203
319.248
319.292
319.332
319.367
319.395
319.414
319.424
319.424
319.414
319.395
319.367
319.332
319.292
319.248
319.203
319.158
319.124
311.472
311.492
311.519
311.546
311.573
311.597
311.618
311.634
311.646
311.652
311.652
311.646
311.634
311.618
311.597
311.573
311.546
311.519
311.492
311.472
303.843
303.85
303.859
303.868
303.877
303.885
303.892
303.897
303.901
303.903
303.903
303.901
303.897
303.892
303.885
303.877
303.868
303.859
303.85
303.843
360.557
360.661
360.784
360.91
361.03
361.139
361.233
361.308
361.36
361.386
361.386
361.36
361.308
361.233
361.139
361.03
360.91
360.784
360.661
360.557
352.21
352.298
352.405
352.514
352.618
352.713
352.794
352.859
352.905
352.928
352.928
352.905
352.859
352.794
352.713
352.618
352.514
352.405
352.298
352.21
343.98
344.053
344.143
344.236
344.324
344.405
344.474
344.529
344.568
344.587
344.587
344.568
344.529
344.474
344.405
344.324
344.236
344.143
344.053
343.98
335.851
335.91
335.984
336.059
336.132
336.198
336.255
336.3
336.331
336.347
336.347
336.331
336.3
336.255
336.198
336.132
336.059
335.984
335.91
335.851
327.805
327.85
327.907
327.966
328.023
328.074
328.118
328.154
328.178
328.191
328.191
328.178
328.154
328.118
328.074
328.023
327.966
327.907
327.85
327.805
319.824
319.855
319.896
319.939
319.979
320.016
320.047
320.073
320.09
320.099
320.099
320.09
320.073
320.047
320.016
319.979
319.939
319.896
319.855
319.824
311.889
311.908
311.932
311.958
311.982
312.004
312.023
312.038
312.049
312.054
312.054
312.049
312.038
312.023
312.004
311.982
311.958
311.932
311.908
311.889
303.982
303.988
303.997
304.005
304.013
304.021
304.027
304.032
304.036
304.038
304.038
304.036
304.032
304.027
304.021
304.013
304.005
303.997
303.988
303.982
362.368
362.465
362.582
362.7
362.812
362.914
363.001
363.07
363.119
363.143
363.143
363.119
363.07
363.001
362.914
362.812
362.7
362.582
362.465
362.368
353.683
353.766
353.867
353.97
354.067
354.156
354.232
354.293
354.335
354.357
354.357
354.335
354.293
354.232
354.156
354.067
353.97
353.867
353.766
353.683
345.162
345.231
345.316
345.404
345.487
345.562
345.627
345.679
345.715
345.733
345.733
345.715
345.679
345.627
345.562
345.487
345.404
345.316
345.231
345.162
336.777
336.832
336.902
336.974
337.042
337.104
337.157
337.2
337.229
337.244
337.244
337.229
337.2
337.157
337.104
337.042
336.974
336.902
336.832
336.777
328.501
328.543
328.598
328.653
328.707
328.755
328.797
328.83
328.853
328.865
328.865
328.853
328.83
328.797
328.755
328.707
328.653
328.598
328.543
328.501
320.308
320.338
320.377
320.417
320.455
320.49
320.52
320.544
320.56
320.569
320.569
320.56
320.544
320.52
320.49
320.455
320.417
320.377
320.338
320.308
312.175
312.193
312.216
312.24
312.263
312.284
312.302
312.317
312.326
312.332
312.332
312.326
312.317
312.302
312.284
312.263
312.24
312.216
312.193
312.175
304.077
304.083
304.091
304.099
304.107
304.114
304.12
304.125
304.128
304.13
304.13
304.128
304.125
304.12
304.114
304.107
304.099
304.091
304.083
304.077
)
;

boundaryField
{
    hotSide
    {
        type            fixedGradient;
        gradient        nonuniform List<scalar> 
400
(
397.083
398.674
401.86
406.646
413.041
421.057
430.704
441.997
454.949
469.575
485.889
503.902
523.626
545.073
568.25
593.167
619.829
648.242
678.41
710.337
400.906
402.467
405.593
410.293
416.577
424.461
433.96
445.092
457.874
472.325
488.462
506.3
525.853
547.133
570.152
594.918
621.439
649.719
679.764
711.577
405.043
406.568
409.624
414.221
420.374
428.103
437.428
448.373
460.959
475.21
491.146
508.787
528.148
549.246
572.091
596.693
623.061
651.2
681.114
712.807
409.426
410.909
413.882
418.36
424.362
431.913
441.041
451.773
464.14
478.168
493.882
511.307
530.461
551.361
574.02
598.45
624.658
652.649
682.429
713.999
413.933
415.368
418.249
422.594
428.427
435.781
444.691
455.192
467.32
481.108
496.586
513.783
532.719
553.414
575.883
600.136
626.182
654.026
683.672
715.12
418.375
419.76
422.542
426.744
432.399
439.546
448.227
458.487
470.368
483.91
499.15
516.116
534.836
555.328
577.61
601.691
627.581
655.283
684.801
716.134
422.497
423.832
426.515
430.576
436.055
442.997
451.455
461.481
473.124
486.432
501.443
518.193
536.71
557.014
579.123
603.048
628.795
656.37
685.773
717.004
425.997
427.285
429.88
433.815
439.135
445.895
454.155
463.975
475.41
488.513
503.328
519.893
538.237
558.382
580.346
604.139
629.768
657.238
686.547
717.694
428.557
429.811
432.338
436.176
441.375
447.998
456.109
465.773
477.053
490.004
504.674
521.102
539.319
559.348
581.206
604.905
630.45
657.843
687.085
718.174
429.914
431.149
433.639
437.424
442.558
449.106
457.136
466.717
477.914
490.783
505.375
521.73
539.88
559.848
581.652
605.3
630.801
658.155
687.362
718.419
429.914
431.149
433.639
437.424
442.558
449.106
457.136
466.717
477.914
490.783
505.375
521.73
539.88
559.848
581.652
605.3
630.801
658.155
687.362
718.419
428.557
429.811
432.338
436.176
441.375
447.998
456.109
465.773
477.053
490.004
504.674
521.102
539.319
559.348
581.206
604.905
630.45
657.843
687.085
718.174
425.997
427.285
429.88
433.815
439.135
445.895
454.155
463.975
475.41
488.513
503.328
519.893
538.237
558.382
580.346
604.139
629.768
657.238
686.547
717.694
422.497
423.832
426.515
430.576
436.055
442.997
451.455
461.481
473.124
486.432
501.443
518.193
536.71
557.014
579.123
603.048
628.795
656.37
685.773
717.004
418.375
419.76
422.542
426.744
432.399
439.546
448.227
458.487
470.368
483.91
499.15
516.116
534.836
555.328
577.61
601.691
627.581
655.283
684.801
716.134
413.933
415.368
418.249
422.594
428.427
435.781
444.691
455.192
467.32
481.108
496.586
513.783
532.719
553.414
575.883
600.136
626.182
654.026
683.672
715.12
409.426
410.909
413.882
418.36
424.362
431.913
441.041
451.773
464.14
478.168
493.882
511.307
530.461
551.361
574.02
598.45
624.658
652.649
682.429
713.999
405.043
406.568
409.624
414.221
420.374
428.103
437.428
448.373
460.959
475.21
491.146
508.787
528.148
549.246
572.091
596.693
623.061
651.2
681.114
712.807
400.906
402.467
405.593
410.293
416.577
424.461
433.96
445.092
457.874
472.325
488.462
506.3
525.853
547.133
570.152
594.918
621.439
649.719
679.764
711.577
397.083
398.674
401.86
406.646
413.041
421.057
430.704
441.997
454.949
469.575
485.889
503.902
523.626
545.073
568.25
593.167
619.829
648.242
678.41
710.337
)
;
    }
    coldSide
    {
        type            mixed;
        refValue        uniform 300;
        refGradient     uniform 0;
        valueFraction   uniform 0.991591;
        source          uniform 0;
        value           nonuniform List<scalar> 
400
(
300.02
300.02
300.02
300.021
300.021
300.021
300.022
300.022
300.023
300.024
300.024
300.025
300.026
300.027
300.029
300.03
300.031
300.032
300.033
300.034
300.02
300.02
300.02
300.021
300.021
300.021
300.022
300.022
300.023
300.024
300.025
300.025
300.026
300.027
300.029
300.03
300.031
300.032
300.034
300.034
300.02
300.021
300.021
300.021