/*--------------------------------*- C++ -*----------------------------------*\
| =========                 |                                                 |
| \\      /  F ield         | OpenFOAM: The Open Source CFD Toolbox           |
|  \\    /   O peration     | Version:  2212                                  |
|   \\  /    A nd           | Website:  www.openfoam.com                      |
|    \\/     M anipulation  |                                                 |
\*---------------------------------------------------------------------------*/
FoamFile
{
    version     2.0;
    format      ascii;
    arch        "LSB;label=32;scalar=64";
    class       volScalarField;
    location    "./ITHACAoutput/true/17";
    object      error;
}
// * * * * * * * * * * * * * * * * * * * * * * * * * * * * * * * * * * * * * //

dimensions      [0 0 0 1 0 0 0];

internalField   nonuniform List<scalar> 
3200
(
0.214482
1.98379
0.402179
3.37959
3.83067
3.99831
3.70188
4.68424
2.25771
2.77607
2.3402
2.00501
1.23647
2.04587
2.67554
3.2113
3.79006
3.24535
2.13847
1.36505
-1.22913
1.82586
1.23426
1.13512
3.21018
2.63131
3.21945
3.39952
1.99846
2.84473
2.78434
1.46917
4.5218
1.20831
3.928
3.34368
3.76351
3.58451
2.34944
-0.147543
-0.540622
0.261789
2.88824
1.70981
2.26869
1.19304
2.00472
3.77292
0.252588
1.32686
2.53747
3.16904
2.29818
3.17154
3.48741
1.80043
4.41341
0.891872
0.701752
-2.73461
1.5083
0.477475
1.70581
4.17749
3.41316
1.8869
1.56239
1.25228
2.8696
1.8281
0.482751
-1.1349
4.06841
2.15436
0.544721
2.36618
2.10503
2.73064
-0.592849
1.10589
-2.10027
1.45619
4.09406
1.14467
-0.364324
-0.165502
2.29623
2.67003
1.87075
1.46732
-0.0339705
1.1597
1.96503
1.24328
0.42092
2.86033
2.02593
2.08421
0.524226
0.726394
0.104494
1.71738
0.941967
1.16877
2.45461
0.0726315
0.424132
0.0945344
0.781249
2.25486
0.316212
1.85716
1.35101
3.93715
1.1701
0.893699
1.15014
2.10856
1.03268
0.311687
1.82264
-1.39806
-0.068296
0.568696
1.32957
0.291316
0.0884412
-0.712006
-1.44071
2.02181
1.45139
0.767398
-0.336519
1.35128
-0.883021
1.05827
-0.312456
-0.433156
0.287419
1.37074
-0.986952
0.485783
-0.328418
-0.640177
0.738668
-2.26082
-0.808141
-1.28567
0.234434
0.273151
1.13179
1.77093
-1.29778
0.773636
1.61819
0.700689
-0.260524
-0.199027
-1.05981
-1.68336
-0.221644
0.555088
2.16311
1.36663
3.49459
1.30129
3.99086
3.41367
2.5963
3.52845
2.47085
1.86317
1.87019
3.14613
4.04964
2.85598
2.40577
2.03595
1.22744
-0.84351
-0.211928
0.231184
3.00712
0.286625
3.85916
-0.0156105
4.22836
0.214374
2.86131
0.139305
0.0206811
3.76348
-0.169825
3.10136
0.149096
1.59257
0.0929456
4.32977
0.0771088
0.433835
-1.43713
0.0863529
1.23935
1.40718
2.98678
3.00666
1.32611
-1.01088
2.92041
-0.258899
0.387308
0.689613
1.18702
2.40156
2.40801
1.7387
3.02433
1.25879
3.03365
0.345257
-0.58277
0.0871319
-0.0292551
0.972807
1.18827
1.85349
2.8751
0.702173
2.86203
3.10625
1.07726
1.76619
2.94263
1.5921
1.73043
1.24054
3.11809
1.83497
0.70783
1.12789
-0.882691
0.853809
0.0923337
1.44909
2.50231
1.58446
-0.51022
0.0413036
-0.104177
0.516281
0.0428084
2.19128
1.18321
0.115222
0.921242
0.902349
0.988245
1.79837
1.1448
1.842
1.16056
-2.82235
2.37898
0.925563
0.234457
1.64656
1.04318
-0.310027
-0.137146
1.77339
0.896024
2.33281
0.895354
0.794017
-1.17178
0.562889
1.73727
1.03399
1.99465
-1.23982
1.31081
-0.699572
-0.305361
-0.472242
2.34357
-0.673172
-0.416259
-0.425303
0.463492
0.465466
0.118579
1.79103
0.049627
1.02481
0.768233
1.36581
1.28662
1.83701
0.245568
-0.69541
-1.24549
1.32093
0.2662
0.0354657
0.516188
-1.05641
1.38947
-0.305486
-0.457744
0.334455
1.03481
-0.710518
0.246519
-0.606117
-0.117438
-0.644488
-1.49755
-0.648987
-0.692565
-1.06
-0.619178
1.2771
1.16831
1.07366
2.45681
4.12219
2.26235
0.92824
1.56401
0.643973
4.2631
3.32729
2.51942
3.97368
3.11333
2.39761
3.8887
2.61034
0.648377
0.861543
-0.218362
1.83175
0.611269
2.43263
2.22399
3.37303
3.3122
2.28872
1.1063
1.61265
1.07311
1.40146
0.894348
2.12085
1.49794
1.06953
2.62355
1.66289
0.720342
-0.726163
0.654745
-1.02608
0.715634
1.84225
2.10146
2.05722
1.74741
2.31049
0.0130255
2.60638
0.122517
-0.184644
2.43666
2.11571
0.653137
2.91383
3.94688
2.095
1.11522
-1.23693
-0.364865
0.926513
-0.215548
1.55486
2.94658
3.06074
1.58415
1.89037
0.428497
-0.677413
1.25175
0.392931
-0.548274
3.37495
2.70974
2.73793
2.52804
2.22442
1.06582
0.599938
-0.883947
-0.590356
0.226858
2.06137
0.792406
1.53853
3.02334
1.70793
2.03646
1.6064
1.86219
0.911908
1.63334
1.19882
1.38299
1.42451
0.831991
1.10975
2.10222
1.30712
-1.49048
0.460479
0.328452
-0.67769
1.65983
0.762659
3.51293
-0.727168
-1.38557
1.83941
1.84475
-1.38229
0.730115
1.92994
0.584375
1.73291
2.3672
2.33922
-0.491513
0.27883
-0.852888
-0.303723
0.780091
1.72359
1.40686
-1.0133
1.37106
0.970624
-0.856356
1.40571
0.421341
-0.537131
1.91979
1.40922
1.09704
1.1603
-0.974161
2.77972
0.534727
0.277727
-0.306891
0.254873
-0.360845
2.43607
-1.33192
-2.86376
-1.70466
-1.46944
-2.48999
0.0923313
0.0510648
-0.769062
-0.488885
1.29258
-0.384156
1.86954
-0.179137
0.0862924
0.272653
1.28417
-0.193995
0.230402
2.87565
1.32891
2.85537
2.68639
1.75459
2.5946
0.403103
0.327586
0.581839
0.306688
-0.788549
2.65619
3.15349
1.86279
2.30727
0.969318
2.25497
0.989387
-0.904342
0.120111
2.23873
0.509143
1.0452
0.34528
2.23046
-0.0474801
1.32299
-0.29818
-0.418305
0.533525
-0.385365
1.00613
0.0649207
2.93568
0.0314369
1.11146
0.0235144
-1.13231
-1.46676
0.484776
1.13852
-0.225504
3.12958
1.22856
0.303694
2.54933
-0.0302479
0.278164
0.344744
-0.177318
-0.265593
-0.0988969
2.11643
3.90231
1.73666
-0.221964
-1.20272
-0.364432
0.328218
0.791808
0.530192
1.49336
2.1182
-0.252088
0.613128
0.638623
-0.185948
0.675568
0.906423
1.16548
2.83033
2.69891
1.58834
1.45344
1.05864
1.24599
-0.685826
-0.0786601
0.0280902
-0.165578
1.14605
1.66192
1.45723
2.01165
0.770045
1.30505
-1.1003
0.609922
1.59346
0.369219
-0.328743
1.27975
-0.469507
0.333131
1.0268
0.0402611
-0.565053
0.862613
-1.1095
2.22642
0.744473
-0.190993
-0.0720275
0.521073
2.40404
-0.390006
0.651002
-2.1231
-0.872696
0.0938385
0.543079
2.64822
-0.142504
0.667114
1.35885
-0.392332
1.96239
-0.353646
-0.953671
0.0877173
-0.756046
0.645523
0.188138
1.58163
-0.347071
0.761926
1.45496
0.123783
-0.0562236
-1.02423
1.633
-0.797193
1.10874
-1.48199
-0.924611
1.57221
0.233352
-0.806122
0.690545
-0.307688
1.25027
-2.47101
-0.246787
-1.72814
0.712958
-1.10242
-0.16838
0.377727
0.0890148
-0.754006
1.72712
0.694054
-1.14498
1.32103
-0.178617
1.88554
-0.631741
2.77896
0.614695
-1.24305
0.925297
3.33353
3.17481
1.31072
2.69708
1.68376
-0.453344
0.0277647
-0.560168
0.0933234
1.2925
2.67762
1.18818
1.03486
3.40054
1.88641
0.297153
-0.0306597
-0.642716
0.999695
-1.32526
-0.264025
2.50331
2.38836
2.40498
-0.423814
-0.286214
1.17843
-0.685348
0.481561
0.684265
-0.277041
1.43407
1.13039
2.59605
2.18385
1.03062
-2.18409
-1.12379
0.905978
1.15135
1.02747
1.25984
0.903951
1.7191
1.11204
-1.19843
0.83282
0.349109
0.395971
0.512848
2.54031
1.80749
0.354611
0.376521
-0.630396
0.0777056
-0.507209
-0.270915
-0.0848484
0.831907
0.0787088
1.38883
1.32668
0.243996
-1.28374
1.2657
0.492991
2.40847
-0.478983
-1.01579
-0.466388
0.831086
-1.87023
1.06484
0.809031
-1.16843
-1.84855
-1.00516
0.256192
0.365895
1.31422
1.76472
-0.832179
0.513706
0.639028
1.25
1.04971
-1.15475
0.493529
-1.03757
1.46322
-0.753962
2.10674
1.19817
0.455798
0.377544
-0.429544
-1.47875
-0.350033
0.26466
2.29032
1.21538
0.534453
0.84549
-0.378821
-1.02164
1.39036
0.707392
-1.85782
-0.304478
1.47192
2.22279
1.59647
0.0416458
1.00177
-0.208449
0.427199
0.964709
0.733902
0.174347
-0.114422
0.416704
-0.703764
-1.14671
-0.509601
-0.270539
-0.714557
0.0516891
0.841122
-0.196739
-0.337247
-0.514256
0.479287
-0.687842
1.21616
-0.480231
-0.369561
0.00659925
-0.82126
-2.37114
1.19109
-1.12944
0.458623
0.966316
0.453091
-1.08069
-2.02556
0.388648
-0.134818
0.00167049
-0.234171
-1.25994
-1.50875
-0.882695
-1.85148
-0.705015
-1.21447
0.424463
-1.57555
1.71164
0.828031
2.62766
1.75257
0.186868
0.569542
1.84356
-0.328885
-1.88875
-0.0820139
1.59737
1.95504
-0.408184
-0.622017
-0.78182
0.116563
0.846424
0.000176783
-2.44579
-0.329998
-0.502438
-0.0846862
1.27763
0.276517
-0.858773
-0.738552
-0.199005
0.422617
-0.0126973
0.00369967
0.385105
-0.155385
0.0485793
1.738
-0.13393
-0.578856
-0.208016
-1.39198
-3.19311
-2.82428
0.495775
-0.317027
0.718629
-1.97181
1.13316
0.63111
1.07679
-1.68627
-2.03197
1.00203
0.222222
-0.165828
-1.55407
2.14286
0.789204
1.66121
-0.958104
-0.598272
-0.135212
-0.0457149
0.518855
0.253796
-1.9518
1.32992
0.408848
0.348281
0.284574
0.10352
-1.15272
0.231584
-2.02988
-1.39751
-0.615889
2.77874
0.271532
1.04406
-2.74096
-1.89507
-2.34494
-0.0919673
0.143187
-0.446446
-0.656272
1.16253
-0.986964
0.0386297
-1.57698
0.173429
-1.05662
1.03666
-1.57231
1.36254
-0.221144
-0.111172
-0.422751
-0.854504
-2.44154
-1.44693
-0.582646
-0.510436
1.77991
-0.19988
-0.00617595
0.434479
0.419129
0.450646
-0.0811446
0.393819
-1.39556
0.0981275
1.02251
-0.409993
0.387102
0.638375
-0.279909
0.97069
-1.48827
-0.819412
-1.03286
-2.44629
-0.645138
0.493754
-0.671801
0.803878
2.8845
1.42533
-0.240603
-0.285715
-0.100791
-0.230224
0.701237
-1.13597
0.0329862
-0.989542
2.21241
0.324205
0.37152
-0.852904
0.517899
-0.212555
0.34718
-0.58167
0.509783
0.729523
0.357627
1.01935
0.0382049
-1.08276
1.379
-0.396132
-0.479909
-0.260398
1.84256
1.98695
1.84022
-0.325548
-1.76746
-0.925488
-2.55554
-0.759228
-1.24654
0.106478
0.989665
0.381441
0.625615
-0.609527
2.15165
-0.488791
-2.22704
-1.16195
-2.39352
-0.084965
0.350657
1.00794
0.215547
-0.139112
-2.30576
-2.06888
0.667999
-1.18719
-1.05379
0.610338
0.896417
0.355565
1.62581
0.882137
-1.30844
-1.84895
-0.468466
-2.75003
0.795406
-0.767916
-1.68965
0.744471
-0.740426
1.46225
0.103838
-1.86277
-2.03627
-1.36637
0.125567
-0.839098
1.18419
2.15165
0.520078
1.80785
-1.26079
-2.23961
-1.50209
-0.0880001
-1.20921
0.729111
-1.08723
-0.834972
1.26457
1.26767
-0.582684
-2.46079
-2.0659
-2.21539
-0.626427
1.1895
0.150809
1.98009
2.21492
0.175335
-0.101331
0.128656
-0.0708458
0.00070942
-2.78251
0.372354
1.11823
-0.625718
-0.143917
1.16975
-0.118977
-1.80807
-2.01078
-2.62706
0.264084
-0.399216
1.32554
0.294511
-0.626782
0.519595
-0.427719
-0.149654
-0.131111
-0.192789
0.140742
-0.26994
-0.159726
-0.103391
0.848413
-1.05218
0.456073
-0.682137
-2.93343
0.407904
0.374687
0.843488
0.733383
0.941353
-1.72943
-0.313476
0.816831
-1.29958
-0.961431
0.779962
-0.940436
-1.21242
-1.02656
0.566166
-1.77611
-1.66079
-0.532303
0.311204
0.239255
-0.22888
0.319849
-0.788949
1.14692
-0.067166
-1.89903
0.0747544
-0.716193
1.59462
-1.04792
0.629693
-0.00030207
-0.726299
-1.87502
0.958773
-0.310148
-0.914458
-0.636686
-0.437623
-1.57999
-1.36542
0.14642
0.790441
1.30584
-0.258942
0.0896131
-1.38922
1.0368
-0.334826
0.3969
-1.01708
-0.157497
-0.614298
-0.375393
-1.14887
0.0708158
0.17745
0.366671
0.415538
-3.26105
-2.33825
-0.528157
-1.27612
2.9888
0.569095
-0.419885
-0.123424
-0.409979
-1.33512
-1.74691
-1.48899
-2.35114
-1.72546
-0.621236
-2.03182
-1.19523
-1.02614
-2.52655
-2.60451
-2.12836
-0.196422
0.0200702
0.431626
-1.1122
0.257248
0.491699
-0.338123
-0.319425
0.332199
-0.435105
-1.54465
0.430881
-0.788741
-0.163043
-1.54964
-0.210511
-0.670926
-0.308784
-3.07972
-1.70273
-2.84896
-1.2219
-1.00352
-0.993994
-0.581767
0.885346
-0.686195
-0.856024
-2.54072
-1.55515
0.488328
-0.371855
-0.118716
-1.36754
0.659433
0.516507
-0.0709897
-1.62749
-0.423681
-0.695443
-2.67363
0.145476
-0.85262
1.56306
2.73448
0.915992
0.0119313
1.68963
-2.38997
-0.720617
-2.06619
-0.45169
0.0815336
0.182521
-0.546303
-0.474491
-1.9725
-0.967217
-2.34502
-0.436657
0.0994294
0.0708915
-0.0823879
-0.0756033
-0.686715
0.690602
0.402877
-0.32303
0.828825
-1.92065
-1.4844
-2.35894
0.960975
-0.714257
0.255032
-0.474961
-1.36238
-1.87557
-1.70768
-1.83683
-0.808251
0.0675759
0.233202
-0.28247
0.0504825
-0.0567636
-1.09002
-0.686877
-1.37454
-0.606753
-1.7278
-1.04408
0.77975
-0.625859
1.82177
0.0508824
1.61121
-1.67027
0.446069
-0.21829
-0.373603
-1.18822
1.22328
-1.12183
-1.00298
0.464557
-0.39098
1.23913
0.532949
-1.71515
-0.630058
-0.599668
1.79422
0.754206
-0.514544
0.765722
-0.812672
-1.03065
-1.47873
-0.556676
0.0600053
-0.544149
0.569168
0.717913
1.3231
-0.0335757
0.392768
0.0312561
-0.491057
0.36768
0.135845
0.232994
0.0813122
0.0590937
1.43097
1.69513
-0.247923
0.965589
0.963117
-1.56446
-1.91023
-2.04951
-1.52464
-2.59751
-1.45689
-0.48716
-0.567017
-2.87384
-2.99065
-1.66771
-1.9166
-3.61507
-2.02711
-1.88256
-0.229187
-0.10614
0.410673
-2.74357
-4.55862
-2.31011
-2.76024
-0.418545
0.812835
-0.351634
-0.909261
-0.286605
-2.84595
-1.98899
-3.15882
-0.743148
-2.74441
-2.4604
0.646995
1.48543
-0.708275
1.41614
-2.68986
-2.21079
-1.22281
-4.41009
-1.76038
-2.4965
0.0737036
0.906619
-1.98463
-0.0203668
-1.58322
-0.404789
-1.86346
-1.02461
-1.0243
0.973281
-2.03022
-0.617672
-2.02484
-1.3901
-1.08731
-1.58372
-1.39603
-2.44237
-1.40229
-1.68656
-0.152044
1.09795
2.0862
0.00870127
-0.914504
-1.31571
-1.38829
-1.6903
-2.04074
-1.52457
-0.462142
-2.91189
-0.633341
1.11392
-2.25715
-2.50875
-3.06307
-0.696446
-0.836925
-1.04994
0.553985
0.617828
0.399562
-1.4154
-1.02311
-0.736414
-1.06362
-2.22959
-0.397959
0.232662
-0.200743
0.765871
1.26198
-2.06781
-0.0927129
-1.04552
-1.39735
-0.983525
-0.265352
-1.35783
-0.883595
-0.294687
0.978492
-0.683634
-0.820463
-2.01994
-1.22015
-1.73862
0.176988
-1.89185
0.978872
0.476622
-1.17915
1.73051
-0.450608
-2.18979
0.278987
0.0400332
0.765191
-0.0830697
0.475551
0.608135
-1.30645
-1.43418
-0.22458
-0.42236
-1.96548
0.305983
-0.457652
-1.01426
-0.09981
0.375318
-0.598184
0.514842
-1.53783
-0.555366
-0.246705
0.860299
0.369701
-0.075116
0.973883
-1.38533
0.529086
0.126048
-1.24775
0.054963
-0.189432
-1.69084
-0.439017
-2.15408
-0.711324
-0.977298
0.584617
0.244771
-0.148371
-0.899138
-0.329237
-4.65791
-3.36647
-3.6695
-2.43539
-1.98273
1.81846
-1.57602
-0.878279
-2.58343
-2.82255
-2.99754
-2.29515
-1.73212
-1.89654
-2.5338
-2.0369
-1.60749
-1.66567
-1.9294
-3.0877
-4.70694
-0.00211113
-0.103639
-0.386988
0.0476646
-0.401208
-1.64794
0.145945
-2.18424
0.0849292
-0.0832558
-0.621003
-0.432749
0.256586
-0.20051
-0.515305
-0.103795
-1.80942
-0.331889
-3.08806
-3.02801
-1.14607
-3.08031
-0.251598
-0.968864
-0.766262
-0.527478
-1.53245
-2.34981
-3.49216
-0.789958
-1.49892
-2.03713
-2.20825
0.0500737
-2.56658
-0.265921
-0.231385
-0.836818
-3.90874
-1.37221
-0.796283
-1.97589
-1.83179
-1.56542
-0.42181
-1.67051
-1.44633
-0.954943
-0.989459
-1.98328
-2.91935
-1.5289
-0.934244
-1.68416
-1.70318
-2.39823
-0.102291
0.209675
-2.99575
-1.34162
-1.75963
-1.41374
0.0308694
-1.94559
0.135145
0.0123975
0.495288
0.115103
-0.567551
-1.30269
-0.730412
-0.419927
-1.53764
-2.10038
-0.685242
0.428289
-2.19502
0.991574
-2.45992
0.478361
0.546357
-0.0316557
0.764643
0.129875
-0.398068
0.595958
-2.11619
-2.40719
1.19437
-2.26338
-0.493405
-0.255127
0.343859
-3.40466
-2.65352
-1.66045
-2.43241
-1.15388
-0.675537
-0.0368821
0.121041
0.30809
-0.702892
2.46655
1.58939
-1.25854
-0.137189
-1.05013
0.412562
-0.172263
-0.611846
-0.825111
-1.58713
-0.631678
0.355977
0.319495
-0.202076
0.145465
-2.36492
-0.670382
0.522198
0.910761
-1.4297
-1.49812
-0.194206
1.31632
0.816937
0.356259
-0.117031
-0.696676
1.1417
0.533299
-0.420897
-1.20982
-1.03621
-1.39375
0.391218
-0.315272
0.190862
-5.2
-3.73266
-1.631
-1.80898
-1.63395
-0.313849
-0.0869297
-0.96867
-1.08049
-3.8226
-2.78236
-1.45262
-1.24212
-2.17355
-3.98523
1.39443
-2.57056
-4.58423
-2.31559
-4.09227
-4.69848
0.187454
-2.42691
-0.49195
-0.652653
-0.424337
0.055052
-0.429611
-2.39184
0.0198929
-0.1079
-2.42677
-0.336851
-1.86242
-0.0585715
-3.04294
-0.62475
-0.955179
0.155059
-3.17053
-1.86943
-2.65404
-1.37233
-1.64648
-1.09323
-0.404096
-0.938069
-1.52051
-1.22905
-2.14024
-3.73107
-1.79827
-2.20198
-0.675513
-0.133357
-1.56054
0.874201
-1.88136
-1.37793
-2.68303
-2.77555
-1.88487
-0.225581
-0.689501
-0.984865
-0.615461
-0.522744
-2.10605
-2.40474
-1.78387
-0.295566
-1.96155
-1.56308
-1.45416
-1.51042
-0.39265
-1.00926
-1.86913
-1.44057
-2.30547
-0.330025
-1.00768
-1.58033
-0.954852
-0.898485
-0.740171
-1.62709
-2.48462
-1.0221
-1.31854
-2.17355
2.33474
-3.48919
-1.03564
-1.45331
-1.19951
-1.92916
-0.613922
-0.089143
-0.864918
-0.119834
-0.67274
-0.680491
-0.25742
-0.978281
0.890108
-0.366064
-2.15666
2.23872
-0.467799
-1.10061
-0.657252
-1.25687
0.783996
0.0484417
-0.590962
-0.498744
-0.518077
0.715535
-0.566648
1.03386
-0.401242
-0.64431
-1.51653
0.284154
0.164297
-0.108568
0.53311
-2.1587
-0.361447
-0.827392
-0.552823
-1.87587
0.0923704
-1.47916
-0.852994
0.510183
-0.921961
1.63266
-1.15666
-1.55725
-2.04977
0.121371
-2.53969
0.0218106
-0.722561
-1.09451
-0.362068
0.524574
-1.41195
0.753041
-1.06226
1.41103
0.0582653
0.854909
-0.0948296
0.274582
0.691036
-0.222435
0.179792
-2.43794
-1.28333
-2.90574
-1.29512
-1.56641
-0.605388
-2.33051
-2.04417
-0.140236
-4.42672
-5.07062
-4.38044
-2.67434
-1.18009
-1.72146
0.252839
-0.797073
-1.67086
-3.23704
-3.09731
-4.51173
-3.66951
-1.11332
-0.44394
-2.16487
-3.47532
-1.31208
-2.08795
-1.02794
-3.37616
0.870908
-1.26576
-1.56018
-0.432851
-0.870341
-1.98308
-1.01503
0.304837
-2.21033
-2.57855
-4.08372
-1.46856
-3.13875
0.457769
-1.64046
-1.33854
-1.41463
-2.54806
-3.59004
-0.0960609
-1.54667
-1.11967
-1.86589
-2.14743
0.423574
-1.99773
-1.28593
-2.47448
-2.64631
-1.48477
-3.61263
-2.33698
0.208214
-3.31247
-0.344044
-0.827838
-0.411465
-0.759614
-3.31643
-2.2342
-0.993045
-0.190671
-1.83055
-1.72114
0.120221
0.653966
-1.63372
-2.30122
-1.33333
-2.76966
-1.9137
-2.08203
-1.85113
-0.765002
-1.46087
1.6756
-0.0129146
-1.65326
-1.87856
-2.47365
-2.18813
-2.09705
-0.658304
-1.70856
-1.14734
-0.811102
0.19818
0.366255
-0.798111
-0.471549
-1.23312
1.27796
-1.46045
0.486796
2.00376
-0.0978802
-0.0828973
-1.8609
-2.14735
-2.0883
-0.792406
-0.7954
-1.49539
-0.750669
-1.62841
-0.720787
0.129209
1.56658
-0.789497
-2.17176
-0.290285
0.319777
-0.274653
-0.999117
-0.359305
-2.12131
0.686359
0.405486
0.537281
-1.63511
-0.660764
-1.2129
-0.927138
0.968992
1.31728
0.278465
1.10606
1.3822
-1.08085
-0.6507
-0.350865
-1.10456
-0.310964
-1.34568
1.03277
0.0520945
-0.694093
0.692838
-0.440389
0.594893
-0.688579
-0.443706
-2.05946
-1.38585
-2.33916
-0.365406
-1.95916
-0.803178
-0.0562422
-1.26256
-2.56985
-2.77145
-2.91892
-1.72753
-1.02719
-1.72247
-1.31597
-1.05861
-2.87253
-3.28858
-1.90294
-1.4002
-2.15527
-2.24325
-0.588672
-1.36963
-1.51884
-1.21971
-3.74054
-3.68038
-3.08924
-0.660668
-1.61742
0.297322
-0.156093
-0.141421
-1.21754
0.458608
-0.43483
-0.350542
-0.33981
-2.02
-0.00302073
-0.414086
-0.337827
-1.31596
-0.278016
-1.40201
-0.719894
-3.89558
-3.22331
-3.39032
-2.4348
-1.44534
-1.50736
-1.94475
-1.81758
-2.45911
-0.59594
-2.02968
-4.4259
-1.07318
-1.41463
-1.96568
-1.63635
-3.07654
-2.70305
-1.73915
-3.9207
-1.82437
-2.25506
-1.22981
-1.93968
-0.0261375
-1.27089
0.177655
0.995309
-1.63897
-1.90078
-3.08764
-2.79614
-1.50897
1.00661
-2.87087
1.75727
-1.64622
-0.162412
-2.51688
-1.32813
-1.62035
0.291302
0.308457
0.38167
0.119957
-1.60818
-1.37474
0.0745454
-2.72377
-0.848799
-0.439832
-0.840862
0.305978
-2.38083
-1.11909
0.198076
1.54947
-0.165119
0.557439
-0.186421
-0.368054
-2.65963
-1.05085
-2.60138
-0.850755
-1.50768
-1.27388
0.608349
-0.260064
-0.420177
1.29763
-0.156213
0.81331
0.205337
0.280604
-0.18824
-1.82416
-0.0610421
-0.151546
-0.160563
-2.3599
-1.51917
-2.45696
-0.641796
0.0681243
0.65086
-0.607518
-0.824874
-0.798804
0.692343
-1.3707
-0.156605
0.345528
0.918096
-1.18534
-1.01232
-0.123892
-1.0407
-0.754811
-1.29755
0.0584393
2.37165
-0.728256
0.628298
-1.17309
-1.59805
-1.07171
0.383409
-0.12112
-0.375955
-0.917526
-0.306388
1.37789
-1.17331
0.231205
-2.4693
-0.24438
-0.672444
0.406224
0.0625227
-0.931115
-5.37085
-2.81979
-3.0398
-0.846875
-0.426687
0.924975
-0.597504
-0.362536
-1.40836
-2.45583
-2.55785
-1.21986
-1.72149
-1.48903
-1.84968
0.213295
-2.73291
-4.69334
-3.04608
-4.30538
-2.27128
-1.77938
-0.793909
-3.11526
-1.50064
-1.81827
-2.97006
0.0131245
-0.410251
-1.47394
-1.7063
0.482631
-1.63837
-2.29215
-0.36833
-1.0075
-1.53107
-1.01389
-3.13092
-2.92246
-0.865422
-1.12076
-0.479822
-1.22464
-1.84566
-1.86864
-0.735701
-2.39987
-0.134394
-1.11044
-0.826234
-0.751119
-0.881031
0.122657
-3.44245
-1.36003
-0.657261
-2.62834
-1.62988
-3.809
-3.70834
-4.40116
-1.09144
-0.138142
0.187827
-1.56756
-0.0232762
-1.52504
1.07838
-0.367698
-1.37867
-2.88531
-2.03845
-0.448195
0.672684
-0.577799
0.249665
0.96922
0.344416
-3.05342
-0.215232
-3.06406
0.0821475
-1.35093
-1.34485
-0.713469
0.895741
-1.69659
-1.42151
-0.705687
-0.111267
0.767973
-0.0911074
-0.641917
0.501714
-1.32637
0.493498
-1.46237
-2.33828
-2.1185
-2.81898
-0.541616
-0.65705
0.513164
-1.7202
0.432085
0.574293
0.340357
-1.02167
1.17365
-0.539956
-0.542381
-0.699638
-0.622661
1.46066
1.15608
-2.29483
-1.12127
0.492458
-2.20488
-0.971974
-0.702262
-0.151303
-1.12714
0.861018
0.125391
-0.317353
-0.758402
-0.659398
-0.810106
1.20005
-1.01001
-0.781042
0.118482
0.91497
-0.287487
0.663951
0.775049
1.00045
-0.267669
-1.86052
-1.56251
0.937988
-1.16655
0.413868
-0.376793
0.807886
0.313711
-0.00551483
1.19256
-0.00230213
0.999498
-0.633755
0.378751
0.419816
-0.0360082
-0.509084
1.78868
0.099915
-0.403443
-6.06587
-2.66088
-0.489521
-1.48076
0.680454
0.817202
-1.11464
-1.98301
0.033807
-1.26454
-1.62851
-1.69315
-1.09178
-0.27666
-0.956708
-0.321202
-1.94484
-0.986641
-0.849342
-4.06524
-2.0403
-0.102612
-0.403244
0.0646425
-0.677217
-0.0966338
-0.388585
0.11664
0.810836
0.00362132
0.202142
-2.45311
0.179118
-1.69544
0.166482
-1.35111
0.582947
-0.331769
0.107192
-2.89159
-3.83966
-2.19485
-1.76523
-1.54046
-1.78905
0.22608
0.569751
-1.84797
-1.42164
-1.38158
0.431451
-0.675466
-1.63757
-0.851292
-1.73746
-1.59819
-1.086
-0.97123
-2.44302
-2.71633
-0.844621
-1.71343
-0.251079
-0.705636
-1.2744
0.266985
-0.203474
-1.59646
0.0413125
0.301714
-2.055
-3.51013
-0.598843
0.369223
-1.37886
0.771024
0.544356
0.365029
-1.47216
-2.68983
-2.09583
-2.11728
-1.58137
0.251299
0.348611
-0.225208
1.44169
-1.13876
-0.593983
2.11263
0.528172
-0.851101
1.65352
-2.04677
1.44719
-0.488725
-2.3618
0.0232936
0.320817
-2.27705
0.280493
-1.64476
-1.09483
-0.842557
-0.10046
-1.06033
0.902906
-1.87455
-0.639768
0.00615809
0.689162
1.03984
-0.801903
0.0164334
0.216061
-1.18726
-3.44834
-0.0316689
-0.973121
-0.465394
-2.07653
-0.154876
-0.555347
1.04495
1.36502
0.147907
0.780476
-1.54975
0.51667
-1.97086
-1.01646
-0.730505
0.721956
0.516317
-0.308241
0.343754
0.71202
0.815361
-0.477011
-1.30162
-1.73645
0.316818
-0.683132
0.164126
1.05114
-1.57027
-0.630738
-1.15774
-0.736117
1.69604
-0.832785
-1.19434
0.86434
-0.131952
-0.232222
-1.30338
-1.40367
-0.38191
-1.28149
-2.40466
-3.38107
-1.22955
-1.40866
-1.49295
0.708775
-1.11362
2.05029
-0.117597
-0.275768
1.36529
0.435627
0.550656
0.330611
0.154864
-0.374386
-1.39854
-0.790582
-0.112714
-1.70011
-2.7938
-2.5338
-2.49453
-2.14021
-2.02321
-1.38771
-0.434196
-1.28305
1.50016
-2.06707
-0.841208
-1.30105
-1.32695
0.0313977
0.159668
-0.652783
-0.0997544
-1.58899
-3.00955
0.247567
-3.28672
-2.14717
-4.15788
-1.2568
0.207562
-0.146815
0.216712
1.89728
-0.0508539
1.28964
-1.44647
0.585383
-0.902112
-0.241562
-0.540557
0.41119
1.06794
1.38067
0.822349
-1.63816
-0.322062
-3.5136
-1.26159
0.491906
-2.41349
0.512616
-0.354523
-0.640948
-0.0341892
-1.27424
-0.0235479
0.0787165
0.135375
-0.346467
-0.0250045
-2.10493
-0.671819
-0.443815
-1.59752
0.356086
-1.72101
-2.34735
-1.70645
-0.114796
-0.335068
-0.334234
1.4656
-0.304481
-0.823854
-0.113538
-0.322846
-0.667422
-1.44749
0.53064
0.271442
-0.393144
-1.18869
0.0661624
1.24389
-1.50955
-0.931208
-0.787573
1.3121
-0.422887
0.967537
0.0965426
-1.27356
0.57611
-0.0327628
-1.19481
0.417664
1.88074
-0.912177
0.810464
-0.33134
0.998176
0.86962
-0.330639
-0.420413
-1.68796
-0.934514
-1.07796
-0.886473
-1.28829
-0.113087
0.663312
0.976162
2.587
-0.581916
0.903786
-1.55433
-2.0453
-0.240053
0.963482
-0.803864
1.71717
0.512681
-0.0255834
-1.29418
-0.84815
-0.488447
-0.976482
-0.533442
1.01396
0.152609
-0.751544
-1.23345
-0.809317
-0.265156
-0.44126
-1.33317
-0.856551
0.888928
-0.388565
-1.4915
-0.125189
0.717065
-1.20992
1.91463
-0.596822
0.100229
-2.85991
-1.71206
0.534575
-2.53481
0.327348
-0.255325
0.656126
1.87684
0.391785
1.03804
0.100172
0.118305
-1.1982
0.888234
-0.612261
2.31655
-0.378727
0.446062
-0.846863
-3.28136
-0.479232
0.0337672
-0.998929
-0.00385567
-0.0081836
-0.0494012
1.08786
-0.0756994
1.39503
-0.0128076
0.31544
-0.910905
-0.280389
2.55374
0.146266
1.08479
-0.176189
0.741851
0.252896
-0.743805
-4.16675
-2.62136
0.167246
0.131529
1.70054
-0.914488
0.653839
0.10402
0.627303
0.224214
-0.24726
-1.16563
1.30185
0.665792
1.3336
0.452552
1.21636
0.972234
-0.156169
-0.285492
-0.372015
-0.26064
-0.381896
0.131543
1.32574
-0.0948988
-0.756739
-0.237528
0.208958
0.562954
-0.390104
0.0444989
-1.884
0.801509
0.869823
0.815624
0.815441
-1.7298
-0.0882275
-0.376663
-3.38406
-0.72327
0.291683
0.451189
-0.192228
0.179268
2.28309
0.783571
0.308057
-0.654647
0.827372
1.15135
-0.191868
-0.346024
0.925821
0.26423
-0.749311
-0.505377
0.188939
0.204017
0.421038
-0.20261
-0.467149
0.478764
0.0694357
1.2097
2.24884
2.01886
-0.287829
0.0772951
-0.956998
0.431415
-0.854436
0.746543
1.3686
0.176676
0.823104
0.20554
-0.101855
-0.0910898
-1.0663
-1.0654
-0.976399
0.0839199
0.610788
-0.249005
0.998059
-0.0973638
-0.760487
0.0956287
0.165894
-0.979072
-1.21934
2.1908
-0.391223
2.32744
-0.939236
0.486365
-1.69458
-1.35631
-0.721923
-1.09373
1.27683
0.345684
1.93028
1.38847
1.32899
0.398851
1.03081
0.532778
-1.59653
1.83262
0.552895
2.98682
1.45662
0.302419
0.767864
2.58195
0.72557
0.560061
-1.81167
0.765933
0.769303
-0.0734216
2.70841
0.591102
2.18583
3.6854
3.25144
3.28756
1.42111
1.73922
3.19735
2.49782
1.91081
1.67251
0.722919
0.751441
-0.236981
-2.02391
-1.70335
-2.65348
1.99574
0.516006
-0.74345
0.0196855
2.77557
0.583434
2.02278
0.699342
0.618427
2.83444
-0.372233
1.52749
1.72092
1.56148
1.03466
0.429162
-0.76831
0.523325
-0.413222
-1.88821
-0.627032
-1.0827
1.24562
2.60449
2.59042
1.03169
0.850692
2.25095
2.69693
0.94208
1.73053
1.12568
0.596667
1.40157
-0.124566
-0.508333
1.3923
-1.23165
-0.635877
0.70602
1.15855
2.17467
0.84087
0.540551
2.00557
1.31975
0.66634
1.10025
0.592553
0.0854647
1.61305
0.343882
-0.186162
1.96657
2.36795
0.481587
-0.150402
-0.385565
-0.4118
0.0598314
-0.253718
-0.584301
-3.61175
2.4313
2.58554
1.7816
1.31782
-0.395297
1.52938
0.535701
-0.160708
0.442497
0.450614
0.236217
-0.350326
1.50909
-0.692155
1.75626
-0.471809
-0.250362
0.585305
-0.0935199
1.54977
-0.193666
0.78137
1.85608
-0.609091
-1.45093
1.32308
1.56925
-0.369952
0.32375
0.0728873
-0.269163
0.706557
-0.261191
-1.73829
1.27154
-1.85365
1.17143
-0.345228
-1.40139
0.376583
-0.250679
-0.243099
0.238226
0.0932921
0.276668
0.5001
1.22528
1.36405
0.550587
1.66342
0.810243
0.582186
-0.0581227
0.107373
2.20372
-1.1662
-0.0357577
0.127626
-1.69038
-0.738262
0.406896
-0.785063
0.275177
-0.107229
1.26129
-0.730342
0.989982
0.380839
0.585668
0.878469
2.86454
1.16775
-0.379149
-1.56158
0.288369
-3.44759
-0.415945
-1.09018
1.3594
0.0171438
1.7838
2.70993
3.16229
1.0576
2.89623
4.55549
3.48712
2.33141
3.0926
2.92202
2.98667
2.09761
1.19433
-0.591577
0.222274
0.0664724
-0.388179
-0.553929
0.0368471
-0.400499
0.643937
1.48887
0.168752
2.34927
-0.169788
0.179376
1.24205
0.456474
3.63468
0.128884
1.54947
-0.279005
1.47103
0.157817
-1.53135
-0.317601
0.315533
-0.471058
1.49132
1.28615
0.114369
2.32143
0.638654
1.46131
1.17255
3.13887
-0.14481
0.812782
0.287237
1.12908
2.72071
2.0207
1.92672
0.216485
0.613973
-1.54407
1.9058
-1.53872
1.27268
1.26294
1.81763
0.547617
1.41361
1.09692
1.22477
2.32606
1.29973
1.89108
1.95876
1.40251
1.99886
-0.599092
1.62231
1.63701
-0.883454
0.29601
1.72988
0.0838052
0.969358
-0.544696
1.54398
2.4633
1.8784
0.749919
1.48703
1.39196
1.89828
1.71051
0.8732
3.17322
-0.289957
1.41247
0.0535073
-1.11184
-0.144779
-0.844296
0.633011
1.73421
0.541524
-0.0883735
-2.09872
-0.525336
1.64667
1.30599
2.37263
0.984241
0.608235
1.52986
-0.48198
1.7681
0.285481
1.07481
-0.211899
1.00006
-2.61481
0.219728
0.653796
-0.483872
1.10892
-0.0646208
2.14822
0.129263
1.93534
0.389046
0.644837
2.03659
0.44593
0.365305
0.489195
0.17974
0.00768365
0.0806202
1.77875
0.033292
-0.130622
0.0633681
0.404285
0.41855
0.727156
0.587944
-1.38884
2.15707
0.524199
-1.24641
-1.10545
-1.82209
-0.353306
-0.0432574
-0.211721
0.545524
0.477273
-0.300457
0.294438
-0.934758
1.17971
0.761789
1.13963
3.82239
1.91925
3.2162
4.71975
2.35077
3.73994
3.14812
2.93237
2.89598
4.42395
4.35664
2.55792
3.21497
2.34206
1.59413
1.07969
2.21517
1.28858
2.72189
1.80632
0.973673
1.62778
0.65562
2.78534
3.1861
3.65155
3.12062
2.0907
4.67791
3.46131
3.1921
2.11618
3.00209
1.52401
3.27309
2.47228
-0.0897074
-0.782827
-0.364304
1.12174
1.03541
-0.0745587
2.15913
2.52984
0.328328
3.14271
2.61321
2.96125
2.85278
2.36609
1.59782
1.41091
2.18853
3.29452
-0.788653
2.42384
-1.26657
-0.672322
-0.308299
-0.465561
-0.0575107
2.45464
1.95659
1.12903
1.06768
3.19788
1.6428
1.47382
2.84712
1.35971
1.05406
1.47597
2.96057
2.70141
1.61916
1.0548
1.08129
-1.3157
-0.521512
-0.292521
0.654545
0.136344
0.354101
2.20462
0.920499
2.51896
2.53766
2.38571
1.9877
-0.604822
-0.0740712
1.47957
1.65666
1.44145
1.92163
-1.5043
0.0211767
0.123279
0.264293
-0.0838713
0.253802
2.05706
0.119776
1.11757
2.04062
1.93918
0.130327
0.929709
0.459109
0.755662
-0.275565
-0.265273
-0.0265761
1.06179
1.97094
0.65493
1.33803
0.387985
0.25762
-0.267108
0.178623
0.754076
0.358489
-0.0320211
0.266776
-1.14737
0.522901
-0.128818
0.765086
0.195063
-0.424944
-0.669152
0.56184
-2.78408
1.42487
1.04526
0.054048
0.475194
-0.0600518
1.5062
0.548784
-0.809971
1.49562
-0.892256
0.216799
0.848837
-0.0663689
-0.757957
1.24898
1.13227
1.08695
0.155027
-1.28729
0.820585
-1.3729
-0.15885
-0.506689
-0.310318
)
;

boundaryField
{
    hotSide
    {
        type            calculated;
        value           nonuniform List<scalar> 
400
(
0.578878
0.144105
-0.250729
0.178516
0.992638
0.809224
-2.16257
-2.85843
-1.15078
-4.2317
-4.75979
-1.98225
-2.09718
-4.87968
-5.55468
-2.84831