/*--------------------------------*- C++ -*----------------------------------*\
| =========                 |                                                 |
| \\      /  F ield         | OpenFOAM: The Open Source CFD Toolbox           |
|  \\    /   O peration     | Version:  2212                                  |
|   \\  /    A nd           | Website:  www.openfoam.com                      |
|    \\/     M anipulation  |                                                 |
\*---------------------------------------------------------------------------*/
FoamFile
{
    version     2.0;
    format      ascii;
    arch        "LSB;label=32;scalar=64";
    class       volScalarField;
    location    "0";
    object      stateMean;
}
// * * * * * * * * * * * * * * * * * * * * * * * * * * * * * * * * * * * * * //

dimensions      [0 0 0 1 0 0 0];

internalField   nonuniform List<scalar> 
3200
(
337.11
335.568
337.442
334.782
334.659
334.813
335.406
334.675
337.283
336.861
337.297
337.536
338.123
337.062
336.135
335.279
334.372
334.599
335.414
335.959
333.73
330.868
331.712
332.086
330.294
331.151
330.82
330.855
332.415
331.651
331.712
332.944
329.733
332.831
329.854
330.16
329.457
329.361
330.345
332.649
328.153
327.511
325.097
326.507
326.188
327.499
326.903
325.318
328.971
327.967
326.757
326.055
326.793
325.736
325.205
326.657
323.804
327.093
327.071
330.347
321.161
322.322
321.265
318.984
319.944
321.662
322.164
322.623
321.114
322.213
323.558
325.119
319.807
321.572
323.004
320.991
321.056
320.24
323.392
321.563
319.782
316.325
313.822
316.918
318.579
318.531
316.206
315.948
316.831
317.28
318.781
317.542
316.653
317.259
317.944
315.355
316.037
315.832
317.257
316.956
312.557
311.014
311.885
311.763
310.586
313.074
312.821
313.233
312.607
311.165
313.104
311.531
311.977
309.308
311.977
312.147
311.782
310.718
311.698
312.349
305.792
309.055
307.782
307.208
306.513
307.615
307.877
308.727
309.492
306.048
306.619
307.284
308.352
306.614
308.789
306.785
308.089
308.147
307.37
306.244
303.541
302.082
302.915
303.249
301.891
304.913
303.48
303.974
302.466
302.434
301.575
300.929
303.986
301.898
301.034
301.929
302.87
302.786
303.628
304.237
337.7
337.15
335.831
336.942
335.138
337.65
335.253
336.078
337.076
336.239
337.296
337.809
337.622
336.098
334.901
335.777
335.903
335.958
336.478
338.322
332.847
332.596
330.069
333.062
329.77
333.92
329.93
334.158
331.666
334.47
334.588
330.764
334.542
331.057
333.755
332.036
333.256
328.746
332.75
332.201
329.163
327.799
326.857
326.919
325.576
325.788
327.684
330.201
326.401
329.649
329.003
328.631
328.003
326.608
326.387
326.824
325.302
326.837
324.851
327.381
323.346
322.804
323.091
322.278
322.256
321.781
320.934
323.255
321.202
321.014
323.043
322.298
321.014
322.217
321.904
322.203
320.133
321.227
322.183
321.635
318.638
317
317.894
316.684
315.781
316.847
319.077
318.64
318.868
318.292
318.765
316.573
317.498
318.452
317.51
317.381
317.145
316.188
316.709
315.913
311.552
315.605
310.498
312.056
312.855
311.548
312.249
313.683
313.57
311.691
312.568
311.1
312.478
312.498
314.367
312.526
311.245
311.843
310.788
313.953
306.335
308.388
308.05
308.279
305.528
308.608
308.409
308.467
307.615
307.632
307.978
306.287
307.992
306.968
307.167
306.506
306.52
305.908
307.442
308.341
303.81
301.258
302.332
302.584
302.124
303.718
301.292
303.002
303.167
302.382
301.681
303.42
302.45
303.287
302.779
303.284
304.117
303.247
303.272
303.625
338.405
336.732
337.126
337.529
336.464
335.11
337.256
338.832
338.371
339.384
335.765
336.608
337.241
335.544
336.119
336.523
334.714
335.684
337.361
336.924
333.121
331.26
332.726
331.172
331.656
330.776
331.085
332.316
333.651
333.224
333.764
333.356
333.711
332.276
332.651
332.81
330.981
331.674
332.372
333.629
327.299
329.137
327.601
326.702
326.675
326.946
327.466
327.079
329.503
326.978
329.461
329.701
326.952
327.097
328.35
325.862
324.597
326.222
326.996
329.191
323.315
322.149
323.461
321.874
320.672
320.744
322.392
322.23
323.796
324.956
323.027
323.831
324.668
320.601
321.095
320.881
320.901
321.021
322.01
322.35
318.785
318.588
317.902
316.211
317.628
317.025
315.674
317.101
316.854
317.327
317.071
317.978
317.176
317.498
317.181
316.995
317.44
317.019
315.896
316.594
314.307
312.426
312.651
313.76
311.527
312.527
309.872
314.192
314.909
311.714
311.708
314.905
312.735
311.455
312.706
311.454
310.715
310.64
313.378
312.538
308.562
308.054
307.026
306.143
306.524
309.006
306.678
307.126
308.988
306.744
307.729
308.669
306.177
306.64
306.896
306.771
308.841
305.026
307.215
307.431
302.893
302.344
302.979
300.203
303.992
305.545
304.405
304.185
305.218
302.642
302.683
303.497
303.205
301.407
303.065
300.79
302.818
302.532
302.326
301.302
338.444
338.237
335.869
337.716
336.499
336.969
338.177
337.569
339.93
340.094
339.84
340.026
340.953
337.276
336.502
337.491
336.738
337.776
336.212
337.261
334.21
333.371
331.491
333.481
333.212
334.173
332.527
335.005
333.781
335.479
335.599
334.57
335.343
333.751
334.453
331.321
333.959
332.619
333.467
334.438
329.764
327.965
327.512
329.097
325.967
328.088
329.215
327.14
329.842
329.599
329.532
329.989
329.955
329.618
327.201
325.195
327.134
328.873
329.653
328.661
322.903
322.562
322.988
322.205
321.765
324.315
323.615
323.727
324.653
323.844
323.614
323.302
321.536
321.529
322.475
322.43
322.639
322.272
324.04
323.31
318.092
318.381
317.196
316.82
317.168
316.753
318.123
317.696
320.179
318.51
317.527
318.71
319.33
317.613
319.235
318.292
317.455
318.302
318.78
317.257
314.084
310.815
312.388
313.423
313.406
312.913
311.122
313.992
313.007
315.811
314.561
313.564
313.059
310.878
313.577
312.667
311.873
313.524
311.079
313.328
308.757
307.755
308.654
307.312
307.831
306.497
308.481
307.418
306.759
308.107
308.287
309.238
306.547
308.931
306.97
309.501
308.883
306.326
307.61
308.609
301.926
302.939
301.399
305.14
302.937
304.438
302.015
303.846
302.923
302.383
302.672
303.509
301.017
302.034
303.855
301.369
302.848
300.763
303.263
299.838
338.253
340.323
338.423
336.304
336.759
338.912
337.79
339.025
341.323
340.926
341.514
340.777
339.416
337.809
339.035
338.899
336.237
337.462
338.783
338.899
334.488
333.024
335.58
334.77
332.259
332.624
332.836
335.857
335.858
334.467
336.33
335.09
334.749
335.518
333.578
333.632
331.91
332.071
332.993
336.029
329.878
327.996
327.946
328.282
328.266
328.833
328.211
328.98
331.408
329.438
329.922
329.814
329.579
327.39
327.93
329.171
328.932
329.727
328.824
329.261
323.877
323.811
323.053
323.979
322.846
323.081
324.322
325.982
323.528
324.351
322.436
325.273
325.714
325.032
323.577
326.105
322.993
323.076
324.894
325.455
319.418
318.249
318.262
317.449
317.135
319.866
318.643
318.621
318.084
318.323
320.528
318.84
320.298
317.694
319.788
316.793
317.565
318.172
318.127
318.843
314.663
313.599
313.072
311.143
312.316
313.093
312.87
314.167
314.863
312.479
313.162
315.699
314.092
312.243
311.404
311.935
313.391
312.335
313.457
312.757
306.964
307.234
307.847
308.193
307.721
308.899
309.395
308.802
308.595
309.055
308.288
307.483
308.489
308.585
308.709
307.659
308.767
306.805
308.448
308.299
302.653
303.494
305.061
301.519
303.858
302.29
301.8
302.328
303.873
304.823
302.408
302.927
302.779
303
304.009
304.238
303.593
304.541
303.378
303.874
339.219
341.423
338.392
339.553
338.036
339.185
341.001
340.827
339.704
341.957
343.517
341.63
339.8
339.233
341.346
341.286
341.163
339.987
339.001
339.643
336.965
335.021
335.415
335.238
334.12
335.358
336.711
336.772
336.362
335.809
336.245
336.159
335.648
336.007
335.586
333.66
335.287
335.492
334.899
335.911
332.52
332.294
329.161
330.176
329.347
332.239
329.317
329.971
329.636
332.457
332.803
329.711
330.38
330.616
331.821
327.923
329.07
327.996
330.428
329.925
324.212
324.237
323.825
324.256
326.631
323.513
324.583
324.769
324.922
325.151
326.408
324.975
327.147
326.39
325.459
321.9
324.238
323.3
326.932
325.972
321.125
318.96
318.843
319.561
319.902
318.211
320.477
319.548
321.234
319.521
320.751
318.62
321.159
318.127
319.595
319.357
319.538
319.841
321.31
320.227
314.029
314.019
311.813
313.885
313.785
313.436
313.534
313.571
314.153
313.704
315.494
313.974
312.999
314.363
313.483
313.141
313.965
312.622
314.997
314.265
309.12
310.57
308.82
307.736
308.959
307.537
305.506
307.008
308.704
308.764
308.579
308.693
307.732
309.527
308.308
309.277
306.018
307.851
307.752
308.94
302.195
302.938
302.395
303.343
302.269
302.068
302.456
301.809
302.8
303.927
301.465
303.234
303.308
303.074
300.955
300.792
300.921
303.068
304.492
303.638
343.132
341.529
342.262
341.172
340.555
341.422
341.412
342.843
340.222
342.937
344.675
343.536
344.627
342.123
341.452
340.537
341.062
341.154
343.076
342.645
334.663
336.682
336.761
335.325
335.27
336.033
334.966
335.879
338.191
338.796
337.415
339.633
335.966
337.36
338.079
335.422
336.675
334.245
335.391
337.194
332.052
331.518
330.205
331.362
329.535
328.755
330.559
329.414
332.586
333.619
332.881
331.413
332.431
330.35
331.994
331.554
329.258
329.063
330.735
332.477
326.708
326.967
325.523
323.866
325.064
323.389
323.294
325.451
325.811
325.625
325.825
325.709
328.409
325.137
324.251
325.841
325.199
323.727
324.871
326.45
321.232
321.932
319.154
319.939
318.338
319.489
320.52
319.464
320.477
320.234
320.215
320.242
319.843
320.163
319.944
319.767
318.692
320.47
318.849
319.903
316.695
313.414
313.527
313.146
313.345
313.223
315.971
314.62
313.536
315.678
315.339
313.573
315.247
315.454
315.191
313.512
315.765
315.563
314.354
313.451
308.038
308.542
308.041
309.202
307.32
308.585
310.464
308.529
309.348
307.051
309.694
308.002
308.604
309.291
310.393
307.508
308.723
309.275
308.95
308.715
304.356
304.153
302.658
302.032
301.534
303.116
302.783
304.275
301.858
303.235
302.503
303.912
303.043
303.487
303.232
303.989
302.751
302.627
302.421
302.36
344.927
344.189
342.611
343.607
339.592
342.253
343.46
343.344
343.762
344.755
345.167
344.841
345.572
344.765
343.443
344.613
343.526
343.109
344.378
344.271
338.408
336.632
336.616
336.419
338.18
337.02
336.973
337.96
338.054
337.462
338.229
339.28
337.191
338.254
337.44
338.618
337.062
337.307
336.745
339.36
332.525
333.801
332.342
332.306
332.479
332.244
330.936
332.64
332.905
334.64
333.654
331.561
332.326
331.94
333.03
330.826
330.785
331.191
332.579
331.246
325.999
328.082
325.401
326.547
324.281
323.254
325.203
326.215
324.615
328.735
327.066
328.371
326.679
326.037
325.805
326.39
326.168
327.518
326.375
327.649
320.174
319.718
319.852
320.121
320.231
320.954
319.678
320.05
320.836
319.716
322.466
321.997
322.812
319.408
320.981
319.9
320.514
321.285
321.693
321.445
315.968
314.996
314.196
314.114
314.712
314.46
314.639
315.732
315.373
316.083
315.315
316.414
315.686
313.802
315.136
312.608
314.296
312.653
315.858
313.685
308.717
308.907
309.767
307.405
309.8
309.729
308.305
309.197
307.593
308.312
310.56
309.462
309.406
306.976
307.972
309.193
307.862
309.392
309.564
309.978
303.408
302.802
303.421
302.325
302.193
301.604
302.975
302.561
302.931
303.458
302.599
302.826
302.721
302.86
302.868
301.48
301.199
303.125
301.896
301.888
344.48
345
345.359
345.066
346.372
345.455
344.686
344.933
347.359
347.538
346.215
346.402
347.981
346.226
345.881
344.003
343.647
342.898
345.834
347.475
339.678
340.276
338.123
337.092
338.459
339.209
338.762
341.465
340.711
341.935
339.519
341.466
341.079
337.828
336.815
338.815
336.489
340.394
339.727
338.591
336.156
333.628
334.524
332.123
331.461
334.517
332.699
334.384
333.293
334.797
333.959
333.912
331.828
334.709
333.15
334.393
333.587
333.114
333.452
333.142
328.504
327.563
327.977
326.581
325.471
324.617
326.814
327.838
328.31
328.419
328.721
329.035
328.448
327.285
329.615
327.202
325.315
328.547
328.67
329.125
321.024
321.241
321.554
320.058
320.103
320.425
322.333
322.019
321.787
322.144
323.31
321.449
320.763
321.119
320.059
319.459
322.68
320.597
321.45
321.725
315.539
314.873
316.038
315.641
315.13
313.931
315.66
315.851
317.091
316.312
316.831
314.894
316.923
313.997
314.432
316.014
313.026
315.131
316.798
314.276
308.714
308.021
308.912
308.399
308.314
310.272
310.44
309.265
309.485
311.041
308.77
309.521
310.054
309.106
308.591
309.52
308.36
310.367
309.341
309.001
302.076
302.577
303.036
302.003
304.377
302.478
302.895
304.28
302.985
303.233
304.735
303.479
305.186
303.732
303.984
302.407
302.732
303.109
303.846
303.265
348.984
347.856
348.365
347.346
347.11
343.515
347.093
346.547
348.361
348.658
348.833
348.073
347.401
347.414
347.867
347.164
346.518
346.361
346.419
347.414
343.302
338.736
339.014
339.485
339.237
339.864
341.271
339.609
342.033
339.813
339.981
340.47
340.188
339.366
339.664
339.8
339.202
340.719
339.066
341.683
335.816
334.049
336.132
333.462
334.338
334.285
334.182
335.298
336.196
337.379
334.677
335.345
335.803
335.863
333.469
335.936
333.476
333.283
333.74
336.697
328.29
327.806
329.107
329.093
328.955
327.936
329.295
329.161
328.735
328.803
329.797
330.699
329.244
328.558
329.198
329.093
329.659
327.233
326.8
329.914
322.337
322.826
322.574
321.23
323.308
321.322
321.531
321.119
321.55
322.259
322.994
322.395
322.034
323.081
323.557
322.047
320.833
323.355
320.074
323.455
314.554
314.537
315.182
314.457
315.163
315.76
314.827
317.59
317.917
314.335
317.792
316.003
315.729
315.079
318.767
317.947
316.882
317.582
316.237
315.708
309.078
308.95
308.803
309.857
306.731
307.65
310.535
309.443
310.378
308.926
309.511
309.94
310.131
310.863
309.871
308.842
308.835
309.313
308.926
311.406
303.703
302.521
302.145
304.501
304.583
303.293
301.795
302.304
302.773
303.249
303.829
301.987
302.588
303.532
304.309
304.121
304.465
302.665
303.358
302.842
351.098
349.784
347.872
348.251
348.275
347.143
347.085
348.105
348.314
351.108
350.067
348.687
348.378
349.172
350.814
345.247
349.013
350.825
348.367
349.99
344.661
339.906
342.684
340.923
341.256
341.19
340.857
341.462
343.509
341.141
341.269
343.544
341.369
342.774
340.825
343.646
341.056
341.212
339.938
343.134
335.819
336.712
335.568
335.989
335.582
335.031
335.688
336.372
336.152
337.101
338.692
336.721
337.053
335.426
334.76
336.05
333.469
336.077
335.436
336.633
330.647
329.843
328.296
328.88
329.295
329.038
329.047
330.713
331.07
330.48
328.992
330.627
330.17
329.978
329.933
328.703
329.199
329.939
329.399
330.176
322.069
322.813
323.473
322.941
322.977
322.907
323.872
324.794
323.377
323.698
324.553
320.02
325.798
323.281
323.62
323.279
323.915
322.507
321.894
322.604
315.685
316.285
316.354
315.998
316.785
314.98
316.292
318.129
313.766
316.49
317.123
316.662
317.229
315.142
315.822
316.398
316.24
316.192
314.896
316.132
308.327
309.79
310.071
310.984
309.222
309.38
309.687
309.072
311.784
309.996
310.462
310.178
311.481
309.486
311.023
310.359
308.957
310.349
307.756
310.518
304.697
305.199
303.041
305.715
303.167
303.924
304.308
303.584
302.703
304.644
302.479
304.29
301.811
303.155
302.346
303.284
302.9
302.471
303.371
302.96
350.07
349.057
350.857
349.43
349.884
349.095
350.974
350.812
348.996
353.329
353.973
353.236
351.442
349.823
350.211
348.065
348.932
349.622
351.011
350.729
345.984
345.263
342.858
342.349
344.228
345.687
343.657
344.541
343.558
345.946
341.699
343.796
344.013
342.778
343.082
344.046
342.92
341.44
343.803
344.051
339.316
336.801
338.599
335.137
337.369
337.194
337.382
338.607
339.714
336.253
337.704
337.244
337.925
338.114
335.431
337.727
336.881
337.934
337.978
336.717
332.536
331.34
328.9
332.531
329.672
330.259
329.934
330.358
332.967
331.913
330.672
329.842
331.429
331.244
329.311
328.674
330.853
331.409
330.336
331.693
324.473
324.703
324.553
323.553
324.334
321.277
323.037
324.736
325.003
325.619
325.333
325.221
323.741
324.733
324.1
323.684
322.59
322.336
323.419
323.031
317.385
314.917
317.713
315.828
314.372
316.531
316.567
318.387
318.702
318.658
317.362
317.35
318.021
317.235
318.061
317.097
316.186
314.686
316.984
318.324
310.004
309.42
310.05
310.811
310.207
312.004
309.227
309.533
309.419
311.6
310.626
311.169
310.865
308.944
308.566
309.57
308.706
308.393
310.821
310.365
303.609
304.372
303.59
304.637
302.27
303.263
304.019
302.641
303.779
302.748
304.032
303.783
305.393
304.711
305.654
303.668
305.25
304.082
303.323
304.521
352.098
352.431
352.742
351.72
351.186
352.037
351.77
351.625
353.519
353.976
352.59
352.046
352.721
352.697
350.904
351.529
351.511
351.043
353.401
353.208
346.211
343.895
344.992
343.225
343.822
343.943
345.139
343.56
344.523
344.475
344.464
346.108
344.022
344.335
344.14
344.982
343.8
344.777
343.954
347.018
339.856
340.116
339.279
338.413
338.598
339.15
339.125
339.848
338.043
339.508
341.904
338.52
338.804
339.273
338.841
340.168
339.671
338.583
340.647
338.457
332.328
331.377
332.184
330.372
331.717
330.362
329.628
332.329
332.639
333.85
333.558
332.247
329.683
333.494
328.783
332.092
330.508
332.761
331.475
331.693
323.164
323.205
323.206
323.547
325.352
325.192
323.807
326.658
324.821
324.431
324.832
323.666
326.315
325.001
323.619
322.195
323.832
323.031
323.699
323.823
319.453
317.885
319.489
317.795
318.508
318.326
316.49
317.395
317.582
315.878
317.332
316.349
316.93
316.817
317.24
318.824
317.005
317.04
316.995
319.153
311.619
312.581
310.798
310.122
309.573
310.863
311.108
311.104
309.629
311.7
310.486
309.975
309.387
311.468
311.267
310.348
311.231
310.911
311.422
310.042
301.016
304.124
302.779
304.591
305.027
304.512
303.066
303.578
303.838
304.383
303.771
302.084
304.63
303.218
305.909
303.673
304.09
303.001
303.333
304.319
356.955
354.527
354.897
352.859
352.591
351.381
353.028
352.894
354.01
355.095
355.197
353.822
354.252
353.919
354.156
351.951
354.745
356.55
354.753
355.889
347.183
346.795
345.939
348.395
346.912
347.352
348.612
345.716
346.201
347.297
347.529
345.308
347.367
347.934
345.902
346.419
346.811
346.159
348.147
347.834
339.017
339.359
338.827
339.686
340.419
340.545
339.504
341.242
339.028
340.031
339.747
339.645
339.723
338.645
342.118
339.933
339.118
340.975
339.868
341.961
335.028
335.79
332.569
331.709
331.474
333.315
331.845
333.407
330.847
332.315
333.326
334.81
333.92
332.27
331.074
332.24
331.321
330.509
331.045
334.373
324.643
327.545
324.468
325.973
326.038
325.472
323.921
326.561
326.32
325.621
325.026
324.13
324.955
325.459
324.257
326.019
324.129
326.012
326.819
326.547
320.308
318.069
318.233
317.115
319.399
317.294
317.193
317.461
318.847
316.663
318.377
318.367
318.501
318.39
316.265
316.523
319.923
318.697
317.035
319.694
311.491
311.243
310.722
311.729
309.771
310.535
311.002
311.464
311.379
311.537
309.527
311.73
311.487
310.567
309.745
310.919
309.938
309.796
309.541
310.787
305.389
305.099
302.608
304.723
303.152
303.953
302.776
303.277
303.602
302.405
303.6
302.597
304.225
303.205
303.156
303.602
304.065
301.757
303.436
303.931
359.865
356.573
354.539
355.672
353.649
353.64
355.684
356.642
354.689
356.021
356.385
356.416
355.751
354.846
355.414
354.65
356.136
355.036
354.761
357.864
348.878
347.037
347.455
347.11
347.972
347.503
347.892
347.464
346.825
347.661
347.463
350.089
347.402
349.198
347.24
348.646
346.592
347.384
346.827
349.73
343.627
342.062
341.732
341.611
341.961
340.04
339.778
342.262
341.883
341.867
340.054
341.136
342.052
341.199
342.003
341.77
341.157
340.938
342.31
342.503
333.506
334.438
333.057
333.597
334.248
332.784
333.321
334.769
333.17
332.929
335.286
336.721
333.772
332.749
334.43
332.203
332.347
332.441
334.197
335.351
327.569
327.639
327.166
325.4
325.367
326.001
324.386
327.009
326.494
323.802
325.387
326.751
324.216
327.875
324.329
326.205
328.013
325.562
325.201
327.75
317.958
319.917
319.412
319.208
318.511
319.513
317.588
320.396
319.182
318.547
317.864
317.502
319.323
318.475
318.237
319.598
321.813
318.349
319.245
318.703
313.045
311.144
311.571
310
309.707
310.95
310.34
312.689
310.634
313.129
312.174
311.882
310.417
310.604
311.406
310.728
310.333
310.201
311.466
312.27
305.415
303.369
304.378
303.541
302.663
305.292
304.361
304.894
304.476
302.047
304.576
304.934
302.872
303.862
303.954
305.017
305.109
304.077
304.967
306.084
359.54
357.493
357.798
358.012
355.935
357.873
354.81
357.059
357.274
355.662
356.591
356.447
356.61
356.705
357.133
358.043
357.31
356.502
357.963
358.953
351.424
351.473
351.227
351.222
350.695
349.841
350.778
348.065
351.681
350.48
350.94
350.941
349.534
349.335
350.06
349.407
350.788
352.097
348.73
352.177
343.675
345.759
342.949
341.579
342.026
341.747
340.141
342.148
340.849
343.606
341.575
343.041
342.339
342.579
341.553
340.811
340.406
340.87
343.239
341.85
337.602
335.408
333.729
336.712
333.861
334.798
335.145
334.586
335.861
334.628
334.525
334.452
334.898
334.529
336.548
335.046
334.743
335.819
333.79
335.809
328.932
328.336
326.803
327.083
327.141
325.395
327.212
327.77
327.086
327.309
327.653
328.419
326.415
326.637
327.254
327.996
326.682
325.444
328.14
327.516
319.821
317.753
319.529
318.181
319.094
320.504
318.687
319.323
320.504
318.901
317.438
320.221
318.48
319.594
318.232
318.321
319.48
319.526
320.753
319.968
312.524
312.351
312.778
311.629
310.878
310.589
308.998
312.183
310.708
313.172
313.663
311.852
310.638
312.389
309.848
311.028
311.542
312.784
312.313
311.934
304.815
304.379
302.84
303.71
304.623
305.112
304.695
304.156
304.336
305.23
304.754
303.006
304.28
305.377
304.004
303.154
305.073
301.939
304.443
303.739
361.5
360.447
358.316
361.503
358.755
359.441
358.62
357.472
359.007
358.388
359.326
359.281
360.547
358.388
359.798
356.765
359.347
358.405
359.582
361.921
351.521
351.088
352.221
351.328
351.431
351.562
350.503
351.73
350.303
351.734
351.406
352.609
351.934
349.037
351.367
350.338
351.5
350.48
350.869
351.786
347.517
346.038
343.334
343.455
341.969
344.661
343.159
343.763
343.277
343.699
344.17
345.07
342.565
343.147
342.413
343.217
342.371
342.529
343.573
343.635
335.951
335.894
336.084
335.64
334.515
335.998
336.715
336.239
335.823
335.484
336.437
335.988
337.885
335.156
335.033
335.025
334.957
337.432
335.721
335.956
331.129
328.51
327.548
327.444
328.14
327.818
325.756
327.289
327.789
328.764
327.282
326.946
328.265
328.385
327.071
327.684
328.644
328.345
327.598
327.541
319.441
320.095
320.397
319.49
319.938
318.832
317.823
318.077
320.401
320.045
321.079
319.682
320.95
319.325
318.673
319.83
319.146
319.724
319.994
319.953
313.011
313.027
312.961
311.925
311.42
312.301
311.073
312.182
312.855
312.005
311.935
313.074
313.304
309.88
312.443
309.704
312.948
311.499
313.657
313.301
304.728
305.106
302.743
303.682
302.105
302.654
302.719
303.654
303.026
303.526
305.656
302.224
303.5
301.061
302.585
303.733
303.26
301.438
303.286
303.446
362.985
360.494
360.597
361.547
358.869
361.08
359.566
358.132
358.612
358.598
360.465
360.124
358.62
359.254
359.76
359.904
360.751
360.615
361.497
363.197
354.932
355.956
351.399
352.972
354.32
353.639
350.954
353.203
351.802
353.147
353.228
350.991
354.158
352.203
351.938
352.016
352.453
352.966
354.071
352.706
345.607
347.144
345.96
346.495
344.241
342.953
343.027
344.632
344.847
343.464
343.018
344.756
343.933
344.491
344.96
344.085
345.537
345.841
343.864
346.426
337.72
336.427
336.037
335.086
336.482
336.839
335.423
336.148
336.829
336.409
336.916
337.41
335.855
337.085
337.566
335.356
334.893
336.714
337.283
337.47
329.324
328.891
329.253
329.634
332.71
326.711
326.594
327.429
327.914
329.638
327.714
328.696
329.372
328.738
328.691
328.862
329.4
327.49
329.643
327.156
321.167
320.972
320.171
320.886
319.277
321.053
320.105
319.052
321.532
322.382
319.608
319.354
321.278
320.562
320.786
321.096
320.085
321.017
322.46
319.423
314.298
311.289
312.826
313.904
312.146
312.793
312.802
312.334
312.488
312.309
312.086
311.356
311.208
312.008
310.879
311.713
311.921
312.539
312.353
310.24
305.34
304.215
304.058
305.883
304.938
303.8
304.997
303.941
304.326
302.96
304.951
303.229
303.835
303.626
303.329
301.335
303.025
304.565
305.741
303.886
367.04
364.089
364.861
362.511
363.947
362.266
361.414
361.02
363.165
361.348
359.689
360.736
361.851
361.031
361.128
360.977
361.772
362.577
364.265
363.37
355.227
355.75
356
355.495
356.014
355.044
354.263
355.635
353.49
356.028
355.679
354.597
355.348
352.117
355.559
354.065
355.811
353.975
355.204
356.824
347.234
346.657
347.515
345.626
345.9
347.136
344.983
346.709
345.917
346.22
344.254
347.523
346.535
347.017
346.121
344.465
345.096
345.117
346.757
346.302
340.019
336.615
340.119
337.366
337.433
336.93
338.245
337.414
337.756
337.641
336.54
337.553
336.937
336.834
337.345
336.697
339.238
336.958
336.884
339.358
329.688
328.29
329.981
329.142
330.701
328.652
327.768
328.381
329.528
328.801
328.896
328.38
328.548
329.358
327.023
330.446
328.699
330.011
331.132
330.129
322.299
320.847
319.778
321.003
321.665
323.705
322.156
320.004
320.359
319.299
320.688
321.057
320.121
322.113
319.838
321.292
320.47
321.724
320.48
324.07
312.678
312.259
313.416
311.843
313.037
310.841
312.875
311.081
312.635
312.383
310.991
312.578
312.651
312.515
312.809
312.964
312.871
311.153
312.88
313.029
304.262
303.926
303.918
303.617
303.762
305.745
302.204
303.841
305.614
305.474
306.191
304.721
304.408
304.573
303.81
303.873
304.644
304.043
305.265
303.145
364.71
364.408
361.818
363.813
362.605
361.181
363.618
362.284
362.914
363.149
363.185
361.638
361.667
363.411
362.686
363.479
364.138
364.56
363.333
364.183
354.114
355.095
356.007
355.433
356.482
354.423
354.082
353.664
354.228
355.275
352.688
353.888
354.124
355.152
354.206
355.614
353.788
354.509
356.991
357.619
348.528
347.096
347.251
348.429
346.261
345.949
348.202
345.428
345.986
345.652
345.76
346.233
346.973
347.119
346.29
345.125
349.143
345.862
349.485
348.836
339.768
339.97
339.617
337.16
337.712
338.589
338.692
336.595
338.173
338.354
336.981
338.456
338.739
338.284
336.757
336.968
337.996
338.504
338.423
340.776
331.251
331.055
330.15
330.713
330.537
328.724
330.042
328.469
328.468
328.629
329.027
331.611
331.062
329.482
329.272
329.45
328.927
332.309
330.741
330.606
321.712
322.084
321.776
320.005
321.972
321.001
320.101
320.222
322.044
321.251
321.722
321.418
322.437
322.407
322.146
321.03
320.091
321.375
320.662
321.588
312.949
313.488
313.06
312.504
312.918
313.325
313.04
314.465
312.803
313.459
312.565
313.131
313.743
313.976
312.731
316.06
311.833
312.194
313.167
312.732
304.488
302.927
303.89
305.255
302.955
305.349
304.245
303.616
304.534
305.227
303.22
303.336
303.378
304.307
305.744
303.63
305.818
304.598
304.94
304.738
)
;

boundaryField
{
    hotSide
    {
        type            fixedGradient;
        gradient        nonuniform List<scalar> 
400
(
321.511
322.87
325.591
329.677
335.133
341.965
350.181
359.788
370.794
383.208
397.037
412.289
428.971
447.088
466.647
487.651
510.105
534.011
559.372
586.191
323.738
325.08
327.767
331.802
337.194
343.949
352.078
361.591
372.498
384.81
398.537
413.687
430.268
448.289
467.755
488.672
511.043
534.872
560.161
586.913
326.149
327.47
330.116
334.091
339.406
346.071
354.099
363.503
374.296
386.491
400.101
415.136
431.606
449.52
468.885
489.706
511.988
535.735
560.948
587.63
328.704
330
332.597
336.503
341.73
348.292
356.205
365.485
376.15
388.215
401.695
416.604
432.954
450.753
470.009
490.73
512.919
536.579
561.714
588.325
331.33
332.599
335.142
338.97
344.099
350.546
358.332
367.477
378.003
389.928
403.271
418.047
434.27
451.949
471.095
491.712
513.807
537.382
562.439
588.978
333.918
335.158
337.643
341.389
346.414
352.74
360.392
369.397
379.779
391.562
404.765
419.407
435.503
453.065
472.101
492.618
514.622
538.114
563.096
589.569
336.321
337.531
339.959
343.622
348.544
354.751
362.274
371.142
381.385
393.031
406.101
420.618
436.595
454.047
472.983
493.409
515.33
538.747
563.663
590.076
338.36
339.543
341.92
345.509
350.339
356.44
363.847
372.595
382.718
394.244
407.2
421.608
437.485
454.844
473.695
494.045
515.897
539.253
564.114
590.478
339.852
341.015
343.352
346.885
351.645
357.665
364.985
373.643
383.675
395.113
407.984
422.312
438.116
455.407
474.197
494.491
516.294
539.606
564.428
590.758
340.643
341.795
344.11
347.613
352.334
358.311
365.584
374.193
384.176
395.567
408.393
422.679
438.443
455.699
474.456
494.722
516.498
539.788
564.589
590.901
340.643
341.795
344.11
347.613
352.334
358.311
365.584
374.193
384.176
395.567
408.393
422.679
438.443
455.699
474.456
494.722
516.498
539.788
564.589
590.901
339.852
341.015
343.352
346.885
351.645
357.665
364.985
373.643
383.675
395.113
407.984
422.312
438.116
455.407
474.197
494.491
516.294
539.606
564.428
590.758
338.36
339.543
341.92
345.509
350.339
356.44
363.847
372.595
382.718
394.244
407.2
421.608
437.485
454.844
473.695
494.045
515.897
539.253
564.114
590.478
336.321
337.531
339.959
343.622
348.544
354.751
362.274
371.142
381.385
393.031
406.101
420.618
436.595
454.047
472.983
493.409
515.33
538.747
563.663
590.076
333.918
335.158
337.643
341.389
346.414
352.74
360.392
369.397
379.779
391.562
404.765
419.407
435.503
453.065
472.101
492.618
514.622
538.114
563.096
589.569
331.33
332.599
335.142
338.97
344.099
350.546
358.332
367.477
378.003
389.928
403.271
418.047
434.27
451.949
471.095
491.712
513.807
537.382
562.439
588.978
328.704
330
332.597
336.503
341.73
348.292
356.205
365.485
376.15
388.215
401.695
416.604
432.954
450.753
470.009
490.73
512.919
536.579
561.714
588.325
326.149
327.47
330.116
334.091
339.406
346.071
354.099
363.503
374.296
386.491
400.101
415.136
431.606
449.52
468.885
489.706
511.988
535.735
560.948
587.63
323.738
325.08
327.767
331.802
337.194
343.949
352.078
361.591
372.498
384.81
398.537
413.687
430.268
448.289
467.755
488.672
511.043
534.872
560.161
586.913
321.511
322.87
325.591
329.677
335.133
341.965
350.181
359.788
370.794
383.208
397.037
412.289
428.971
447.088
466.647
487.651
510.105
534.011
559.372
586.191
)
;
    }
    coldSide
    {
        type            mixed;
        refValue        uniform 300;
        refGradient     uniform 0;
        valueFraction   uniform 0.991591;
        source          uniform 0;
        value           nonuniform List<scalar> 
400
(
300.03
300.032
300.024
300.016
300.022
300.018
300.037
300.029
300.017
300.031
300.04
300.03
300.009
300.045
300.046
300.04
300.04
300.045
300.036
300.038
300.018
300.011
300.02
300.025
300.029
300.025
300.035
300.024
300.022
300.021
300.044
300.037
300.035
300.043
300.028
300.037
300.043