/*--------------------------------*- C++ -*----------------------------------*\
| =========                 |                                                 |
| \\      /  F ield         | OpenFOAM: The Open Source CFD Toolbox           |
|  \\    /   O peration     | Version:  2212                                  |
|   \\  /    A nd           | Website:  www.openfoam.com                      |
|    \\/     M anipulation  |                                                 |
\*---------------------------------------------------------------------------*/
FoamFile
{
    version     2.0;
    format      ascii;
    arch        "LSB;label=32;scalar=64";
    class       volScalarField;
    location    "0";
    object      Ttrue;
}
// * * * * * * * * * * * * * * * * * * * * * * * * * * * * * * * * * * * * * //

dimensions      [0 0 0 1 0 0 0];

internalField   nonuniform List<scalar> 
3200
(
341.403
341.679
342.032
342.417
342.813
343.201
343.56
343.863
344.084
344.2
344.2
344.084
343.863
343.56
343.201
342.813
342.417
342.032
341.679
341.403
335.807
336.041
336.345
336.678
337.021
337.357
337.667
337.929
338.12
338.22
338.22
338.12
337.929
337.667
337.357
337.021
336.678
336.345
336.041
335.807
330.245
330.439
330.695
330.976
331.266
331.55
331.812
332.033
332.193
332.278
332.278
332.193
332.033
331.812
331.55
331.266
330.976
330.695
330.439
330.245
324.71
324.867
325.076
325.305
325.542
325.774
325.988
326.169
326.3
326.369
326.369
326.3
326.169
325.988
325.774
325.542
325.305
325.076
324.867
324.71
319.2
319.32
319.482
319.66
319.844
320.025
320.191
320.331
320.433
320.487
320.487
320.433
320.331
320.191
320.025
319.844
319.66
319.482
319.32
319.2
313.707
313.792
313.908
314.035
314.167
314.296
314.414
314.514
314.587
314.625
314.625
314.587
314.514
314.414
314.296
314.167
314.035
313.908
313.792
313.707
308.228
308.279
308.348
308.425
308.504
308.581
308.652
308.712
308.756
308.779
308.779
308.756
308.712
308.652
308.581
308.504
308.425
308.348
308.279
308.228
302.757
302.774
302.798
302.823
302.85
302.876
302.899
302.919
302.934
302.942
302.942
302.934
302.919
302.899
302.876
302.85
302.823
302.798
302.774
302.757
341.571
341.846
342.195
342.576
342.968
343.353
343.708
344.007
344.224
344.34
344.34
344.224
344.007
343.708
343.353
342.968
342.576
342.195
341.846
341.571
335.953
336.185
336.487
336.816
337.155
337.488
337.795
338.053
338.241
338.34
338.34
338.241
338.053
337.795
337.488
337.155
336.816
336.487
336.185
335.953
330.367
330.56
330.814
331.093
331.379
331.66
331.919
332.137
332.296
332.38
332.38
332.296
332.137
331.919
331.66
331.379
331.093
330.814
330.56
330.367
324.811
324.966
325.173
325.4
325.635
325.864
326.076
326.254
326.383
326.452
326.452
326.383
326.254
326.076
325.864
325.635
325.4
325.173
324.966
324.811
319.277
319.396
319.557
319.734
319.916
320.095
320.259
320.397
320.498
320.551
320.551
320.498
320.397
320.259
320.095
319.916
319.734
319.557
319.396
319.277
313.763
313.847
313.962
314.088
314.218
314.345
314.463
314.561
314.633
314.671
314.671
314.633
314.561
314.463
314.345
314.218
314.088
313.962
313.847
313.763
308.262
308.312
308.381
308.456
308.535
308.611
308.681
308.741
308.784
308.807
308.807
308.784
308.741
308.681
308.611
308.535
308.456
308.381
308.312
308.262
302.769
302.785
302.808
302.834
302.86
302.886
302.909
302.929
302.943
302.951
302.951
302.943
302.929
302.909
302.886
302.86
302.834
302.808
302.785
302.769
341.909
342.179
342.523
342.897
343.281
343.657
344.003
344.295
344.507
344.619
344.619
344.507
344.295
344.003
343.657
343.281
342.897
342.523
342.179
341.909
336.244
336.473
336.769
337.093
337.425
337.751
338.05
338.302
338.486
338.582
338.582
338.486
338.302
338.05
337.751
337.425
337.093
336.769
336.473
336.244
330.613
330.803
331.052
331.326
331.607
331.882
332.135
332.348
332.502
332.584
332.584
332.502
332.348
332.135
331.882
331.607
331.326
331.052
330.803
330.613
325.011
325.164
325.367
325.591
325.82
326.045
326.252
326.426
326.552
326.619
326.619
326.552
326.426
326.252
326.045
325.82
325.591
325.367
325.164
325.011
319.433
319.55
319.708
319.882
320.06
320.235
320.396
320.531
320.629
320.68
320.68
320.629
320.531
320.396
320.235
320.06
319.882
319.708
319.55
319.433
313.874
313.957
314.07
314.193
314.321
314.446
314.56
314.657
314.727
314.764
314.764
314.727
314.657
314.56
314.446
314.321
314.193
314.07
313.957
313.874
308.328
308.378
308.445
308.52
308.596
308.671
308.74
308.798
308.84
308.862
308.862
308.84
308.798
308.74
308.671
308.596
308.52
308.445
308.378
308.328
302.791
302.807
302.83
302.855
302.881
302.906
302.929
302.948
302.962
302.97
302.97
302.962
302.948
302.929
302.906
302.881
302.855
302.83
302.807
302.791
342.416
342.679
343.015
343.378
343.751
344.115
344.45
344.731
344.936
345.043
345.043
344.936
344.731
344.45
344.115
343.751
343.378
343.015
342.679
342.416
336.682
336.905
337.194
337.509
337.831
338.146
338.436
338.679
338.856
338.949
338.949
338.856
338.679
338.436
338.146
337.831
337.509
337.194
336.905
336.682
330.982
331.167
331.411
331.677
331.95
332.216
332.46
332.666
332.815
332.893
332.893
332.815
332.666
332.46
332.216
331.95
331.677
331.411
331.167
330.982
325.312
325.461
325.66
325.877
326.1
326.318
326.518
326.685
326.807
326.871
326.871
326.807
326.685
326.518
326.318
326.1
325.877
325.66
325.461
325.312
319.667
319.781
319.935
320.104
320.278
320.447
320.602
320.732
320.827
320.876
320.876
320.827
320.732
320.602
320.447
320.278
320.104
319.935
319.781
319.667
314.041
314.122
314.232
314.352
314.476
314.597
314.708
314.801
314.868
314.903
314.903
314.868
314.801
314.708
314.597
314.476
314.352
314.232
314.122
314.041
308.428
308.477
308.543
308.615
308.689
308.762
308.828
308.884
308.925
308.946
308.946
308.925
308.884
308.828
308.762
308.689
308.615
308.543
308.477
308.428
302.824
302.841
302.863
302.887
302.912
302.936
302.958
302.977
302.991
302.998
302.998
302.991
302.977
302.958
302.936
302.912
302.887
302.863
302.841
302.824
343.093
343.349
343.673
344.023
344.382
344.731
345.051
345.319
345.513
345.616
345.616
345.513
345.319
345.051
344.731
344.382
344.023
343.673
343.349
343.093
337.267
337.483
337.762
338.066
338.376
338.678
338.955
339.187
339.355
339.443
339.443
339.355
339.187
338.955
338.678
338.376
338.066
337.762
337.483
337.267
331.476
331.655
331.891
332.147
332.409
332.665
332.898
333.094
333.236
333.31
333.31
333.236
333.094
332.898
332.665
332.409
332.147
331.891
331.655
331.476
325.715
325.859
326.051
326.261
326.475
326.684
326.875
327.035
327.151
327.212
327.212
327.151
327.035
326.875
326.684
326.475
326.261
326.051
325.859
325.715
319.98
320.09
320.239
320.402
320.569
320.731
320.88
321.004
321.094
321.141
321.141
321.094
321.004
320.88
320.731
320.569
320.402
320.239
320.09
319.98
314.264
314.342
314.448
314.565
314.684
314.8
314.906
314.994
315.058
315.092
315.092
315.058
314.994
314.906
314.8
314.684
314.565
314.448
314.342
314.264
308.562
308.609
308.673
308.743
308.814
308.884
308.947
309
309.039
309.059
309.059
309.039
309
308.947
308.884
308.814
308.743
308.673
308.609
308.562
302.869
302.885
302.906
302.93
302.954
302.977
302.998
303.016
303.029
303.036
303.036
303.029
303.016
302.998
302.977
302.954
302.93
302.906
302.885
302.869
343.942
344.188
344.499
344.834
345.176
345.507
345.809
346.062
346.245
346.342
346.342
346.245
346.062
345.809
345.507
345.176
344.834
344.499
344.188
343.942
337.999
338.207
338.476
338.766
339.062
339.349
339.61
339.829
339.987
340.07
340.07
339.987
339.829
339.61
339.349
339.062
338.766
338.476
338.207
337.999
332.094
332.266
332.492
332.738
332.988
333.23
333.451
333.636
333.77
333.84
333.84
333.77
333.636
333.451
333.23
332.988
332.738
332.492
332.266
332.094
326.219
326.358
326.543
326.743
326.948
327.146
327.327
327.478
327.587
327.644
327.644
327.587
327.478
327.327
327.146
326.948
326.743
326.543
326.358
326.219
320.371
320.478
320.621
320.777
320.936
321.09
321.23
321.347
321.432
321.477
321.477
321.432
321.347
321.23
321.09
320.936
320.777
320.621
320.478
320.371
314.543
314.619
314.721
314.832
314.945
315.055
315.156
315.24
315.3
315.332
315.332
315.3
315.24
315.156
315.055
314.945
314.832
314.721
314.619
314.543
308.73
308.775
308.836
308.903
308.971
309.037
309.097
309.148
309.184
309.203
309.203
309.184
309.148
309.097
309.037
308.971
308.903
308.836
308.775
308.73
302.925
302.94
302.961
302.983
303.006
303.028
303.048
303.065
303.077
303.084
303.084
303.077
303.065
303.048
303.028
303.006
302.983
302.961
302.94
302.925
344.963
345.198
345.494
345.812
346.135
346.447
346.731
346.967
347.138
347.227
347.227
347.138
346.967
346.731
346.447
346.135
345.812
345.494
345.198
344.963
338.881
339.08
339.336
339.611
339.891
340.161
340.406
340.611
340.758
340.835
340.835
340.758
340.611
340.406
340.161
339.891
339.611
339.336
339.08
338.881
332.837
333.002
333.218
333.451
333.687
333.915
334.123
334.295
334.42
334.485
334.485
334.42
334.295
334.123
333.915
333.687
333.451
333.218
333.002
332.837
326.826
326.959
327.135
327.325
327.518
327.705
327.875
328.016
328.118
328.171
328.171
328.118
328.016
327.875
327.705
327.518
327.325
327.135
326.959
326.826
320.842
320.944
321.081
321.228
321.379
321.524
321.656
321.765
321.844
321.886
321.886
321.844
321.765
321.656
321.524
321.379
321.228
321.081
320.944
320.842
314.879
314.951
315.049
315.154
315.262
315.365
315.459
315.538
315.594
315.624
315.624
315.594
315.538
315.459
315.365
315.262
315.154
315.049
314.951
314.879
308.932
308.975
309.033
309.096
309.161
309.223
309.28
309.327
309.36
309.378
309.378
309.36
309.327
309.28
309.223
309.161
309.096
309.033
308.975
308.932
302.993
303.007
303.027
303.048
303.07
303.091
303.11
303.125
303.137
303.143
303.143
303.137
303.125
303.11
303.091
303.07
303.048
303.027
303.007
302.993
346.157
346.381
346.661
346.961
347.264
347.555
347.819
348.038
348.195
348.278
348.278
348.195
348.038
347.819
347.555
347.264
346.961
346.661
346.381
346.157
339.913
340.102
340.344
340.603
340.866
341.118
341.346
341.535
341.672
341.743
341.743
341.672
341.535
341.346
341.118
340.866
340.603
340.344
340.102
339.913
333.708
333.864
334.068
334.288
334.51
334.723
334.916
335.076
335.191
335.251
335.251
335.191
335.076
334.916
334.723
334.51
334.288
334.068
333.864
333.708
327.537
327.663
327.829
328.008
328.19
328.364
328.522
328.653
328.747
328.796
328.796
328.747
328.653
328.522
328.364
328.19
328.008
327.829
327.663
327.537
321.394
321.49
321.62
321.759
321.9
322.036
322.158
322.26
322.333
322.371
322.371
322.333
322.26
322.158
322.036
321.9
321.759
321.62
321.49
321.394
315.273
315.341
315.433
315.533
315.634
315.73
315.818
315.891
315.943
315.97
315.97
315.943
315.891
315.818
315.73
315.634
315.533
315.433
315.341
315.273
309.168
309.209
309.264
309.323
309.384
309.442
309.495
309.538
309.57
309.586
309.586
309.57
309.538
309.495
309.442
309.384
309.323
309.264
309.209
309.168
303.072
303.086
303.104
303.124
303.144
303.164
303.182
303.196
303.207
303.212
303.212
303.207
303.196
303.182
303.164
303.144
303.124
303.104
303.086
303.072
347.527
347.738
348.002
348.283
348.565
348.835
349.078
349.28
349.424
349.499
349.499
349.424
349.28
349.078
348.835
348.565
348.283
348.002
347.738
347.527
341.095
341.274
341.502
341.745
341.989
342.223
342.434
342.608
342.733
342.798
342.798
342.733
342.608
342.434
342.223
341.989
341.745
341.502
341.274
341.095
334.705
334.853
335.045
335.251
335.458
335.655
335.834
335.981
336.086
336.142
336.142
336.086
335.981
335.834
335.655
335.458
335.251
335.045
334.853
334.705
328.351
328.47
328.627
328.795
328.964
329.125
329.271
329.392
329.478
329.523
329.523
329.478
329.392
329.271
329.125
328.964
328.795
328.627
328.47
328.351
322.026
322.117
322.239
322.369
322.501
322.627
322.74
322.834
322.901
322.936
322.936
322.901
322.834
322.74
322.627
322.501
322.369
322.239
322.117
322.026
315.724
315.788
315.875
315.968
316.062
316.152
316.233
316.3
316.348
316.373
316.373
316.348
316.3
316.233
316.152
316.062
315.968
315.875
315.788
315.724
309.438
309.477
309.529
309.585
309.641
309.695
309.744
309.784
309.813
309.828
309.828
309.813
309.784
309.744
309.695
309.641
309.585
309.529
309.477
309.438
303.163
303.176
303.193
303.212
303.231
303.249
303.265
303.279
303.288
303.293
303.293
303.288
303.279
303.265
303.249
303.231
303.212
303.193
303.176
303.163
349.073
349.271
349.518
349.78
350.041
350.29
350.513
350.697
350.828
350.897
350.897
350.828
350.697
350.513
350.29
350.041
349.78
349.518
349.271
349.073
342.43
342.598
342.811
343.038
343.264
343.479
343.673
343.832
343.946
344.005
344.005
343.946
343.832
343.673
343.479
343.264
343.038
342.811
342.598
342.43
335.831
335.971
336.15
336.342
336.533
336.715
336.879
337.014
337.11
337.16
337.16
337.11
337.014
336.879
336.715
336.533
336.342
336.15
335.971
335.831
329.27
329.382
329.528
329.685
329.842
329.991
330.124
330.234
330.313
330.354
330.354
330.313
330.234
330.124
329.991
329.842
329.685
329.528
329.382
329.27
322.739
322.825
322.939
323.061
323.182
323.298
323.402
323.488
323.549
323.581
323.581
323.549
323.488
323.402
323.298
323.182
323.061
322.939
322.825
322.739
316.233
316.294
316.375
316.462
316.549
316.632
316.706
316.767
316.811
316.833
316.833
316.811
316.767
316.706
316.632
316.549
316.462
316.375
316.294
316.233
309.744
309.78
309.829
309.881
309.933
309.983
310.027
310.064
310.09
310.104
310.104
310.09
310.064
310.027
309.983
309.933
309.881
309.829
309.78
309.744
303.265
303.277
303.293
303.311
303.328
303.345
303.36
303.372
303.381
303.386
303.386
303.381
303.372
303.36
303.345
303.328
303.311
303.293
303.277
303.265
350.796
350.982
351.212
351.454
351.694
351.922
352.126
352.293
352.412
352.474
352.474
352.412
352.293
352.126
351.922
351.694
351.454
351.212
350.982
350.796
343.919
344.075
344.274
344.484
344.692
344.89
345.066
345.211
345.314
345.367
345.367
345.314
345.211
345.066
344.89
344.692
344.484
344.274
344.075
343.919
337.087
337.217
337.384
337.562
337.738
337.905
338.054
338.177
338.264
338.309
338.309
338.264
338.177
338.054
337.905
337.738
337.562
337.384
337.217
337.087
330.295
330.399
330.536
330.681
330.825
330.962
331.084
331.184
331.255
331.292
331.292
331.255
331.184
331.084
330.962
330.825
330.681
330.536
330.399
330.295
323.535
323.615
323.721
323.834
323.946
324.052
324.147
324.225
324.281
324.309
324.309
324.281
324.225
324.147
324.052
323.946
323.834
323.721
323.615
323.535
316.8
316.857
316.933
317.013
317.094
317.17
317.237
317.293
317.332
317.353
317.353
317.332
317.293
317.237
317.17
317.094
317.013
316.933
316.857
316.8
310.084
310.118
310.163
310.212
310.26
310.306
310.346
310.38
310.404
310.416
310.416
310.404
310.38
310.346
310.306
310.26
310.212
310.163
310.118
310.084
303.379
303.39
303.406
303.422
303.438
303.453
303.467
303.478
303.486
303.49
303.49
303.486
303.478
303.467
303.453
303.438
303.422
303.406
303.39
303.379
352.698
352.871
353.084
353.307
353.528
353.736
353.921
354.071
354.179
354.234
354.234
354.179
354.071
353.921
353.736
353.528
353.307
353.084
352.871
352.698
345.561
345.707
345.891
346.084
346.276
346.456
346.616
346.747
346.84
346.888
346.888
346.84
346.747
346.616
346.456
346.276
346.084
345.891
345.707
345.561
338.472
338.594
338.749
338.912
339.074
339.227
339.362
339.473
339.551
339.592
339.592
339.551
339.473
339.362
339.227
339.074
338.912
338.749
338.594
338.472
331.426
331.523
331.649
331.783
331.916
332.04
332.151
332.242
332.306
332.339
332.339
332.306
332.242
332.151
332.04
331.916
331.783
331.649
331.523
331.426
324.413
324.488
324.586
324.69
324.793
324.89
324.976
325.046
325.096
325.122
325.122
325.096
325.046
324.976
324.89
324.793
324.69
324.586
324.488
324.413
317.427
317.48
317.55
317.624
317.698
317.767
317.829
317.879
317.915
317.933
317.933
317.915
317.879
317.829
317.767
317.698
317.624
317.55
317.48
317.427
310.46
310.492
310.534
310.578
310.623
310.664
310.701
310.731
310.753
310.764
310.764
310.753
310.731
310.701
310.664
310.623
310.578
310.534
310.492
310.46
303.505
303.516
303.53
303.545
303.559
303.573
303.586
303.596
303.603
303.607
303.607
303.603
303.596
303.586
303.573
303.559
303.545
303.53
303.516
303.505
354.778
354.939
355.135
355.341
355.542
355.731
355.898
356.034
356.13
356.18
356.18
356.13
356.034
355.898
355.731
355.542
355.341
355.135
354.939
354.778
347.358
347.493
347.663
347.841
348.015
348.179
348.324
348.442
348.525
348.569
348.569
348.525
348.442
348.324
348.179
348.015
347.841
347.663
347.493
347.358
339.988
340.101
340.244
340.394
340.542
340.681
340.803
340.903
340.973
341.01
341.01
340.973
340.903
340.803
340.681
340.542
340.394
340.244
340.101
339.988
332.663
332.753
332.87
332.993
333.114
333.227
333.327
333.409
333.467
333.497
333.497
333.467
333.409
333.327
333.227
333.114
332.993
332.87
332.753
332.663
325.373
325.443
325.533
325.629
325.723
325.811
325.889
325.953
325.997
326.021
326.021
325.997
325.953
325.889
325.811
325.723
325.629
325.533
325.443
325.373
318.112
318.161
318.226
318.294
318.361
318.424
318.48
318.525
318.557
318.574
318.574
318.557
318.525
318.48
318.424
318.361
318.294
318.226
318.161
318.112
310.871
310.901
310.939
310.98
311.021
311.059
311.092
311.119
311.139
311.149
311.149
311.139
311.119
311.092
311.059
311.021
310.98
310.939
310.901
310.871
303.643
303.653
303.666
303.679
303.693
303.706
303.717
303.726
303.732
303.736
303.736
303.732
303.726
303.717
303.706
303.693
303.679
303.666
303.653
303.643
357.037
357.185
357.366
357.554
357.738
357.909
358.06
358.182
358.268
358.313
358.313
358.268
358.182
358.06
357.909
357.738
357.554
357.366
357.185
357.037
349.308
349.433
349.59
349.752
349.912
350.06
350.191
350.296
350.371
350.41
350.41
350.371
350.296
350.191
350.06
349.912
349.752
349.59
349.433
349.308
341.633
341.737
341.869
342.007
342.141
342.267
342.377
342.467
342.53
342.563
342.563
342.53
342.467
342.377
342.267
342.141
342.007
341.869
341.737
341.633
334.005
334.089
334.196
334.309
334.419
334.522
334.612
334.686
334.737
334.764
334.764
334.737
334.686
334.612
334.522
334.419
334.309
334.196
334.089
334.005
326.415
326.479
326.563
326.65
326.736
326.816
326.887
326.944
326.984
327.005
327.005
326.984
326.944
326.887
326.816
326.736
326.65
326.563
326.479
326.415
318.856
318.901
318.96
319.023
319.084
319.141
319.192
319.232
319.261
319.276
319.276
319.261
319.232
319.192
319.141
319.084
319.023
318.96
318.901
318.856
311.317
311.345
311.38
311.418
311.455
311.489
311.519
311.544
311.561
311.57
311.57
311.561
311.544
311.519
311.489
311.455
311.418
311.38
311.345
311.317
303.792
303.801
303.813
303.826
303.838
303.85
303.86
303.868
303.874
303.877
303.877
303.874
303.868
303.86
303.85
303.838
303.826
303.813
303.801
303.792
359.471
359.607
359.774
359.945
360.112
360.267
360.402
360.511
360.588
360.628
360.628
360.588
360.511
360.402
360.267
360.112
359.945
359.774
359.607
359.471
351.409
351.524
351.668
351.816
351.961
352.095
352.213
352.307
352.374
352.409
352.409
352.374
352.307
352.213
352.095
351.961
351.816
351.668
351.524
351.409
343.405
343.501
343.622
343.747
343.87
343.983
344.083
344.163
344.219
344.249
344.249
344.219
344.163
344.083
343.983
343.87
343.747
343.622
343.501
343.405
335.45
335.528
335.626
335.729
335.829
335.922
336.004
336.069
336.115
336.139
336.139
336.115
336.069
336.004
335.922
335.829
335.729
335.626
335.528
335.45
327.537
327.596
327.673
327.753
327.831
327.903
327.966
328.018
328.053
328.072
328.072
328.053
328.018
327.966
327.903
327.831
327.753
327.673
327.596
327.537
319.656
319.698
319.752
319.809
319.865
319.917
319.962
319.999
320.024
320.038
320.038
320.024
319.999
319.962
319.917
319.865
319.809
319.752
319.698
319.656
311.797
311.822
311.855
311.89
311.923
311.954
311.981
312.003
312.019
312.027
312.027
312.019
312.003
311.981
311.954
311.923
311.89
311.855
311.822
311.797
303.953
303.961
303.972
303.984
303.995
304.006
304.015
304.022
304.027
304.03
304.03
304.027
304.022
304.015
304.006
303.995
303.984
303.972
303.961
303.953
362.069
362.194
362.347
362.503
362.654
362.794
362.916
363.014
363.082
363.118
363.118
363.082
363.014
362.916
362.794
362.654
362.503
362.347
362.194
362.069
353.65
353.756
353.888
354.023
354.154
354.275
354.381
354.466
354.525
354.556
354.556
354.525
354.466
354.381
354.275
354.154
354.023
353.888
353.756
353.65
345.293
345.382
345.493
345.607
345.718
345.821
345.91
345.982
346.032
346.058
346.058
346.032
345.982
345.91
345.821
345.718
345.607
345.493
345.382
345.293
336.991
337.062
337.152
337.246
337.337
337.421
337.494
337.553
337.594
337.615
337.615
337.594
337.553
337.494
337.421
337.337
337.246
337.152
337.062
336.991
328.732
328.786
328.856
328.929
329
329.065
329.122
329.168
329.2
329.217
329.217
329.2
329.168
329.122
329.065
329
328.929
328.856
328.786
328.732
320.508
320.546
320.596
320.648
320.699
320.746
320.786
320.819
320.842
320.854
320.854
320.842
320.819
320.786
320.746
320.699
320.648
320.596
320.546
320.508
312.309
312.331
312.361
312.393
312.423
312.451
312.476
312.495
312.509
312.516
312.516
312.509
312.495
312.476
312.451
312.423
312.393
312.361
312.331
312.309
304.124
304.132
304.142
304.152
304.163
304.172
304.18
304.187
304.191
304.194
304.194
304.191
304.187
304.18
304.172
304.163
304.152
304.142
304.132
304.124
364.805
364.92
365.06
365.202
365.34
365.465
365.575
365.662
365.724
365.755
365.755
365.724
365.662
365.575
365.465
365.34
365.202
365.06
364.92
364.805
356.006
356.104
356.224
356.348
356.467
356.576
356.671
356.747
356.8
356.827
356.827
356.8
356.747
356.671
356.576
356.467
356.348
356.224
356.104
356.006
347.276
347.357
347.458
347.563
347.664
347.756
347.837
347.901
347.946
347.969
347.969
347.946
347.901
347.837
347.756
347.664
347.563
347.458
347.357
347.276
338.605
338.67
338.753
338.838
338.921
338.997
339.062
339.115
339.152
339.171
339.171
339.152
339.115
339.062
338.997
338.921
338.838
338.753
338.67
338.605
329.983
330.033
330.097
330.163
330.228
330.287
330.338
330.379
330.407
330.422
330.422
330.407
330.379
330.338
330.287
330.228
330.163
330.097
330.033
329.983
321.399
321.434
321.48
321.528
321.573
321.616
321.652
321.682
321.702
321.713
321.713
321.702
321.682
321.652
321.616
321.573
321.528
321.48
321.434
321.399
312.843
312.864
312.891
312.92
312.947
312.973
312.995
313.012
313.025
313.031
313.031
313.025
313.012
312.995
312.973
312.947
312.92
312.891
312.864
312.843
304.303
304.31
304.319
304.329
304.338
304.347
304.354
304.36
304.364
304.366
304.366
304.364
304.36
304.354
304.347
304.338
304.329
304.319
304.31
304.303
367.61
367.717
367.845
367.975
368.099
368.213
368.311
368.39
368.445
368.473
368.473
368.445
368.39
368.311
368.213
368.099
367.975
367.845
367.717
367.61
358.411
358.501
358.611
358.724
358.832
358.931
359.016
359.085
359.132
359.157
359.157
359.132
359.085
359.016
358.931
358.832
358.724
358.611
358.501
358.411
349.291
349.366
349.459
349.554
349.646
349.73
349.802
349.86
349.9
349.921
349.921
349.9
349.86
349.802
349.73
349.646
349.554
349.459
349.366
349.291
340.24
340.3
340.376
340.454
340.529
340.598
340.657
340.705
340.738
340.755
340.755
340.738
340.705
340.657
340.598
340.529
340.454
340.376
340.3
340.24
331.246
331.292
331.351
331.412
331.47
331.524
331.57
331.607
331.632
331.646
331.646
331.632
331.607
331.57
331.524
331.47
331.412
331.351
331.292
331.246
322.297
322.329
322.372
322.415
322.457
322.495
322.528
322.554
322.573
322.582
322.582
322.573
322.554
322.528
322.495
322.457
322.415
322.372
322.329
322.297
313.38
313.4
313.425
313.451
313.476
313.499
313.519
313.535
313.546
313.551
313.551
313.546
313.535
313.519
313.499
313.476
313.451
313.425
313.4
313.38
304.483
304.489
304.498
304.507
304.515
304.523
304.529
304.535
304.538
304.54
304.54
304.538
304.535
304.529
304.523
304.515
304.507
304.498
304.489
304.483
370.309
370.407
370.525
370.645
370.759
370.862
370.952
371.023
371.072
371.098
371.098
371.072
371.023
370.952
370.862
370.759
370.645
370.525
370.407
370.309
360.697
360.78
360.882
360.985
361.084
361.175
361.252
361.314
361.357
361.379
361.379
361.357
361.314
361.252
361.175
361.084
360.985
360.882
360.78
360.697
351.186
351.255
351.341
351.429
351.513
351.589
351.655
351.708
351.744
351.763
351.763
351.744
351.708
351.655
351.589
351.513
351.429
351.341
351.255
351.186
341.763
341.819
341.889
341.961
342.03
342.093
342.147
342.19
342.22
342.235
342.235
342.22
342.19
342.147
342.093
342.03
341.961
341.889
341.819
341.763
332.414
332.457
332.511
332.567
332.621
332.67
332.712
332.746
332.769
332.781
332.781
332.769
332.746
332.712
332.67
332.621
332.567
332.511
332.457
332.414
323.122
323.153
323.192
323.232
323.27
323.305
323.335
323.359
323.376
323.385
323.385
323.376
323.359
323.335
323.305
323.27
323.232
323.192
323.153
323.122
313.872
313.89
313.914
313.938
313.961
313.982
314
314.015
314.025
314.03
314.03
314.025
314.015
314
313.982
313.961
313.938
313.914
313.89
313.872
304.647
304.653
304.661
304.669
304.677
304.684
304.69
304.695
304.698
304.7
304.7
304.698
304.695
304.69
304.684
304.677
304.669
304.661
304.653
304.647
372.429
372.522
372.633
372.745
372.851
372.948
373.031
373.097
373.143
373.167
373.167
373.143
373.097
373.031
372.948
372.851
372.745
372.633
372.522
372.429
362.424
362.503
362.599
362.696
362.789
362.874
362.946
363.004
363.044
363.064
363.064
363.044
363.004
362.946
362.874
362.789
362.696
362.599
362.503
362.424
352.574
352.639
352.72
352.803
352.882
352.954
353.016
353.065
353.099
353.116
353.116
353.099
353.065
353.016
352.954
352.882
352.803
352.72
352.639
352.574
342.852
342.904
342.971
343.039
343.104
343.163
343.214
343.254
343.282
343.296
343.296
343.282
343.254
343.214
343.163
343.104
343.039
342.971
342.904
342.852
333.233
333.273
333.325
333.378
333.429
333.475
333.515
333.546
333.568
333.579
333.579
333.568
333.546
333.515
333.475
333.429
333.378
333.325
333.273
333.233
323.693
323.722
323.759
323.797
323.833
323.866
323.895
323.917
323.933
323.941
323.941
323.933
323.917
323.895
323.866
323.833
323.797
323.759
323.722
323.693
314.21
314.227
314.249
314.272
314.294
314.313
314.331
314.344
314.354
314.358
314.358
314.354
314.344
314.331
314.313
314.294
314.272
314.249
314.227
314.21
304.759
304.765
304.773
304.78
304.788
304.794
304.8
304.805
304.808
304.809
304.809
304.808
304.805
304.8
304.794
304.788
304.78
304.773
304.765
304.759
)
;

boundaryField
{
    hotSide
    {
        type            fixedGradient;
        gradient        nonuniform List<scalar> 
400
(
450.675
452.538
456.269
461.871
469.355
478.729
490.005
503.198
518.318
535.381
554.398
575.383
598.345
623.296
650.243
679.194
710.155
743.132
778.129
815.148
454.311
456.146
459.82
465.34
472.718
481.967
493.103
506.141
521.101
537.997
556.846
577.664
600.463
625.256
652.052
680.86
711.687
744.538
779.417
816.328
458.247
460.047
463.654
469.076
476.33
485.431
496.402
509.262
524.035
540.741
559.4
580.03
602.647
627.265
653.896
682.548
713.23
745.946
780.701
817.498
462.416
464.177
467.705
473.014
480.123
489.056
499.838
512.497
527.061
543.554
562.002
582.427
604.847
629.277
655.731
684.219
714.749
747.325
781.952
818.632
466.703
468.418
471.858
477.041
483.99
492.736
503.311
515.749
530.085
546.351
564.575
584.782
606.995
631.23
657.503
685.823
716.199
748.635
783.134
819.698
470.928
472.595
475.942
480.989
487.768
496.316
506.674
518.883
532.985
549.017
567.013
587.002
609.008
633.051
659.145
687.302
717.529
749.83
784.208
820.663
474.85
476.469
479.721
484.635
491.246
499.599
509.745
521.731
535.607
551.415
569.195
588.978
610.791
634.655
660.585
688.593
718.684
750.864
785.133
821.491
478.178
479.754
482.922
487.715
494.175
502.356
512.313
524.104
537.781
553.395
570.988
590.594
612.243
635.956
661.748
689.631
719.61
751.689
785.869
822.147
480.614
482.157
485.26
489.961
496.307
504.356
514.171
525.814
539.344
554.813
572.267
591.744
613.272
636.875
662.567
690.359
720.258
752.265
786.381
822.603
481.905
483.429
486.498
491.148
497.432
505.41
515.149
526.712
540.163
555.554
572.935
592.342
613.807
637.351
662.99
690.735
720.592
752.562
786.644
822.837
481.905
483.429
486.498
491.148
497.432
505.41
515.149
526.712
540.163
555.554
572.935
592.342
613.807
637.351
662.99
690.735
720.592
752.562
786.644
822.837
480.614
482.157
485.26
489.961
496.307
504.356
514.171
525.814
539.344
554.813
572.267
591.744
613.272
636.875
662.567
690.359
720.258
752.265
786.381
822.603
478.178
479.754
482.922
487.715
494.175
502.356
512.313
524.104
537.781
553.395
570.988
590.594
612.243
635.956
661.748
689.631
719.61
751.689
785.869
822.147
474.85
476.469
479.721
484.635
491.246
499.599
509.745
521.731
535.607
551.415
569.195
588.978
610.791
634.655
660.585
688.593
718.684
750.864
785.133
821.491
470.928
472.595
475.942
480.989
487.768
496.316
506.674
518.883
532.985
549.017
567.013
587.002
609.008
633.051
659.145
687.302
717.529
749.83
784.208
820.663
466.703
468.418
471.858
477.041
483.99
492.736
503.311
515.749
530.085
546.351
564.575
584.782
606.995
631.23
657.503
685.823
716.199
748.635
783.134
819.698
462.416
464.177
467.705
473.014
480.123
489.056
499.838
512.497
527.061
543.554
562.002
582.427
604.847
629.277
655.731
684.219
714.749
747.325
781.952
818.632
458.247
460.047
463.654
469.076
476.33
485.431
496.402
509.262
524.035
540.741
559.4
580.03
602.647
627.265
653.896
682.548
713.23
745.946
780.701
817.498
454.311
456.146
459.82
465.34
472.718
481.967
493.103
506.141
521.101
537.997
556.846
577.664
600.463
625.256
652.052
680.86
711.687
744.538
779.417
816.328
450.675
452.538
456.269
461.871
469.355
478.729
490.005
503.198
518.318
535.381
554.398
575.383
598.345
623.296
650.243
679.194
710.155
743.132
778.129
815.148
)
;
    }
    coldSide
    {
        type            mixed;
        refValue        uniform 300;
        refGradient     uniform 0;
        valueFraction   uniform 0.991591;
        source          uniform 0;
        value           nonuniform List<scalar> 
400
(
300.023
300.023
300.023
300.024
300.024
300.025
300.025
300.026
300.027
300.027
300.028
300.029
300.031
300.032
300.033
300.035
300.036
300.038
300.039
300.04
300.023
300.023
300.024
300.024
300.024
300.025
300.025
300.026
300.027
300.028
300.029
300.03
300.031
300.032
300.033
300.035
300.036
300.038