/*--------------------------------*- C++ -*----------------------------------*\
| =========                 |                                                 |
| \\      /  F ield         | OpenFOAM: The Open Source CFD Toolbox           |
|  \\    /   O peration     | Version:  2212                                  |
|   \\  /    A nd           | Website:  www.openfoam.com                      |
|    \\/     M anipulation  |                                                 |
\*---------------------------------------------------------------------------*/
FoamFile
{
    version     2.0;
    format      ascii;
    arch        "LSB;label=32;scalar=64";
    class       volScalarField;
    location    "0";
    object      Tdirect;
}
// * * * * * * * * * * * * * * * * * * * * * * * * * * * * * * * * * * * * * //

dimensions      [0 0 0 1 0 0 0];

internalField   nonuniform List<scalar> 
3200
(
348.874
349.575
350.469
351.444
352.448
353.433
354.342
355.11
355.669
355.965
355.965
355.669
355.11
354.342
353.433
352.448
351.444
350.469
349.575
348.874
342.377
342.97
343.741
344.584
345.453
346.305
347.092
347.755
348.238
348.493
348.493
348.238
347.755
347.092
346.305
345.453
344.584
343.741
342.97
342.377
335.873
336.365
337.014
337.727
338.461
339.181
339.845
340.405
340.812
341.027
341.027
340.812
340.405
339.845
339.181
338.461
337.727
337.014
336.365
335.873
329.363
329.759
330.289
330.871
331.471
332.059
332.601
333.059
333.391
333.567
333.567
333.391
333.059
332.601
332.059
331.471
330.871
330.289
329.759
329.363
322.848
323.152
323.563
324.016
324.482
324.939
325.361
325.716
325.974
326.11
326.11
325.974
325.716
325.361
324.939
324.482
324.016
323.563
323.152
322.848
316.331
316.546
316.839
317.162
317.495
317.821
318.122
318.375
318.56
318.657
318.657
318.56
318.375
318.122
317.821
317.495
317.162
316.839
316.546
316.331
309.81
309.939
310.114
310.308
310.508
310.704
310.885
311.037
311.147
311.206
311.206
311.147
311.037
310.885
310.704
310.508
310.308
310.114
309.939
309.81
303.289
303.332
303.39
303.455
303.522
303.588
303.649
303.7
303.737
303.756
303.756
303.737
303.7
303.649
303.588
303.522
303.455
303.39
303.332
303.289
349.034
349.729
350.615
351.581
352.574
353.549
354.448
355.206
355.758
356.049
356.049
355.758
355.206
354.448
353.549
352.574
351.581
350.615
349.729
349.034
342.515
343.103
343.868
344.703
345.563
346.406
347.183
347.838
348.315
348.567
348.567
348.315
347.838
347.183
346.406
345.563
344.703
343.868
343.103
342.515
335.989
336.477
337.122
337.827
338.554
339.266
339.922
340.475
340.878
341.09
341.09
340.878
340.475
339.922
339.266
338.554
337.827
337.122
336.477
335.989
329.458
329.851
330.376
330.953
331.547
332.129
332.665
333.116
333.445
333.618
333.618
333.445
333.116
332.665
332.129
331.547
330.953
330.376
329.851
329.458
322.922
323.224
323.631
324.08
324.541
324.994
325.41
325.761
326.016
326.15
326.15
326.016
325.761
325.41
324.994
324.541
324.08
323.631
323.224
322.922
316.383
316.597
316.887
317.207
317.537
317.86
318.157
318.408
318.589
318.685
318.685
318.589
318.408
318.157
317.86
317.537
317.207
316.887
316.597
316.383
309.842
309.97
310.144
310.336
310.534
310.728
310.906
311.056
311.165
311.223
311.223
311.165
311.056
310.906
310.728
310.534
310.336
310.144
309.97
309.842
303.299
303.342
303.4
303.465
303.531
303.596
303.656
303.706
303.743
303.762
303.762
303.743
303.706
303.656
303.596
303.531
303.465
303.4
303.342
303.299
349.354
350.038
350.909
351.857
352.83
353.784
354.662
355.401
355.939
356.223
356.223
355.939
355.401
354.662
353.784
352.83
351.857
350.909
350.038
349.354
342.792
343.371
344.122
344.942
345.785
346.61
347.369
348.008
348.473
348.718
348.718
348.473
348.008
347.369
346.61
345.785
344.942
344.122
343.371
342.792
336.223
336.703
337.337
338.029
338.742
339.439
340.08
340.619
341.011
341.218
341.218
341.011
340.619
340.08
339.439
338.742
338.029
337.337
336.703
336.223
329.649
330.036
330.552
331.118
331.7
332.27
332.794
333.234
333.554
333.723
333.723
333.554
333.234
332.794
332.27
331.7
331.118
330.552
330.036
329.649
323.071
323.368
323.768
324.208
324.661
325.103
325.51
325.852
326.101
326.232
326.232
326.101
325.852
325.51
325.103
324.661
324.208
323.768
323.368
323.071
316.489
316.7
316.985
317.299
317.622
317.938
318.229
318.473
318.65
318.744
318.744
318.65
318.473
318.229
317.938
317.622
317.299
316.985
316.7
316.489
309.906
310.031
310.202
310.391
310.585
310.775
310.949
311.096
311.202
311.258
311.258
311.202
311.096
310.949
310.775
310.585
310.391
310.202
310.031
309.906
303.321
303.363
303.42
303.483
303.548
303.612
303.67
303.719
303.755
303.774
303.774
303.755
303.719
303.67
303.612
303.548
303.483
303.42
303.363
303.321
349.835
350.503
351.353
352.275
353.219
354.142
354.991
355.704
356.221
356.494
356.494
356.221
355.704
354.991
354.142
353.219
352.275
351.353
350.503
349.835
343.208
343.774
344.507
345.304
346.122
346.92
347.654
348.27
348.718
348.953
348.953
348.718
348.27
347.654
346.92
346.122
345.304
344.507
343.774
343.208
336.575
337.044
337.662
338.335
339.027
339.702
340.321
340.841
341.219
341.418
341.418
341.219
340.841
340.321
339.702
339.027
338.335
337.662
337.044
336.575
329.937
330.314
330.818
331.368
331.934
332.485
332.991
333.416
333.724
333.887
333.887
333.724
333.416
332.991
332.485
331.934
331.368
330.818
330.314
329.937
323.294
323.584
323.975
324.403
324.842
325.271
325.664
325.994
326.233
326.359
326.359
326.233
325.994
325.664
325.271
324.842
324.403
323.975
323.584
323.294
316.649
316.854
317.133
317.438
317.752
318.058
318.339
318.574
318.745
318.835
318.835
318.745
318.574
318.339
318.058
317.752
317.438
317.133
316.854
316.649
310.002
310.124
310.291
310.474
310.663
310.847
311.015
311.157
311.259
311.313
311.313
311.259
311.157
311.015
310.847
310.663
310.474
310.291
310.124
310.002
303.353
303.394
303.45
303.511
303.574
303.636
303.692
303.74
303.774
303.792
303.792
303.774
303.74
303.692
303.636
303.574
303.511
303.45
303.394
303.353
350.481
351.128
351.95
352.839
353.747
354.632
355.442
356.122
356.614
356.874
356.874
356.614
356.122
355.442
354.632
353.747
352.839
351.95
351.128
350.481
343.767
344.315
345.023
345.793
346.579
347.344
348.045
348.633
349.059
349.283
349.283
349.059
348.633
348.045
347.344
346.579
345.793
345.023
344.315
343.767
337.047
337.501
338.099
338.749
339.413
340.06
340.652
341.149
341.508
341.697
341.697
341.508
341.149
340.652
340.06
339.413
338.749
338.099
337.501
337.047
330.322
330.688
331.175
331.706
332.25
332.779
333.262
333.668
333.961
334.116
334.116
333.961
333.668
333.262
332.779
332.25
331.706
331.175
330.688
330.322
323.594
323.875
324.253
324.666
325.088
325.499
325.875
326.19
326.418
326.538
326.538
326.418
326.19
325.875
325.499
325.088
324.666
324.253
323.875
323.594
316.863
317.062
317.331
317.626
317.928
318.221
318.49
318.714
318.877
318.963
318.963
318.877
318.714
318.49
318.221
317.928
317.626
317.331
317.062
316.863
310.13
310.249
310.41
310.587
310.768
310.945
311.106
311.241
311.338
311.39
311.39
311.338
311.241
311.106
310.945
310.768
310.587
310.41
310.249
310.13
303.396
303.435
303.49
303.549
303.61
303.669
303.723
303.768
303.801
303.818
303.818
303.801
303.768
303.723
303.669
303.61
303.549
303.49
303.435
303.396
351.293
351.916
352.704
353.554
354.42
355.26
356.027
356.668
357.131
357.375
357.375
357.131
356.668
356.027
355.26
354.42
353.554
352.704
351.916
351.293
344.469
344.997
345.677
346.412
347.162
347.889
348.552
349.107
349.507
349.718
349.718
349.507
349.107
348.552
347.889
347.162
346.412
345.677
344.997
344.469
337.64
338.078
338.651
339.273
339.906
340.521
341.081
341.549
341.888
342.066
342.066
341.888
341.549
341.081
340.521
339.906
339.273
338.651
338.078
337.64
330.807
331.159
331.627
332.135
332.653
333.155
333.613
333.996
334.272
334.418
334.418
334.272
333.996
333.613
333.155
332.653
332.135
331.627
331.159
330.807
323.971
324.241
324.604
324.999
325.402
325.792
326.148
326.445
326.66
326.773
326.773
326.66
326.445
326.148
325.792
325.402
324.999
324.604
324.241
323.971
317.132
317.324
317.582
317.864
318.152
318.431
318.685
318.897
319.05
319.131
319.131
319.05
318.897
318.685
318.431
318.152
317.864
317.582
317.324
317.132
310.292
310.406
310.561
310.73
310.903
311.07
311.223
311.35
311.442
311.491
311.491
311.442
311.35
311.223
311.07
310.903
310.73
310.561
310.406
310.292
303.45
303.488
303.54
303.597
303.655
303.711
303.762
303.805
303.835
303.852
303.852
303.835
303.805
303.762
303.711
303.655
303.597
303.54
303.488
303.45
352.274
352.87
353.621
354.428
355.246
356.036
356.755
357.354
357.786
358.013
358.013
357.786
357.354
356.755
356.036
355.246
354.428
353.621
352.87
352.274
345.318
345.822
346.47
347.169
347.877
348.561
349.183
349.702
350.075
350.271
350.271
350.075
349.702
349.183
348.561
347.877
347.169
346.47
345.822
345.318
338.357
338.776
339.322
339.912
340.511
341.09
341.615
342.053
342.369
342.534
342.534
342.369
342.053
341.615
341.09
340.511
339.912
339.322
338.776
338.357
331.393
331.73
332.175
332.658
333.148
333.621
334.05
334.408
334.666
334.801
334.801
334.666
334.408
334.05
333.621
333.148
332.658
332.175
331.73
331.393
324.426
324.685
325.03
325.405
325.786
326.154
326.488
326.766
326.966
327.071
327.071
326.966
326.766
326.488
326.154
325.786
325.405
325.03
324.685
324.426
317.457
317.64
317.887
318.154
318.426
318.689
318.928
319.126
319.269
319.344
319.344
319.269
319.126
318.928
318.689
318.426
318.154
317.887
317.64
317.457
310.487
310.596
310.744
310.905
311.068
311.226
311.369
311.488
311.574
311.619
311.619
311.574
311.488
311.369
311.226
311.068
310.905
310.744
310.596
310.487
303.515
303.552
303.601
303.655
303.71
303.763
303.811
303.851
303.88
303.895
303.895
303.88
303.851
303.811
303.763
303.71
303.655
303.601
303.552
303.515
353.427
353.993
354.705
355.465
356.232
356.97
357.639
358.194
358.593
358.802
358.802
358.593
358.194
357.639
356.97
356.232
355.465
354.705
353.993
353.427
346.316
346.795
347.409
348.067
348.731
349.371
349.949
350.429
350.775
350.955
350.955
350.775
350.429
349.949
349.371
348.731
348.067
347.409
346.795
346.316
339.201
339.598
340.115
340.672
341.234
341.774
342.263
342.669
342.961
343.113
343.113
342.961
342.669
342.263
341.774
341.234
340.672
340.115
339.598
339.201
332.083
332.402
332.824
333.279
333.739
334.18
334.58
334.912
335.15
335.275
335.275
335.15
334.912
334.58
334.18
333.739
333.279
332.824
332.402
332.083
324.962
325.208
325.535
325.888
326.246
326.589
326.9
327.158
327.343
327.44
327.44
327.343
327.158
326.9
326.589
326.246
325.888
325.535
325.208
324.962
317.84
318.014
318.247
318.499
318.755
319
319.222
319.406
319.539
319.608
319.608
319.539
319.406
319.222
319
318.755
318.499
318.247
318.014
317.84
310.717
310.82
310.96
311.112
311.265
311.412
311.546
311.656
311.736
311.777
311.777
311.736
311.656
311.546
311.412
311.265
311.112
310.96
310.82
310.717
303.592
303.627
303.674
303.725
303.776
303.825
303.87
303.907
303.934
303.948
303.948
303.934
303.907
303.87
303.825
303.776
303.725
303.674
303.627
303.592
354.757
355.291
355.961
356.672
357.387
358.072
358.689
359.199
359.565
359.756
359.756
359.565
359.199
358.689
358.072
357.387
356.672
355.961
355.291
354.757
347.466
347.919
348.496
349.112
349.732
350.324
350.859
351.3
351.617
351.782
351.782
351.617
351.3
350.859
350.324
349.732
349.112
348.496
347.919
347.466
340.173
340.548
341.035
341.556
342.079
342.581
343.032
343.406
343.673
343.813
343.813
343.673
343.406
343.032
342.581
342.079
341.556
341.035
340.548
340.173
332.877
333.179
333.576
334.002
334.43
334.84
335.21
335.515
335.733
335.848
335.848
335.733
335.515
335.21
334.84
334.43
334.002
333.576
333.179
332.877
325.58
325.812
326.119
326.45
326.784
327.102
327.39
327.627
327.797
327.886
327.886
327.797
327.627
327.39
327.102
326.784
326.45
326.119
325.812
325.58
318.281
318.445
318.664
318.901
319.139
319.367
319.572
319.741
319.863
319.926
319.926
319.863
319.741
319.572
319.367
319.139
318.901
318.664
318.445
318.281
310.981
311.079
311.211
311.353
311.496
311.633
311.756
311.857
311.93
311.968
311.968
311.93
311.857
311.756
311.633
311.496
311.353
311.211
311.079
310.981
303.681
303.714
303.758
303.806
303.853
303.899
303.941
303.975
303.999
304.012
304.012
303.999
303.975
303.941
303.899
303.853
303.806
303.758
303.714
303.681
356.265
356.768
357.394
358.057
358.719
359.349
359.915
360.381
360.714
360.888
360.888
360.714
360.381
359.915
359.349
358.719
358.057
357.394
356.768
356.265
348.772
349.197
349.737
350.311
350.884
351.431
351.921
352.324
352.612
352.763
352.763
352.612
352.324
351.921
351.431
350.884
350.311
349.737
349.197
348.772
341.276
341.628
342.084
342.569
343.054
343.516
343.931
344.272
344.515
344.643
344.643
344.515
344.272
343.931
343.516
343.054
342.569
342.084
341.628
341.276
333.779
334.062
334.434
334.83
335.227
335.605
335.944
336.223
336.422
336.526
336.526
336.422
336.223
335.944
335.605
335.227
334.83
334.434
334.062
333.779
326.28
326.498
326.786
327.095
327.403
327.697
327.961
328.178
328.333
328.413
328.413
328.333
328.178
327.961
327.697
327.403
327.095
326.786
326.498
326.28
318.781
318.936
319.141
319.361
319.582
319.792
319.98
320.135
320.246
320.303
320.303
320.246
320.135
319.98
319.792
319.582
319.361
319.141
318.936
318.781
311.282
311.374
311.497
311.629
311.762
311.888
312.001
312.094
312.16
312.195
312.195
312.16
312.094
312.001
311.888
311.762
311.629
311.497
311.374
311.282
303.782
303.813
303.854
303.898
303.943
303.985
304.023
304.054
304.076
304.088
304.088
304.076
304.054
304.023
303.985
303.943
303.898
303.854
303.813
303.782
357.956
358.426
359.009
359.623
360.233
360.81
361.326
361.75
362.051
362.208
362.208
362.051
361.75
361.326
360.81
360.233
359.623
359.009
358.426
357.956
350.235
350.632
351.135
351.667
352.195
352.696
353.143
353.509
353.771
353.906
353.906
353.771
353.509
353.143
352.696
352.195
351.667
351.135
350.632
350.235
342.512
342.842
343.266
343.715
344.163
344.586
344.964
345.274
345.495
345.61
345.61
345.495
345.274
344.964
344.586
344.163
343.715
343.266
342.842
342.512
334.789
335.055
335.4
335.768
336.134
336.48
336.79
337.043
337.224
337.318
337.318
337.224
337.043
336.79
336.48
336.134
335.768
335.4
335.055
334.789
327.066
327.27
327.538
327.824
328.108
328.378
328.618
328.815
328.956
329.029
329.029
328.956
328.815
328.618
328.378
328.108
327.824
327.538
327.27
327.066
319.342
319.486
319.678
319.882
320.085
320.278
320.45
320.59
320.691
320.743
320.743
320.691
320.59
320.45
320.278
320.085
319.882
319.678
319.486
319.342
311.619
311.705
311.819
311.942
312.064
312.18
312.283
312.367
312.428
312.459
312.459
312.428
312.367
312.283
312.18
312.064
311.942
311.819
311.705
311.619
303.895
303.923
303.962
304.003
304.044
304.083
304.117
304.146
304.166
304.176
304.176
304.166
304.146
304.117
304.083
304.044
304.003
303.962
303.923
303.895
359.832
360.269
360.81
361.376
361.935
362.462
362.931
363.313
363.585
363.726
363.726
363.585
363.313
362.931
362.462
361.935
361.376
360.81
360.269
359.832
351.858
352.228
352.694
353.184
353.669
354.126
354.532
354.863
355.099
355.221
355.221
355.099
354.863
354.532
354.126
353.669
353.184
352.694
352.228
351.858
343.884
344.191
344.584
344.998
345.409
345.795
346.139
346.419
346.618
346.721
346.721
346.618
346.419
346.139
345.795
345.409
344.998
344.584
344.191
343.884
335.911
336.158
336.478
336.817
337.153
337.469
337.75
337.979
338.142
338.227
338.227
338.142
337.979
337.75
337.469
337.153
336.817
336.478
336.158
335.911
327.937
328.127
328.376
328.639
328.9
329.146
329.365
329.543
329.67
329.736
329.736
329.67
329.543
329.365
329.146
328.9
328.639
328.376
328.127
327.937
319.965
320.099
320.276
320.464
320.651
320.827
320.983
321.11
321.201
321.248
321.248
321.201
321.11
320.983
320.827
320.651
320.464
320.276
320.099
319.965
311.992
312.072
312.179
312.292
312.404
312.509
312.603
312.68
312.734
312.762
312.762
312.734
312.68
312.603
312.509
312.404
312.292
312.179
312.072
311.992
304.02
304.047
304.082
304.12
304.158
304.193
304.225
304.25
304.268
304.278
304.278
304.268
304.25
304.225
304.193
304.158
304.12
304.082
304.047
304.02
361.894
362.3
362.799
363.319
363.83
364.309
364.733
365.077
365.321
365.448
365.448
365.321
365.077
364.733
364.309
363.83
363.319
362.799
362.3
361.894
353.643
353.986
354.417
354.867
355.31
355.725
356.092
356.391
356.602
356.712
356.712
356.602
356.391
356.092
355.725
355.31
354.867
354.417
353.986
353.643
345.393
345.677
346.04
346.421
346.796
347.147
347.458
347.71
347.889
347.982
347.982
347.889
347.71
347.458
347.147
346.796
346.421
346.04
345.677
345.393
337.144
337.373
337.669
337.98
338.287
338.574
338.829
339.035
339.181
339.257
339.257
339.181
339.035
338.829
338.574
338.287
337.98
337.669
337.373
337.144
328.896
329.072
329.301
329.544
329.782
330.006
330.204
330.364
330.478
330.537
330.537
330.478
330.364
330.204
330.006
329.782
329.544
329.301
329.072
328.896
320.649
320.774
320.937
321.11
321.281
321.441
321.582
321.697
321.778
321.82
321.82
321.778
321.697
321.582
321.441
321.281
321.11
320.937
320.774
320.649
312.403
312.477
312.576
312.68
312.782
312.878
312.963
313.032
313.081
313.106
313.106
313.081
313.032
312.963
312.878
312.782
312.68
312.576
312.477
312.403
304.158
304.182
304.215
304.25
304.285
304.317
304.345
304.368
304.385
304.393
304.393
304.385
304.368
304.345
304.317
304.285
304.25
304.215
304.182
304.158
364.145
364.52
364.979
365.455
365.921
366.355
366.737
367.046
367.264
367.377
367.377
367.264
367.046
366.737
366.355
365.921
365.455
364.979
364.52
364.145
355.59
355.908
356.304
356.716
357.12
357.496
357.827
358.095
358.284
358.382
358.382
358.284
358.095
357.827
357.496
357.12
356.716
356.304
355.908
355.59
347.038
347.301
347.635
347.984
348.326
348.644
348.924
349.151
349.311
349.394
349.394
349.311
349.151
348.924
348.644
348.326
347.984
347.635
347.301
347.038
338.488
338.7
338.973
339.258
339.537
339.798
340.027
340.213
340.344
340.412
340.412
340.344
340.213
340.027
339.798
339.537
339.258
338.973
338.7
338.488
329.941
330.104
330.315
330.537
330.754
330.957
331.136
331.28
331.382
331.435
331.435
331.382
331.28
331.136
330.957
330.754
330.537
330.315
330.104
329.941
321.396
321.511
321.661
321.82
321.975
322.12
322.248
322.351
322.424
322.461
322.461
322.424
322.351
322.248
322.12
321.975
321.82
321.661
321.511
321.396
312.851
312.92
313.01
313.106
313.199
313.286
313.363
313.425
313.468
313.491
313.491
313.468
313.425
313.363
313.286
313.199
313.106
313.01
312.92
312.851
304.308
304.331
304.361
304.393
304.424
304.453
304.479
304.5
304.515
304.522
304.522
304.515
304.5
304.479
304.453
304.424
304.393
304.361
304.331
304.308
366.58
366.927
367.348
367.783
368.206
368.598
368.941
369.218
369.413
369.514
369.514
369.413
369.218
368.941
368.598
368.206
367.783
367.348
366.927
366.58
357.697
357.99
358.353
358.73
359.097
359.437
359.735
359.975
360.144
360.231
360.231
360.144
359.975
359.735
359.437
359.097
358.73
358.353
357.99
357.697
348.818
349.061
349.367
349.686
349.996
350.284
350.536
350.74
350.883
350.956
350.956
350.883
350.74
350.536
350.284
349.996
349.686
349.367
349.061
348.818
339.943
340.138
340.388
340.649
340.903
341.139
341.345
341.511
341.628
341.689
341.689
341.628
341.511
341.345
341.139
340.903
340.649
340.388
340.138
339.943
331.071
331.221
331.415
331.618
331.816
331.999
332.16
332.289
332.38
332.427
332.427
332.38
332.289
332.16
331.999
331.816
331.618
331.415
331.221
331.071
322.203
322.309
322.447
322.592
322.733
322.864
322.979
323.071
323.137
323.17
323.17
323.137
323.071
322.979
322.864
322.733
322.592
322.447
322.309
322.203
313.336
313.399
313.482
313.569
313.654
313.733
313.802
313.857
313.896
313.916
313.916
313.896
313.857
313.802
313.733
313.654
313.569
313.482
313.399
313.336
304.47
304.491
304.519
304.548
304.577
304.603
304.626
304.645
304.658
304.665
304.665
304.658
304.645
304.626
304.603
304.577
304.548
304.519
304.491
304.47
369.191
369.51
369.896
370.293
370.676
371.03
371.338
371.586
371.76
371.85
371.85
371.76
371.586
371.338
371.03
370.676
370.293
369.896
369.51
369.191
359.954
360.223
360.557
360.9
361.233
361.54
361.807
362.022
362.173
362.251
362.251
362.173
362.022
361.807
361.54
361.233
360.9
360.557
360.223
359.954
350.723
350.947
351.228
351.518
351.8
352.06
352.286
352.468
352.596
352.662
352.662
352.596
352.468
352.286
352.06
351.8
351.518
351.228
350.947
350.723
341.499
341.679
341.908
342.146
342.376
342.589
342.774
342.923
343.028
343.082
343.082
343.028
342.923
342.774
342.589
342.376
342.146
341.908
341.679
341.499
332.28
332.418
332.596
332.781
332.96
333.126
333.27
333.386
333.467
333.509
333.509
333.467
333.386
333.27
333.126
332.96
332.781
332.596
332.418
332.28
323.065
323.163
323.29
323.422
323.55
323.668
323.771
323.854
323.912
323.942
323.942
323.912
323.854
323.771
323.668
323.55
323.422
323.29
323.163
323.065
313.853
313.912
313.988
314.067
314.144
314.215
314.277
314.327
314.362
314.38
314.38
314.362
314.327
314.277
314.215
314.144
314.067
313.988
313.912
313.853
304.644
304.663
304.689
304.715
304.741
304.765
304.786
304.802
304.814
304.82
304.82
304.814
304.802
304.786
304.765
304.741
304.715
304.689
304.663
304.644
371.95
372.243
372.597
372.958
373.306
373.625
373.902
374.124
374.279
374.359
374.359
374.279
374.124
373.902
373.625
373.306
372.958
372.597
372.243
371.95
362.335
362.582
362.888
363.2
363.502
363.779
364.019
364.212
364.346
364.416
364.416
364.346
364.212
364.019
363.779
363.502
363.2
362.888
362.582
362.335
352.73
352.935
353.193
353.457
353.713
353.947
354.151
354.314
354.428
354.487
354.487
354.428
354.314
354.151
353.947
353.713
353.457
353.193
352.935
352.73
343.135
343.301
343.511
343.727
343.936
344.128
344.295
344.429
344.522
344.57
344.57
344.522
344.429
344.295
344.128
343.936
343.727
343.511
343.301
343.135
333.549
333.676
333.839
334.008
334.17
334.32
334.45
334.554
334.626
334.664
334.664
334.626
334.554
334.45
334.32
334.17
334.008
333.839
333.676
333.549
323.97
324.06
324.176
324.297
324.413
324.52
324.613
324.687
324.739
324.766
324.766
324.739
324.687
324.613
324.52
324.413
324.297
324.176
324.06
323.97
314.396
314.45
314.52
314.592
314.662
314.726
314.782
314.826
314.858
314.874
314.874
314.858
314.826
314.782
314.726
314.662
314.592
314.52
314.45
314.396
304.826
304.843
304.867
304.891
304.914
304.936
304.955
304.97
304.98
304.985
304.985
304.98
304.97
304.955
304.936
304.914
304.891
304.867
304.843
304.826
374.787
375.056
375.38
375.709
376.025
376.314
376.563
376.762
376.901
376.973
376.973
376.901
376.762
376.563
376.314
376.025
375.709
375.38
375.056
374.787
364.771
364.998
365.278
365.564
365.838
366.088
366.305
366.478
366.599
366.661
366.661
366.599
366.478
366.305
366.088
365.838
365.564
365.278
364.998
364.771
354.775
354.964
355.2
355.442
355.674
355.886
356.07
356.216
356.318
356.371
356.371
356.318
356.216
356.07
355.886
355.674
355.442
355.2
354.964
354.775
344.797
344.949
345.142
345.34
345.53
345.704
345.854
345.974
346.058
346.101
346.101
346.058
345.974
345.854
345.704
345.53
345.34
345.142
344.949
344.797
334.835
334.951
335.101
335.255
335.403
335.538
335.655
335.749
335.814
335.848
335.848
335.814
335.749
335.655
335.538
335.403
335.255
335.101
334.951
334.835
324.885
324.967
325.074
325.184
325.29
325.387
325.471
325.537
325.584
325.608
325.608
325.584
325.537
325.471
325.387
325.29
325.184
325.074
324.967
324.885
314.944
314.993
315.057
315.123
315.187
315.245
315.296
315.336
315.364
315.378
315.378
315.364
315.336
315.296
315.245
315.187
315.123
315.057
314.993
314.944
305.009
305.025
305.047
305.069
305.09
305.11
305.127
305.14
305.149
305.154
305.154
305.149
305.14
305.127
305.11
305.09
305.069
305.047
305.025
305.009
377.518
377.767
378.066
378.368
378.657
378.92
379.146
379.327
379.452
379.517
379.517
379.452
379.327
379.146
378.92
378.657
378.368
378.066
377.767
377.518
367.088
367.299
367.557
367.82
368.071
368.3
368.497
368.653
368.762
368.818
368.818
368.762
368.653
368.497
368.3
368.071
367.82
367.557
367.299
367.088
356.699
356.874
357.092
357.315
357.528
357.722
357.889
358.022
358.114
358.162
358.162
358.114
358.022
357.889
357.722
357.528
357.315
357.092
356.874
356.699
346.346
346.487
346.665
346.848
347.022
347.181
347.318
347.428
347.504
347.543
347.543
347.504
347.428
347.318
347.181
347.022
346.848
346.665
346.487
346.346
336.024
336.132
336.271
336.413
336.549
336.673
336.78
336.865
336.924
336.954
336.954
336.924
336.865
336.78
336.673
336.549
336.413
336.271
336.132
336.024
325.726
325.803
325.902
326.003
326.1
326.189
326.266
326.327
326.369
326.391
326.391
326.369
326.327
326.266
326.189
326.1
326.003
325.902
325.803
325.726
315.446
315.492
315.551
315.612
315.671
315.724
315.77
315.806
315.832
315.845
315.845
315.832
315.806
315.77
315.724
315.671
315.612
315.551
315.492
315.446
305.176
305.192
305.212
305.232
305.252
305.27
305.285
305.297
305.306
305.31
305.31
305.306
305.297
305.285
305.27
305.252
305.232
305.212
305.192
305.176
379.663
379.897
380.178
380.462
380.732
380.977
381.188
381.355
381.472
381.531
381.531
381.472
381.355
381.188
380.977
380.732
380.462
380.178
379.897
379.663
368.838
369.037
369.281
369.528
369.764
369.978
370.162
370.308
370.409
370.461
370.461
370.409
370.308
370.162
369.978
369.764
369.528
369.281
369.037
368.838
358.108
358.273
358.479
358.689
358.89
359.072
359.228
359.353
359.439
359.483
359.483
359.439
359.353
359.228
359.072
358.89
358.689
358.479
358.273
358.108
347.452
347.586
347.755
347.927
348.092
348.241
348.37
348.472
348.543
348.58
348.58
348.543
348.472
348.37
348.241
348.092
347.927
347.755
347.586
347.452
336.857
336.96
337.091
337.226
337.354
337.471
337.571
337.651
337.707
337.735
337.735
337.707
337.651
337.571
337.471
337.354
337.226
337.091
336.96
336.857
326.307
326.38
326.474
326.57
326.662
326.746
326.818
326.875
326.915
326.935
326.935
326.915
326.875
326.818
326.746
326.662
326.57
326.474
326.38
326.307
315.79
315.833
315.889
315.947
316.003
316.053
316.096
316.131
316.155
316.167
316.167
316.155
316.131
316.096
316.053
316.003
315.947
315.889
315.833
315.79
305.291
305.305
305.324
305.344
305.362
305.379
305.394
305.405
305.413
305.417
305.417
305.413
305.405
305.394
305.379
305.362
305.344
305.324
305.305
305.291
)
;

boundaryField
{
    hotSide
    {
        type            fixedGradient;
        gradient        nonuniform List<scalar> 
400
(
519.126
520.86
524.337
529.569
536.579
545.392
556.038
568.55
582.96
599.303
617.612
637.916
660.245
684.623
711.072
739.612
770.258
803.023
837.918
874.949
528.343
530.004
533.337
538.361
545.104
553.6
563.888
576.011
590.012
605.933
623.816
643.698
665.613
689.591
715.657
743.834
774.139
806.585
841.182
877.939
538.317
539.892
543.054
547.83
554.257
562.38
572.249
583.921
597.449
612.888
630.287
649.694
671.147
694.683
720.331
748.113
778.05
810.154
844.437
880.905
548.885
550.358
553.322
557.81
563.873
571.567
580.96
592.12
605.117
620.018
636.884
655.769
676.722
699.783
724.983
752.349
781.899
813.649
847.607
883.778
559.749
561.108
563.849
568.017
573.673
580.893
589.76
600.362
612.784
627.106
643.403
661.738
682.167
704.734
729.474
756.414
785.575
816.968
850.603
886.481
570.458
571.695
574.198
578.023
583.248
589.967
598.285
608.305
620.133
633.864
649.583
667.364
687.27
709.348
733.636
760.163
788.946
819.998
853.325
888.927
580.398
581.512
583.778
587.263
592.062
598.289
606.067
615.524
626.778
639.942
655.112
672.372
691.788
713.413
737.285
763.433
791.874
822.618
855.669
891.024
588.834
589.839
591.89
595.069
599.487
605.275
612.577
621.536
632.289
644.961
659.657
676.47
695.469
716.71
740.233
766.064
794.221
824.71
857.534
892.688
595.008
595.928
597.816
600.762
604.889
610.345
617.287
625.872
636.25
648.555
662.901
679.384
698.077
719.039
742.308
767.911
795.863
826.171
858.833
893.843
598.279
599.153
600.952
603.771
607.741
613.017
619.764
628.148
638.325
650.433
664.592
680.9
699.432
720.246
743.381
768.864
796.71
826.922
859.499
894.436
598.279
599.153
600.952
603.771
607.741
613.017
619.764
628.148
638.325
650.433
664.592
680.9
699.432
720.246
743.381
768.864
796.71
826.922
859.499
894.436
595.008
595.928
597.816
600.762
604.889
610.345
617.287
625.872
636.25
648.555
662.901
679.384
698.077
719.039
742.308
767.911
795.863
826.171
858.833
893.843
588.834
589.839
591.89
595.069
599.487
605.275
612.577
621.536
632.289
644.961
659.657
676.47
695.469
716.71
740.233
766.064
794.221
824.71
857.534
892.688
580.398
581.512
583.778
587.263
592.062
598.289
606.067
615.524
626.778
639.942
655.112
672.372
691.788
713.413
737.285
763.433
791.874
822.618
855.669
891.024
570.458
571.695
574.198
578.023
583.248
589.967
598.285
608.305
620.133
633.864
649.583
667.364
687.27
709.348
733.636
760.163
788.946
819.998
853.325
888.927
559.749
561.108
563.849
568.017
573.673
580.893
589.76
600.362
612.784
627.106
643.403
661.738
682.167
704.734
729.474
756.414
785.575
816.968
850.603
886.481
548.885
550.358
553.322
557.81
563.873
571.567
580.96
592.12
605.117
620.018
636.884
655.769
676.722
699.783
724.983
752.349
781.899
813.649
847.607
883.778
538.317
539.892
543.054
547.83
554.257
562.38
572.249
583.921
597.449
612.888
630.287
649.694
671.147
694.683
720.331
748.113
778.05
810.154
844.437
880.905
528.343
530.004
533.337
538.361
545.104
553.6
563.888
576.011
590.012
605.933
623.816
643.698
665.613
689.591
715.657
743.834
774.139
806.585
841.182
877.939
519.126
520.86
524.337
529.569
536.579
545.392
556.038
568.55
582.96
599.303
617.612
637.916
660.245
684.623
711.072
739.612
770.258
803.023
837.918
874.949
)
;
    }
    coldSide
    {
        type            mixed;
        refValue        uniform 300;
        refGradient     uniform 0;
        valueFraction   uniform 0.991591;
        source          uniform 0;
        value           nonuniform List<scalar> 
400
(
300.028
300.028
300.028
300.028
300.029
300.029
300.03
300.03
300.031
300.032
300.033
300.034
300.035
300.036
300.038
300.039
300.041
300.042
300.044
300.044
300.028
300.028
300.028
300.029
300.029
300.029
300.03
300.031
300.031
300.032
300.033
300.034
300.035
300.036
300.038
300.039
300.041
300.042
300.044
300.045
300.029
300.029
300.029