/*--------------------------------*- C++ -*----------------------------------*\
| =========                 |                                                 |
| \\      /  F ield         | OpenFOAM: The Open Source CFD Toolbox           |
|  \\    /   O peration     | Version:  2212                                  |
|   \\  /    A nd           | Website:  www.openfoam.com                      |
|    \\/     M anipulation  |                                                 |
\*---------------------------------------------------------------------------*/
FoamFile
{
    version     2.0;
    format      ascii;
    arch        "LSB;label=32;scalar=64";
    class       volScalarField;
    location    "0";
    object      Ttrue;
}
// * * * * * * * * * * * * * * * * * * * * * * * * * * * * * * * * * * * * * //

dimensions      [0 0 0 1 0 0 0];

internalField   nonuniform List<scalar> 
3200
(
316.868
317.059
317.303
317.568
317.842
318.11
318.358
318.567
318.72
318.8
318.8
318.72
318.567
318.358
318.11
317.842
317.568
317.303
317.059
316.868
314.662
314.823
315.034
315.263
315.5
315.732
315.947
316.128
316.259
316.329
316.329
316.259
316.128
315.947
315.732
315.5
315.263
315.034
314.823
314.662
312.439
312.573
312.75
312.944
313.144
313.34
313.521
313.674
313.785
313.844
313.844
313.785
313.674
313.521
313.34
313.144
312.944
312.75
312.573
312.439
310.2
310.308
310.453
310.611
310.775
310.935
311.083
311.208
311.298
311.346
311.346
311.298
311.208
311.083
310.935
310.775
310.611
310.453
310.308
310.2
307.95
308.032
308.144
308.268
308.395
308.519
308.634
308.731
308.801
308.839
308.839
308.801
308.731
308.634
308.519
308.395
308.268
308.144
308.032
307.95
305.688
305.747
305.827
305.915
306.006
306.095
306.177
306.246
306.296
306.322
306.322
306.296
306.246
306.177
306.095
306.006
305.915
305.827
305.747
305.688
303.42
303.455
303.503
303.556
303.61
303.664
303.713
303.754
303.784
303.8
303.8
303.784
303.754
303.713
303.664
303.61
303.556
303.503
303.455
303.42
301.147
301.159
301.175
301.192
301.211
301.229
301.245
301.259
301.269
301.274
301.274
301.269
301.259
301.245
301.229
301.211
301.192
301.175
301.159
301.147
316.928
317.118
317.359
317.623
317.893
318.159
318.404
318.611
318.761
318.84
318.84
318.761
318.611
318.404
318.159
317.893
317.623
317.359
317.118
316.928
314.714
314.875
315.083
315.311
315.545
315.775
315.987
316.165
316.295
316.364
316.364
316.295
316.165
315.987
315.775
315.545
315.311
315.083
314.875
314.714
312.483
312.616
312.792
312.984
313.182
313.376
313.555
313.706
313.815
313.873
313.873
313.815
313.706
313.555
313.376
313.182
312.984
312.792
312.616
312.483
310.237
310.344
310.487
310.644
310.806
310.965
311.111
311.234
311.323
311.371
311.371
311.323
311.234
311.111
310.965
310.806
310.644
310.487
310.344
310.237
307.978
308.06
308.171
308.293
308.419
308.542
308.656
308.751
308.821
308.858
308.858
308.821
308.751
308.656
308.542
308.419
308.293
308.171
308.06
307.978
305.709
305.767
305.846
305.933
306.023
306.111
306.192
306.26
306.31
306.336
306.336
306.31
306.26
306.192
306.111
306.023
305.933
305.846
305.767
305.709
303.432
303.467
303.514
303.567
303.621
303.674
303.722
303.763
303.793
303.809
303.809
303.793
303.763
303.722
303.674
303.621
303.567
303.514
303.467
303.432
301.151
301.163
301.179
301.196
301.214
301.232
301.248
301.262
301.272
301.277
301.277
301.272
301.262
301.248
301.232
301.214
301.196
301.179
301.163
301.151
317.049
317.236
317.473
317.732
317.997
318.257
318.496
318.698
318.844
318.922
318.922
318.844
318.698
318.496
318.257
317.997
317.732
317.473
317.236
317.049
314.819
314.977
315.182
315.405
315.635
315.86
316.067
316.241
316.368
316.434
316.434
316.368
316.241
316.067
315.86
315.635
315.405
315.182
314.977
314.819
312.572
312.703
312.876
313.064
313.259
313.449
313.623
313.77
313.877
313.934
313.934
313.877
313.77
313.623
313.449
313.259
313.064
312.876
312.703
312.572
310.31
310.415
310.556
310.71
310.869
311.024
311.167
311.287
311.374
311.42
311.42
311.374
311.287
311.167
311.024
310.869
310.71
310.556
310.415
310.31
308.035
308.116
308.225
308.345
308.468
308.589
308.7
308.793
308.861
308.896
308.896
308.861
308.793
308.7
308.589
308.468
308.345
308.225
308.116
308.035
305.749
305.807
305.885
305.97
306.058
306.144
306.224
306.29
306.338
306.364
306.364
306.338
306.29
306.224
306.144
306.058
305.97
305.885
305.807
305.749
303.457
303.491
303.537
303.589
303.642
303.693
303.741
303.781
303.81
303.825
303.825
303.81
303.781
303.741
303.693
303.642
303.589
303.537
303.491
303.457
301.159
301.171
301.186
301.203
301.221
301.239
301.254
301.268
301.278
301.283
301.283
301.278
301.268
301.254
301.239
301.221
301.203
301.186
301.171
301.159
317.231
317.413
317.645
317.896
318.154
318.405
318.636
318.831
318.972
319.046
319.046
318.972
318.831
318.636
318.405
318.154
317.896
317.645
317.413
317.231
314.977
315.131
315.331
315.549
315.771
315.989
316.189
316.357
316.479
316.543
316.543
316.479
316.357
316.189
315.989
315.771
315.549
315.331
315.131
314.977
312.706
312.834
313.002
313.186
313.374
313.558
313.727
313.869
313.972
314.026
314.026
313.972
313.869
313.727
313.558
313.374
313.186
313.002
312.834
312.706
310.42
310.523
310.66
310.81
310.964
311.114
311.252
311.368
311.452
311.496
311.496
311.452
311.368
311.252
311.114
310.964
310.81
310.66
310.523
310.42
308.12
308.199
308.306
308.422
308.542
308.659
308.766
308.856
308.921
308.956
308.956
308.921
308.856
308.766
308.659
308.542
308.422
308.306
308.199
308.12
305.811
305.867
305.942
306.026
306.111
306.195
306.271
306.335
306.382
306.406
306.406
306.382
306.335
306.271
306.195
306.111
306.026
305.942
305.867
305.811
303.493
303.527
303.572
303.622
303.674
303.724
303.77
303.808
303.836
303.851
303.851
303.836
303.808
303.77
303.724
303.674
303.622
303.572
303.527
303.493
301.172
301.183
301.198
301.215
301.232
301.249
301.264
301.277
301.286
301.291
301.291
301.286
301.277
301.264
301.249
301.232
301.215
301.198
301.183
301.172
317.475
317.651
317.875
318.118
318.365
318.606
318.827
319.012
319.147
319.217
319.217
319.147
319.012
318.827
318.606
318.365
318.118
317.875
317.651
317.475
315.189
315.338
315.531
315.741
315.955
316.164
316.355
316.515
316.631
316.692
316.692
316.631
316.515
316.355
316.164
315.955
315.741
315.531
315.338
315.189
312.885
313.009
313.172
313.349
313.53
313.707
313.868
314.003
314.101
314.153
314.153
314.101
314.003
313.868
313.707
313.53
313.349
313.172
313.009
312.885
310.567
310.666
310.799
310.944
311.092
311.236
311.368
311.478
311.558
311.6
311.6
311.558
311.478
311.368
311.236
311.092
310.944
310.799
310.666
310.567
308.235
308.311
308.414
308.527
308.642
308.754
308.856
308.942
309.004
309.037
309.037
309.004
308.942
308.856
308.754
308.642
308.527
308.414
308.311
308.235
305.892
305.947
306.02
306.1
306.183
306.263
306.336
306.397
306.441
306.465
306.465
306.441
306.397
306.336
306.263
306.183
306.1
306.02
305.947
305.892
303.543
303.575
303.619
303.667
303.717
303.765
303.809
303.845
303.872
303.886
303.886
303.872
303.845
303.809
303.765
303.717
303.667
303.619
303.575
303.543
301.188
301.199
301.214
301.23
301.246
301.262
301.277
301.289
301.298
301.303
301.303
301.298
301.289
301.277
301.262
301.246
301.23
301.214
301.199
301.188
317.781
317.951
318.166
318.397
318.633
318.862
319.071
319.246
319.372
319.439
319.439
319.372
319.246
319.071
318.862
318.633
318.397
318.166
317.951
317.781
315.454
315.598
315.784
315.984
316.188
316.386
316.567
316.718
316.828
316.885
316.885
316.828
316.718
316.567
316.386
316.188
315.984
315.784
315.598
315.454
313.111
313.23
313.386
313.555
313.728
313.896
314.048
314.176
314.268
314.317
314.317
314.268
314.176
314.048
313.896
313.728
313.555
313.386
313.23
313.111
310.751
310.847
310.974
311.113
311.254
311.391
311.516
311.62
311.696
311.735
311.735
311.696
311.62
311.516
311.391
311.254
311.113
310.974
310.847
310.751
308.378
308.452
308.551
308.659
308.768
308.875
308.972
309.053
309.111
309.142
309.142
309.111
309.053
308.972
308.875
308.768
308.659
308.551
308.452
308.378
305.995
306.047
306.118
306.195
306.273
306.349
306.418
306.476
306.518
306.54
306.54
306.518
306.476
306.418
306.349
306.273
306.195
306.118
306.047
305.995
303.604
303.636
303.678
303.724
303.771
303.817
303.858
303.893
303.918
303.931
303.931
303.918
303.893
303.858
303.817
303.771
303.724
303.678
303.636
303.604
301.209
301.219
301.233
301.249
301.265
301.28
301.294
301.305
301.314
301.318
301.318
301.314
301.305
301.294
301.28
301.265
301.249
301.233
301.219
301.209
318.15
318.312
318.517
318.737
318.96
319.175
319.371
319.534
319.652
319.714
319.714
319.652
319.534
319.371
319.175
318.96
318.737
318.517
318.312
318.15
315.775
315.912
316.089
316.279
316.472
316.659
316.828
316.97
317.071
317.125
317.125
317.071
316.97
316.828
316.659
316.472
316.279
316.089
315.912
315.775
313.382
313.496
313.645
313.806
313.969
314.127
314.27
314.389
314.475
314.521
314.521
314.475
314.389
314.27
314.127
313.969
313.806
313.645
313.496
313.382
310.974
311.065
311.187
311.318
311.452
311.581
311.698
311.795
311.866
311.902
311.902
311.866
311.795
311.698
311.581
311.452
311.318
311.187
311.065
310.974
308.552
308.622
308.716
308.819
308.922
309.023
309.114
309.19
309.244
309.273
309.273
309.244
309.19
309.114
309.023
308.922
308.819
308.716
308.622
308.552
306.119
306.169
306.236
306.309
306.383
306.455
306.52
306.574
306.613
306.634
306.634
306.613
306.574
306.52
306.455
306.383
306.309
306.236
306.169
306.119
303.679
303.709
303.749
303.793
303.837
303.88
303.919
303.952
303.975
303.987
303.987
303.975
303.952
303.919
303.88
303.837
303.793
303.749
303.709
303.679
301.234
301.244
301.257
301.272
301.287
301.301
301.314
301.325
301.333
301.337
301.337
301.333
301.325
301.314
301.301
301.287
301.272
301.257
301.244
301.234
318.583
318.737
318.931
319.138
319.347
319.548
319.73
319.882
319.991
320.047
320.047
319.991
319.882
319.73
319.548
319.347
319.138
318.931
318.737
318.583
316.151
316.281
316.448
316.628
316.809
316.983
317.141
317.272
317.366
317.415
317.415
317.366
317.272
317.141
316.983
316.809
316.628
316.448
316.281
316.151
313.701
313.809
313.95
314.102
314.255
314.402
314.535
314.646
314.725
314.767
314.767
314.725
314.646
314.535
314.402
314.255
314.102
313.95
313.809
313.701
311.235
311.322
311.437
311.561
311.686
311.807
311.916
312.006
312.071
312.105
312.105
312.071
312.006
311.916
311.807
311.686
311.561
311.437
311.322
311.235
308.755
308.822
308.911
309.008
309.105
309.199
309.283
309.354
309.404
309.431
309.431
309.404
309.354
309.283
309.199
309.105
309.008
308.911
308.822
308.755
306.265
306.312
306.376
306.445
306.514
306.581
306.642
306.692
306.728
306.747
306.747
306.728
306.692
306.642
306.581
306.514
306.445
306.376
306.312
306.265
303.766
303.795
303.833
303.874
303.916
303.956
303.992
304.023
304.044
304.055
304.055
304.044
304.023
303.992
303.956
303.916
303.874
303.833
303.795
303.766
301.263
301.273
301.285
301.299
301.313
301.327
301.339
301.349
301.356
301.36
301.36
301.356
301.349
301.339
301.327
301.313
301.299
301.285
301.273
301.263
319.08
319.226
319.408
319.602
319.797
319.984
320.152
320.291
320.391
320.443
320.443
320.391
320.291
320.152
319.984
319.797
319.602
319.408
319.226
319.08
316.583
316.706
316.864
317.032
317.2
317.362
317.507
317.628
317.714
317.759
317.759
317.714
317.628
317.507
317.362
317.2
317.032
316.864
316.706
316.583
314.067
314.169
314.302
314.444
314.587
314.723
314.847
314.948
315.021
315.059
315.059
315.021
314.948
314.847
314.723
314.587
314.444
314.302
314.169
314.067
311.535
311.617
311.726
311.842
311.958
312.07
312.171
312.254
312.314
312.345
312.345
312.314
312.254
312.171
312.07
311.958
311.842
311.726
311.617
311.535
308.989
309.052
309.136
309.226
309.317
309.404
309.482
309.547
309.593
309.618
309.618
309.593
309.547
309.482
309.404
309.317
309.226
309.136
309.052
308.989
306.432
306.477
306.537
306.601
306.666
306.728
306.784
306.83
306.863
306.881
306.881
306.863
306.83
306.784
306.728
306.666
306.601
306.537
306.477
306.432
303.867
303.894
303.929
303.968
304.007
304.044
304.078
304.106
304.126
304.136
304.136
304.126
304.106
304.078
304.044
304.007
303.968
303.929
303.894
303.867
301.297
301.306
301.318
301.331
301.344
301.356
301.368
301.377
301.383
301.387
301.387
301.383
301.377
301.368
301.356
301.344
301.331
301.318
301.306
301.297
319.644
319.781
319.951
320.132
320.312
320.484
320.638
320.765
320.856
320.904
320.904
320.856
320.765
320.638
320.484
320.312
320.132
319.951
319.781
319.644
317.072
317.188
317.335
317.492
317.648
317.797
317.93
318.04
318.119
318.16
318.16
318.119
318.04
317.93
317.797
317.648
317.492
317.335
317.188
317.072
314.482
314.578
314.702
314.834
314.967
315.092
315.205
315.298
315.365
315.399
315.399
315.365
315.298
315.205
315.092
314.967
314.834
314.702
314.578
314.482
311.875
311.952
312.053
312.162
312.27
312.373
312.465
312.541
312.596
312.624
312.624
312.596
312.541
312.465
312.373
312.27
312.162
312.053
311.952
311.875
309.254
309.313
309.392
309.476
309.56
309.64
309.712
309.771
309.813
309.835
309.835
309.813
309.771
309.712
309.64
309.56
309.476
309.392
309.313
309.254
306.622
306.664
306.719
306.78
306.84
306.897
306.948
306.99
307.021
307.036
307.036
307.021
306.99
306.948
306.897
306.84
306.78
306.719
306.664
306.622
303.981
304.006
304.039
304.075
304.112
304.146
304.177
304.202
304.22
304.23
304.23
304.22
304.202
304.177
304.146
304.112
304.075
304.039
304.006
303.981
301.335
301.343
301.355
301.367
301.379
301.39
301.401
301.409
301.415
301.418
301.418
301.415
301.409
301.401
301.39
301.379
301.367
301.355
301.343
301.335
320.274
320.402
320.561
320.728
320.894
321.052
321.192
321.308
321.39
321.433
321.433
321.39
321.308
321.192
321.052
320.894
320.728
320.561
320.402
320.274
317.619
317.728
317.865
318.009
318.154
318.29
318.412
318.512
318.583
318.62
318.62
318.583
318.512
318.412
318.29
318.154
318.009
317.865
317.728
317.619
314.946
315.035
315.151
315.273
315.395
315.511
315.614
315.698
315.759
315.79
315.79
315.759
315.698
315.614
315.511
315.395
315.273
315.151
315.035
314.946
312.255
312.327
312.422
312.522
312.621
312.716
312.8
312.869
312.919
312.944
312.944
312.919
312.869
312.8
312.716
312.621
312.522
312.422
312.327
312.255
309.55
309.606
309.679
309.756
309.834
309.908
309.973
310.027
310.065
310.085
310.085
310.065
310.027
309.973
309.908
309.834
309.756
309.679
309.606
309.55
306.833
306.873
306.925
306.98
307.036
307.088
307.135
307.173
307.201
307.215
307.215
307.201
307.173
307.135
307.088
307.036
306.98
306.925
306.873
306.833
304.108
304.132
304.163
304.196
304.229
304.261
304.289
304.312
304.329
304.337
304.337
304.329
304.312
304.289
304.261
304.229
304.196
304.163
304.132
304.108
301.378
301.385
301.396
301.407
301.418
301.429
301.438
301.446
301.452
301.454
301.454
301.452
301.446
301.438
301.429
301.418
301.407
301.396
301.385
301.378
320.971
321.09
321.237
321.392
321.544
321.688
321.815
321.92
321.994
322.032
322.032
321.994
321.92
321.815
321.688
321.544
321.392
321.237
321.09
320.971
318.225
318.325
318.453
318.586
318.718
318.843
318.953
319.044
319.108
319.141
319.141
319.108
319.044
318.953
318.843
318.718
318.586
318.453
318.325
318.225
315.459
315.542
315.65
315.763
315.874
315.98
316.073
316.15
316.204
316.232
316.232
316.204
316.15
316.073
315.98
315.874
315.763
315.65
315.542
315.459
312.676
312.743
312.83
312.923
313.014
313.1
313.177
313.239
313.284
313.307
313.307
313.284
313.239
313.177
313.1
313.014
312.923
312.83
312.743
312.676
309.878
309.929
309.997
310.069
310.14
310.207
310.267
310.315
310.35
310.368
310.368
310.35
310.315
310.267
310.207
310.14
310.069
309.997
309.929
309.878
307.068
307.104
307.153
307.204
307.255
307.303
307.345
307.38
307.405
307.417
307.417
307.405
307.38
307.345
307.303
307.255
307.204
307.153
307.104
307.068
304.249
304.271
304.3
304.331
304.361
304.39
304.415
304.436
304.451
304.459
304.459
304.451
304.436
304.415
304.39
304.361
304.331
304.3
304.271
304.249
301.425
301.432
301.442
301.452
301.462
301.472
301.481
301.488
301.493
301.495
301.495
301.493
301.488
301.481
301.472
301.462
301.452
301.442
301.432
301.425
321.736
321.846
321.982
322.124
322.263
322.394
322.509
322.603
322.67
322.704
322.704
322.67
322.603
322.509
322.394
322.263
322.124
321.982
321.846
321.736
318.889
318.982
319.1
319.222
319.343
319.456
319.556
319.638
319.695
319.725
319.725
319.695
319.638
319.556
319.456
319.343
319.222
319.1
318.982
318.889
316.022
316.099
316.198
316.302
316.404
316.5
316.585
316.654
316.702
316.728
316.728
316.702
316.654
316.585
316.5
316.404
316.302
316.198
316.099
316.022
313.137
313.199
313.28
313.365
313.449
313.527
313.596
313.653
313.692
313.713
313.713
313.692
313.653
313.596
313.527
313.449
313.365
313.28
313.199
313.137
310.237
310.285
310.347
310.414
310.479
310.54
310.593
310.637
310.668
310.684
310.684
310.668
310.637
310.593
310.54
310.479
310.414
310.347
310.285
310.237
307.325
307.359
307.403
307.45
307.497
307.54
307.579
307.61
307.632
307.644
307.644
307.632
307.61
307.579
307.54
307.497
307.45
307.403
307.359
307.325
304.403
304.424
304.45
304.479
304.507
304.533
304.556
304.575
304.588
304.595
304.595
304.588
304.575
304.556
304.533
304.507
304.479
304.45
304.424
304.403
301.477
301.483
301.492
301.502
301.511
301.52
301.528
301.534
301.539
301.541
301.541
301.539
301.534
301.528
301.52
301.511
301.502
301.492
301.483
301.477
322.568
322.67
322.795
322.925
323.052
323.17
323.274
323.359
323.418
323.449
323.449
323.418
323.359
323.274
323.17
323.052
322.925
322.795
322.67
322.568
319.611
319.698
319.806
319.918
320.028
320.131
320.221
320.294
320.346
320.372
320.372
320.346
320.294
320.221
320.131
320.028
319.918
319.806
319.698
319.611
316.634
316.706
316.797
316.892
316.985
317.072
317.148
317.21
317.254
317.276
317.276
317.254
317.21
317.148
317.072
316.985
316.892
316.797
316.706
316.634
313.639
313.697
313.771
313.849
313.925
313.996
314.058
314.109
314.145
314.163
314.163
314.145
314.109
314.058
313.996
313.925
313.849
313.771
313.697
313.639
310.628
310.672
310.73
310.79
310.85
310.905
310.953
310.993
311.021
311.035
311.035
311.021
310.993
310.953
310.905
310.85
310.79
310.73
310.672
310.628
307.604
307.636
307.677
307.72
307.762
307.802
307.837
307.865
307.885
307.895
307.895
307.885
307.865
307.837
307.802
307.762
307.72
307.677
307.636
307.604
304.571
304.59
304.615
304.641
304.666
304.69
304.711
304.728
304.74
304.746
304.746
304.74
304.728
304.711
304.69
304.666
304.641
304.615
304.59
304.571
301.533
301.539
301.548
301.556
301.565
301.573
301.58
301.585
301.589
301.591
301.591
301.589
301.585
301.58
301.573
301.565
301.556
301.548
301.539
301.533
323.467
323.561
323.676
323.794
323.91
324.016
324.11
324.186
324.239
324.266
324.266
324.239
324.186
324.11
324.016
323.91
323.794
323.676
323.561
323.467
320.391
320.471
320.57
320.673
320.773
320.866
320.947
321.012
321.058
321.082
321.082
321.058
321.012
320.947
320.866
320.773
320.673
320.57
320.471
320.391
317.295
317.361
317.445
317.532
317.616
317.695
317.763
317.819
317.858
317.878
317.878
317.858
317.819
317.763
317.695
317.616
317.532
317.445
317.361
317.295
314.18
314.234
314.302
314.373
314.442
314.506
314.562
314.608
314.64
314.656
314.656
314.64
314.608
314.562
314.506
314.442
314.373
314.302
314.234
314.18
311.049
311.09
311.143
311.198
311.252
311.302
311.346
311.381
311.406
311.419
311.419
311.406
311.381
311.346
311.302
311.252
311.198
311.143
311.09
311.049
307.906
307.935
307.972
308.012
308.05
308.086
308.117
308.143
308.16
308.169
308.169
308.16
308.143
308.117
308.086
308.05
308.012
307.972
307.935
307.906
304.753
304.77
304.793
304.816
304.839
304.861
304.88
304.895
304.905
304.911
304.911
304.905
304.895
304.88
304.861
304.839
304.816
304.793
304.77
304.753
301.594
301.6
301.607
301.615
301.623
301.63
301.636
301.641
301.645
301.647
301.647
301.645
301.641
301.636
301.63
301.623
301.615
301.607
301.6
301.594
324.427
324.514
324.619
324.727
324.832
324.928
325.012
325.08
325.127
325.152
325.152
325.127
325.08
325.012
324.928
324.832
324.727
324.619
324.514
324.427
321.224
321.298
321.389
321.482
321.573
321.657
321.73
321.788
321.829
321.85
321.85
321.829
321.788
321.73
321.657
321.573
321.482
321.389
321.298
321.224
318.001
318.061
318.138
318.217
318.294
318.365
318.426
318.476
318.511
318.529
318.529
318.511
318.476
318.426
318.365
318.294
318.217
318.138
318.061
318.001
314.758
314.807
314.869
314.934
314.997
315.055
315.105
315.146
315.174
315.189
315.189
315.174
315.146
315.105
315.055
314.997
314.934
314.869
314.807
314.758
311.499
311.536
311.585
311.635
311.684
311.729
311.769
311.8
311.822
311.834
311.834
311.822
311.8
311.769
311.729
311.684
311.635
311.585
311.536
311.499
308.227
308.254
308.288
308.324
308.359
308.391
308.419
308.442
308.458
308.466
308.466
308.458
308.442
308.419
308.391
308.359
308.324
308.288
308.254
308.227
304.946
304.962
304.982
305.004
305.025
305.044
305.061
305.075
305.084
305.089
305.089
305.084
305.075
305.061
305.044
305.025
305.004
304.982
304.962
304.946
301.659
301.664
301.671
301.678
301.685
301.692
301.697
301.702
301.705
301.707
301.707
301.705
301.702
301.697
301.692
301.685
301.678
301.671
301.664
301.659
325.439
325.519
325.615
325.714
325.809
325.896
325.971
326.032
326.074
326.096
326.096
326.074
326.032
325.971
325.896
325.809
325.714
325.615
325.519
325.439
322.1
322.168
322.251
322.336
322.419
322.494
322.56
322.612
322.649
322.668
322.668
322.649
322.612
322.56
322.494
322.419
322.336
322.251
322.168
322.1
318.741
318.797
318.867
318.939
319.009
319.073
319.128
319.173
319.204
319.22
319.22
319.204
319.173
319.128
319.073
319.009
318.939
318.867
318.797
318.741
315.363
315.408
315.465
315.524
315.581
315.634
315.679
315.715
315.741
315.754
315.754
315.741
315.715
315.679
315.634
315.581
315.524
315.465
315.408
315.363
311.969
312.004
312.048
312.094
312.138
312.179
312.215
312.243
312.263
312.273
312.273
312.263
312.243
312.215
312.179
312.138
312.094
312.048
312.004
311.969
308.563
308.587
308.619
308.652
308.684
308.713
308.738
308.758
308.772
308.78
308.78
308.772
308.758
308.738
308.713
308.684
308.652
308.619
308.587
308.563
305.147
305.162
305.181
305.201
305.22
305.237
305.252
305.265
305.273
305.277
305.277
305.273
305.265
305.252
305.237
305.22
305.201
305.181
305.162
305.147
301.726
301.731
301.737
301.744
301.75
301.756
301.761
301.765
301.768
301.77
301.77
301.768
301.765
301.761
301.756
301.75
301.744
301.737
301.731
301.726
326.476
326.549
326.637
326.727
326.813
326.892
326.96
327.014
327.052
327.071
327.071
327.052
327.014
326.96
326.892
326.813
326.727
326.637
326.549
326.476
322.993
323.055
323.132
323.209
323.284
323.352
323.411
323.458
323.491
323.508
323.508
323.491
323.458
323.411
323.352
323.284
323.209
323.132
323.055
322.993
319.492
319.544
319.608
319.674
319.737
319.795
319.845
319.885
319.913
319.927
319.927
319.913
319.885
319.845
319.795
319.737
319.674
319.608
319.544
319.492
315.975
316.016
316.069
316.123
316.175
316.222
316.263
316.296
316.319
316.33
316.33
316.319
316.296
316.263
316.222
316.175
316.123
316.069
316.016
315.975
312.443
312.475
312.516
312.558
312.598
312.635
312.667
312.693
312.71
312.72
312.72
312.71
312.693
312.667
312.635
312.598
312.558
312.516
312.475
312.443
308.901
308.923
308.952
308.982
309.011
309.038
309.06
309.079
309.091
309.098
309.098
309.091
309.079
309.06
309.038
309.011
308.982
308.952
308.923
308.901
305.35
305.363
305.381
305.399
305.416
305.432
305.446
305.457
305.464
305.468
305.468
305.464
305.457
305.446
305.432
305.416
305.399
305.381
305.363
305.35
301.794
301.798
301.804
301.81
301.816
301.821
301.826
301.83
301.832
301.834
301.834
301.832
301.83
301.826
301.821
301.816
301.81
301.804
301.798
301.794
327.469
327.536
327.618
327.7
327.779
327.851
327.913
327.962
327.996
328.013
328.013
327.996
327.962
327.913
327.851
327.779
327.7
327.618
327.536
327.469
323.838
323.896
323.966
324.038
324.106
324.168
324.222
324.265
324.295
324.31
324.31
324.295
324.265
324.222
324.168
324.106
324.038
323.966
323.896
323.838
320.196
320.243
320.303
320.364
320.422
320.474
320.52
320.556
320.581
320.594
320.594
320.581
320.556
320.52
320.474
320.422
320.364
320.303
320.243
320.196
316.542
316.581
316.629
316.679
316.727
316.77
316.808
316.837
316.858
316.869
316.869
316.858
316.837
316.808
316.77
316.727
316.679
316.629
316.581
316.542
312.88
312.91
312.947
312.986
313.023
313.057
313.086
313.109
313.125
313.134
313.134
313.125
313.109
313.086
313.057
313.023
312.986
312.947
312.91
312.88
309.21
309.231
309.258
309.286
309.312
309.336
309.357
309.374
309.385
309.391
309.391
309.385
309.374
309.357
309.336
309.312
309.286
309.258
309.231
309.21
305.535
305.547
305.563
305.58
305.596
305.61
305.623
305.633
305.64
305.643
305.643
305.64
305.633
305.623
305.61
305.596
305.58
305.563
305.547
305.535
301.856
301.86
301.865
301.871
301.876
301.881
301.885
301.889
301.891
301.892
301.892
301.891
301.889
301.885
301.881
301.876
301.871
301.865
301.86
301.856
328.244
328.307
328.384
328.461
328.535
328.602
328.659
328.705
328.737
328.753
328.753
328.737
328.705
328.659
328.602
328.535
328.461
328.384
328.307
328.244
324.473
324.527
324.593
324.661
324.725
324.783
324.833
324.873
324.901
324.915
324.915
324.901
324.873
324.833
324.783
324.725
324.661
324.593
324.527
324.473
320.708
320.753
320.809
320.866
320.921
320.97
321.013
321.047
321.071
321.083
321.083
321.071
321.047
321.013
320.97
320.921
320.866
320.809
320.753
320.708
316.946
316.982
317.028
317.075
317.12
317.161
317.196
317.223
317.243
317.253
317.253
317.243
317.223
317.196
317.161
317.12
317.075
317.028
316.982
316.946
313.184
313.212
313.248
313.285
313.32
313.352
313.379
313.401
313.416
313.424
313.424
313.416
313.401
313.379
313.352
313.32
313.285
313.248
313.212
313.184
309.423
309.443
309.468
309.494
309.519
309.542
309.562
309.577
309.588
309.594
309.594
309.588
309.577
309.562
309.542
309.519
309.494
309.468
309.443
309.423
305.66
305.672
305.688
305.703
305.718
305.732
305.744
305.753
305.76
305.763
305.763
305.76
305.753
305.744
305.732
305.718
305.703
305.688
305.672
305.66
301.898
301.901
301.907
301.912
301.917
301.922
301.926
301.929
301.931
301.932
301.932
301.931
301.929
301.926
301.922
301.917
301.912
301.907
301.901
301.898
)
;

boundaryField
{
    hotSide
    {
        type            fixedGradient;
        gradient        nonuniform List<scalar> 
400
(
175.016
175.649
176.918
178.827
181.381
184.587
188.454
192.99
198.204
204.106
210.705
218.008
226.024
234.759
244.22
254.411
265.337
277.002
289.408
302.557
177.528
178.141
179.371
181.223
183.704
186.824
190.593
195.024
200.126
205.913
212.396
219.584
227.487
236.113
245.47
255.562
266.395
277.973
290.297
303.372
180.246
180.836
182.02
183.804
186.199
189.217
192.872
197.179
202.153
207.809
214.159
221.218
228.995
237.501
246.743
256.728
267.461
278.945
291.184
304.18
183.126
183.688
184.818
186.524
188.82
191.721
195.246
199.414
204.243
209.752
215.957
222.874
230.515
238.891
248.011
257.882
268.51
279.898
292.048
304.963
186.087
186.618
187.687
189.305
191.49
194.262
197.644
201.66
206.332
211.684
217.734
224.501
231.999
240.24
249.235
258.99
269.512
280.802
292.865
305.7
189.005
189.503
190.507
192.032
194.1
196.736
199.968
203.825
208.335
213.525
219.418
226.034
233.389
241.498
250.369
260.012
270.431
281.628
293.607
306.366
191.714
192.179
193.118
194.551
196.502
199.003
202.089
205.792
210.146
215.182
220.925
227.399
234.621
242.606
251.364
260.903
271.229
282.342
294.245
306.938
194.013
194.448
195.329
196.678
198.526
200.908
203.863
207.431
211.648
216.549
222.164
228.515
235.624
243.504
252.167
261.62
271.868
282.912
294.754
307.391
195.696
196.108
196.944
198.229
199.998
202.289
205.146
208.612
212.728
217.529
223.048
229.309
236.335
244.139
252.733
262.124
272.316
283.31
295.108
307.706
196.588
196.987
197.799
199.05
200.775
203.017
205.821
209.232
213.293
218.041
223.509
229.723
236.704
244.468
253.025
262.383
272.546
283.515
295.289
307.868
196.588
196.987
197.799
199.05
200.775
203.017
205.821
209.232
213.293
218.041
223.509
229.723
236.704
244.468
253.025
262.383
272.546
283.515
295.289
307.868
195.696
196.108
196.944
198.229
199.998
202.289
205.146
208.612
212.728
217.529
223.048
229.309
236.335
244.139
252.733
262.124
272.316
283.31
295.108
307.706
194.013
194.448
195.329
196.678
198.526
200.908
203.863
207.431
211.648
216.549
222.164
228.515
235.624
243.504
252.167
261.62
271.868
282.912
294.754
307.391
191.714
192.179
193.118
194.551
196.502
199.003
202.089
205.792
210.146
215.182
220.925
227.399
234.621
242.606
251.364
260.903
271.229
282.342
294.245
306.938
189.005
189.503
190.507
192.032
194.1
196.736
199.968
203.825
208.335
213.525
219.418
226.034
233.389
241.498
250.369
260.012
270.431
281.628
293.607
306.366
186.087
186.618
187.687
189.305
191.49
194.262
197.644
201.66
206.332
211.684
217.734
224.501
231.999
240.24
249.235
258.99
269.512
280.802
292.865
305.7
183.126
183.688
184.818
186.524
188.82
191.721
195.246
199.414
204.243
209.752
215.957
222.874
230.515
238.891
248.011
257.882
268.51
279.898
292.048
304.963
180.246
180.836
182.02
183.804
186.199
189.217
192.872
197.179
202.153
207.809
214.159
221.218
228.995
237.501
246.743
256.728
267.461
278.945
291.184
304.18
177.528
178.141
179.371
181.223
183.704
186.824
190.593
195.024
200.126
205.913
212.396
219.584
227.487
236.113
245.47
255.562
266.395
277.973
290.297
303.372
175.016
175.649
176.918
178.827
181.381
184.587
188.454
192.99
198.204
204.106
210.705
218.008
226.024
234.759
244.22
254.411
265.337
277.002
289.408
302.557
)
;
    }
    coldSide
    {
        type            mixed;
        refValue        uniform 300;
        refGradient     uniform 0;
        valueFraction   uniform 0.991591;
        source          uniform 0;
        value           nonuniform List<scalar> 
400
(
300.01
300.01
300.01
300.01
300.01
300.01
300.01
300.011
300.011
300.011
300.012
300.012
300.012
300.013
300.013
300.014
300.015
300.015
300.016
300.016
300.01
300.01
300.01
300.01
300.01
300.01
300.01
300.011
300.011
300.011
300.012
300.012
300.012
300.013
300.013
300.014