/*--------------------------------*- C++ -*----------------------------------*\
| =========                 |                                                 |
| \\      /  F ield         | OpenFOAM: The Open Source CFD Toolbox           |
|  \\    /   O peration     | Version:  2212                                  |
|   \\  /    A nd           | Website:  www.openfoam.com                      |
|    \\/     M anipulation  |                                                 |
\*---------------------------------------------------------------------------*/
FoamFile
{
    version     2.0;
    format      ascii;
    arch        "LSB;label=32;scalar=64";
    class       volScalarField;
    location    "0";
    object      Ttrue;
}
// * * * * * * * * * * * * * * * * * * * * * * * * * * * * * * * * * * * * * //

dimensions      [0 0 0 1 0 0 0];

internalField   nonuniform List<scalar> 
3200
(
334.555
334.779
335.066
335.377
335.698
336.013
336.304
336.55
336.729
336.823
336.823
336.729
336.55
336.304
336.013
335.698
335.377
335.066
334.779
334.555
330.121
330.311
330.557
330.827
331.105
331.377
331.629
331.841
331.995
332.077
332.077
331.995
331.841
331.629
331.377
331.105
330.827
330.557
330.311
330.121
325.613
325.77
325.978
326.206
326.441
326.671
326.884
327.063
327.193
327.262
327.262
327.193
327.063
326.884
326.671
326.441
326.206
325.978
325.77
325.613
321.044
321.17
321.34
321.526
321.718
321.906
322.079
322.226
322.332
322.388
322.388
322.332
322.226
322.079
321.906
321.718
321.526
321.34
321.17
321.044
316.424
316.521
316.652
316.797
316.946
317.092
317.227
317.341
317.423
317.467
317.467
317.423
317.341
317.227
317.092
316.946
316.797
316.652
316.521
316.424
311.765
311.834
311.927
312.031
312.137
312.242
312.338
312.419
312.478
312.509
312.509
312.478
312.419
312.338
312.242
312.137
312.031
311.927
311.834
311.765
307.078
307.119
307.175
307.237
307.301
307.364
307.422
307.47
307.506
307.524
307.524
307.506
307.47
307.422
307.364
307.301
307.237
307.175
307.119
307.078
302.375
302.388
302.407
302.428
302.449
302.47
302.49
302.506
302.518
302.524
302.524
302.518
302.506
302.49
302.47
302.449
302.428
302.407
302.388
302.375
334.697
334.919
335.203
335.511
335.829
336.141
336.428
336.671
336.847
336.941
336.941
336.847
336.671
336.428
336.141
335.829
335.511
335.203
334.919
334.697
330.244
330.432
330.677
330.944
331.219
331.489
331.737
331.947
332.099
332.18
332.18
332.099
331.947
331.737
331.489
331.219
330.944
330.677
330.432
330.244
325.718
325.874
326.08
326.306
326.538
326.766
326.976
327.153
327.281
327.349
327.349
327.281
327.153
326.976
326.766
326.538
326.306
326.08
325.874
325.718
321.13
321.255
321.423
321.608
321.798
321.984
322.155
322.3
322.405
322.46
322.46
322.405
322.3
322.155
321.984
321.798
321.608
321.423
321.255
321.13
316.491
316.587
316.718
316.861
317.009
317.153
317.286
317.399
317.48
317.523
317.523
317.48
317.399
317.286
317.153
317.009
316.861
316.718
316.587
316.491
311.813
311.881
311.974
312.076
312.182
312.285
312.38
312.46
312.518
312.549
312.549
312.518
312.46
312.38
312.285
312.182
312.076
311.974
311.881
311.813
307.107
307.148
307.203
307.265
307.328
307.39
307.447
307.495
307.53
307.549
307.549
307.53
307.495
307.447
307.39
307.328
307.265
307.203
307.148
307.107
302.384
302.398
302.416
302.437
302.458
302.479
302.498
302.514
302.526
302.532
302.532
302.526
302.514
302.498
302.479
302.458
302.437
302.416
302.398
302.384
334.98
335.198
335.477
335.78
336.092
336.397
336.677
336.914
337.086
337.177
337.177
337.086
336.914
336.677
336.397
336.092
335.78
335.477
335.198
334.98
330.491
330.676
330.916
331.178
331.448
331.712
331.955
332.159
332.308
332.386
332.386
332.308
332.159
331.955
331.712
331.448
331.178
330.916
330.676
330.491
325.927
326.081
326.284
326.505
326.733
326.956
327.161
327.333
327.459
327.525
327.525
327.459
327.333
327.161
326.956
326.733
326.505
326.284
326.081
325.927
321.302
321.425
321.591
321.772
321.958
322.14
322.307
322.448
322.551
322.605
322.605
322.551
322.448
322.307
322.14
321.958
321.772
321.591
321.425
321.302
316.625
316.72
316.848
316.989
317.134
317.275
317.405
317.515
317.594
317.636
317.636
317.594
317.515
317.405
317.275
317.134
316.989
316.848
316.72
316.625
311.909
311.976
312.068
312.168
312.271
312.372
312.465
312.543
312.6
312.63
312.63
312.6
312.543
312.465
312.372
312.271
312.168
312.068
311.976
311.909
307.165
307.205
307.26
307.32
307.382
307.443
307.498
307.545
307.579
307.597
307.597
307.579
307.545
307.498
307.443
307.382
307.32
307.26
307.205
307.165
302.404
302.417
302.435
302.456
302.476
302.497
302.515
302.531
302.543
302.549
302.549
302.543
302.531
302.515
302.497
302.476
302.456
302.435
302.417
302.404
335.405
335.618
335.89
336.185
336.487
336.782
337.053
337.281
337.447
337.534
337.534
337.447
337.281
337.053
336.782
336.487
336.185
335.89
335.618
335.405
330.861
331.042
331.276
331.531
331.793
332.048
332.283
332.48
332.623
332.698
332.698
332.623
332.48
332.283
332.048
331.793
331.531
331.276
331.042
330.861
326.242
326.392
326.59
326.805
327.026
327.242
327.44
327.607
327.727
327.791
327.791
327.727
327.607
327.44
327.242
327.026
326.805
326.59
326.392
326.242
321.56
321.681
321.842
322.018
322.199
322.375
322.537
322.673
322.772
322.824
322.824
322.772
322.673
322.537
322.375
322.199
322.018
321.842
321.681
321.56
316.827
316.92
317.045
317.181
317.322
317.459
317.585
317.69
317.767
317.807
317.807
317.767
317.69
317.585
317.459
317.322
317.181
317.045
316.92
316.827
312.054
312.119
312.208
312.306
312.406
312.504
312.594
312.669
312.724
312.753
312.753
312.724
312.669
312.594
312.504
312.406
312.306
312.208
312.119
312.054
307.252
307.291
307.344
307.403
307.463
307.522
307.576
307.621
307.654
307.671
307.671
307.654
307.621
307.576
307.522
307.463
307.403
307.344
307.291
307.252
302.433
302.446
302.464
302.483
302.504
302.523
302.541
302.557
302.568
302.573
302.573
302.568
302.557
302.541
302.523
302.504
302.483
302.464
302.446
302.433
335.972
336.179
336.442
336.726
337.017
337.3
337.559
337.776
337.934
338.017
338.017
337.934
337.776
337.559
337.3
337.017
336.726
336.442
336.179
335.972
331.356
331.531
331.758
332.004
332.255
332.5
332.724
332.912
333.048
333.12
333.12
333.048
332.912
332.724
332.5
332.255
332.004
331.758
331.531
331.356
326.663
326.808
326.999
327.207
327.42
327.627
327.816
327.975
328.09
328.15
328.15
328.09
327.975
327.816
327.627
327.42
327.207
326.999
326.808
326.663
321.906
322.023
322.179
322.348
322.522
322.691
322.846
322.976
323.07
323.119
323.119
323.07
322.976
322.846
322.691
322.522
322.348
322.179
322.023
321.906
317.097
317.186
317.307
317.439
317.574
317.706
317.826
317.927
318
318.038
318.038
318
317.927
317.826
317.706
317.574
317.439
317.307
317.186
317.097
312.247
312.31
312.396
312.491
312.587
312.681
312.767
312.839
312.891
312.918
312.918
312.891
312.839
312.767
312.681
312.587
312.491
312.396
312.31
312.247
307.368
307.406
307.457
307.514
307.572
307.628
307.68
307.723
307.754
307.771
307.771
307.754
307.723
307.68
307.628
307.572
307.514
307.457
307.406
307.368
302.472
302.484
302.502
302.521
302.54
302.559
302.576
302.591
302.601
302.607
302.607
302.601
302.591
302.576
302.559
302.54
302.521
302.502
302.484
302.472
336.684
336.883
337.135
337.407
337.684
337.952
338.198
338.403
338.551
338.629
338.629
338.551
338.403
338.198
337.952
337.684
337.407
337.135
336.883
336.684
331.975
332.144
332.362
332.597
332.837
333.069
333.281
333.459
333.587
333.654
333.654
333.587
333.459
333.281
333.069
332.837
332.597
332.362
332.144
331.975
327.19
327.33
327.513
327.712
327.914
328.111
328.29
328.44
328.548
328.605
328.605
328.548
328.44
328.29
328.111
327.914
327.712
327.513
327.33
327.19
322.339
322.451
322.601
322.763
322.929
323.09
323.236
323.358
323.447
323.493
323.493
323.447
323.358
323.236
323.09
322.929
322.763
322.601
322.451
322.339
317.434
317.521
317.637
317.763
317.892
318.017
318.131
318.226
318.294
318.33
318.33
318.294
318.226
318.131
318.017
317.892
317.763
317.637
317.521
317.434
312.489
312.55
312.632
312.723
312.815
312.904
312.985
313.053
313.102
313.128
313.128
313.102
313.053
312.985
312.904
312.815
312.723
312.632
312.55
312.489
307.513
307.55
307.599
307.654
307.709
307.762
307.811
307.852
307.881
307.897
307.897
307.881
307.852
307.811
307.762
307.709
307.654
307.599
307.55
307.513
302.521
302.533
302.549
302.568
302.586
302.604
302.62
302.634
302.644
302.649
302.649
302.644
302.634
302.62
302.604
302.586
302.568
302.549
302.533
302.521
337.539
337.73
337.97
338.228
338.49
338.742
338.972
339.164
339.302
339.375
339.375
339.302
339.164
338.972
338.742
338.49
338.228
337.97
337.73
337.539
332.721
332.882
333.09
333.313
333.539
333.758
333.957
334.123
334.243
334.305
334.305
334.243
334.123
333.957
333.758
333.539
333.313
333.09
332.882
332.721
327.824
327.957
328.132
328.321
328.512
328.697
328.866
329.006
329.106
329.159
329.159
329.106
329.006
328.866
328.697
328.512
328.321
328.132
327.957
327.824
322.859
322.967
323.109
323.264
323.42
323.572
323.709
323.823
323.906
323.949
323.949
323.906
323.823
323.709
323.572
323.42
323.264
323.109
322.967
322.859
317.841
317.923
318.034
318.154
318.275
318.393
318.5
318.589
318.653
318.686
318.686
318.653
318.589
318.5
318.393
318.275
318.154
318.034
317.923
317.841
312.78
312.838
312.917
313.003
313.09
313.174
313.25
313.313
313.359
313.383
313.383
313.359
313.313
313.25
313.174
313.09
313.003
312.917
312.838
312.78
307.688
307.723
307.771
307.822
307.874
307.925
307.971
308.009
308.036
308.051
308.051
308.036
308.009
307.971
307.925
307.874
307.822
307.771
307.723
307.688
302.579
302.591
302.607
302.624
302.642
302.658
302.674
302.687
302.696
302.701
302.701
302.696
302.687
302.674
302.658
302.642
302.624
302.607
302.591
302.579
338.54
338.721
338.949
339.192
339.437
339.673
339.887
340.065
340.192
340.259
340.259
340.192
340.065
339.887
339.673
339.437
339.192
338.949
338.721
338.54
333.593
333.747
333.943
334.153
334.366
334.57
334.755
334.909
335.019
335.077
335.077
335.019
334.909
334.755
334.57
334.366
334.153
333.943
333.747
333.593
328.565
328.692
328.858
329.036
329.215
329.388
329.545
329.674
329.768
329.817
329.817
329.768
329.674
329.545
329.388
329.215
329.036
328.858
328.692
328.565
323.469
323.571
323.706
323.851
323.998
324.139
324.267
324.373
324.45
324.49
324.49
324.45
324.373
324.267
324.139
323.998
323.851
323.706
323.571
323.469
318.316
318.394
318.499
318.612
318.726
318.836
318.936
319.018
319.077
319.108
319.108
319.077
319.018
318.936
318.836
318.726
318.612
318.499
318.394
318.316
313.12
313.176
313.25
313.331
313.413
313.491
313.562
313.621
313.663
313.685
313.685
313.663
313.621
313.562
313.491
313.413
313.331
313.25
313.176
313.12
307.893
307.926
307.971
308.02
308.069
308.116
308.159
308.194
308.219
308.233
308.233
308.219
308.194
308.159
308.116
308.069
308.02
307.971
307.926
307.893
302.648
302.659
302.674
302.69
302.707
302.723
302.737
302.749
302.757
302.762
302.762
302.757
302.749
302.737
302.723
302.707
302.69
302.674
302.659
302.648
339.688
339.859
340.073
340.301
340.529
340.748
340.945
341.109
341.226
341.287
341.287
341.226
341.109
340.945
340.748
340.529
340.301
340.073
339.859
339.688
334.593
334.738
334.923
335.12
335.318
335.508
335.678
335.82
335.921
335.974
335.974
335.921
335.82
335.678
335.508
335.318
335.12
334.923
334.738
334.593
329.415
329.535
329.691
329.858
330.025
330.185
330.33
330.449
330.535
330.58
330.58
330.535
330.449
330.33
330.185
330.025
329.858
329.691
329.535
329.415
324.167
324.263
324.39
324.527
324.664
324.795
324.913
325.01
325.08
325.117
325.117
325.08
325.01
324.913
324.795
324.664
324.527
324.39
324.263
324.167
318.861
318.935
319.033
319.139
319.246
319.348
319.44
319.516
319.57
319.598
319.598
319.57
319.516
319.44
319.348
319.246
319.139
319.033
318.935
318.861
313.51
313.563
313.633
313.709
313.785
313.858
313.923
313.977
314.016
314.037
314.037
314.016
313.977
313.923
313.858
313.785
313.709
313.633
313.563
313.51
308.128
308.159
308.202
308.247
308.293
308.336
308.376
308.408
308.432
308.444
308.444
308.432
308.408
308.376
308.336
308.293
308.247
308.202
308.159
308.128
302.727
302.737
302.751
302.767
302.782
302.797
302.81
302.821
302.828
302.833
302.833
302.828
302.821
302.81
302.797
302.782
302.767
302.751
302.737
302.727
340.983
341.144
341.344
341.556
341.768
341.969
342.15
342.299
342.406
342.461
342.461
342.406
342.299
342.15
341.969
341.768
341.556
341.344
341.144
340.983
335.722
335.858
336.031
336.214
336.398
336.572
336.729
336.858
336.95
336.999
336.999
336.95
336.858
336.729
336.572
336.398
336.214
336.031
335.858
335.722
330.375
330.488
330.633
330.788
330.944
331.091
331.224
331.333
331.411
331.452
331.452
331.411
331.333
331.224
331.091
330.944
330.788
330.633
330.488
330.375
324.955
325.046
325.164
325.291
325.418
325.539
325.648
325.737
325.8
325.834
325.834
325.8
325.737
325.648
325.539
325.418
325.291
325.164
325.046
324.955
319.476
319.546
319.638
319.736
319.835
319.929
320.013
320.083
320.132
320.158
320.158
320.132
320.083
320.013
319.929
319.835
319.736
319.638
319.546
319.476
313.951
314
314.066
314.136
314.207
314.274
314.334
314.384
314.419
314.438
314.438
314.419
314.384
314.334
314.274
314.207
314.136
314.066
314
313.951
308.393
308.423
308.462
308.504
308.547
308.587
308.623
308.653
308.674
308.685
308.685
308.674
308.653
308.623
308.587
308.547
308.504
308.462
308.423
308.393
302.816
302.826
302.839
302.853
302.867
302.881
302.893
302.903
302.91
302.914
302.914
302.91
302.903
302.893
302.881
302.867
302.853
302.839
302.826
302.816
342.427
342.577
342.763
342.96
343.155
343.339
343.505
343.64
343.736
343.786
343.786
343.736
343.64
343.505
343.339
343.155
342.96
342.763
342.577
342.427
336.98
337.107
337.268
337.438
337.607
337.767
337.91
338.027
338.111
338.154
338.154
338.111
338.027
337.91
337.767
337.607
337.438
337.268
337.107
336.98
331.444
331.55
331.685
331.829
331.972
332.107
332.228
332.328
332.398
332.435
332.435
332.398
332.328
332.228
332.107
331.972
331.829
331.685
331.55
331.444
325.833
325.918
326.029
326.146
326.263
326.374
326.473
326.554
326.612
326.642
326.642
326.612
326.554
326.473
326.374
326.263
326.146
326.029
325.918
325.833
320.161
320.227
320.312
320.404
320.495
320.581
320.658
320.721
320.766
320.789
320.789
320.766
320.721
320.658
320.581
320.495
320.404
320.312
320.227
320.161
314.442
314.488
314.549
314.614
314.679
314.741
314.796
314.841
314.873
314.89
314.89
314.873
314.841
314.796
314.741
314.679
314.614
314.549
314.488
314.442
308.688
308.716
308.753
308.792
308.831
308.868
308.901
308.928
308.947
308.957
308.957
308.947
308.928
308.901
308.868
308.831
308.792
308.753
308.716
308.688
302.915
302.924
302.936
302.949
302.962
302.975
302.986
302.995
303.001
303.005
303.005
303.001
302.995
302.986
302.975
302.962
302.949
302.936
302.924
302.915
344.019
344.159
344.332
344.513
344.692
344.861
345.01
345.133
345.22
345.265
345.265
345.22
345.133
345.01
344.861
344.692
344.513
344.332
344.159
344.019
338.368
338.486
338.635
338.792
338.947
339.093
339.223
339.329
339.404
339.443
339.443
339.404
339.329
339.223
339.093
338.947
338.792
338.635
338.486
338.368
332.624
332.722
332.848
332.98
333.112
333.235
333.345
333.435
333.498
333.531
333.531
333.498
333.435
333.345
333.235
333.112
332.98
332.848
332.722
332.624
326.802
326.881
326.984
327.092
327.2
327.301
327.391
327.464
327.516
327.543
327.543
327.516
327.464
327.391
327.301
327.2
327.092
326.984
326.881
326.802
320.918
320.978
321.058
321.142
321.225
321.304
321.374
321.431
321.472
321.493
321.493
321.472
321.431
321.374
321.304
321.225
321.142
321.058
320.978
320.918
314.983
315.026
315.083
315.143
315.203
315.259
315.309
315.35
315.379
315.394
315.394
315.379
315.35
315.309
315.259
315.203
315.143
315.083
315.026
314.983
309.014
309.04
309.074
309.11
309.146
309.18
309.21
309.234
309.251
309.261
309.261
309.251
309.234
309.21
309.18
309.146
309.11
309.074
309.04
309.014
303.024
303.033
303.044
303.056
303.068
303.079
303.09
303.098
303.104
303.107
303.107
303.104
303.098
303.09
303.079
303.068
303.056
303.044
303.033
303.024
345.761
345.891
346.051
346.217
346.38
346.534
346.669
346.779
346.857
346.898
346.898
346.857
346.779
346.669
346.534
346.38
346.217
346.051
345.891
345.761
339.886
339.995
340.133
340.277
340.419
340.552
340.669
340.764
340.832
340.867
340.867
340.832
340.764
340.669
340.552
340.419
340.277
340.133
339.995
339.886
333.914
334.005
334.121
334.243
334.363
334.475
334.575
334.656
334.713
334.742
334.742
334.713
334.656
334.575
334.475
334.363
334.243
334.121
334.005
333.914
327.862
327.935
328.03
328.13
328.228
328.32
328.401
328.467
328.514
328.538
328.538
328.514
328.467
328.401
328.32
328.228
328.13
328.03
327.935
327.862
321.744
321.801
321.874
321.952
322.028
322.099
322.163
322.214
322.25
322.269
322.269
322.25
322.214
322.163
322.099
322.028
321.952
321.874
321.801
321.744
315.576
315.615
315.668
315.723
315.778
315.829
315.874
315.911
315.937
315.95
315.95
315.937
315.911
315.874
315.829
315.778
315.723
315.668
315.615
315.576
309.37
309.394
309.426
309.459
309.492
309.522
309.549
309.572
309.587
309.595
309.595
309.587
309.572
309.549
309.522
309.492
309.459
309.426
309.394
309.37
303.144
303.151
303.162
303.173
303.184
303.194
303.204
303.211
303.216
303.219
303.219
303.216
303.211
303.204
303.194
303.184
303.173
303.162
303.151
303.144
347.652
347.772
347.918
348.071
348.22
348.358
348.48
348.579
348.649
348.685
348.685
348.649
348.579
348.48
348.358
348.22
348.071
347.918
347.772
347.652
341.532
341.634
341.761
341.893
342.022
342.142
342.248
342.334
342.394
342.425
342.425
342.394
342.334
342.248
342.142
342.022
341.893
341.761
341.634
341.532
335.314
335.398
335.505
335.616
335.726
335.827
335.917
335.99
336.041
336.067
336.067
336.041
335.99
335.917
335.827
335.726
335.616
335.505
335.398
335.314
329.012
329.079
329.166
329.258
329.347
329.43
329.504
329.563
329.605
329.627
329.627
329.605
329.563
329.504
329.43
329.347
329.258
329.166
329.079
329.012
322.641
322.693
322.761
322.832
322.901
322.966
323.023
323.069
323.102
323.119
323.119
323.102
323.069
323.023
322.966
322.901
322.832
322.761
322.693
322.641
316.218
316.255
316.303
316.354
316.403
316.45
316.49
316.523
316.547
316.559
316.559
316.547
316.523
316.49
316.45
316.403
316.354
316.303
316.255
316.218
309.757
309.779
309.808
309.838
309.868
309.896
309.92
309.94
309.954
309.961
309.961
309.954
309.94
309.92
309.896
309.868
309.838
309.808
309.779
309.757
303.273
303.28
303.29
303.3
303.31
303.32
303.328
303.335
303.339
303.342
303.342
303.339
303.335
303.328
303.32
303.31
303.3
303.29
303.28
303.273
349.686
349.797
349.932
350.071
350.206
350.332
350.442
350.53
350.593
350.625
350.625
350.593
350.53
350.442
350.332
350.206
350.071
349.932
349.797
349.686
343.305
343.398
343.515
343.635
343.752
343.861
343.956
344.033
344.087
344.115
344.115
344.087
344.033
343.956
343.861
343.752
343.635
343.515
343.398
343.305
336.82
336.897
336.995
337.097
337.196
337.288
337.369
337.434
337.48
337.504
337.504
337.48
337.434
337.369
337.288
337.196
337.097
336.995
336.897
336.82
330.248
330.31
330.39
330.474
330.555
330.63
330.696
330.749
330.787
330.806
330.806
330.787
330.749
330.696
330.63
330.555
330.474
330.39
330.31
330.248
323.605
323.653
323.715
323.78
323.843
323.902
323.953
323.995
324.024
324.039
324.039
324.024
323.995
323.953
323.902
323.843
323.78
323.715
323.653
323.605
316.908
316.942
316.986
317.033
317.078
317.12
317.157
317.186
317.207
317.218
317.218
317.207
317.186
317.157
317.12
317.078
317.033
316.986
316.942
316.908
310.172
310.192
310.219
310.247
310.274
310.299
310.321
310.339
310.351
310.358
310.358
310.351
310.339
310.321
310.299
310.274
310.247
310.219
310.192
310.172
303.412
303.419
303.428
303.437
303.447
303.455
303.462
303.468
303.472
303.475
303.475
303.472
303.468
303.462
303.455
303.447
303.437
303.428
303.419
303.412
351.856
351.958
352.081
352.208
352.331
352.444
352.543
352.622
352.678
352.706
352.706
352.678
352.622
352.543
352.444
352.331
352.208
352.081
351.958
351.856
345.192
345.279
345.385
345.495
345.601
345.7
345.785
345.854
345.902
345.927
345.927
345.902
345.854
345.785
345.7
345.601
345.495
345.385
345.279
345.192
338.422
338.494
338.584
338.677
338.767
338.85
338.922
338.98
339.021
339.042
339.042
339.021
338.98
338.922
338.85
338.767
338.677
338.584
338.494
338.422
331.563
331.62
331.694
331.77
331.843
331.912
331.971
332.019
332.052
332.069
332.069
332.052
332.019
331.971
331.912
331.843
331.77
331.694
331.62
331.563
324.631
324.675
324.732
324.791
324.848
324.901
324.947
324.984
325.01
325.024
325.024
325.01
324.984
324.947
324.901
324.848
324.791
324.732
324.675
324.631
317.642
317.673
317.714
317.756
317.797
317.835
317.868
317.894
317.913
317.923
317.923
317.913
317.894
317.868
317.835
317.797
317.756
317.714
317.673
317.642
310.613
310.632
310.656
310.682
310.706
310.729
310.749
310.765
310.776
310.782
310.782
310.776
310.765
310.749
310.729
310.706
310.682
310.656
310.632
310.613
303.56
303.567
303.575
303.583
303.592
303.599
303.606
303.611
303.615
303.617
303.617
303.615
303.611
303.606
303.599
303.592
303.583
303.575
303.567
303.56
354.135
354.229
354.342
354.457
354.568
354.671
354.759
354.83
354.88
354.905
354.905
354.88
354.83
354.759
354.671
354.568
354.457
354.342
354.229
354.135
347.172
347.251
347.349
347.449
347.545
347.634
347.711
347.772
347.815
347.837
347.837
347.815
347.772
347.711
347.634
347.545
347.449
347.349
347.251
347.172
340.1
340.166
340.248
340.333
340.414
340.489
340.554
340.607
340.643
340.662
340.662
340.643
340.607
340.554
340.489
340.414
340.333
340.248
340.166
340.1
332.937
332.99
333.057
333.127
333.194
333.255
333.308
333.351
333.381
333.396
333.396
333.381
333.351
333.308
333.255
333.194
333.127
333.057
332.99
332.937
325.701
325.742
325.794
325.848
325.9
325.947
325.989
326.022
326.045
326.057
326.057
326.045
326.022
325.989
325.947
325.9
325.848
325.794
325.742
325.701
318.407
318.436
318.473
318.512
318.549
318.583
318.613
318.637
318.653
318.662
318.662
318.653
318.637
318.613
318.583
318.549
318.512
318.473
318.436
318.407
311.073
311.09
311.113
311.136
311.158
311.179
311.196
311.211
311.221
311.226
311.226
311.221
311.211
311.196
311.179
311.158
311.136
311.113
311.09
311.073
303.715
303.72
303.728
303.736
303.743
303.75
303.756
303.761
303.764
303.766
303.766
303.764
303.761
303.756
303.75
303.743
303.736
303.728
303.72
303.715
356.461
356.547
356.651
356.756
356.857
356.95
357.029
357.093
357.138
357.16
357.16
357.138
357.093
357.029
356.95
356.857
356.756
356.651
356.547
356.461
349.183
349.256
349.345
349.436
349.524
349.604
349.673
349.729
349.767
349.787
349.787
349.767
349.729
349.673
349.604
349.524
349.436
349.345
349.256
349.183
341.797
341.858
341.933
342.011
342.085
342.153
342.211
342.258
342.291
342.308
342.308
342.291
342.258
342.211
342.153
342.085
342.011
341.933
341.858
341.797
334.323
334.372
334.433
334.497
334.557
334.613
334.661
334.699
334.726
334.74
334.74
334.726
334.699
334.661
334.613
334.557
334.497
334.433
334.372
334.323
326.777
326.814
326.862
326.911
326.958
327.002
327.039
327.069
327.09
327.101
327.101
327.09
327.069
327.039
327.002
326.958
326.911
326.862
326.814
326.777
319.175
319.201
319.235
319.271
319.304
319.335
319.362
319.384
319.398
319.406
319.406
319.398
319.384
319.362
319.335
319.304
319.271
319.235
319.201
319.175
311.534
311.549
311.57
311.591
311.611
311.63
311.646
311.659
311.668
311.672
311.672
311.668
311.659
311.646
311.63
311.611
311.591
311.57
311.549
311.534
303.869
303.874
303.881
303.888
303.895
303.901
303.907
303.911
303.914
303.915
303.915
303.914
303.911
303.907
303.901
303.895
303.888
303.881
303.874
303.869
358.681
358.761
358.856
358.953
359.046
359.13
359.202
359.26
359.3
359.321
359.321
359.3
359.26
359.202
359.13
359.046
358.953
358.856
358.761
358.681
351.078
351.146
351.229
351.313
351.393
351.466
351.529
351.579
351.614
351.632
351.632
351.614
351.579
351.529
351.466
351.393
351.313
351.229
351.146
351.078
343.38
343.436
343.506
343.577
343.645
343.708
343.761
343.804
343.833
343.848
343.848
343.833
343.804
343.761
343.708
343.645
343.577
343.506
343.436
343.38
335.604
335.649
335.706
335.764
335.82
335.871
335.915
335.949
335.974
335.986
335.986
335.974
335.949
335.915
335.871
335.82
335.764
335.706
335.649
335.604
327.764
327.798
327.842
327.888
327.931
327.971
328.005
328.032
328.051
328.061
328.061
328.051
328.032
328.005
327.971
327.931
327.888
327.842
327.798
327.764
319.875
319.9
319.931
319.964
319.995
320.023
320.048
320.067
320.081
320.088
320.088
320.081
320.067
320.048
320.023
319.995
319.964
319.931
319.9
319.875
311.952
311.967
311.986
312.005
312.024
312.041
312.056
312.067
312.076
312.08
312.08
312.076
312.067
312.056
312.041
312.024
312.005
311.986
311.967
311.952
304.009
304.014
304.02
304.027
304.033
304.039
304.044
304.047
304.05
304.052
304.052
304.05
304.047
304.044
304.039
304.033
304.027
304.02
304.014
304.009
360.403
360.478
360.568
360.659
360.745
360.823
360.891
360.944
360.982
361.001
361.001
360.982
360.944
360.891
360.823
360.745
360.659
360.568
360.478
360.403
352.494
352.557
352.635
352.714
352.79
352.858
352.917
352.964
352.996
353.013
353.013
352.996
352.964
352.917
352.858
352.79
352.714
352.635
352.557
352.494
344.526
344.579
344.645
344.713
344.777
344.835
344.885
344.925
344.952
344.966
344.966
344.952
344.925
344.885
344.835
344.777
344.713
344.645
344.579
344.526
336.509
336.551
336.605
336.66
336.713
336.761
336.802
336.835
336.857
336.869
336.869
336.857
336.835
336.802
336.761
336.713
336.66
336.605
336.551
336.509
328.448
328.481
328.523
328.566
328.607
328.644
328.677
328.702
328.72
328.729
328.729
328.72
328.702
328.677
328.644
328.607
328.566
328.523
328.481
328.448
320.354
320.378
320.408
320.438
320.468
320.495
320.518
320.536
320.549
320.555
320.555
320.549
320.536
320.518
320.495
320.468
320.438
320.408
320.378
320.354
312.236
312.25
312.268
312.287
312.304
312.32
312.334
312.345
312.353
312.357
312.357
312.353
312.345
312.334
312.32
312.304
312.287
312.268
312.25
312.236
304.103
304.108
304.114
304.12
304.126
304.132
304.136
304.14
304.142
304.144
304.144
304.142
304.14
304.136
304.132
304.126
304.12
304.114
304.108
304.103
)
;

boundaryField
{
    hotSide
    {
        type            fixedGradient;
        gradient        nonuniform List<scalar> 
400
(
347.963
349.39
352.247
356.539
362.272
369.455
378.096
388.207
399.798
412.88
427.463
443.557
461.171
480.314
500.992
523.211
546.976
572.292
599.162
627.588
350.91
352.315
355.126
359.351
364.999
372.08
380.607
390.593
402.053
415
429.447
445.406
462.888
481.903
502.458
524.561
548.217
573.431
600.206
628.544
354.1
355.477
358.234
362.379
367.926
374.888
383.281
393.123
404.432
417.224
431.517
447.324
464.658
483.531
503.953
525.93
549.468
574.573
601.247
629.493
357.48
358.824
361.517
365.571
371.001
377.826
386.066
395.745
406.884
419.505
433.626
449.267
466.441
485.162
505.441
527.284
550.699
575.691
602.261
630.412
360.955
362.262
364.884
368.835
374.135
380.808
388.881
398.381
409.336
421.771
435.711
451.176
468.182
486.746
506.877
528.584
551.875
576.752
603.219
631.276
364.38
365.648
368.194
372.036
377.198
383.711
391.607
400.921
411.686
423.933
437.688
452.975
469.814
488.221
508.208
529.783
552.953
577.721
604.089
632.058
367.558
368.788
371.258
374.991
380.017
386.372
394.096
403.23
413.812
425.877
439.456
454.577
471.259
489.521
509.375
530.829
553.89
578.559
604.839
632.729
370.257
371.451
373.852
377.487
382.391
388.606
396.178
405.153
415.574
427.482
440.91
455.887
472.437
490.576
510.318
531.671
554.64
579.228
605.436
633.261
372.231
373.398
375.748
379.308
384.119
390.228
397.685
406.54
416.841
428.631
441.947
456.819
473.271
491.321
510.981
532.261
555.165
579.695
605.851
633.631
373.277
374.43
376.751
380.27
385.031
391.082
398.477
407.268
417.504
429.232
442.488
457.304
473.704
491.707
511.325
532.566
555.436
579.936
606.064
633.82
373.277
374.43
376.751
380.27
385.031
391.082
398.477
407.268
417.504
429.232
442.488
457.304
473.704
491.707
511.325
532.566
555.436
579.936
606.064
633.82
372.231
373.398
375.748
379.308
384.119
390.228
397.685
406.54
416.841
428.631
441.947
456.819
473.271
491.321
510.981
532.261
555.165
579.695
605.851
633.631
370.257
371.451
373.852
377.487
382.391
388.606
396.178
405.153
415.574
427.482
440.91
455.887
472.437
490.576
510.318
531.671
554.64
579.228
605.436
633.261
367.558
368.788
371.258
374.991
380.017
386.372
394.096
403.23
413.812
425.877
439.456
454.577
471.259
489.521
509.375
530.829
553.89
578.559
604.839
632.729
364.38
365.648
368.194
372.036
377.198
383.711
391.607
400.921
411.686
423.933
437.688
452.975
469.814
488.221
508.208
529.783
552.953
577.721
604.089
632.058
360.955
362.262
364.884
368.835
374.135
380.808
388.881
398.381
409.336
421.771
435.711
451.176
468.182
486.746
506.877
528.584
551.875
576.752
603.219
631.276
357.48
358.824
361.517
365.571
371.001
377.826
386.066
395.745
406.884
419.505
433.626
449.267
466.441
485.162
505.441
527.284
550.699
575.691
602.261
630.412
354.1
355.477
358.234
362.379
367.926
374.888
383.281
393.123
404.432
417.224
431.517
447.324
464.658
483.531
503.953
525.93
549.468
574.573
601.247
629.493
350.91
352.315
355.126
359.351
364.999
372.08
380.607
390.593
402.053
415
429.447
445.406
462.888
481.903
502.458
524.561
548.217
573.431
600.206
628.544
347.963
349.39
352.247
356.539
362.272
369.455
378.096
388.207
399.798
412.88
427.463
443.557
461.171
480.314
500.992
523.211
546.976
572.292
599.162
627.588
)
;
    }
    coldSide
    {
        type            mixed;
        refValue        uniform 300;
        refGradient     uniform 0;
        valueFraction   uniform 0.991591;
        source          uniform 0;
        value           nonuniform List<scalar> 
400
(
300.02
300.02
300.02
300.02
300.021
300.021
300.022
300.022
300.023
300.024
300.025
300.025
300.026
300.028
300.029
300.03
300.031
300.033
300.034
300.035
300.02
300.02
300.02
300.021
300.021
300.021
300.022
300.022
300.023
300.024
300.025
300.026
300.027
300.028
300.029
300.03
300.031
300.033
300.034
300.035