/*--------------------------------*- C++ -*----------------------------------*\
| =========                 |                                                 |
| \\      /  F ield         | OpenFOAM: The Open Source CFD Toolbox           |
|  \\    /   O peration     | Version:  2212                                  |
|   \\  /    A nd           | Website:  www.openfoam.com                      |
|    \\/     M anipulation  |                                                 |
\*---------------------------------------------------------------------------*/
FoamFile
{
    version     2.0;
    format      ascii;
    arch        "LSB;label=32;scalar=64";
    class       volScalarField;
    location    "0";
    object      stateMean;
}
// * * * * * * * * * * * * * * * * * * * * * * * * * * * * * * * * * * * * * //

dimensions      [0 0 0 1 0 0 0];

internalField   nonuniform List<scalar> 
3200
(
347.048
351.737
346.117
345.381
347.897
349.253
348.278
354.811
350.088
352.866
352.377
352.993
352.623
349.458
353.313
353.15
350.797
347.543
342.843
346.726
339.96
341.992
341.666
341.407
342.79
346.847
347.714
344.439
343.299
346.523
343.262
344.813
342.619
343.836
347.566
343.206
346.839
344.788
340.609
338.396
332.644
337.205
333.04
335.072
336.619
339.779
335.37
341.356
341.027
336.706
339.255
341.817
340.553
336.41
339.06
340.034
336.515
337.95
336.81
337.176
327.39
326.035
326.121
330.946
333.176
331.162
327.864
335.65
331.279
332.175
329.521
335.266
330.705
330.227
334.732
329.15
327.172
328.589
326.208
329.013
318.729
320.67
324.844
323.071
317.654
321.619
324.764
327.589
326.144
327.681
325.889
324.777
321.02
323.075
323.488
328.025
323.217
323.375
320.66
320.661
315.475
315.152
314.347
314.132
318.409
316.036
314.229
318.15
315.883
321.474
316.887
317.171
312.781
322.142
314.151
315.212
312.366
318.368
316.784
317.12
309.741
309.526
309.379
315.137
308.891
311.522
307.888
310.868
308.17
311.159
308.218
308.18
307.817
312.651
313.979
308.439
311.402
308.694
312.411
309.037
303.013
301.81
303.866
301.271
302.722
305.002
303.38
304.689
302.507
300.818
301.379
302.094
302.284
303.431
301.573
304.822
303.456
303.304
303.286
303.708
343.182
349.594
349.143
351.085
347.854
350.884
352.363
349.841
355.583
353.062
353.395
355.723
351.153
353.014
353.006
353.951
353.193
355.061
348.686
346.136
338.772
346.351
348.547
341.247
345.315
346.562
342.562
347.035
346.974
348.364
348.419
345.313
348.019
348.802
347.04
345.897
343.826
345.149
343.041
339.678
335.561
335.743
332.513
336.722
334.226
338.034
337.912
342.314
342.395
339.066
336.206
341.189
333.948
338.626
341.158
334.501
335.946
335.841
336.121
332.925
328.983
332.783
327.371
336.51
331.392
330.262
330.288
329.863
328.668
331.722
334.228
333.01
334.891
329.55
332.306
327.668
331.641
329.924
331.348
325.188
326.727
323.378
321.56
320.89
322.588
325.755
322.917
326.329
321.509
324.307
321.696
323.371
327.384
329.819
322.395
324.48
323.162
319.028
324.327
322.831
317.185
318.084
316.087
316.716
317.375
317.185
318.482
322.1
316.836
318.645
319.376
318.52
315.554
317.499
317.936
314.529
319.367
317.085
313.98
315.04
309.448
312.54
309.848
310.14
312.484
314.239
311.797
309.096
311.256
309.392
311.932
309.9
311.406
311.779
308.755
310.134
310.777
310.211
307.698
313.049
302.609
301.429
300.333
305.333
308.33
301.895
304.474
305.167
302.891
307.843
302.802
305.606
305.721
304.807
304.555
300.772
303.247
304.499
305.066
303.686
350.972
354.137
354.663
354.898
350.783
355.053
353.768
357.492
355.07
355.852
357.432
349.953
358.691
351.944
353.514
354.278
347.012
354.401
347.307
348.683
342.115
342.98
343.024
341.34
348.261
346.707
344.61
351.897
344.356
350.393
349.331
346.496
348.596
346.79
344.365
346.552
345.257
338.762
342.7
342.727
332.237
337.694
334.698
333.418
340.876
340.625
340.408
340.031
340.086
341.212
339.378
341.273
345.488
338.441
341.047
337.427
338.218
337.099
336.205
338.552
332.496
330.556
328.349
330.18
333.28
336.446
333.229
331.486
333.57
330.968
331.709
334.874
335.638
331.835
332.145
329.598
332.806
331.934
327.317
325.805
320.724
323.877
322.523
321.726
325.973
324.248
325.426
323.771
325.725
327.063
327.397
323.012
324.051
325.142
324.186
324.914
324.136
323.734
319.879
322.223
314.068
315.142
321.695
320.022
315.199
313.142
319.059
319.085
322.79
318.181
318.795
318.068
319.546
318.216
319.453
314.35
318.006
312.335
317.831
318.963
314.108
310.712
315.242
311.025
311.711
306.916
311.305
307.245
312.292
310.773
310.516
312.563
313.786
307.329
308.229
307.586
308.876
311.748
314.024
309.422
302.712
306.609
305.486
301.882
301.709
301.865
305.14
304.108
304.454
301.147
298.351
302.699
302.965
303.578
298.786
302.123
303.106
305.301
300.037
305.75
348.535
349.426
352.434
349.935
349.807
355.007
357.432
354.4
354.263
356.507
356.467
358.624
360.94
353.781
356.89
356.215
355.381
350.326
351.109
350.016
342.477
346.531
346.326
348.147
348.588
347.662
351.521
347.886
348.834
348.751
348.265
348.044
347.859
347.785
346.585
350.221
345.65
347.527
344.451
344.569
335.671
337.729
340.465
340.629
337.749
336.708
339.774
345.541
339.298
338.832
343.896
340.851
342.474
339.878
337.757
337.285
337.279
342.763
337.832
338.678
331.974
333.613
330.32
332.078
335.738
332.42
330.712
332.948
337.044
331.517
332.805
331.837
334.599
333.464
333.251
330.358
333.338
329.715
330.428
332.016
324.623
325.115
325.769
324.08
324.671
324.231
326.972
324.651
326.663
330.219
324.832
326.124
326.604
327.083
327.281
322.605
323.242
321.852
322.667
326.606
321.659
316.908
318.185
317.391
316.529
315.269
315.547
318.417
322.154
317.801
317.962
317.813
319.14
318.504
314.255
314.967
316.643
319.627
317.417
318.568
311.854
309.206
309.678
310.128
311.225
313.734
314.704
308.339
309.176
312.725
311.512
313.025
314.135
310.722
315.691
310.349
312.596
310.02
310.963
309.901
306.124
304.255
306.964
299.523
301.288
299.005
304.486
301.758
304.157
304.976
305.798
305.217
303.789
303.947
302.5
303.634
304.219
303.352
303.348
302.434
351.907
347.935
350.71
355.555
357.434
361.833
354.874
359.793
354.251
359.232
360.658
363.118
358.382
358.241
354.435
355.399
354.116
352.512
350.717
346.185
342.641
342.738
348.487
349.134
349.762
350.481
349.918
351.24
348.754
348.624
352.98
349.537
346.484
350.57
348.287
351.618
348.208
346.87
347.456
344.479
336.362
340.581
339.787
340.398
339.714
345.186
347.913
340.073
342.949
341.163
343.594
339.8
344.034
337.144
338.664
343.692
340.835
339.559
341.35
336.416
331.51
332.68
334.291
334.551
333.616
335.331
334.563
338.997
331.265
330.462
330.271
335.472
331.3
335.518
333.64
333.018
335.385
335.79
332.971
333.31
328.027
323.906
326.018
325.532
328.232
328.947
327.646
329.165
326.253
325.239
329.447
328.292
327.136
324.866
325.584
325.481
322.624
324.312
324.025
322.869
321.018
315.833
317.517
320.445
321.362
317.844
320.77
320.204
320.034
319.036
320.728
317.157
317.068
317.668
320.482
318.242
319.421
314.403
313.79
315.788
308.792
313.566
314.59
310.327
312.055
306.84
312.962
309.338
309.067
310.762
314.771
308.567
314.4
310.9
310.051
311.384
310.502
309.555
310.191
308.228
302.208
303.67
300.342
302.669
303.164
304.663
303.07
307.542
300.764
303.503
302.831
306.113
300.477
303.942
301.554
302.555
303.097
303.11
307.406
301.048
349.482
353.257
352.986
355.283
357.557
360.524
363.487
363.711
360.851
360.127
357.463
362.305
362.269
358.701
356.512
362.654
357.613
358.317
355.482
349.224
347.309
346.265
347.73
348.403
345.467
347.708
351.871
348.17
351.669
349.306
349.329
354.225
348.056
349.556
347.863
348.655
345.913
347.385
345.08
347.139
342.805
341.756
342.946
339.533
342.105
338.506
345.84
342.749
342.861
342.217
341.109
342.246
343.928
346.267
339.42
340.396
339.969
338.234
336.973
337.115
330.909
331.079
336.475
334.853
337.801
334.099
335.319
338.942
334.489
338.4
337.283
336.617
338.247
330.342
334.643
330.139
331.725
332.903
331.71
329.93
326.254
324.141
325.018
325.636
327.886
330.737
330.099
332.202
329.826
326.675
329.763
327.383
328.644
326.289
323.153
327.324
324.254
327.091
327.072
322.392
313.641
317.273
321.456
322.941
316.917
324.359
319.868
316.329
323.252
319.277
318.006
318.076
321.342
323.137
319.403
319.843
315.467
317.69
317.415
315.814
309.598
309.542
313.856
314.129
309.632
312.702
309.883
314.704
307.404
315.894
313.184
311.174
315.795
312.028
312.292
311.496
309.724
312.851
313.224
308.445
304.03
307.12
304.848
302.478
303.127
304.457
299.972
299.786
306.802
305.416
301.6
306.205
304.068
304.035
301.39
304.658
302.087
302.753
306.269
303.466
358.424
352.929
354.031
358.672
360.598
361.369
360.453
363.926
359.524
365.036
358.093
361.151
365.398
358.572
360.752
362.742
356.76
353.723
354.054
352.531
344.373
348.321
347.388
347.442
348.605
350.45
352.877
352.302
353.985
354.637
356.155
354.38
356.285
353.302
350.06
346.237
347.2
350.037
349.72
345.995
342.606
339.561
341.982
339.386
343.16
344.026
345.038
347.52
344.576
344.182
343.965
343.331
349.711
343.107
343.91
342.127
339.635
337.746
337.07
339.041
330.839
331.272
337.881
332.013
336.312
334.005
337.266
337.271
339.552
333.485
336.639
334.599
336.064
336.756
333.506
332.975
335.46
337.816
335.06
333.626
324.193
325.398
329.101
325.048
322.17
327.615
324.172
329.54
325.57
328.132
327.367
328.249
330.063
326.504
326.611
328.738
325.964
324.425
323.676
326.678
314.053
315.062
320.887
319.98
316.733
316.472
317.482
323.6
317.506
322.074
321.22
318.624
321.535
319.358
318.897
316.839
315.432
319.106
317.34
317.903
312.578
310.744
311.337
316.261
310.609
316.401
311.618
315.841
312.007
309.686
310.759
316.097
313.511
308.209
311.917
310.085
317.085
308.999
308.967
311.715
304.843
303.64
307.133
302.519
305.82
303.197
302.443
305.624
301.539
306.899
303.546
302.457
303.325
310.012
299.564
306.121
301.544
298.727
298.847
305.387
354.169
353.078
362.118
358.23
360.341
361.542
362.743
359.241
364.734
359.98
361.983
362.469
365.71
364.757
359.948
360.862
359.909
361.035
353.864
352.199
347.085
350.394
349.682
347.115
355.41
348.739
349.694
350.572
352.769
350.975
349.447
354.705
351.167
353.908
349.435
349.629
346.938
354.061
346.326
346.664
342.617
340.63
340.298
339.437
344.169
349.107
342.419
348.584
344.147
344.557
347.553
346.579
341.754
340.688
343.983
345.69
345.853
342.501
343.679
339.994
333.447
332.861
334.127
334.164
335.387
335.41
337.225
334.972
337.323
339.884
338.481
336.379
336.545
335.258
339.94
336.775
334.509
336.707
333.238
333.432
322.751
326.245
325.582
329.48
326.545
329.235
327.298
324.247
330.123
329.812
328.947
329.154
325.616
327.936
328.842
324.404
327.887
328.136
325.856
324.734
317.648
318.618
321.446
318.786
319.217
321.888
323.258
321.148
320.745
317.312
319.051
321.879
321.002
323.016
318.568
320.221
320.602
318.366
318.896
318.36
311.986
309.606
310.373
310.962
311.832
314.58
313.654
312.616
312.526
319.785
313.492
309.279
309.089
309.802
311.392
312.089
313.487
310.726
306.396
311.281
304.681
303.738
305.318
301.209
302.815
305.799
303.188
306.805
304.304
301.285
304.717
302.877
302.484
303.129
307.533
302.957
298.94
302.484
306.094
301.03
352.888
359.063
362.271
355.918
357.895
363.831
360.274
361.21
368.013
362.767
364.733
362.029
363.692
363.073
359.556
360.44
359.325
360.079
356.968
357.295
345.473
355.894
350.041
353.553
351.127
353.092
360.572
353.256
353.683
357.971
353.83
355.125
353.847
358.71
352.129
352.994
351.062
350.386
348.463
350.696
337.927
340.229
343.229
347.014
344.039
346.735
345.897
346.549
347.405
344.186
348.144
345.123
342.649
345.038
338.683
343.816
346.928
342.831
341.838
344.834
333.315
335.041
334.642
337.787
334.886
338.101
331.793
337.533
340.093
338.67
336.957
335.717
337.216
333.58
338.905
339.835
333.572
332.091
335.433
331.488
324.455
324.506
333.154
327.815
325.676
329.046
328.545
327.655
328.832
329.714
327.419
326.32
326.849
327.838
329.225
328.027
323.411
329.23
327.319
322.865
320.867
315.516
316.257
317.355
319.384
321.041
316.941
323.465
319.004
321.62
321.12
321.291
325.08
323.306
323.402
322.945
317.761
319.655
318.766
321.308
313.956
310.437
310.465
309.815
311.706
311.5
310.508
314.848
314.595
316.349
316.006
310.553
313.398
312.315
308.458
313.693
308.889
313.728
310.327
312.546
304.035
306.782
305.16
303.314
304.435
303.318
305.699
305.315
304.421
306.565
302.527
303.916
301.952
307.393
302.818
311.609
300.231
305.19
302.57
309.419
356.529
358.247
364.075
360.647
364.61
367.115
363.014
364.049
367.087
364.51
366.877
368.061
362.125
361.583
366.43
364.2
359.678
358.961
356.041
355.135
347.285
348.187
350.447
353.564
351.904
351.129
356.074
352.04
356.01
353.406
353.908
356.792
352.625
349.89
352.249
355.126
350.38
353.316
348.171
354.685
339.969
341.453
340.848
345.445
344.839
347.849
349.946
346.316
348.984
349.928
347.983
350.65
344.237
342.991
346.486
345.615
342.695
344.088
344.713
339.944
332.796
337.475
336.013
332.164
335.65
338.193
339.446
337.679
335.482
337.524
344.459
338.824
340.408
340.86
336.129
336.505
333.753
334.073
339.724
333.533
329.658
325.404
329.54
328.661
328.28
332.861
331.3
328.65
327.061
325.915
333.21
328.757
326.981
327.523
330.685
325.309
326.613
326.092
327.367
327.42
320.627
316.675
324.19
323.338
317.4
321.244
324.372
327.409
321.731
317.616
323.104
327.992
320.88
322.853
316.95
322.012
316.896
319.619
316.47
318.615
310.404
311.759
311.676
310.269
309.872
315.998
316.521
316.189
309.378
316.005
314.034
313.094
310.548
311.852
309.02
312.298
313.523
312.438
314.23
306.614
298.658
303.226
301.525
305.061
304.536
302.845
304.124
304.608
304.256
305.795
305.306
302.834
305.832
305.351
306.51
303.728
308.901
301.531
300.566
303.477
363.406
355.521
363.832
365.555
360.702
368.215
367.691
365.921
367.223
362.04
368.048
366.323
365.646
365.481
361.545
366.49
368.121
363.214
357.068
361.293
349.993
355.221
351.998
354.382
356.369
352.854
358.99
354.992
356.112
353.488
354.328
356.319
353.836
356.421
351.88
352.562
350.546
350.686
350.21
350.217
345.242
340.965
340.567
342.571
342.867
347.36
351.301
348.231
348.324
349.347
352.272
347.223
350.209
348.26
345.171
341.572
345.357
342.111
346.964
340.333
334.651
331.977
334.22
340.499
334.756
341.579
340.867
339.515
342.496
338.593
339.195
338.246
337.242
338.051
341.347
342.262
338.208
336.38
336.986
340.057
330.707
328.714
326.393
330.217
328.892
332.812
332.001
329.912
331.173
332.051
330.645
333.411
330.436
330.999
330.583
329.647
331.407
327.638
327.819
324.474
323.574
314.094
318.213
319.372
322.804
323.023
321.623
319.048
326.074
318.749
323.269
322.92
321.524
319.132
322.364
318.166
316.088
319.758
318.157
320.669
310.598
308.933
313.663
315.037
314.614
311.784
316.722
313.71
314.187
313.592
312.026
307.985
310.412
312.908
316.936
306.857
316.816
311.212
309.904
312.338
304.103
305.45
302.5
302.496
301.939
308.424
309.121
302.787
299.245
308.802
301.333
303.383
304.575
307.47
303.448
303.153
304.941
302.021
303.814
304.084
366.316
359.642
360.047
364.525
360.508
364.515
368.255
365.783
368.94
366.464
366.44
366.93
363.664
367.41
368.086
360.252
363.299
363.972
360.872
360.829
347.95
350.655
354.569
354.616
352.998
358.472
356.172
354.457
358.666
358.713
358.813
358.622
357.402
357.629
357.205
359.679
349.071
354.252
353.716
350.041
340.862
348.254
344.34
342.146
345.629
350.687
344.914
347.253
346.955
347.186
346.153
348.441
347.651
351.579
344.494
345.409
345.367
344.719
342.878
341.79
336.405
336.808
338.262
334.96
336.196
339.172
339.028
339.647
340.078
338.569
342.2
344.24
340.628
342.701
335.684
341.743
336.69
340.041
335.794
335.96
325.23
322.519
330.612
331.806
329.929
330.251
332.989
328.293
332.867
332.437
331.456
333.168
331.559
329.924
330.05
328.213
329.744
330.646
328.675
324.6
320.758
320.489
318.509
320.527
322.485
321.568
322.21
326.345
320.467
320.705
321.79
323.087
323.043
319.484
321.614
320.532
323.419
321.786
318.662
323.313
310.495
312.573
307.175
309.301
312.933
313.504
308.22
313.909
311.512
311.083
316.024
309.746
312.179
311.556
309.091
316.678
311.05
310.578
308.541
310.794
304.831
305.158
305.331
301.977
304.772
305.245
305.386
303.419
301.115
305.635
306.883
300.938
304.381
301.25
306.291
302.925
306.219
306.746
308.109
302.009
361.131
363.359
369.723
361.296
365.975
367.572
367.284
368.808
369.784
371.295
365.929
366.802
370.855
369.883
366.899
363.854
363.498
358.752
359.097
356.888
354.004
356.023
355.782
354.345
356.734
355.342
358.042
355.973
362.337
357.254
357.512
362.388
355.831
355.37
356.532
357.908
355.656
355.345
353.952
353.789
345.478
346.722
343.472
346.835
348.6
350.228
346.249
352.527
352.709
349.747
348.823
344.819
351.285
348.797
349.546
347.089
346.963
347.776
346.03
343.413
336.466
337.334
341.445
338.277
338.746
340.573
338.33
340.935
341.668
344.34
340.774
342.964
338.452
337.988
339.662
342.027
338.365
333.898
332.834
335.234
328.264
327.423
328.356
329.499
332.176
333.553
326.881
329.641
330.667
333.264
330.527
336.027
333.198
334.464
331.003
335.978
329.672
329.216
325.75
326.377
319.958
319.231
320.403
323.842
321.153
325.509
324.668
322.404
321.954
324.353
323.613
324.95
324.108
321.046
323.61
325.272
327.199
318.138
318.458
325.709
314.865
313.316
313.452
312.227
313.087
314.657
314.161
315.688
313.922
314.33
316.49
312.282
314.416
313.228
314.711
313.315
315.199
313.082
313.766
312.3
306.807
299.289
304.735
303.197
306.252
302.003
304.905
302.602
304.72
305.045
308.723
303.414
306.244
307.368
305.403
307.056
304.212
303.786
304.97
302.6
361.244
360.431
365.865
365.499
368.151
367.616
368.816
367.241
364.247
369.741
372.323
370.6
368.165
370.972
368.02
365.078
364.093
362.577
357.739
361.889
353.455
355.852
357.332
353.363
360.014
361.023
357.011
361.344
359.175
358.056
363.589
357.405
359.015
358.743
356.172
358.058
359.746
354.764
350.971
347.215
347.197
348.641
347.514
347.51
346.476
346.178
349.603
344.8
353.186
352.183
351.091
351.483
351.024
352.354
350.441
348.759
349.574
349.532
342.722
345.475
332.785
341.974
338.297
334.854
338.127
335.475
344.156
340.603
341.223
343.77
341.039
345.308
337.975
336.847
338.086
342.135
339.619
334.066
336.735
337.425
327.219
326.712
325.925
332.773
330.607
331.421
328.022
332.741
330.691
333.292
330.563
331.646
332.105
333.556
330.9
330.769
328.491
326.903
331.105
331.288
317.12
321.85
324.093
317.775
322.155
324.673
327.867
320.56
322.96
321.719
322.67
322.821
321.69
323.276
325.808
325.411
324.172
322.723
322.661
318.535
311.556
310.509
313.906
313.167
309.052
314.897
312.873
310.243
315.634
312.745
311.201
309.076
315.329
314.881
316.046
315.755
312.705
315.012
311.348
312.26
302.89
307.554
302.683
304.837
305.21
307.244
308.42
306.242
306.719
303.058
305.876
302.584
298.905
300.482
303.699
304.488
303.565
302.566
304.917
305.314
363.458
364.099
368.333
365.921
362.245
370.296
369.799
369.141
370.535
369.658
370.466
371.053
365.579
374.846
369.079
368.02
362.631
364.7
364.139
363.294
350.555
360.564
353.714
358.302
354.621
359.25
360.415
359.291
358.963
359.051
360.852
359.564
360.35
358.128
358.922
358.744
357.873
353.857
357.695
348.938
343.964
345.698
353.483
348.365
349.734
349.273
352.34
350.545
350.595
350.746
352.908
348.471
349.667
346.323
349.842
348.63
346.072
347.594
344.22
345.675
335.364
333.146
340.318
341.714
344.899
339.578
340.04
340.81
344.294
339.433
338.452
342.356
340.354
341.87
339.39
341.556
336.691
335.712
338.894
333.103
323.291
327.85
329.265
330.082
329.499
334.804
327.361
338.441
332.182
331.442
336.8
333.128
332.516
331.366
331.947
333.868
330.834
325.996
333.062
329.612
318.861
320.517
321.647
320.968
317.582
323.874
325.162
323.946
323.646
325.854
322.96
324.07
320.103
325.84
322.342
323.692
322.622
323.108
319.933
325.31
312.662
312.332
316.772
312.118
316.17
311.651
314.863
313.656
314.428
313.365
313.747
314.974
315.153
313.128
314.333
310.883
313.175
314.261
312.456
309.876
301.099
307.315
304.304
299.223
303.755
303.294
308.502
303.775
303.146
303.616
303.977
306.117
303.257
306.29
303.399
303.439
303.77
304.043
303.174
306.963
360.948
361.98
364.432
364.838
367.007
371.406
370.102
371.24
370.861
371.929
369.401
365.1
371.645
366.789
369.3
365.437
365.69
363.299
361.268
360.597
350.513
354.383
351.927
354.178
357.567
356.9
358.906
362.728
361.483
361.964
359.219
357.118
361.863
354.879
358.911
358.118
354.184
357.505
350.41
352.783
347.075
345.028
349.689
349.322
349.456
350.49
349.937
347.072
349.008
353.774
351.39
350.867
349.966
350.585
353.944
347.992
350.058
348.359
348.473
347.441
336.845
338.121
342.71
340.845
341.803
342.094
341.53
340.846
346.419
342.816
340.879
340.418
345.332
336.862
336.802
336.062
335.1
339.15
336.437
337.535
329.812
327.235
331.707
327.939
325.341
337.477
333.887
328.383
336.365
331.426
334.673
330.083
326.723
331.834
324.638
332.733
330.778
330.239
330.333
329.189
323.821
322.492
322.901
324.001
326.89
323.627
325.015
323.159
324.656
325.321
321.315
324.593
324.502
325.669
324.132
322.826
320.189
324.129
324.843
321.279
310.553
315.145
314.692
309.863
310.087
312.611
313.398
312.333
314.006
312.323
314.583
314.763
314.431
313.988
312.849
317.159
310.444
315.045
310.806
310.568
306.155
305.603
302.589
305.777
304.3
302.555
306.012
305.604
304.524
304.292
303.398
307.12
302.412
306.045
306.464
304.329
303.392
308.984
306.187
297.013
366.133
362.529
364.61
366.545
367.805
368.773
369.021
369.935
371.537
371.577
371.549
372.543
371.327
368.793
369.097
365.897
364.143
365.616
367.522
359.304
350.637
363.303
354.503
363.233
360.775
362.495
358.627
363.233
356.425
363.985
364.094
360.142
364.183
356.893
363.506
361.12
362.42
357.768
361.849
353.385
344.947
346.66
346.939
348.51
350.602
351.022
350.622
350.857
353.926
352.848
353.161
352.486
350.633
350.807
350.423
353.296
345.122
348.844
348.649
344.766
337.512
336.643
332.108
339.259
342.26
340.901
338.656
338.506
345.53
343.293
339.222
341.412
340.976
343.038
339.916
342.195
340.135
342.035
339.65
337.6
328.67
327.886
327.222
334.457
330.525
331.747
334.819
330.488
332.474
331.942
334.093
332.217
330.455
332.431
334.334
330.102
331.916
328.002
327.553
326.741
321.203
316.315
316.546
325.712
321.212
319.097
322.367
325.552
319.747
322.338
321.551
317.885
320.857
326.824
322.604
318.748
322.763
322.658
321.378
318.641
312.817
316.658
311.683
315.911
311.162
311.404
318.604
313.739
314.607
312.348
312.215
314.037
311.265
313.16
309.674
315.23
313.629
311.761
311.791
316.827
304.363
302.456
302.626
303.373
302.953
305.035
303.077
305.16
307.455
303.852
306.466
301.783
301.016
308.502
301.489
305.443
305.554
306.665
301.322
305.012
361.839
366.73
367.377
366.182
367.529
368.406
370.02
372.825
371.378
368.618
373.564
370.099
370.886
369.272
368.52
371.612
367.596
367.119
368.638
356.229
354.03
355.389
358.065
355.675
360.666
356.627
363.653
358.664
357.131
357.916
362.127
360.941
360.61
362.126
360.689
357.799
356.07
356.138
355.834
356.047
346.731
348.208
348.536
350.573
350.895
350.312
345.446
351.626
350.26
351.289
352.16
350.757
349.458
352.071
355.182
351.987
349.364
346.703
347.843
344.235
340.134
339.73
340.501
335.062
338.736
339.799
343.581
342.729
341.737
344.442
342.253
341.454
341.116
343.478
341.992
342.088
341.419
339.344
339.174
336.64
327.497
329.121
326.21
330.31
326.961
331.171
331.385
332.504
336.681
331.077
332.623
331.865
331.041
332.385
331.266
331.363
331.081
331.377
330.788
325.801
315.96
320.679
321.79
318.587
321.409
325.2
322.184
323.045
321.249
322.461
324.48
323.539
321.052
322.935
322.346
322.169
324.164
322.096
325.562
321.568
311.047
311.739
312.368
312.311
312.352
313.455
310.834
318.232
314.65
310.099
317.073
313.409
314.75
318.079
314.548
314.115
312.399
314.989
311.555
315.823
304.601
306.362
304.562
304.69
305.445
305.741
303.977
298.971
309.206
304.07
302.766
303.099
305.054
300.325
304.451
307.518
302.914
304.737
307.354
305.936
362.141
362.191
367.641
367.887
370.31
364.145
372.628
373.584
367.452
367.209
367.098
369.73
372.648
371.418
371.796
364.913
370.58
367.271
365.062
359.792
351.745
366.678
357.225
368.05
360.94
366.39
356.411
368.21
360.435
368.184
368.938
361.04
368.928
362.215
368.431
360.232
368.266
358.875
367.639
347.73
342.241
345.59
349.822
351.759
350.967
350.805
351.29
353.032
349.68
350.606
356.401
352.181
351.585
353.172
349.451
351.249
351.709
348.28
347.205
342.243
336.892
340.849
343.314
342.373
345.046
342.536
339.77
348.224
339.406
344.388
340.591
341.929
342.268
344.341
340.944
344.552
342.117
337.891
337.372
339.834
329.017
333.022
326.318
326.976
332.77
332.91
330.766
334.406
331.89
329.497
328.95
336.127
332.811
331.133
334.484
331.903
331.279
330.851
330.553
329.996
323.348
324.298
318.157
323.858
322.393
323.135
321.248
322.114
329.216
320.705
323.564
325.344
324.265
322.107
321.153
323.384
320.255
323.98
323.627
317.862
314.885
313.539
315.385
312.089
311.851
311.832
313.102
315.983
313.913
315.974
313.149
317.484
313.99
310.95
312.669
314.711
312.159
313.27
310.546
313.258
305.781
304.604
304.434
305.38
308.124
303.609
302.554
304.575
304.839
302.094
309.16
304.942
307.62
305.775
303.473
299.953
304.283
300.719
307.076
303.694
363.598
367.409
360.409
364.59
369.123
367.175
368.321
370.997
372.303
372.724
378.22
372.228
373.113
368.192
371.497
367.663
366.669
366.768
363.682
361.553
355.562
354.824
353.39
359.398
358.803
358.244
358.314
363.943
365.257
359.163
366.834
364.936
358.957
362.025
356.988
355.657
353.723
354.515
359.923
351.507
345.61
346.461
345.745
350.228
349.425
353.908
345.969
351.33
355.998
350.86
353.081
352.961
351.047
347.972
353.033
349.83
351.451
346.39
344.235
346.042
341.112
340.097
342.067
341.509
340.712
341.129
345.253
337.514
339.102
338.023
345.281
342.835
340.9
343.472
343.407
339.213
341.573
339.947
338.097
338.107
328.478
327.477
332.612
331.409
332.696
335.362
332.485
330.335
329.965
329.983
333.156
329.365
332.464
334.518
332.333
330.989
327.889
327.769
329.209
330.02
325.133
316.435
325.321
324.095
324.787
324.237
323.013
324.192
324.824
325.388
323.31
324.295
326.073
322.667
323.163
319.058
324.353
320.407
322.939
321.528
315.036
309.034
313.996
314.407
315.067
314.886
313.085
312.936
315.136
315.882
313.359
312.198
313.93
310.091
318.35
313.945
312.458
314.928
313.963
313.098
306.344
304.739
304.764
305.329
305.681
303.333
304.695
306.588
303.361
304.333
307.676
302.598
306.402
303.849
300.834
301.03
302.934
304.233
302.87
301.874
)
;

boundaryField
{
    hotSide
    {
        type            fixedGradient;
        gradient        nonuniform List<scalar> 
400
(
321.511
322.87
325.591
329.677
335.133
341.965
350.181
359.788
370.794
383.208
397.037
412.289
428.971
447.088
466.647
487.651
510.105
534.011
559.372
586.191
323.738
325.08
327.767
331.802
337.194
343.949
352.078
361.591
372.498
384.81
398.537
413.687
430.268
448.289
467.755
488.672
511.043
534.872
560.161
586.913
326.149
327.47
330.116
334.091
339.406
346.071
354.099
363.503
374.296
386.491
400.101
415.136
431.606
449.52
468.885
489.706
511.988
535.735
560.948
587.63
328.704
330
332.597
336.503
341.73
348.292
356.205
365.485
376.15
388.215
401.695
416.604
432.954
450.753
470.009
490.73
512.919
536.579
561.714
588.325
331.33
332.599
335.142
338.97
344.099
350.546
358.332
367.477
378.003
389.928
403.271
418.047
434.27
451.949
471.095
491.712
513.807
537.382
562.439
588.978
333.918
335.158
337.643
341.389
346.414
352.74
360.392
369.397
379.779
391.562
404.765
419.407
435.503
453.065
472.101
492.618
514.622
538.114
563.096
589.569
336.321
337.531
339.959
343.622
348.544
354.751
362.274
371.142
381.385
393.031
406.101
420.618
436.595
454.047
472.983
493.409
515.33
538.747
563.663
590.076
338.36
339.543
341.92
345.509
350.339
356.44
363.847
372.595
382.718
394.244
407.2
421.608
437.485
454.844
473.695
494.045
515.897
539.253
564.114
590.478
339.852
341.015
343.352
346.885
351.645
357.665
364.985
373.643
383.675
395.113
407.984
422.312
438.116
455.407
474.197
494.491
516.294
539.606
564.428
590.758
340.643
341.795
344.11
347.613
352.334
358.311
365.584
374.193
384.176
395.567
408.393
422.679
438.443
455.699
474.456
494.722
516.498
539.788
564.589
590.901
340.643
341.795
344.11
347.613
352.334
358.311
365.584
374.193
384.176
395.567
408.393
422.679
438.443
455.699
474.456
494.722
516.498
539.788
564.589
590.901
339.852
341.015
343.352
346.885
351.645
357.665
364.985
373.643
383.675
395.113
407.984
422.312
438.116
455.407
474.197
494.491
516.294
539.606
564.428
590.758
338.36
339.543
341.92
345.509
350.339
356.44
363.847
372.595
382.718
394.244
407.2
421.608
437.485
454.844
473.695
494.045
515.897
539.253
564.114
590.478
336.321
337.531
339.959
343.622
348.544
354.751
362.274
371.142
381.385
393.031
406.101
420.618
436.595
454.047
472.983
493.409
515.33
538.747
563.663
590.076
333.918
335.158
337.643
341.389
346.414
352.74
360.392
369.397
379.779
391.562
404.765
419.407
435.503
453.065
472.101
492.618
514.622
538.114
563.096
589.569
331.33
332.599
335.142
338.97
344.099
350.546
358.332
367.477
378.003
389.928
403.271
418.047
434.27
451.949
471.095
491.712
513.807
537.382
562.439
588.978
328.704
330
332.597
336.503
341.73
348.292
356.205
365.485
376.15
388.215
401.695
416.604
432.954
450.753
470.009
490.73
512.919
536.579
561.714
588.325
326.149
327.47
330.116
334.091
339.406
346.071
354.099
363.503
374.296
386.491
400.101
415.136
431.606
449.52
468.885
489.706
511.988
535.735
560.948
587.63
323.738
325.08
327.767
331.802
337.194
343.949
352.078
361.591
372.498
384.81
398.537
413.687
430.268
448.289
467.755
488.672
511.043
534.872
560.161
586.913
321.511
322.87
325.591
329.677
335.133
341.965
350.181
359.788
370.794
383.208
397.037
412.289
428.971
447.088
466.647
487.651
510.105
534.011
559.372
586.191
)
;
    }
    coldSide
    {
        type            mixed;
        refValue        uniform 300;
        refGradient     uniform 0;
        valueFraction   uniform 0.991591;
        source          uniform 0;
        value           nonuniform List<scalar> 
400
(
300.025
300.022
300.023
300.051
300.019
300.034
300.041
300.039
300.034
299.989
300.035
300.041
300.057
300.024
300.009
300.052
300.037
300.039
300.049
300.053
300.015
300.012
300.056
300.036
300.031
300.06
300.031
300.031
300.057
300.027
300.046
300.043
299.994
300.064
300.062
300.047
300.021
300.054
300.039
300.04
300.033