/*--------------------------------*- C++ -*----------------------------------*\
| =========                 |                                                 |
| \\      /  F ield         | OpenFOAM: The Open Source CFD Toolbox           |
|  \\    /   O peration     | Version:  2212                                  |
|   \\  /    A nd           | Website:  www.openfoam.com                      |
|    \\/     M anipulation  |                                                 |
\*---------------------------------------------------------------------------*/
FoamFile
{
    version     2.0;
    format      ascii;
    arch        "LSB;label=32;scalar=64";
    class       volScalarField;
    location    "0";
    object      T;
}
// * * * * * * * * * * * * * * * * * * * * * * * * * * * * * * * * * * * * * //

dimensions      [0 0 0 1 0 0 0];

internalField   nonuniform List<scalar> 
3200
(
323.021
323.213
323.642
324.068
324.276
324.486
324.478
324.496
324.847
324.666
324.17
324.338
324.29
324.221
323.818
323.553
323.079
322.404
322.266
321.834
320.063
320.267
320.635
321.007
321.209
321.33
321.357
321.382
321.662
321.504
321.047
321.239
321.194
321.148
320.796
320.556
320.13
319.505
319.418
319.052
317.028
317.29
317.599
317.856
318.074
318.137
318.211
318.213
318.426
318.325
317.899
318.028
318.087
318.006
317.734
317.462
317.157
316.564
316.515
316.256
313.913
314.282
314.554
314.658
314.858
314.928
315.031
314.996
315.124
315.023
314.736
314.779
314.855
314.781
314.645
314.338
314.129
313.65
313.548
313.418
310.804
311.192
311.399
311.423
311.662
311.648
311.74
311.722
311.816
311.71
311.516
311.532
311.603
311.519
311.483
311.154
311.046
310.686
310.577
310.506
307.715
308.064
308.164
308.198
308.392
308.316
308.384
308.417
308.442
308.344
308.285
308.29
308.314
308.259
308.276
307.954
307.881
307.661
307.608
307.575
304.619
304.859
304.928
304.936
305.066
304.973
305.039
305.08
305.087
304.973
305.003
304.994
305.035
304.983
305.01
304.78
304.719
304.639
304.591
304.579
301.553
301.621
301.664
301.655
301.716
301.651
301.69
301.726
301.705
301.659
301.691
301.689
301.695
301.684
301.698
301.598
301.574
301.557
301.542
301.541
323.733
323.992
324.347
324.767
324.877
325.096
325.169
325.382
325.414
325.475
325.058
325.004
324.919
324.678
324.456
324.213
323.883
323.241
322.948
322.513
320.639
320.861
321.17
321.534
321.644
321.831
321.914
322.071
322.132
322.148
321.787
321.752
321.715
321.465
321.297
321.05
320.807
320.213
319.987
319.625
317.52
317.723
317.994
318.273
318.371
318.515
318.588
318.735
318.875
318.786
318.483
318.453
318.414
318.275
318.144
317.854
317.653
317.207
316.992
316.638
314.343
314.553
314.755
315.024
315.11
315.17
315.187
315.358
315.547
315.409
315.138
315.116
315.132
315.066
314.926
314.616
314.451
314.194
313.984
313.641
311.188
311.349
311.473
311.73
311.76
311.83
311.814
311.939
312.133
312.042
311.795
311.769
311.815
311.83
311.684
311.385
311.306
311.066
310.9
310.611
308.002
308.156
308.209
308.384
308.424
308.454
308.439
308.493
308.664
308.639
308.473
308.426
308.487
308.548
308.367
308.118
308.09
307.932
307.802
307.612
304.795
304.92
304.957
305.02
305.063
305.069
305.062
305.054
305.202
305.198
305.121
305.09
305.112
305.169
305.026
304.889
304.891
304.778
304.727
304.596
301.599
301.656
301.665
301.674
301.713
301.696
301.677
301.687
301.744
301.747
301.73
301.727
301.726
301.747
301.688
301.648
301.632
301.604
301.574
301.541
324.627
324.939
325.278
325.763
326.01
326.152
326.357
326.287
326.583
326.442
326.229
326.266
326.16
325.83
325.601
325.192
324.939
324.378
323.942
323.506
321.383
321.65
321.953
322.419
322.593
322.713
322.898
322.875
323.127
322.969
322.789
322.842
322.714
322.471
322.244
321.912
321.658
321.193
320.795
320.491
318.142
318.353
318.615
319.039
319.19
319.255
319.392
319.448
319.642
319.481
319.284
319.346
319.273
319.091
318.895
318.592
318.353
318
317.64
317.426
314.889
315.059
315.28
315.631
315.738
315.76
315.869
315.988
316.083
315.935
315.806
315.812
315.776
315.638
315.521
315.279
315.067
314.777
314.457
314.339
311.559
311.705
311.906
312.202
312.242
312.258
312.371
312.498
312.55
312.37
312.294
312.273
312.288
312.154
312.102
311.95
311.7
311.536
311.275
311.173
308.279
308.353
308.513
308.725
308.77
308.747
308.83
308.939
308.967
308.815
308.756
308.743
308.807
308.694
308.654
308.603
308.338
308.221
308.063
308
304.977
305.016
305.089
305.25
305.267
305.246
305.294
305.369
305.401
305.277
305.251
305.261
305.299
305.216
305.205
305.195
305.002
304.903
304.85
304.804
301.69
301.681
301.708
301.765
301.754
301.757
301.771
301.807
301.814
301.769
301.766
301.779
301.767
301.734
301.729
301.742
301.679
301.604
301.631
301.592
325.675
326.076
326.471
326.805
327.266
327.342
327.377
327.52
327.611
327.529
327.623
327.512
327.485
326.986
326.852
326.356
326.034
325.365
325.024
324.488
322.333
322.633
323.038
323.309
323.709
323.763
323.809
323.904
323.946
323.884
324.008
323.965
323.893
323.428
323.332
322.88
322.627
322.082
321.774
321.279
318.989
319.141
319.54
319.794
320.104
320.161
320.172
320.293
320.288
320.226
320.35
320.341
320.279
319.898
319.807
319.376
319.176
318.744
318.484
318.067
315.588
315.659
316.048
316.228
316.505
316.541
316.506
316.638
316.601
316.596
316.702
316.636
316.625
316.31
316.26
315.818
315.693
315.4
315.195
314.861
312.143
312.194
312.493
312.644
312.843
312.884
312.861
312.975
312.945
312.932
313.035
312.957
312.929
312.737
312.658
312.286
312.188
311.99
311.859
311.607
308.68
308.726
308.94
309.036
309.163
309.218
309.168
309.305
309.226
309.232
309.307
309.255
309.227
309.063
309.075
308.786
308.715
308.57
308.478
308.322
305.202
305.234
305.367
305.411
305.505
305.541
305.487
305.585
305.55
305.522
305.595
305.55
305.561
305.434
305.461
305.319
305.261
305.151
305.113
305.01
301.757
301.759
301.795
301.821
301.832
301.854
301.83
301.878
301.868
301.842
301.877
301.848
301.852
301.817
301.82
301.781
301.79
301.72
301.737
301.664
326.766
327.201
327.61
328.089
328.568
328.787
328.555
328.878
328.724
328.76
328.853
328.553
328.57
328.116
327.869
327.466
327.055
326.558
326.03
325.424
323.281
323.635
323.959
324.428
324.807
325.025
324.806
325.062
324.951
325.009
325.046
324.783
324.826
324.448
324.205
323.855
323.505
323.097
322.643
322.089
319.779
320.016
320.303
320.726
320.989
321.207
320.978
321.263
321.101
321.199
321.206
320.947
321.048
320.759
320.528
320.244
319.924
319.579
319.212
318.777
316.218
316.329
316.616
316.966
317.168
317.352
317.167
317.455
317.283
317.364
317.345
317.147
317.245
317.008
316.842
316.593
316.33
316.049
315.742
315.412
312.651
312.683
312.909
313.21
313.353
313.532
313.343
313.638
313.477
313.538
313.438
313.323
313.396
313.263
313.173
312.909
312.723
312.507
312.277
312.025
309.057
309.063
309.188
309.454
309.518
309.699
309.517
309.809
309.655
309.676
309.61
309.524
309.567
309.486
309.455
309.223
309.1
308.919
308.76
308.614
305.417
305.44
305.502
305.674
305.704
305.861
305.72
305.929
305.82
305.769
305.795
305.712
305.739
305.675
305.737
305.544
305.446
305.352
305.226
305.163
301.808
301.83
301.834
301.879
301.9
301.974
301.919
301.999
301.952
301.936
301.923
301.924
301.912
301.9
301.925
301.86
301.811
301.806
301.764
301.747
328.026
328.364
328.909
329.301
329.509
329.962
330.103
330.169
330.026
330.172
330.26
329.788
329.811
329.58
329.243
328.775
328.398
327.769
327.14
326.615
324.353
324.636
325.116
325.469
325.62
326.062
326.156
326.228
326.085
326.217
326.289
325.82
325.935
325.69
325.408
324.978
324.669
324.124
323.517
323.094
320.693
320.881
321.285
321.618
321.719
322.088
322.149
322.215
322.122
322.179
322.289
321.848
321.975
321.794
321.564
321.187
320.891
320.452
319.866
319.576
316.995
317.074
317.447
317.742
317.783
318.09
318.103
318.195
318.117
318.162
318.244
317.849
317.98
317.908
317.712
317.383
317.123
316.757
316.222
316.042
313.274
313.275
313.601
313.794
313.885
314.074
314.066
314.174
314.089
314.112
314.205
313.862
313.986
313.98
313.836
313.548
313.301
313.04
312.629
312.499
309.495
309.432
309.748
309.849
309.93
310.046
310.034
310.122
310.058
310.081
310.156
309.915
309.991
310.027
309.937
309.699
309.445
309.359
309.059
308.92
305.722
305.659
305.875
305.928
305.931
306.06
306.008
306.075
306.031
306.038
306.097
305.961
306.006
306.06
305.975
305.788
305.667
305.655
305.489
305.366
301.923
301.883
301.978
301.977
301.976
302.014
302.02
302.026
302.016
302.023
302.032
302.008
302.015
302.045
302.026
301.931
301.902
301.913
301.857
301.815
329.121
329.555
330.033
330.61
330.61
330.808
331.07
331.162
331.076
331.267
331.269
331.099
331.029
330.766
330.379
329.949
329.67
329.051
328.173
327.726
325.328
325.642
326.052
326.581
326.602
326.773
326.955
327.092
326.949
327.121
327.184
326.967
326.979
326.729
326.403
326.004
325.797
325.269
324.452
324.081
321.524
321.704
322.063
322.538
322.577
322.747
322.851
322.942
322.788
322.956
323.076
322.853
322.842
322.679
322.407
322.092
321.878
321.419
320.727
320.416
317.664
317.765
318.085
318.474
318.462
318.65
318.725
318.782
318.634
318.811
318.924
318.662
318.689
318.602
318.36
318.106
317.978
317.518
317.027
316.728
313.758
313.799
314.079
314.358
314.352
314.554
314.555
314.616
314.502
314.673
314.777
314.498
314.544
314.474
314.271
314.077
314.018
313.615
313.282
313.038
309.829
309.822
310.089
310.27
310.284
310.391
310.421
310.467
310.377
310.546
310.594
310.327
310.392
310.327
310.202
310.011
310.028
309.738
309.497
309.348
305.892
305.894
306.099
306.172
306.179
306.243
306.257
306.304
306.241
306.348
306.387
306.207
306.202
306.168
306.149
306
306.025
305.834
305.713
305.603
301.978
301.988
302.067
302.055
302.044
302.111
302.114
302.121
302.108
302.121
302.151
302.095
302.062
302.061
302.053
302.002
302.033
301.958
301.915
301.888
329.948
330.5
331.117
331.778
331.808
331.941
332.17
332.432
332.389
332.553
332.54
332.313
332.074
331.879
331.363
330.979
330.747
330.123
329.08
328.665
326.047
326.489
327.067
327.634
327.599
327.709
327.939
328.17
328.054
328.253
328.259
328.067
327.879
327.667
327.281
326.894
326.681
326.174
325.261
324.94
322.13
322.444
322.943
323.462
323.337
323.489
323.66
323.862
323.737
323.899
323.956
323.774
323.643
323.479
323.153
322.811
322.611
322.193
321.433
321.155
318.189
318.371
318.781
319.236
319.092
319.233
319.347
319.533
319.384
319.577
319.636
319.455
319.361
319.241
318.979
318.706
318.52
318.181
317.586
317.372
314.258
314.283
314.608
314.963
314.851
314.983
315.044
315.172
315.035
315.205
315.315
315.154
315.091
314.948
314.748
314.537
314.427
314.243
313.709
313.56
310.269
310.202
310.44
310.679
310.626
310.711
310.728
310.824
310.702
310.884
310.947
310.845
310.818
310.672
310.529
310.378
310.312
310.209
309.851
309.673
306.194
306.142
306.269
306.369
306.445
306.457
306.447
306.531
306.403
306.535
306.585
306.521
306.49
306.405
306.327
306.216
306.196
306.126
305.928
305.78
302.067
302.071
302.105
302.118
302.194
302.16
302.161
302.182
302.145
302.197
302.217
302.185
302.159
302.147
302.119
302.074
302.08
302.059
301.99
301.921
330.846
331.451
332.283
332.708
333.056
333.22
333.393
333.599
333.586
333.716
333.64
333.425
333.246
333.022
332.475
332.137
331.645
330.946
330.263
329.53
326.832
327.36
328.062
328.389
328.685
328.847
329.003
329.168
329.181
329.259
329.203
329.05
328.864
328.65
328.188
327.892
327.475
326.856
326.288
325.673
322.782
323.199
323.778
324.058
324.285
324.452
324.574
324.69
324.732
324.766
324.739
324.628
324.48
324.237
323.855
323.66
323.259
322.764
322.303
321.785
318.671
318.998
319.456
319.715
319.954
320.052
320.113
320.207
320.303
320.239
320.236
320.167
320.064
319.9
319.537
319.387
319.059
318.628
318.278
317.868
314.538
314.791
315.132
315.333
315.576
315.631
315.644
315.726
315.82
315.742
315.759
315.697
315.59
315.53
315.222
315.088
314.84
314.51
314.219
313.967
310.396
310.6
310.805
310.938
311.145
311.153
311.186
311.227
311.29
311.255
311.248
311.236
311.166
311.102
310.871
310.775
310.602
310.386
310.158
309.992
306.262
306.38
306.515
306.542
306.713
306.707
306.687
306.746
306.771
306.778
306.751
306.749
306.721
306.673
306.545
306.453
306.373
306.201
306.109
306.012
302.101
302.137
302.19
302.196
302.264
302.251
302.253
302.268
302.278
302.277
302.266
302.272
302.262
302.231
302.194
302.172
302.131
302.066
302.046
301.993
331.951
332.475
332.969
333.542
333.926
334.216
334.546
334.79
334.657
335.026
334.66
334.447
334.288
334.175
333.712
333.014
332.559
332.093
331.467
330.824
327.784
328.174
328.703
329.09
329.464
329.683
330.004
330.219
330.085
330.409
330.124
329.906
329.794
329.686
329.251
328.716
328.266
327.864
327.328
326.809
323.577
323.875
324.37
324.682
324.936
325.159
325.436
325.617
325.512
325.801
325.54
325.374
325.232
325.205
324.744
324.382
323.946
323.598
323.115
322.74
319.31
319.536
319.994
320.263
320.432
320.604
320.872
320.957
320.945
321.113
320.898
320.859
320.68
320.677
320.248
320.022
319.617
319.308
318.907
318.647
315.074
315.176
315.577
315.783
315.893
316.071
316.236
316.322
316.334
316.424
316.23
316.262
316.119
316.136
315.783
315.639
315.281
315.005
314.732
314.537
310.793
310.853
311.147
311.262
311.363
311.511
311.584
311.667
311.711
311.738
311.593
311.615
311.554
311.556
311.262
311.205
310.921
310.723
310.527
310.407
306.529
306.572
306.677
306.752
306.855
306.951
306.991
306.975
307.054
307.028
306.97
306.975
306.974
306.969
306.76
306.767
306.553
306.425
306.316
306.284
302.2
302.23
302.233
302.259
302.31
302.333
302.353
302.305
302.39
302.345
302.346
302.313
302.327
302.351
302.256
302.278
302.187
302.151
302.117
302.118
332.686
333.369
333.731
334.526
334.858
335.12
335.552
335.661
336.056
335.777
335.632
335.569
335.419
335.186
334.674
334.162
333.655
333.005
332.376
331.635
328.378
329.012
329.305
330.001
330.266
330.485
330.852
330.983
331.274
331.089
330.911
330.9
330.745
330.543
330.119
329.683
329.218
328.631
328.078
327.474
324.07
324.626
324.866
325.408
325.597
325.826
326.149
326.27
326.475
326.374
326.161
326.218
326.039
325.898
325.53
325.189
324.744
324.23
323.802
323.287
319.776
320.193
320.376
320.808
320.95
321.207
321.394
321.527
321.726
321.604
321.434
321.496
321.293
321.228
320.938
320.634
320.236
319.827
319.502
319.119
315.427
315.754
315.919
316.169
316.318
316.519
316.664
316.801
316.966
316.841
316.649
316.699
316.566
316.574
316.312
316.068
315.744
315.42
315.192
314.906
311.107
311.294
311.4
311.555
311.646
311.79
311.9
312.021
312.168
312.085
311.899
311.933
311.823
311.875
311.671
311.506
311.289
310.991
310.85
310.671
306.679
306.814
306.843
306.927
307.002
307.045
307.117
307.207
307.326
307.269
307.166
307.171
307.106
307.159
307
306.916
306.77
306.57
306.543
306.411
302.24
302.29
302.299
302.302
302.34
302.347
302.375
302.419
302.454
302.429
302.407
302.413
302.377
302.411
302.348
302.315
302.264
302.194
302.197
302.145
333.573
334.159
334.826
335.549
335.85
336.258
336.524
336.793
336.814
336.842
336.679
336.672
336.54
336.183
335.662
335.199
334.608
333.761
333.214
332.585
329.185
329.668
330.222
330.859
331.13
331.464
331.701
331.953
331.986
331.983
331.837
331.839
331.739
331.395
330.932
330.548
329.979
329.37
328.829
328.345
324.748
325.134
325.632
326.148
326.375
326.596
326.851
327.047
327.147
327.094
326.998
327.002
326.907
326.605
326.222
325.913
325.369
324.887
324.441
323.991
320.281
320.616
321.002
321.377
321.611
321.759
321.953
322.149
322.277
322.177
322.144
322.117
322.047
321.793
321.485
321.248
320.752
320.399
320.051
319.633
315.795
316.094
316.345
316.661
316.847
316.891
317.034
317.251
317.36
317.278
317.246
317.264
317.143
316.98
316.723
316.531
316.15
315.886
315.642
315.275
311.364
311.519
311.695
311.887
312.047
312.06
312.149
312.322
312.461
312.323
312.333
312.38
312.229
312.152
311.963
311.815
311.557
311.329
311.162
310.95
306.857
306.915
307.021
307.161
307.229
307.239
307.331
307.428
307.507
307.391
307.415
307.481
307.343
307.324
307.193
307.1
306.943
306.795
306.723
306.598
302.297
302.312
302.373
302.394
302.406
302.431
302.463
302.505
302.534
302.486
302.489
302.499
302.454
302.47
302.413
302.391
302.323
302.285
302.255
302.222
334.468
334.942
335.731
336.201
336.734
337.272
337.624
337.728
337.762
337.592
337.665
337.5
337.368
337.072
336.621
336.247
335.522
334.877
334.183
333.439
329.949
330.318
331.078
331.449
331.89
332.336
332.659
332.766
332.797
332.638
332.691
332.535
332.451
332.161
331.831
331.471
330.816
330.264
329.691
329.073
325.431
325.652
326.366
326.693
327.052
327.415
327.665
327.774
327.811
327.646
327.682
327.547
327.485
327.215
326.988
326.638
326.073
325.637
325.167
324.658
320.804
320.947
321.589
321.88
322.173
322.469
322.631
322.776
322.763
322.668
322.653
322.557
322.504
322.293
322.114
321.826
321.309
320.956
320.628
320.202
316.202
316.272
316.791
317.036
317.261
317.512
317.622
317.749
317.693
317.634
317.628
317.571
317.557
317.361
317.237
316.971
316.551
316.296
316.023
315.755
311.601
311.653
311.975
312.154
312.323
312.54
312.585
312.743
312.618
312.593
312.58
312.56
312.561
312.423
312.316
312.167
311.869
311.628
311.482
311.258
307.012
307
307.188
307.275
307.375
307.53
307.574
307.673
307.577
307.573
307.563
307.508
307.56
307.461
307.39
307.321
307.111
306.986
306.883
306.722
302.36
302.335
302.437
302.435
302.476
302.519
302.543
302.574
302.526
302.548
302.549
302.485
302.532
302.51
302.484
302.456
302.363
302.336
302.319
302.258
335.352
335.491
336.624
337.196
337.537
337.967
338.551
338.685
338.932
338.536
338.635
338.398
338.259
337.956
337.699
337.183
336.338
335.672
334.814
333.971
330.729
330.807
331.779
332.286
332.61
332.907
333.469
333.548
333.788
333.481
333.555
333.353
333.239
332.957
332.74
332.311
331.548
330.983
330.247
329.513
326.014
326.104
326.922
327.357
327.68
327.883
328.397
328.389
328.668
328.404
328.429
328.256
328.179
327.902
327.735
327.388
326.705
326.229
325.645
325.03
321.268
321.386
322.023
322.43
322.679
322.818
323.266
323.186
323.461
323.283
323.297
323.15
323.115
322.896
322.752
322.409
321.872
321.454
321.024
320.547
316.539
316.648
317.095
317.42
317.61
317.773
318.135
317.994
318.238
318.14
318.156
318.033
318.051
317.89
317.709
317.43
317.042
316.705
316.339
316.055
311.819
311.933
312.181
312.426
312.592
312.755
312.979
312.866
313.036
312.978
312.958
312.914
312.981
312.815
312.698
312.476
312.198
311.938
311.653
311.51
307.087
307.183
307.318
307.458
307.567
307.677
307.793
307.736
307.806
307.804
307.761
307.773
307.847
307.715
307.638
307.519
307.32
307.163
307.001
306.937
302.382
302.408
302.448
302.486
302.526
302.564
302.63
302.584
302.597
302.606
302.598
302.605
302.66
302.577
302.586
302.525
302.446
302.405
302.353
302.321
336.019
336.367
337.187
338.05
338.302
338.741
339
339.307
339.624
339.48
339.35
339.008
338.798
338.661
338.355
337.691
337.103
336.362
335.666
334.826
331.285
331.566
332.283
333.037
333.268
333.604
333.839
334.083
334.41
334.329
334.154
333.883
333.656
333.557
333.3
332.699
332.227
331.598
330.974
330.264
326.52
326.733
327.358
328.02
328.243
328.442
328.657
328.869
329.13
329.153
328.935
328.718
328.531
328.36
328.184
327.719
327.339
326.796
326.24
325.672
321.723
321.932
322.398
322.966
323.147
323.27
323.454
323.657
323.864
323.888
323.685
323.505
323.421
323.232
323.09
322.726
322.393
321.925
321.509
321.067
316.914
317.112
317.432
317.896
318.014
318.116
318.229
318.425
318.59
318.615
318.471
318.319
318.262
318.122
317.959
317.726
317.433
317.056
316.696
316.409
312.077
312.281
312.466
312.827
312.888
312.916
313.075
313.176
313.293
313.321
313.239
313.112
313.114
312.98
312.836
312.693
312.5
312.242
311.905
311.734
307.253
307.386
307.502
307.723
307.772
307.747
307.86
307.885
307.998
308.025
307.969
307.877
307.896
307.798
307.719
307.631
307.51
307.37
307.138
307.068
302.435
302.474
302.506
302.61
302.613
302.604
302.64
302.654
302.675
302.689
302.683
302.619
302.644
302.618
302.593
302.578
302.513
302.484
302.387
302.374
336.373
337.259
337.713
338.568
339.118
339.304
339.782
340.075
340.227
340.204
340.143
339.894
339.562
339.423
338.927
338.376
337.878
337.033
336.449
335.729
331.647
332.355
332.73
333.486
333.978
334.134
334.521
334.807
334.889
334.895
334.83
334.649
334.326
334.243
333.797
333.361
332.894
332.129
331.671
331.041
326.86
327.423
327.738
328.39
328.794
328.901
329.24
329.494
329.579
329.62
329.487
329.364
329.086
329.015
328.624
328.297
327.896
327.182
326.822
326.317
322.005
322.467
322.73
323.234
323.607
323.653
323.934
324.171
324.235
324.269
324.163
324.038
323.872
323.748
323.413
323.172
322.857
322.255
321.96
321.564
317.113
317.442
317.708
318.051
318.423
318.397
318.615
318.833
318.876
318.91
318.813
318.732
318.626
318.507
318.228
318.019
317.764
317.284
317.072
316.761
312.213
312.438
312.677
312.905
313.174
313.199
313.303
313.484
313.476
313.528
313.441
313.389
313.372
313.271
313.01
312.866
312.702
312.33
312.164
311.967
307.389
307.453
307.611
307.749
307.917
307.941
307.997
308.129
308.102
308.128
308.044
308.016
308.08
307.965
307.821
307.718
307.645
307.389
307.317
307.174
302.468
302.507
302.538
302.606
302.642
302.669
302.678
302.719
302.708
302.724
302.692
302.669
302.721
302.66
302.622
302.575
302.576
302.469
302.443
302.406
336.89
337.683
338.388
339.063
339.645
340.137
340.326
340.859
340.909
340.898
340.827
340.591
340.301
339.971
339.452
339.009
338.538
337.871
337.042
336.399
332.065
332.739
333.333
333.933
334.428
334.802
335.011
335.484
335.493
335.545
335.477
335.264
334.986
334.689
334.229
333.861
333.437
332.849
332.187
331.631
327.225
327.757
328.24
328.74
329.138
329.454
329.625
330.037
330.074
330.137
330.049
329.868
329.672
329.406
328.977
328.693
328.328
327.777
327.281
326.803
322.312
322.763
323.114
323.514
323.824
324.098
324.243
324.596
324.634
324.669
324.608
324.499
324.309
324.082
323.762
323.455
323.178
322.707
322.317
321.934
317.341
317.69
317.954
318.269
318.507
318.668
318.846
319.156
319.159
319.191
319.167
319.101
318.991
318.763
318.502
318.269
318.01
317.65
317.315
317.046
312.402
312.66
312.818
313.042
313.218
313.333
313.468
313.73
313.696
313.696
313.717
313.657
313.607
313.433
313.233
313.046
312.917
312.582
312.363
312.151
307.45
307.579
307.691
307.843
307.954
307.991
308.076
308.268
308.25
308.215
308.228
308.225
308.156
308.097
307.964
307.825
307.794
307.556
307.427
307.273
302.493
302.529
302.592
302.612
302.652
302.679
302.703
302.772
302.773
302.747
302.742
302.766
302.715
302.713
302.679
302.611
302.619
302.533
302.494
302.451
337.492
338.072
339.006
339.63
340.22
340.651
340.915
341.291
341.437
341.487
341.422
341.334
340.899
340.453
340.076
339.609
338.786
338.221
337.368
336.752
332.573
333.071
333.888
334.398
334.927
335.284
335.499
335.788
335.997
336.036
335.973
335.931
335.516
335.107
334.819
334.38
333.633
333.142
332.44
331.893
327.608
328.041
328.69
329.184
329.58
329.889
330.026
330.313
330.511
330.519
330.483
330.449
330.112
329.743
329.533
329.083
328.426
328.098
327.488
327.026
322.641
322.983
323.487
323.955
324.202
324.468
324.562
324.839
324.999
324.963
324.985
324.93
324.698
324.363
324.177
323.839
323.214
323.008
322.55
322.157
317.697
317.916
318.26
318.668
318.81
319.067
319.157
319.349
319.438
319.41
319.493
319.412
319.265
318.99
318.858
318.606
318.03
317.915
317.578
317.226
312.713
312.817
313.046
313.343
313.456
313.632
313.699
313.842
313.882
313.864
313.917
313.868
313.798
313.594
313.482
313.316
312.884
312.814
312.565
312.302
307.7
307.721
307.828
308.009
308.071
308.201
308.217
308.295
308.365
308.34
308.349
308.34
308.32
308.165
308.129
308.025
307.725
307.698
307.537
307.379
302.6
302.587
302.622
302.664
302.692
302.753
302.751
302.773
302.818
302.779
302.811
302.79
302.788
302.74
302.735
302.706
302.583
302.565
302.537
302.491
337.949
338.525
339.183
339.972
340.548
341.032
341.33
341.704
341.939
341.813
341.801
341.838
341.319
341.069
340.57
339.951
339.254
338.58
337.851
337.032
332.961
333.415
334.014
334.703
335.177
335.623
335.844
336.203
336.417
336.28
336.263
336.323
335.859
335.672
335.173
334.677
334.05
333.494
332.825
332.199
327.925
328.293
328.841
329.394
329.792
330.2
330.376
330.692
330.847
330.738
330.675
330.778
330.367
330.197
329.779
329.348
328.826
328.394
327.762
327.308
322.859
323.136
323.623
324.126
324.388
324.743
324.882
325.075
325.262
325.142
325.126
325.214
324.855
324.73
324.341
324.002
323.579
323.289
322.751
322.388
317.784
317.985
318.427
318.785
318.973
319.298
319.407
319.494
319.624
319.562
319.58
319.638
319.354
319.227
318.911
318.675
318.316
318.105
317.704
317.441
312.699
312.828
313.157
313.443
313.557
313.787
313.914
313.925
314.007
313.987
314.005
314.05
313.84
313.753
313.528
313.36
313.073
312.94
312.629
312.445
307.642
307.716
307.908
308.06
308.159
308.314
308.374
308.365
308.425
308.409
308.413
308.458
308.319
308.265
308.13
308.039
307.88
307.752
307.569
307.462
302.559
302.595
302.665
302.703
302.741
302.81
302.807
302.811
302.823
302.832
302.813
302.839
302.795
302.788
302.723
302.692
302.657
302.568
302.539
302.508
338.251
338.74
339.592
340.295
340.724
341.368
341.818
342.068
342.201
342.248
342.111
342.02
341.709
341.418
340.799
340.417
339.64
338.847
338.159
337.647
333.223
333.62
334.329
334.948
335.295
335.881
336.274
336.54
336.64
336.611
336.499
336.468
336.193
335.945
335.392
335.046
334.392
333.758
333.095
332.728
328.249
328.5
329.096
329.611
329.857
330.379
330.66
330.965
331.059
330.993
330.886
330.911
330.613
330.446
329.995
329.667
329.113
328.625
327.994
327.755
323.208
323.348
323.827
324.241
324.447
324.933
325.025
325.338
325.415
325.396
325.246
325.321
325.042
324.868
324.552
324.28
323.847
323.472
322.907
322.755
318.099
318.202
318.539
318.857
319.03
319.443
319.444
319.687
319.754
319.771
319.59
319.714
319.524
319.312
319.12
318.873
318.556
318.24
317.835
317.669
312.939
313.077
313.258
313.474
313.609
313.931
313.905
314.032
314.121
314.092
313.972
314.081
313.923
313.798
313.669
313.434
313.286
313.024
312.759
312.557
307.769
307.875
307.98
308.105
308.171
308.386
308.362
308.413
308.444
308.472
308.394
308.473
308.35
308.265
308.239
308.044
307.976
307.821
307.685
307.526
302.617
302.647
302.698
302.727
302.744
302.808
302.799
302.816
302.823
302.837
302.825
302.864
302.807
302.781
302.769
302.705
302.667
302.618
302.589
302.527
)
;

boundaryField
{
    hotSide
    {
        type            fixedGradient;
        gradient        nonuniform List<scalar> 
400
(
229.785
241.641
253.457
265.182
276.761
288.142
299.268
310.087
320.544
330.587
340.164
349.225
357.723
365.614
372.856
379.411
385.244
390.326
394.63
398.135
233.953
246.142
258.295
270.359
282.279
293.999
305.464
316.616
327.402
337.765
347.654
357.017
365.805
373.972
381.474
388.274
394.334
399.624
404.116
407.789
237.515
250.006
262.465
274.838
287.067
299.097
310.869
322.327
333.413
344.07
354.246
363.886
372.94
381.362
389.106
396.132
402.404
407.888
412.556
416.387
240.479
253.238
265.969
278.616
291.123
303.429
315.477
327.208
338.564
349.486
359.92
369.811
379.107
387.759
395.723
402.956
409.421
415.083
419.915
423.891
242.852
255.844
268.812
281.7
294.447
306.996
319.286
331.257
342.85
354.006
364.667
374.78
384.29
393.148
401.307
408.725
415.363
421.185
426.164
430.273
244.651
257.839
271.007
284.097
297.049
309.804
322.3
334.476
346.271
357.626
368.484
378.787
388.481
397.517
405.846
413.425
420.214
426.177
431.285
435.512
245.89
259.237
272.567
285.821
298.94
311.862
324.526
336.87
348.832
360.352
371.371
381.832
391.68
400.864
409.335
417.049
423.965
430.048
435.266
439.594
246.588
260.054
273.507
286.886
300.132
313.183
325.976
338.45
350.541
362.189
373.334
383.919
393.888
403.189
411.773
419.595
426.613
432.793
438.101
442.512
246.763
260.309
273.844
287.308
300.641
313.78
326.663
339.227
351.408
363.147
374.382
385.055
395.111
404.497
413.164
421.065
428.16
434.412
439.788
444.263
246.431
260.016
273.593
287.102
300.481
313.668
326.6
339.214
351.447
363.237
374.524
385.25
395.359
404.796
413.514
421.466
428.61
434.909
440.332
444.85
245.607
259.192
272.77
286.282
299.666
312.86
325.8
338.423
350.668
362.471
373.773
384.514
394.64
404.096
412.833
420.805
427.97
434.292
439.737
444.279
244.303
257.848
271.387
284.861
298.209
311.368
324.275
336.868
349.084
360.861
372.139
382.859
392.966
402.407
411.131
419.093
426.252
432.57
438.014
442.559
242.531
255.995
269.454
282.85
296.12
309.203
322.037
334.559
346.706
358.418
369.634
380.297
390.35
399.741
408.421
416.343
423.467
429.755
435.176
439.702
240.295
253.64
266.98
280.256
293.408
306.375
319.095
331.506
343.546
355.154
366.272
376.84
386.804
396.113
404.716
412.569
419.63
425.863
431.236
435.723
237.602
250.789
263.97
277.087
290.082
302.893
315.46
327.721
339.615
351.082
362.063
372.501
382.343
391.536
400.031
407.785
414.757
420.91
426.213
430.641
234.454
247.444
260.428
273.349
286.147
298.764
311.139
323.212
334.923
346.212
357.021
367.296
376.981
386.027
394.385
402.012
408.868
414.917
420.129
424.477
230.852
243.609
256.359
269.046
281.611
293.996
306.143
317.991
329.482
340.558
351.162
361.239
370.737
379.605
387.797
395.271
401.986
407.909
413.008
417.259
226.796
239.286
251.767
264.183
276.48
288.598
300.481
312.069
323.307
334.136
344.502
354.351
363.631
372.293
380.293
387.587
394.138
399.913
404.88
409.017
222.289
234.478
246.656
258.769
270.763
282.58
294.166
305.462
316.414
326.966
337.063
346.653
355.687
364.117
371.899
378.991
385.357
390.963
395.782
399.788
217.334
229.191
241.034
252.812
264.471
275.957
287.214
298.188
308.824
319.069
328.869
338.175
346.937
355.11
362.65
369.519
375.68
381.1
385.754
389.617
)
;
    }
    coldSide
    {
        type            mixed;
        refValue        uniform 300;
        refGradient     uniform 0;
        valueFraction   uniform 0.991591;
        source          uniform 0;
        value           nonuniform List<scalar> 
400
(
300.013
300.013
300.014
300.015
300.015
300.016
300.017
300.017
300.018
300.019
300.019
300.019
300.02
300.02
300.02
300.021
300.021
300.022
300.022
300.022
300.014
300.014
300.014
300.015
300.015
300.016
300.017
300.017
300.018
300.019
300.019
300.019
300.02
300.02
300.021
300.021
300.021
300.022