/*--------------------------------*- C++ -*----------------------------------*\
| =========                 |                                                 |
| \\      /  F ield         | OpenFOAM: The Open Source CFD Toolbox           |
|  \\    /   O peration     | Version:  2212                                  |
|   \\  /    A nd           | Website:  www.openfoam.com                      |
|    \\/     M anipulation  |                                                 |
\*---------------------------------------------------------------------------*/
FoamFile
{
    version     2.0;
    format      ascii;
    arch        "LSB;label=32;scalar=64";
    class       volScalarField;
    location    "./ITHACAoutput/true/6.3";
    object      trueState;
}
// * * * * * * * * * * * * * * * * * * * * * * * * * * * * * * * * * * * * * //

dimensions      [0 0 0 1 0 0 0];

internalField   nonuniform List<scalar> 
3200
(
349.624
350.29
351.141
352.068
353.023
353.96
354.825
355.555
356.087
356.368
356.368
356.087
355.555
354.825
353.96
353.023
352.068
351.141
350.29
349.624
343.032
343.596
344.33
345.132
345.959
346.769
347.517
348.148
348.608
348.85
348.85
348.608
348.148
347.517
346.769
345.959
345.132
344.33
343.596
343.032
336.432
336.9
337.518
338.195
338.894
339.579
340.21
340.743
341.13
341.335
341.335
341.13
340.743
340.21
339.579
338.894
338.195
337.518
336.9
336.432
329.823
330.2
330.704
331.257
331.828
332.388
332.904
333.339
333.655
333.822
333.822
333.655
333.339
332.904
332.388
331.828
331.257
330.704
330.2
329.823
323.208
323.498
323.888
324.319
324.762
325.197
325.598
325.936
326.181
326.311
326.311
326.181
325.936
325.598
325.197
324.762
324.319
323.888
323.498
323.208
316.589
316.793
317.072
317.379
317.696
318.007
318.293
318.534
318.709
318.801
318.801
318.709
318.534
318.293
318.007
317.696
317.379
317.072
316.793
316.589
309.966
310.088
310.255
310.44
310.63
310.816
310.988
311.133
311.238
311.293
311.293
311.238
311.133
310.988
310.816
310.63
310.44
310.255
310.088
309.966
303.341
303.382
303.438
303.499
303.563
303.626
303.683
303.732
303.767
303.786
303.786
303.767
303.732
303.683
303.626
303.563
303.499
303.438
303.382
303.341
349.791
350.451
351.295
352.213
353.158
354.085
354.94
355.662
356.187
356.464
356.464
356.187
355.662
354.94
354.085
353.158
352.213
351.295
350.451
349.791
343.177
343.736
344.464
345.258
346.076
346.878
347.617
348.24
348.694
348.933
348.933
348.694
348.24
347.617
346.878
346.076
345.258
344.464
343.736
343.177
336.554
337.018
337.631
338.302
338.993
339.671
340.295
340.821
341.203
341.405
341.405
341.203
340.821
340.295
339.671
338.993
338.302
337.631
337.018
336.554
329.923
330.296
330.796
331.345
331.91
332.463
332.973
333.403
333.715
333.88
333.88
333.715
333.403
332.973
332.463
331.91
331.345
330.796
330.296
329.923
323.286
323.573
323.96
324.387
324.826
325.256
325.652
325.986
326.228
326.356
326.356
326.228
325.986
325.652
325.256
324.826
324.387
323.96
323.573
323.286
316.644
316.847
317.123
317.428
317.741
318.049
318.331
318.569
318.742
318.834
318.834
318.742
318.569
318.331
318.049
317.741
317.428
317.123
316.847
316.644
309.999
310.12
310.286
310.469
310.657
310.841
311.011
311.154
311.258
311.313
311.313
311.258
311.154
311.011
310.841
310.657
310.469
310.286
310.12
309.999
303.352
303.393
303.448
303.509
303.572
303.634
303.691
303.739
303.774
303.792
303.792
303.774
303.739
303.691
303.634
303.572
303.509
303.448
303.393
303.352
350.125
350.775
351.604
352.506
353.432
354.339
355.174
355.877
356.389
356.659
356.659
356.389
355.877
355.174
354.339
353.432
352.506
351.604
350.775
350.125
343.466
344.017
344.732
345.512
346.313
347.098
347.82
348.428
348.87
349.103
349.103
348.87
348.428
347.82
347.098
346.313
345.512
344.732
344.017
343.466
336.798
337.255
337.857
338.516
339.194
339.857
340.466
340.98
341.353
341.549
341.549
341.353
340.98
340.466
339.857
339.194
338.516
337.857
337.255
336.798
330.123
330.49
330.981
331.52
332.074
332.615
333.114
333.533
333.837
333.998
333.998
333.837
333.533
333.114
332.615
332.074
331.52
330.981
330.49
330.123
323.441
323.723
324.104
324.523
324.953
325.374
325.761
326.087
326.323
326.448
326.448
326.323
326.087
325.761
325.374
324.953
324.523
324.104
323.723
323.441
316.755
316.955
317.226
317.525
317.833
318.133
318.41
318.642
318.811
318.899
318.899
318.811
318.642
318.41
318.133
317.833
317.525
317.226
316.955
316.755
310.066
310.185
310.348
310.527
310.712
310.892
311.058
311.197
311.299
311.352
311.352
311.299
311.197
311.058
310.892
310.712
310.527
310.348
310.185
310.066
303.374
303.414
303.469
303.529
303.591
303.651
303.707
303.753
303.787
303.805
303.805
303.787
303.753
303.707
303.651
303.591
303.529
303.469
303.414
303.374
350.628
351.263
352.071
352.948
353.847
354.725
355.531
356.21
356.702
356.962
356.962
356.702
356.21
355.531
354.725
353.847
352.948
352.071
351.263
350.628
343.901
344.439
345.136
345.895
346.673
347.432
348.13
348.716
349.142
349.366
349.366
349.142
348.716
348.13
347.432
346.673
345.895
345.136
344.439
343.901
337.166
337.612
338.199
338.84
339.498
340.14
340.729
341.224
341.583
341.772
341.772
341.583
341.224
340.729
340.14
339.498
338.84
338.199
337.612
337.166
330.423
330.782
331.261
331.785
332.323
332.847
333.329
333.733
334.026
334.181
334.181
334.026
333.733
333.329
332.847
332.323
331.785
331.261
330.782
330.423
323.675
323.951
324.322
324.729
325.147
325.555
325.929
326.243
326.47
326.59
326.59
326.47
326.243
325.929
325.555
325.147
324.729
324.322
323.951
323.675
316.922
317.117
317.382
317.673
317.971
318.262
318.529
318.753
318.916
319.001
319.001
318.916
318.753
318.529
318.262
317.971
317.673
317.382
317.117
316.922
310.166
310.282
310.441
310.616
310.795
310.97
311.13
311.264
311.362
311.413
311.413
311.362
311.264
311.13
310.97
310.795
310.616
310.441
310.282
310.166
303.408
303.447
303.5
303.559
303.619
303.677
303.731
303.776
303.809
303.826
303.826
303.809
303.776
303.731
303.677
303.619
303.559
303.5
303.447
303.408
351.302
351.917
352.699
353.544
354.408
355.25
356.021
356.667
357.136
357.383
357.383
357.136
356.667
356.021
355.25
354.408
353.544
352.699
351.917
351.302
344.484
345.006
345.68
346.411
347.159
347.888
348.554
349.113
349.518
349.731
349.731
349.518
349.113
348.554
347.888
347.159
346.411
345.68
345.006
344.484
337.659
338.091
338.659
339.277
339.91
340.525
341.088
341.56
341.902
342.082
342.082
341.902
341.56
341.088
340.525
339.91
339.277
338.659
338.091
337.659
330.826
331.174
331.637
332.143
332.659
333.162
333.623
334.008
334.287
334.434
334.434
334.287
334.008
333.623
333.162
332.659
332.143
331.637
331.174
330.826
323.988
324.255
324.614
325.007
325.409
325.8
326.158
326.457
326.674
326.788
326.788
326.674
326.457
326.158
325.8
325.409
325.007
324.614
324.255
323.988
317.145
317.335
317.591
317.871
318.158
318.437
318.693
318.907
319.061
319.143
319.143
319.061
318.907
318.693
318.437
318.158
317.871
317.591
317.335
317.145
310.3
310.413
310.567
310.735
310.907
311.075
311.228
311.357
311.449
311.498
311.498
311.449
311.357
311.228
311.075
310.907
310.735
310.567
310.413
310.3
303.453
303.491
303.542
303.598
303.656
303.712
303.764
303.807
303.838
303.854
303.854
303.838
303.807
303.764
303.712
303.656
303.598
303.542
303.491
303.453
352.149
352.741
353.491
354.3
355.123
355.922
356.652
357.262
357.703
357.934
357.934
357.703
357.262
356.652
355.922
355.123
354.3
353.491
352.741
352.149
345.217
345.719
346.366
347.066
347.779
348.47
349.101
349.629
350.01
350.21
350.21
350.01
349.629
349.101
348.47
347.779
347.066
346.366
345.719
345.217
338.278
338.694
339.24
339.831
340.434
341.018
341.551
341.997
342.319
342.488
342.488
342.319
341.997
341.551
341.018
340.434
339.831
339.24
338.694
338.278
331.332
331.667
332.112
332.595
333.088
333.566
334.002
334.366
334.629
334.767
334.767
334.629
334.366
334.002
333.566
333.088
332.595
332.112
331.667
331.332
324.381
324.639
324.983
325.359
325.742
326.114
326.452
326.735
326.939
327.047
327.047
326.939
326.735
326.452
326.114
325.742
325.359
324.983
324.639
324.381
317.427
317.609
317.854
318.123
318.396
318.662
318.903
319.105
319.251
319.328
319.328
319.251
319.105
318.903
318.662
318.396
318.123
317.854
317.609
317.427
310.469
310.577
310.725
310.886
311.05
311.21
311.355
311.476
311.563
311.609
311.609
311.563
311.476
311.355
311.21
311.05
310.886
310.725
310.577
310.469
303.509
303.546
303.595
303.649
303.704
303.758
303.806
303.847
303.876
303.892
303.892
303.876
303.847
303.806
303.758
303.704
303.649
303.595
303.546
303.509
353.172
353.738
354.453
355.22
355.999
356.75
357.434
358.004
358.415
358.631
358.631
358.415
358.004
357.434
356.75
355.999
355.22
354.453
353.738
353.172
346.103
346.582
347.199
347.863
348.537
349.188
349.78
350.273
350.628
350.815
350.815
350.628
350.273
349.78
349.188
348.537
347.863
347.199
346.582
346.103
339.026
339.424
339.944
340.505
341.075
341.625
342.125
342.542
342.842
343
343
342.842
342.542
342.125
341.625
341.075
340.505
339.944
339.424
339.026
331.944
332.264
332.688
333.147
333.613
334.063
334.472
334.812
335.057
335.186
335.186
335.057
334.812
334.472
334.063
333.613
333.147
332.688
332.264
331.944
324.857
325.103
325.431
325.788
326.15
326.5
326.818
327.082
327.273
327.373
327.373
327.273
327.082
326.818
326.5
326.15
325.788
325.431
325.103
324.857
317.766
317.94
318.174
318.429
318.688
318.938
319.165
319.354
319.49
319.561
319.561
319.49
319.354
319.165
318.938
318.688
318.429
318.174
317.94
317.766
310.673
310.777
310.917
311.07
311.225
311.375
311.512
311.625
311.707
311.75
311.75
311.707
311.625
311.512
311.375
311.225
311.07
310.917
310.777
310.673
303.578
303.613
303.66
303.711
303.763
303.813
303.859
303.897
303.924
303.939
303.939
303.924
303.897
303.859
303.813
303.763
303.711
303.66
303.613
303.578
354.374
354.912
355.589
356.312
357.042
357.744
358.38
358.908
359.287
359.486
359.486
359.287
358.908
358.38
357.744
357.042
356.312
355.589
354.912
354.374
347.143
347.599
348.182
348.808
349.441
350.049
350.599
351.056
351.384
351.556
351.556
351.384
351.056
350.599
350.049
349.441
348.808
348.182
347.599
347.143
339.906
340.284
340.776
341.305
341.839
342.353
342.819
343.205
343.482
343.627
343.627
343.482
343.205
342.819
342.353
341.839
341.305
340.776
340.284
339.906
332.663
332.967
333.368
333.801
334.238
334.658
335.039
335.354
335.581
335.7
335.7
335.581
335.354
335.039
334.658
334.238
333.801
333.368
332.967
332.663
325.416
325.649
325.96
326.297
326.637
326.964
327.259
327.504
327.681
327.773
327.773
327.681
327.504
327.259
326.964
326.637
326.297
325.96
325.649
325.416
318.165
318.331
318.552
318.792
319.035
319.269
319.48
319.655
319.781
319.847
319.847
319.781
319.655
319.48
319.269
319.035
318.792
318.552
318.331
318.165
310.912
311.011
311.144
311.288
311.434
311.574
311.701
311.806
311.882
311.921
311.921
311.882
311.806
311.701
311.574
311.434
311.288
311.144
311.011
310.912
303.658
303.691
303.736
303.784
303.833
303.88
303.922
303.958
303.983
303.996
303.996
303.983
303.958
303.922
303.88
303.833
303.784
303.736
303.691
303.658
355.758
356.266
356.903
357.58
358.26
358.911
359.498
359.983
360.331
360.513
360.513
360.331
359.983
359.498
358.911
358.26
357.58
356.903
356.266
355.758
348.341
348.772
349.321
349.907
350.496
351.06
351.568
351.988
352.289
352.447
352.447
352.289
351.988
351.568
351.06
350.496
349.907
349.321
348.772
348.341
340.918
341.275
341.738
342.234
342.732
343.209
343.639
343.994
344.248
344.381
344.381
344.248
343.994
343.639
343.209
342.732
342.234
341.738
341.275
340.918
333.491
333.778
334.155
334.561
334.968
335.358
335.71
336
336.208
336.317
336.317
336.208
336
335.71
335.358
334.968
334.561
334.155
333.778
333.491
326.059
326.28
326.573
326.888
327.205
327.508
327.781
328.007
328.168
328.253
328.253
328.168
328.007
327.781
327.508
327.205
326.888
326.573
326.28
326.059
318.625
318.781
318.99
319.215
319.441
319.658
319.853
320.014
320.129
320.19
320.19
320.129
320.014
319.853
319.658
319.441
319.215
318.99
318.781
318.625
311.188
311.282
311.407
311.542
311.678
311.808
311.925
312.022
312.091
312.127
312.127
312.091
312.022
311.925
311.808
311.678
311.542
311.407
311.282
311.188
303.751
303.782
303.824
303.869
303.915
303.958
303.997
304.03
304.053
304.065
304.065
304.053
304.03
303.997
303.958
303.915
303.869
303.824
303.782
303.751
357.327
357.805
358.401
359.031
359.661
360.261
360.799
361.242
361.559
361.724
361.724
361.559
361.242
360.799
360.261
359.661
359.031
358.401
357.805
357.327
349.7
350.104
350.618
351.164
351.709
352.229
352.695
353.079
353.353
353.496
353.496
353.353
353.079
352.695
352.229
351.709
351.164
350.618
350.104
349.7
342.067
342.402
342.835
343.297
343.758
344.198
344.592
344.917
345.148
345.269
345.269
345.148
344.917
344.592
344.198
343.758
343.297
342.835
342.402
342.067
334.43
334.7
335.053
335.43
335.808
336.167
336.49
336.755
336.944
337.043
337.043
336.944
336.755
336.49
336.167
335.808
335.43
335.053
334.7
334.43
326.789
326.996
327.27
327.564
327.857
328.137
328.388
328.594
328.741
328.818
328.818
328.741
328.594
328.388
328.137
327.857
327.564
327.27
326.996
326.789
319.146
319.293
319.488
319.698
319.907
320.107
320.286
320.434
320.539
320.594
320.594
320.539
320.434
320.286
320.107
319.907
319.698
319.488
319.293
319.146
311.501
311.589
311.706
311.832
311.958
312.078
312.185
312.274
312.337
312.37
312.37
312.337
312.274
312.185
312.078
311.958
311.832
311.706
311.589
311.501
303.856
303.885
303.924
303.966
304.008
304.049
304.085
304.114
304.135
304.147
304.147
304.135
304.114
304.085
304.049
304.008
303.966
303.924
303.885
303.856
359.085
359.532
360.087
360.67
361.251
361.8
362.291
362.694
362.981
363.13
363.13
362.981
362.694
362.291
361.8
361.251
360.67
360.087
359.532
359.085
351.221
351.599
352.078
352.583
353.086
353.563
353.988
354.336
354.585
354.714
354.714
354.585
354.336
353.988
353.563
353.086
352.583
352.078
351.599
351.221
343.353
343.667
344.07
344.497
344.923
345.326
345.685
345.98
346.19
346.299
346.299
346.19
345.98
345.685
345.326
344.923
344.497
344.07
343.667
343.353
335.481
335.734
336.062
336.412
336.76
337.09
337.384
337.625
337.797
337.886
337.886
337.797
337.625
337.384
337.09
336.76
336.412
336.062
335.734
335.481
327.607
327.8
328.055
328.327
328.598
328.854
329.083
329.271
329.404
329.474
329.474
329.404
329.271
329.083
328.854
328.598
328.327
328.055
327.8
327.607
319.73
319.867
320.049
320.243
320.437
320.62
320.783
320.917
321.013
321.062
321.062
321.013
320.917
320.783
320.62
320.437
320.243
320.049
319.867
319.73
311.852
311.934
312.043
312.159
312.276
312.386
312.484
312.564
312.622
312.651
312.651
312.622
312.564
312.484
312.386
312.276
312.159
312.043
311.934
311.852
303.973
304
304.037
304.076
304.115
304.152
304.185
304.212
304.231
304.241
304.241
304.231
304.212
304.185
304.152
304.115
304.076
304.037
304
303.973
361.034
361.45
361.964
362.502
363.035
363.536
363.982
364.345
364.604
364.738
364.738
364.604
364.345
363.982
363.536
363.035
362.502
361.964
361.45
361.034
352.908
353.26
353.704
354.17
354.631
355.066
355.452
355.767
355.991
356.107
356.107
355.991
355.767
355.452
355.066
354.631
354.17
353.704
353.26
352.908
344.779
345.071
345.445
345.839
346.229
346.597
346.924
347.19
347.379
347.478
347.478
347.379
347.19
346.924
346.597
346.229
345.839
345.445
345.071
344.779
336.647
336.882
337.187
337.509
337.828
338.129
338.397
338.615
338.77
338.85
338.85
338.77
338.615
338.397
338.129
337.828
337.509
337.187
336.882
336.647
328.513
328.693
328.93
329.18
329.429
329.663
329.871
330.04
330.161
330.223
330.223
330.161
330.04
329.871
329.663
329.429
329.18
328.93
328.693
328.513
320.377
320.505
320.673
320.853
321.03
321.197
321.346
321.467
321.553
321.598
321.598
321.553
321.467
321.346
321.197
321.03
320.853
320.673
320.505
320.377
312.241
312.317
312.418
312.525
312.632
312.733
312.822
312.895
312.946
312.973
312.973
312.946
312.895
312.822
312.733
312.632
312.525
312.418
312.317
312.241
304.103
304.129
304.163
304.199
304.234
304.268
304.298
304.322
304.34
304.349
304.349
304.34
304.322
304.298
304.268
304.234
304.199
304.163
304.129
304.103
363.175
363.561
364.036
364.531
365.017
365.472
365.875
366.203
366.435
366.555
366.555
366.435
366.203
365.875
365.472
365.017
364.531
364.036
363.561
363.175
354.762
355.088
355.498
355.926
356.348
356.743
357.092
357.376
357.577
357.681
357.681
357.577
357.376
357.092
356.743
356.348
355.926
355.498
355.088
354.762
346.346
346.617
346.962
347.324
347.681
348.015
348.31
348.551
348.721
348.809
348.809
348.721
348.551
348.31
348.015
347.681
347.324
346.962
346.617
346.346
337.928
338.146
338.427
338.724
339.015
339.289
339.531
339.727
339.866
339.939
339.939
339.866
339.727
339.531
339.289
339.015
338.724
338.427
338.146
337.928
329.509
329.676
329.894
330.125
330.352
330.565
330.753
330.906
331.014
331.07
331.07
331.014
330.906
330.753
330.565
330.352
330.125
329.894
329.676
329.509
321.089
321.207
321.363
321.527
321.689
321.842
321.976
322.085
322.163
322.203
322.203
322.163
322.085
321.976
321.842
321.689
321.527
321.363
321.207
321.089
312.668
312.738
312.832
312.931
313.028
313.119
313.2
313.266
313.312
313.336
313.336
313.312
313.266
313.2
313.119
313.028
312.931
312.832
312.738
312.668
304.246
304.27
304.301
304.334
304.367
304.398
304.425
304.447
304.462
304.47
304.47
304.462
304.447
304.425
304.398
304.367
304.334
304.301
304.27
304.246
365.51
365.867
366.304
366.757
367.199
367.612
367.975
368.27
368.477
368.585
368.585
368.477
368.27
367.975
367.612
367.199
366.757
366.304
365.867
365.51
356.782
357.084
357.461
357.854
358.237
358.595
358.91
359.165
359.345
359.438
359.438
359.345
359.165
358.91
358.595
358.237
357.854
357.461
357.084
356.782
348.054
348.304
348.622
348.954
349.278
349.581
349.848
350.064
350.216
350.295
350.295
350.216
350.064
349.848
349.581
349.278
348.954
348.622
348.304
348.054
339.324
339.526
339.785
340.056
340.322
340.57
340.788
340.965
341.089
341.154
341.154
341.089
340.965
340.788
340.57
340.322
340.056
339.785
339.526
339.324
330.594
330.749
330.95
331.161
331.368
331.561
331.73
331.868
331.965
332.015
332.015
331.965
331.868
331.73
331.561
331.368
331.161
330.95
330.749
330.594
321.864
321.973
322.116
322.267
322.415
322.553
322.674
322.772
322.842
322.877
322.877
322.842
322.772
322.674
322.553
322.415
322.267
322.116
321.973
321.864
313.133
313.198
313.284
313.375
313.464
313.547
313.619
313.678
313.72
313.741
313.741
313.72
313.678
313.619
313.547
313.464
313.375
313.284
313.198
313.133
304.402
304.424
304.453
304.483
304.513
304.541
304.565
304.585
304.599
304.606
304.606
304.599
304.585
304.565
304.541
304.513
304.483
304.453
304.424
304.402
368.035
368.364
368.765
369.179
369.581
369.954
370.281
370.544
370.73
370.826
370.826
370.73
370.544
370.281
369.954
369.581
369.179
368.765
368.364
368.035
358.967
359.246
359.592
359.95
360.299
360.622
360.906
361.134
361.295
361.378
361.378
361.295
361.134
360.906
360.622
360.299
359.95
359.592
359.246
358.967
349.9
350.131
350.423
350.726
351.021
351.295
351.534
351.728
351.864
351.934
351.934
351.864
351.728
351.534
351.295
351.021
350.726
350.423
350.131
349.9
340.833
341.019
341.257
341.505
341.746
341.97
342.167
342.325
342.436
342.494
342.494
342.436
342.325
342.167
341.97
341.746
341.505
341.257
341.019
340.833
331.767
331.909
332.094
332.287
332.475
332.649
332.802
332.925
333.012
333.057
333.057
333.012
332.925
332.802
332.649
332.475
332.287
332.094
331.909
331.767
322.701
322.802
322.934
323.071
323.206
323.33
323.44
323.528
323.59
323.622
323.622
323.59
323.528
323.44
323.33
323.206
323.071
322.934
322.802
322.701
313.636
313.696
313.775
313.858
313.938
314.013
314.079
314.132
314.169
314.188
314.188
314.169
314.132
314.079
314.013
313.938
313.858
313.775
313.696
313.636
304.571
304.591
304.617
304.645
304.672
304.697
304.719
304.737
304.75
304.756
304.756
304.75
304.737
304.719
304.697
304.672
304.645
304.617
304.591
304.571
370.74
371.043
371.411
371.788
372.152
372.489
372.782
373.018
373.184
373.269
373.269
373.184
373.018
372.782
372.489
372.152
371.788
371.411
371.043
370.74
361.306
361.563
361.88
362.206
362.523
362.815
363.069
363.274
363.417
363.491
363.491
363.417
363.274
363.069
362.815
362.523
362.206
361.88
361.563
361.306
351.875
352.088
352.355
352.631
352.899
353.146
353.362
353.535
353.656
353.719
353.719
353.656
353.535
353.362
353.146
352.899
352.631
352.355
352.088
351.875
342.446
342.617
342.835
343.062
343.281
343.483
343.66
343.801
343.901
343.952
343.952
343.901
343.801
343.66
343.483
343.281
343.062
342.835
342.617
342.446
333.02
333.151
333.321
333.496
333.667
333.824
333.962
334.072
334.149
334.189
334.189
334.149
334.072
333.962
333.824
333.667
333.496
333.321
333.151
333.02
323.596
323.689
323.809
323.935
324.057
324.169
324.268
324.346
324.402
324.43
324.43
324.402
324.346
324.268
324.169
324.057
323.935
323.809
323.689
323.596
314.173
314.228
314.301
314.376
314.449
314.517
314.576
314.623
314.656
314.674
314.674
314.656
314.623
314.576
314.517
314.449
314.376
314.301
314.228
314.173
304.751
304.769
304.794
304.819
304.843
304.866
304.886
304.902
304.913
304.919
304.919
304.913
304.902
304.886
304.866
304.843
304.819
304.794
304.769
304.751
373.597
373.876
374.212
374.555
374.886
375.19
375.453
375.664
375.812
375.888
375.888
375.812
375.664
375.453
375.19
374.886
374.555
374.212
373.876
373.597
363.772
364.008
364.298
364.596
364.882
365.146
365.375
365.558
365.686
365.752
365.752
365.686
365.558
365.375
365.146
364.882
364.596
364.298
364.008
363.772
353.954
354.149
354.394
354.646
354.889
355.112
355.305
355.461
355.569
355.625
355.625
355.569
355.461
355.305
355.112
354.889
354.646
354.394
354.149
353.954
344.142
344.299
344.499
344.705
344.904
345.086
345.245
345.372
345.461
345.507
345.507
345.461
345.372
345.245
345.086
344.904
344.705
344.499
344.299
344.142
334.336
334.456
334.611
334.772
334.926
335.069
335.192
335.291
335.36
335.396
335.396
335.36
335.291
335.192
335.069
334.926
334.772
334.611
334.456
334.336
324.534
324.619
324.73
324.844
324.955
325.057
325.145
325.216
325.265
325.29
325.29
325.265
325.216
325.145
325.057
324.955
324.844
324.73
324.619
324.534
314.736
314.787
314.853
314.922
314.988
315.049
315.102
315.145
315.174
315.19
315.19
315.174
315.145
315.102
315.049
314.988
314.922
314.853
314.787
314.736
304.939
304.956
304.979
305.002
305.024
305.044
305.062
305.076
305.086
305.091
305.091
305.086
305.076
305.062
305.044
305.024
305.002
304.979
304.956
304.939
376.532
376.788
377.096
377.41
377.71
377.984
378.222
378.411
378.543
378.611
378.611
378.543
378.411
378.222
377.984
377.71
377.41
377.096
376.788
376.532
366.293
366.51
366.776
367.048
367.309
367.547
367.753
367.917
368.032
368.091
368.091
368.032
367.917
367.753
367.547
367.309
367.048
366.776
366.51
366.293
356.071
356.251
356.475
356.705
356.926
357.128
357.302
357.442
357.539
357.589
357.589
357.539
357.442
357.302
357.128
356.926
356.705
356.475
356.251
356.071
345.862
346.007
346.19
346.379
346.559
346.725
346.868
346.982
347.062
347.103
347.103
347.062
346.982
346.868
346.725
346.559
346.379
346.19
346.007
345.862
335.667
335.778
335.92
336.066
336.207
336.336
336.447
336.536
336.598
336.63
336.63
336.598
336.536
336.447
336.336
336.207
336.066
335.92
335.778
335.667
325.481
325.56
325.661
325.766
325.866
325.959
326.038
326.102
326.146
326.169
326.169
326.146
326.102
326.038
325.959
325.866
325.766
325.661
325.56
325.481
315.303
315.35
315.411
315.473
315.534
315.589
315.637
315.675
315.702
315.716
315.716
315.702
315.675
315.637
315.589
315.534
315.473
315.411
315.35
315.303
305.129
305.145
305.165
305.186
305.207
305.225
305.241
305.254
305.263
305.268
305.268
305.263
305.254
305.241
305.225
305.207
305.186
305.165
305.145
305.129
379.356
379.593
379.877
380.165
380.44
380.69
380.905
381.077
381.196
381.258
381.258
381.196
381.077
380.905
380.69
380.44
380.165
379.877
379.593
379.356
368.69
368.891
369.137
369.387
369.625
369.843
370.03
370.179
370.283
370.337
370.337
370.283
370.179
370.03
369.843
369.625
369.387
369.137
368.891
368.69
358.062
358.228
358.436
358.647
358.85
359.034
359.193
359.32
359.408
359.453
359.453
359.408
359.32
359.193
359.034
358.85
358.647
358.436
358.228
358.062
347.466
347.6
347.769
347.943
348.109
348.26
348.391
348.494
348.567
348.604
348.604
348.567
348.494
348.391
348.26
348.109
347.943
347.769
347.6
347.466
336.897
337.001
337.132
337.267
337.397
337.515
337.616
337.697
337.754
337.783
337.783
337.754
337.697
337.616
337.515
337.397
337.267
337.132
337.001
336.897
326.352
326.425
326.519
326.615
326.708
326.792
326.865
326.923
326.963
326.984
326.984
326.963
326.923
326.865
326.792
326.708
326.615
326.519
326.425
326.352
315.822
315.866
315.922
315.98
316.036
316.087
316.131
316.165
316.19
316.202
316.202
316.19
316.165
316.131
316.087
316.036
315.98
315.922
315.866
315.822
305.303
305.317
305.336
305.356
305.374
305.391
305.406
305.418
305.426
305.43
305.43
305.426
305.418
305.406
305.391
305.374
305.356
305.336
305.317
305.303
381.572
381.795
382.063
382.333
382.59
382.823
383.023
383.183
383.293
383.35
383.35
383.293
383.183
383.023
382.823
382.59
382.333
382.063
381.795
381.572
370.5
370.689
370.921
371.156
371.38
371.584
371.759
371.898
371.994
372.044
372.044
371.994
371.898
371.759
371.584
371.38
371.156
370.921
370.689
370.5
359.518
359.676
359.872
360.072
360.262
360.435
360.584
360.702
360.785
360.827
360.827
360.785
360.702
360.584
360.435
360.262
360.072
359.872
359.676
359.518
348.61
348.737
348.897
349.061
349.218
349.36
349.483
349.58
349.647
349.682
349.682
349.647
349.58
349.483
349.36
349.218
349.061
348.897
348.737
348.61
337.759
337.857
337.982
338.11
338.232
338.343
338.439
338.515
338.567
338.595
338.595
338.567
338.515
338.439
338.343
338.232
338.11
337.982
337.857
337.759
326.953
327.023
327.112
327.203
327.291
327.371
327.439
327.493
327.531
327.55
327.55
327.531
327.493
327.439
327.371
327.291
327.203
327.112
327.023
326.953
316.178
316.219
316.273
316.328
316.381
316.429
316.47
316.502
316.525
316.537
316.537
316.525
316.502
316.47
316.429
316.381
316.328
316.273
316.219
316.178
305.421
305.435
305.453
305.471
305.489
305.505
305.519
305.53
305.537
305.541
305.541
305.537
305.53
305.519
305.505
305.489
305.471
305.453
305.435
305.421
)
;

boundaryField
{
    hotSide
    {
        type            fixedGradient;
        gradient        nonuniform List<scalar> 
400
(
526.409
528.215
531.835
537.281
544.575
553.74
564.805
577.801
592.76
609.714
628.693
649.728
672.844
698.066
725.415
754.909
786.562
820.388
856.396
894.593
535.176
536.913
540.396
545.645
552.684
561.547
572.272
584.899
599.468
616.02
634.595
655.227
677.95
702.792
729.777
758.925
790.254
823.776
859.501
897.437
544.664
546.318
549.639
554.652
561.391
569.899
580.226
592.423
606.542
622.636
640.751
660.931
683.215
707.636
734.222
762.995
793.974
827.172
862.597
900.258
554.716
556.274
559.406
564.145
570.537
578.638
588.511
600.222
613.837
629.418
647.025
666.71
688.518
712.487
738.647
767.024
797.636
830.496
865.613
902.991
565.051
566.5
569.42
573.854
579.859
587.509
596.882
608.062
621.129
636.161
653.226
672.388
693.697
717.196
742.919
770.892
801.132
833.653
868.462
905.563
575.237
576.57
579.264
583.372
588.968
596.141
604.991
615.618
628.12
642.588
659.105
677.74
698.551
721.585
746.879
774.457
804.339
836.535
871.051
907.889
584.692
585.909
588.377
592.161
597.352
604.057
612.394
622.484
634.441
648.37
664.365
682.503
702.849
725.452
750.35
777.568
807.124
839.028
873.281
909.884
592.717
593.829
596.094
599.587
604.415
610.703
618.587
628.204
639.683
653.144
668.688
686.401
706.35
728.588
753.153
780.071
809.357
841.018
875.056
911.466
598.59
599.622
601.73
605.002
609.554
615.525
623.067
632.328
643.451
656.563
671.773
689.173
708.831
730.804
755.127
781.828
810.919
842.407
876.291
912.566
601.702
602.69
604.714
607.864
612.266
618.066
625.423
634.493
645.424
658.35
673.382
690.615
710.12
731.951
756.148
782.734
811.724
843.121
876.925
913.129
601.702
602.69
604.714
607.864
612.266
618.066
625.423
634.493
645.424
658.35
673.382
690.615
710.12
731.951
756.148
782.734
811.724
843.121
876.925
913.129
598.59
599.622
601.73
605.002
609.554
615.525
623.067
632.328
643.451
656.563
671.773
689.173
708.831
730.804
755.127
781.828
810.919
842.407
876.291
912.566
592.717
593.829
596.094
599.587
604.415
610.703
618.587
628.204
639.683
653.144
668.688
686.401
706.35
728.588
753.153
780.071
809.357
841.018
875.056
911.466
584.692
585.909
588.377
592.161
597.352
604.057
612.394
622.484
634.441
648.37
664.365
682.503
702.849
725.452
750.35
777.568
807.124
839.028
873.281
909.884
575.237
576.57
579.264
583.372
588.968
596.141
604.991
615.618
628.12
642.588
659.105
677.74
698.551
721.585
746.879
774.457
804.339
836.535
871.051
907.889
565.051
566.5
569.42
573.854
579.859
587.509
596.882
608.062
621.129
636.161
653.226
672.388
693.697
717.196
742.919
770.892
801.132
833.653
868.462
905.563
554.716
556.274
559.406
564.145
570.537
578.638
588.511
600.222
613.837
629.418
647.025
666.71
688.518
712.487
738.647
767.024
797.636
830.496
865.613
902.991
544.664
546.318
549.639
554.652
561.391
569.899
580.226
592.423
606.542
622.636
640.751
660.931
683.215
707.636
734.222
762.995
793.974
827.172
862.597
900.258
535.176
536.913
540.396
545.645
552.684
561.547
572.272
584.899
599.468
616.02
634.595
655.227
677.95
702.792
729.777
758.925
790.254
823.776
859.501
897.437
526.409
528.215
531.835
537.281
544.575
553.74
564.805
577.801
592.76
609.714
628.693
649.728
672.844
698.066
725.415
754.909
786.562
820.388
856.396
894.593
)
;
    }
    coldSide
    {
        type            mixed;
        refValue        uniform 300;
        refGradient     uniform 0;
        valueFraction   uniform 0.991591;
        source          uniform 0;
        value           nonuniform List<scalar> 
400
(
300.028
300.028
300.028
300.029
300.029
300.03
300.03
300.031
300.032
300.032
300.033
300.035
300.036
300.037
300.038
300.04
300.042
300.043
300.045
300.046
300.028
300.029
300.029
300.029
300.029
300.03
300.03
300.031
300.032
300.033
300.034
300.035
300.036
300.037
300.039
300.04