/*--------------------------------*- C++ -*----------------------------------*\
| =========                 |                                                 |
| \\      /  F ield         | OpenFOAM: The Open Source CFD Toolbox           |
|  \\    /   O peration     | Version:  2212                                  |
|   \\  /    A nd           | Website:  www.openfoam.com                      |
|    \\/     M anipulation  |                                                 |
\*---------------------------------------------------------------------------*/
FoamFile
{
    version     2.0;
    format      ascii;
    arch        "LSB;label=32;scalar=64";
    class       volScalarField;
    location    "0";
    object      T;
}
// * * * * * * * * * * * * * * * * * * * * * * * * * * * * * * * * * * * * * //

dimensions      [0 0 0 1 0 0 0];

internalField   nonuniform List<scalar> 
3200
(
341.586
342.443
343.327
343.9
344.785
345.496
345.833
346.233
346.45
346.312
346.23
346.121
345.734
345.303
344.665
343.947
343.135
341.902
340.741
340.235
336.108
336.811
337.575
338.055
338.809
339.477
339.747
340.091
340.272
340.149
340.084
340.009
339.679
339.316
338.735
338.139
337.454
336.337
335.348
334.972
330.62
331.159
331.81
332.178
332.858
333.425
333.574
333.963
334.075
333.937
333.918
333.84
333.631
333.307
332.79
332.282
331.747
330.767
329.917
329.683
325.088
325.497
326.047
326.331
326.898
327.374
327.453
327.862
327.885
327.77
327.832
327.64
327.552
327.282
326.822
326.437
326.04
325.192
324.506
324.314
319.53
319.869
320.272
320.502
320.933
321.311
321.324
321.737
321.691
321.619
321.656
321.459
321.48
321.241
320.868
320.594
320.303
319.626
319.108
318.953
313.937
314.197
314.494
314.639
314.947
315.215
315.209
315.551
315.491
315.471
315.492
315.307
315.373
315.201
314.884
314.737
314.505
314.071
313.678
313.588
308.385
308.537
308.732
308.789
308.964
309.158
309.142
309.33
309.303
309.293
309.339
309.184
309.251
309.138
308.916
308.849
308.691
308.488
308.223
308.188
302.802
302.874
302.94
302.953
302.986
303.069
303.046
303.124
303.1
303.098
303.144
303.081
303.1
303.064
302.981
302.984
302.902
302.876
302.756
302.745
342.347
343.078
343.928
344.833
345.724
346.418
346.947
347.142
347.188
347.415
347.399
347.107
346.619
346.083
345.54
344.802
343.941
342.651
341.773
340.926
336.705
337.339
338.058
338.831
339.589
340.215
340.65
340.804
340.886
341.101
341.075
340.813
340.395
339.928
339.428
338.857
338.085
336.941
336.229
335.548
331.054
331.588
332.226
332.84
333.514
334.033
334.35
334.465
334.611
334.774
334.751
334.505
334.147
333.793
333.336
332.876
332.277
331.172
330.659
330.142
325.441
325.846
326.34
326.853
327.44
327.854
328.095
328.166
328.345
328.46
328.384
328.235
327.878
327.636
327.303
326.915
326.429
325.456
325.105
324.687
319.804
320.158
320.491
320.893
321.333
321.667
321.869
321.92
322.062
322.13
322.02
321.979
321.647
321.507
321.244
320.905
320.54
319.778
319.551
319.181
314.146
314.429
314.619
314.915
315.234
315.479
315.631
315.71
315.779
315.773
315.727
315.707
315.454
315.397
315.18
314.926
314.669
314.118
313.962
313.687
308.495
308.698
308.772
308.948
309.128
309.322
309.391
309.469
309.475
309.462
309.461
309.455
309.297
309.239
309.09
308.941
308.819
308.462
308.387
308.242
302.843
302.932
302.953
303.001
303.063
303.116
303.143
303.192
303.169
303.181
303.171
303.168
303.106
303.091
303.02
302.976
302.965
302.828
302.818
302.764
343.096
344.089
345.048
345.818
346.769
347.445
347.855
348.126
348.416
348.503
348.506
348.122
347.767
347.018
346.642
345.83
344.867
343.602
342.714
341.758
337.332
338.174
339.018
339.72
340.495
341.079
341.451
341.666
341.925
341.991
341.973
341.642
341.395
340.72
340.41
339.681
338.843
337.788
337.016
336.178
331.587
332.286
332.996
333.629
334.253
334.701
335.089
335.242
335.46
335.496
335.457
335.228
335.047
334.4
334.161
333.577
332.858
332.029
331.33
330.644
325.871
326.401
327.039
327.541
327.993
328.395
328.751
328.802
329
328.993
328.994
328.87
328.659
328.113
327.934
327.451
326.881
326.24
325.672
325.098
320.111
320.549
321.068
321.458
321.779
322.118
322.393
322.397
322.568
322.546
322.525
322.502
322.256
321.868
321.715
321.382
320.878
320.427
320.03
319.572
314.347
314.699
315.051
315.346
315.532
315.834
316.04
315.969
316.096
316.128
316.081
316.075
315.88
315.664
315.499
315.31
314.9
314.591
314.342
313.97
308.639
308.832
309.064
309.21
309.332
309.508
309.65
309.577
309.663
309.723
309.687
309.678
309.532
309.427
309.31
309.217
308.943
308.762
308.683
308.364
302.898
302.95
303.049
303.088
303.126
303.175
303.229
303.191
303.242
303.268
303.265
303.233
303.203
303.157
303.124
303.089
302.972
302.924
302.923
302.786
344.161
345.344
346.327
346.997
347.962
348.43
349.006
349.357
349.325
349.409
349.641
349.33
348.928
348.147
347.545
346.77
345.821
344.779
343.774
342.818
338.272
339.255
340.125
340.68
341.523
341.953
342.434
342.757
342.724
342.786
343.028
342.724
342.391
341.675
341.152
340.524
339.687
338.734
337.946
337.149
332.376
333.228
333.971
334.361
335.107
335.497
335.897
336.184
336.153
336.21
336.443
336.135
335.855
335.213
334.753
334.301
333.575
332.756
332.078
331.444
326.473
327.165
327.777
328.076
328.713
329.037
329.353
329.612
329.566
329.611
329.872
329.529
329.362
328.769
328.389
328.105
327.468
326.784
326.227
325.724
320.605
321.098
321.576
321.855
322.296
322.561
322.878
323.035
323.019
323.063
323.265
322.983
322.828
322.35
322.038
321.857
321.397
320.806
320.44
320.004
314.745
315.078
315.42
315.627
315.915
316.124
316.347
316.445
316.442
316.497
316.671
316.452
316.312
315.944
315.722
315.622
315.285
314.865
314.615
314.301
308.85
309.101
309.244
309.372
309.53
309.717
309.832
309.865
309.85
309.929
310.019
309.906
309.794
309.55
309.461
309.383
309.186
308.918
308.761
308.622
302.956
303.062
303.088
303.148
303.185
303.273
303.316
303.307
303.296
303.33
303.376
303.329
303.289
303.185
303.179
303.137
303.087
302.985
302.934
302.892
345.441
346.277
347.47
348.19
348.956
349.364
350.136
350.597
350.661
350.772
350.736
350.362
350.068
349.186
348.419
347.709
347.057
345.884
344.587
343.788
339.359
340.096
341.083
341.718
342.393
342.73
343.392
343.812
343.886
343.985
343.949
343.607
343.396
342.551
341.914
341.285
340.755
339.727
338.639
337.966
333.308
333.914
334.696
335.319
335.87
336.168
336.688
337.043
337.093
337.2
337.196
336.871
336.727
335.981
335.437
334.941
334.532
333.611
332.669
332.139
327.308
327.757
328.373
328.881
329.392
329.586
329.979
330.296
330.335
330.422
330.425
330.148
330.031
329.435
328.961
328.566
328.308
327.52
326.771
326.353
321.283
321.635
322.083
322.456
322.895
322.983
323.283
323.588
323.613
323.658
323.705
323.419
323.39
322.927
322.506
322.192
322.079
321.44
320.847
320.557
315.23
315.462
315.799
316.015
316.393
316.416
316.588
316.883
316.847
316.911
316.974
316.738
316.699
316.396
316.072
315.829
315.816
315.314
314.899
314.695
309.146
309.279
309.518
309.611
309.831
309.876
309.938
310.161
310.109
310.182
310.171
310.024
310.032
309.846
309.652
309.468
309.502
309.222
308.949
308.833
303.065
303.123
303.208
303.22
303.294
303.317
303.325
303.399
303.378
303.415
303.413
303.351
303.363
303.306
303.208
303.175
303.184
303.081
302.994
302.96
346.386
347.161
348.346
349.302
350.114
350.718
351.262
351.596
351.698
351.769
351.614
351.311
351.046
350.184
349.398
348.766
348.148
346.764
345.568
344.859
340.189
340.849
341.885
342.684
343.406
343.929
344.378
344.705
344.733
344.835
344.687
344.422
344.235
343.423
342.711
342.212
341.721
340.501
339.468
338.887
334.016
334.587
335.442
336.073
336.694
337.135
337.574
337.845
337.814
337.947
337.787
337.568
337.427
336.639
336.116
335.662
335.26
334.242
333.418
332.9
327.841
328.304
329.009
329.501
330.037
330.386
330.685
330.995
330.911
331.059
330.945
330.736
330.626
329.941
329.553
329.153
328.837
327.998
327.367
326.907
321.681
322.053
322.531
322.947
323.393
323.668
323.886
324.159
324.025
324.169
324.082
323.906
323.818
323.28
322.985
322.682
322.456
321.737
321.344
320.898
315.509
315.758
316.08
316.375
316.719
316.911
317.066
317.267
317.177
317.267
317.241
317.062
316.971
316.649
316.397
316.187
316.059
315.512
315.251
314.964
309.329
309.448
309.633
309.831
310.031
310.136
310.24
310.367
310.337
310.361
310.366
310.219
310.188
310.014
309.864
309.712
309.649
309.294
309.164
309.016
303.128
303.178
303.248
303.291
303.359
303.403
303.443
303.463
303.493
303.471
303.479
303.411
303.429
303.357
303.322
303.287
303.23
303.111
303.063
303.042
347.297
348.001
349.164
350.131
351.037
351.86
352.246
352.527
352.74
352.647
352.667
352.25
352.048
351.176
350.386
349.737
348.923
347.751
346.501
345.495
341.025
341.556
342.567
343.412
344.189
344.909
345.245
345.527
345.677
345.553
345.603
345.245
345.073
344.302
343.581
343.081
342.373
341.369
340.269
339.419
334.761
335.202
336.033
336.705
337.356
337.978
338.296
338.527
338.62
338.493
338.556
338.209
338.085
337.47
336.827
336.432
335.844
334.99
334.024
333.332
328.46
328.826
329.513
330.05
330.506
331.027
331.31
331.549
331.643
331.466
331.539
331.231
331.124
330.621
330.116
329.827
329.279
328.643
327.807
327.272
322.169
322.398
322.991
323.357
323.713
324.073
324.336
324.541
324.596
324.472
324.569
324.309
324.173
323.792
323.429
323.203
322.769
322.304
321.572
321.194
315.823
316.024
316.409
316.665
316.91
317.149
317.415
317.541
317.59
317.518
317.598
317.354
317.286
316.983
316.779
316.615
316.247
315.95
315.395
315.151
309.511
309.655
309.834
309.997
310.168
310.282
310.481
310.529
310.576
310.538
310.615
310.412
310.378
310.181
310.118
309.993
309.736
309.56
309.233
309.08
303.189
303.222
303.296
303.361
303.405
303.443
303.511
303.557
303.559
303.539
303.551
303.5
303.481
303.401
303.403
303.347
303.241
303.207
303.114
303.032
348.206
349.197
350.2
351.198
352.062
352.765
353.222
353.701
353.626
353.713
353.585
353.32
352.879
352.186
351.522
350.848
349.733
348.67
347.417
346.303
341.795
342.582
343.477
344.365
345.076
345.733
346.124
346.474
346.415
346.529
346.376
346.174
345.819
345.183
344.601
343.99
343.125
342.147
341.075
340.176
335.355
335.998
336.759
337.546
338.115
338.673
339.035
339.301
339.24
339.42
339.223
339.009
338.778
338.246
337.761
337.174
336.522
335.686
334.755
334
328.943
329.42
330.072
330.714
331.134
331.647
331.968
332.153
332.087
332.284
332.104
331.898
331.767
331.279
330.937
330.407
329.896
329.223
328.432
327.869
322.536
322.879
323.42
323.885
324.211
324.633
324.864
325.045
324.956
325.114
324.995
324.811
324.751
324.328
324.083
323.7
323.291
322.732
322.139
321.688
316.062
316.343
316.725
317.06
317.279
317.602
317.798
317.901
317.802
317.982
317.844
317.704
317.748
317.356
317.22
316.955
316.637
316.218
315.813
315.514
309.608
309.791
310.084
310.268
310.37
310.577
310.698
310.77
310.685
310.819
310.734
310.644
310.683
310.42
310.376
310.231
309.992
309.706
309.503
309.285
303.228
303.277
303.381
303.455
303.474
303.545
303.604
303.627
303.573
303.638
303.576
303.568
303.597
303.495
303.474
303.428
303.348
303.263
303.181
303.131
348.926
349.962
351.062
351.901
353.075
353.692
354.02
354.372
354.537
354.604
354.401
354.172
353.855
352.981
352.456
351.76
350.555
349.358
348.073
347.221
342.384
343.262
344.226
344.942
345.931
346.517
346.765
347.106
347.262
347.233
347.114
346.875
346.645
345.835
345.434
344.824
343.781
342.664
341.61
340.974
335.839
336.573
337.417
338.013
338.823
339.303
339.512
339.81
339.994
339.913
339.852
339.596
339.49
338.744
338.371
337.897
337.017
336.068
335.179
334.701
329.303
329.9
330.613
331.083
331.726
332.075
332.274
332.466
332.738
332.646
332.609
332.389
332.337
331.699
331.345
330.981
330.279
329.536
328.77
328.421
322.734
323.255
323.814
324.132
324.666
324.888
325.134
325.21
325.488
325.387
325.372
325.189
325.167
324.674
324.39
324.107
323.562
322.988
322.364
322.144
316.213
316.609
317.094
317.239
317.594
317.778
317.945
317.991
318.211
318.118
318.106
318.023
318.014
317.655
317.429
317.219
316.815
316.414
315.996
315.822
309.74
309.979
310.308
310.336
310.543
310.697
310.752
310.794
310.961
310.859
310.863
310.808
310.807
310.63
310.451
310.347
310.11
309.863
309.637
309.507
303.268
303.352
303.464
303.461
303.544
303.593
303.603
303.627
303.667
303.626
303.653
303.611
303.604
303.563
303.49
303.476
303.394
303.298
303.22
303.197
349.6
350.68
351.592
352.626
353.772
354.163
354.656
355.161
355.369
355.482
355.447
355.03
354.624
353.789
353.203
352.369
351.124
349.975
348.64
347.645
343.031
343.904
344.683
345.565
346.552
346.886
347.322
347.732
347.973
347.983
347.95
347.617
347.293
346.558
346.079
345.34
344.276
343.221
342.106
341.322
336.396
337.172
337.797
338.566
339.303
339.64
340.052
340.342
340.589
340.495
340.499
340.222
339.969
339.376
338.961
338.295
337.48
336.539
335.605
335.013
329.741
330.404
330.925
331.549
332.125
332.335
332.779
332.956
333.205
333.043
333.104
332.875
332.671
332.215
331.864
331.28
330.651
329.897
329.121
328.683
323.072
323.663
324.056
324.533
325.021
325.112
325.488
325.618
325.816
325.658
325.737
325.558
325.377
325.027
324.746
324.3
323.828
323.268
322.595
322.377
316.445
316.902
317.196
317.547
317.929
317.909
318.196
318.287
318.409
318.325
318.401
318.253
318.148
317.872
317.652
317.355
316.992
316.641
316.11
316.005
309.854
310.165
310.345
310.557
310.814
310.765
310.922
310.975
311.02
311.025
311.046
310.941
310.899
310.743
310.572
310.42
310.203
310.017
309.634
309.604
303.316
303.408
303.467
303.543
303.639
303.631
303.651
303.667
303.671
303.704
303.686
303.667
303.659
303.608
303.527
303.465
303.424
303.363
303.221
303.225
350.231
351.326
352.256
353.379
354.327
354.822
355.581
355.728
356.266
356.161
356.146
355.792
355.529
354.586
353.941
353.103
351.831
350.79
349.427
348.286
343.523
344.495
345.248
346.224
347.041
347.477
348.154
348.266
348.763
348.631
348.596
348.319
348.091
347.251
346.696
345.965
344.867
343.954
342.744
341.852
336.774
337.665
338.27
339.114
339.762
340.142
340.729
340.793
341.249
341.063
341.075
340.823
340.659
339.92
339.481
338.841
337.906
337.132
336.095
335.427
330.083
330.85
331.298
332.041
332.525
332.828
333.311
333.341
333.746
333.549
333.541
333.348
333.27
332.622
332.215
331.715
330.984
330.357
329.485
328.982
323.4
323.984
324.35
324.939
325.318
325.543
325.883
325.934
326.244
326.085
326.075
325.916
325.89
325.358
325.023
324.647
324.132
323.588
322.91
322.532
316.701
317.123
317.421
317.837
318.14
318.235
318.463
318.514
318.749
318.627
318.609
318.489
318.494
318.14
317.858
317.59
317.295
316.834
316.339
316.109
309.993
310.284
310.478
310.715
310.922
310.948
311.076
311.1
311.269
311.19
311.148
311.091
311.096
310.908
310.727
310.528
310.374
310.106
309.805
309.666
303.306
303.44
303.495
303.605
303.678
303.691
303.718
303.719
303.793
303.748
303.739
303.732
303.72
303.669
303.59
303.515
303.469
303.385
303.313
303.256
350.813
351.859
352.99
354.101
354.925
355.626
356.237
356.386
356.793
356.863
356.717
356.354
355.955
355.364
354.626
353.711
352.43
351.432
349.997
349.074
344.003
344.952
345.891
346.881
347.557
348.128
348.658
348.778
349.232
349.265
349.172
348.756
348.48
347.91
347.276
346.499
345.343
344.508
343.27
342.526
337.235
338.022
338.797
339.672
340.187
340.716
341.145
341.232
341.615
341.656
341.578
341.192
341.044
340.532
339.984
339.302
338.345
337.614
336.589
335.981
330.486
331.145
331.74
332.46
332.893
333.272
333.612
333.69
334.03
334.055
334.027
333.651
333.561
333.165
332.732
332.089
331.38
330.797
329.946
329.434
323.747
324.206
324.717
325.217
325.586
325.84
326.125
326.212
326.451
326.469
326.431
326.129
326.081
325.809
325.49
324.893
324.428
323.916
323.321
322.846
316.969
317.268
317.68
318
318.312
318.453
318.641
318.774
318.927
318.865
318.861
318.643
318.62
318.453
318.225
317.768
317.474
317.073
316.638
316.327
310.183
310.365
310.606
310.797
310.993
311.069
311.206
311.316
311.376
311.316
311.337
311.182
311.197
311.108
310.926
310.674
310.488
310.223
309.984
309.838
303.413
303.473
303.561
303.617
303.686
303.702
303.758
303.804
303.816
303.789
303.786
303.749
303.741
303.735
303.655
303.574
303.484
303.419
303.357
303.293
351.323
352.338
353.396
354.433
355.304
356.331
356.75
357.15
357.437
357.554
357.284
357.006
356.535
355.727
355.058
354.35
352.891
351.759
350.683
349.712
344.403
345.334
346.201
347.168
347.925
348.763
349.168
349.481
349.768
349.852
349.601
349.333
348.943
348.238
347.678
347.064
345.806
344.787
343.904
343.108
337.527
338.355
339.058
339.934
340.557
341.239
341.562
341.842
342.121
342.18
341.924
341.713
341.388
340.78
340.353
339.798
338.751
337.856
337.148
336.49
330.651
331.375
331.95
332.727
333.175
333.712
333.991
334.22
334.519
334.533
334.276
334.108
333.824
333.33
333.042
332.533
331.702
330.965
330.428
329.917
323.799
324.383
324.875
325.499
325.825
326.212
326.434
326.599
326.849
326.866
326.633
326.513
326.295
325.919
325.71
325.315
324.676
324.092
323.632
323.299
316.989
317.407
317.773
318.215
318.436
318.71
318.861
318.951
319.212
319.19
319.014
318.956
318.748
318.552
318.37
318.056
317.629
317.198
316.901
316.635
310.202
310.444
310.649
310.966
311.048
311.209
311.314
311.351
311.542
311.52
311.414
311.41
311.243
311.143
311.002
310.836
310.575
310.345
310.123
310.011
303.397
303.493
303.588
303.67
303.688
303.749
303.78
303.799
303.869
303.857
303.818
303.827
303.757
303.708
303.667
303.625
303.549
303.453
303.403
303.36
351.529
352.684
353.878
354.925
355.79
356.745
357.381
357.684
358.044
358.117
357.708
357.28
356.729
356.274
355.46
354.734
353.538
352.326
350.949
350.048
344.615
345.615
346.623
347.557
348.268
349.139
349.699
349.924
350.325
350.358
349.951
349.615
349.131
348.69
348.029
347.398
346.347
345.313
344.117
343.365
337.696
338.554
339.389
340.236
340.795
341.539
342.06
342.167
342.591
342.609
342.171
341.977
341.54
341.159
340.626
340.118
339.162
338.337
337.298
336.712
330.804
331.51
332.193
332.976
333.372
333.972
334.421
334.483
334.866
334.883
334.468
334.326
333.978
333.665
333.22
332.812
332.002
331.369
330.505
330.076
323.964
324.502
325.045
325.673
325.971
326.405
326.707
326.799
327.127
327.144
326.84
326.673
326.435
326.157
325.829
325.499
324.889
324.428
323.679
323.454
317.163
317.497
317.916
318.349
318.563
318.862
319.061
319.158
319.425
319.423
319.2
319.075
318.861
318.693
318.484
318.215
317.761
317.472
316.911
316.807
310.332
310.511
310.784
310.997
311.14
311.312
311.413
311.522
311.662
311.655
311.553
311.452
311.3
311.231
311.146
310.936
310.661
310.486
310.136
310.114
303.443
303.515
303.622
303.678
303.742
303.788
303.826
303.858
303.898
303.913
303.871
303.845
303.788
303.773
303.723
303.652
303.574
303.506
303.421
303.409
351.889
352.973
354.205
355.124
356.242
357.104
357.529
358.012
358.23
358.526
358.309
357.888
357.183
356.739
355.851
354.958
353.932
352.643
351.291
349.894
344.989
345.862
346.918
347.714
348.666
349.497
349.836
350.243
350.435
350.676
350.493
350.128
349.535
349.12
348.306
347.564
346.746
345.571
344.443
343.232
338.056
338.783
339.664
340.366
341.122
341.92
342.194
342.5
342.607
342.868
342.669
342.368
341.854
341.527
340.84
340.229
339.558
338.542
337.621
336.596
331.13
331.716
332.433
333.02
333.619
334.365
334.557
334.761
334.839
335.068
334.902
334.627
334.245
334.039
333.384
332.887
332.355
331.572
330.787
329.949
324.193
324.654
325.186
325.697
326.158
326.801
326.909
327.037
327.049
327.273
327.141
326.953
326.667
326.504
325.959
325.57
325.179
324.586
323.99
323.27
317.269
317.609
317.972
318.36
318.684
319.156
319.239
319.341
319.333
319.474
319.393
319.268
319.118
318.926
318.542
318.252
317.973
317.578
317.139
316.646
310.367
310.578
310.78
311.012
311.191
311.497
311.558
311.591
311.621
311.702
311.655
311.595
311.512
311.361
311.125
310.943
310.801
310.558
310.264
310.014
303.475
303.536
303.624
303.682
303.758
303.856
303.869
303.891
303.897
303.911
303.898
303.896
303.854
303.807
303.729
303.657
303.642
303.504
303.439
303.369
352.139
353.259
354.538
355.466
356.486
357.213
357.759
358.532
358.648
358.756
358.636
358.041
357.325
356.901
356.265
355.169
353.954
352.809
351.672
350.322
345.193
346.073
347.244
348.012
348.911
349.576
349.993
350.675
350.802
350.899
350.75
350.23
349.59
349.28
348.743
347.819
346.751
345.746
344.737
343.619
338.254
338.904
339.981
340.568
341.371
341.968
342.314
342.793
342.963
343.063
342.899
342.44
341.905
341.705
341.267
340.457
339.529
338.715
337.831
336.909
331.289
331.817
332.706
333.154
333.877
334.348
334.632
334.98
335.194
335.18
335.098
334.679
334.285
334.158
333.765
333.082
332.301
331.714
330.899
330.186
324.264
324.779
325.442
325.767
326.366
326.733
326.926
327.186
327.392
327.34
327.315
326.972
326.693
326.601
326.25
325.761
325.086
324.706
324.024
323.471
317.271
317.736
318.199
318.43
318.829
319.107
319.253
319.388
319.572
319.488
319.527
319.284
319.091
319.023
318.756
318.436
317.927
317.622
317.14
316.768
310.322
310.648
310.918
311.059
311.278
311.474
311.571
311.633
311.757
311.677
311.734
311.611
311.463
311.452
311.282
311.082
310.76
310.56
310.28
310.078
303.455
303.564
303.663
303.708
303.76
303.852
303.891
303.905
303.934
303.899
303.938
303.917
303.88
303.858
303.799
303.717
303.626
303.536
303.465
303.372
352.198
353.238
354.797
355.76
356.724
357.488
357.988
358.669
358.733
358.97
358.687
358.152
357.817
357.137
356.469
355.299
354.389
352.779
351.672
350.491
345.233
346.062
347.449
348.312
349.119
349.76
350.189
350.828
350.836
351.062
350.808
350.327
350.031
349.474
348.892
347.883
347.105
345.736
344.73
343.764
338.236
338.938
340.175
340.853
341.541
342.052
342.443
342.986
343.017
343.184
343.015
342.541
342.278
341.829
341.31
340.507
339.885
338.713
337.812
337.007
331.277
331.844
332.868
333.375
333.977
334.423
334.744
335.16
335.18
335.326
335.212
334.78
334.583
334.247
333.785
333.145
332.63
331.657
330.917
330.284
324.345
324.78
325.561
325.96
326.413
326.807
327.065
327.375
327.345
327.471
327.411
327.075
326.882
326.637
326.264
325.769
325.388
324.609
324.022
323.589
317.384
317.728
318.274
318.579
318.856
319.17
319.371
319.558
319.547
319.602
319.589
319.352
319.206
319.059
318.776
318.382
318.155
317.537
317.151
316.835
310.461
310.656
310.999
311.172
311.322
311.486
311.64
311.74
311.746
311.761
311.741
311.625
311.529
311.463
311.278
311.007
310.912
310.497
310.269
310.051
303.495
303.571
303.682
303.758
303.791
303.847
303.906
303.937
303.936
303.948
303.933
303.913
303.875
303.841
303.788
303.692
303.664
303.506
303.431
303.357
352.652
353.419
354.763
355.95
356.744
357.54
357.973
358.602
358.843
358.885
358.802
358.318
357.726
357.21
356.369
355.473
354.625
353.099
351.731
350.546
345.635
346.303
347.374
348.448
349.172
349.792
350.221
350.732
350.951
350.969
350.94
350.511
349.994
349.565
348.833
348.044
347.308
345.941
344.846
343.799
338.622
339.175
340.031
340.975
341.587
342.09
342.462
342.87
343.094
343.087
343.123
342.699
342.286
341.935
341.286
340.647
340.009
338.81
337.919
337.052
331.61
332.067
332.687
333.494
334.021
334.409
334.72
335.052
335.219
335.228
335.322
334.891
334.61
334.346
333.73
333.26
332.692
331.716
330.964
330.279
324.611
324.981
325.408
326.022
326.452
326.758
326.993
327.245
327.4
327.403
327.516
327.133
326.93
326.701
326.24
325.875
325.412
324.659
324.079
323.528
317.598
317.866
318.148
318.609
318.938
319.103
319.285
319.487
319.601
319.579
319.649
319.37
319.262
319.085
318.749
318.455
318.184
317.621
317.224
316.825
310.58
310.733
310.911
311.187
311.377
311.447
311.54
311.706
311.774
311.772
311.768
311.628
311.59
311.43
311.269
311.077
310.926
310.593
310.357
310.121
303.549
303.59
303.653
303.756
303.804
303.83
303.887
303.923
303.951
303.961
303.928
303.884
303.876
303.821
303.776
303.715
303.659
303.532
303.48
303.383
352.663
353.595
354.487
355.651
356.787
357.612
358.118
358.764
358.735
358.897
358.799
358.281
357.863
357.241
356.411
355.46
354.576
353.189
351.633
350.498
345.638
346.409
347.212
348.159
349.213
349.905
350.329
350.896
350.882
351.013
350.96
350.463
350.1
349.531
348.892
348.072
347.264
346.079
344.768
343.777
338.626
339.216
339.945
340.695
341.591
342.199
342.56
343.063
343.038
343.15
343.118
342.662
342.37
341.906
341.372
340.667
339.995
338.961
337.85
337.001
331.612
332.065
332.67
333.289
333.998
334.492
334.75
335.252
335.2
335.289
335.267
334.845
334.667
334.267
333.871
333.243
332.704
331.845
330.983
330.241
324.6
324.909
325.425
325.864
326.39
326.822
326.977
327.455
327.334
327.467
327.419
327.045
326.973
326.674
326.37
325.851
325.456
324.714
324.102
323.521
317.618
317.802
318.159
318.469
318.837
319.149
319.273
319.633
319.519
319.645
319.623
319.309
319.323
319.134
318.845
318.447
318.197
317.666
317.198
316.821
310.608
310.713
310.912
311.093
311.292
311.452
311.594
311.801
311.695
311.81
311.802
311.598
311.644
311.531
311.314
311.08
310.949
310.611
310.319
310.128
303.544
303.59
303.655
303.707
303.774
303.803
303.883
303.976
303.91
303.955
303.946
303.881
303.913
303.896
303.792
303.698
303.677
303.563
303.452
303.396
352.392
353.492
354.578
355.472
356.669
357.656
357.957
358.746
358.625
358.824
358.829
358.309
357.969
357.193
356.431
355.385
354.532
353.032
351.55
350.348
345.427
346.307
347.278
347.979
349.091
349.977
350.163
350.892
350.801
350.91
350.936
350.493
350.202
349.526
348.909
347.999
347.256
345.929
344.688
343.617
338.472
339.127
339.979
340.532
341.517
342.239
342.452
343.095
342.947
343.041
343.086
342.679
342.497
341.876
341.389
340.586
340.006
338.821
337.824
336.973
331.518
331.99
332.671
333.125
333.941
334.504
334.747
335.29
335.111
335.243
335.263
334.905
334.8
334.232
333.882
333.163
332.78
331.699
330.947
330.276
324.526
324.885
325.395
325.709
326.392
326.838
327.046
327.459
327.275
327.4
327.451
327.133
327.068
326.648
326.342
325.789
325.528
324.598
324.045
323.589
317.542
317.741
318.134
318.361
318.837
319.217
319.361
319.642
319.446
319.551
319.637
319.366
319.327
319.045
318.809
318.387
318.271
317.538
317.148
316.818
310.544
310.617
310.875
311.021
311.299
311.563
311.65
311.827
311.682
311.717
311.801
311.637
311.584
311.471
311.299
311.053
310.989
310.494
310.28
310.098
303.53
303.536
303.64
303.683
303.764
303.881
303.92
303.962
303.922
303.924
303.962
303.901
303.874
303.855
303.793
303.713
303.692
303.507
303.448
303.369
)
;

boundaryField
{
    hotSide
    {
        type            fixedGradient;
        gradient        nonuniform List<scalar> 
400
(
436.872
449.367
461.444
473.048
484.127
494.628
504.502
513.701
522.18
529.895
536.808
542.883
548.087
552.394
555.78
558.225
559.717
560.246
559.807
558.402
448.382
461.22
473.629
485.554
496.94
507.735
517.886
527.345
536.065
544.002
551.116
557.37
562.73
567.17
570.663
573.192
574.741
575.302
574.869
573.443
458.665
471.81
484.516
496.728
508.39
519.447
529.847
539.539
548.475
556.611
563.905
570.32
575.821
580.38
583.971
586.575
588.177
588.767
588.34
586.897
467.655
481.067
494.034
506.498
518.401
529.688
540.305
550.201
559.328
567.638
575.091
581.647
587.271
591.935
595.613
598.283
599.932
600.548
600.128
598.671
475.296
488.936
502.124
514.801
526.91
538.392
549.195
559.265
568.553
577.012
584.6
591.276
597.007
601.761
605.512
608.24
609.928
610.568
610.154
608.686
481.544
495.371
508.74
521.591
533.867
545.51
556.464
566.676
576.096
584.677
592.376
599.151
604.968
609.795
613.607
616.382
618.105
618.764
618.355
616.878
486.367
500.337
513.844
526.83
539.235
551.001
562.071
572.393
581.915
590.59
598.374
605.225
611.109
615.994
619.853
622.664
624.413
625.087
624.683
623.2
489.741
503.81
517.414
530.493
542.987
554.838
565.99
576.388
585.981
594.721
602.564
609.468
615.399
620.323
624.215
627.052
628.819
629.505
629.104
627.617
491.655
505.778
519.436
532.566
545.109
557.008
568.204
578.644
588.276
597.052
604.928
611.862
617.818
622.765
626.675
629.527
631.304
631.996
631.597
630.108
492.103
506.237
519.905
533.045
545.597
557.504
568.709
579.157
588.796
597.579
605.461
612.401
618.363
623.314
627.227
630.082
631.862
632.555
632.157
630.667
491.094
505.193
518.827
531.935
544.457
556.335
567.511
577.933
587.548
596.309
604.171
611.093
617.038
621.976
625.879
628.725
630.498
631.188
630.789
629.301
488.639
502.661
516.219
529.254
541.705
553.515
564.628
574.99
584.55
593.259
601.075
607.955
613.864
618.77
622.648
625.474
627.233
627.915
627.513
626.029
484.764
498.664
512.104
525.025
537.367
549.072
560.087
570.355
579.829
588.459
596.201
603.017
608.869
613.728
617.565
620.36
622.098
622.766
622.361
620.882
479.497
493.234
506.515
519.282
531.477
543.042
553.923
564.067
573.423
581.946
589.591
596.32
602.096
606.889
610.673
613.426
615.134
615.785
615.374
613.903
472.877
486.41
499.493
512.069
524.079
535.469
546.183
556.171
565.382
573.771
581.295
587.914
593.595
598.307
602.024
604.725
606.396
607.025
606.608
605.146
464.952
478.241
491.088
503.435
515.226
526.406
536.923
546.724
555.762
563.992
571.371
577.862
583.429
588.044
591.682
594.322
595.948
596.552
596.128
594.677
455.773
468.782
481.356
493.44
504.979
515.918
526.207
535.794
544.633
552.679
559.891
566.233
571.671
576.175
579.721
582.29
583.867
584.442
584.01
582.572
445.404
458.097
470.365
482.153
493.408
504.076
514.108
523.454
532.069
539.91
546.936
553.111
558.402
562.782
566.227
568.717
570.238
570.781
570.341
568.919
433.913
446.258
458.188
469.65
480.591
490.961
500.71
509.791
518.16
525.773
532.594
538.585
543.717
547.96
551.293
553.697
555.158
555.666
555.218
553.815
421.377
433.344
444.907
456.014
466.615
476.661
486.104
494.897
502.998
510.367
516.964
522.758
527.716
531.812
535.025
537.336
538.732
539.204
538.749
537.367
)
;
    }
    coldSide
    {
        type            mixed;
        refValue        uniform 300;
        refGradient     uniform 0;
        valueFraction   uniform 0.991591;
        source          uniform 0;
        value           nonuniform List<scalar> 
400
(
300.024
300.024
300.024
300.025
300.026
300.026
300.027
300.027
300.027
300.028
300.028
300.029
300.029
300.029
300.029
300.029
300.029
300.03
300.03
300.03
300.024
300.025
300.025
300.026
300.026
300.027
300.027
300.028
300.028
300.029
300.029
300.029
300.029
300.03