/*--------------------------------*- C++ -*----------------------------------*\
| =========                 |                                                 |
| \\      /  F ield         | OpenFOAM: The Open Source CFD Toolbox           |
|  \\    /   O peration     | Version:  2212                                  |
|   \\  /    A nd           | Website:  www.openfoam.com                      |
|    \\/     M anipulation  |                                                 |
\*---------------------------------------------------------------------------*/
FoamFile
{
    version     2.0;
    format      ascii;
    arch        "LSB;label=32;scalar=64";
    class       volScalarField;
    location    "0";
    object      T;
}
// * * * * * * * * * * * * * * * * * * * * * * * * * * * * * * * * * * * * * //

dimensions      [0 0 0 1 0 0 0];

internalField   nonuniform List<scalar> 
3200
(
349.019
347.142
345.499
344.589
344.334
344.183
344.409
344.723
344.85
345.013
345.112
344.883
344.599
344.051
343.659
343.444
343.681
344.138
345.441
347.251
342.366
340.772
339.388
338.563
338.373
338.215
338.377
338.665
338.766
338.908
338.998
338.754
338.528
338.024
337.699
337.512
337.728
338.079
339.214
340.696
335.754
334.417
333.276
332.57
332.413
332.293
332.376
332.623
332.722
332.849
332.924
332.708
332.498
332.087
331.797
331.669
331.813
332.086
333.058
334.228
329.196
328.097
327.188
326.585
326.462
326.391
326.447
326.644
326.696
326.824
326.904
326.709
326.519
326.191
325.942
325.873
325.944
326.172
326.969
327.878
322.661
321.814
321.113
320.653
320.561
320.506
320.54
320.699
320.723
320.856
320.889
320.747
320.588
320.343
320.112
320.089
320.128
320.298
320.932
321.603
316.177
315.574
315.079
314.751
314.677
314.625
314.671
314.787
314.795
314.898
314.928
314.786
314.679
314.489
314.343
314.353
314.357
314.472
314.921
315.387
309.706
309.352
309.058
308.858
308.806
308.761
308.803
308.869
308.867
308.937
308.972
308.874
308.791
308.662
308.604
308.612
308.615
308.695
308.952
309.224
303.259
303.136
303.029
302.969
302.939
302.93
302.945
302.975
302.966
302.995
303.001
302.967
302.948
302.901
302.88
302.878
302.894
302.913
302.994
303.094
349.29
347.394
345.713
344.88
344.642
344.621
344.853
345.06
345.304
345.527
345.638
345.31
344.968
344.511
344.047
343.811
343.858
344.38
345.645
347.325
342.59
341.007
339.559
338.824
338.633
338.57
338.765
338.934
339.15
339.326
339.422
339.133
338.823
338.415
338.006
337.806
337.86
338.289
339.396
340.783
335.956
334.645
333.43
332.793
332.634
332.569
332.734
332.88
333.051
333.186
333.264
333.006
332.739
332.38
332.009
331.893
331.94
332.291
333.243
334.319
329.353
328.287
327.331
326.791
326.664
326.604
326.738
326.848
327.008
327.092
327.172
326.919
326.698
326.423
326.086
326.023
326.092
326.352
327.119
327.964
322.781
321.985
321.229
320.837
320.733
320.664
320.765
320.85
320.987
321.054
321.114
320.904
320.715
320.499
320.264
320.207
320.267
320.459
321.045
321.685
316.247
315.698
315.148
314.86
314.821
314.735
314.796
314.867
314.982
315.039
315.066
314.903
314.761
314.604
314.458
314.441
314.461
314.596
314.997
315.474
309.74
309.425
309.075
308.921
308.901
308.836
308.872
308.925
308.984
309.041
309.038
308.932
308.849
308.745
308.662
308.683
308.663
308.758
308.991
309.279
303.267
303.157
303.033
302.987
302.981
302.954
302.978
302.997
303.011
303.03
303.025
302.983
302.968
302.928
302.901
302.917
302.894
302.92
303.014
303.106
349.778
347.985
346.315
345.488
345.201
345.23
345.501
345.81
346.093
346.258
346.304
346.124
345.707
345.205
344.773
344.501
344.42
344.896
346.072
347.714
343.007
341.482
340.081
339.355
339.088
339.131
339.35
339.599
339.81
339.945
340.005
339.84
339.449
339.026
338.652
338.423
338.338
338.743
339.748
341.088
336.3
335.017
333.898
333.25
333.02
333.056
333.231
333.45
333.609
333.696
333.76
333.599
333.268
332.896
332.6
332.39
332.34
332.693
333.503
334.598
329.656
328.598
327.72
327.19
326.99
326.99
327.15
327.334
327.445
327.501
327.596
327.434
327.132
326.847
326.59
326.436
326.392
326.7
327.339
328.214
323.008
322.217
321.551
321.139
320.949
320.963
321.085
321.237
321.304
321.346
321.46
321.297
321.054
320.85
320.635
320.524
320.472
320.75
321.233
321.87
316.421
315.878
315.382
315.105
314.945
314.963
315.05
315.143
315.2
315.23
315.336
315.195
315.015
314.897
314.717
314.626
314.584
314.808
315.147
315.573
309.85
309.536
309.232
309.059
308.965
308.992
309.036
309.09
309.135
309.149
309.202
309.119
309.017
308.948
308.834
308.765
308.768
308.872
309.066
309.334
303.299
303.204
303.096
303.034
303.001
303.018
303.029
303.049
303.074
303.063
303.092
303.058
303.021
302.996
302.974
302.93
302.938
302.975
303.027
303.125
350.44
348.782
347.281
346.391
346.129
346.157
346.401
346.846
347.153
347.312
347.309
347.105
346.714
346.15
345.689
345.354
345.346
345.779
346.949
348.454
343.598
342.183
340.931
340.11
339.899
339.895
340.085
340.502
340.718
340.858
340.877
340.649
340.315
339.816
339.44
339.152
339.127
339.506
340.5
341.755
336.777
335.626
334.596
333.902
333.707
333.682
333.837
334.198
334.34
334.468
334.496
334.263
333.991
333.558
333.245
333.021
332.988
333.313
334.146
335.168
330.033
329.108
328.299
327.72
327.533
327.515
327.631
327.92
328.021
328.115
328.156
327.956
327.73
327.378
327.114
326.931
326.935
327.168
327.852
328.669
323.342
322.616
322.024
321.536
321.373
321.359
321.474
321.688
321.729
321.808
321.857
321.707
321.524
321.256
321.028
320.913
320.898
321.087
321.618
322.226
316.677
316.149
315.749
315.387
315.262
315.226
315.342
315.482
315.485
315.535
315.593
315.483
315.359
315.161
314.972
314.938
314.901
315.039
315.414
315.854
310.011
309.692
309.451
309.235
309.176
309.139
309.223
309.297
309.278
309.303
309.368
309.273
309.222
309.102
308.967
308.97
308.929
309.034
309.237
309.51
303.344
303.258
303.17
303.094
303.081
303.065
303.096
303.116
303.116
303.118
303.141
303.101
303.1
303.043
303.002
303.004
302.991
303.021
303.096
303.181
351.68
349.975
348.498
347.607
347.271
347.3
347.548
347.942
348.413
348.527
348.572
348.32
347.961
347.435
346.815
346.494
346.432
346.903
348.087
349.544
344.635
343.221
341.965
341.151
340.863
340.878
341.095
341.406
341.814
341.887
341.93
341.703
341.402
340.928
340.397
340.118
340.082
340.46
341.5
342.683
337.665
336.513
335.456
334.755
334.5
334.53
334.684
334.953
335.258
335.325
335.375
335.16
334.924
334.478
334.026
333.826
333.776
334.111
334.998
335.932
330.719
329.831
328.962
328.37
328.165
328.209
328.327
328.527
328.774
328.826
328.889
328.665
328.492
328.12
327.744
327.586
327.549
327.838
328.564
329.297
323.838
323.168
322.498
322.032
321.877
321.913
322.011
322.146
322.337
322.374
322.458
322.219
322.089
321.833
321.524
321.402
321.376
321.625
322.17
322.72
316.997
316.536
316.066
315.721
315.63
315.626
315.697
315.792
315.93
315.958
316.022
315.821
315.742
315.583
315.343
315.264
315.247
315.42
315.811
316.202
310.19
309.931
309.651
309.443
309.378
309.385
309.415
309.481
309.542
309.571
309.626
309.473
309.44
309.356
309.208
309.162
309.155
309.249
309.478
309.704
303.423
303.331
303.235
303.159
303.149
303.138
303.141
303.186
303.184
303.204
303.233
303.171
303.161
303.126
303.089
303.076
303.075
303.114
303.181
303.255
353.142
351.307
349.939
348.974
348.565
348.669
348.899
349.269
349.713
349.906
349.958
349.63
349.363
348.742
348.229
347.824
347.815
348.34
349.52
350.829
345.897
344.363
343.179
342.344
341.99
342.066
342.268
342.57
342.934
343.098
343.127
342.833
342.612
342.068
341.622
341.278
341.26
341.716
342.743
343.793
338.684
337.473
336.452
335.754
335.466
335.523
335.698
335.938
336.194
336.35
336.373
336.116
335.924
335.469
335.072
334.793
334.799
335.158
336.028
336.879
331.552
330.613
329.765
329.195
328.988
329.012
329.191
329.351
329.51
329.682
329.693
329.452
329.302
328.946
328.602
328.391
328.383
328.687
329.373
330.05
324.474
323.766
323.117
322.672
322.533
322.524
322.671
322.799
322.913
323.061
323.061
322.866
322.746
322.454
322.208
322.036
322.006
322.257
322.782
323.284
317.452
316.952
316.515
316.168
316.081
316.073
316.18
316.258
316.354
316.468
316.466
316.304
316.254
315.999
315.843
315.728
315.686
315.88
316.241
316.587
310.458
310.18
309.918
309.705
309.647
309.642
309.709
309.756
309.801
309.891
309.88
309.771
309.762
309.6
309.506
309.441
309.421
309.54
309.734
309.952
303.498
303.41
303.332
303.254
303.238
303.228
303.26
303.269
303.276
303.32
303.309
303.275
303.271
303.211
303.185
303.158
303.155
303.202
303.264
303.343
354.548
352.99
351.473
350.625
350.176
350.268
350.448
350.902
351.132
351.422
351.559
351.247
350.834
350.311
349.752
349.502
349.371
349.853
351.066
352.377
347.104
345.814
344.493
343.754
343.348
343.437
343.592
343.984
344.142
344.382
344.542
344.227
343.851
343.398
342.944
342.706
342.615
343.014
344.052
345.135
339.752
338.678
337.582
336.932
336.588
336.667
336.782
337.122
337.244
337.421
337.589
337.296
336.964
336.574
336.211
335.998
335.922
336.273
337.131
338.007
332.449
331.59
330.719
330.156
329.878
329.941
330.02
330.31
330.381
330.541
330.699
330.408
330.171
329.854
329.555
329.356
329.303
329.602
330.274
330.97
325.185
324.544
323.872
323.425
323.198
323.244
323.319
323.523
323.548
323.692
323.838
323.595
323.424
323.164
322.941
322.789
322.73
322.959
323.503
324.001
317.961
317.516
317.054
316.729
316.575
316.582
316.645
316.772
316.778
316.904
317.013
316.832
316.723
316.554
316.369
316.271
316.196
316.361
316.754
317.106
310.773
310.515
310.252
310.042
309.956
309.918
309.994
310.061
310.055
310.134
310.205
310.096
310.041
309.948
309.826
309.767
309.719
309.807
310.046
310.264
303.616
303.524
303.434
303.362
303.34
303.315
303.355
303.378
303.369
303.391
303.419
303.386
303.371
303.341
303.283
303.275
303.263
303.283
303.367
303.44
356.284
354.763
353.252
352.361
351.95
351.924
352.071
352.44
352.732
353.032
353.166
352.93
352.483
351.989
351.394
351.115
351.259
351.628
352.727
354.135
348.606
347.321
346.013
345.255
344.895
344.857
344.97
345.301
345.535
345.784
345.904
345.684
345.3
344.886
344.343
344.099
344.217
344.537
345.471
346.654
340.993
339.926
338.836
338.212
337.886
337.851
337.936
338.231
338.43
338.597
338.722
338.515
338.194
337.86
337.384
337.184
337.275
337.526
338.337
339.29
333.432
332.582
331.692
331.209
330.941
330.901
330.97
331.195
331.373
331.497
331.586
331.403
331.14
330.885
330.505
330.33
330.393
330.59
331.279
332.033
325.943
325.292
324.611
324.229
324.028
323.996
324.058
324.216
324.327
324.448
324.502
324.384
324.164
323.96
323.655
323.543
323.599
323.731
324.276
324.846
318.507
318.061
317.572
317.282
317.139
317.109
317.169
317.259
317.356
317.43
317.461
317.391
317.251
317.097
316.852
316.783
316.856
316.912
317.302
317.712
311.103
310.832
310.534
310.36
310.281
310.261
310.291
310.358
310.409
310.438
310.475
310.444
310.348
310.273
310.106
310.08
310.117
310.134
310.372
310.619
303.717
303.632
303.528
303.457
303.446
303.436
303.44
303.477
303.483
303.488
303.505
303.494
303.475
303.439
303.392
303.369
303.39
303.393
303.467
303.545
358.092
356.668
355.225
354.211
353.639
353.6
353.772
354.1
354.481
354.656
354.706
354.664
354.179
353.69
353.205
352.919
353.013
353.53
354.593
355.871
350.138
348.949
347.714
346.832
346.342
346.317
346.455
346.731
347.043
347.18
347.223
347.151
346.752
346.367
345.93
345.671
345.739
346.176
347.077
348.149
342.268
341.307
340.247
339.513
339.106
339.088
339.187
339.433
339.674
339.782
339.82
339.738
339.417
339.092
338.732
338.502
338.573
338.936
339.67
340.536
334.476
333.709
332.853
332.256
331.925
331.907
331.969
332.205
332.382
332.458
332.484
332.424
332.13
331.897
331.596
331.401
331.488
331.77
332.35
333.023
326.745
326.166
325.518
325.038
324.791
324.79
324.815
325.009
325.142
325.19
325.2
325.151
324.913
324.771
324.528
324.369
324.431
324.67
325.112
325.607
319.092
318.663
318.209
317.856
317.689
317.695
317.708
317.84
317.937
317.97
317.972
317.941
317.778
317.69
317.483
317.388
317.453
317.619
317.919
318.248
311.468
311.169
310.933
310.701
310.611
310.631
310.627
310.715
310.77
310.781
310.784
310.757
310.673
310.617
310.469
310.437
310.485
310.569
310.756
310.928
303.848
303.736
303.665
303.593
303.553
303.556
303.562
303.598
303.611
303.623
303.607
303.603
303.577
303.561
303.511
303.508
303.52
303.55
303.613
303.67
360.022
358.676
357.369
356.266
355.711
355.533
355.509
355.837
356.118
356.338
356.452
356.342
355.932
355.515
354.982
354.785
354.876
355.584
356.585
357.775
351.806
350.677
349.552
348.632
348.12
347.977
347.929
348.202
348.462
348.624
348.698
348.608
348.255
347.885
347.44
347.262
347.368
347.932
348.793
349.791
343.689
342.751
341.788
341.042
340.608
340.501
340.426
340.65
340.884
340.99
341.064
340.976
340.673
340.375
339.996
339.839
339.947
340.405
341.094
341.912
335.632
334.897
334.074
333.505
333.149
333.071
332.991
333.165
333.376
333.438
333.488
333.424
333.151
332.926
332.61
332.497
332.613
332.952
333.51
334.153
327.658
327.092
326.434
326.004
325.741
325.682
325.591
325.751
325.917
325.946
325.982
325.93
325.702
325.545
325.291
325.227
325.338
325.575
326.011
326.487
319.732
319.338
318.855
318.535
318.358
318.318
318.259
318.376
318.511
318.509
318.537
318.472
318.337
318.227
318.026
318.018
318.099
318.257
318.553
318.892
311.837
311.615
311.307
311.129
311.014
310.995
310.952
311.018
311.129
311.101
311.12
311.07
310.988
310.934
310.811
310.813
310.871
310.946
311.134
311.334
303.964
303.893
303.799
303.728
303.686
303.682
303.657
303.698
303.736
303.717
303.728
303.712
303.679
303.657
303.611
303.627
303.649
303.664
303.719
303.798
362.189
360.748
359.306
358.379
357.704
357.457
357.474
357.713
357.996
358.131
358.135
358.079
357.706
357.181
356.835
356.816
356.972
357.552
358.497
359.767
353.664
352.472
351.236
350.43
349.824
349.634
349.626
349.818
350.065
350.164
350.167
350.112
349.78
349.343
349.039
349.019
349.135
349.631
350.462
351.525
345.247
344.306
343.234
342.572
342.021
341.881
341.859
342.014
342.199
342.276
342.294
342.234
341.945
341.611
341.342
341.323
341.391
341.818
342.541
343.429
336.922
336.17
335.289
334.755
334.293
334.178
334.16
334.278
334.415
334.48
334.509
334.439
334.212
333.928
333.699
333.717
333.745
334.081
334.698
335.423
328.659
328.089
327.403
327
326.614
326.526
326.515
326.607
326.708
326.765
326.803
326.739
326.548
326.316
326.136
326.177
326.2
326.432
326.938
327.484
320.448
320.059
319.559
319.259
318.99
318.936
318.94
318.97
319.046
319.093
319.127
319.085
318.961
318.767
318.62
318.679
318.695
318.851
319.216
319.592
312.267
312.045
311.725
311.553
311.386
311.36
311.373
311.371
311.431
311.446
311.477
311.46
311.382
311.268
311.163
311.203
311.225
311.317
311.534
311.748
304.104
304.039
303.93
303.861
303.815
303.807
303.813
303.815
303.833
303.827
303.842
303.843
303.813
303.782
303.745
303.764
303.76
303.789
303.858
303.939
364.251
362.923
361.59
360.44
359.742
359.386
359.365
359.482
359.673
359.784
359.854
359.844
359.394
359.034
358.712
358.694
358.92
359.532
360.433
361.685
355.444
354.354
353.206
352.207
351.603
351.281
351.246
351.371
351.501
351.591
351.667
351.661
351.263
350.935
350.673
350.64
350.829
351.342
352.122
353.166
346.745
345.881
344.91
344.053
343.55
343.256
343.219
343.347
343.437
343.477
343.593
343.573
343.211
342.92
342.701
342.686
342.821
343.271
343.941
344.8
338.126
337.468
336.652
335.96
335.553
335.308
335.254
335.388
335.458
335.459
335.593
335.552
335.24
334.965
334.818
334.824
334.919
335.296
335.859
336.535
329.597
329.103
328.475
327.91
327.574
327.406
327.341
327.485
327.532
327.52
327.646
327.601
327.34
327.121
327.026
327.02
327.104
327.38
327.835
328.346
321.116
320.768
320.309
319.898
319.64
319.553
319.493
319.604
319.646
319.633
319.723
319.695
319.5
319.344
319.275
319.288
319.34
319.531
319.844
320.218
312.651
312.461
312.192
311.923
311.771
311.728
311.707
311.748
311.778
311.767
311.836
311.827
311.71
311.625
311.579
311.588
311.616
311.728
311.895
312.137
304.241
304.164
304.095
303.992
303.952
303.928
303.908
303.927
303.943
303.948
303.963
303.969
303.92
303.897
303.888
303.884
303.904
303.931
303.98
304.068
366.444
365.105
363.731
362.638
361.815
361.49
361.415
361.49
361.454
361.631
361.679
361.559
361.121
360.896
360.671
360.684
361.011
361.54
362.502
363.649
357.343
356.214
355.052
354.084
353.378
353.077
353.016
353.105
353.043
353.201
353.222
353.13
352.749
352.53
352.343
352.352
352.639
353.064
353.89
354.857
348.338
347.409
346.437
345.623
345.036
344.754
344.708
344.812
344.741
344.866
344.9
344.763
344.46
344.29
344.113
344.127
344.395
344.717
345.388
346.198
339.412
338.686
337.895
337.233
336.741
336.495
336.478
336.577
336.508
336.614
336.655
336.493
336.242
336.16
335.981
335.98
336.206
336.48
336.993
337.663
330.585
330.029
329.435
328.909
328.515
328.308
328.307
328.417
328.335
328.433
328.44
328.299
328.121
328.07
327.925
327.91
328.09
328.309
328.689
329.204
321.796
321.422
321.008
320.613
320.335
320.184
320.186
320.28
320.223
320.292
320.286
320.189
320.044
320.013
319.926
319.899
320.034
320.196
320.454
320.809
313.067
312.86
312.614
312.357
312.201
312.115
312.124
312.178
312.13
312.174
312.186
312.094
312.019
311.993
311.964
311.935
312.014
312.104
312.273
312.478
304.367
304.308
304.228
304.134
304.081
304.064
304.059
304.084
304.064
304.089
304.075
304.054
304.022
304.017
304.006
303.998
304.029
304.052
304.114
304.187
368.535
367.243
365.905
364.886
364.067
363.538
363.449
363.414
363.36
363.416
363.426
363.235
362.945
362.792
362.636
362.706
362.95
363.57
364.57
365.651
359.138
358.074
356.899
356.059
355.324
354.853
354.777
354.754
354.683
354.763
354.738
354.565
354.305
354.164
354.02
354.094
354.313
354.817
355.664
356.569
349.853
348.996
347.982
347.315
346.684
346.25
346.183
346.184
346.118
346.197
346.135
345.994
345.752
345.671
345.517
345.575
345.805
346.203
346.903
347.657
340.668
339.979
339.163
338.62
338.125
337.718
337.681
337.694
337.632
337.696
337.628
337.514
337.308
337.271
337.107
337.17
337.363
337.671
338.259
338.852
331.563
331.023
330.4
329.981
329.604
329.281
329.246
329.296
329.213
329.252
329.218
329.125
328.946
328.925
328.806
328.85
329.006
329.226
329.668
330.128
322.511
322.125
321.71
321.395
321.114
320.908
320.868
320.917
320.853
320.882
320.87
320.755
320.641
320.626
320.545
320.579
320.699
320.844
321.143
321.49
313.516
313.268
313.026
312.835
312.684
312.564
312.518
312.559
312.503
312.547
312.546
312.441
312.389
312.375
312.313
312.344
312.422
312.503
312.676
312.885
304.534
304.447
304.363
304.304
304.247
304.212
304.196
304.212
304.185
304.202
304.203
304.166
304.159
304.152
304.127
304.135
304.157
304.186
304.236
304.318
370.821
369.504
368.097
367.05
366.267
365.777
365.512
365.37
365.245
365.219
365.171
364.927
364.77
364.729
364.484
364.631
365.03
365.616
366.64
367.732
361.127
359.985
358.781
357.882
357.224
356.783
356.545
356.453
356.34
356.286
356.241
356.037
355.895
355.844
355.644
355.772
356.109
356.578
357.488
358.371
351.533
350.586
349.565
348.815
348.268
347.891
347.692
347.63
347.535
347.459
347.429
347.24
347.13
347.077
346.914
347.007
347.305
347.656
348.472
349.15
342.031
341.266
340.444
339.837
339.383
339.073
338.92
338.874
338.782
338.712
338.693
338.534
338.449
338.408
338.263
338.336
338.59
338.86
339.532
340.063
332.61
332.028
331.403
330.93
330.577
330.318
330.209
330.192
330.097
330.037
330
329.897
329.842
329.809
329.687
329.738
329.93
330.139
330.668
331.08
323.258
322.833
322.404
322.058
321.816
321.623
321.527
321.551
321.46
321.411
321.4
321.31
321.29
321.264
321.174
321.197
321.345
321.506
321.851
322.153
313.96
313.69
313.456
313.23
313.077
312.971
312.901
312.947
312.874
312.858
312.841
312.795
312.775
312.737
312.687
312.685
312.806
312.899
313.093
313.275
304.676
304.585
304.513
304.44
304.381
304.349
304.328
304.352
304.309
304.308
304.311
304.293
304.278
304.263
304.248
304.241
304.289
304.314
304.383
304.445
373.058
371.701
370.424
369.213
368.377
367.957
367.577
367.326
367.111
367.026
366.873
366.773
366.536
366.535
366.459
366.649
367.053
367.821
368.703
369.831
363.048
361.888
360.796
359.762
359.026
358.695
358.375
358.145
357.922
357.83
357.719
357.596
357.404
357.378
357.336
357.501
357.83
358.498
359.235
360.153
353.156
352.174
351.283
350.412
349.777
349.519
349.251
349.038
348.845
348.753
348.686
348.522
348.388
348.346
348.347
348.477
348.725
349.305
349.902
350.643
343.353
342.569
341.865
341.142
340.617
340.408
340.208
340.021
339.86
339.78
339.718
339.552
339.473
339.424
339.453
339.543
339.742
340.203
340.678
341.287
333.647
333.052
332.482
331.936
331.542
331.369
331.238
331.078
330.926
330.881
330.817
330.665
330.634
330.582
330.617
330.694
330.846
331.174
331.556
332.008
324.002
323.578
323.173
322.786
322.506
322.373
322.283
322.187
322.071
322.032
321.967
321.859
321.817
321.802
321.851
321.897
321.991
322.218
322.512
322.817
314.393
314.136
313.916
313.666
313.514
313.419
313.361
313.314
313.246
313.213
313.194
313.1
313.065
313.091
313.101
313.138
313.202
313.325
313.501
313.691
304.82
304.732
304.675
304.577
304.527
304.497
304.48
304.469
304.441
304.421
304.419
304.395
304.37
304.377
304.389
304.41
304.426
304.46
304.538
304.587
375.336
373.884
372.581
371.466
370.493
369.963
369.643
369.292
369.06
368.713
368.669
368.585
368.401
368.443
368.422
368.694
369.129
369.792
370.934
371.856
365.003
363.769
362.634
361.717
360.873
360.426
360.119
359.825
359.611
359.268
359.232
359.157
359
359.021
359.023
359.27
359.624
360.202
361.164
361.917
354.789
353.769
352.806
352.033
351.359
350.979
350.708
350.453
350.264
349.943
349.918
349.844
349.733
349.756
349.743
349.976
350.258
350.743
351.52
352.127
344.689
343.874
343.068
342.424
341.918
341.622
341.386
341.191
341.015
340.726
340.709
340.638
340.583
340.591
340.568
340.749
340.991
341.398
341.991
342.478
334.658
334.077
333.413
332.921
332.535
332.331
332.138
331.981
331.842
331.591
331.587
331.527
331.497
331.485
331.472
331.621
331.801
332.128
332.572
332.92
324.73
324.323
323.84
323.49
323.209
323.094
322.918
322.812
322.738
322.527
322.54
322.5
322.466
322.451
322.445
322.538
322.687
322.924
323.226
323.451
314.862
314.591
314.311
314.094
313.939
313.867
313.763
313.675
313.653
313.516
313.521
313.508
313.477
313.458
313.47
313.511
313.618
313.774
313.93
314.056
304.983
304.885
304.8
304.718
304.677
304.655
304.614
304.573
304.574
304.528
304.527
304.524
304.512
304.506
304.515
304.534
304.567
304.619
304.661
304.703
377.446
376.017
374.715
373.615
372.637
372.029
371.445
371.138
370.894
370.585
370.429
370.395
370.169
370.272
370.371
370.655
371.095
371.859
373.001
373.917
366.809
365.601
364.494
363.538
362.686
362.177
361.667
361.4
361.171
360.886
360.74
360.732
360.533
360.62
360.692
360.919
361.295
361.971
362.965
363.688
356.278
355.313
354.383
353.571
352.852
352.419
351.991
351.772
351.566
351.308
351.189
351.186
351.005
351.078
351.131
351.325
351.643
352.259
353.062
353.631
345.866
345.112
344.363
343.712
343.111
342.754
342.422
342.249
342.05
341.832
341.748
341.743
341.579
341.663
341.705
341.86
342.099
342.635
343.276
343.743
335.55
335.005
334.418
333.932
333.423
333.153
332.943
332.795
332.625
332.456
332.408
332.397
332.264
332.323
332.375
332.483
332.658
333.083
333.595
333.937
325.356
324.968
324.554
324.202
323.833
323.647
323.529
323.38
323.284
323.153
323.107
323.128
323.032
323.055
323.108
323.167
323.287
323.609
323.967
324.199
315.21
314.984
314.723
314.517
314.291
314.171
314.129
314.014
313.975
313.895
313.882
313.878
313.831
313.838
313.874
313.917
313.973
314.162
314.376
314.507
305.094
305.019
304.928
304.862
304.794
304.748
304.731
304.699
304.687
304.656
304.662
304.663
304.638
304.629
304.655
304.653
304.688
304.746
304.809
304.859
379.335
377.87
376.652
375.576
374.485
373.854
373.098
372.879
372.661
372.284
371.984
371.948
371.941
372.029
372.166
372.486
372.974
373.746
374.866
375.853
368.42
367.153
366.113
365.185
364.261
363.715
363.044
362.848
362.687
362.334
362.074
362.038
362.015
362.104
362.206
362.475
362.895
363.566
364.539
365.345
357.663
356.592
355.707
354.943
354.147
353.724
353.133
352.971
352.839
352.52
352.319
352.284
352.243
352.307
352.379
352.631
352.964
353.536
354.359
355.028
347.027
346.119
345.432
344.795
344.147
343.832
343.321
343.2
343.102
342.812
342.65
342.664
342.584
342.629
342.686
342.922
343.157
343.641
344.315
344.831
336.485
335.765
335.261
334.757
334.244
334.018
333.624
333.513
333.418
333.211
333.093
333.101
333.023
333.047
333.107
333.298
333.461
333.852
334.399
334.773
326.019
325.505
325.156
324.785
324.404
324.248
323.998
323.901
323.832
323.67
323.587
323.62
323.544
323.543
323.614
323.75
323.825
324.149
324.54
324.792
315.629
315.292
315.089
314.858
314.615
314.534
314.413
314.351
314.3
314.194
314.142
314.174
314.131
314.119
314.17
314.249
314.274
314.489
314.741
314.869
305.232
305.123
305.052
304.972
304.89
304.862
304.832
304.815
304.802
304.764
304.736
304.749
304.735
304.728
304.742
304.768
304.776
304.859
304.951
304.97
380.73
379.257
378.074
376.848
376.05
375.264
374.583
374.283
373.945
373.707
373.325
373.212
373.244
373.204
373.605
373.842
374.341
375.207
376.227
377.435
369.523
368.273
367.276
366.176
365.511
364.879
364.262
363.996
363.716
363.491
363.142
363.055
363.081
363.041
363.389
363.587
364.006
364.762
365.652
366.66
358.508
357.474
356.669
355.698
355.16
354.654
354.135
353.861
353.656
353.43
353.163
353.077
353.102
353.053
353.361
353.511
353.878
354.516
355.266
356.077
347.689
346.819
346.192
345.382
344.945
344.559
344.114
343.877
343.737
343.521
343.316
343.264
343.265
343.225
343.471
343.621
343.909
344.419
345.03
345.651
336.985
336.282
335.818
335.187
334.84
334.565
334.216
334.011
333.91
333.719
333.578
333.538
333.551
333.509
333.692
333.819
334.036
334.431
334.907
335.37
326.366
325.87
325.541
325.085
324.837
324.658
324.402
324.237
324.195
324.034
323.932
323.903
323.92
323.864
324.017
324.101
324.262
324.55
324.885
325.185
315.801
315.505
315.32
315.037
314.895
314.777
314.622
314.519
314.508
314.405
314.363
314.334
314.35
314.31
314.409
314.447
314.554
314.718
314.92
315.069
305.281
305.181
305.129
305.033
304.989
304.945
304.891
304.846
304.86
304.828
304.808
304.812
304.799
304.793
304.819
304.842
304.88
304.925
304.996
305.042
)
;

boundaryField
{
    hotSide
    {
        type            fixedGradient;
        gradient        nonuniform List<scalar> 
400
(
538.704
540.829
546.71
556.269
569.172
584.929
603.007
622.918
644.251
666.678
689.94
713.836
738.207
762.927
787.888
812.999
838.177
863.357
888.49
913.554
510.878
513.112
519.362
529.535
543.23
559.867
578.841
599.616
621.752
644.909
668.828
693.311
718.204
743.386
768.758
794.231
819.727
845.181
870.546
895.803
492.445
495.063
501.663
512.147
526.118
543.008
562.218
583.213
605.552
628.89
652.964
677.575
702.568
727.826
753.25
778.759
804.281
829.756
855.142
880.426
482.888
486.141
493.085
503.623
517.427
534.018
552.874
573.505
595.491
618.494
642.246
666.542
691.227
716.18
741.307
766.532
791.791
817.037
842.238
867.384
479.947
483.953
491.268
501.796
515.279
531.34
549.554
569.498
590.79
613.108
636.191
659.835
683.883
708.22
732.757
757.429
782.186
806.991
831.822
856.673
481.075
485.852
493.59
504.189
517.435
533.025
550.608
569.82
590.322
611.814
634.05
656.838
680.035
703.539
727.277
751.201
775.275
799.477
823.793
848.219
484.262
489.779
497.993
508.796
521.993
537.316
554.454
573.08
592.877
613.567
634.925
656.78
679.018
701.564
724.376
747.429
770.707
794.203
817.91
841.824
488.075
494.27
502.991
514.12
527.463
542.76
559.708
577.979
597.26
617.277
637.824
658.762
680.019
701.568
723.406
745.543
767.987
790.743
813.812
837.188
491.485
498.25
507.456
518.975
532.607
548.084
565.081
583.247
602.237
621.764
641.631
661.74
682.077
702.677
723.59
744.861
766.524
788.595
811.075
833.958
493.746
500.907
510.488
522.36
536.315
552.069
569.27
587.519
606.423
625.66
645.033
664.489
684.081
703.909
724.076
744.659
765.71
787.248
809.278
831.789
494.371
501.677
511.427
523.489
537.653
553.622
571.018
589.407
608.35
627.49
646.629
665.742
684.929
704.336
724.098
744.311
765.035
786.296
808.094
830.416
493.183
500.335
509.98
521.984
536.133
552.123
569.566
588.021
607.042
626.268
645.495
664.692
683.955
703.425
723.238
743.493
764.251
785.541
807.369
829.724
490.379
497.081
506.355
518.068
531.999
547.837
565.199
583.661
602.805
622.292
641.911
661.594
681.381
701.368
721.659
742.34
763.469
785.081
807.187
829.783
486.563
492.572
501.291
512.587
526.229
541.899
559.212
577.76
597.154
617.071
637.29
657.696
678.269
699.042
720.076
741.432
763.159
785.294
807.854
830.845
482.764
487.917
495.997
506.88
520.314
535.951
553.385
572.2
592.009
612.489
633.405
654.609
676.029
697.653
719.501
741.608
764.014
786.751
809.843
833.302
480.5
484.71
492.154
502.71
516.091
531.885
549.631
568.872
589.204
610.293
631.892
653.832
676.016
698.399
720.977
743.768
766.8
790.104
813.707
837.622
481.891
485.158
492.01
502.328
515.759
531.804
549.919
569.594
590.4
611.995
634.127
656.621
679.369
702.312
725.432
748.736
772.246
795.992
820.002
844.29
489.584
492.034
498.343
508.393
521.772
537.898
556.161
576.016
597.018
618.826
641.191
663.941
686.963
710.192
733.6
757.188
780.972
804.98
829.236
853.756
505.949
507.852
513.646
523.223
536.167
551.892
569.787
589.309
610.023
631.595
653.779
676.404
699.353
722.553
745.968
769.587
793.418
817.482
841.797
866.37
531.63
533.292
538.59
547.436
559.488
574.246
591.177
609.792
629.684
650.534
672.101
694.208
716.73
739.586
762.725
786.123
809.774
833.684
857.858
882.297
)
;
    }
    coldSide
    {
        type            mixed;
        refValue        uniform 300;
        refGradient     uniform 0;
        valueFraction   uniform 0.991591;
        source          uniform 0;
        value           nonuniform List<scalar> 
400
(
300.027
300.027
300.028
300.028
300.029
300.029
300.03
300.031
300.032
300.033
300.035
300.036
300.037
300.038
300.039
300.041
300.042
300.043
300.044
300.044
300.026
300.027
300.027
300.027
300.028
300.029
300.03
300.031
300.031
300.033
300.034
300.035
300.036
300.037
300.039
300.04
300.041
300.042
300.043