/*--------------------------------*- C++ -*----------------------------------*\
| =========                 |                                                 |
| \\      /  F ield         | OpenFOAM: The Open Source CFD Toolbox           |
|  \\    /   O peration     | Version:  2212                                  |
|   \\  /    A nd           | Website:  www.openfoam.com                      |
|    \\/     M anipulation  |                                                 |
\*---------------------------------------------------------------------------*/
FoamFile
{
    version     2.0;
    format      ascii;
    arch        "LSB;label=32;scalar=64";
    class       volScalarField;
    location    "0";
    object      stateMean;
}
// * * * * * * * * * * * * * * * * * * * * * * * * * * * * * * * * * * * * * //

dimensions      [0 0 0 1 0 0 0];

internalField   nonuniform List<scalar> 
3200
(
316.843
316.378
316.011
315.818
315.888
316.17
316.484
316.724
316.882
317.072
317.134
317.082
316.988
316.781
316.473
316.31
316.221
316.223
316.503
316.995
314.646
314.229
313.838
313.787
313.777
314.014
314.263
314.421
314.689
314.768
314.843
314.869
314.719
314.486
314.387
314.173
314.061
314.096
314.314
314.611
312.406
312.016
311.71
311.68
311.704
311.912
312.069
312.321
312.515
312.591
312.651
312.53
312.473
312.35
312.172
311.951
311.932
311.939
312.167
312.479
310.172
309.926
309.63
309.619
309.653
309.796
309.917
310.07
310.219
310.33
310.388
310.344
310.231
310.078
309.919
309.806
309.757
309.764
309.97
310.153
307.8
307.709
307.512
307.44
307.517
307.595
307.804
307.936
308.025
307.978
308.036
308.068
307.947
307.834
307.777
307.581
307.556
307.548
307.841
307.926
305.69
305.478
305.355
305.309
305.317
305.464
305.521
305.6
305.687
305.817
305.79
305.82
305.754
305.71
305.501
305.457
305.422
305.371
305.55
305.589
303.408
303.238
303.253
303.174
303.268
303.244
303.378
303.433
303.443
303.475
303.465
303.451
303.451
303.425
303.178
303.249
303.245
303.264
303.328
303.408
301.148
301.072
301.012
301.02
301.04
301.059
301.133
301.083
301.203
301.122
301.203
301.181
301.192
301.078
301.12
301.19
301.079
301.113
301.094
301.145
317.049
316.58
316.224
316.024
316.163
316.367
316.571
316.939
317.184
317.319
317.445
317.362
317.148
316.928
316.672
316.512
316.223
316.311
316.611
317.019
314.748
314.3
314.066
313.875
313.968
314.183
314.311
314.723
314.921
315.054
315.097
314.98
314.938
314.72
314.429
314.236
314.125
314.136
314.439
314.773
312.524
312.139
311.825
311.748
311.814
312.005
312.212
312.353
312.608
312.822
312.776
312.771
312.679
312.482
312.212
312.033
312.023
311.986
312.152
312.439
310.212
309.966
309.672
309.54
309.663
309.892
310.034
310.192
310.323
310.391
310.488
310.563
310.312
310.238
310.052
309.931
309.815
309.837
309.922
310.273
307.94
307.765
307.626
307.494
307.548
307.64
307.831
307.955
308.03
308.263
308.192
308.093
308.081
307.943
307.858
307.761
307.61
307.633
307.762
307.926
305.687
305.553
305.4
305.358
305.447
305.47
305.58
305.736
305.76
305.845
305.8
305.747
305.723
305.626
305.539
305.519
305.454
305.507
305.525
305.639
303.401
303.358
303.255
303.233
303.267
303.291
303.213
303.388
303.455
303.479
303.445
303.483
303.403
303.434
303.351
303.357
303.226
303.228
303.293
303.452
301.092
301.165
301.098
301.146
301.102
301.116
301.193
301.137
301.199
301.246
301.195
301.146
301.19
301.224
301.118
301.142
301.088
301.144
301.106
301.161
317.283
316.758
316.405
316.292
316.277
316.648
316.815
317.163
317.511
317.62
317.684
317.669
317.499
317.236
317.01
316.681
316.498
316.508
316.806
317.218
314.892
314.49
314.174
314.092
314.281
314.452
314.72
314.939
315.19
315.448
315.408
315.382
315.221
314.96
314.781
314.416
314.263
314.307
314.581
314.856
312.652
312.305
312.016
311.952
312.019
312.135
312.435
312.702
312.83
313.054
313.008
312.973
312.93
312.749
312.449
312.262
312.098
312.13
312.313
312.636
310.376
310.028
309.94
309.785
309.887
310.064
310.106
310.416
310.569
310.661
310.692
310.685
310.521
310.442
310.221
310.106
309.927
310.021
310.159
310.295
308.017
307.816
307.719
307.653
307.697
307.794
307.895
308.135
308.265
308.38
308.34
308.373
308.258
308.096
307.968
307.857
307.795
307.726
307.887
307.999
305.719
305.648
305.499
305.481
305.499
305.546
305.701
305.858
305.849
305.96
306.029
305.992
305.865
305.806
305.68
305.595
305.475
305.567
305.601
305.736
303.392
303.481
303.282
303.259
303.229
303.293
303.434
303.482
303.579
303.61
303.63
303.534
303.505
303.45
303.488
303.347
303.381
303.279
303.421
303.524
301.165
301.15
301.108
301.139
301.115
301.052
301.148
301.145
301.204
301.199
301.195
301.186
301.139
301.127
301.193
301.134
301.171
301.092
301.072
301.141
317.7
317.079
316.729
316.664
316.712
316.995
317.256
317.652
317.975
318.117
318.193
318.178
317.902
317.738
317.315
316.995
316.734
316.875
317.145
317.533
315.228
314.833
314.568
314.463
314.598
314.813
315.052
315.346
315.611
315.756
315.796
315.814
315.537
315.259
315.03
314.795
314.55
314.629
314.823
315.14
312.952
312.599
312.365
312.283
312.283
312.466
312.714
313.052
313.229
313.317
313.351
313.439
313.134
312.945
312.694
312.445
312.39
312.358
312.564
312.83
310.58
310.362
310.086
309.987
310.182
310.27
310.398
310.599
310.829
310.925
311.03
310.989
310.808
310.633
310.464
310.236
310.17
310.133
310.264
310.5
308.252
308.061
307.865
307.853
307.833
308.053
308.116
308.205
308.417
308.519
308.587
308.522
308.379
308.235
308.182
307.958
307.913
307.886
308.019
308.182
305.872
305.727
305.591
305.645
305.658
305.736
305.905
305.886
306.127
306.067
306.13
306.135
305.946
305.957
305.792
305.749
305.694
305.627
305.624
305.832
303.596
303.362
303.325
303.31
303.43
303.486
303.479
303.616
303.592
303.628
303.69
303.662
303.654
303.515
303.46
303.427
303.444
303.375
303.347
303.568
301.178
301.131
301.122
301.185
301.173
301.09
301.251
301.164
301.183
301.271
301.27
301.222
301.18
301.183
301.187
301.093
301.178
301.102
301.143
301.153
318.08
317.531
317.18
317.075
317.266
317.542
317.721
318.212
318.416
318.646
318.777
318.574
318.453
318.087
317.778
317.425
317.292
317.246
317.468
317.86
315.656
315.269
314.996
314.926
314.977
315.128
315.477
315.759
315.9
316.19
316.32
316.177
316.118
315.682
315.404
315.167
315.023
315.041
315.141
315.465
313.26
312.901
312.719
312.622
312.719
312.832
313.175
313.426
313.535
313.727
313.704
313.765
313.57
313.365
313.046
312.837
312.708
312.697
312.754
313.048
310.851
310.553
310.417
310.307
310.441
310.595
310.769
310.897
311.073
311.182
311.244
311.22
311.107
310.86
310.75
310.474
310.429
310.304
310.43
310.623
308.409
308.188
308.091
308.048
308.137
308.12
308.327
308.542
308.715
308.691
308.736
308.759
308.624
308.518
308.362
308.192
308.091
308.042
308.138
308.321
306.025
305.877
305.824
305.772
305.794
305.889
306.038
306.056
306.204
306.241
306.28
306.219
306.175
306.078
305.926
305.883
305.824
305.763
305.856
306.003
303.597
303.561
303.492
303.434
303.471
303.569
303.625
303.635
303.638
303.755
303.755
303.767
303.82
303.649
303.568
303.542
303.484
303.464
303.502
303.573
301.207
301.21
301.144
301.128
301.183
301.194
301.143
301.195
301.315
301.184
301.251
301.207
301.236
301.173
301.255
301.194
301.174
301.207
301.141
301.185
318.582
318.123
317.793
317.73
317.767
318.035
318.301
318.649
318.983
319.149
319.302
319.222
319.014
318.621
318.28
317.894
317.694
317.688
317.864
318.265
316.091
315.751
315.408
315.305
315.425
315.714
315.907
316.189
316.43
316.618
316.772
316.631
316.473
316.129
315.835
315.527
315.43
315.318
315.457
315.846
313.632
313.31
313.114
312.984
313.154
313.259
313.49
313.763
313.997
314.101
314.174
314.141
313.963
313.714
313.44
313.172
313.043
312.943
313.142
313.315
311.137
310.871
310.726
310.681
310.695
310.83
311.076
311.237
311.477
311.588
311.529
311.589
311.438
311.23
310.948
310.777
310.618
310.713
310.775
310.932
308.642
308.517
308.299
308.286
308.284
308.398
308.664
308.775
308.899
309.039
309.03
309.045
308.885
308.78
308.564
308.355
308.285
308.291
308.411
308.536
306.255
306.099
306.005
305.923
305.97
306.072
306.117
306.33
306.349
306.511
306.502
306.542
306.406
306.303
306.177
306.004
305.972
305.879
306.003
306.049
303.697
303.655
303.538
303.6
303.612
303.652
303.738
303.742
303.842
303.825
303.892
303.959
303.82
303.685
303.686
303.669
303.565
303.568
303.66
303.578
301.186
301.205
301.234
301.248
301.254
301.228
301.243
301.284
301.322
301.346
301.375
301.306
301.184
301.321
301.272
301.212
301.138
301.213
301.151
301.184
319.244
318.79
318.47
318.358
318.344
318.649
318.999
319.251
319.643
319.819
319.89
319.756
319.55
319.217
318.833
318.519
318.3
318.163
318.352
318.69
316.664
316.357
316.053
315.847
315.94
316.174
316.47
316.736
317.018
317.203
317.139
317.211
316.885
316.599
316.278
315.992
315.893
315.841
315.975
316.145
314.056
313.854
313.587
313.421
313.512
313.728
313.885
314.195
314.415
314.58
314.69
314.512
314.345
314.119
313.822
313.531
313.415
313.418
313.487
313.767
311.527
311.294
311.102
311.043
311.086
311.152
311.425
311.575
311.772
311.953
311.966
311.989
311.74
311.544
311.299
311.122
310.921
310.888
311.119
311.228
308.987
308.821
308.762
308.585
308.612
308.726
308.966
309.078
309.156
309.227
309.282
309.28
309.185
308.994
308.862
308.692
308.55
308.587
308.602
308.75
306.343
306.329
306.158
306.136
306.133
306.251
306.29
306.44
306.577
306.627
306.664
306.649
306.561
306.446
306.375
306.207
306.107
306.139
306.186
306.269
303.892
303.814
303.748
303.808
303.735
303.701
303.79
303.881
303.925
303.964
304.078
303.998
303.966
303.812
303.796
303.727
303.664
303.631
303.701
303.699
301.333
301.255
301.238
301.286
301.273
301.337
301.264
301.363
301.307
301.379
301.317
301.322
301.298
301.298
301.314
301.2
301.233
301.248
301.157
301.26
319.912
319.513
319.176
318.998
319.049
319.307
319.536
319.892
320.15
320.402
320.471
320.372
320.084
319.769
319.367
319.042
318.822
318.759
319.013
319.233
317.262
316.893
316.648
316.499
316.566
316.696
316.941
317.239
317.518
317.735
317.686
317.701
317.508
317.142
316.757
316.496
316.341
316.275
316.384
316.713
314.591
314.333
314.078
314.017
314.005
314.138
314.473
314.616
314.872
315.016
315.01
315.041
314.796
314.499
314.276
313.976
313.898
313.808
313.91
314.036
311.926
311.726
311.514
311.499
311.525
311.609
311.776
312.003
312.178
312.329
312.247
312.284
312.169
311.905
311.696
311.495
311.313
311.317
311.43
311.486
309.354
309.184
308.933
308.949
308.918
308.988
309.258
309.344
309.454
309.56
309.615
309.63
309.431
309.322
309.115
308.964
308.868
308.834
308.854
308.967
306.713
306.519
306.441
306.389
306.458
306.432
306.567
306.7
306.794
306.846
306.895
306.774
306.802
306.668
306.545
306.356
306.348
306.296
306.345
306.383
303.955
303.864
303.817
303.859
303.873
303.874
303.927
304.074
303.988
304.133
304.151
304.162
304.087
303.963
303.964
303.828
303.769
303.7
303.762
303.873
301.31
301.331
301.307
301.312
301.317
301.345
301.264
301.343
301.365
301.308
301.451
301.387
301.351
301.327
301.325
301.354
301.261
301.292
301.305
301.276
320.727
320.219
319.958
319.76
319.751
319.876
320.217
320.57
320.822
320.953
321.069
321.027
320.735
320.337
319.99
319.605
319.382
319.309
319.453
319.819
317.933
317.486
317.323
317.182
317.179
317.235
317.543
317.835
318.057
318.237
318.261
318.17
317.939
317.713
317.291
317.07
316.843
316.789
316.953
317.091
315.095
314.891
314.632
314.635
314.566
314.615
314.942
315.076
315.27
315.399
315.551
315.441
315.117
314.925
314.64
314.441
314.26
314.178
314.333
314.465
312.419
312.171
311.971
311.928
311.871
311.967
312.223
312.404
312.628
312.583
312.715
312.654
312.495
312.198
312.012
311.817
311.655
311.674
311.738
311.948
309.608
309.476
309.338
309.33
309.211
309.324
309.474
309.561
309.795
309.848
309.934
309.816
309.665
309.589
309.381
309.271
309.123
309.115
309.087
309.225
306.895
306.779
306.616
306.587
306.643
306.663
306.851
306.861
307.026
307.004
307.106
307.058
306.914
306.872
306.709
306.594
306.51
306.553
306.5
306.524
304.118
304.052
303.986
303.953
303.985
304.044
304.074
304.076
304.226
304.233
304.284
304.223
304.141
304.139
303.979
304.04
303.978
303.902
303.908
303.966
301.405
301.387
301.323
301.412
301.343
301.41
301.357
301.357
301.394
301.462
301.408
301.462
301.327
301.371
301.257
301.309
301.36
301.374
301.336
301.298
321.374
321.018
320.684
320.483
320.497
320.683
320.813
321.174
321.44
321.609
321.541
321.526
321.231
320.913
320.544
320.174
319.952
319.968
320.176
320.409
318.553
318.206
317.959
317.815
317.791
317.962
318.109
318.403
318.664
318.77
318.758
318.681
318.53
318.157
317.799
317.492
317.371
317.288
317.445
317.627
315.665
315.398
315.253
315.004
315.091
315.244
315.329
315.524
315.787
315.903
315.925
315.897
315.679
315.355
315.148
314.901
314.634
314.687
314.806
314.889
312.78
312.65
312.513
312.351
312.388
312.437
312.601
312.718
312.87
313.018
313.077
312.99
312.818
312.563
312.417
312.149
312.017
312.048
312.018
312.197
309.941
309.917
309.674
309.59
309.637
309.66
309.805
309.932
310.041
310.111
310.195
310.156
309.916
309.829
309.66
309.44
309.431
309.415
309.317
309.548
307.113
307.074
306.979
306.837
306.858
306.93
307.028
307.124
307.197
307.285
307.354
307.228
307.105
307.039
306.862
306.816
306.718
306.648
306.711
306.851
304.283
304.228
304.073
304.124
304.221
304.209
304.26
304.322
304.307
304.338
304.338
304.415
304.26
304.193
304.131
304.081
304.072
304.034
304.06
304.06
301.437
301.438
301.407
301.454
301.45
301.415
301.37
301.466
301.386
301.404
301.559
301.515
301.396
301.474
301.316
301.337
301.353
301.315
301.338
301.355
322.224
321.823
321.469
321.312
321.188
321.335
321.539
321.77
321.995
322.121
322.163
322.126
321.753
321.443
321.061
320.747
320.55
320.543
320.736
320.928
319.19
318.877
318.67
318.464
318.422
318.569
318.734
318.942
319.096
319.195
319.282
319.161
318.918
318.678
318.286
317.976
317.828
317.889
317.936
318.125
316.248
315.943
315.764
315.594
315.674
315.698
315.786
315.988
316.172
316.306
316.344
316.216
316.036
315.775
315.549
315.247
315.082
315.105
315.111
315.45
313.293
313.09
312.968
312.888
312.824
312.856
312.93
313.212
313.28
313.354
313.429
313.275
313.153
313.033
312.849
312.584
312.383
312.308
312.485
312.583
310.426
310.298
309.987
309.946
309.963
310.038
310.087
310.275
310.361
310.384
310.453
310.32
310.2
310.106
309.913
309.746
309.708
309.633
309.72
309.727
307.444
307.28
307.139
307.175
307.234
307.195
307.234
307.29
307.428
307.425
307.465
307.488
307.29
307.24
307.06
306.974
306.869
306.861
306.906
306.912
304.46
304.369
304.208
304.278
304.34
304.324
304.336
304.445
304.408
304.499
304.475
304.414
304.349
304.321
304.188
304.18
304.062
304.108
304.134
304.215
301.54
301.427
301.421
301.471
301.399
301.416
301.463
301.502
301.488
301.463
301.49
301.526
301.417
301.417
301.424
301.482
301.449
301.396
301.36
301.392
322.975
322.531
322.245
321.976
321.95
322.104
322.172
322.413
322.565
322.722
322.725
322.578
322.399
322.035
321.756
321.423
321.237
321.14
321.284
321.539
319.85
319.567
319.336
319.15
319.17
319.199
319.333
319.467
319.667
319.738
319.735
319.591
319.446
319.187
318.759
318.616
318.397
318.405
318.441
318.705
316.898
316.635
316.369
316.178
316.187
316.171
316.343
316.508
316.654
316.744
316.688
316.66
316.473
316.225
315.935
315.676
315.518
315.588
315.606
315.855
313.746
313.6
313.412
313.321
313.321
313.327
313.359
313.5
313.621
313.663
313.745
313.541
313.419
313.266
313.069
312.899
312.829
312.743
312.713
312.938
310.696
310.604
310.421
310.407
310.353
310.304
310.447
310.48
310.617
310.641
310.652
310.585
310.525
310.301
310.152
310.026
309.938
309.967
309.964
310.066
307.726
307.533
307.475
307.39
307.361
307.418
307.444
307.572
307.568
307.58
307.677
307.623
307.485
307.407
307.197
307.228
307.097
307.004
307.09
307.221
304.621
304.552
304.413
304.418
304.413
304.444
304.486
304.461
304.544
304.589
304.646
304.584
304.518
304.43
304.416
304.306
304.268
304.256
304.296
304.323
301.542
301.508
301.444
301.429
301.577
301.542
301.518
301.479
301.457
301.586
301.528
301.536
301.444
301.479
301.474
301.47
301.401
301.538
301.478
301.468
323.753
323.336
323.06
322.945
322.716
322.792
322.839
323.07
323.261
323.284
323.242
323.156
322.841
322.567
322.283
321.91
321.777
321.72
321.901
322.153
320.614
320.396
319.97
319.824
319.782
319.757
319.856
319.996
320.164
320.165
320.207
320.104
319.862
319.588
319.251
319.057
318.923
318.921
319.051
319.192
317.409
317.125
316.956
316.8
316.741
316.797
316.85
316.935
317.064
317.137
317.141
317.056
316.799
316.576
316.305
316.121
316.089
316.015
316.105
316.317
314.272
314.109
313.892
313.791
313.759
313.736
313.815
313.897
313.902
314.023
314.007
313.922
313.778
313.634
313.447
313.221
313.113
313.169
313.156
313.282
311.114
310.894
310.76
310.759
310.668
310.652
310.724
310.769
310.882
311.012
310.972
310.821
310.676
310.591
310.442
310.261
310.226
310.214
310.254
310.34
307.992
307.805
307.649
307.668
307.63
307.694
307.705
307.751
307.826
307.822
307.838
307.769
307.682
307.553
307.464
307.299
307.344
307.271
307.322
307.41
304.729
304.662
304.647
304.625
304.608
304.558
304.578
304.655
304.564
304.641
304.719
304.719
304.67
304.536
304.526
304.442
304.437
304.337
304.355
304.448
301.531
301.568
301.489
301.505
301.412
301.509
301.555
301.543
301.609
301.556
301.6
301.593
301.526
301.545
301.54
301.501
301.568
301.414
301.572
301.456
324.506
324.176
323.852
323.598
323.486
323.515
323.573
323.689
323.761
323.838
323.781
323.583
323.435
323.064
322.856
322.63
322.37
322.454
322.56
322.692
321.3
321.022
320.662
320.473
320.365
320.368
320.457
320.523
320.613
320.682
320.589
320.499
320.258
320.129
319.797
319.627
319.444
319.407
319.581
319.712
317.992
317.719
317.533
317.385
317.23
317.279
317.315
317.417
317.485
317.472
317.536
317.536
317.197
317.029
316.802
316.548
316.462
316.441
316.52
316.695
314.719
314.593
314.268
314.22
314.169
314.121
314.182
314.185
314.351
314.388
314.403
314.246
314.074
313.951
313.707
313.602
313.369
313.43
313.534
313.63
311.443
311.314
311.136
310.984
311.073
310.93
311.042
311.133
311.159
311.093
311.214
311.097
311.001
310.858
310.685
310.624
310.497
310.522
310.486
310.691
308.242
308.009
307.987
307.881
307.907
307.855
307.919
307.945
307.974
308.018
308.011
307.892
307.832
307.818
307.662
307.567
307.48
307.478
307.559
307.586
304.922
304.903
304.851
304.775
304.734
304.727
304.73
304.769
304.709
304.848
304.824
304.755
304.771
304.673
304.59
304.559
304.529
304.506
304.565
304.58
301.644
301.634
301.553
301.623
301.647
301.622
301.56
301.624
301.655
301.613
301.532
301.525
301.588
301.611
301.53
301.506
301.504
301.552
301.507
301.516
325.344
324.977
324.645
324.4
324.295
324.224
324.245
324.265
324.258
324.374
324.318
324.101
323.929
323.613
323.353
323.082
322.996
323.058
323.171
323.406
321.885
321.608
321.422
321.141
321.043
320.998
320.985
321.077
321.061
321.142
321.154
320.959
320.738
320.536
320.318
320.074
319.967
320.018
320.046
320.238
318.591
318.388
318.108
317.877
317.799
317.801
317.821
317.865
317.914
317.943
317.869
317.761
317.578
317.377
317.153
316.962
316.912
316.912
317.01
317.185
315.193
314.949
314.865
314.709
314.648
314.606
314.649
314.658
314.663
314.639
314.646
314.565
314.388
314.24
314.077
313.997
313.853
313.835
313.947
314.021
311.83
311.684
311.522
311.451
311.36
311.323
311.331
311.34
311.446
311.461
311.387
311.318
311.193
311.091
311.022
310.816
310.85
310.741
310.883
310.976
308.526
308.359
308.164
308.193
308.133
308.02
308.112
308.105
308.124
308.219
308.16
308.089
308.047
307.908
307.851
307.699
307.742
307.722
307.756
307.831
305.101
305.081
304.938
304.868
304.836
304.91
304.906
304.938
304.905
304.944
304.968
304.915
304.808
304.767
304.762
304.633
304.594
304.542
304.651
304.714
301.656
301.733
301.707
301.647
301.591
301.63
301.668
301.645
301.649
301.609
301.62
301.637
301.614
301.643
301.573
301.592
301.603
301.584
301.53
301.625
326.083
325.769
325.434
325.197
325.014
324.841
324.898
324.899
324.845
324.862
324.812
324.574
324.448
324.231
323.937
323.781
323.56
323.633
323.838
324.042
322.666
322.377
322.012
321.872
321.727
321.615
321.628
321.614
321.621
321.53
321.507
321.368
321.233
321.06
320.742
320.556
320.507
320.487
320.571
320.883
319.178
318.94
318.619
318.454
318.44
318.354
318.193
318.26
318.33
318.281
318.225
318.148
317.951
317.834
317.684
317.458
317.388
317.356
317.455
317.67
315.608
315.474
315.263
315.112
315.062
315.022
314.942
314.944
314.933
315.018
314.969
314.885
314.709
314.575
314.332
314.309
314.293
314.241
314.246
314.429
312.196
312.067
311.902
311.832
311.722
311.677
311.677
311.64
311.687
311.659
311.662
311.507
311.475
311.307
311.296
311.11
311.11
311.119
311.076
311.177
308.749
308.625
308.499
308.427
308.378
308.395
308.302
308.348
308.374
308.356
308.361
308.183
308.244
308.078
307.99
308.04
307.959
307.887
307.957
308.044
305.254
305.202
305.078
305.053
304.975
305.031
304.991
305.047
304.971
305.023
304.929
304.982
304.951
304.916
304.822
304.768
304.756
304.746
304.759
304.868
301.72
301.708
301.659
301.616
301.716
301.715
301.696
301.702
301.649
301.654
301.691
301.655
301.601
301.659
301.653
301.575
301.557
301.678
301.593
301.631
326.904
326.594
326.176
325.954
325.734
325.548
325.564
325.407
325.476
325.372
325.323
325.126
325.004
324.796
324.58
324.357
324.282
324.309
324.418
324.667
323.347
322.982
322.702
322.476
322.251
322.181
322.157
322.131
322.073
322.086
321.93
321.814
321.664
321.381
321.271
321.113
321.029
321.076
321.224
321.406
319.759
319.534
319.189
319.026
318.87
318.855
318.807
318.768
318.755
318.768
318.586
318.486
318.273
318.242
317.996
317.875
317.788
317.889
317.963
318.145
316.158
315.992
315.669
315.596
315.39
315.373
315.369
315.345
315.27
315.309
315.26
315.225
315.073
314.944
314.701
314.614
314.527
314.652
314.749
314.79
312.575
312.399
312.35
312.077
312.045
311.966
311.916
311.94
311.893
311.896
311.854
311.829
311.714
311.579
311.499
311.412
311.351
311.384
311.417
311.498
308.961
308.855
308.768
308.679
308.552
308.609
308.498
308.503
308.516
308.554
308.52
308.396
308.43
308.254
308.211
308.13
308.07
308.084
308.155
308.207
305.4
305.343
305.23
305.198
305.114
305.08
305.122
305.137
305.145
305.155
305.161
305.066
305.047
305.039
304.915
304.94
304.953
304.897
304.926
304.905
301.773
301.809
301.674
301.758
301.723
301.669
301.697
301.78
301.721
301.81
301.666
301.797
301.68
301.691
301.637
301.628
301.618
301.666
301.704
301.559
327.634
327.249
326.918
326.645
326.388
326.234
326.191
326.045
325.99
325.931
325.763
325.592
325.448
325.295
325.085
324.929
324.809
324.83
324.95
325.308
323.904
323.668
323.384
323.086
322.921
322.74
322.704
322.63
322.567
322.501
322.415
322.24
322.105
321.904
321.714
321.596
321.587
321.611
321.679
321.966
320.211
320.051
319.826
319.593
319.373
319.305
319.233
319.127
319.121
319.114
318.997
318.855
318.707
318.576
318.413
318.377
318.271
318.266
318.458
318.514
316.58
316.335
316.24
316.021
315.952
315.721
315.771
315.726
315.647
315.59
315.601
315.465
315.356
315.26
315.062
315.003
314.898
314.919
315.069
315.193
312.91
312.741
312.667
312.512
312.422
312.295
312.269
312.172
312.16
312.158
312.183
312.03
311.917
311.811
311.806
311.784
311.647
311.643
311.705
311.803
309.247
309.041
309.044
308.937
308.882
308.737
308.737
308.713
308.708
308.73
308.736
308.598
308.526
308.408
308.414
308.354
308.373
308.32
308.367
308.366
305.515
305.488
305.428
305.362
305.263
305.253
305.175
305.223
305.247
305.294
305.178
305.203
305.163
305.146
304.973
305.033
305.019
305.024
304.977
305.109
301.864
301.872
301.822
301.806
301.74
301.775
301.696
301.796
301.781
301.742
301.731
301.756
301.729
301.694
301.643
301.634
301.715
301.676
301.698
301.745
328.259
328.009
327.634
327.229
327.026
326.785
326.779
326.655
326.479
326.361
326.359
326.081
325.928
325.829
325.553
325.421
325.397
325.465
325.65
325.929
324.564
324.202
323.923
323.641
323.438
323.281
323.182
323.055
322.991
322.971
322.781
322.675
322.5
322.37
322.146
322.084
322.046
322.007
322.189
322.399
320.783
320.428
320.157
319.934
319.822
319.752
319.696
319.579
319.499
319.36
319.346
319.192
319.093
318.938
318.775
318.688
318.695
318.761
318.776
318.956
316.964
316.771
316.539
316.365
316.193
316.288
316.087
316.023
315.919
315.941
315.786
315.69
315.539
315.471
315.308
315.328
315.225
315.2
315.42
315.583
313.165
313.078
312.922
312.758
312.708
312.538
312.511
312.496
312.411
312.402
312.351
312.276
312.14
312.006
311.962
311.889
311.858
311.871
311.984
312.044
309.368
309.359
309.216
309.152
309.065
308.936
308.943
308.953
308.896
308.814
308.836
308.758
308.726
308.64
308.6
308.503
308.46
308.465
308.549
308.56
305.613
305.595
305.571
305.451
305.383
305.443
305.326
305.343
305.392
305.4
305.264
305.257
305.275
305.172
305.115
305.092
305.116
305.134
305.143
305.195
301.881
301.786
301.818
301.804
301.793
301.819
301.726
301.777
301.779
301.769
301.8
301.707
301.757
301.758
301.655
301.763
301.715
301.679
301.773
301.732
328.821
328.452
328.098
327.727
327.46
327.292
327.196
326.998
326.913
326.83
326.658
326.483
326.266
326.098
326.025
325.86
325.898
325.89
326.009
326.235
324.897
324.581
324.371
324.106
323.811
323.624
323.478
323.331
323.438
323.255
323.158
323.009
322.854
322.681
322.573
322.416
322.393
322.444
322.55
322.71
320.987
320.768
320.576
320.353
320.239
319.958
319.932
319.741
319.798
319.717
319.536
319.46
319.379
319.149
319.113
319.017
318.983
318.908
319.146
319.252
317.24
317.046
316.888
316.639
316.413
316.481
316.259
316.139
316.151
316.074
316.041
315.922
315.88
315.679
315.576
315.429
315.507
315.437
315.654
315.717
313.382
313.218
313.029
312.966
312.876
312.693
312.687
312.554
312.599
312.482
312.445
312.35
312.273
312.196
312.121
311.985
312.074
312.102
312.113
312.184
309.626
309.445
309.422
309.208
309.205
309.143
309.016
308.976
308.944
308.939
308.888
308.884
308.743
308.715
308.693
308.652
308.609
308.559
308.617
308.725
305.692
305.731
305.626
305.539
305.506
305.49
305.393
305.422
305.362
305.391
305.327
305.292
305.243
305.185
305.24
305.198
305.206
305.276
305.248
305.281
301.916
301.9
301.972
301.867
301.766
301.876
301.875
301.766
301.8
301.81
301.754
301.836
301.714
301.691
301.747
301.721
301.777
301.821
301.808
301.782
)
;

boundaryField
{
    hotSide
    {
        type            fixedGradient;
        gradient        nonuniform List<scalar> 
400
(
321.511
322.87
325.591
329.677
335.133
341.965
350.181
359.788
370.794
383.208
397.037
412.289
428.971
447.088
466.647
487.651
510.105
534.011
559.372
586.191
323.738
325.08
327.767
331.802
337.194
343.949
352.078
361.591
372.498
384.81
398.537
413.687
430.268
448.289
467.755
488.672
511.043
534.872
560.161
586.913
326.149
327.47
330.116
334.091
339.406
346.071
354.099
363.503
374.296
386.491
400.101
415.136
431.606
449.52
468.885
489.706
511.988
535.735
560.948
587.63
328.704
330
332.597
336.503
341.73
348.292
356.205
365.485
376.15
388.215
401.695
416.604
432.954
450.753
470.009
490.73
512.919
536.579
561.714
588.325
331.33
332.599
335.142
338.97
344.099
350.546
358.332
367.477
378.003
389.928
403.271
418.047
434.27
451.949
471.095
491.712
513.807
537.382
562.439
588.978
333.918
335.158
337.643
341.389
346.414
352.74
360.392
369.397
379.779
391.562
404.765
419.407
435.503
453.065
472.101
492.618
514.622
538.114
563.096
589.569
336.321
337.531
339.959
343.622
348.544
354.751
362.274
371.142
381.385
393.031
406.101
420.618
436.595
454.047
472.983
493.409
515.33
538.747
563.663
590.076
338.36
339.543
341.92
345.509
350.339
356.44
363.847
372.595
382.718
394.244
407.2
421.608
437.485
454.844
473.695
494.045
515.897
539.253
564.114
590.478
339.852
341.015
343.352
346.885
351.645
357.665
364.985
373.643
383.675
395.113
407.984
422.312
438.116
455.407
474.197
494.491
516.294
539.606
564.428
590.758
340.643
341.795
344.11
347.613
352.334
358.311
365.584
374.193
384.176
395.567
408.393
422.679
438.443
455.699
474.456
494.722
516.498
539.788
564.589
590.901
340.643
341.795
344.11
347.613
352.334
358.311
365.584
374.193
384.176
395.567
408.393
422.679
438.443
455.699
474.456
494.722
516.498
539.788
564.589
590.901
339.852
341.015
343.352
346.885
351.645
357.665
364.985
373.643
383.675
395.113
407.984
422.312
438.116
455.407
474.197
494.491
516.294
539.606
564.428
590.758
338.36
339.543
341.92
345.509
350.339
356.44
363.847
372.595
382.718
394.244
407.2
421.608
437.485
454.844
473.695
494.045
515.897
539.253
564.114
590.478
336.321
337.531
339.959
343.622
348.544
354.751
362.274
371.142
381.385
393.031
406.101
420.618
436.595
454.047
472.983
493.409
515.33
538.747
563.663
590.076
333.918
335.158
337.643
341.389
346.414
352.74
360.392
369.397
379.779
391.562
404.765
419.407
435.503
453.065
472.101
492.618
514.622
538.114
563.096
589.569
331.33
332.599
335.142
338.97
344.099
350.546
358.332
367.477
378.003
389.928
403.271
418.047
434.27
451.949
471.095
491.712
513.807
537.382
562.439
588.978
328.704
330
332.597
336.503
341.73
348.292
356.205
365.485
376.15
388.215
401.695
416.604
432.954
450.753
470.009
490.73
512.919
536.579
561.714
588.325
326.149
327.47
330.116
334.091
339.406
346.071
354.099
363.503
374.296
386.491
400.101
415.136
431.606
449.52
468.885
489.706
511.988
535.735
560.948
587.63
323.738
325.08
327.767
331.802
337.194
343.949
352.078
361.591
372.498
384.81
398.537
413.687
430.268
448.289
467.755
488.672
511.043
534.872
560.161
586.913
321.511
322.87
325.591
329.677
335.133
341.965
350.181
359.788
370.794
383.208
397.037
412.289
428.971
447.088
466.647
487.651
510.105
534.011
559.372
586.191
)
;
    }
    coldSide
    {
        type            mixed;
        refValue        uniform 300;
        refGradient     uniform 0;
        valueFraction   uniform 0.991591;
        source          uniform 0;
        value           nonuniform List<scalar> 
400
(
300.01
300.009
300.01
300.01
300.01
300.01
300.011
300.011
300.012
300.012
300.013
300.013
300.013
300.014
300.014
300.014
300.015
300.016
300.016
300.016
300.009
300.01
300.01
300.01
300.01
300.01
300.011
300.011
300.012
300.012
300.012
300.013
300.013
300.014
300.015
300.014
300.015
300.016
300.015