/*--------------------------------*- C++ -*----------------------------------*\
| =========                 |                                                 |
| \\      /  F ield         | OpenFOAM: The Open Source CFD Toolbox           |
|  \\    /   O peration     | Version:  2212                                  |
|   \\  /    A nd           | Website:  www.openfoam.com                      |
|    \\/     M anipulation  |                                                 |
\*---------------------------------------------------------------------------*/
FoamFile
{
    version     2.0;
    format      ascii;
    arch        "LSB;label=32;scalar=64";
    class       volScalarField;
    location    "./ITHACAoutput/true/19.2";
    object      trueState;
}
// * * * * * * * * * * * * * * * * * * * * * * * * * * * * * * * * * * * * * //

dimensions      [0 0 0 1 0 0 0];

internalField   nonuniform List<scalar> 
3200
(
318.152
318.335
318.57
318.825
319.088
319.346
319.584
319.785
319.931
320.009
320.009
319.931
319.785
319.584
319.346
319.088
318.825
318.57
318.335
318.152
315.695
315.851
316.052
316.273
316.501
316.724
316.93
317.104
317.23
317.297
317.297
317.23
317.104
316.93
316.724
316.501
316.273
316.052
315.851
315.695
313.256
313.384
313.555
313.741
313.933
314.122
314.296
314.442
314.549
314.605
314.605
314.549
314.442
314.296
314.122
313.933
313.741
313.555
313.384
313.256
310.83
310.934
311.072
311.225
311.382
311.536
311.678
311.798
311.885
311.931
311.931
311.885
311.798
311.678
311.536
311.382
311.225
311.072
310.934
310.83
308.415
308.494
308.602
308.721
308.843
308.962
309.073
309.166
309.233
309.269
309.269
309.233
309.166
309.073
308.962
308.843
308.721
308.602
308.494
308.415
306.008
306.064
306.141
306.226
306.313
306.398
306.477
306.543
306.592
306.617
306.617
306.592
306.543
306.477
306.398
306.313
306.226
306.141
306.064
306.008
303.607
303.64
303.686
303.737
303.789
303.841
303.888
303.928
303.957
303.972
303.972
303.957
303.928
303.888
303.841
303.789
303.737
303.686
303.64
303.607
301.209
301.22
301.235
301.252
301.27
301.287
301.303
301.316
301.326
301.331
301.331
301.326
301.316
301.303
301.287
301.27
301.252
301.235
301.22
301.209
318.219
318.401
318.633
318.886
319.146
319.402
319.637
319.836
319.98
320.056
320.056
319.98
319.836
319.637
319.402
319.146
318.886
318.633
318.401
318.219
315.753
315.907
316.108
316.326
316.552
316.772
316.976
317.147
317.272
317.338
317.338
317.272
317.147
316.976
316.772
316.552
316.326
316.108
315.907
315.753
313.305
313.432
313.601
313.786
313.976
314.163
314.335
314.479
314.585
314.64
314.64
314.585
314.479
314.335
314.163
313.976
313.786
313.601
313.432
313.305
310.87
310.973
311.11
311.261
311.417
311.569
311.71
311.828
311.914
311.959
311.959
311.914
311.828
311.71
311.569
311.417
311.261
311.11
310.973
310.87
308.446
308.525
308.631
308.749
308.87
308.988
309.097
309.189
309.256
309.291
309.291
309.256
309.189
309.097
308.988
308.87
308.749
308.631
308.525
308.446
306.03
306.086
306.162
306.246
306.332
306.417
306.494
306.56
306.608
306.633
306.633
306.608
306.56
306.494
306.417
306.332
306.246
306.162
306.086
306.03
303.62
303.653
303.699
303.749
303.801
303.852
303.898
303.938
303.966
303.981
303.981
303.966
303.938
303.898
303.852
303.801
303.749
303.699
303.653
303.62
301.213
301.224
301.239
301.256
301.274
301.291
301.306
301.32
301.329
301.334
301.334
301.329
301.32
301.306
301.291
301.274
301.256
301.239
301.224
301.213
318.354
318.533
318.762
319.01
319.265
319.514
319.744
319.938
320.079
320.153
320.153
320.079
319.938
319.744
319.514
319.265
319.01
318.762
318.533
318.354
315.87
316.021
316.218
316.433
316.654
316.869
317.068
317.236
317.357
317.422
317.422
317.357
317.236
317.068
316.869
316.654
316.433
316.218
316.021
315.87
313.403
313.528
313.694
313.876
314.062
314.245
314.413
314.554
314.657
314.711
314.711
314.657
314.554
314.413
314.245
314.062
313.876
313.694
313.528
313.403
310.95
311.051
311.186
311.334
311.487
311.636
311.773
311.889
311.972
312.017
312.017
311.972
311.889
311.773
311.636
311.487
311.334
311.186
311.051
310.95
308.508
308.586
308.69
308.806
308.924
309.04
309.147
309.236
309.301
309.336
309.336
309.301
309.236
309.147
309.04
308.924
308.806
308.69
308.586
308.508
306.074
306.129
306.204
306.286
306.371
306.454
306.53
306.594
306.64
306.665
306.665
306.64
306.594
306.53
306.454
306.371
306.286
306.204
306.129
306.074
303.646
303.679
303.724
303.773
303.824
303.874
303.92
303.958
303.986
304.001
304.001
303.986
303.958
303.92
303.874
303.824
303.773
303.724
303.679
303.646
301.222
301.233
301.248
301.264
301.282
301.298
301.313
301.326
301.336
301.341
301.341
301.336
301.326
301.313
301.298
301.282
301.264
301.248
301.233
301.222
318.557
318.732
318.954
319.196
319.443
319.685
319.907
320.094
320.229
320.301
320.301
320.229
320.094
319.907
319.685
319.443
319.196
318.954
318.732
318.557
316.045
316.193
316.385
316.593
316.808
317.017
317.209
317.37
317.487
317.549
317.549
317.487
317.37
317.209
317.017
316.808
316.593
316.385
316.193
316.045
313.55
313.673
313.835
314.011
314.192
314.369
314.531
314.667
314.766
314.818
314.818
314.766
314.667
314.531
314.369
314.192
314.011
313.835
313.673
313.55
311.07
311.169
311.301
311.445
311.593
311.737
311.87
311.981
312.062
312.104
312.104
312.062
311.981
311.87
311.737
311.593
311.445
311.301
311.169
311.07
308.601
308.677
308.779
308.891
309.006
309.119
309.222
309.308
309.371
309.404
309.404
309.371
309.308
309.222
309.119
309.006
308.891
308.779
308.677
308.601
306.141
306.195
306.267
306.347
306.43
306.51
306.583
306.645
306.69
306.713
306.713
306.69
306.645
306.583
306.51
306.43
306.347
306.267
306.195
306.141
303.686
303.718
303.762
303.81
303.859
303.908
303.952
303.989
304.016
304.03
304.03
304.016
303.989
303.952
303.908
303.859
303.81
303.762
303.718
303.686
301.235
301.246
301.261
301.277
301.293
301.309
301.324
301.337
301.346
301.35
301.35
301.346
301.337
301.324
301.309
301.293
301.277
301.261
301.246
301.235
318.828
318.998
319.213
319.446
319.684
319.915
320.127
320.305
320.434
320.502
320.502
320.434
320.305
320.127
319.915
319.684
319.446
319.213
318.998
318.828
316.279
316.422
316.608
316.809
317.015
317.216
317.399
317.553
317.664
317.723
317.723
317.664
317.553
317.399
317.216
317.015
316.809
316.608
316.422
316.279
313.747
313.866
314.023
314.193
314.367
314.536
314.692
314.821
314.916
314.965
314.965
314.916
314.821
314.692
314.536
314.367
314.193
314.023
313.866
313.747
311.231
311.327
311.454
311.593
311.736
311.874
312.001
312.107
312.184
312.224
312.224
312.184
312.107
312.001
311.874
311.736
311.593
311.454
311.327
311.231
308.726
308.8
308.898
309.007
309.117
309.225
309.323
309.406
309.465
309.497
309.497
309.465
309.406
309.323
309.225
309.117
309.007
308.898
308.8
308.726
306.23
306.282
306.352
306.43
306.509
306.586
306.656
306.715
306.757
306.78
306.78
306.757
306.715
306.656
306.586
306.509
306.43
306.352
306.282
306.23
303.74
303.771
303.813
303.859
303.907
303.953
303.995
304.031
304.056
304.07
304.07
304.056
304.031
303.995
303.953
303.907
303.859
303.813
303.771
303.74
301.253
301.264
301.278
301.293
301.309
301.325
301.339
301.351
301.359
301.364
301.364
301.359
301.351
301.339
301.325
301.309
301.293
301.278
301.264
301.253
319.169
319.332
319.538
319.761
319.988
320.208
320.408
320.576
320.698
320.762
320.762
320.698
320.576
320.408
320.208
319.988
319.761
319.538
319.332
319.169
316.572
316.71
316.889
317.081
317.277
317.468
317.642
317.787
317.892
317.947
317.947
317.892
317.787
317.642
317.468
317.277
317.081
316.889
316.71
316.572
313.995
314.109
314.26
314.422
314.588
314.749
314.896
315.019
315.107
315.154
315.154
315.107
315.019
314.896
314.749
314.588
314.422
314.26
314.109
313.995
311.433
311.525
311.647
311.78
311.916
312.048
312.168
312.268
312.34
312.378
312.378
312.34
312.268
312.168
312.048
311.916
311.78
311.647
311.525
311.433
308.883
308.954
309.048
309.152
309.257
309.36
309.453
309.531
309.587
309.616
309.616
309.587
309.531
309.453
309.36
309.257
309.152
309.048
308.954
308.883
306.342
306.392
306.459
306.533
306.609
306.682
306.748
306.804
306.844
306.865
306.865
306.844
306.804
306.748
306.682
306.609
306.533
306.459
306.392
306.342
303.807
303.837
303.877
303.922
303.967
304.011
304.051
304.084
304.108
304.121
304.121
304.108
304.084
304.051
304.011
303.967
303.922
303.877
303.837
303.807
301.276
301.286
301.299
301.314
301.329
301.344
301.357
301.369
301.377
301.381
301.381
301.377
301.369
301.357
301.344
301.329
301.314
301.299
301.286
301.276
319.579
319.735
319.932
320.143
320.357
320.564
320.753
320.909
321.023
321.082
321.082
321.023
320.909
320.753
320.564
320.357
320.143
319.932
319.735
319.579
316.926
317.058
317.228
317.411
317.596
317.776
317.939
318.074
318.172
318.223
318.223
318.172
318.074
317.939
317.776
317.596
317.411
317.228
317.058
316.926
314.293
314.403
314.546
314.7
314.857
315.009
315.146
315.261
315.344
315.387
315.387
315.344
315.261
315.146
315.009
314.857
314.7
314.546
314.403
314.293
311.676
311.764
311.881
312.007
312.136
312.259
312.372
312.466
312.533
312.569
312.569
312.533
312.466
312.372
312.259
312.136
312.007
311.881
311.764
311.676
309.072
309.139
309.23
309.328
309.428
309.524
309.611
309.684
309.737
309.764
309.764
309.737
309.684
309.611
309.524
309.428
309.328
309.23
309.139
309.072
306.476
306.524
306.589
306.659
306.73
306.799
306.861
306.913
306.951
306.97
306.97
306.951
306.913
306.861
306.799
306.73
306.659
306.589
306.524
306.476
303.888
303.916
303.955
303.997
304.04
304.081
304.119
304.15
304.172
304.184
304.184
304.172
304.15
304.119
304.081
304.04
303.997
303.955
303.916
303.888
301.303
301.312
301.325
301.339
301.354
301.368
301.38
301.391
301.398
301.402
301.402
301.398
301.391
301.38
301.368
301.354
301.339
301.325
301.312
301.303
320.06
320.208
320.395
320.594
320.795
320.988
321.163
321.308
321.413
321.468
321.468
321.413
321.308
321.163
320.988
320.795
320.594
320.395
320.208
320.06
317.341
317.467
317.627
317.8
317.974
318.141
318.293
318.418
318.509
318.556
318.556
318.509
318.418
318.293
318.141
317.974
317.8
317.627
317.467
317.341
314.643
314.747
314.883
315.028
315.175
315.317
315.445
315.551
315.628
315.668
315.668
315.628
315.551
315.445
315.317
315.175
315.028
314.883
314.747
314.643
311.962
312.045
312.156
312.275
312.395
312.511
312.616
312.702
312.765
312.798
312.798
312.765
312.702
312.616
312.511
312.395
312.275
312.156
312.045
311.962
309.293
309.357
309.443
309.536
309.629
309.719
309.8
309.868
309.917
309.942
309.942
309.917
309.868
309.8
309.719
309.629
309.536
309.443
309.357
309.293
306.634
306.68
306.741
306.807
306.874
306.938
306.996
307.044
307.079
307.097
307.097
307.079
307.044
306.996
306.938
306.874
306.807
306.741
306.68
306.634
303.982
304.01
304.046
304.086
304.126
304.165
304.2
304.228
304.249
304.26
304.26
304.249
304.228
304.2
304.165
304.126
304.086
304.046
304.01
303.982
301.334
301.344
301.356
301.369
301.383
301.396
301.407
301.417
301.424
301.428
301.428
301.424
301.417
301.407
301.396
301.383
301.369
301.356
301.344
301.334
320.613
320.753
320.928
321.114
321.302
321.481
321.642
321.776
321.872
321.922
321.922
321.872
321.776
321.642
321.481
321.302
321.114
320.928
320.753
320.613
317.818
317.937
318.088
318.249
318.411
318.567
318.706
318.822
318.905
318.948
318.948
318.905
318.822
318.706
318.567
318.411
318.249
318.088
317.937
317.818
315.045
315.143
315.271
315.407
315.544
315.676
315.794
315.892
315.962
315.998
315.998
315.962
315.892
315.794
315.676
315.544
315.407
315.271
315.143
315.045
312.289
312.368
312.472
312.584
312.696
312.803
312.9
312.98
313.037
313.067
313.067
313.037
312.98
312.9
312.803
312.696
312.584
312.472
312.368
312.289
309.547
309.608
309.689
309.775
309.863
309.946
310.021
310.084
310.128
310.151
310.151
310.128
310.084
310.021
309.946
309.863
309.775
309.689
309.608
309.547
306.816
306.859
306.916
306.978
307.04
307.1
307.154
307.198
307.23
307.247
307.247
307.23
307.198
307.154
307.1
307.04
306.978
306.916
306.859
306.816
304.091
304.117
304.151
304.189
304.226
304.262
304.294
304.321
304.34
304.35
304.35
304.34
304.321
304.294
304.262
304.226
304.189
304.151
304.117
304.091
301.371
301.38
301.391
301.404
301.416
301.428
301.439
301.448
301.454
301.458
301.458
301.454
301.448
301.439
301.428
301.416
301.404
301.391
301.38
301.371
321.238
321.369
321.533
321.707
321.88
322.045
322.194
322.316
322.403
322.448
322.448
322.403
322.316
322.194
322.045
321.88
321.707
321.533
321.369
321.238
318.357
318.469
318.61
318.76
318.911
319.054
319.182
319.288
319.363
319.403
319.403
319.363
319.288
319.182
319.054
318.911
318.76
318.61
318.469
318.357
315.5
315.592
315.711
315.838
315.965
316.086
316.195
316.284
316.348
316.381
316.381
316.348
316.284
316.195
316.086
315.965
315.838
315.711
315.592
315.5
312.66
312.735
312.832
312.936
313.04
313.139
313.227
313.3
313.353
313.38
313.38
313.353
313.3
313.227
313.139
313.04
312.936
312.832
312.735
312.66
309.835
309.892
309.968
310.048
310.129
310.206
310.275
310.332
310.373
310.394
310.394
310.373
310.332
310.275
310.206
310.129
310.048
309.968
309.892
309.835
307.021
307.061
307.115
307.173
307.231
307.286
307.335
307.376
307.405
307.42
307.42
307.405
307.376
307.335
307.286
307.231
307.173
307.115
307.061
307.021
304.214
304.239
304.271
304.305
304.34
304.373
304.403
304.427
304.445
304.454
304.454
304.445
304.427
304.403
304.373
304.34
304.305
304.271
304.239
304.214
301.412
301.42
301.431
301.443
301.454
301.465
301.475
301.483
301.489
301.492
301.492
301.489
301.483
301.475
301.465
301.454
301.443
301.431
301.42
301.412
321.936
322.059
322.212
322.373
322.532
322.684
322.819
322.93
323.009
323.05
323.05
323.009
322.93
322.819
322.684
322.532
322.373
322.212
322.059
321.936
318.96
319.064
319.196
319.335
319.473
319.605
319.722
319.818
319.886
319.922
319.922
319.886
319.818
319.722
319.605
319.473
319.335
319.196
319.064
318.96
316.008
316.094
316.205
316.323
316.44
316.551
316.65
316.731
316.789
316.819
316.819
316.789
316.731
316.65
316.551
316.44
316.323
316.205
316.094
316.008
313.075
313.144
313.235
313.331
313.427
313.517
313.598
313.665
313.712
313.737
313.737
313.712
313.665
313.598
313.517
313.427
313.331
313.235
313.144
313.075
310.157
310.21
310.28
310.355
310.43
310.5
310.563
310.615
310.652
310.671
310.671
310.652
310.615
310.563
310.5
310.43
310.355
310.28
310.21
310.157
307.25
307.288
307.338
307.392
307.445
307.495
307.54
307.577
307.604
307.617
307.617
307.604
307.577
307.54
307.495
307.445
307.392
307.338
307.288
307.25
304.352
304.375
304.405
304.437
304.469
304.499
304.526
304.548
304.564
304.572
304.572
304.564
304.548
304.526
304.499
304.469
304.437
304.405
304.375
304.352
301.458
301.466
301.476
301.487
301.497
301.508
301.517
301.524
301.529
301.532
301.532
301.529
301.524
301.517
301.508
301.497
301.487
301.476
301.466
301.458
322.709
322.823
322.965
323.113
323.259
323.397
323.52
323.62
323.691
323.728
323.728
323.691
323.62
323.52
323.397
323.259
323.113
322.965
322.823
322.709
319.626
319.723
319.845
319.974
320.101
320.22
320.327
320.413
320.475
320.507
320.507
320.475
320.413
320.327
320.22
320.101
319.974
319.845
319.723
319.626
316.569
316.65
316.753
316.861
316.969
317.07
317.16
317.233
317.285
317.312
317.312
317.285
317.233
317.16
317.07
316.969
316.861
316.753
316.65
316.569
313.533
313.598
313.682
313.77
313.858
313.941
314.015
314.075
314.117
314.139
314.139
314.117
314.075
314.015
313.941
313.858
313.77
313.682
313.598
313.533
310.513
310.562
310.627
310.696
310.765
310.829
310.886
310.933
310.966
310.983
310.983
310.966
310.933
310.886
310.829
310.765
310.696
310.627
310.562
310.513
307.504
307.539
307.586
307.635
307.684
307.73
307.771
307.804
307.828
307.84
307.84
307.828
307.804
307.771
307.73
307.684
307.635
307.586
307.539
307.504
304.504
304.525
304.553
304.583
304.612
304.64
304.664
304.684
304.699
304.706
304.706
304.699
304.684
304.664
304.64
304.612
304.583
304.553
304.525
304.504
301.509
301.516
301.526
301.536
301.545
301.555
301.563
301.57
301.574
301.577
301.577
301.574
301.57
301.563
301.555
301.545
301.536
301.526
301.516
301.509
323.555
323.661
323.792
323.928
324.062
324.188
324.298
324.389
324.452
324.486
324.486
324.452
324.389
324.298
324.188
324.062
323.928
323.792
323.661
323.555
320.357
320.447
320.56
320.677
320.793
320.902
320.998
321.076
321.132
321.161
321.161
321.132
321.076
320.998
320.902
320.793
320.677
320.56
320.447
320.357
317.185
317.26
317.355
317.455
317.553
317.645
317.726
317.792
317.839
317.863
317.863
317.839
317.792
317.726
317.645
317.553
317.455
317.355
317.26
317.185
314.035
314.095
314.173
314.254
314.335
314.41
314.477
314.531
314.569
314.589
314.589
314.569
314.531
314.477
314.41
314.335
314.254
314.173
314.095
314.035
310.902
310.949
311.009
311.072
311.135
311.193
311.245
311.287
311.317
311.332
311.332
311.317
311.287
311.245
311.193
311.135
311.072
311.009
310.949
310.902
307.782
307.815
307.858
307.903
307.948
307.99
308.027
308.057
308.078
308.089
308.089
308.078
308.057
308.027
307.99
307.948
307.903
307.858
307.815
307.782
304.671
304.691
304.716
304.744
304.77
304.796
304.818
304.836
304.849
304.855
304.855
304.849
304.836
304.818
304.796
304.77
304.744
304.716
304.691
304.671
301.565
301.572
301.58
301.589
301.598
301.607
301.614
301.62
301.625
301.627
301.627
301.625
301.62
301.614
301.607
301.598
301.589
301.58
301.572
301.565
324.476
324.574
324.695
324.819
324.941
325.055
325.155
325.236
325.293
325.323
325.323
325.293
325.236
325.155
325.055
324.941
324.819
324.695
324.574
324.476
321.151
321.235
321.338
321.446
321.552
321.65
321.737
321.807
321.857
321.883
321.883
321.857
321.807
321.737
321.65
321.552
321.446
321.338
321.235
321.151
317.855
317.924
318.011
318.103
318.192
318.276
318.349
318.408
318.45
318.472
318.472
318.45
318.408
318.349
318.276
318.192
318.103
318.011
317.924
317.855
314.582
314.637
314.709
314.783
314.856
314.925
314.985
315.033
315.068
315.085
315.085
315.068
315.033
314.985
314.925
314.856
314.783
314.709
314.637
314.582
311.326
311.369
311.424
311.482
311.539
311.592
311.639
311.677
311.704
311.718
311.718
311.704
311.677
311.639
311.592
311.539
311.482
311.424
311.369
311.326
308.085
308.115
308.154
308.196
308.237
308.274
308.308
308.335
308.354
308.364
308.364
308.354
308.335
308.308
308.274
308.237
308.196
308.154
308.115
308.085
304.853
304.871
304.894
304.919
304.944
304.966
304.986
305.003
305.014
305.02
305.02
305.014
305.003
304.986
304.966
304.944
304.919
304.894
304.871
304.853
301.626
301.632
301.64
301.648
301.657
301.664
301.671
301.676
301.68
301.682
301.682
301.68
301.676
301.671
301.664
301.657
301.648
301.64
301.632
301.626
325.47
325.561
325.671
325.785
325.896
325.998
326.088
326.161
326.212
326.238
326.238
326.212
326.161
326.088
325.998
325.896
325.785
325.671
325.561
325.47
322.009
322.085
322.181
322.279
322.375
322.464
322.542
322.605
322.649
322.672
322.672
322.649
322.605
322.542
322.464
322.375
322.279
322.181
322.085
322.009
318.578
318.641
318.721
318.805
318.886
318.961
319.028
319.081
319.118
319.138
319.138
319.118
319.081
319.028
318.961
318.886
318.805
318.721
318.641
318.578
315.171
315.222
315.288
315.356
315.422
315.484
315.538
315.582
315.612
315.628
315.628
315.612
315.582
315.538
315.484
315.422
315.356
315.288
315.222
315.171
311.784
311.823
311.874
311.927
311.978
312.026
312.069
312.102
312.126
312.139
312.139
312.126
312.102
312.069
312.026
311.978
311.927
311.874
311.823
311.784
308.411
308.439
308.475
308.513
308.55
308.584
308.614
308.638
308.655
308.664
308.664
308.655
308.638
308.614
308.584
308.55
308.513
308.475
308.439
308.411
305.048
305.065
305.086
305.109
305.131
305.152
305.17
305.185
305.195
305.2
305.2
305.195
305.185
305.17
305.152
305.131
305.109
305.086
305.065
305.048
301.692
301.697
301.704
301.712
301.719
301.726
301.732
301.737
301.741
301.742
301.742
301.741
301.737
301.732
301.726
301.719
301.712
301.704
301.697
301.692
326.533
326.616
326.717
326.821
326.922
327.014
327.095
327.16
327.206
327.229
327.229
327.206
327.16
327.095
327.014
326.922
326.821
326.717
326.616
326.533
322.925
322.995
323.083
323.173
323.26
323.34
323.41
323.466
323.506
323.526
323.526
323.506
323.466
323.41
323.34
323.26
323.173
323.083
322.995
322.925
319.349
319.408
319.481
319.557
319.631
319.699
319.758
319.806
319.839
319.857
319.857
319.839
319.806
319.758
319.699
319.631
319.557
319.481
319.408
319.349
315.8
315.847
315.907
315.969
316.029
316.085
316.134
316.173
316.2
316.214
316.214
316.2
316.173
316.134
316.085
316.029
315.969
315.907
315.847
315.8
312.271
312.307
312.354
312.402
312.449
312.493
312.53
312.561
312.582
312.593
312.593
312.582
312.561
312.53
312.493
312.449
312.402
312.354
312.307
312.271
308.758
308.784
308.817
308.852
308.885
308.916
308.943
308.965
308.98
308.988
308.988
308.98
308.965
308.943
308.916
308.885
308.852
308.817
308.784
308.758
305.257
305.272
305.292
305.313
305.333
305.351
305.368
305.381
305.39
305.395
305.395
305.39
305.381
305.368
305.351
305.333
305.313
305.292
305.272
305.257
301.761
301.766
301.773
301.78
301.787
301.793
301.799
301.803
301.806
301.808
301.808
301.806
301.803
301.799
301.793
301.787
301.78
301.773
301.766
301.761
327.654
327.73
327.823
327.918
328.009
328.092
328.165
328.223
328.264
328.284
328.284
328.264
328.223
328.165
328.092
328.009
327.918
327.823
327.73
327.654
323.889
323.954
324.034
324.116
324.195
324.267
324.33
324.381
324.416
324.434
324.434
324.416
324.381
324.33
324.267
324.195
324.116
324.034
323.954
323.889
320.16
320.214
320.281
320.35
320.417
320.479
320.532
320.575
320.604
320.62
320.62
320.604
320.575
320.532
320.479
320.417
320.35
320.281
320.214
320.16
316.46
316.503
316.558
316.615
316.669
316.72
316.763
316.798
316.823
316.835
316.835
316.823
316.798
316.763
316.72
316.669
316.615
316.558
316.503
316.46
312.782
312.816
312.858
312.902
312.945
312.984
313.018
313.045
313.064
313.074
313.074
313.064
313.045
313.018
312.984
312.945
312.902
312.858
312.816
312.782
309.122
309.146
309.176
309.208
309.238
309.266
309.291
309.31
309.324
309.331
309.331
309.324
309.31
309.291
309.266
309.238
309.208
309.176
309.146
309.122
305.475
305.489
305.507
305.526
305.544
305.561
305.576
305.587
305.596
305.6
305.6
305.596
305.587
305.576
305.561
305.544
305.526
305.507
305.489
305.475
301.834
301.839
301.845
301.852
301.858
301.863
301.868
301.872
301.875
301.876
301.876
301.875
301.872
301.868
301.863
301.858
301.852
301.845
301.839
301.834
328.804
328.875
328.96
329.046
329.129
329.204
329.27
329.322
329.358
329.377
329.377
329.358
329.322
329.27
329.204
329.129
329.046
328.96
328.875
328.804
324.874
324.934
325.007
325.082
325.154
325.22
325.276
325.322
325.353
325.369
325.369
325.353
325.322
325.276
325.22
325.154
325.082
325.007
324.934
324.874
320.985
321.034
321.096
321.16
321.22
321.276
321.324
321.362
321.389
321.403
321.403
321.389
321.362
321.324
321.276
321.22
321.16
321.096
321.034
320.985
317.129
317.169
317.219
317.271
317.321
317.366
317.406
317.437
317.459
317.47
317.47
317.459
317.437
317.406
317.366
317.321
317.271
317.219
317.169
317.129
313.299
313.33
313.369
313.409
313.448
313.483
313.514
313.538
313.556
313.564
313.564
313.556
313.538
313.514
313.483
313.448
313.409
313.369
313.33
313.299
309.49
309.511
309.539
309.568
309.596
309.621
309.643
309.661
309.673
309.679
309.679
309.673
309.661
309.643
309.621
309.596
309.568
309.539
309.511
309.49
305.695
305.707
305.724
305.742
305.758
305.773
305.787
305.797
305.804
305.808
305.808
305.804
305.797
305.787
305.773
305.758
305.742
305.724
305.707
305.695
301.908
301.912
301.918
301.924
301.929
301.934
301.939
301.942
301.945
301.946
301.946
301.945
301.942
301.939
301.934
301.929
301.924
301.918
301.912
301.908
329.913
329.978
330.056
330.135
330.211
330.28
330.339
330.386
330.419
330.436
330.436
330.419
330.386
330.339
330.28
330.211
330.135
330.056
329.978
329.913
325.812
325.867
325.935
326.004
326.069
326.129
326.181
326.222
326.251
326.265
326.265
326.251
326.222
326.181
326.129
326.069
326.004
325.935
325.867
325.812
321.761
321.807
321.864
321.923
321.979
322.029
322.073
322.108
322.132
322.145
322.145
322.132
322.108
322.073
322.029
321.979
321.923
321.864
321.807
321.761
317.753
317.789
317.836
317.884
317.93
317.971
318.007
318.036
318.056
318.066
318.066
318.056
318.036
318.007
317.971
317.93
317.884
317.836
317.789
317.753
313.777
313.806
313.842
313.879
313.915
313.947
313.975
313.997
314.013
314.021
314.021
314.013
313.997
313.975
313.947
313.915
313.879
313.842
313.806
313.777
309.827
309.848
309.873
309.9
309.926
309.949
309.969
309.985
309.996
310.002
310.002
309.996
309.985
309.969
309.949
309.926
309.9
309.873
309.848
309.827
305.896
305.908
305.923
305.939
305.955
305.969
305.981
305.99
305.997
306
306
305.997
305.99
305.981
305.969
305.955
305.939
305.923
305.908
305.896
301.975
301.979
301.984
301.99
301.995
302
302.004
302.007
302.009
302.01
302.01
302.009
302.007
302.004
302
301.995
301.99
301.984
301.979
301.975
330.785
330.846
330.92
330.994
331.065
331.129
331.185
331.228
331.259
331.274
331.274
331.259
331.228
331.185
331.129
331.065
330.994
330.92
330.846
330.785
326.522
326.574
326.638
326.703
326.764
326.82
326.868
326.907
326.933
326.947
326.947
326.933
326.907
326.868
326.82
326.764
326.703
326.638
326.574
326.522
322.331
322.374
322.428
322.483
322.536
322.584
322.625
322.657
322.68
322.691
322.691
322.68
322.657
322.625
322.584
322.536
322.483
322.428
322.374
322.331
318.199
318.234
318.278
318.323
318.366
318.405
318.439
318.466
318.485
318.494
318.494
318.485
318.466
318.439
318.405
318.366
318.323
318.278
318.234
318.199
314.113
314.14
314.174
314.209
314.243
314.273
314.3
314.321
314.335
314.343
314.343
314.335
314.321
314.3
314.273
314.243
314.209
314.174
314.14
314.113
310.061
310.08
310.105
310.13
310.154
310.176
310.195
310.21
310.22
310.226
310.226
310.22
310.21
310.195
310.176
310.154
310.13
310.105
310.08
310.061
306.034
306.045
306.06
306.075
306.09
306.103
306.114
306.123
306.13
306.133
306.133
306.13
306.123
306.114
306.103
306.09
306.075
306.06
306.045
306.034
302.021
302.025
302.03
302.035
302.04
302.044
302.048
302.051
302.053
302.054
302.054
302.053
302.051
302.048
302.044
302.04
302.035
302.03
302.025
302.021
)
;

boundaryField
{
    hotSide
    {
        type            fixedGradient;
        gradient        nonuniform List<scalar> 
400
(
198.204
198.957
200.465
202.731
205.762
209.563
214.143
219.51
225.674
232.642
240.423
249.026
258.457
268.724
279.832
291.786
304.59
318.248
332.762
348.135
200.618
201.352
202.822
205.034
207.994
211.712
216.199
221.464
227.52
234.378
242.047
250.539
259.863
270.025
281.032
292.891
305.606
319.181
333.617
348.918
203.23
203.941
205.366
207.513
210.391
214.011
218.388
223.535
229.467
236.199
243.742
252.11
261.312
271.358
282.256
294.012
306.63
320.115
334.469
349.694
205.997
206.681
208.055
210.126
212.909
216.417
220.669
225.682
231.475
238.066
245.469
253.7
262.772
272.693
283.474
295.121
307.638
321.03
335.299
350.447
208.841
209.496
210.811
212.799
215.475
218.859
222.973
227.84
233.483
239.922
247.176
255.263
264.197
273.99
284.65
296.185
308.601
321.899
336.084
351.154
211.645
212.268
213.521
215.419
217.982
221.235
225.205
229.92
235.407
241.691
248.794
256.737
265.533
275.198
285.74
297.167
309.484
322.693
336.796
351.795
214.248
214.839
216.03
217.838
220.29
223.414
227.243
231.81
237.147
243.283
250.242
258.048
266.717
276.262
286.696
298.023
310.25
323.379
337.41
352.344
216.457
217.019
218.154
219.882
222.234
225.243
228.948
233.385
238.59
244.597
251.432
259.121
267.68
277.126
287.467
298.712
310.865
323.927
337.899
352.78
218.074
218.613
219.705
221.373
223.649
226.571
230.181
234.52
239.627
245.538
252.282
259.884
268.363
277.736
288.011
299.196
311.295
324.309
338.239
353.082
218.93
219.458
220.527
222.161
224.395
227.27
230.829
235.116
240.171
246.03
252.725
260.281
268.718
278.052
288.292
299.445
311.516
324.506
338.413
353.237
218.93
219.458
220.527
222.161
224.395
227.27
230.829
235.116
240.171
246.03
252.725
260.281
268.718
278.052
288.292
299.445
311.516
324.506
338.413
353.237
218.074
218.613
219.705
221.373
223.649
226.571
230.181
234.52
239.627
245.538
252.282
259.884
268.363
277.736
288.011
299.196
311.295
324.309
338.239
353.082
216.457
217.019
218.154
219.882
222.234
225.243
228.948
233.385
238.59
244.597
251.432
259.121
267.68
277.126
287.467
298.712
310.865
323.927
337.899
352.78
214.248
214.839
216.03
217.838
220.29
223.414
227.243
231.81
237.147
243.283
250.242
258.048
266.717
276.262
286.696
298.023
310.25
323.379
337.41
352.344
211.645
212.268
213.521
215.419
217.982
221.235
225.205
229.92
235.407
241.691
248.794
256.737
265.533
275.198
285.74
297.167
309.484
322.693
336.796
351.795
208.841
209.496
210.811
212.799
215.475
218.859
222.973
227.84
233.483
239.922
247.176
255.263
264.197
273.99
284.65
296.185
308.601
321.899
336.084
351.154
205.997
206.681
208.055
210.126
212.909
216.417
220.669
225.682
231.475
238.066
245.469
253.7
262.772
272.693
283.474
295.121
307.638
321.03
335.299
350.447
203.23
203.941
205.366
207.513
210.391
214.011
218.388
223.535
229.467
236.199
243.742
252.11
261.312
271.358
282.256
294.012
306.63
320.115
334.469
349.694
200.618
201.352
202.822
205.034
207.994
211.712
216.199
221.464
227.52
234.378
242.047
250.539
259.863
270.025
281.032
292.891
305.606
319.181
333.617
348.918
198.204
198.957
200.465
202.731
205.762
209.563
214.143
219.51
225.674
232.642
240.423
249.026
258.457
268.724
279.832
291.786
304.59
318.248
332.762
348.135
)
;
    }
    coldSide
    {
        type            mixed;
        refValue        uniform 300;
        refGradient     uniform 0;
        valueFraction   uniform 0.991591;
        source          uniform 0;
        value           nonuniform List<scalar> 
400
(
300.01
300.01
300.01
300.01
300.011
300.011
300.011
300.011
300.012
300.012
300.012
300.013
300.013
300.014
300.014
300.015
300.015
300.016
300.017
300.017
300.01
300.01
300.01
300.01
300.011
300.011
300.011
300.011
300.012
300.012
300.012
300.013
300.013
300.014
300.014
300.015
300.015
300.016
300.017