/*--------------------------------*- C++ -*----------------------------------*\
| =========                 |                                                 |
| \\      /  F ield         | OpenFOAM: The Open Source CFD Toolbox           |
|  \\    /   O peration     | Version:  2212                                  |
|   \\  /    A nd           | Website:  www.openfoam.com                      |
|    \\/     M anipulation  |                                                 |
\*---------------------------------------------------------------------------*/
FoamFile
{
    version     2.0;
    format      ascii;
    arch        "LSB;label=32;scalar=64";
    class       volScalarField;
    location    "0";
    object      T;
}
// * * * * * * * * * * * * * * * * * * * * * * * * * * * * * * * * * * * * * //

dimensions      [0 0 0 1 0 0 0];

internalField   nonuniform List<scalar> 
3200
(
326.476
326.806
327.233
327.836
328.226
328.465
328.843
328.873
328.826
328.79
329.04
329.047
328.917
328.673
328.41
328.162
327.831
327.692
326.986
326.521
323.397
323.638
323.929
324.539
324.897
325.094
325.452
325.434
325.402
325.414
325.711
325.646
325.549
325.342
325.101
324.9
324.593
324.474
323.899
323.442
320.152
320.227
320.457
320.997
321.371
321.524
321.85
321.876
321.815
321.807
322.106
321.995
321.928
321.801
321.499
321.403
321.131
321.063
320.621
320.188
316.745
316.668
316.879
317.353
317.665
317.826
318.035
318.181
318.065
318.088
318.232
318.236
318.15
318.017
317.745
317.694
317.491
317.441
317.124
316.758
313.165
313.045
313.218
313.622
313.824
314.041
314.139
314.293
314.18
314.206
314.255
314.303
314.27
314.12
313.917
313.835
313.723
313.698
313.473
313.169
309.464
309.35
309.502
309.807
309.944
310.06
310.158
310.294
310.21
310.206
310.226
310.273
310.301
310.14
309.968
309.932
309.879
309.861
309.729
309.472
305.714
305.608
305.713
305.903
306.009
306.076
306.145
306.201
306.154
306.144
306.138
306.188
306.194
306.088
306.007
305.978
305.965
305.95
305.866
305.691
301.924
301.888
301.927
302.003
302.036
302.044
302.07
302.082
302.055
302.081
302.081
302.079
302.077
302.012
302.027
302.006
302.014
301.988
301.958
301.926
327.319
327.691
328.227
328.513
329.006
329.325
329.775
329.905
330.003
329.929
329.95
329.979
329.776
329.647
329.622
328.936
328.429
328.317
327.834
327.276
324.066
324.342
324.807
325.114
325.504
325.83
326.225
326.302
326.415
326.347
326.405
326.428
326.297
326.162
326.086
325.563
325.087
324.992
324.586
324.08
320.628
320.798
321.186
321.504
321.858
322.148
322.439
322.539
322.645
322.588
322.605
322.707
322.597
322.465
322.369
321.948
321.54
321.492
321.101
320.665
317.108
317.126
317.454
317.767
318.058
318.322
318.543
318.659
318.751
318.676
318.701
318.778
318.685
318.627
318.488
318.197
317.837
317.8
317.504
317.105
313.407
313.39
313.667
313.941
314.164
314.387
314.553
314.684
314.746
314.674
314.677
314.715
314.639
314.653
314.484
314.31
314.024
313.989
313.765
313.437
309.607
309.626
309.83
310.04
310.189
310.315
310.468
310.552
310.66
310.567
310.528
310.589
310.49
310.566
310.362
310.286
310.094
310.073
309.889
309.655
305.784
305.799
305.932
306.041
306.151
306.208
306.318
306.369
306.421
306.379
306.368
306.422
306.288
306.386
306.248
306.207
306.125
306.076
305.962
305.844
301.947
301.941
301.983
302.018
302.058
302.105
302.122
302.135
302.167
302.153
302.123
302.177
302.111
302.142
302.108
302.089
302.06
302.03
302.004
301.96
328.612
328.765
329.349
329.754
330.089
330.594
330.99
331.117
331.144
331.377
331.065
331.257
331.087
330.969
330.876
330.263
329.548
329.269
328.789
328.335
325.181
325.239
325.845
326.114
326.418
326.95
327.29
327.429
327.46
327.666
327.363
327.53
327.396
327.315
327.189
326.675
326.051
325.814
325.391
325.013
321.527
321.621
322.114
322.314
322.602
323.132
323.425
323.487
323.509
323.68
323.475
323.625
323.528
323.436
323.261
322.856
322.358
322.179
321.735
321.516
317.776
317.877
318.216
318.405
318.657
319.134
319.39
319.384
319.423
319.569
319.385
319.546
319.422
319.41
319.189
318.871
318.538
318.385
317.963
317.834
313.898
314.01
314.237
314.429
314.602
315.007
315.23
315.2
315.221
315.352
315.148
315.33
315.241
315.243
315.018
314.822
314.529
314.481
314.062
314.068
309.941
310.075
310.197
310.373
310.508
310.765
310.938
310.921
310.93
311.073
310.854
310.997
310.962
310.944
310.779
310.667
310.46
310.436
310.113
310.139
305.985
306.057
306.112
306.219
306.325
306.471
306.604
306.577
306.605
306.672
306.534
306.613
306.638
306.585
306.472
306.437
306.309
306.311
306.111
306.101
302.005
302.041
302.038
302.088
302.117
302.17
302.235
302.234
302.234
302.226
302.182
302.232
302.236
302.229
302.176
302.155
302.106
302.124
302.059
302.053
329.495
330.011
330.543
331.199
331.395
331.821
332.257
332.452
332.424
332.66
332.542
332.412
332.533
332.12
332.043
331.641
330.937
330.432
329.909
329.531
325.979
326.347
326.847
327.414
327.562
327.963
328.387
328.548
328.509
328.773
328.59
328.573
328.626
328.331
328.198
327.869
327.224
326.785
326.326
326.035
322.247
322.521
322.976
323.419
323.606
323.936
324.318
324.465
324.42
324.61
324.471
324.527
324.524
324.326
324.164
323.877
323.293
322.936
322.584
322.356
318.353
318.553
318.917
319.312
319.522
319.793
320.114
320.195
320.196
320.355
320.2
320.302
320.244
320.142
320.016
319.718
319.304
318.972
318.664
318.548
314.365
314.509
314.782
315.152
315.259
315.483
315.801
315.817
315.869
315.97
315.793
315.932
315.876
315.807
315.707
315.455
315.172
314.956
314.687
314.599
310.318
310.403
310.623
310.904
310.966
311.119
311.346
311.323
311.397
311.506
311.362
311.443
311.423
311.381
311.327
311.089
310.925
310.816
310.58
310.521
306.201
306.246
306.395
306.575
306.621
306.71
306.808
306.823
306.871
306.948
306.862
306.882
306.867
306.86
306.826
306.681
306.623
306.544
306.338
306.373
302.068
302.078
302.157
302.201
302.221
302.255
302.279
302.28
302.306
302.329
302.29
302.316
302.314
302.294
302.281
302.228
302.221
302.202
302.115
302.133
330.51
331.058
331.862
332.338
332.965
333.212
333.645
334.089
333.942
333.992
333.88
333.962
333.78
333.532
333.089
332.652
332.221
331.797
331.21
330.829
326.788
327.234
327.987
328.446
328.984
329.212
329.59
329.931
329.892
329.854
329.771
329.941
329.756
329.522
329.132
328.774
328.353
328.02
327.473
327.189
322.899
323.26
323.907
324.324
324.764
325.046
325.404
325.614
325.666
325.523
325.476
325.687
325.521
325.348
324.973
324.727
324.263
324.003
323.558
323.354
318.886
319.188
319.697
320.071
320.435
320.715
320.995
321.127
321.229
321.048
321.007
321.226
321.109
320.949
320.679
320.426
320.04
319.84
319.464
319.339
314.776
314.995
315.422
315.707
315.997
316.253
316.409
316.455
316.629
316.492
316.446
316.63
316.502
316.446
316.235
315.993
315.722
315.553
315.245
315.133
310.612
310.775
311.062
311.267
311.462
311.71
311.774
311.823
311.931
311.879
311.78
311.95
311.821
311.828
311.637
311.48
311.297
311.164
310.934
310.861
306.364
306.493
306.675
306.773
306.916
307.111
307.094
307.108
307.18
307.17
307.087
307.221
307.093
307.126
307.015
306.893
306.79
306.749
306.593
306.538
302.14
302.181
302.224
302.27
302.343
302.411
302.373
302.384
302.414
302.401
302.383
302.437
302.367
302.386
302.348
302.326
302.263
302.275
302.188
302.176
331.65
332.416
332.971
333.528
334.118
334.647
334.884
335.199
335.276
335.55
335.166
335.244
335.14
335.12
334.495
334.065
333.693
333.021
332.464
332.103
327.831
328.498
328.985
329.458
329.952
330.485
330.66
330.919
331.037
331.26
330.948
330.983
330.938
330.897
330.302
329.966
329.628
329.045
328.602
328.292
323.827
324.38
324.826
325.231
325.611
326.129
326.279
326.445
326.574
326.761
326.492
326.555
326.515
326.468
325.939
325.634
325.361
324.892
324.557
324.23
319.692
320.164
320.531
320.803
321.144
321.603
321.695
321.825
321.925
322.07
321.88
321.981
321.894
321.847
321.384
321.143
320.946
320.557
320.299
320.016
315.437
315.807
316.105
316.309
316.559
316.887
316.953
317.081
317.145
317.296
317.155
317.234
317.155
317.063
316.737
316.575
316.435
316.136
315.903
315.684
311.093
311.352
311.578
311.742
311.879
312.127
312.184
312.265
312.273
312.436
312.342
312.352
312.268
312.214
312.041
311.897
311.84
311.624
311.447
311.256
306.697
306.862
306.926
307.084
307.17
307.3
307.343
307.397
307.38
307.464
307.46
307.406
307.342
307.361
307.253
307.148
307.14
306.99
306.887
306.801
302.256
302.295
302.337
302.388
302.413
302.435
302.472
302.494
302.499
302.498
302.508
302.471
302.464
302.469
302.446
302.385
302.403
302.342
302.3
302.294
332.883
333.42
334.084
334.805
335.28
335.871
336.268
336.383
336.671
336.838
336.638
336.639
336.277
336.119
335.873
335.205
334.979
334.288
333.726
333.097
328.898
329.329
329.936
330.578
331.022
331.537
331.905
331.958
332.208
332.42
332.174
332.244
331.874
331.748
331.503
330.964
330.76
330.14
329.67
329.144
324.696
325.056
325.596
326.158
326.553
326.978
327.336
327.345
327.575
327.762
327.552
327.591
327.317
327.162
326.907
326.517
326.327
325.779
325.398
324.959
320.372
320.631
321.11
321.591
321.919
322.26
322.569
322.57
322.782
322.923
322.742
322.794
322.534
322.43
322.268
321.886
321.747
321.278
320.961
320.618
315.901
316.138
316.548
316.932
317.186
317.439
317.652
317.699
317.817
317.925
317.817
317.872
317.64
317.584
317.482
317.171
317.03
316.657
316.403
316.135
311.437
311.609
311.933
312.167
312.349
312.518
312.648
312.726
312.799
312.865
312.758
312.825
312.641
312.608
312.541
312.382
312.223
311.97
311.723
311.593
306.9
307.047
307.174
307.327
307.428
307.513
307.6
307.658
307.711
307.763
307.699
307.735
307.613
307.559
307.561
307.47
307.381
307.226
307.067
306.956
302.323
302.38
302.416
302.462
302.498
302.521
302.551
302.556
302.591
302.604
302.596
302.604
302.559
302.529
302.529
302.511
302.472
302.435
302.379
302.306
333.998
334.55
335.365
336.039
336.646
337.053
337.63
337.744
338.011
337.989
337.975
337.869
337.701
337.498
336.984
336.441
336.336
335.51
334.911
334.138
329.854
330.323
331.026
331.648
332.188
332.553
333.019
333.179
333.404
333.347
333.38
333.316
333.134
332.92
332.466
332.078
331.964
331.285
330.688
330.084
325.562
325.953
326.54
327.066
327.546
327.85
328.261
328.337
328.655
328.547
328.601
328.539
328.373
328.209
327.749
327.502
327.328
326.809
326.263
325.803
321.078
321.41
321.909
322.316
322.75
322.991
323.356
323.393
323.709
323.558
323.637
323.587
323.46
323.29
322.906
322.707
322.539
322.154
321.699
321.348
316.466
316.761
317.155
317.443
317.807
318.006
318.323
318.317
318.552
318.432
318.536
318.498
318.402
318.234
317.973
317.79
317.635
317.388
317.029
316.739
311.779
312.011
312.33
312.491
312.792
312.934
313.147
313.156
313.322
313.263
313.323
313.316
313.237
313.099
312.917
312.791
312.655
312.521
312.216
311.98
307.1
307.229
307.439
307.518
307.696
307.793
307.913
307.922
308.016
307.988
308.014
308.053
307.985
307.915
307.776
307.73
307.626
307.538
307.345
307.192
302.393
302.429
302.499
302.529
302.593
302.622
302.661
302.647
302.701
302.691
302.688
302.691
302.683
302.671
302.604
302.602
302.547
302.525
302.467
302.422
334.97
335.751
336.569
337.482
337.878
338.372
338.906
339.145
339.048
339.162
339.332
339.032
338.825
338.838
338.305
337.832
337.325
336.875
335.989
335.376
330.689
331.346
332.106
332.872
333.249
333.691
334.158
334.39
334.26
334.384
334.594
334.359
334.085
334.154
333.67
333.247
332.834
332.474
331.676
331.121
326.241
326.769
327.454
327.984
328.445
328.792
329.216
329.421
329.321
329.422
329.593
329.436
329.199
329.234
328.818
328.487
328.159
327.834
327.139
326.638
321.672
322.083
322.583
323.01
323.483
323.763
324.113
324.339
324.174
324.34
324.41
324.309
324.155
324.116
323.761
323.553
323.331
322.973
322.42
322.013
316.98
317.278
317.678
317.99
318.417
318.62
318.883
319.077
318.907
319.096
319.139
319.021
318.952
318.893
318.596
318.497
318.319
317.946
317.605
317.237
312.173
312.419
312.718
312.896
313.263
313.414
313.572
313.697
313.61
313.708
313.737
313.64
313.59
313.574
313.341
313.303
313.166
312.87
312.713
312.419
307.349
307.477
307.701
307.774
307.988
308.117
308.171
308.237
308.244
308.237
308.261
308.218
308.178
308.186
308.018
308.036
307.936
307.759
307.688
307.514
302.456
302.514
302.607
302.608
302.68
302.738
302.744
302.761
302.758
302.76
302.776
302.753
302.755
302.764
302.673
302.685
302.653
302.591
302.595
302.517
336.117
336.978
337.773
338.519
339.202
339.445
339.956
340.262
340.252
340.378
340.458
340.377
340.242
340.07
339.64
339.076
338.421
337.891
337.28
336.548
331.711
332.424
333.113
333.851
334.385
334.605
335.095
335.372
335.363
335.52
335.534
335.494
335.344
335.231
334.792
334.376
333.775
333.282
332.815
332.233
327.102
327.696
328.293
328.928
329.4
329.565
330.003
330.252
330.254
330.412
330.406
330.386
330.229
330.122
329.738
329.428
328.922
328.465
328.111
327.659
322.389
322.809
323.337
323.832
324.283
324.363
324.739
324.917
324.935
325.131
325.085
325.109
324.914
324.837
324.524
324.304
323.914
323.565
323.183
322.877
317.482
317.814
318.296
318.608
319.026
319.084
319.35
319.484
319.508
319.71
319.631
319.67
319.482
319.469
319.16
319.037
318.766
318.487
318.168
317.929
312.524
312.82
313.168
313.33
313.682
313.721
313.871
314.029
314.02
314.185
314.059
314.114
313.994
313.993
313.752
313.703
313.478
313.281
313.06
312.833
307.508
307.738
307.963
308.034
308.246
308.257
308.333
308.481
308.48
308.53
308.466
308.473
308.435
308.411
308.31
308.281
308.113
307.995
307.889
307.704
302.525
302.606
302.71
302.693
302.784
302.76
302.772
302.844
302.856
302.856
302.853
302.866
302.812
302.835
302.81
302.781
302.723
302.685
302.672
302.596
337.236
337.991
338.803
339.355
340.008
340.464
340.996
341.093
341.416
341.638
341.626
341.644
341.25
341.23
340.671
340.047
339.536
338.972
338.13
337.632
332.67
333.288
334.078
334.485
335.149
335.487
335.972
336.055
336.361
336.575
336.557
336.622
336.206
336.215
335.726
335.207
334.718
334.258
333.508
333.104
327.933
328.415
329.144
329.503
330.074
330.309
330.749
330.806
331.128
331.265
331.287
331.353
330.939
330.992
330.581
330.109
329.71
329.325
328.685
328.341
323.004
323.413
324.066
324.349
324.791
324.956
325.299
325.396
325.714
325.804
325.819
325.875
325.487
325.608
325.289
324.86
324.59
324.227
323.654
323.384
317.982
318.322
318.859
319.083
319.401
319.5
319.707
319.878
320.124
320.235
320.184
320.257
319.952
320.063
319.851
319.462
319.307
319.013
318.5
318.328
312.864
313.174
313.51
313.7
313.942
314.006
314.099
314.294
314.441
314.517
314.462
314.523
314.323
314.413
314.25
313.983
313.882
313.677
313.267
313.171
307.733
307.914
308.109
308.252
308.388
308.468
308.485
308.612
308.71
308.77
308.694
308.751
308.652
308.687
308.576
308.412
308.339
308.216
307.993
307.919
302.593
302.66
302.714
302.776
302.803
302.834
302.842
302.891
302.944
302.955
302.919
302.945
302.894
302.919
302.882
302.838
302.795
302.77
302.671
302.658
338.327
338.972
339.926
340.477
341.029
341.518
342.089
342.25
342.591
342.943
342.934
342.729
342.4
342.248
341.774
341.288
340.529
339.781
339.249
338.639
333.622
334.213
335.071
335.537
336.006
336.437
336.951
337.078
337.343
337.701
337.741
337.525
337.241
337.129
336.728
336.283
335.577
334.969
334.5
333.965
328.723
329.255
329.957
330.398
330.747
331.156
331.602
331.682
331.92
332.238
332.284
332.117
331.854
331.758
331.415
331.07
330.405
329.963
329.492
329.096
323.623
324.098
324.694
325.061
325.301
325.731
326.044
326.103
326.345
326.615
326.625
326.554
326.358
326.183
325.925
325.681
325.082
324.729
324.323
324.067
318.485
318.864
319.312
319.605
319.771
320.189
320.381
320.434
320.617
320.812
320.813
320.807
320.655
320.496
320.312
320.156
319.647
319.379
318.984
318.9
313.274
313.532
313.873
314.056
314.145
314.536
314.643
314.672
314.83
314.921
314.896
314.959
314.846
314.752
314.571
314.505
314.078
313.92
313.622
313.582
308.02
308.124
308.369
308.461
308.483
308.748
308.81
308.85
308.939
308.988
308.977
308.993
308.935
308.935
308.809
308.778
308.492
308.402
308.215
308.183
302.703
302.751
302.801
302.85
302.831
302.913
302.947
302.961
303.02
303.014
303.02
303.012
302.999
303.01
302.962
302.945
302.86
302.837
302.748
302.746
339.175
339.861
340.651
341.278
341.978
342.673
343.054
343.3
343.785
343.922
343.94
343.741
343.411
343.081
342.815
342.252
341.578
340.661
339.98
339.41
334.349
334.975
335.631
336.223
336.815
337.463
337.808
338.021
338.448
338.529
338.6
338.373
338.135
337.796
337.593
337.098
336.541
335.71
335.182
334.654
329.312
329.89
330.451
330.989
331.43
332.035
332.359
332.552
332.864
332.949
333.012
332.808
332.551
332.299
332.115
331.706
331.228
330.564
330.102
329.668
324.129
324.637
325.114
325.588
325.914
326.404
326.691
326.898
327.116
327.203
327.231
327.093
326.85
326.643
326.533
326.176
325.745
325.241
324.843
324.502
318.847
319.28
319.655
320.018
320.27
320.679
320.895
321.068
321.234
321.313
321.307
321.228
321.021
320.876
320.787
320.537
320.173
319.792
319.423
319.196
313.516
313.822
314.098
314.372
314.548
314.857
315.02
315.127
315.211
315.271
315.316
315.243
315.067
314.991
314.913
314.777
314.486
314.227
313.895
313.773
308.155
308.32
308.481
308.656
308.747
308.968
309.051
309.108
309.164
309.208
309.232
309.194
309.071
309.051
308.957
308.929
308.747
308.573
308.401
308.307
302.733
302.79
302.848
302.91
302.935
303.023
303.057
303.053
303.069
303.091
303.1
303.098
303.031
303.047
303.003
303
302.937
302.873
302.824
302.799
339.806
340.723
341.563
342.203
343
343.542
343.988
344.544
344.866
344.667
344.963
344.717
344.409
344.034
343.876
343.098
342.632
341.597
340.81
340.276
334.902
335.738
336.44
337.028
337.708
338.203
338.613
339.059
339.394
339.232
339.501
339.219
338.996
338.665
338.576
337.841
337.443
336.558
335.823
335.412
329.775
330.567
331.121
331.648
332.229
332.627
333.057
333.369
333.673
333.556
333.754
333.492
333.299
333.059
333.003
332.342
331.971
331.246
330.639
330.289
324.539
325.192
325.64
326.133
326.568
326.881
327.285
327.531
327.764
327.678
327.837
327.608
327.458
327.234
327.233
326.687
326.325
325.785
325.236
325.031
319.213
319.708
320.051
320.491
320.777
321.034
321.345
321.534
321.73
321.664
321.783
321.57
321.476
321.292
321.341
320.886
320.586
320.175
319.736
319.603
313.801
314.108
314.357
314.718
314.92
315.092
315.336
315.445
315.577
315.536
315.661
315.44
315.438
315.331
315.315
314.982
314.773
314.473
314.15
314.072
308.316
308.479
308.635
308.873
308.96
309.048
309.226
309.298
309.4
309.369
309.446
309.266
309.305
309.284
309.227
308.985
308.883
308.726
308.541
308.457
302.807
302.848
302.891
302.971
302.995
303.032
303.099
303.12
303.144
303.156
303.192
303.1
303.14
303.106
303.113
303.009
302.992
302.921
302.86
302.828
340.651
341.286
342.387
343.099
343.788
344.38
344.894
345.235
345.52
345.56
345.514
345.638
345.139
344.91
344.637
343.814
343.367
342.745
341.924
340.952
335.585
336.221
337.155
337.778
338.419
338.906
339.427
339.657
339.918
339.96
339.957
340.04
339.643
339.448
339.219
338.454
338.085
337.534
336.806
335.979
330.356
330.904
331.752
332.293
332.866
333.232
333.714
333.862
334.085
334.117
334.163
334.206
333.925
333.767
333.538
332.823
332.49
332.029
331.486
330.77
325.051
325.469
326.151
326.62
327.113
327.409
327.798
327.985
328.064
328.133
328.175
328.197
328.044
327.841
327.678
327.09
326.769
326.421
325.996
325.383
319.604
319.923
320.454
320.809
321.231
321.436
321.752
321.932
321.919
321.992
322.064
322.069
321.963
321.768
321.674
321.209
320.926
320.689
320.37
319.856
314.074
314.304
314.661
314.938
315.184
315.35
315.617
315.72
315.736
315.817
315.84
315.859
315.763
315.575
315.554
315.225
315.014
314.867
314.603
314.242
308.483
308.629
308.832
309.023
309.125
309.241
309.392
309.464
309.469
309.537
309.55
309.562
309.503
309.397
309.382
309.177
309.058
308.95
308.808
308.607
302.839
302.895
302.943
303.033
303.047
303.113
303.15
303.184
303.157
303.226
303.209
303.219
303.21
303.155
303.142
303.091
303.032
303.019
302.967
302.903
341.229
342.045
342.924
343.863
344.577
345.189
345.486
345.926
346.119
346.503
346.26
346.303
346.099
345.682
345.271
344.307
343.88
343.249
342.648
341.565
336.127
336.793
337.664
338.409
339.085
339.645
339.875
340.308
340.466
340.788
340.584
340.619
340.508
340.079
339.773
338.895
338.536
338.001
337.493
336.488
330.822
331.406
332.187
332.757
333.425
333.892
334.026
334.478
334.542
334.819
334.661
334.722
334.652
334.285
334.021
333.284
332.934
332.494
332.065
331.199
325.344
325.859
326.548
326.947
327.503
327.911
328.014
328.459
328.423
328.682
328.592
328.652
328.586
328.272
328.067
327.517
327.131
326.773
326.48
325.737
319.805
320.276
320.802
321.078
321.48
321.842
321.916
322.265
322.21
322.445
322.411
322.405
322.399
322.1
321.966
321.568
321.182
320.983
320.728
320.141
314.195
314.561
314.897
315.113
315.411
315.693
315.669
315.951
315.958
316.103
316.075
316.072
316.062
315.844
315.734
315.463
315.171
315.065
314.89
314.444
308.549
308.787
308.979
309.104
309.259
309.455
309.427
309.529
309.626
309.722
309.696
309.669
309.672
309.561
309.473
309.317
309.136
309.071
308.941
308.709
302.879
302.955
303.007
303.066
303.09
303.18
303.176
303.183
303.24
303.269
303.254
303.253
303.243
303.209
303.209
303.135
303.078
303.034
303
302.918
341.782
342.6
343.346
344.355
345.135
345.902
346.212
346.683
346.905
347.006
346.961
346.987
346.842
346.508
345.811
345.072
344.73
343.917
343.15
342.114
336.642
337.308
337.985
338.881
339.639
340.254
340.535
340.918
341.048
341.24
341.175
341.202
341.054
340.795
340.233
339.566
339.245
338.579
337.913
336.998
331.291
331.848
332.429
333.19
333.865
334.409
334.592
334.889
335.047
335.229
335.178
335.195
335.082
334.852
334.395
333.804
333.544
332.977
332.398
331.659
325.751
326.264
326.734
327.333
327.9
328.371
328.546
328.756
328.852
329.057
328.982
329.02
328.931
328.706
328.325
327.887
327.65
327.217
326.721
326.111
320.14
320.562
320.896
321.337
321.818
322.206
322.32
322.531
322.546
322.705
322.705
322.728
322.657
322.44
322.128
321.854
321.646
321.333
320.941
320.442
314.439
314.779
315
315.28
315.626
315.962
316.027
316.17
316.144
316.31
316.309
316.335
316.286
316.109
315.887
315.691
315.59
315.312
315.036
314.656
308.672
308.95
309.055
309.187
309.401
309.629
309.673
309.747
309.747
309.825
309.84
309.833
309.807
309.735
309.556
309.467
309.398
309.238
309.056
308.833
302.898
303.007
303.053
303.075
303.158
303.236
303.247
303.261
303.263
303.296
303.326
303.304
303.286
303.271
303.205
303.178
303.149
303.101
303.02
302.955
342.475
343.143
343.919
344.843
345.709
346.309
346.888
347.231
347.372
347.818
347.596
347.655
347.217
347.118
346.66
345.803
345.291
344.445
343.522
342.7
337.226
337.828
338.496
339.289
340.101
340.604
341.105
341.435
341.521
341.937
341.703
341.786
341.425
341.338
340.914
340.22
339.743
339.006
338.256
337.489
331.779
332.301
332.799
333.548
334.29
334.691
335.121
335.409
335.42
335.819
335.609
335.683
335.37
335.329
334.957
334.397
333.938
333.359
332.755
332.041
326.183
326.627
326.999
327.639
328.313
328.604
328.953
329.22
329.188
329.504
329.379
329.394
329.148
329.13
328.832
328.393
327.962
327.545
327.036
326.419
320.426
320.808
321.068
321.581
322.141
322.37
322.624
322.859
322.852
323.067
322.978
323.001
322.829
322.779
322.561
322.203
321.897
321.564
321.162
320.677
314.615
314.901
315.079
315.478
315.915
316.048
316.254
316.357
316.394
316.554
316.485
316.532
316.41
316.383
316.205
315.902
315.69
315.475
315.169
314.827
308.777
308.968
309.086
309.363
309.589
309.692
309.767
309.836
309.897
309.975
309.927
309.983
309.896
309.839
309.75
309.596
309.43
309.338
309.151
308.908
302.962
303.008
303.057
303.127
303.222
303.263
303.27
303.284
303.339
303.356
303.326
303.338
303.31
303.298
303.27
303.233
303.15
303.14
303.076
302.98
343.056
343.565
344.41
345.314
346.041
347.018
347.509
347.682
347.82
348.142
347.93
348.032
347.666
347.516
346.954
346.316
345.707
344.876
343.737
342.847
337.75
338.165
338.935
339.701
340.359
341.196
341.598
341.836
341.916
342.217
342.008
342.112
341.794
341.67
341.161
340.634
340.121
339.414
338.406
337.597
332.226
332.579
333.272
333.933
334.479
335.174
335.51
335.725
335.777
336.103
335.844
335.928
335.695
335.59
335.191
334.738
334.28
333.697
332.893
332.138
326.526
326.85
327.454
327.991
328.458
328.989
329.275
329.451
329.516
329.784
329.586
329.593
329.424
329.363
329.028
328.65
328.301
327.755
327.153
326.54
320.753
321.027
321.495
321.906
322.276
322.72
322.895
323.037
323.075
323.323
323.171
323.137
323.018
322.979
322.714
322.406
322.167
321.663
321.25
320.798
314.866
315.104
315.456
315.703
315.969
316.328
316.389
316.496
316.608
316.699
316.632
316.589
316.51
316.49
316.266
316.08
315.916
315.498
315.241
314.929
308.936
309.087
309.282
309.449
309.638
309.887
309.837
309.971
310.05
310.044
310.016
310.015
309.927
309.951
309.793
309.69
309.589
309.336
309.2
309.009
303.006
303.058
303.114
303.171
303.253
303.333
303.297
303.363
303.374
303.374
303.365
303.373
303.314
303.341
303.29
303.233
303.222
303.147
303.093
303.038
343.144
343.602
344.646
345.473
346.382
346.931
347.729
347.88
348.408
348.598
348.335
348.389
348.24
347.719
347.326
346.594
345.823
345.102
344.161
343.216
337.811
338.243
339.089
339.784
340.633
341.09
341.83
341.96
342.424
342.646
342.371
342.43
342.309
341.841
341.542
340.856
340.238
339.587
338.742
337.93
332.301
332.646
333.34
333.941
334.681
335.084
335.685
335.845
336.215
336.473
336.162
336.25
336.16
335.744
335.5
334.922
334.396
333.821
333.135
332.416
326.623
326.894
327.495
327.917
328.553
328.943
329.385
329.547
329.836
330.093
329.798
329.816
329.82
329.516
329.224
328.789
328.34
327.863
327.365
326.742
320.825
321.037
321.535
321.775
322.324
322.661
322.949
323.131
323.32
323.586
323.323
323.303
323.341
323.116
322.801
322.522
322.179
321.783
321.414
320.996
314.919
315.107
315.491
315.606
316.011
316.274
316.431
316.593
316.688
316.929
316.751
316.716
316.725
316.594
316.378
316.157
315.924
315.619
315.357
315.113
308.967
309.089
309.308
309.403
309.64
309.813
309.893
309.987
310.036
310.201
310.135
310.047
310.099
309.992
309.854
309.721
309.595
309.399
309.231
309.12
303.015
303.054
303.107
303.174
303.23
303.304
303.307
303.354
303.38
303.422
303.418
303.378
303.412
303.351
303.287
303.24
303.234
303.138
303.083
303.066
)
;

boundaryField
{
    hotSide
    {
        type            fixedGradient;
        gradient        nonuniform List<scalar> 
400
(
232.051
244.234
256.384
268.446
280.365
292.086
303.553
314.71
325.5
335.87
345.767
355.139
363.937
372.115
379.63
386.443
392.518
397.824
402.333
406.024
236.388
248.916
261.414
273.827
286.098
298.17
309.986
321.486
332.616
343.317
353.535
363.218
372.314
380.776
388.56
395.625
401.933
407.452
412.155
416.017
240.123
252.963
265.778
278.509
291.101
303.493
315.626
327.441
338.88
349.884
360.398
370.366
379.737
388.461
396.493
403.791
410.316
416.034
420.917
424.941
243.26
256.378
269.474
282.491
295.368
308.046
320.464
332.562
344.279
355.556
366.336
376.562
386.181
395.143
403.401
410.91
417.633
423.534
428.583
432.755
245.808
259.167
272.509
285.773
298.901
311.829
324.497
336.842
348.804
360.322
371.336
381.79
391.629
400.802
409.26
416.959
423.858
429.923
435.121
439.429
247.778
261.342
274.891
288.365
301.704
314.845
327.726
340.283
352.454
364.177
375.392
386.042
396.071
405.426
414.057
421.92
428.974
435.182
440.512
444.938
249.186
262.914
276.631
290.277
303.788
317.103
330.157
342.887
355.23
367.123
378.504
389.317
399.502
409.008
417.785
425.786
432.969
439.297
444.739
449.267
250.047
263.9
277.745
291.52
305.164
318.612
331.8
344.664
357.14
369.164
380.675
391.614
401.923
411.549
420.44
428.55
435.837
442.263
447.795
452.405
250.377
264.314
278.246
292.11
305.844
319.384
332.665
345.622
358.191
370.308
381.911
392.94
403.338
413.049
422.024
430.214
437.577
444.075
449.675
454.349
250.191
264.171
278.148
292.059
305.841
319.431
332.762
345.771
358.393
370.563
382.219
393.301
403.752
413.515
422.541
430.781
438.192
444.737
450.381
455.098
249.503
263.484
277.463
291.379
305.167
318.764
332.104
345.123
357.756
369.939
381.609
392.707
403.173
412.954
421.998
430.257
437.688
444.253
449.918
454.656
248.322
262.264
276.204
290.081
303.832
317.394
330.701
343.688
356.291
368.446
380.091
391.166
401.612
411.375
420.404
428.651
436.073
442.631
448.293
453.03
246.658
260.518
274.377
288.174
301.846
315.33
328.561
341.475
354.008
366.095
377.676
388.689
399.079
408.789
417.77
425.974
433.357
439.883
445.517
450.232
244.515
258.253
271.989
285.665
299.216
312.581
325.695
338.494
350.915
362.895
374.372
385.288
395.584
405.208
414.108
422.238
429.555
436.021
441.604
446.275
241.897
255.473
269.047
282.559
295.949
309.153
322.109
334.753
347.023
358.857
370.193
380.974
391.142
400.645
409.432
417.458
424.681
431.062
436.57
441.178
238.805
252.18
265.551
278.861
292.049
305.053
317.812
330.262
342.343
353.992
365.15
375.76
385.766
395.116
403.76
411.653
418.754
425.026
430.438
434.961
235.24
248.375
261.507
274.576
287.523
300.289
312.812
325.03
336.884
348.313
359.258
369.664
379.475
388.64
397.112
404.845
411.799
417.938
423.231
427.652
231.201
244.062
256.916
269.708
282.378
294.868
307.119
319.07
330.662
341.836
352.535
362.703
372.289
381.24
389.511
397.058
403.841
409.825
414.98
419.281
226.69
239.242
251.784
264.263
276.622
288.802
300.746
312.395
323.692
334.579
345
354.902
364.233
372.943
380.988
388.324
394.914
400.723
405.722
409.887
221.711
233.92
246.119
258.252
270.266
282.104
293.71
305.026
315.997
326.566
336.681
346.288
355.337
363.781
371.576
378.68
385.057
390.673
395.5
399.514
)
;
    }
    coldSide
    {
        type            mixed;
        refValue        uniform 300;
        refGradient     uniform 0;
        valueFraction   uniform 0.991591;
        source          uniform 0;
        value           nonuniform List<scalar> 
400
(
300.016
300.016
300.017
300.017
300.018
300.019
300.02
300.02
300.021
300.021
300.022
300.023
300.023
300.024
300.024
300.024
300.024
300.025
300.025
300.025
300.016
300.016
300.017
300.017
300.018
300.019
300.02
300.02
300.021
300.022
300.022
300.023
300.023
300.024
300.024
300.025
300.025
300.025
300.026
300.026
300.016