/*--------------------------------*- C++ -*----------------------------------*\
| =========                 |                                                 |
| \\      /  F ield         | OpenFOAM: The Open Source CFD Toolbox           |
|  \\    /   O peration     | Version:  2212                                  |
|   \\  /    A nd           | Website:  www.openfoam.com                      |
|    \\/     M anipulation  |                                                 |
\*---------------------------------------------------------------------------*/
FoamFile
{
    version     2.0;
    format      ascii;
    arch        "LSB;label=32;scalar=64";
    class       volScalarField;
    location    "0";
    object      Ttrue;
}
// * * * * * * * * * * * * * * * * * * * * * * * * * * * * * * * * * * * * * //

dimensions      [0 0 0 1 0 0 0];

internalField   nonuniform List<scalar> 
3200
(
349.206
349.893
350.77
351.725
352.709
353.675
354.566
355.319
355.867
356.157
356.157
355.867
355.319
354.566
353.675
352.709
351.725
350.77
349.893
349.206
342.666
343.247
344.004
344.83
345.682
346.517
347.288
347.938
348.412
348.662
348.662
348.412
347.938
347.288
346.517
345.682
344.83
344.004
343.247
342.666
336.119
336.601
337.238
337.936
338.656
339.362
340.012
340.561
340.961
341.171
341.171
340.961
340.561
340.012
339.362
338.656
337.936
337.238
336.601
336.119
329.565
329.953
330.472
331.043
331.631
332.208
332.739
333.188
333.514
333.686
333.686
333.514
333.188
332.739
332.208
331.631
331.043
330.472
329.953
329.565
323.006
323.304
323.707
324.15
324.607
325.056
325.469
325.817
326.07
326.203
326.203
326.07
325.817
325.469
325.056
324.607
324.15
323.707
323.304
323.006
316.443
316.654
316.942
317.258
317.585
317.905
318.199
318.448
318.628
318.724
318.724
318.628
318.448
318.199
317.905
317.585
317.258
316.942
316.654
316.443
309.878
310.004
310.176
310.366
310.562
310.755
310.932
311.081
311.189
311.246
311.246
311.189
311.081
310.932
310.755
310.562
310.366
310.176
310.004
309.878
303.311
303.354
303.411
303.475
303.541
303.605
303.664
303.714
303.751
303.77
303.77
303.751
303.714
303.664
303.605
303.541
303.475
303.411
303.354
303.311
349.369
350.05
350.919
351.866
352.84
353.795
354.676
355.419
355.96
356.246
356.246
355.96
355.419
354.676
353.795
352.84
351.866
350.919
350.05
349.369
342.807
343.384
344.133
344.952
345.795
346.621
347.383
348.025
348.492
348.739
348.739
348.492
348.025
347.383
346.621
345.795
344.952
344.133
343.384
342.807
336.237
336.716
337.347
338.039
338.752
339.45
340.093
340.635
341.029
341.237
341.237
341.029
340.635
340.093
339.45
338.752
338.039
337.347
336.716
336.237
329.662
330.047
330.562
331.127
331.709
332.28
332.805
333.248
333.57
333.74
333.74
333.57
333.248
332.805
332.28
331.709
331.127
330.562
330.047
329.662
323.081
323.377
323.776
324.216
324.668
325.112
325.52
325.864
326.114
326.245
326.245
326.114
325.864
325.52
325.112
324.668
324.216
323.776
323.377
323.081
316.497
316.707
316.991
317.305
317.628
317.945
318.236
318.481
318.66
318.754
318.754
318.66
318.481
318.236
317.945
317.628
317.305
316.991
316.707
316.497
309.911
310.036
310.206
310.395
310.589
310.779
310.954
311.101
311.208
311.264
311.264
311.208
311.101
310.954
310.779
310.589
310.395
310.206
310.036
309.911
303.322
303.364
303.421
303.484
303.549
303.613
303.672
303.721
303.757
303.776
303.776
303.757
303.721
303.672
303.613
303.549
303.484
303.421
303.364
303.322
349.695
350.365
351.22
352.149
353.103
354.037
354.898
355.623
356.15
356.429
356.429
356.15
355.623
354.898
354.037
353.103
352.149
351.22
350.365
349.695
343.089
343.656
344.393
345.197
346.023
346.832
347.576
348.202
348.658
348.898
348.898
348.658
348.202
347.576
346.832
346.023
345.197
344.393
343.656
343.089
336.476
336.946
337.567
338.246
338.945
339.628
340.256
340.785
341.169
341.372
341.372
341.169
340.785
340.256
339.628
338.945
338.246
337.567
336.946
336.476
329.857
330.236
330.742
331.297
331.867
332.426
332.939
333.371
333.685
333.85
333.85
333.685
333.371
332.939
332.426
331.867
331.297
330.742
330.236
329.857
323.233
323.524
323.916
324.348
324.791
325.225
325.624
325.959
326.203
326.331
326.331
326.203
325.959
325.624
325.225
324.791
324.348
323.916
323.524
323.233
316.605
316.811
317.091
317.399
317.716
318.026
318.311
318.55
318.724
318.815
318.815
318.724
318.55
318.311
318.026
317.716
317.399
317.091
316.811
316.605
309.975
310.098
310.266
310.451
310.641
310.827
310.998
311.142
311.246
311.301
311.301
311.246
311.142
310.998
310.827
310.641
310.451
310.266
310.098
309.975
303.344
303.385
303.441
303.503
303.567
303.629
303.687
303.735
303.77
303.788
303.788
303.77
303.735
303.687
303.629
303.567
303.503
303.441
303.385
303.344
350.186
350.84
351.673
352.577
353.503
354.408
355.239
355.938
356.445
356.713
356.713
356.445
355.938
355.239
354.408
353.503
352.577
351.673
350.84
350.186
343.513
344.068
344.786
345.568
346.369
347.152
347.871
348.475
348.914
349.145
349.145
348.914
348.475
347.871
347.152
346.369
345.568
344.786
344.068
343.513
336.834
337.294
337.899
338.56
339.238
339.899
340.506
341.016
341.386
341.581
341.581
341.386
341.016
340.506
339.899
339.238
338.56
337.899
337.294
336.834
330.15
330.52
331.013
331.553
332.107
332.648
333.144
333.56
333.863
334.022
334.022
333.863
333.56
333.144
332.648
332.107
331.553
331.013
330.52
330.15
323.461
323.745
324.128
324.547
324.978
325.398
325.783
326.107
326.342
326.465
326.465
326.342
326.107
325.783
325.398
324.978
324.547
324.128
323.745
323.461
316.768
316.969
317.242
317.542
317.849
318.149
318.424
318.655
318.823
318.911
318.911
318.823
318.655
318.424
318.149
317.849
317.542
317.242
316.969
316.768
310.073
310.193
310.357
310.537
310.721
310.901
311.067
311.205
311.306
311.359
311.359
311.306
311.205
311.067
310.901
310.721
310.537
310.357
310.193
310.073
303.377
303.417
303.472
303.532
303.594
303.654
303.71
303.756
303.79
303.807
303.807
303.79
303.756
303.71
303.654
303.594
303.532
303.472
303.417
303.377
350.843
351.478
352.283
353.154
354.045
354.912
355.706
356.373
356.855
357.11
357.11
356.855
356.373
355.706
354.912
354.045
353.154
352.283
351.478
350.843
344.082
344.62
345.314
346.068
346.839
347.589
348.276
348.853
349.27
349.49
349.49
349.27
348.853
348.276
347.589
346.839
346.068
345.314
344.62
344.082
337.315
337.761
338.346
338.983
339.635
340.269
340.849
341.336
341.688
341.873
341.873
341.688
341.336
340.849
340.269
339.635
338.983
338.346
337.761
337.315
330.543
330.901
331.379
331.899
332.432
332.95
333.425
333.822
334.11
334.261
334.261
334.11
333.822
333.425
332.95
332.432
331.899
331.379
330.901
330.543
323.766
324.041
324.411
324.816
325.23
325.633
326.002
326.311
326.534
326.652
326.652
326.534
326.311
326.002
325.633
325.23
324.816
324.411
324.041
323.766
316.986
317.181
317.445
317.734
318.03
318.317
318.581
318.801
318.96
319.044
319.044
318.96
318.801
318.581
318.317
318.03
317.734
317.445
317.181
316.986
310.204
310.32
310.479
310.652
310.83
311.003
311.161
311.293
311.388
311.439
311.439
311.388
311.293
311.161
311.003
310.83
310.652
310.479
310.32
310.204
303.421
303.46
303.513
303.571
303.63
303.688
303.741
303.785
303.817
303.834
303.834
303.817
303.785
303.741
303.688
303.63
303.571
303.513
303.46
303.421
351.67
352.281
353.054
353.887
354.735
355.559
356.31
356.939
357.393
357.632
357.632
357.393
356.939
356.31
355.559
354.735
353.887
353.054
352.281
351.67
344.798
345.315
345.981
346.703
347.437
348.15
348.8
349.344
349.736
349.943
349.943
349.736
349.344
348.8
348.15
347.437
346.703
345.981
345.315
344.798
337.919
338.348
338.91
339.52
340.141
340.743
341.292
341.752
342.083
342.258
342.258
342.083
341.752
341.292
340.743
340.141
339.52
338.91
338.348
337.919
331.037
331.382
331.84
332.338
332.846
333.338
333.787
334.162
334.433
334.576
334.576
334.433
334.162
333.787
333.338
332.846
332.338
331.84
331.382
331.037
324.15
324.415
324.77
325.157
325.552
325.935
326.284
326.575
326.786
326.896
326.896
326.786
326.575
326.284
325.935
325.552
325.157
324.77
324.415
324.15
317.26
317.448
317.701
317.978
318.26
318.533
318.782
318.99
319.141
319.219
319.219
319.141
318.99
318.782
318.533
318.26
317.978
317.701
317.448
317.26
310.369
310.481
310.633
310.799
310.968
311.132
311.282
311.407
311.497
311.544
311.544
311.497
311.407
311.282
311.132
310.968
310.799
310.633
310.481
310.369
303.476
303.513
303.564
303.62
303.677
303.732
303.782
303.824
303.854
303.87
303.87
303.854
303.824
303.782
303.732
303.677
303.62
303.564
303.513
303.476
352.669
353.253
353.989
354.78
355.582
356.357
357.062
357.649
358.072
358.295
358.295
358.072
357.649
357.062
356.357
355.582
354.78
353.989
353.253
352.669
345.662
346.156
346.792
347.476
348.17
348.841
349.451
349.959
350.325
350.518
350.518
350.325
349.959
349.451
348.841
348.17
347.476
346.792
346.156
345.662
338.65
339.06
339.595
340.174
340.761
341.328
341.843
342.273
342.582
342.744
342.744
342.582
342.273
341.843
341.328
340.761
340.174
339.595
339.06
338.65
331.633
331.964
332.4
332.873
333.353
333.817
334.238
334.589
334.842
334.974
334.974
334.842
334.589
334.238
333.817
333.353
332.873
332.4
331.964
331.633
324.614
324.867
325.206
325.573
325.947
326.307
326.635
326.907
327.104
327.207
327.207
327.104
326.907
326.635
326.307
325.947
325.573
325.206
324.867
324.614
317.592
317.771
318.012
318.275
318.542
318.799
319.033
319.227
319.368
319.441
319.441
319.368
319.227
319.033
318.799
318.542
318.275
318.012
317.771
317.592
310.568
310.675
310.819
310.977
311.137
311.292
311.432
311.549
311.633
311.677
311.677
311.633
311.549
311.432
311.292
311.137
310.977
310.819
310.675
310.568
303.542
303.578
303.627
303.68
303.733
303.785
303.832
303.871
303.899
303.914
303.914
303.899
303.871
303.832
303.785
303.733
303.68
303.627
303.578
303.542
353.843
354.398
355.095
355.84
356.592
357.316
357.971
358.515
358.906
359.111
359.111
358.906
358.515
357.971
357.316
356.592
355.84
355.095
354.398
353.843
346.678
347.147
347.749
348.394
349.046
349.672
350.239
350.71
351.048
351.226
351.226
351.048
350.71
350.239
349.672
349.046
348.394
347.749
347.147
346.678
339.508
339.898
340.405
340.95
341.501
342.031
342.51
342.908
343.194
343.344
343.344
343.194
342.908
342.51
342.031
341.501
340.95
340.405
339.898
339.508
332.335
332.649
333.062
333.508
333.958
334.392
334.784
335.109
335.342
335.465
335.465
335.342
335.109
334.784
334.392
333.958
333.508
333.062
332.649
332.335
325.159
325.4
325.72
326.067
326.417
326.754
327.059
327.312
327.493
327.588
327.588
327.493
327.312
327.059
326.754
326.417
326.067
325.72
325.4
325.159
317.981
318.151
318.38
318.628
318.878
319.118
319.336
319.517
319.646
319.714
319.714
319.646
319.517
319.336
319.118
318.878
318.628
318.38
318.151
317.981
310.801
310.903
311.04
311.189
311.339
311.484
311.614
311.723
311.8
311.841
311.841
311.8
311.723
311.614
311.484
311.339
311.189
311.04
310.903
310.801
303.621
303.655
303.701
303.751
303.801
303.849
303.893
303.929
303.956
303.969
303.969
303.956
303.929
303.893
303.849
303.801
303.751
303.701
303.655
303.621
355.196
355.72
356.376
357.073
357.774
358.445
359.05
359.55
359.909
360.096
360.096
359.909
359.55
359.05
358.445
357.774
357.073
356.376
355.72
355.196
347.848
348.292
348.858
349.462
350.069
350.65
351.174
351.607
351.917
352.079
352.079
351.917
351.607
351.174
350.65
350.069
349.462
348.858
348.292
347.848
340.498
340.865
341.342
341.853
342.367
342.858
343.301
343.667
343.929
344.066
344.066
343.929
343.667
343.301
342.858
342.367
341.853
341.342
340.865
340.498
333.144
333.44
333.829
334.246
334.666
335.068
335.43
335.729
335.944
336.056
336.056
335.944
335.729
335.43
335.068
334.666
334.246
333.829
333.44
333.144
325.788
326.015
326.317
326.641
326.968
327.281
327.562
327.795
327.961
328.048
328.048
327.961
327.795
327.562
327.281
326.968
326.641
326.317
326.015
325.788
318.43
318.591
318.806
319.038
319.271
319.494
319.695
319.862
319.98
320.043
320.043
319.98
319.862
319.695
319.494
319.271
319.038
318.806
318.591
318.43
311.071
311.167
311.296
311.435
311.575
311.709
311.83
311.93
312.001
312.039
312.039
312.001
311.93
311.83
311.709
311.575
311.435
311.296
311.167
311.071
303.711
303.743
303.786
303.833
303.88
303.925
303.966
303.999
304.023
304.035
304.035
304.023
303.999
303.966
303.925
303.88
303.833
303.786
303.743
303.711
356.73
357.223
357.836
358.486
359.135
359.753
360.308
360.764
361.091
361.261
361.261
361.091
360.764
360.308
359.753
359.135
358.486
357.836
357.223
356.73
349.176
349.593
350.123
350.685
351.247
351.783
352.263
352.659
352.941
353.089
353.089
352.941
352.659
352.263
351.783
351.247
350.685
350.123
349.593
349.176
341.62
341.965
342.412
342.887
343.363
343.816
344.222
344.557
344.795
344.92
344.92
344.795
344.557
344.222
343.816
343.363
342.887
342.412
341.965
341.62
334.061
334.339
334.703
335.092
335.481
335.852
336.184
336.457
336.653
336.755
336.755
336.653
336.457
336.184
335.852
335.481
335.092
334.703
334.339
334.061
326.501
326.714
326.997
327.299
327.602
327.89
328.148
328.361
328.513
328.592
328.592
328.513
328.361
328.148
327.89
327.602
327.299
326.997
326.714
326.501
318.939
319.09
319.291
319.507
319.724
319.93
320.114
320.266
320.374
320.431
320.431
320.374
320.266
320.114
319.93
319.724
319.507
319.291
319.09
318.939
311.377
311.467
311.588
311.717
311.847
311.971
312.082
312.173
312.238
312.272
312.272
312.238
312.173
312.082
311.971
311.847
311.717
311.588
311.467
311.377
303.814
303.844
303.884
303.928
303.971
304.013
304.05
304.08
304.102
304.114
304.114
304.102
304.08
304.05
304.013
303.971
303.928
303.884
303.844
303.814
358.449
358.91
359.481
360.083
360.681
361.247
361.753
362.168
362.464
362.617
362.617
362.464
362.168
361.753
361.247
360.681
360.083
359.481
358.91
358.449
350.664
351.054
351.547
352.068
352.586
353.077
353.515
353.874
354.13
354.264
354.264
354.13
353.874
353.515
353.077
352.586
352.068
351.547
351.054
350.664
342.877
343.201
343.616
344.057
344.495
344.91
345.281
345.585
345.801
345.914
345.914
345.801
345.585
345.281
344.91
344.495
344.057
343.616
343.201
342.877
335.089
335.349
335.688
336.048
336.407
336.747
337.05
337.298
337.475
337.567
337.567
337.475
337.298
337.05
336.747
336.407
336.048
335.688
335.349
335.089
327.3
327.499
327.762
328.042
328.321
328.586
328.821
329.015
329.152
329.224
329.224
329.152
329.015
328.821
328.586
328.321
328.042
327.762
327.499
327.3
319.51
319.651
319.838
320.039
320.238
320.427
320.595
320.733
320.832
320.883
320.883
320.832
320.733
320.595
320.427
320.238
320.039
319.838
319.651
319.51
311.719
311.804
311.916
312.036
312.156
312.269
312.37
312.453
312.512
312.543
312.543
312.512
312.453
312.37
312.269
312.156
312.036
311.916
311.804
311.719
303.928
303.957
303.994
304.035
304.075
304.113
304.147
304.174
304.194
304.204
304.204
304.194
304.174
304.147
304.113
304.075
304.035
303.994
303.957
303.928
360.356
360.785
361.314
361.869
362.418
362.934
363.394
363.769
364.035
364.173
364.173
364.035
363.769
363.394
362.934
362.418
361.869
361.314
360.785
360.356
352.314
352.677
353.134
353.615
354.09
354.538
354.936
355.261
355.491
355.611
355.611
355.491
355.261
354.936
354.538
354.09
353.615
353.134
352.677
352.314
344.272
344.573
344.958
345.364
345.767
346.146
346.482
346.757
346.952
347.053
347.053
346.952
346.757
346.482
346.146
345.767
345.364
344.958
344.573
344.272
336.229
336.471
336.785
337.118
337.447
337.757
338.032
338.257
338.417
338.499
338.499
338.417
338.257
338.032
337.757
337.447
337.118
336.785
336.471
336.229
328.186
328.372
328.616
328.874
329.13
329.371
329.585
329.76
329.884
329.949
329.949
329.884
329.76
329.585
329.371
329.13
328.874
328.616
328.372
328.186
320.143
320.274
320.448
320.633
320.815
320.988
321.141
321.266
321.354
321.401
321.401
321.354
321.266
321.141
320.988
320.815
320.633
320.448
320.274
320.143
312.099
312.178
312.282
312.393
312.503
312.606
312.698
312.773
312.826
312.854
312.854
312.826
312.773
312.698
312.606
312.503
312.393
312.282
312.178
312.099
304.056
304.082
304.117
304.154
304.191
304.226
304.256
304.282
304.299
304.309
304.309
304.299
304.282
304.256
304.226
304.191
304.154
304.117
304.082
304.056
362.452
362.85
363.339
363.849
364.35
364.819
365.235
365.572
365.811
365.935
365.935
365.811
365.572
365.235
364.819
364.35
363.849
363.339
362.85
362.452
354.129
354.465
354.887
355.329
355.763
356.17
356.53
356.822
357.029
357.137
357.137
357.029
356.822
356.53
356.17
355.763
355.329
354.887
354.465
354.129
345.805
346.084
346.44
346.813
347.181
347.525
347.83
348.077
348.253
348.344
348.344
348.253
348.077
347.83
347.525
347.181
346.813
346.44
346.084
345.805
337.482
337.707
337.997
338.302
338.603
338.885
339.134
339.337
339.48
339.555
339.555
339.48
339.337
339.134
338.885
338.603
338.302
337.997
337.707
337.482
329.16
329.333
329.558
329.795
330.029
330.248
330.442
330.6
330.711
330.769
330.769
330.711
330.6
330.442
330.248
330.029
329.795
329.558
329.333
329.16
320.838
320.96
321.121
321.291
321.458
321.614
321.753
321.866
321.945
321.987
321.987
321.945
321.866
321.753
321.614
321.458
321.291
321.121
320.96
320.838
312.517
312.59
312.686
312.788
312.888
312.982
313.066
313.133
313.181
313.206
313.206
313.181
313.133
313.066
312.982
312.888
312.788
312.686
312.59
312.517
304.196
304.22
304.252
304.287
304.32
304.352
304.38
304.402
304.418
304.427
304.427
304.418
304.402
304.38
304.352
304.32
304.287
304.252
304.22
304.196
364.738
365.106
365.557
366.023
366.479
366.905
367.279
367.582
367.796
367.907
367.907
367.796
367.582
367.279
366.905
366.479
366.023
365.557
365.106
364.738
356.107
356.418
356.807
357.211
357.606
357.975
358.3
358.562
358.748
358.844
358.844
358.748
358.562
358.3
357.975
357.606
357.211
356.807
356.418
356.107
347.477
347.735
348.063
348.405
348.739
349.051
349.326
349.549
349.705
349.787
349.787
349.705
349.549
349.326
349.051
348.739
348.405
348.063
347.735
347.477
338.849
339.057
339.324
339.603
339.877
340.133
340.358
340.54
340.668
340.734
340.734
340.668
340.54
340.358
340.133
339.877
339.603
339.324
339.057
338.849
330.222
330.382
330.589
330.806
331.02
331.218
331.393
331.535
331.635
331.686
331.686
331.635
331.535
331.393
331.218
331.02
330.806
330.589
330.382
330.222
321.597
321.71
321.857
322.013
322.165
322.307
322.432
322.533
322.605
322.642
322.642
322.605
322.533
322.432
322.307
322.165
322.013
321.857
321.71
321.597
312.972
313.04
313.128
313.222
313.313
313.399
313.474
313.534
313.577
313.599
313.599
313.577
313.534
313.474
313.399
313.313
313.222
313.128
313.04
312.972
304.348
304.371
304.401
304.432
304.463
304.491
304.516
304.537
304.551
304.559
304.559
304.551
304.537
304.516
304.491
304.463
304.432
304.401
304.371
304.348
367.212
367.551
367.965
368.391
368.805
369.19
369.526
369.798
369.989
370.088
370.088
369.989
369.798
369.526
369.19
368.805
368.391
367.965
367.551
367.212
358.247
358.534
358.891
359.26
359.619
359.953
360.244
360.48
360.646
360.731
360.731
360.646
360.48
360.244
359.953
359.619
359.26
358.891
358.534
358.247
349.285
349.523
349.824
350.136
350.44
350.723
350.97
351.169
351.309
351.382
351.382
351.309
351.169
350.97
350.723
350.44
350.136
349.824
349.523
349.285
340.327
340.518
340.763
341.019
341.268
341.499
341.701
341.864
341.979
342.038
342.038
341.979
341.864
341.701
341.499
341.268
341.019
340.763
340.518
340.327
331.371
331.518
331.708
331.907
332.1
332.28
332.437
332.564
332.654
332.7
332.7
332.654
332.564
332.437
332.28
332.1
331.907
331.708
331.518
331.371
322.417
322.521
322.656
322.798
322.937
323.065
323.178
323.269
323.332
323.365
323.365
323.332
323.269
323.178
323.065
322.937
322.798
322.656
322.521
322.417
313.465
313.527
313.608
313.693
313.776
313.854
313.921
313.976
314.014
314.034
314.034
314.014
313.976
313.921
313.854
313.776
313.693
313.608
313.527
313.465
304.513
304.534
304.561
304.59
304.618
304.644
304.666
304.685
304.697
304.704
304.704
304.697
304.685
304.666
304.644
304.618
304.59
304.561
304.534
304.513
369.863
370.176
370.554
370.943
371.319
371.665
371.968
372.211
372.382
372.47
372.47
372.382
372.211
371.968
371.665
371.319
370.943
370.554
370.176
369.863
360.539
360.803
361.13
361.467
361.792
362.093
362.356
362.566
362.714
362.791
362.791
362.714
362.566
362.356
362.093
361.792
361.467
361.13
360.803
360.539
351.22
351.439
351.715
352
352.276
352.53
352.752
352.931
353.056
353.121
353.121
353.056
352.931
352.752
352.53
352.276
352
351.715
351.439
351.22
341.907
342.083
342.308
342.541
342.767
342.975
343.157
343.303
343.406
343.459
343.459
343.406
343.303
343.157
342.975
342.767
342.541
342.308
342.083
341.907
332.598
332.733
332.908
333.089
333.265
333.427
333.569
333.682
333.762
333.803
333.803
333.762
333.682
333.569
333.427
333.265
333.089
332.908
332.733
332.598
323.293
323.389
323.513
323.643
323.768
323.884
323.985
324.067
324.124
324.153
324.153
324.124
324.067
323.985
323.884
323.768
323.643
323.513
323.389
323.293
313.991
314.048
314.122
314.2
314.275
314.345
314.406
314.455
314.489
314.507
314.507
314.489
314.455
314.406
314.345
314.275
314.2
314.122
314.048
313.991
304.69
304.709
304.734
304.76
304.785
304.808
304.829
304.845
304.857
304.863
304.863
304.857
304.845
304.829
304.808
304.785
304.76
304.734
304.709
304.69
372.664
372.951
373.298
373.652
373.992
374.305
374.577
374.795
374.947
375.025
375.025
374.947
374.795
374.577
374.305
373.992
373.652
373.298
372.951
372.664
362.956
363.199
363.498
363.805
364.1
364.372
364.607
364.796
364.928
364.996
364.996
364.928
364.796
364.607
364.372
364.1
363.805
363.498
363.199
362.956
353.258
353.459
353.711
353.971
354.221
354.451
354.651
354.81
354.922
354.98
354.98
354.922
354.81
354.651
354.451
354.221
353.971
353.711
353.459
353.258
343.568
343.73
343.936
344.149
344.354
344.542
344.705
344.836
344.928
344.975
344.975
344.928
344.836
344.705
344.542
344.354
344.149
343.936
343.73
343.568
333.887
334.012
334.171
334.336
334.496
334.642
334.77
334.872
334.943
334.98
334.98
334.943
334.872
334.77
334.642
334.496
334.336
334.171
334.012
333.887
324.212
324.3
324.414
324.532
324.646
324.751
324.842
324.915
324.966
324.992
324.992
324.966
324.915
324.842
324.751
324.646
324.532
324.414
324.3
324.212
314.542
314.594
314.663
314.734
314.802
314.865
314.92
314.963
314.994
315.01
315.01
314.994
314.963
314.92
314.865
314.802
314.734
314.663
314.594
314.542
304.874
304.892
304.915
304.938
304.961
304.983
305.001
305.016
305.026
305.031
305.031
305.026
305.016
305.001
304.983
304.961
304.938
304.915
304.892
304.874
375.542
375.807
376.124
376.447
376.756
377.039
377.284
377.479
377.615
377.685
377.685
377.615
377.479
377.284
377.039
376.756
376.447
376.124
375.807
375.542
365.428
365.652
365.926
366.206
366.475
366.72
366.932
367.102
367.22
367.281
367.281
367.22
367.102
366.932
366.72
366.475
366.206
365.926
365.652
365.428
355.333
355.518
355.75
355.987
356.214
356.422
356.602
356.746
356.846
356.898
356.898
356.846
356.746
356.602
356.422
356.214
355.987
355.75
355.518
355.333
345.255
345.404
345.593
345.787
345.973
346.144
346.291
346.409
346.491
346.533
346.533
346.491
346.409
346.291
346.144
345.973
345.787
345.593
345.404
345.255
335.192
335.306
335.453
335.604
335.749
335.882
335.997
336.088
336.152
336.185
336.185
336.152
336.088
335.997
335.882
335.749
335.604
335.453
335.306
335.192
325.14
325.221
325.326
325.434
325.538
325.633
325.715
325.78
325.826
325.849
325.849
325.826
325.78
325.715
325.633
325.538
325.434
325.326
325.221
325.14
315.098
315.146
315.209
315.274
315.336
315.393
315.442
315.482
315.509
315.523
315.523
315.509
315.482
315.442
315.393
315.336
315.274
315.209
315.146
315.098
305.06
305.076
305.098
305.119
305.14
305.159
305.176
305.189
305.198
305.203
305.203
305.198
305.189
305.176
305.159
305.14
305.119
305.098
305.076
305.06
378.314
378.558
378.851
379.147
379.43
379.688
379.91
380.087
380.21
380.273
380.273
380.21
380.087
379.91
379.688
379.43
379.147
378.851
378.558
378.314
367.78
367.986
368.24
368.497
368.743
368.967
369.16
369.314
369.421
369.476
369.476
369.421
369.314
369.16
368.967
368.743
368.497
368.24
367.986
367.78
357.286
357.457
357.671
357.889
358.098
358.288
358.452
358.583
358.673
358.72
358.72
358.673
358.583
358.452
358.288
358.098
357.889
357.671
357.457
357.286
346.827
346.965
347.14
347.319
347.49
347.646
347.78
347.887
347.962
348
348
347.962
347.887
347.78
347.646
347.49
347.319
347.14
346.965
346.827
336.399
336.505
336.641
336.78
336.913
337.035
337.14
337.223
337.281
337.311
337.311
337.281
337.223
337.14
337.035
336.913
336.78
336.641
336.505
336.399
325.994
326.069
326.166
326.266
326.361
326.448
326.523
326.583
326.625
326.646
326.646
326.625
326.583
326.523
326.448
326.361
326.266
326.166
326.069
325.994
315.607
315.652
315.71
315.77
315.827
315.88
315.925
315.961
315.986
315.998
315.998
315.986
315.961
315.925
315.88
315.827
315.77
315.71
315.652
315.607
305.231
305.246
305.265
305.285
305.304
305.322
305.337
305.349
305.357
305.362
305.362
305.357
305.349
305.337
305.322
305.304
305.285
305.265
305.246
305.231
380.489
380.719
380.994
381.272
381.537
381.778
381.984
382.148
382.262
382.321
382.321
382.262
382.148
381.984
381.778
381.537
381.272
380.994
380.719
380.489
369.556
369.751
369.989
370.232
370.463
370.673
370.853
370.996
371.095
371.147
371.147
371.095
370.996
370.853
370.673
370.463
370.232
369.989
369.751
369.556
358.715
358.877
359.079
359.285
359.482
359.66
359.814
359.935
360.02
360.064
360.064
360.02
359.935
359.814
359.66
359.482
359.285
359.079
358.877
358.715
347.95
348.081
348.246
348.415
348.577
348.723
348.849
348.949
349.019
349.055
349.055
349.019
348.949
348.849
348.723
348.577
348.415
348.246
348.081
347.95
337.244
337.345
337.474
337.606
337.732
337.846
337.944
338.023
338.077
338.105
338.105
338.077
338.023
337.944
337.846
337.732
337.606
337.474
337.345
337.244
326.584
326.656
326.748
326.842
326.932
327.014
327.085
327.141
327.18
327.2
327.2
327.18
327.141
327.085
327.014
326.932
326.842
326.748
326.656
326.584
315.956
315.999
316.054
316.111
316.165
316.214
316.257
316.29
316.314
316.326
316.326
316.314
316.29
316.257
316.214
316.165
316.111
316.054
315.999
315.956
305.347
305.361
305.379
305.398
305.417
305.433
305.447
305.459
305.467
305.471
305.471
305.467
305.459
305.447
305.433
305.417
305.398
305.379
305.361
305.347
)
;

boundaryField
{
    hotSide
    {
        type            fixedGradient;
        gradient        nonuniform List<scalar> 
400
(
522.485
524.251
527.789
533.114
540.247
549.213
560.041
572.762
587.411
604.019
622.619
643.242
665.913
690.659
717.5
746.456
777.542
810.771
846.152
883.694
531.52
533.214
536.611
541.732
548.603
557.258
567.735
580.076
594.323
610.518
628.701
648.908
671.175
695.528
721.995
750.595
781.347
814.262
849.352
886.624
541.297
542.905
546.136
551.014
557.575
565.864
575.931
587.829
601.613
617.335
635.044
654.786
676.6
700.52
726.576
754.79
785.18
817.761
852.543
889.531
551.655
553.164
556.2
560.796
567
574.869
584.469
595.866
609.129
624.324
641.51
660.741
682.064
705.519
731.136
758.941
788.953
821.187
855.65
892.348
562.304
563.701
566.519
570.8
576.606
584.01
593.095
603.944
616.644
631.272
647.9
666.592
687.401
710.372
735.538
762.926
792.556
824.44
858.586
894.998
572.801
574.079
576.663
580.608
585.992
592.906
601.45
611.731
623.848
637.895
653.957
672.107
692.403
714.894
739.618
766.6
795.861
827.41
861.254
897.395
582.544
583.702
586.053
589.665
594.631
601.062
609.079
618.806
630.361
643.853
659.378
677.015
696.832
718.879
743.195
769.806
798.731
829.978
863.552
899.451
590.813
591.863
594.005
597.318
601.909
607.91
615.46
624.7
635.763
648.772
663.833
681.032
700.44
722.111
746.084
772.385
801.031
832.029
865.38
901.081
596.864
597.832
599.813
602.897
607.205
612.88
620.076
628.95
639.646
652.295
667.012
683.888
702.997
724.394
748.118
774.196
802.641
833.461
866.653
902.214
600.071
600.994
602.888
605.847
610
615.498
622.504
631.18
641.679
654.136
668.67
685.374
704.324
725.576
749.17
775.13
803.47
834.197
867.307
902.795
600.071
600.994
602.888
605.847
610
615.498
622.504
631.18
641.679
654.136
668.67
685.374
704.324
725.576
749.17
775.13
803.47
834.197
867.307
902.795
596.864
597.832
599.813
602.897
607.205
612.88
620.076
628.95
639.646
652.295
667.012
683.888
702.997
724.394
748.118
774.196
802.641
833.461
866.653
902.214
590.813
591.863
594.005
597.318
601.909
607.91
615.46
624.7
635.763
648.772
663.833
681.032
700.44
722.111
746.084
772.385
801.031
832.029
865.38
901.081
582.544
583.702
586.053
589.665
594.631
601.062
609.079
618.806
630.361
643.853
659.378
677.015
696.832
718.879
743.195
769.806
798.731
829.978
863.552
899.451
572.801
574.079
576.663
580.608
585.992
592.906
601.45
611.731
623.848
637.895
653.957
672.107
692.403
714.894
739.618
766.6
795.861
827.41
861.254
897.395
562.304
563.701
566.519
570.8
576.606
584.01
593.095
603.944
616.644
631.272
647.9
666.592
687.401
710.372
735.538
762.926
792.556
824.44
858.586
894.998
551.655
553.164
556.2
560.796
567
574.869
584.469
595.866
609.129
624.324
641.51
660.741
682.064
705.519
731.136
758.941
788.953
821.187
855.65
892.348
541.297
542.905
546.136
551.014
557.575
565.864
575.931
587.829
601.613
617.335
635.044
654.786
676.6
700.52
726.576
754.79
785.18
817.761
852.543
889.531
531.52
533.214
536.611
541.732
548.603
557.258
567.735
580.076
594.323
610.518
628.701
648.908
671.175
695.528
721.995
750.595
781.347
814.262
849.352
886.624
522.485
524.251
527.789
533.114
540.247
549.213
560.041
572.762
587.411
604.019
622.619
643.242
665.913
690.659
717.5
746.456
777.542
810.771
846.152
883.694
)
;
    }
    coldSide
    {
        type            mixed;
        refValue        uniform 300;
        refGradient     uniform 0;
        valueFraction   uniform 0.991591;
        source          uniform 0;
        value           nonuniform List<scalar> 
400
(
300.028
300.028
300.028
300.028
300.029
300.029
300.03
300.03
300.031
300.032
300.033
300.034
300.035
300.037
300.038
300.039
300.041
300.043
300.044
300.045
300.028
300.028
300.028
300.029
300.029
300.03
300.03
300.031
300.031
300.032
300.033
300.034
300.035
300.037
300.038
300.04
300.041
300.043
300.044
300.045
300.029
300.029
300.029
300.029
300.03
300.03
300.03