/*--------------------------------*- C++ -*----------------------------------*\
| =========                 |                                                 |
| \\      /  F ield         | OpenFOAM: The Open Source CFD Toolbox           |
|  \\    /   O peration     | Version:  2212                                  |
|   \\  /    A nd           | Website:  www.openfoam.com                      |
|    \\/     M anipulation  |                                                 |
\*---------------------------------------------------------------------------*/
FoamFile
{
    version     2.0;
    format      ascii;
    arch        "LSB;label=32;scalar=64";
    class       volScalarField;
    location    "./ITHACAoutput/true/14.4";
    object      error;
}
// * * * * * * * * * * * * * * * * * * * * * * * * * * * * * * * * * * * * * //

dimensions      [0 0 0 1 0 0 0];

internalField   nonuniform List<scalar> 
3200
(
0.0339149
1.47478
2.66182
3.52057
3.96544
4.2158
4.42111
4.32758
4.3348
4.29236
4.26508
4.21688
4.28429
4.22871
4.22413
4.0481
3.69104
2.93394
1.84054
0.556863
-0.0090946
1.15553
2.34538
3.1132
3.5348
3.79197
3.83355
3.7815
3.79797
3.78402
3.81628
3.74079
3.71479
3.69208
3.7154
3.61616
3.30391
2.58902
1.67837
0.533343
0.0180795
1.0712
1.91494
2.60953
2.94074
3.15304
3.24621
3.14978
3.18107
3.22505
3.21964
3.17243
3.20976
3.21505
3.13501
2.97567
2.769
2.19914
1.44152
0.549432
0.111299
0.855692
1.60006
2.05875
2.44166
2.56597
2.64636
2.60134
2.65222
2.63752
2.56826
2.60997
2.61723
2.62337
2.60676
2.50624
2.26732
1.87582
1.20931
0.508443
0.0692746
0.731322
1.22916
1.58699
1.91215
1.99424
2.02836
2.08244
2.1065
2.0216
2.05875
2.01439
1.98507
1.97411
2.00754
1.97777
1.78194
1.43143
0.904619
0.477984
0.0571422
0.435789
0.895082
1.15073
1.33941
1.47955
1.53023
1.51791
1.50669
1.45813
1.42713
1.46594
1.43291
1.52691
1.45433
1.38029
1.24838
1.02455
0.738159
0.375714
0.010424
0.205264
0.518432
0.627417
0.80034
0.823687
0.855397
0.832223
0.983759
0.846487
0.942764
0.843298
0.890507
0.874836
0.850347
0.80458
0.752007
0.648666
0.440469
0.0872701
0.0476234
0.131018
0.184793
0.330919
0.298093
0.290351
0.247601
0.306285
0.282543
0.284569
0.297738
0.368283
0.356301
0.273331
0.260155
0.324243
0.276317
0.184201
0.115131
0.0487535
0.0157133
1.46491
2.728
3.43667
3.9462
4.14453
4.19195
4.23448
4.11967
4.09251
3.97473
4.04994
3.95968
4.04262
4.12831
3.96979
3.58416
2.92676
1.82458
0.547744
0.110625
1.1583
2.23586
3.05082
3.55486
3.6673
3.6988
3.68332
3.63022
3.69112
3.53206
3.51754
3.49856
3.55339
3.53916
3.51478
3.23245
2.62291
1.68037
0.565242
0.159058
1.00633
1.94645
2.55659
2.8993
3.12276
3.10557
3.14373
3.02113
3.03719
2.99
3.09539
3.04739
3.02446
3.01371
2.93019
2.66122
2.25937
1.41999
0.558453
0.0414887
0.895229
1.53558
2.11751
2.40914
2.62279
2.66845
2.54082
2.52054
2.56535
2.56593
2.45613
2.48368
2.53024
2.50483
2.38906
2.29864
1.80536
1.23722
0.505853
0.0675104
0.713437
1.26091
1.52635
1.84451
1.96845
2.06354
1.98241
2.02974
1.92181
1.98385
1.94904
1.96864
1.98691
1.9463
2.00692
1.79247
1.45538
1.01435
0.416095
0.0225899
0.468553
0.903681
1.11411
1.34101
1.36783
1.41497
1.4219
1.44424
1.34045
1.29852
1.35994
1.39755
1.3518
1.35337
1.35619
1.35811
1.07649
0.78099
0.38498
0.0143948
0.258637
0.516138
0.62747
0.812712
0.866765
0.890125
0.910399
0.919706
0.807573
0.841775
0.856124
0.859983
0.858848
0.830646
0.822762
0.791654
0.577037
0.409931
0.22138
0.0817301
0.0529935
0.160253
0.281318
0.245225
0.361734
0.267495
0.341747
0.245483
0.237797
0.284334
0.298759
0.303897
0.289547
0.29999
0.256703
0.257089
0.136694
0.127983
0.10886
-0.00914064
1.39608
2.53086
3.43241
3.75127
3.99932
4.08954
4.01118
3.90491
3.71724
3.74067
3.65015
3.7097
3.78969
3.91739
3.78123
3.44063
2.84644
1.80689
0.506943
0.0237166
1.17326
2.22347
2.86747
3.38956
3.46288
3.44699
3.47737
3.3766
3.29067
3.3172
3.24408
3.25559
3.29392
3.29835
3.33204
3.06174
2.48941
1.53621
0.569233
0.124516
1.05607
1.89598
2.4838
2.79948
2.93461
2.96414
2.97534
2.96161
2.86022
2.77116
2.84755
2.76107
2.9094
2.91554
2.79814
2.57474
2.04755
1.39558
0.571296
0.0967703
0.835112
1.61523
2.03065
2.29352
2.43575
2.47098
2.48488
2.37297
2.24891
2.34357
2.25889
2.30033
2.33582
2.42385
2.34679
2.15082
1.76276
1.0777
0.472208
0.116401
0.674914
1.17446
1.62217
1.77932
1.87357
1.91926
1.91524
1.91357
1.78139
1.84048
1.81108
1.84398
1.9928
1.90618
1.80722
1.72759
1.32831
0.920918
0.37685
0.127031
0.491962
0.881934
1.07482
1.30375
1.38321
1.367
1.35964
1.30256
1.28884
1.27716
1.26377
1.34233
1.39582
1.34414
1.33323
1.1992
1.00254
0.737031
0.311594
0.0267369
0.364213
0.475972
0.632959
0.739505
0.768336
0.803413
0.768812
0.778711
0.840278
0.762271
0.710627
0.783021
0.849568
0.728008
0.751563
0.775779
0.642629
0.365011
0.169096
-0.000665575
0.124207
0.156612
0.191756
0.294503
0.344185
0.26973
0.239703
0.339482
0.3161
0.306908
0.280273
0.247906
0.243013
0.226499
0.315763
0.263568
0.233725
0.0654142
0.0333136
-0.118649
1.23435
2.37941
3.1568
3.69606
3.84199
3.7468
3.60832
3.51303
3.43791
3.32125
3.22384
3.40788
3.47943
3.55287
3.4859
3.31028
2.73005
1.65979
0.385698
-0.0223869
1.09562
2.11781
2.81125
3.21134
3.24494
3.25812
3.24509
3.14698
2.99034
2.92688
3.00302
2.99519
3.10067
3.1232
3.0626
2.85543
2.32414
1.42542
0.380867
-0.0324849
0.989765
1.72943
2.27803
2.73373
2.81143
2.83213
2.77907
2.71321
2.54429
2.55172
2.52866
2.5833
2.64308
2.62399
2.6715
2.48486
2.01897
1.27696
0.444597
0.0285631
0.721198
1.41974
1.90601
2.16269
2.32554
2.3452
2.29087
2.24023
2.11009
2.10591
2.10791
2.1668
2.16556
2.29786
2.13916
2.04632
1.68626
1.02037
0.475637
0.0577371
0.582807
1.10983
1.5212
1.72688
1.79262
1.82607
1.7339
1.79558
1.66822
1.59262
1.63708
1.67449
1.69545
1.78044
1.75115
1.64172
1.24753
0.852769
0.339106
0.127937
0.477128
0.880601
1.04322
1.30048
1.32223
1.35406
1.32059
1.25975
1.1685
1.19916
1.23232
1.19158
1.19539
1.26289
1.17835
1.22458
0.902796
0.681708
0.274227
-0.0507155
0.243801
0.424278
0.668607
0.771202
0.803451
0.763613
0.843646
0.731363
0.733772
0.736905
0.666684
0.693376
0.813111
0.792585
0.814845
0.755843
0.614519
0.406798
0.230303
0.0865946
0.04841
0.221525
0.219581
0.218166
0.26981
0.260363
0.283729
0.278945
0.254481
0.267392
0.256901
0.172226
0.235429
0.272809
0.228954
0.212836
0.222174
0.186622
-0.022453
-0.21866
1.03247
2.21431
3.01272
3.36397
3.49423
3.48749
3.32555
3.16752
2.98829
2.87767
2.87649
2.95992
3.17075
3.2932
3.30664
2.98309
2.43881
1.38423
0.28966
-0.16806
0.912213
1.98222
2.56115
2.98502
3.07966
3.05832
2.93874
2.82718
2.75344
2.54251
2.53866
2.66396
2.77583
2.94032
2.82117
2.67731
2.19831
1.37877
0.389957
-0.029307
0.85412
1.69932
2.21154
2.56847
2.60663
2.62366
2.56031
2.37621
2.30027
2.26666
2.25167
2.30914
2.43317
2.5132
2.3701
2.31671
1.90386
1.08322
0.372138
-0.031153
0.653329
1.34191
1.77291
2.05288
2.18258
2.19497
2.12134
1.99322
1.84191
1.83393
1.86903
1.98601
1.95869
2.03621
2.08328
1.96969
1.5539
1.03436
0.307961
0.0189165
0.549949
1.02202
1.44625
1.5953
1.61813
1.68903
1.68407
1.58942
1.42254
1.50427
1.45584
1.44785
1.56155
1.63014
1.60054
1.53108
1.25723
0.78169
0.348395
0.00210254
0.372051
0.687863
1.04043
1.17837
1.15717
1.24855
1.25744
1.07605
1.11771
0.963585
1.06056
1.08245
1.12999
1.18962
1.19936
1.12277
0.884337
0.563949
0.16927
0.0249359
0.246598
0.511621
0.604456
0.69995
0.822777
0.803348
0.701257
0.652482
0.601183
0.651812
0.638884
0.70173
0.681852
0.725914
0.685312
0.729099
0.51731
0.305273
0.121728
0.0176481
0.0944196
0.210631
0.181286
0.314998
0.215238
0.210462
0.269486
0.239551
0.228005
0.182775
0.256994
0.287886
0.232318
0.132391
0.237006
0.26978
0.183565
0.139385
0.102129
-0.350669
0.862378
1.95242
2.73105
3.09931
3.22868
3.21283
3.10923
2.83617
2.62839
2.49308
2.47769
2.57266
2.82794
2.99561
3.02168
2.71417
2.15576
1.19058
0.138865
-0.268425
0.78971
1.84853
2.42514
2.70141
2.89912
2.81811
2.7616
2.51163
2.41508
2.38607
2.25571
2.45
2.51652
2.6444
2.69787
2.4461
1.90669
1.13944
0.181162
-0.224322
0.664459
1.53413
2.0786
2.4219
2.51688
2.40325
2.327
2.18735
2.02634
1.97485
2.02175
2.10955
2.14186
2.27059
2.34122
2.09865
1.7288
1.00143
0.287735
-0.00536007
0.504711
1.22673
1.69125
1.93368
2.07936
2.01184
1.90926
1.81103
1.74772
1.66141
1.59061
1.77714
1.88178
1.90991
1.92317
1.76693
1.42001
0.860977
0.312801
-0.106945
0.459622
0.908791
1.32484
1.56459
1.66559
1.6198
1.50751
1.45959
1.42209
1.31061
1.32314
1.34563
1.43766
1.62684
1.46895
1.45106
1.18974
0.640426
0.206479
0.0113261
0.351687
0.776308
1.03704
1.08131
1.16352
1.09621
1.11223
0.971653
1.01775
0.921048
0.878636
0.960443
1.00336
1.07589
1.07363
1.04668
0.811144
0.534508
0.2451
-0.0573372
0.166186
0.429182
0.619989
0.638978
0.659054
0.627683
0.646003
0.629894
0.641714
0.545069
0.544479
0.605666
0.63229
0.653342
0.629118
0.603114
0.539083
0.375481
0.194758
-0.0487626
0.0762403
0.14457
0.246009
0.184757
0.23616
0.238966
0.305457
0.154823
0.228071
0.259813
0.182499
0.166895
0.214035
0.258555
0.188616
0.224451
0.194925
0.113221
0.0585474
-0.51502
0.672526
1.78616
2.54028
3.00293
3.04468
2.98998
2.7471
2.5516
2.29038
2.11924
2.10134
2.31891
2.46534
2.68235
2.67759
2.40785
1.99188
1.00619
-0.13798
-0.446708
0.555015
1.61692
2.24559
2.52391
2.72495
2.67229
2.50604
2.19572
2.08692
1.9473
1.97172
2.01656
2.34543
2.39148
2.46164
2.16134
1.81227
1.01932
0.104643
-0.27293
0.625198
1.32122
1.85403
2.21165
2.30013
2.26783
2.10916
1.92386
1.85382
1.75823
1.70995
1.8089
1.94223
2.00095
2.05261
1.9204
1.51537
0.843853
0.129663
-0.187362
0.387757
1.10609
1.48978
1.82097
1.89222
1.88032
1.70344
1.69311
1.47892
1.44769
1.46235
1.58641
1.70145
1.73865
1.74811
1.57018
1.31449
0.692359
0.236889
-0.186059
0.42355
0.835943
1.22644
1.42568
1.44333
1.47734
1.41553
1.3501
1.27794
1.1602
1.15446
1.21717
1.27985
1.35173
1.35541
1.25807
1.01448
0.639579
0.181298
-0.0831449
0.283988
0.603855
0.859373
1.03472
1.09791
1.01065
1.06251
0.884929
0.946485
0.826216
0.873932
0.843163
0.997231
0.989519
0.991683
0.864228
0.807955
0.397003
0.116099
-0.0409025
0.112433
0.327738
0.570693
0.578533
0.609287
0.65488
0.692474
0.636077
0.519171
0.559559
0.45766
0.514622
0.603389
0.585928
0.641854
0.549001
0.504483
0.274459
0.060192
-0.0255481
-0.0503935
0.100009
0.202875
0.203911
0.266111
0.252629
0.199801
0.167723
0.177538
0.134373
0.267091
0.154652
0.184171
0.177188
0.263285
0.103853
0.132929
0.0930677
0.0411539
-0.674078
0.5097
1.54793
2.31029
2.7536
2.85551
2.80841
2.52623
2.31984
2.03532
1.94236
1.92995
2.07448
2.30795
2.48719
2.44272
2.21383
1.75659
0.853538
-0.320887
-0.511064
0.485942
1.42289
2.05505
2.41703
2.50981
2.48713
2.3737
2.10239
1.81331
1.76446
1.7782
1.87225
2.12333
2.29367
2.21909
2.07945
1.58229
0.821256
-0.109431
-0.26142
0.384406
1.26024
1.70043
2.05093
2.15755
2.0673
1.97824
1.86805
1.7423
1.48939
1.53331
1.67975
1.79954
1.91303
1.90182
1.81305
1.40257
0.773695
0.100363
-0.204584
0.417494
1.01989
1.44601
1.70821
1.79035
1.82678
1.6568
1.51074
1.45292
1.26739
1.28576
1.34645
1.44756
1.54665
1.68117
1.55682
1.10211
0.683462
0.137553
-0.150415
0.330584
0.767457
1.13773
1.37832
1.43099
1.31182
1.35348
1.25769
1.16104
1.01591
1.08503
1.10281
1.23768
1.28608
1.25263
1.2137
0.882152
0.559182
0.105134
-0.107952
0.254447
0.613329
0.774317
0.984142
0.986882
0.985404
1.02415
0.88057
0.796124
0.724316
0.732867
0.847882
0.972225
0.86811
0.94546
0.938483
0.62035
0.386202
0.110518
-0.0345315
0.184998
0.366446
0.422939
0.533113
0.548632
0.554184
0.522657
0.552437
0.50784
0.459984
0.453803
0.513165
0.522217
0.584616
0.564847
0.52958
0.419443
0.286007
0.0995908
-0.011583
0.0206099
0.0565635
0.145332
0.288975
0.253801
0.218954
0.102041
0.204169
0.136059
0.141819
0.126114
0.173627
0.142317
0.167631
0.229638
0.20796
0.183406
0.105251
0.0356471
-0.722767
0.409708
1.46522
2.27135
2.58061
2.67649
2.65139
2.53327
2.19416
1.8735
1.8131
1.72414
1.89375
2.21586
2.34636
2.32934
2.13147
1.57306
0.785037
-0.219474
-0.556498
0.345453
1.28244
1.94135
2.30139
2.43319
2.39222
2.2246
2.02112
1.75779
1.69146
1.67329
1.78041
1.86161
2.13094
2.07147
1.98349
1.53796
0.792172
-0.105285
-0.434841
0.344355
1.22077
1.58144
2.03174
2.05853
2.09561
1.91707
1.73953
1.58403
1.5234
1.42123
1.52541
1.69664
1.85609
1.77603
1.54856
1.32335
0.607129
-0.0109918
-0.258341
0.336589
0.96685
1.46346
1.62058
1.75051
1.6371
1.56852
1.44886
1.31147
1.23592
1.22565
1.31805
1.49985
1.60945
1.49139
1.4114
1.16144
0.640182
0.0422326
-0.135354
0.259867
0.769381
1.16314
1.22697
1.38221
1.39765
1.33205
1.15164
1.11008
0.981045
0.96202
1.09771
1.16449
1.34406
1.22403
1.11076
0.925381
0.510346
0.113289
-0.130327
0.250821
0.48822
0.749302
0.932887
0.960421
1.04254
0.869266
0.837422
0.7679
0.722038
0.758376
0.817429
0.801344
0.823029
0.922592
0.758461
0.664548
0.43745
0.0681488
-0.0542196
0.123107
0.383027
0.443624
0.564189
0.609962
0.63452
0.56677
0.545184
0.417696
0.464918
0.450274
0.461449
0.468791
0.546466
0.523722
0.477426
0.408744
0.250534
0.0642285
-0.103167
0.0253494
0.124206
0.165742
0.182699
0.240985
0.267984
0.23581
0.216743
0.16973
0.0837485
0.118034
0.153332
0.13809
0.0721926
0.174869
0.124914
0.102729
0.0620815
0.0140524
-0.703502
0.360979
1.41895
2.13877
2.58763
2.62552
2.63912
2.41947
2.15223
1.91256
1.65538
1.75347
2.00304
2.03593
2.24023
2.25355
2.06952
1.49105
0.677689
-0.200292
-0.531809
0.427427
1.26803
1.91169
2.25324
2.41472
2.31649
2.24711
2.08155
1.79774
1.74154
1.67246
1.78068
1.93401
2.10814
2.08296
1.86313
1.46006
0.756795
-0.051151
-0.351207
0.423367
1.19189
1.64491
1.91796
2.0744
2.16822
1.87129
1.74277
1.53114
1.50154
1.44656
1.57365
1.7029
1.78644
1.82678
1.66161
1.25854
0.736947
0.112224
-0.170586
0.404745
1.01865
1.33172
1.59504
1.69198
1.74494
1.66477
1.48477
1.38973
1.2405
1.18483
1.28941
1.486
1.60882
1.52498
1.39906
1.162
0.63949
0.0974477
-0.174674
0.359067
0.72334
1.11953
1.29393
1.34589
1.29694
1.25688
1.21259
1.06393
0.98254
0.998719
1.04751
1.15016
1.23109
1.24122
1.08771
0.95333
0.600468
0.0708166
-0.112445
0.207279
0.514851
0.802754
0.908069
0.98475
0.977907
0.943355
0.90304
0.798139
0.761768
0.769163
0.729415
0.81439
0.890571
0.883682
0.818513
0.599481
0.446283
0.103445
-0.0320103
0.114827
0.330433
0.471648
0.552061
0.563591
0.582384
0.494037
0.569211
0.454589
0.367953
0.46994
0.485944
0.497594
0.59425
0.592312
0.467354
0.317821
0.191828
0.079135
-0.0158925
0.0694105
0.033226
0.145639
0.155324
0.173666
0.218833
0.180013
0.094259
0.187695
0.113832
0.136283
0.176646
0.099441
0.130994
0.163359
0.149208
0.111637
0.0894828
0.0617926
-0.554134
0.448273
1.51137
2.19271
2.59871
2.70706
2.80988
2.59302
2.34084
2.09874
1.91722
1.96984
2.06757
2.19865
2.34518
2.38122
2.12603
1.62599
0.853445
-0.107483
-0.372263
0.436633
1.30958
1.96032
2.34265
2.52904
2.44096
2.29577
2.1373
1.99211
1.78928
1.74974
1.9117
2.0254
2.19632
2.13264
1.88687
1.43309
0.778194
0.0681437
-0.236972
0.392251
1.19382
1.71118
2.06258
2.14721
2.13114
2.02825
1.81866
1.67045
1.63542
1.58758
1.73403
1.8026
1.95838
1.93822
1.74657
1.3297
0.767741
0.122424
-0.224516
0.333618
0.946135
1.38472
1.62803
1.79518
1.76199
1.71216
1.60415
1.39069
1.33172
1.30942
1.50033
1.5298
1.58316
1.605
1.50252
1.12835
0.736803
0.187764
-0.163395
0.383422
0.868589
1.03905
1.32715
1.34622
1.35827
1.41196
1.17184
1.20493
1.09044
1.05633
1.16827
1.16522
1.22957
1.21144
1.21841
0.988165
0.529537
0.194123
-0.0560179
0.247743
0.543072
0.735869
0.88435
0.988422
1.06267
0.990352
0.863282
0.84119
0.760663
0.745667
0.856597
0.841001
0.931359
0.897487
0.845828
0.646888
0.422377
0.198413
-0.034141
0.1911
0.33747
0.455292
0.602282
0.625111
0.658761
0.545944
0.467273
0.522671
0.49924
0.482185
0.465789
0.532722
0.580281
0.540617
0.600623
0.339396
0.27496
0.114146
-0.00922959
0.139979
0.176023
0.164316
0.165562
0.241821
0.192556
0.16651
0.221791
0.188663
0.145115
0.154476
0.188333
0.196821
0.16262
0.210181
0.15765
0.147956
0.0424355
0.0853689
-0.258657
0.731817
1.60039
2.37076
2.77882
2.97846
3.02388
2.79925
2.52384
2.4334
2.28132
2.23494
2.33536
2.52458
2.53649
2.63633
2.3424
1.84044
1.03223
0.0651209
-0.151426
0.660442
1.47271
2.06745
2.56538
2.5735
2.63756
2.51757
2.3432
2.19121
2.03042
2.01805
2.06984
2.33659
2.33058
2.37508
2.11035
1.59251
1.0055
0.337473
-0.026628
0.590801
1.27008
1.87557
2.16155
2.22919
2.27612
2.2021
2.05521
1.98152
1.8604
1.85133
1.86593
2.01849
2.02148
2.0912
1.778
1.45979
0.966797
0.276177
-0.0649735
0.534788
1.07227
1.49921
1.82176
1.84235
1.94185
1.90031
1.76807
1.66433
1.51589
1.534
1.54319
1.61142
1.70123
1.76269
1.50443
1.30832
0.763519
0.258407
0.0489433
0.435919
0.966436
1.13229
1.40598
1.50849
1.48583
1.46511
1.43245
1.2435
1.26919
1.22999
1.3505
1.38297
1.30729
1.31248
1.22436
0.966383
0.722105
0.338894
-4.90624e-05
0.332833
0.649692
0.835573
1.01696
1.04607
1.07198
1.09976
0.948029
0.909314
0.821549
0.863285
0.888776
1.02582
1.00624
1.07369
0.885549
0.81321
0.476367
0.220068
0.0875455
0.155079
0.36696
0.475426
0.567426
0.653399
0.697199
0.655204
0.60213
0.551356
0.648371
0.503998
0.58875
0.559635
0.611903
0.674419
0.510111
0.425012
0.337025
0.201261
0.0677923
0.0389164
0.121816
0.126345
0.251535
0.248412
0.208648
0.189571
0.150696
0.186896
0.179532
0.175663
0.174481
0.120679
0.210957
0.214033
0.138725
0.168755
0.132285
0.0235479
0.0130696
1.02659
1.91656
2.5347
3.09169
3.27222
3.33668
3.17858
3.06813
2.88549
2.7406
2.73984
2.788
2.93056
2.95665
2.92972
2.67822
2.2262
1.39218
0.566396
0.114644
0.924383
1.76984
2.33596
2.73767
2.91961
3.0149
2.83877
2.74903
2.52208
2.43929
2.50244
2.4666
2.65395
2.71074
2.64478
2.46332
1.97296
1.25287
0.618698
0.183029
0.829762
1.50211
1.98957
2.41495
2.50693
2.59373
2.47297
2.39147
2.21593
2.06617
2.13927
2.24348
2.27191
2.30542
2.30823
2.06671
1.67532
1.18149
0.623814
0.177903
0.743865
1.23015
1.66297
2.00124
2.12133
2.17077
2.0273
1.95557
1.85822
1.76608
1.80387
1.89101
1.9883
1.9426
1.97181
1.86069
1.45163
0.961456
0.577295
0.0709185
0.521512
0.975914
1.32219
1.49009
1.66015
1.64358
1.61524
1.51853
1.56522
1.40514
1.51826
1.48695
1.5357
1.59416
1.46004
1.39608
1.17986
0.807893
0.506921
0.243893
0.434305
0.679091
0.913636
1.03412
1.18626
1.15311
1.16328
1.12468
1.09128
1.06219
1.02476
1.10523
1.11363
1.08043
1.11183
1.09521
0.867735
0.564992
0.281178
0.0533365
0.285223
0.46364
0.608139
0.572281
0.711596
0.761822
0.673044
0.687934
0.700824
0.605206
0.630507
0.663373
0.683816
0.696147
0.641098
0.679845
0.513287
0.346125
0.282776
0.088178
0.0710818
0.132308
0.20936
0.249572
0.264128
0.27596
0.244208
0.290614
0.247806
0.301084
0.218583
0.244043
0.191366
0.332927
0.269189
0.182776
0.241911
0.0797048
0.0391202
0.427154
1.3635
2.30879
3.05564
3.39542
3.74818
3.87087
3.64516
3.57065
3.4677
3.30486
3.2367
3.32935
3.47658
3.44659
3.38997
3.15458
2.59366
1.84285
0.998196
0.481126
1.33839
2.08393
2.65038
3.06941
3.361
3.36644
3.36044
3.25546
3.04735
3.07089
2.97812
3.02826
3.10519
3.20904
3.02008
2.74912
2.36889
1.68356
1.01245
0.518879
1.12299
1.90629
2.31854
2.6554
2.92609
2.86899
2.87731
2.73558
2.67693
2.6036
2.57916
2.64293
2.74942
2.74347
2.66468
2.52301
2.04679
1.51941
0.98748
0.468631
0.954638
1.54449
1.98427
2.18728
2.42891
2.4075
2.36575
2.28405
2.30459
2.21633
2.149
2.18502
2.26788
2.33201
2.25991
1.99492
1.73092
1.23908
0.897557
0.39139
0.728536
1.14202
1.5313
1.74742
1.78806
1.85176
1.92887
1.78064
1.82817
1.79079
1.73739
1.77714
1.796
1.82546
1.73059
1.61612
1.39622
1.01909
0.717955
0.274197
0.582603
0.843172
1.05238
1.25269
1.31792
1.32718
1.32196
1.35735
1.3416
1.26047
1.25038
1.30248
1.29396
1.27163
1.27524
1.20925
0.994576
0.80997
0.464701
0.174008
0.373292
0.503644
0.639092
0.727541
0.79653
0.772204
0.858645
0.863529
0.764284
0.784236
0.842698
0.80324
0.807394
0.728059
0.703565
0.734397
0.618583
0.507383
0.328744
0.118809
0.0754583
0.197328
0.267817
0.210518
0.208771
0.298544
0.338435
0.243131
0.233008
0.24788
0.242828
0.178226
0.249993
0.222622
0.275092
0.202672
0.188924
0.140608
0.0291839
1.05843
1.87263
2.81847
3.56613
4.04732
4.24999
4.42395
4.41161
4.17505
4.11369
4.10771
4.14972
4.13987
4.19557
4.18921
4.04723
3.72394
3.25633
2.47141
1.65727
0.97633
1.73517
2.52937
3.17923
3.56604
3.84272
3.96894
3.959
3.81436
3.72492
3.71375
3.62304
3.74622
3.69412
3.74228
3.60831
3.33261
2.81187
2.33646
1.44031
0.949548
1.60075
2.14652
2.64371
3.09405
3.32202
3.33691
3.3312
3.34971
3.27711
3.1912
3.17759
3.14628
3.16459
3.21592
3.10335
2.88524
2.54814
1.99496
1.44206
0.89652
1.28284
1.82029
2.1713
2.53069
2.67758
2.87787
2.76804
2.77776
2.73958
2.63448
2.66497
2.72092
2.70475
2.73513
2.60458
2.413
2.12201
1.63255
1.26022
0.625175
1.02698
1.50402
1.7566
1.98429
2.16621
2.15235
2.25195
2.19701
2.07436
2.04122
2.04132
2.08245
2.13982
2.04687
2.08866
1.91079
1.68937
1.34196
0.957589
0.477462
0.756504
1.02066
1.24821
1.47131
1.49842
1.55854
1.58485
1.50906
1.56313
1.60225
1.44545
1.45966
1.58013
1.48527
1.44964
1.32502
1.22068
0.995072
0.681359
0.225726
0.505927
0.665237
0.750519
0.785117
0.939854
0.951849
0.892225
0.953271
0.898113
0.958047
0.914372
0.904756
0.913313
0.896478
0.820813
0.83546
0.622098
0.5773
0.387576
0.076809
0.153239
0.238338
0.26691
0.353503
0.312527
0.268339
0.383338
0.273165
0.272209
0.256063
0.264033
0.289866
0.295662
0.282777
0.343833
0.233879
0.240305
0.225577
0.091645
1.68248
2.66762
3.56779
4.20359
4.76239
5.08039
5.22512
5.08795
5.17717
5.01916
5.09039
4.97505
5.08588
5.02591
4.87389
4.76645
4.52194
4.00752
3.14127
2.33616
1.59475
2.34471
3.0477
3.72452
4.17342
4.37545
4.55432
4.5709
4.57415
4.4661
4.50652
4.46962
4.37181
4.44785
4.40277
4.23425
4.04523
3.4865
2.88065
2.2164
1.43854
2.02531
2.6956
3.13751
3.63014
3.77362
3.88382
3.9079
3.86099
3.85545
3.84864
3.80256
3.7871
3.87336
3.73595
3.74787
3.45619
2.99909
2.38598
1.91836
1.17652
1.70689
2.27271
2.69413
2.94972
3.18153
3.29991
3.29422
3.21779
3.18945
3.14152
3.20839
3.20434
3.2198
3.10432
2.97138
2.92921
2.44462
2.11608
1.74396
0.981097
1.35844
1.68834
2.0942
2.34474
2.43866
2.52212
2.64049
2.53121
2.46981
2.49571
2.51445
2.51897
2.48852
2.49256
2.40288
2.24179
1.89369
1.60723
1.34446
0.591296
0.939723
1.28015
1.53667
1.74474
1.81581
1.81056
1.87199
1.82555
1.76753
1.77831
1.77827
1.79612
1.80892
1.82826
1.72518
1.57399
1.48802
1.26775
0.969095
0.386019
0.561936
0.796416
0.875858
1.06056
1.05436
1.06547
1.08417
1.08541
1.0723
1.07901
1.1082
1.13323
1.09754
1.07323
1.18066
0.935991
0.915207
0.70305
0.556449
0.113704
0.22534
0.278093
0.393006
0.326032
0.405247
0.375633
0.323294
0.343026
0.435914
0.332396
0.319215
0.348661
0.425456
0.356837
0.362673
0.330102
0.20537
0.309052
0.199557
2.55109
3.35867
4.32561
5.03654
5.50007
5.81838
6.07342
6.09566
6.13634
5.94574
6.00087
5.93429
5.93763
5.96404
5.82953
5.73746
5.27085
4.75086
4.0199
3.25751
2.29733
3.0218
3.77833
4.40945
4.91883
5.21618
5.29272
5.36368
5.32249
5.25822
5.32951
5.28613
5.29905
5.24588
5.18812
5.01034
4.72334
4.29166
3.58433
2.87532
2.01682
2.65239
3.30424
3.79546
4.1345
4.42075
4.56137
4.64121
4.64088
4.60163
4.56514
4.4979
4.53161
4.47789
4.49765
4.25759
4.08973
3.79869
3.06689
2.60529
1.72528
2.23334
2.70428
3.20255
3.40585
3.69821
3.77113
3.8477
3.7526
3.77053
3.74992
3.71732
3.71203
3.76391
3.74459
3.48956
3.36473
2.96731
2.55902
2.11257
1.32016
1.75021
2.04596
2.36013
2.67407
2.79459
2.90909
2.96498
3.00123
3.04897
3.01522
2.92512
3.00397
2.9896
2.85109
2.78892
2.63475
2.34999
2.01524
1.7284
1.01262
1.25146
1.47788
1.80131
1.91258
2.1118
2.10459
2.10471
2.09513
2.09983
2.0986
2.08466
2.08032
2.03981
2.09859
2.08009
1.9195
1.73983
1.4699
1.2387
0.592568
0.729252
0.92522
0.979937
1.05942
1.18893
1.29996
1.23952
1.31194
1.27997
1.2597
1.22029
1.32428
1.26659
1.3075
1.17362
1.08957
1.01913
0.88121
0.793982
0.246143
0.240545
0.267537
0.295087
0.305578
0.414148
0.37994
0.410612
0.471378
0.430049
0.46863
0.436037
0.45561
0.412215
0.445049
0.471516
0.390687
0.291533
0.32932
0.214026
3.49928
4.2764
5.18041
5.92845
6.39116
6.77352
6.92396
7.00495
7.15929
7.02095
7.07748
7.1427
6.98532
6.91687
6.8589
6.60343
6.27848
5.62175
4.93191
4.09679
3.15331
3.80048
4.50173
5.20251
5.66088
5.98703
6.15938
6.21718
6.20129
6.14162
6.21268
6.1751
6.21346
6.16421
6.03688
5.74502
5.54182
5.01045
4.45927
3.7804
2.63116
3.2951
3.90222
4.41639
4.7936
5.02788
5.2429
5.32018
5.413
5.33437
5.32427
5.19916
5.31469
5.23424
5.18448
4.93596
4.68979
4.25167
3.80097
3.30768
2.21987
2.71449
3.20557
3.66225
3.97749
4.21531
4.22459
4.32817
4.3647
4.37246
4.38655
4.41946
4.38799
4.31604
4.27534
4.24376
3.95189
3.54068
3.08269
2.7852
1.70946
2.1434
2.48224
2.82712
3.12812
3.35366
3.37891
3.44927
3.42417
3.44384
3.41868
3.41991
3.3453
3.3357
3.34361
3.25997
3.02203
2.8575
2.47307
2.20513
1.2585
1.54113
1.84074
2.02606
2.22047
2.31424
2.43523
2.40838
2.48958
2.44813
2.44567
2.46912
2.53162
2.46663
2.45472
2.30806
2.18213
2.00738
1.73214
1.53221
0.753092
0.907084
1.08341
1.21859
1.35235
1.41984
1.50642
1.46672
1.53469
1.50843
1.46797
1.51491
1.44417
1.46253
1.46085
1.36089
1.30138
1.20487
1.10265
0.917931
0.293453
0.252138
0.421718
0.423682
0.478003
0.509545
0.454409
0.474547
0.485973
0.524423
0.498481
0.44905
0.458505
0.476313
0.456354
0.483991
0.490119
0.367902
0.364413
0.256784
4.44363
5.25811
6.10122
6.82565
7.3551
7.76264
7.98025
8.07258
8.08305
8.15703
8.14852
8.08566
8.02906
7.89498
7.90866
7.59592
7.2476
6.66714
5.82712
5.15967
3.79106
4.55876
5.32101
5.91228
6.3692
6.68176
6.9711
7.04816
7.12022
7.1676
7.09451
7.07454
7.07881
6.98366
6.8665
6.60338
6.33748
5.82773
5.20884
4.58534
3.3628
3.83068
4.61521
5.08248
5.50226
5.71788
5.87899
6.04783
6.12885
6.05658
6.08203
5.97691
5.96659
5.90991
5.81918
5.66549
5.45192
5.0957
4.42967
3.93636
2.78462
3.18266
3.77358
4.12193
4.48426
4.67024
4.90825
4.90653
4.95753
5.01021
5.03774
4.98056
4.95005
4.94827
4.78395
4.72579
4.47694
4.07742
3.69436
3.19585
2.21751
2.51291
2.96694
3.18676
3.47994
3.70254
3.78165
3.80172
3.89357
3.90795
3.80891
3.92103
3.82826
3.85383
3.7467
3.58358
3.48087
3.13955
2.85123
2.61216
1.4995
1.78422
2.08759
2.31687
2.51147
2.58154
2.68623
2.74941
2.79631
2.79935
2.84472
2.824
2.82061
2.76213
2.67527
2.58576
2.4807
2.29326
2.07809
1.81647
0.898555
1.10549
1.26265
1.41071
1.50347
1.61997
1.58754
1.59513
1.70935
1.70176
1.73349
1.70421
1.66931
1.65597
1.61794
1.63635
1.51136
1.31818
1.2973
1.09268
0.282698
0.407917
0.387038
0.45712
0.475143
0.540532
0.453282
0.594087
0.542245
0.59139
0.564757
0.519158
0.583716
0.641738
0.583982
0.491073
0.519788
0.490863
0.326779
0.426299
5.12507
5.97819
6.85934
7.55432
7.99724
8.48239
8.74363
8.93049
9.03064
8.94549
9.00306
8.99659
8.90882
8.846
8.74608
8.40916
8.03404
7.39762
6.7014
5.87586
4.53095
5.11308
5.90052
6.48609
7.02708
7.4045
7.54387
7.73151
7.77548
7.83274
7.74053
7.80752
7.80893
7.71235
7.43011
7.25163
6.91295
6.41443
5.79375
5.13426
3.83134
4.40007
4.97117
5.61681
5.90869
6.27999
6.42369
6.58685
6.5994
6.63072
6.65098
6.58783
6.60132
6.46447
6.36172
6.1686
5.83689
5.45704
4.8839
4.45261
3.09056
3.59693
4.16098
4.56175
4.92634
5.08112
5.2287
5.38859
5.39135
5.40412
5.38226
5.44648
5.39961
5.30833
5.28043
5.15317
4.84767
4.45621
4.02833
3.66189
2.40378
2.77408
3.11476
3.45982
3.79572
3.97648
4.02483
4.18829
4.17454
4.30048
4.2044
4.19983
4.14832
4.11753
4.06871
3.98873
3.70919
3.52843
3.20631
2.77087
1.7542
1.96936
2.28502
2.57818
2.69245
2.79634
2.86972
3.0182
2.99566
3.04608
3.03246
2.99601
3.0338
2.88485
2.95974
2.84649
2.70309
2.51973
2.16515
2.06121
1.04404
1.15352
1.42918
1.55334
1.71077
1.74624
1.78508
1.76787
1.7294
1.84111
1.84272
1.79694
1.79367
1.82301
1.72977
1.63369
1.57388
1.52168
1.32725
1.20407
0.308728
0.39281
0.437091
0.432043
0.537907
0.601625
0.600608
0.671796
0.579062
0.646093
0.591682
0.604844
0.641744
0.578439
0.595741
0.584095
0.530318
0.520111
0.453001
0.41307
)
;

boundaryField
{
    hotSide
    {
        type            calculated;
        value           nonuniform List<scalar> 
400
(
0.348961
0.331418
0.307877
0.200368
0.103052
-0.0255264
-0.185682
-0.339738
-0.382586
-0.356607
-0.199603
0.104461
0.385758
0.810421
1.45331
2.09003
2.97239
3.93542
4.89572
5.59421
1.80029
1.79098
1.72331
1.56333
1.36385
1.19683
1.01077
0.852499
0.757886
0.715396
0.809844
1.10149
1.40537
1.7524
2.27271
3.07996
3.78438
4.71658
5.7139
6.45072
2.99864
3.06529
2.86911
2.71914
2.55607
2.29683
2.13389
1.8997
1.82183
1.78125
1.88028
1.97686
2.30161
2.70346
3.22386
3.98498
4.75575
5.62465
6.5607
7.33524
3.86937
3.78583
3.7823
3.50785
3.36538
3.08588
2.89788
2.67136
2.63665
2.50916
2.5691
2.75412
2.92607
3.4561
3.97678
4.62559
5.47104
6.37664
7.28872
8.03348
4.32656
4.30755
4.1131
4.05868
3.72775
3.46472
3.37051
3.12402
2.95461
2.96606
2.98249
3.16895
3.48924
3.8015
4.46307
5.189
5.93875
6.84312
7.82158
8.47945
4.58906
4.51788
4.37288
4.21595
3.86887
3.60437
3.42193
3.23493
3.05883
3.01161
3.09785
3.37498
3.67556
4.15949
4.67046
5.51125
6.26088
7.22892
8.2322
8.96738
4.80565
4.57643
4.47397
4.13124
3.87212
3.59796
3.37606
3.19603
3.04127
3.0321
3.20694
3.42607
3.74515
4.28679
4.84855
5.65969
6.51924
7.38232
8.45246
9.23099
4.72168
4.62841
4.40481
4.00161
3.7186
3.50229
3.14057
2.92066
2.92939
2.81815
2.99523
3.20608
3.59121
4.06482
4.83955
5.5255
6.54415
7.46569
8.54692
9.41974
4.73591
4.5205
4.30526
3.91279
3.5667
3.23498
2.9504
2.71919
2.59478
2.55499
2.74674
2.93398
3.48372
3.99295
4.60535
5.61682
6.58668
7.62168
8.55885
9.5212
4.69718
4.497
4.12115
3.84107
3.3907
3.03022
2.69199
2.43724
2.27647
2.31744
2.50655
2.84526
3.30261
3.89136
4.54521
5.45989
6.39705
7.48419
8.6336
9.43673
4.66989
4.37922
4.14457
3.72442
3.28008
2.89491
2.52085
2.34429
2.21606
2.06027
2.32503
2.69318
3.15772
3.72852
4.53923
5.53112
6.45218
7.54072
8.62508
9.4943
4.61799
4.45078
4.0505
3.62359
3.27568
2.87649
2.50014
2.3293
2.12476
2.15623
2.37574
2.64509
3.15543
3.65899
4.58003
5.41469
6.38463
7.60509
8.56146
9.48715
4.67839
4.35361
4.10333
3.80117
3.35298
2.96571
2.71237
2.46891
2.28988
2.40172
2.46978
2.7422
3.20063
3.74901
4.56782
5.52343
6.38611
7.44606
8.50339
9.39807
4.61324
4.4271
4.17412
3.86387
3.55538
3.21307
2.85141
2.69556
2.60574
2.42891
2.59571
2.92677
3.33903
3.8925
4.62018
5.46048
6.40986
7.37524
8.3672
9.33337
4.59739
4.50166
4.29096
3.92683
3.66784
3.37131
3.05959
2.86662
2.7287
2.62632
2.73597
2.933
3.35999
3.8579
4.60968
5.30475
6.27203