/*--------------------------------*- C++ -*----------------------------------*\
| =========                 |                                                 |
| \\      /  F ield         | OpenFOAM: The Open Source CFD Toolbox           |
|  \\    /   O peration     | Version:  2212                                  |
|   \\  /    A nd           | Website:  www.openfoam.com                      |
|    \\/     M anipulation  |                                                 |
\*---------------------------------------------------------------------------*/
FoamFile
{
    version     2.0;
    format      ascii;
    arch        "LSB;label=32;scalar=64";
    class       volScalarField;
    location    "0";
    object      relativeErrorField;
}
// * * * * * * * * * * * * * * * * * * * * * * * * * * * * * * * * * * * * * //

dimensions      [0 0 0 1 0 0 0];

internalField   nonuniform List<scalar> 
3200
(
0.000101633
0.00441559
0.00796066
0.0105159
0.0118297
0.012561
0.0131576
0.0128668
0.0128792
0.0127484
0.0126674
0.0125289
0.0127381
0.012585
0.0125858
0.0120763
0.0110251
0.00877449
0.00551069
0.00166876
2.76347e-05
0.0035085
0.00711415
0.00943295
0.0106985
0.0114643
0.0115784
0.0114115
0.0114541
0.0114083
0.0115056
0.0112817
0.0112102
0.0111511
0.0112328
0.0109447
0.0100108
0.00785319
0.00509597
0.00162061
5.57062e-05
0.00329845
0.00589154
0.00802108
0.0090305
0.00967339
0.00995066
0.00964807
0.00973877
0.00987065
0.00985411
0.0097123
0.00983179
0.00985514
0.00961807
0.00913777
0.00851126
0.00676588
0.00443876
0.00169291
0.00034777
0.00267233
0.0049935
0.00642004
0.0076081
0.00798923
0.00823364
0.00808872
0.00824332
0.00819575
0.00798053
0.00811198
0.00813812
0.00816211
0.00811624
0.00780934
0.00707046
0.00585409
0.00377668
0.0015887
0.000219532
0.00231663
0.0038915
0.00502133
0.00604637
0.0063021
0.0064063
0.00657399
0.00664767
0.00637857
0.00649579
0.00635698
0.00626661
0.00623497
0.00634412
0.00625388
0.00563815
0.00453188
0.00286558
0.00151474
0.000183678
0.0014004
0.00287517
0.00369474
0.0042986
0.00474624
0.00490684
0.00486566
0.00482849
0.00467227
0.00457293
0.00469791
0.0045932
0.00489617
0.00466536
0.00442981
0.00400828
0.00329104
0.00237205
0.0012077
3.39919e-05
0.000669236
0.00168987
0.00204456
0.00260735
0.00268269
0.00278527
0.00270925
0.00320207
0.00275504
0.00306839
0.00274488
0.00289899
0.00284856
0.00276952
0.00262116
0.00245057
0.00211437
0.00143609
0.000284583
0.000157573
0.000433477
0.000611341
0.00109466
0.000985985
0.00096029
0.000818829
0.00101283
0.000934269
0.000940946
0.00098449
0.00121778
0.00117822
0.000903919
0.00086042
0.00107248
0.000914043
0.000609385
0.000380915
0.000161312
4.70702e-05
0.00438437
0.00815556
0.0102616
0.0117683
0.0123445
0.0124717
0.0125862
0.0122364
0.0121513
0.0118016
0.0120293
0.0117694
0.0120274
0.0122962
0.0118386
0.010702
0.00874977
0.00546085
0.0016408
0.000336029
0.00351574
0.00677976
0.00924102
0.0107559
0.0110842
0.0111683
0.0111123
0.0109454
0.0111254
0.010646
0.0106056
0.0105548
0.0107292
0.0106969
0.0106346
0.00979117
0.00795338
0.00510034
0.00171695
0.000489947
0.00309783
0.00598682
0.00785624
0.00890097
0.0095781
0.00951729
0.00962734
0.00924709
0.00929367
0.00914928
0.00947436
0.00933232
0.00926872
0.00924363
0.00899578
0.00817775
0.00694927
0.00437121
0.0017202
0.000129606
0.00279515
0.00479118
0.00660184
0.00750515
0.00816447
0.00830075
0.00789903
0.00783261
0.00797004
0.00797186
0.00763246
0.00772141
0.00787081
0.0077973
0.0074426
0.00716654
0.00563293
0.00386294
0.00158023
0.000213901
0.00225955
0.00399129
0.00482861
0.00583152
0.0062196
0.00651643
0.0062573
0.00640449
0.00606287
0.00625858
0.00614987
0.00621383
0.00627441
0.00614961
0.00634499
0.0056705
0.00460689
0.00321259
0.00131836
7.26035e-05
0.00150548
0.00290241
0.00357671
0.0043032
0.00438735
0.00453674
0.00455739
0.00462786
0.00429473
0.00416039
0.00435775
0.00447935
0.0043342
0.00434098
0.00435192
0.00436003
0.00345743
0.00250935
0.00123732
4.69368e-05
0.000843183
0.00168226
0.00204458
0.00264746
0.00282279
0.00289815
0.00296355
0.0029934
0.00262822
0.00273953
0.00278645
0.00279943
0.00279631
0.00270516
0.0026802
0.00257957
0.00188074
0.00133642
0.000721848
0.000270415
0.000175325
0.000530143
0.00093056
0.000811095
0.00119635
0.0008846
0.00113007
0.00081171
0.000786271
0.000940145
0.000987873
0.00100491
0.000957525
0.000992145
0.000849061
0.000850414
0.000452206
0.000423423
0.000360177
2.73601e-05
0.00417518
0.00756056
0.0102415
0.0111792
0.0119041
0.0121592
0.0119151
0.0115916
0.0110306
0.0111001
0.0108354
0.0110196
0.0112677
0.0116602
0.0112685
0.0102661
0.00850331
0.00540376
0.0015174
7.19914e-05
0.00355876
0.0067378
0.00868019
0.0102496
0.0104602
0.0104022
0.0104852
0.0101754
0.00991333
0.00999325
0.00977601
0.00981653
0.00994022
0.00996324
0.0100756
0.00926828
0.00754368
0.00465968
0.0017279
0.000383324
0.00324909
0.00582835
0.00762844
0.00859004
0.00899655
0.00907952
0.00910748
0.00906086
0.00874831
0.00847589
0.00871188
0.0084516
0.00891186
0.00893808
0.00858594
0.00790776
0.0062943
0.00429363
0.00175874
0.000302155
0.00260621
0.00503736
0.00632821
0.00714191
0.00757914
0.00768346
0.0077222
0.00737131
0.00698439
0.00727838
0.00701692
0.00714869
0.00726316
0.00754209
0.00730781
0.00670269
0.00549748
0.00336327
0.00147442
0.000368666
0.00213675
0.00371631
0.00512997
0.0056235
0.00591788
0.00605892
0.00604347
0.0060362
0.00561826
0.00580462
0.00571289
0.00581862
0.00629106
0.00602091
0.00571169
0.00546336
0.00420313
0.00291559
0.00119357
0.000408162
0.00158027
0.00283183
0.00344971
0.00418263
0.00443566
0.00438195
0.0043569
0.00417298
0.00412851
0.0040911
0.0040487
0.00430144
0.00447433
0.00431036
0.00427721
0.0038489
0.0032191
0.00236748
0.00100118
8.71659e-05
0.00118718
0.0015511
0.00206215
0.00240862
0.00250187
0.00261546
0.00250232
0.00253416
0.00273431
0.00248047
0.0023126
0.00254857
0.00276572
0.00237056
0.0024479
0.00252744
0.0020942
0.00118978
0.000551276
2.20202e-06
0.000410909
0.000518071
0.000634267
0.000974038
0.00113825
0.000891951
0.000792601
0.00112247
0.00104514
0.00101474
0.000926703
0.000819724
0.000803603
0.000749053
0.00104435
0.0008718
0.000773157
0.000216406
0.000110216
0.00035473
0.00368727
0.0071002
0.00940897
0.0110032
0.0114243
0.0111294
0.0107084
0.0104189
0.0101926
0.00984673
0.00956117
0.0101136
0.0103352
0.0105646
0.0103775
0.0098664
0.00814651
0.00495814
0.00115314
6.78858e-05
0.00331994
0.00641134
0.00850194
0.00970176
0.00979328
0.00982385
0.00977687
0.00947588
0.00900153
0.0088105
0.00904241
0.00902398
0.00934911
0.00942585
0.0092524
0.00863556
0.00703598
0.00431929
0.00115494
9.99182e-05
0.00304249
0.00531191
0.00699082
0.00838174
0.00861245
0.0086689
0.00850075
0.00829526
0.00777677
0.0077995
0.00773103
0.00790191
0.00809023
0.00803823
0.00819095
0.00762554
0.00620125
0.00392533
0.00136751
8.91209e-05
0.00224912
0.00442465
0.0059358
0.00673017
0.00723169
0.00728798
0.00711517
0.00695506
0.00654963
0.00653666
0.00654426
0.00672983
0.00672972
0.00714561
0.00665695
0.00637277
0.00525525
0.0031821
0.00148406
0.000182763
0.00184411
0.00350988
0.00480812
0.00545502
0.00565944
0.00576199
0.00546876
0.00566148
0.00525905
0.00502072
0.00516174
0.00528137
0.00534983
0.00562098
0.00553166
0.00518904
0.00394539
0.00269833
0.00107342
0.000410906
0.001532
0.00282644
0.00334701
0.00417062
0.00423859
0.00433898
0.00423037
0.00403454
0.00374186
0.00384002
0.00394668
0.0038171
0.00383054
0.00404837
0.00377894
0.00392885
0.00289768
0.00218888
0.000880756
0.000165298
0.000794492
0.00138231
0.00217778
0.00251131
0.00261566
0.00248538
0.00274534
0.00237962
0.00238727
0.00239747
0.00216917
0.00225634
0.00264649
0.00258028
0.00265342
0.00246192
0.00200211
0.00132566
0.000750628
0.00028647
0.000160139
0.000732743
0.000726251
0.000721507
0.000892222
0.000860913
0.000938115
0.00092225
0.00084135
0.000884035
0.000849368
0.000569443
0.000778468
0.000902141
0.000757182
0.000703942
0.000734891
0.00061734
7.42784e-05
0.000652718
0.00307949
0.00659766
0.00896649
0.0100005
0.0103761
0.0103456
0.0098568
0.0093826
0.00884881
0.00852125
0.00852054
0.00877311
0.009406
0.00977918
0.00983005
0.00887831
0.00726657
0.00412865
0.000864658
0.00050893
0.00276049
0.00599303
0.00773575
0.00900698
0.00928347
0.00921088
0.00884411
0.00850376
0.00827959
0.00764532
0.00763594
0.00801718
0.0083601
0.00886344
0.00851257
0.00808659
0.00664636
0.00417237
0.00118089
9.00385e-05
0.00262253
0.00521363
0.00677942
0.0078668
0.00797698
0.00802293
0.00782419
0.0072582
0.00702455
0.00692189
0.00687781
0.00705664
0.00744045
0.00769105
0.00725923
0.00710181
0.00584114
0.00332596
0.0011433
9.71086e-05
0.00203554
0.00417823
0.00551634
0.0063829
0.00678144
0.00681561
0.00658347
0.00618347
0.00571293
0.00568818
0.0057982
0.00616349
0.00608193
0.00632666
0.00647743
0.00612863
0.00483828
0.00322271
0.000959961
5.98335e-05
0.00173885
0.00322984
0.00456797
0.00503592
0.00510519
0.0053262
0.00530831
0.00500845
0.00448189
0.00473937
0.00458753
0.00456375
0.00492422
0.00514309
0.00505247
0.0048359
0.00397315
0.00247158
0.00110199
6.74921e-06
0.00119397
0.00220665
0.00333634
0.00377714
0.00370772
0.00399902
0.00402628
0.00344473
0.00357768
0.00308433
0.00339515
0.00346597
0.00361929
0.00381167
0.00384441
0.00360038
0.00283694
0.0018098
0.000543359
8.12469e-05
0.000803342
0.00166634
0.00196822
0.00227859
0.00267779
0.00261398
0.00228136
0.0021224
0.0019554
0.00212007
0.00207817
0.0022829
0.00221864
0.00236254
0.00223094
0.00237408
0.00168487
0.000994489
0.000396617
5.83761e-05
0.000312303
0.000696633
0.000599529
0.00104163
0.000711691
0.000695846
0.000890941
0.000791934
0.000753747
0.000604225
0.0008496
0.000951772
0.000768108
0.000437754
0.000783733
0.000892187
0.000607114
0.00046103
0.00033782
0.00104473
0.00256724
0.00580643
0.00811336
0.0091974
0.00957121
0.00951506
0.00920087
0.00838797
0.00777105
0.00737099
0.00732775
0.00761303
0.00837519
0.00888031
0.00896704
0.00806323
0.00641116
0.00354425
0.000413714
0.000811478
0.00238576
0.00557968
0.00731324
0.00813859
0.00872616
0.00847517
0.00829935
0.00754428
0.00725235
0.00716523
0.00677556
0.00736291
0.00756816
0.00795946
0.00812792
0.00737645
0.00575523
0.00344232
0.000547673
0.000688171
0.00203726
0.00470022
0.00636321
0.00740807
0.00769248
0.00733983
0.00710266
0.0066735
0.00618086
0.00602381
0.00616826
0.00643896
0.00654153
0.00693973
0.0071613
0.0064246
0.00529662
0.00307042
0.000882711
1.6688e-05
0.00157063
0.00381516
0.00525632
0.00600572
0.0064539
0.0062406
0.00591942
0.00561283
0.00541558
0.00514812
0.00492968
0.0055098
0.00583716
0.00592794
0.00597305
0.00549152
0.00441627
0.00267932
0.000973871
0.000337949
0.0014519
0.00286938
0.00418081
0.00493472
0.00525053
0.00510376
0.00474806
0.00459585
0.00447707
0.00412611
0.0041662
0.00423823
0.00452988
0.00512838
0.00463307
0.00457912
0.00375643
0.00202304
0.000652482
3.63321e-05
0.00112786
0.00248874
0.00332333
0.00346386
0.00372579
0.00350904
0.0035593
0.00310879
0.00325594
0.00294656
0.00281119
0.00307357
0.00321184
0.00344518
0.00343924
0.00335424
0.00260042
0.00171416
0.000786236
0.00018674
0.000541161
0.00139727
0.002018
0.00207932
0.00214415
0.00204167
0.00210088
0.00204824
0.00208654
0.00177229
0.00177049
0.0019697
0.00205665
0.00212557
0.00204723
0.00196307
0.00175507
0.0012227
0.000634302
0.000161273
0.000252137
0.000478079
0.000813462
0.000610876
0.000780773
0.000789991
0.00100974
0.000511773
0.00075388
0.000858802
0.000603257
0.000551701
0.000707573
0.000854814
0.000623637
0.000742177
0.000644597
0.000374436
0.000193635
0.00153079
0.00199744
0.0053
0.00753003
0.00889231
0.00900704
0.00883727
0.00811332
0.00753184
0.00675887
0.00625381
0.00620277
0.00684868
0.00728661
0.00793514
0.00792893
0.00713747
0.00591041
0.00298843
0.000410114
0.00134768
0.00167335
0.00487094
0.00675877
0.0075896
0.00818702
0.00802246
0.00751842
0.00658429
0.00625647
0.00583789
0.00591257
0.00604991
0.0070412
0.0071851
0.00740236
0.0065052
0.00545943
0.0030732
0.0003157
0.000835823
0.00191358
0.00404106
0.0056664
0.00675413
0.00701908
0.00691581
0.00642834
0.00586117
0.00564658
0.00535541
0.00520948
0.00551319
0.00592291
0.00610611
0.00626844
0.00586922
0.0046349
0.00258282
0.000397081
0.000582487
0.00120496
0.00343517
0.00462386
0.00564817
0.00586552
0.00582535
0.00527487
0.0052411
0.00457726
0.00448062
0.00452679
0.00491248
0.00527119
0.00538946
0.00542216
0.0048734
0.00408238
0.00215151
0.00073646
0.000587282
0.00133645
0.00263647
0.00386613
0.0044919
0.00454529
0.00465031
0.0044541
0.00424709
0.00401954
0.00364919
0.00363166
0.00382996
0.00402866
0.00425682
0.00427049
0.00396581
0.00319957
0.00201809
0.000572255
0.000266494
0.000910004
0.00193433
0.00275184
0.00331211
0.00351313
0.00323286
0.00339784
0.0028294
0.00302591
0.00264141
0.00279424
0.00269638
0.00318994
0.00316629
0.00317435
0.00276739
0.00258813
0.00127215
0.000372119
0.000133147
0.000365942
0.00106649
0.00185667
0.00188176
0.00198136
0.0021292
0.00225106
0.00206749
0.00168739
0.00181866
0.00148757
0.00167291
0.00196179
0.0019054
0.00208772
0.0017861
0.00164163
0.000893294
0.000195939
8.44813e-05
0.00016663
0.000330666
0.000670727
0.000674098
0.000879659
0.000835037
0.000660382
0.000554336
0.000586764
0.000444103
0.000882757
0.000511156
0.000608756
0.000585713
0.000870382
0.00034335
0.000439509
0.000307736
0.000136086
0.00199807
0.00150975
0.00458095
0.0068306
0.00813346
0.00842669
0.00828081
0.00744362
0.00683209
0.00599257
0.00571888
0.00568384
0.00611252
0.00680516
0.00733978
0.00721519
0.0065454
0.00519846
0.00252821
0.000951158
0.00153814
0.00146164
0.00427651
0.00617128
0.00725218
0.00752443
0.00745099
0.00710684
0.0062918
0.00542543
0.00527927
0.0053216
0.00560552
0.00636112
0.00687646
0.00665828
0.00624455
0.00475557
0.00247021
0.000329352
0.000798936
0.0011742
0.00384692
0.00518688
0.00625149
0.00657189
0.00629303
0.00601878
0.00568141
0.0052979
0.00452886
0.00466334
0.00511064
0.00547794
0.00582711
0.00579698
0.00553041
0.0042814
0.00236331
0.000306724
0.00063495
0.0012952
0.00316228
0.00448083
0.0052901
0.00554129
0.00565109
0.00512305
0.00466993
0.00449049
0.00391707
0.00397449
0.0041634
0.00447799
0.004787
0.00520638
0.00482419
0.0034172
0.00212031
0.00042691
0.000474139
0.00104174
0.00241735
0.00358196
0.00433735
0.00450104
0.00412448
0.00425399
0.00395195
0.00364779
0.00319182
0.00340943
0.00346614
0.00389137
0.00404524
0.0039418
0.00382113
0.00277862
0.00176209
0.000331406
0.000345672
0.000814566
0.00196285
0.00247721
0.0031474
0.00315511
0.00314944
0.00327245
0.00281318
0.00254316
0.00231378
0.00234131
0.00270923
0.00310732
0.00277539
0.00302369
0.00300241
0.00198532
0.00123636
0.000353886
0.000112342
0.000601772
0.00119177
0.00137521
0.00173308
0.00178317
0.00180088
0.00169817
0.00179473
0.00164976
0.00149429
0.0014743
0.00166733
0.001697
0.00190012
0.00183624
0.00172195
0.00136413
0.00093034
0.000324001
3.82946e-05
6.81348e-05
0.000186983
0.000480391
0.000955131
0.000838816
0.0007236
0.000337208
0.00067468
0.000449602
0.000468633
0.000416746
0.000573774
0.00047033
0.000554023
0.00075901
0.000687406
0.000606288
0.000347951
0.000117853
0.00213568
0.00120982
0.00432301
0.00669547
0.00760036
0.00787601
0.00779617
0.00744412
0.0064447
0.00550154
0.00532416
0.00506416
0.00556487
0.00651554
0.00690455
0.00686033
0.00628316
0.00464118
0.00231813
0.000648517
0.00167029
0.00103626
0.00384413
0.00581468
0.00688763
0.00727663
0.00714929
0.00664461
0.00603443
0.00524711
0.00504912
0.00499593
0.00531788
0.00556352
0.00637274
0.00619954
0.00594088
0.00461005
0.00237628
0.000316005
0.00132582
0.00104942
0.00371795
0.00481319
0.00617951
0.00625697
0.00636599
0.00582083
0.00527991
0.00480709
0.0046231
0.00431382
0.00463161
0.00515401
0.00564164
0.00540177
0.0047131
0.00403038
0.00185022
3.35137e-05
0.000800232
0.0010422
0.00299217
0.00452651
0.00500969
0.00540845
0.0050556
0.00484189
0.00447125
0.00404662
0.00381351
0.00378239
0.00406872
0.00463176
0.00497264
0.00461032
0.00436549
0.00359436
0.00198224
0.000130819
0.000426013
0.000817651
0.00241981
0.00365664
0.00385558
0.00434156
0.00438838
0.00418109
0.00361398
0.00348317
0.00307829
0.00301894
0.00344555
0.00365632
0.00422172
0.00384634
0.00349195
0.00291045
0.00160576
0.000356565
0.000416856
0.00080208
0.00156078
0.00239465
0.0029804
0.00306743
0.00332876
0.00277488
0.0026728
0.00245069
0.00230433
0.00242051
0.00260941
0.00255865
0.00262862
0.00294751
0.00242393
0.00212447
0.00139889
0.000217976
0.000176275
0.000400181
0.00124488
0.00144154
0.00183295
0.00198128
0.00206071
0.00184042
0.00177015
0.00135614
0.00150945
0.00146198
0.00149842
0.00152247
0.00177504
0.00170148
0.00155138
0.00132846
0.00081441
0.000208815
0.000341001
8.37846e-05
0.000410498
0.000547737
0.000603735
0.000796292
0.000885455
0.000779111
0.000716091
0.000560756
0.000276689
0.000389969
0.000506604
0.00045627
0.000238548
0.000577861
0.000412812
0.000339517
0.000205191
4.6448e-05
0.00207142
0.00106222
0.00417215
0.00628345
0.00759591
0.00770109
0.00773554
0.00708765
0.00630219
0.00559917
0.00484627
0.00513453
0.00586773
0.00596753
0.00657097
0.00661524
0.00608
0.00438413
0.00199417
0.000589747
0.00159126
0.00127824
0.00378951
0.00570895
0.00672406
0.00720098
0.0069038
0.00669362
0.00619818
0.00535208
0.00518477
0.00498004
0.00530423
0.0057639
0.00628673
0.00621592
0.00556394
0.00436341
0.00226323
0.000153052
0.00106799
0.00128684
0.00362067
0.0049937
0.00581904
0.00628992
0.00657093
0.00566858
0.00527761
0.00463598
0.00454636
0.0043806
0.00476697
0.00516075
0.00541677
0.0055424
0.00504442
0.00382313
0.00223997
0.000341262
0.000527248
0.00125053
0.00314575
0.00411044
0.00492063
0.00521712
0.00537804
0.00512909
0.00457331
0.00428002
0.00382042
0.00364945
0.00397262
0.00457996
0.00496071
0.00470451
0.00431828
0.00358844
0.00197581
0.000301192
0.000548819
0.00112785
0.00227118
0.00351372
0.00405942
0.0042208
0.00406584
0.00393913
0.00379955
0.00333338
0.00307838
0.00312941
0.00328295
0.00360571
0.00386076
0.00389406
0.00341386
0.00299332
0.00188611
0.000222503
0.000359208
0.000662022
0.00164391
0.00256242
0.00289772
0.00314152
0.0031189
0.00300807
0.00287909
0.00254445
0.00242849
0.00245226
0.00232588
0.00259739
0.00284107
0.0028199
0.00261272
0.00191413
0.00142537
0.000330457
0.00010399
0.000372983
0.00107314
0.00153148
0.00179227
0.00182938
0.00189009
0.00160316
0.00184693
0.00147495
0.00119385
0.00152482
0.0015769
0.00161491
0.0019289
0.00192294
0.00151754
0.00103218
0.000623102
0.000257081
5.25164e-05
0.000229355
0.000109783
0.000481181
0.00051315
0.000573712
0.000722885
0.000594623
0.000311348
0.000619966
0.000375993
0.000450157
0.0005835
0.000328489
0.000432743
0.000539694
0.000492976
0.000368863
0.000295681
0.000204192
0.00162522
0.00131397
0.0044269
0.00641771
0.00760025
0.00791149
0.00820674
0.0075694
0.00683073
0.00612305
0.00559347
0.00574813
0.00603553
0.00642154
0.00685389
0.00696417
0.00622255
0.00476262
0.00250161
0.000315236
0.00111004
0.00130134
0.00390056
0.00583489
0.00696825
0.00751792
0.00725204
0.00681754
0.00634486
0.00591284
0.0053108
0.00519435
0.00567701
0.00601742
0.00652888
0.00634358
0.00561627
0.00426844
0.00231932
0.000203196
0.000718491
0.00118879
0.00361613
0.00518024
0.00624046
0.00649298
0.00644128
0.00612787
0.00549309
0.0050447
0.00493891
0.00479514
0.00523896
0.00544828
0.00592199
0.00586421
0.00528738
0.0040277
0.00232678
0.000371186
0.000692245
0.00102828
0.00291487
0.00426403
0.00501087
0.00552285
0.00541854
0.00526359
0.00493037
0.00427376
0.00409254
0.00402452
0.00461235
0.0047045
0.00487057
0.00493998
0.00462678
0.00347625
0.00227098
0.000578926
0.000512394
0.00120206
0.00272212
0.00325512
0.00415611
0.0042143
0.00425067
0.00441755
0.00366561
0.00376875
0.00341066
0.0033043
0.00365512
0.00364653
0.00384914
0.00379375
0.00381701
0.00309687
0.00166014
0.000608755
0.000178701
0.000790166
0.00173166
0.00234577
0.00281832
0.00314917
0.00338494
0.00315399
0.00274893
0.00267839
0.00242199
0.00237441
0.00272801
0.00267885
0.00296736
0.00286019
0.0026963
0.00206269
0.00134715
0.000632952
0.000110817
0.000620214
0.00109508
0.00147716
0.00195374
0.00202747
0.00213631
0.00177025
0.00151503
0.00169457
0.0016186
0.00156338
0.00151034
0.00172757
0.00188207
0.00175371
0.00194868
0.00110133
0.000892383
0.000370503
3.04901e-05
0.000462405
0.00058144
0.000542737
0.000546821
0.000798649
0.000635913
0.000549875
0.00073241
0.000623006
0.000479202
0.000510119
0.000621944
0.00065
0.000537077
0.000694191
0.000520721
0.000488729
0.000140181
0.000282017
0.000755339
0.00213593
0.00466786
0.00691
0.00809377
0.00866964
0.00879678
0.00813945
0.00733619
0.00707206
0.00663009
0.00649644
0.0067906
0.00734424
0.00738316
0.00767876
0.00682736
0.00536804
0.00301272
0.000190169
0.000449827
0.001961
0.00437025
0.00613135
0.00760341
0.00762311
0.00780889
0.00745055
0.00693247
0.0064818
0.00600615
0.0059705
0.00612553
0.00691782
0.00690353
0.00703939
0.00625857
0.00472574
0.00298554
0.0010025
8.04737e-05
0.00178479
0.00383494
0.00566017
0.0065198
0.0067205
0.00685898
0.00663354
0.00618948
0.00596677
0.00560207
0.00557549
0.00562087
0.00608263
0.00609431
0.0063076
0.00536571
0.00440775
0.00292065
0.000834646
0.000199792
0.00164394
0.0032948
0.00460462
0.00559286
0.00565374
0.00595689
0.00582775
0.00542104
0.0051024
0.00464733
0.00470336
0.00473254
0.00494326
0.00522069
0.00541149
0.00462065
0.00402009
0.00234706
0.000794597
0.000153157
0.00136377
0.00302249
0.00353997
0.0043941
0.00471295
0.0046408
0.004575
0.00447226
0.00388201
0.00396222
0.00384017
0.00421712
0.00431952
0.00408433
0.00410187
0.00382781
0.00302233
0.0022591
0.00106049
1.56272e-07
0.00105994
0.00206851
0.00265964
0.00323618
0.00332803
0.00340974
0.00349753
0.00301461
0.00289132
0.00261226
0.00274514
0.00282654
0.00326294
0.00320134
0.00341671
0.00281872
0.00258912
0.00151704
0.000700954
0.000283895
0.00050284
0.00118969
0.00154109
0.00183903
0.00211736
0.002259
0.00212271
0.00195062
0.00178607
0.00210034
0.00163272
0.00190741
0.00181328
0.00198289
0.00218579
0.00165352
0.00137789
0.0010928
0.000652653
0.000223881
0.000128515
0.000402256
0.00041719
0.000830524
0.000820173
0.000688852
0.00062585
0.000497496
0.000616994
0.000592683
0.000579918
0.000576032
0.000398422
0.000696509
0.000706699
0.000458069
0.000557259
0.000436848
7.7766e-05
3.79869e-05
0.00298231
0.0055643
0.00735421
0.00896466
0.00948256
0.00966432
0.00920252
0.00888007
0.00835017
0.00793089
0.00792992
0.00807172
0.00848804
0.00856807
0.008495
0.00777063
0.00646327
0.00404436
0.00164623
0.000339155
0.00273346
0.00523071
0.0069
0.0080821
0.00861477
0.00889183
0.00836927
0.00810254
0.0074326
0.00718863
0.00737573
0.00727204
0.00782728
0.00799845
0.00780786
0.00727621
0.00583102
0.00370481
0.00183032
0.000551183
0.00249788
0.0045198
0.00598367
0.00725951
0.00753265
0.00779037
0.00742529
0.00717897
0.00665121
0.00620171
0.00642189
0.00673622
0.00682379
0.00692717
0.0069387
0.00621565
0.00504099
0.0035567
0.00187858
0.000545443
0.00227998
0.00376902
0.00509307
0.00612662
0.00649188
0.00664098
0.00620042
0.0059799
0.00568167
0.00539993
0.005516
0.00578357
0.00608276
0.00594491
0.00603653
0.00569862
0.0044476
0.00294691
0.00176996
0.000221409
0.0016278
0.0030452
0.00412437
0.00464666
0.00517544
0.00512245
0.00503305
0.00473099
0.00487609
0.0043774
0.00473015
0.00463331
0.00478623
0.0049697
0.00455294
0.00435487
0.0036816
0.00252168
0.00158262
0.000775535
0.00138077
0.00215854
0.00290339
0.00328552
0.00376806
0.00366206
0.00369378
0.00357085
0.0034646
0.00337225
0.00325361
0.00350947
0.00353669
0.00343192
0.0035324
0.00348041
0.00275817
0.00179626
0.000894094
0.000172783
0.000923886
0.00150161
0.00196932
0.00185294
0.00230371
0.00246603
0.00217845
0.00222649
0.00226813
0.00195868
0.00204063
0.00214714
0.00221352
0.0022537
0.00207576
0.00220152
0.0016624
0.00112116
0.000916051
0.000291102
0.000234654
0.000436751
0.000691073
0.000823765
0.00087177
0.000910786
0.000805966
0.0009591
0.000817813
0.000993639
0.000721379
0.000805424
0.000631589
0.00109884
0.000888515
0.000603321
0.000798556
0.00026312
0.000129147
0.00123521
0.00394103
0.00666954
0.00882189
0.00979731
0.0108094
0.011158
0.0105035
0.010286
0.00998807
0.00951903
0.009324
0.00959349
0.0100215
0.00993968
0.00978156
0.00910755
0.00749247
0.00532654
0.00288649
0.00141698
0.00394018
0.00613199
0.00779476
0.00902261
0.00987513
0.00988705
0.00986615
0.00955568
0.00894372
0.00901282
0.00874161
0.00889088
0.00911976
0.00942864
0.0088776
0.00808517
0.00697051
0.00495635
0.00298181
0.0015566
0.00336776
0.00571437
0.00694708
0.00795299
0.00876016
0.00858616
0.00860859
0.00818292
0.00800663
0.0077873
0.00771502
0.00790735
0.00822833
0.00821344
0.00798078
0.00755973
0.00613556
0.00455657
0.00296236
0.00143224
0.00291678
0.00471734
0.00605832
0.00667573
0.00741073
0.00734323
0.00721416
0.00696384
0.00702586
0.00675677
0.00655208
0.00666301
0.00691736
0.00711508
0.00689742
0.00609083
0.00528675
0.00378586
0.00274313
0.00121886
0.00226831
0.00355472
0.00476501
0.00543596
0.00556092
0.00575765
0.00599628
0.00553474
0.00568209
0.0055659
0.00540029
0.00552459
0.00558428
0.00567721
0.00538359
0.00502895
0.00434593
0.00317296
0.00223585
0.000870304
0.0018489
0.00267527
0.00333836
0.00397294
0.00417902
0.00420765
0.00419053
0.00430231
0.00425215
0.00399503
0.00396326
0.00412877
0.00410233
0.00403223
0.00404445
0.00383596
0.00315566
0.00257045
0.00147496
0.00056307
0.00120781
0.00162938
0.00206731
0.00235311
0.00257594
0.00249701
0.0027763
0.00279192
0.00247097
0.00253548
0.00272457
0.00259715
0.00261081
0.00235451
0.00227557
0.0023756
0.00200122
0.00164168
0.00106378
0.000392074
0.000249008
0.000651142
0.0008837
0.000694606
0.000688813
0.000984973
0.00111655
0.00080211
0.000768707
0.00081777
0.00080111
0.000587996
0.000824791
0.000734511
0.000907667
0.000668747
0.00062341
0.000463996
9.63081e-05
0.00304396
0.0053833
0.00809816
0.0102409
0.0116168
0.0121928
0.0126865
0.0126469
0.0119659
0.0117886
0.0117715
0.0118933
0.0118679
0.0120316
0.0120184
0.0116166
0.0106941
0.00935621
0.00710463
0.00476619
0.00286164
0.00508398
0.00740761
0.00930643
0.010434
0.0112388
0.0116037
0.0115712
0.0111461
0.0108836
0.010851
0.0105871
0.0109493
0.0108002
0.0109451
0.0105577
0.00975543
0.00823495
0.00684574
0.00422159
0.00283685
0.00478091
0.00640845
0.00788964
0.00922999
0.00990646
0.00994768
0.00992811
0.00998145
0.00976423
0.00950826
0.00946857
0.00937698
0.00943397
0.00959005
0.00925774
0.00861044
0.00760751
0.00595828
0.00430826
0.00273059
0.00390625
0.00554103
0.00660729
0.00769838
0.00814274
0.00874952
0.00841384
0.00844209
0.00832542
0.00800601
0.00809931
0.0082706
0.00822319
0.00831777
0.00792314
0.0073428
0.00645945
0.00497114
0.00383833
0.00194165
0.00318893
0.00466904
0.00545168
0.00615673
0.00671958
0.00667517
0.00698287
0.00681171
0.00643103
0.00632829
0.00632898
0.0064573
0.0066363
0.00634938
0.00648057
0.00593023
0.00524444
0.004167
0.00297405
0.00151249
0.00239609
0.00323216
0.00395197
0.00465747
0.00474246
0.00493197
0.00501461
0.00477438
0.00494524
0.005069
0.00457314
0.0046185
0.00500031
0.00470082
0.00458887
0.00419518
0.00386558
0.00315171
0.00215839
0.000729545
0.00163501
0.00214961
0.0024249
0.00253639
0.00303596
0.00307442
0.00288161
0.00307861
0.0029004
0.00309395
0.00295299
0.00292208
0.00294995
0.00289584
0.00265171
0.00269934
0.00201022
0.00186567
0.00125265
0.000253369
0.000505472
0.000786147
0.000880356
0.00116592
0.00103074
0.000884973
0.0012642
0.000900847
0.000897688
0.000844442
0.000870732
0.000955943
0.000975084
0.000932621
0.00113403
0.000771408
0.000792637
0.000744087
0.000302308
0.00481061
0.00762442
0.0101925
0.0120031
0.0135924
0.0144938
0.0149012
0.0145057
0.0147569
0.014305
0.014508
0.0141808
0.0144998
0.0143331
0.0139047
0.013604
0.0129121
0.0114487
0.00897817
0.00667964
0.00465043
0.0068351
0.00888076
0.0108484
0.0121509
0.0127343
0.0132505
0.0132952
0.0133022
0.0129867
0.0131043
0.0129982
0.0127161
0.0129407
0.0128138
0.012328
0.0117825
0.0101594
0.00839745
0.00646321
0.00427897
0.00602262
0.00801304
0.00932325
0.0107833
0.0112059
0.0115298
0.0115987
0.0114576
0.0114402
0.01142
0.0112842
0.0112401
0.0114988
0.011094
0.011133
0.0102702
0.00891519
0.00709516
0.00570621
0.0035704
0.00517874
0.00689341
0.00816912
0.00894151
0.00964156
0.0099979
0.00997876
0.00974595
0.00965945
0.00951428
0.00971748
0.0097065
0.00975521
0.00940758
0.00900717
0.00888195
0.00741483
0.00642021
0.00529242
0.00303832
0.00420614
0.00522636
0.00648118
0.00725487
0.00754383
0.00780052
0.00816538
0.00782662
0.00763634
0.00771642
0.0077748
0.00778959
0.00769659
0.00771055
0.00743476
0.00693794
0.00586207
0.00497647
0.00416361
0.00186918
0.00297023
0.00404552
0.00485536
0.00551184
0.00573543
0.00571806
0.00591143
0.00576431
0.00558088
0.00561493
0.00561504
0.00567185
0.0057129
0.00577477
0.00545004
0.00497326
0.00470246
0.00400705
0.00306346
0.00124602
0.00181371
0.00257025
0.00282632
0.00342198
0.00340167
0.00343721
0.00349728
0.00350112
0.00345876
0.00348041
0.00357463
0.00365556
0.00354067
0.00346252
0.0038095
0.00302037
0.00295362
0.00226917
0.00179615
0.000374908
0.000742981
0.000916882
0.00129571
0.00107486
0.00133597
0.00123831
0.00106574
0.00113077
0.00143696
0.00109572
0.00105228
0.00114937
0.00140255
0.00117638
0.00119566
0.00108832
0.000677111
0.00101899
0.000657986
0.00724981
0.00954149
0.0122832
0.0142958
0.015605
0.0165018
0.0172194
0.0172778
0.0173899
0.0168481
0.0170044
0.0168173
0.0168299
0.0169092
0.0165334
0.0162785
0.0149609
0.0134908
0.0114199
0.00925738
0.0066635
0.00876218
0.0109517
0.0127762
0.0142468
0.0151029
0.01532
0.0155217
0.0154
0.0152128
0.015419
0.0152948
0.0153347
0.0151844
0.0150217
0.0145119
0.0136856
0.0124397
0.0103933
0.00833997
0.00597164
0.0078515
0.00977791
0.0112278
0.0122269
0.0130696
0.0134818
0.013715
0.0137121
0.0135951
0.0134873
0.0132896
0.0133911
0.0132351
0.0132969
0.0125909
0.0120983
0.0112411
0.00907847
0.00771405
0.00521586
0.00675039
0.00817162
0.00967458
0.010286
0.0111662
0.011384
0.0116131
0.0113247
0.0113781
0.0113159
0.0112183
0.0112036
0.0113622
0.0113062
0.0105388
0.0101645
0.00896645
0.00773479
0.00638672
0.00407606
0.00540299
0.00631464
0.0072827
0.00824965
0.00861981
0.00897145
0.00914256
0.00925347
0.00940018
0.00929613
0.00901879
0.00926279