/*--------------------------------*- C++ -*----------------------------------*\
| =========                 |                                                 |
| \\      /  F ield         | OpenFOAM: The Open Source CFD Toolbox           |
|  \\    /   O peration     | Version:  2212                                  |
|   \\  /    A nd           | Website:  www.openfoam.com                      |
|    \\/     M anipulation  |                                                 |
\*---------------------------------------------------------------------------*/
FoamFile
{
    version     2.0;
    format      ascii;
    arch        "LSB;label=32;scalar=64";
    class       volScalarField;
    location    "0";
    object      stateMean;
}
// * * * * * * * * * * * * * * * * * * * * * * * * * * * * * * * * * * * * * //

dimensions      [0 0 0 1 0 0 0];

internalField   nonuniform List<scalar> 
3200
(
333.664
332.519
331.71
331.264
331.245
331.411
331.59
332.008
332.238
332.406
332.433
332.356
332.052
331.782
331.403
331.162
331.094
331.438
332.153
333.141
329.11
328.196
327.333
326.922
326.868
326.971
327.262
327.596
327.783
327.905
327.873
327.84
327.662
327.404
327.048
326.787
326.731
327.089
327.674
328.568
324.532
323.687
323.118
322.724
322.704
322.797
322.985
323.318
323.459
323.506
323.511
323.468
323.258
323.016
322.815
322.669
322.565
322.834
323.316
324.001
319.926
319.349
318.829
318.616
318.487
318.612
318.762
319
319.09
319.178
319.248
319.132
318.984
318.785
318.571
318.423
318.408
318.553
318.996
319.529
315.487
314.953
314.629
314.463
314.335
314.447
314.591
314.687
314.772
314.914
314.877
314.864
314.784
314.645
314.433
314.269
314.268
314.427
314.779
315.078
311.042
310.754
310.419
310.3
310.253
310.25
310.327
310.446
310.535
310.625
310.656
310.576
310.531
310.33
310.276
310.212
310.203
310.289
310.452
310.723
306.65
306.509
306.271
306.244
306.155
306.214
306.26
306.347
306.242
306.404
306.307
306.383
306.288
306.24
306.188
306.15
306.119
306.14
306.274
306.573
302.183
302.118
302.089
301.971
302.032
302.068
302.136
302.099
302.138
302.144
302.131
302.053
302.049
302.111
302.098
302.006
302.026
302.09
302.134
302.182
333.811
332.656
331.768
331.468
331.38
331.593
331.926
332.205
332.553
332.703
332.821
332.623
332.479
332.075
331.61
331.356
331.321
331.569
332.296
333.279
329.102
328.304
327.549
327.088
326.948
327.192
327.489
327.782
328.037
328.083
328.242
328.149
327.966
327.635
327.32
326.988
326.907
327.162
327.782
328.648
324.485
323.844
323.177
322.865
322.83
322.908
323.202
323.398
323.691
323.765
323.812
323.617
323.495
323.284
323.017
322.799
322.761
322.864
323.43
324.086
320.073
319.385
318.966
318.628
318.589
318.621
318.803
319.121
319.28
319.309
319.308
319.345
319.178
318.941
318.739
318.609
318.447
318.697
319.043
319.608
315.547
315.03
314.654
314.579
314.455
314.524
314.604
314.834
314.894
315.059
314.997
314.975
314.847
314.681
314.546
314.293
314.313
314.46
314.729
315.199
311.118
310.763
310.451
310.376
310.289
310.398
310.477
310.576
310.631
310.776
310.817
310.715
310.6
310.54
310.413
310.274
310.132
310.279
310.451
310.756
306.671
306.48
306.297
306.267
306.165
306.193
306.246
306.289
306.325
306.462
306.428
306.389
306.339
306.277
306.229
306.155
306.102
306.236
306.329
306.464
302.158
302.205
302.123
302.029
302.093
302.003
302.124
302.07
302.182
302.198
302.152
302.128
302.108
302.101
302.065
302.081
302.053
302.146
302.13
302.131
334.096
332.98
332.214
331.714
331.807
331.963
332.243
332.635
332.969
333.277
333.253
333.224
332.936
332.543
332.045
331.777
331.705
331.899
332.569
333.58
329.412
328.508
327.776
327.479
327.313
327.589
327.926
328.167
328.464
328.653
328.627
328.597
328.388
328.079
327.754
327.371
327.284
327.51
328.145
328.867
324.707
323.979
323.407
323.113
323.099
323.258
323.5
323.717
323.896
324.086
324.175
324.01
323.931
323.555
323.277
323.1
323.022
323.255
323.639
324.261
320.17
319.596
319.034
318.858
318.841
318.94
319.127
319.299
319.547
319.742
319.647
319.661
319.484
319.262
318.952
318.788
318.738
318.886
319.353
319.795
315.618
315.185
314.855
314.593
314.628
314.72
314.847
314.996
315.102
315.291
315.232
315.205
315.067
314.773
314.688
314.6
314.487
314.701
314.939
315.357
311.099
310.823
310.554
310.494
310.402
310.456
310.595
310.706
310.838
310.891
310.903
310.877
310.724
310.566
310.495
310.373
310.37
310.433
310.578
310.914
306.709
306.425
306.386
306.309
306.284
306.336
306.375
306.471
306.506
306.469
306.547
306.574
306.457
306.328
306.376
306.272
306.166
306.219
306.424
306.567
302.258
302.151
302.142
302.134
302.058
302.036
302.135
302.186
302.102
302.133
302.142
302.161
302.178
302.162
302.154
302.037
302.062
302.065
302.21
302.224
334.596
333.526
332.74
332.353
332.213
332.458
332.912
333.353
333.667
333.857
333.974
333.956
333.553
333.18
332.747
332.423
332.2
332.389
333.1
334.091
329.795
328.916
328.204
327.849
327.795
328.099
328.396
328.67
328.957
329.214
329.277
329.101
328.92
328.553
328.221
327.943
327.805
327.998
328.587
329.392
325.147
324.324
323.846
323.582
323.419
323.627
323.868
324.142
324.367
324.621
324.613
324.551
324.338
324.057
323.814
323.481
323.375
323.556
324.037
324.67
320.469
319.937
319.451
319.198
319.18
319.25
319.445
319.679
319.861
320.059
320.063
319.993
319.803
319.624
319.278
319.204
319.058
319.185
319.638
320.022
315.855
315.453
315.091
314.861
314.841
314.956
315.09
315.321
315.361
315.542
315.617
315.52
315.381
315.221
314.969
314.817
314.74
314.953
315.183
315.574
311.226
310.964
310.677
310.645
310.52
310.628
310.715
310.847
310.981
311.11
311.08
311.009
310.976
310.874
310.687
310.642
310.463
310.655
310.759
311.08
306.864
306.62
306.511
306.344
306.321
306.367
306.478
306.457
306.614
306.634
306.631
306.678
306.608
306.429
306.377
306.277
306.257
306.32
306.457
306.583
302.195
302.252
302.101
302.129
302.158
302.132
302.166
302.162
302.182
302.214
302.201
302.204
302.274
302.191
302.129
302.147
302.136
302.101
302.113
302.304
335.218
334.241
333.407
332.984
333.017
333.262
333.612
334.06
334.427
334.717
334.827
334.719
334.426
333.928
333.463
333.074
333.014
333.182
333.889
334.709
330.39
329.542
328.772
328.519
328.427
328.656
328.975
329.343
329.635
329.804
330.014
329.923
329.618
329.257
328.796
328.591
328.403
328.556
329.075
329.832
325.523
324.832
324.24
324.002
323.927
324.162
324.396
324.67
325.006
325.162
325.195
325.13
324.921
324.587
324.256
324.125
323.897
324.035
324.603
325.122
320.837
320.308
319.825
319.619
319.569
319.663
319.855
320.101
320.353
320.569
320.577
320.477
320.236
320.091
319.81
319.539
319.422
319.613
319.927
320.498
316.133
315.721
315.409
315.16
315.189
315.34
315.428
315.567
315.758
315.975
315.894
315.891
315.803
315.555
315.328
315.183
315.075
315.174
315.489
315.804
311.522
311.236
311.034
310.807
310.797
310.942
310.964
311.051
311.3
311.295
311.449
311.315
311.226
311.083
310.909
310.776
310.724
310.838
311.044
311.355
306.89
306.718
306.521
306.504
306.485
306.437
306.525
306.684
306.774
306.847
306.796
306.787
306.683
306.646
306.534
306.5
306.379
306.516
306.66
306.793
302.299
302.239
302.145
302.2
302.092
302.217
302.245
302.205
302.248
302.267
302.312
302.231
302.186
302.223
302.3
302.17
302.111
302.172
302.194
302.215
336.005
335.055
334.299
333.88
333.878
334.103
334.444
334.819
335.288
335.6
335.735
335.646
335.355
334.829
334.336
333.955
333.897
334.095
334.726
335.515
331.054
330.219
329.448
329.184
329.225
329.334
329.696
329.987
330.406
330.592
330.621
330.662
330.299
329.997
329.589
329.228
329.163
329.39
329.87
330.605
326.192
325.49
324.862
324.58
324.505
324.67
325.022
325.296
325.579
325.815
325.866
325.744
325.513
325.283
324.916
324.586
324.56
324.667
325.153
325.68
321.198
320.837
320.313
320.064
320.04
320.108
320.368
320.633
320.848
320.973
321.06
321.068
320.765
320.498
320.277
320.051
319.988
320.12
320.481
320.88
316.559
316.106
315.811
315.562
315.492
315.557
315.753
315.991
316.13
316.216
316.327
316.267
316.153
315.935
315.596
315.588
315.436
315.53
315.926
316.246
311.727
311.467
311.152
311.011
311.088
311.123
311.299
311.373
311.578
311.566
311.663
311.671
311.525
311.392
311.211
311.095
311.001
311.117
311.284
311.493
307.1
306.925
306.728
306.609
306.663
306.714
306.809
306.845
306.9
306.908
307.005
306.986
306.885
306.805
306.72
306.673
306.626
306.618
306.716
306.848
302.409
302.3
302.253
302.176
302.261
302.234
302.253
302.205
302.368
302.302
302.27
302.341
302.343
302.278
302.211
302.257
302.198
302.203
302.263
302.301
336.957
336.021
335.226
334.813
334.696
334.989
335.348
335.845
336.223
336.581
336.752
336.674
336.273
335.873
335.352
335.021
334.945
335.02
335.688
336.58
331.912
331.124
330.336
330.002
330.024
330.113
330.429
330.814
331.283
331.475
331.615
331.507
331.303
330.756
330.447
330.086
330.087
330.141
330.66
331.36
326.813
326.092
325.627
325.344
325.24
325.397
325.651
325.995
326.314
326.454
326.55
326.528
326.295
325.977
325.696
325.399
325.278
325.433
325.873
326.41
321.846
321.413
320.884
320.704
320.58
320.709
320.903
321.232
321.351
321.622
321.653
321.582
321.349
321.082
320.862
320.653
320.624
320.676
321.109
321.422
316.999
316.499
316.233
316.002
315.963
316.101
316.209
316.387
316.538
316.655
316.773
316.734
316.586
316.406
316.192
316.034
315.97
316.055
316.283
316.632
312.078
311.789
311.573
311.431
311.37
311.419
311.607
311.639
311.877
311.848
311.968
311.888
311.859
311.621
311.527
311.413
311.426
311.369
311.676
311.879
307.238
307.132
306.978
306.803
306.864
306.901
306.916
306.929
307.021
307.157
307.116
307.199
307.106
306.968
306.924
306.801
306.825
306.802
306.97
307.137
302.437
302.477
302.348
302.267
302.29
302.25
302.283
302.353
302.397
302.394
302.438
302.298
302.398
302.352
302.339
302.231
302.366
302.315
302.334
302.37
338.039
337.095
336.358
335.917
335.798
336.009
336.339
336.856
337.231
337.605
337.698
337.621
337.308
336.839
336.378
336.109
336.013
336.149
336.751
337.686
332.772
331.978
331.3
330.947
330.866
331.044
331.311
331.628
332.046
332.411
332.46
332.37
332.13
331.675
331.26
331.064
330.923
331.141
331.643
332.37
327.471
326.994
326.337
326.133
326.019
326.141
326.439
326.7
326.933
327.124
327.377
327.268
326.998
326.706
326.386
326.168
326.02
326.194
326.604
327.11
322.41
321.923
321.499
321.265
321.198
321.303
321.435
321.745
321.992
322.103
322.289
322.217
322.056
321.814
321.546
321.225
321.154
321.417
321.657
322.067
317.387
317.009
316.712
316.49
316.402
316.494
316.745
316.813
316.986
317.124
317.269
317.159
317.063
316.819
316.639
316.527
316.414
316.597
316.781
317.132
312.405
312.117
311.856
311.802
311.7
311.801
311.897
311.936
312.135
312.249
312.321
312.283
312.112
311.91
311.92
311.739
311.638
311.849
311.985
312.186
307.413
307.237
307.115
307.123
307.077
307.124
307.175
307.253
307.258
307.319
307.367
307.356
307.263
307.207
307.088
307.045
307.016
307.062
307.136
307.278
302.484
302.466
302.449
302.383
302.261
302.317
302.37
302.503
302.412
302.486
302.48
302.49
302.431
302.447
302.403
302.32
302.32
302.323
302.382
302.436
339.148
338.241
337.47
336.965
336.957
337.152
337.438
337.772
338.266
338.667
338.728
338.736
338.411
337.873
337.482
337.209
337.105
337.362
337.866
338.644
333.73
333.021
332.328
331.93
331.832
331.951
332.218
332.572
332.91
333.243
333.31
333.258
333.017
332.748
332.253
332.062
331.888
332.072
332.574
333.279
328.414
327.794
327.123
326.984
326.754
326.939
327.093
327.43
327.721
327.936
327.997
328.04
327.822
327.492
327.142
327.01
327.016
327.021
327.531
327.99
323.09
322.622
322.16
321.845
321.868
321.911
322.182
322.379
322.591
322.778
322.853
322.814
322.63
322.319
322.053
321.998
321.897
321.966
322.319
322.79
317.857
317.561
317.182
316.928
317.005
316.985
317.09
317.257
317.509
317.588
317.717
317.699
317.491
317.324
317.023
317.008
316.98
317.026
317.311
317.609
312.773
312.462
312.318
312.157
312.074
312.143
312.147
312.393
312.476
312.572
312.618
312.555
312.445
312.389
312.28
312.084
312.148
312.141
312.276
312.575
307.64
307.504
307.3
307.299
307.24
307.252
307.279
307.39
307.443
307.586
307.539
307.538
307.496
307.445
307.316
307.28
307.266
307.274
307.376
307.522
302.644
302.53
302.45
302.428
302.431
302.393
302.383
302.43
302.459
302.511
302.597
302.558
302.513
302.513
302.562
302.439
302.469
302.471
302.493
302.527
340.327
339.475
338.682
338.242
338.073
338.302
338.529
338.946
339.354
339.666
339.924
339.753
339.362
339.132
338.688
338.407
338.311
338.61
339.158
339.823
334.739
333.96
333.347
332.946
332.848
332.917
333.223
333.463
333.75
334.098
334.154
334.16
333.929
333.605
333.224
333.018
332.995
333.155
333.63
334.258
329.2
328.575
327.998
327.751
327.683
327.723
327.804
328.245
328.477
328.742
328.771
328.773
328.542
328.269
328.011
327.774
327.734
327.931
328.261
328.737
323.711
323.255
322.798
322.653
322.558
322.621
322.711
322.909
323.174
323.313
323.462
323.474
323.285
322.97
322.704
322.628
322.586
322.655
323.021
323.443
318.447
318.005
317.763
317.496
317.453
317.525
317.686
317.818
317.927
318.11
318.191
318.141
318.027
317.833
317.64
317.506
317.528
317.533
317.764
318.201
313.147
312.893
312.672
312.477
312.466
312.478
312.564
312.665
312.752
312.881
312.917
312.886
312.879
312.728
312.572
312.49
312.461
312.588
312.654
312.932
307.853
307.745
307.582
307.496
307.472
307.513
307.543
307.671
307.624
307.752
307.839
307.723
307.679
307.627
307.483
307.432
307.501
307.594
307.668
307.742
302.636
302.564
302.618
302.523
302.533
302.532
302.503
302.555
302.651
302.562
302.636
302.609
302.558
302.623
302.575
302.525
302.52
302.539
302.544
302.558
341.514
340.711
339.895
339.473
339.325
339.461
339.577
339.973
340.352
340.661
340.843
340.723
340.498
340.188
339.823
339.543
339.54
339.78
340.306
341.067
335.731
335.09
334.43
334.005
333.846
333.872
334.149
334.449
334.718
334.921
335.124
335.105
334.833
334.565
334.205
334.056
334.078
334.307
334.749
335.291
330.056
329.566
328.944
328.617
328.454
328.55
328.726
328.96
329.262
329.46
329.495
329.493
329.254
329.054
328.739
328.579
328.581
328.808
329.19
329.697
324.556
324.109
323.643
323.36
323.272
323.251
323.415
323.572
323.757
324.01
324.069
324.052
323.784
323.647
323.463
323.295
323.242
323.461
323.706
324.143
319.048
318.588
318.216
318.167
317.999
318.094
318.184
318.213
318.513
318.511
318.626
318.629
318.457
318.377
318.21
318.115
317.988
318.097
318.441
318.691
313.528
313.285
313.071
312.964
312.902
312.88
312.878
313.01
313.18
313.224
313.304
313.297
313.143
313.1
312.937
312.889
312.854
312.967
313.111
313.274
308.117
307.928
307.831
307.765
307.669
307.695
307.705
307.854
307.958
307.916
307.94
307.943
307.934
307.831
307.74
307.73
307.619
307.829
307.844
307.969
302.717
302.58
302.56
302.59
302.605
302.545
302.609
302.647
302.601
302.638
302.682
302.669
302.626
302.605
302.624
302.561
302.596
302.588
302.678
302.623
342.697
341.891
341.252
340.72
340.549
340.573
340.725
341.112
341.502
341.653
341.805
341.791
341.576
341.224
341.015
340.692
340.749
341.012
341.591
342.373
336.783
336.129
335.513
335.127
334.834
335.018
335.126
335.386
335.661
335.865
336.026
335.986
335.834
335.427
335.261
335.024
335.084
335.393
335.784
336.295
330.918
330.43
329.917
329.487
329.374
329.471
329.569
329.762
329.993
330.11
330.232
330.197
330.098
329.827
329.679
329.445
329.585
329.727
330.054
330.615
325.27
324.774
324.373
324.089
323.908
324.022
324.041
324.18
324.381
324.521
324.669
324.615
324.537
324.372
324.163
323.967
324.084
324.137
324.545
324.947
319.514
319.207
318.782
318.728
318.564
318.566
318.681
318.777
318.864
319.08
319.055
319.066
318.892
318.784
318.767
318.658
318.636
318.782
318.921
319.224
313.955
313.679
313.437
313.331
313.229
313.274
313.314
313.34
313.53
313.589
313.676
313.615
313.551
313.36
313.314
313.172
313.281
313.274
313.536
313.735
308.285
308.251
308.084
308.024
307.98
307.938
307.934
308.009
308.085
308.147
308.05
308.183
308.075
308.071
307.979
307.873
307.989
308.026
308.069
308.172
302.737
302.777
302.709
302.721
302.611
302.63
302.683
302.712
302.759
302.727
302.734
302.734
302.728
302.771
302.667
302.649
302.708
302.662
302.684
302.781
344.043
343.201
342.522
342.124
341.784
341.806
341.921
342.224
342.439
342.675
342.819
342.767
342.615
342.327
342.121
341.946
341.981
342.213
342.836
343.49
337.912
337.249
336.585
336.209
335.995
335.988
336.049
336.351
336.531
336.804
336.887
336.778
336.723
336.41
336.197
336.088
336.082
336.382
336.92
337.408
331.883
331.356
330.838
330.511
330.245
330.301
330.346
330.574
330.731
330.946
331.096
330.983
330.804
330.668
330.503
330.352
330.434
330.665
331.005
331.442
325.984
325.515
325.154
324.853
324.645
324.646
324.704
324.935
325.068
325.198
325.29
325.22
325.071
324.887
324.824
324.674
324.655
324.932
325.298
325.585
320.234
319.857
319.5
319.257
319.19
319.115
319.214
319.311
319.455
319.434
319.594
319.456
319.439
319.322
319.181
319.22
319.183
319.296
319.571
319.798
314.24
314.103
313.927
313.765
313.718
313.633
313.726
313.765
313.837
313.889
313.918
313.937
313.823
313.765
313.739
313.64
313.584
313.738
313.972
314.203
308.637
308.436
308.299
308.199
308.278
308.179
308.165
308.283
308.289
308.286
308.382
308.346
308.293
308.243
308.195
308.209
308.127
308.25
308.375
308.407
302.823
302.851
302.804
302.741
302.715
302.715
302.715
302.756
302.716
302.763
302.71
302.788
302.756
302.8
302.646
302.696
302.767
302.694
302.842
302.872
345.389
344.612
343.86
343.314
343.172
343.003
343.042
343.398
343.565
343.716
343.879
343.899
343.714
343.436
343.304
343.177
343.215
343.575
344.132
344.818
339.062
338.34
337.761
337.37
337.122
336.989
337.124
337.243
337.428
337.678
337.654
337.705
337.575
337.385
337.141
337.171
337.271
337.476
337.994
338.531
332.823
332.331
331.689
331.424
331.232
331.096
331.272
331.36
331.568
331.662
331.735
331.725
331.594
331.392
331.279
331.222
331.22
331.548
331.935
332.355
326.733
326.337
325.863
325.544
325.459
325.327
325.445
325.566
325.703
325.711
325.8
325.838
325.747
325.585
325.424
325.386
325.533
325.676
326.053
326.304
320.72
320.451
320.128
319.833
319.709
319.753
319.765
319.749
319.94
319.915
319.952
319.984
319.901
319.821
319.716
319.725
319.748
319.874
320.161
320.393
314.785
314.525
314.329
314.187
314.052
314.048
314.093
314.142
314.137
314.168
314.25
314.244
314.162
314.126
314.094
314.03
314.03
314.177
314.298
314.594
308.861
308.691
308.598
308.503
308.454
308.422
308.479
308.418
308.432
308.541
308.521
308.453
308.474
308.444
308.491
308.478
308.408
308.483
308.557
308.706
302.908
302.961
302.852
302.795
302.865
302.879
302.8
302.77
302.871
302.884
302.869
302.871
302.93
302.849
302.865
302.801
302.86
302.86
302.895
302.998
346.656
345.987
345.221
344.657
344.354
344.317
344.289
344.418
344.738
344.841
344.847
344.763
344.69
344.517
344.378
344.354
344.499
344.783
345.389
346.057
340.202
339.567
338.927
338.437
338.205
338.072
338.072
338.183
338.4
338.526
338.537
338.591
338.396
338.347
338.173
338.163
338.283
338.644
338.966
339.738
333.769
333.221
332.804
332.442
332.123
332.017
332.109
332.201
332.243
332.347
332.433
332.415
332.386
332.281
332.123
332.114
332.201
332.403
332.827
333.277
327.427
327.123
326.692
326.451
326.199
326.152
326.039
326.219
326.259
326.322
326.428
326.372
326.266
326.212
326.095
326.125
326.209
326.39
326.773
327.064
321.356
321.017
320.622
320.455
320.312
320.207
320.289
320.244
320.338
320.481
320.514
320.494
320.414
320.301
320.326
320.207
320.301
320.437
320.702
321.023
315.202
314.967
314.761
314.596
314.432
314.461
314.448
314.462
314.565
314.525
314.486
314.629
314.587
314.427
314.474
314.453
314.519
314.561
314.729
314.998
309.18
308.927
308.803
308.754
308.756
308.634
308.651
308.735
308.69
308.754
308.694
308.729
308.722
308.69
308.678
308.72
308.67
308.846
308.856
309.018
303.074
303.007
302.934
302.917
302.842
302.894
302.949
302.842
302.958
302.961
302.977
302.967
302.935
302.921
302.924
302.852
302.95
302.932
302.934
303.059
348.061
347.21
346.473
346.005
345.609
345.441
345.426
345.668
345.653
345.849
345.778
345.855
345.67
345.625
345.647
345.605
345.687
346.033
346.737
347.407
341.33
340.694
340.132
339.601
339.293
339.221
339.155
339.229
339.29
339.431
339.39
339.394
339.428
339.261
339.193
339.232
339.281
339.693
340.158
340.709
334.749
334.258
333.706
333.387
333.014
332.98
332.966
333.019
333.12
333.154
333.16
333.178
333.14
332.977
333.018
332.896
333.069
333.403
333.897
334.27
328.343
327.889
327.42
327.1
326.941
326.799
326.76
326.829
326.949
327.001
327.048
326.959
326.919
326.84
326.877
326.92
326.865
327.248
327.48
327.776
321.927
321.608
321.354
321.026
320.851
320.827
320.805
320.736
320.879
320.958
320.932
320.896
320.857
320.838
320.773
320.793
320.878
321.148
321.359
321.564
315.749
315.441
315.155
314.953
314.8
314.779
314.827
314.801
314.872
314.943
314.933
314.92
314.877
314.829
314.767
314.82
314.916
314.947
315.113
315.371
309.416
309.265
309.063
309.017
308.864
308.901
308.917
308.919
308.932
308.953
308.946
308.909
308.87
308.884
308.882
308.744
308.957
308.944
309.124
309.246
303.17
303.067
303.025
302.921
302.999
302.93
302.968
303.028
303.013
302.922
303.026
303.037
303.002
302.919
302.978
302.962
302.984
303.098
302.983
303.084
349.332
348.648
347.83
347.272
346.956
346.773
346.636
346.707
346.732
346.956
346.901
346.934
346.865
346.745
346.761
346.719
347.038
347.405
347.987
348.625
342.467
341.847
341.22
340.722
340.339
340.16
340.184
340.195
340.294
340.387
340.315
340.33
340.26
340.231
340.188
340.248
340.408
340.706
341.285
341.889
335.716
335.168
334.625
334.246
334.015
333.827
333.774
333.763
333.811
333.875
333.912
333.954
333.872
333.857
333.75
333.891
333.951
334.13
334.753
335.128
329.051
328.613
328.231
327.824
327.709
327.499
327.496
327.476
327.61
327.613
327.634
327.646
327.612
327.503
327.452
327.625
327.662
327.968
328.287
328.663
322.56
322.184
321.957
321.714
321.469
321.411
321.352
321.34
321.335
321.303
321.337
321.411
321.301
321.271
321.355
321.354
321.439
321.653
321.919
322.152
316.019
315.819
315.641
315.369
315.306
315.152
315.198
315.23
315.262
315.268
315.269
315.272
315.255
315.263
315.165
315.139
315.251
315.379
315.6
315.793
309.624
309.511
309.344
309.32
309.27
309.167
309.08
309.159
309.1
309.139
309.159
309.192
309.075
309.113
309.048
309.155
309.21
309.25
309.359
309.423
303.177
303.189
303.172
303.155
303.154
303.055
303.097
303.073
303.017
303.06
303.021
303.052
303.028
303.065
303.024
302.988
303.059
303.148
303.101
303.209
350.582
349.919
349.152
348.544
348.214
347.953
347.909
347.912
347.817
347.985
347.929
347.833
347.932
347.916
347.868
348.002
348.194
348.71
349.263
349.984
343.492
342.942
342.358
341.778
341.436
341.216
341.136
341.151
341.218
341.303
341.232
341.244
341.155
341.131
341.166
341.352
341.439
341.85
342.283
342.865
336.676
336.092
335.585
335.173
334.893
334.749
334.612
334.597
334.547
334.648
334.658
334.761
334.602
334.621
334.593
334.751
334.899
335.235
335.586
335.999
329.831
329.402
328.991
328.619
328.384
328.22
328.274
328.221
328.22
328.231
328.216
328.166
328.161
328.183
328.16
328.117
328.329
328.656
329.033
329.266
323.155
322.771
322.495
322.215
321.977
321.808
321.833
321.802
321.855
321.849
321.874
321.859
321.906
321.876
321.818
321.845
322.02
322.12
322.441
322.659
316.471
316.224
315.969
315.831
315.682
315.629
315.543
315.599
315.536
315.588
315.59
315.557
315.475
315.511
315.488
315.594
315.675
315.803
316.033
316.198
309.882
309.749
309.6
309.492
309.386
309.342
309.278
309.334
309.278
309.311
309.351
309.298
309.357
309.321
309.301
309.377
309.41
309.478
309.553
309.717
303.269
303.317
303.156
303.164
303.119
303.095
303.158
303.143
303.136
303.1
303.126
303.173
303.159
303.136
303.149
303.113
303.098
303.21
303.205
303.305
351.757
351.048
350.331
349.735
349.328
349.031
348.91
348.893
348.936
348.89
348.898
348.933
348.937
348.995
348.885
349.087
349.313
349.765
350.479
351.041
344.646
343.967
343.314
342.835
342.484
342.268
342.062
342.051
342.025
342.001
342.074
342.07
342.02
342.049
342.083
342.25
342.41
342.807
343.317
343.852
337.426
337.033
336.341
335.968
335.638
335.504
335.414
335.301
335.259
335.352
335.327
335.411
335.382
335.383
335.403
335.475
335.598
335.86
336.434
336.853
330.457
330.118
329.603
329.332
329.044
328.925
328.745
328.792
328.773
328.738
328.71
328.75
328.749
328.705
328.811
328.802
328.977
329.3
329.607
330.046
323.558
323.309
322.913
322.753
322.518
322.347
322.314
322.33
322.263
322.262
322.361
322.236
322.304
322.242
322.303
322.414
322.459
322.74
322.971
323.164
316.875
316.623
316.36
316.174
316.022
315.988
315.917
315.879
315.85
315.856
315.81
315.822
315.807
315.841
315.895
315.947
316.01
316.155
316.329
316.558
310.119
309.933
309.8
309.678
309.611
309.516
309.568
309.576
309.473
309.485
309.454
309.478
309.502
309.5
309.518
309.478
309.578
309.745
309.741
309.925
303.407
303.289
303.318
303.257
303.247
303.189
303.283
303.148
303.203
303.156
303.182
303.226
303.158
303.094
303.146
303.231
303.194
303.214
303.37
303.264
352.747
351.993
351.231
350.656
350.327
349.946
349.773
349.658
349.606
349.718
349.66
349.64
349.679
349.671
349.682
349.915
350.176
350.692
351.27
351.996
345.264
344.767
344.082
343.601
343.16
342.873
342.811
342.685
342.685
342.649
342.741
342.652
342.608
342.643
342.848
342.935
343.174
343.569
344.086
344.661
338.048
337.549
337.065
336.508
336.301
336.007
335.929
335.819
335.843
335.83
335.81
335.854
335.805
335.889
335.925
336.041
336.288
336.579
337.065
337.426
331.004
330.554
330.062
329.734
329.439
329.348
329.254
329.137
329.165
329.168
329.19
329.11
329.126
329.175
329.149
329.212
329.448
329.767
330.123
330.433
324.013
323.686
323.401
323.113
322.831
322.7
322.694
322.565
322.601
322.488
322.584
322.576
322.605
322.601
322.607
322.638
322.864
322.988
323.254
323.646
317.066
316.882
316.606
316.354
316.279
316.21
316.167
316.043
316.082
316.04
316.054
316.082
316.027
316.152
316.046
316.125
316.229
316.371
316.686
316.759
310.238
310.146
309.895
309.796
309.661
309.647
309.627
309.658
309.707
309.601
309.599
309.639
309.632
309.589
309.663
309.738
309.775
309.802
309.973
310.078
303.469
303.391
303.355
303.368
303.27
303.213
303.221
303.154
303.251
303.186
303.24
303.225
303.184
303.244
303.219
303.224
303.27
303.272
303.331
303.365
)
;

boundaryField
{
    hotSide
    {
        type            fixedGradient;
        gradient        nonuniform List<scalar> 
400
(
321.511
322.87
325.591
329.677
335.133
341.965
350.181
359.788
370.794
383.208
397.037
412.289
428.971
447.088
466.647
487.651
510.105
534.011
559.372
586.191
323.738
325.08
327.767
331.802
337.194
343.949
352.078
361.591
372.498
384.81
398.537
413.687
430.268
448.289
467.755
488.672
511.043
534.872
560.161
586.913
326.149
327.47
330.116
334.091
339.406
346.071
354.099
363.503
374.296
386.491
400.101
415.136
431.606
449.52
468.885
489.706
511.988
535.735
560.948
587.63
328.704
330
332.597
336.503
341.73
348.292
356.205
365.485
376.15
388.215
401.695
416.604
432.954
450.753
470.009
490.73
512.919
536.579
561.714
588.325
331.33
332.599
335.142
338.97
344.099
350.546
358.332
367.477
378.003
389.928
403.271
418.047
434.27
451.949
471.095
491.712
513.807
537.382
562.439
588.978
333.918
335.158
337.643
341.389
346.414
352.74
360.392
369.397
379.779
391.562
404.765
419.407
435.503
453.065
472.101
492.618
514.622
538.114
563.096
589.569
336.321
337.531
339.959
343.622
348.544
354.751
362.274
371.142
381.385
393.031
406.101
420.618
436.595
454.047
472.983
493.409
515.33
538.747
563.663
590.076
338.36
339.543
341.92
345.509
350.339
356.44
363.847
372.595
382.718
394.244
407.2
421.608
437.485
454.844
473.695
494.045
515.897
539.253
564.114
590.478
339.852
341.015
343.352
346.885
351.645
357.665
364.985
373.643
383.675
395.113
407.984
422.312
438.116
455.407
474.197
494.491
516.294
539.606
564.428
590.758
340.643
341.795
344.11
347.613
352.334
358.311
365.584
374.193
384.176
395.567
408.393
422.679
438.443
455.699
474.456
494.722
516.498
539.788
564.589
590.901
340.643
341.795
344.11
347.613
352.334
358.311
365.584
374.193
384.176
395.567
408.393
422.679
438.443
455.699
474.456
494.722
516.498
539.788
564.589
590.901
339.852
341.015
343.352
346.885
351.645
357.665
364.985
373.643
383.675
395.113
407.984
422.312
438.116
455.407
474.197
494.491
516.294
539.606
564.428
590.758
338.36
339.543
341.92
345.509
350.339
356.44
363.847
372.595
382.718
394.244
407.2
421.608
437.485
454.844
473.695
494.045
515.897
539.253
564.114
590.478
336.321
337.531
339.959
343.622
348.544
354.751
362.274
371.142
381.385
393.031
406.101
420.618
436.595
454.047
472.983
493.409
515.33
538.747
563.663
590.076
333.918
335.158
337.643
341.389
346.414
352.74
360.392
369.397
379.779
391.562
404.765
419.407
435.503
453.065
472.101
492.618
514.622
538.114
563.096
589.569
331.33
332.599
335.142
338.97
344.099
350.546
358.332
367.477
378.003
389.928
403.271
418.047
434.27
451.949
471.095
491.712
513.807
537.382
562.439
588.978
328.704
330
332.597
336.503
341.73
348.292
356.205
365.485
376.15
388.215
401.695
416.604
432.954
450.753
470.009
490.73
512.919
536.579
561.714
588.325
326.149
327.47
330.116
334.091
339.406
346.071
354.099
363.503
374.296
386.491
400.101
415.136
431.606
449.52
468.885
489.706
511.988
535.735
560.948
587.63
323.738
325.08
327.767
331.802
337.194
343.949
352.078
361.591
372.498
384.81
398.537
413.687
430.268
448.289
467.755
488.672
511.043
534.872
560.161
586.913
321.511
322.87
325.591
329.677
335.133
341.965
350.181
359.788
370.794
383.208
397.037
412.289
428.971
447.088
466.647
487.651
510.105
534.011
559.372
586.191
)
;
    }
    coldSide
    {
        type            mixed;
        refValue        uniform 300;
        refGradient     uniform 0;
        valueFraction   uniform 0.991591;
        source          uniform 0;
        value           nonuniform List<scalar> 
400
(
300.018
300.018
300.019
300.018
300.019
300.02
300.02
300.021
300.022
300.022
300.023
300.023
300.024
300.024
300.026
300.027
300.027
300.027
300.029
300.029
300.018
300.019
300.018
300.019
300.019
300.019
300.021
300.021
300.021
300.022
300.022
300.023
300.024
300.025
300.025
300.026
300.027
300.028