/*--------------------------------*- C++ -*----------------------------------*\
| =========                 |                                                 |
| \\      /  F ield         | OpenFOAM: The Open Source CFD Toolbox           |
|  \\    /   O peration     | Version:  2212                                  |
|   \\  /    A nd           | Website:  www.openfoam.com                      |
|    \\/     M anipulation  |                                                 |
\*---------------------------------------------------------------------------*/
FoamFile
{
    version     2.0;
    format      ascii;
    arch        "LSB;label=32;scalar=64";
    class       volScalarField;
    location    "0";
    object      Tdirect;
}
// * * * * * * * * * * * * * * * * * * * * * * * * * * * * * * * * * * * * * //

dimensions      [0 0 0 1 0 0 0];

internalField   nonuniform List<scalar> 
3200
(
344.467
344.985
345.648
346.37
347.114
347.844
348.518
349.086
349.501
349.72
349.72
349.501
349.086
348.518
347.844
347.114
346.37
345.648
344.985
344.467
338.631
339.07
339.642
340.266
340.91
341.541
342.124
342.615
342.973
343.162
343.162
342.973
342.615
342.124
341.541
340.91
340.266
339.642
339.07
338.631
332.756
333.121
333.602
334.13
334.674
335.207
335.699
336.114
336.416
336.575
336.575
336.416
336.114
335.699
335.207
334.674
334.13
333.602
333.121
332.756
326.849
327.143
327.535
327.967
328.411
328.847
329.249
329.587
329.834
329.964
329.964
329.834
329.587
329.249
328.847
328.411
327.967
327.535
327.143
326.849
320.916
321.141
321.445
321.781
322.126
322.465
322.777
323.04
323.231
323.332
323.332
323.231
323.04
322.777
322.465
322.126
321.781
321.445
321.141
320.916
314.962
315.121
315.338
315.577
315.824
316.066
316.289
316.477
316.613
316.685
316.685
316.613
316.477
316.289
316.066
315.824
315.577
315.338
315.121
314.962
308.993
309.088
309.218
309.362
309.51
309.655
309.789
309.902
309.984
310.027
310.027
309.984
309.902
309.789
309.655
309.51
309.362
309.218
309.088
308.993
303.016
303.047
303.091
303.139
303.189
303.237
303.282
303.32
303.347
303.362
303.362
303.347
303.32
303.282
303.237
303.189
303.139
303.091
303.047
303.016
344.624
345.139
345.796
346.511
347.247
347.969
348.635
349.197
349.606
349.822
349.822
349.606
349.197
348.635
347.969
347.247
346.511
345.796
345.139
344.624
338.768
339.203
339.77
340.389
341.026
341.65
342.226
342.712
343.065
343.251
343.251
343.065
342.712
342.226
341.65
341.026
340.389
339.77
339.203
338.768
332.872
333.234
333.711
334.234
334.772
335.3
335.786
336.196
336.494
336.651
336.651
336.494
336.196
335.786
335.3
334.772
334.234
333.711
333.234
332.872
326.944
327.235
327.624
328.052
328.492
328.923
329.32
329.655
329.898
330.026
330.026
329.898
329.655
329.32
328.923
328.492
328.052
327.624
327.235
326.944
320.99
321.213
321.515
321.847
322.189
322.524
322.833
323.092
323.281
323.381
323.381
323.281
323.092
322.833
322.524
322.189
321.847
321.515
321.213
320.99
315.015
315.173
315.388
315.625
315.869
316.108
316.329
316.514
316.649
316.72
316.72
316.649
316.514
316.329
316.108
315.869
315.625
315.388
315.173
315.015
309.025
309.119
309.248
309.39
309.537
309.681
309.813
309.924
310.005
310.048
310.048
310.005
309.924
309.813
309.681
309.537
309.39
309.248
309.119
309.025
303.026
303.058
303.101
303.149
303.198
303.246
303.29
303.328
303.355
303.369
303.369
303.355
303.328
303.29
303.246
303.198
303.149
303.101
303.058
303.026
344.94
345.447
346.092
346.794
347.516
348.222
348.873
349.42
349.819
350.029
350.029
349.819
349.42
348.873
348.222
347.516
346.794
346.092
345.447
344.94
339.042
339.471
340.028
340.635
341.259
341.87
342.433
342.906
343.251
343.432
343.432
343.251
342.906
342.433
341.87
341.259
340.635
340.028
339.471
339.042
333.104
333.46
333.929
334.443
334.97
335.487
335.962
336.361
336.652
336.805
336.805
336.652
336.361
335.962
335.487
334.97
334.443
333.929
333.46
333.104
327.134
327.421
327.803
328.223
328.654
329.076
329.464
329.79
330.028
330.153
330.153
330.028
329.79
329.464
329.076
328.654
328.223
327.803
327.421
327.134
321.138
321.358
321.654
321.98
322.315
322.643
322.945
323.198
323.382
323.48
323.48
323.382
323.198
322.945
322.643
322.315
321.98
321.654
321.358
321.138
315.12
315.276
315.487
315.72
315.96
316.194
316.409
316.59
316.721
316.791
316.791
316.721
316.59
316.409
316.194
315.96
315.72
315.487
315.276
315.12
309.088
309.181
309.308
309.448
309.592
309.732
309.861
309.97
310.049
310.09
310.09
310.049
309.97
309.861
309.732
309.592
309.448
309.308
309.181
309.088
303.048
303.079
303.121
303.168
303.216
303.263
303.306
303.343
303.369
303.383
303.383
303.369
303.343
303.306
303.263
303.216
303.168
303.121
303.079
303.048
345.415
345.91
346.539
347.222
347.922
348.606
349.234
349.762
350.146
350.348
350.348
350.146
349.762
349.234
348.606
347.922
347.222
346.539
345.91
345.415
339.454
339.873
340.416
341.007
341.612
342.204
342.747
343.204
343.535
343.71
343.71
343.535
343.204
342.747
342.204
341.612
341.007
340.416
339.873
339.454
333.454
333.801
334.258
334.758
335.27
335.77
336.229
336.614
336.894
337.041
337.041
336.894
336.614
336.229
335.77
335.27
334.758
334.258
333.801
333.454
327.42
327.7
328.073
328.481
328.9
329.308
329.683
329.998
330.226
330.347
330.347
330.226
329.998
329.683
329.308
328.9
328.481
328.073
327.7
327.42
321.36
321.575
321.864
322.181
322.507
322.824
323.116
323.36
323.538
323.631
323.631
323.538
323.36
323.116
322.824
322.507
322.181
321.864
321.575
321.36
315.279
315.431
315.638
315.864
316.097
316.323
316.531
316.706
316.832
316.899
316.899
316.832
316.706
316.531
316.323
316.097
315.864
315.638
315.431
315.279
309.184
309.275
309.398
309.534
309.674
309.81
309.935
310.04
310.116
310.156
310.156
310.116
310.04
309.935
309.81
309.674
309.534
309.398
309.275
309.184
303.08
303.11
303.151
303.197
303.244
303.289
303.331
303.366
303.392
303.405
303.405
303.392
303.366
303.331
303.289
303.244
303.197
303.151
303.11
303.08
346.051
346.53
347.139
347.798
348.471
349.126
349.726
350.23
350.595
350.787
350.787
350.595
350.23
349.726
349.126
348.471
347.798
347.139
346.53
346.051
340.006
340.412
340.937
341.507
342.089
342.656
343.176
343.611
343.926
344.092
344.092
343.926
343.611
343.176
342.656
342.089
341.507
340.937
340.412
340.006
333.921
334.258
334.7
335.182
335.674
336.153
336.592
336.96
337.226
337.366
337.366
337.226
336.96
336.592
336.153
335.674
335.182
334.7
334.258
333.921
327.803
328.074
328.435
328.828
329.231
329.623
329.981
330.282
330.499
330.613
330.613
330.499
330.282
329.981
329.623
329.231
328.828
328.435
328.074
327.803
321.658
321.866
322.146
322.452
322.765
323.07
323.348
323.581
323.75
323.839
323.839
323.75
323.581
323.348
323.07
322.765
322.452
322.146
321.866
321.658
315.493
315.64
315.839
316.058
316.281
316.499
316.698
316.864
316.985
317.048
317.048
316.985
316.864
316.698
316.499
316.281
316.058
315.839
315.64
315.493
309.312
309.4
309.519
309.651
309.785
309.915
310.035
310.135
310.207
310.245
310.245
310.207
310.135
310.035
309.915
309.785
309.651
309.519
309.4
309.312
303.122
303.152
303.192
303.236
303.281
303.325
303.365
303.398
303.422
303.435
303.435
303.422
303.398
303.365
303.325
303.281
303.236
303.192
303.152
303.122
346.849
347.311
347.895
348.525
349.166
349.788
350.357
350.832
351.175
351.356
351.356
351.175
350.832
350.357
349.788
349.166
348.525
347.895
347.311
346.849
340.698
341.089
341.593
342.138
342.693
343.232
343.723
344.134
344.431
344.587
344.587
344.431
344.134
343.723
343.232
342.693
342.138
341.593
341.089
340.698
334.508
334.832
335.257
335.717
336.187
336.642
337.057
337.404
337.655
337.787
337.787
337.655
337.404
337.057
336.642
336.187
335.717
335.257
334.832
334.508
328.284
328.545
328.891
329.267
329.651
330.023
330.363
330.646
330.851
330.959
330.959
330.851
330.646
330.363
330.023
329.651
329.267
328.891
328.545
328.284
322.032
322.233
322.501
322.794
323.092
323.382
323.645
323.866
324.025
324.108
324.108
324.025
323.866
323.645
323.382
323.092
322.794
322.501
322.233
322.032
315.76
315.902
316.093
316.302
316.515
316.722
316.91
317.068
317.181
317.241
317.241
317.181
317.068
316.91
316.722
316.515
316.302
316.093
315.902
315.76
309.473
309.557
309.672
309.798
309.926
310.05
310.163
310.257
310.325
310.361
310.361
310.325
310.257
310.163
310.05
309.926
309.798
309.672
309.557
309.473
303.176
303.205
303.243
303.285
303.328
303.37
303.408
303.439
303.462
303.474
303.474
303.462
303.439
303.408
303.37
303.328
303.285
303.243
303.205
303.176
347.813
348.254
348.811
349.408
350.014
350.6
351.133
351.576
351.897
352.065
352.065
351.897
351.576
351.133
350.6
350.014
349.408
348.811
348.254
347.813
341.534
341.908
342.388
342.905
343.43
343.937
344.398
344.782
345.059
345.204
345.204
345.059
344.782
344.398
343.937
343.43
342.905
342.388
341.908
341.534
335.216
335.526
335.93
336.368
336.811
337.24
337.63
337.954
338.188
338.31
338.31
338.188
337.954
337.63
337.24
336.811
336.368
335.93
335.526
335.216
328.864
329.113
329.443
329.8
330.163
330.514
330.832
331.097
331.288
331.388
331.388
331.288
331.097
330.832
330.514
330.163
329.8
329.443
329.113
328.864
322.484
322.675
322.931
323.209
323.491
323.764
324.011
324.217
324.366
324.444
324.444
324.366
324.217
324.011
323.764
323.491
323.209
322.931
322.675
322.484
316.083
316.218
316.401
316.599
316.801
316.995
317.172
317.319
317.425
317.481
317.481
317.425
317.319
317.172
316.995
316.801
316.599
316.401
316.218
316.083
309.667
309.748
309.857
309.976
310.097
310.214
310.32
310.408
310.472
310.505
310.505
310.472
310.408
310.32
310.214
310.097
309.976
309.857
309.748
309.667
303.241
303.268
303.305
303.345
303.386
303.425
303.46
303.49
303.511
303.522
303.522
303.511
303.49
303.46
303.425
303.386
303.345
303.305
303.268
303.241
348.943
349.362
349.889
350.453
351.021
351.568
352.063
352.474
352.77
352.925
352.925
352.77
352.474
352.063
351.568
351.021
350.453
349.889
349.362
348.943
342.515
342.87
343.325
343.812
344.305
344.778
345.207
345.563
345.819
345.953
345.953
345.819
345.563
345.207
344.778
344.305
343.812
343.325
342.87
342.515
336.047
336.341
336.724
337.137
337.553
337.953
338.316
338.616
338.832
338.946
338.946
338.832
338.616
338.316
337.953
337.553
337.137
336.724
336.341
336.047
329.544
329.781
330.094
330.431
330.771
331.099
331.395
331.641
331.817
331.91
331.91
331.817
331.641
331.395
331.099
330.771
330.431
330.094
329.781
329.544
323.014
323.196
323.438
323.7
323.965
324.219
324.45
324.641
324.778
324.85
324.85
324.778
324.641
324.45
324.219
323.965
323.7
323.438
323.196
323.014
316.462
316.591
316.763
316.95
317.14
317.321
317.486
317.622
317.72
317.772
317.772
317.72
317.622
317.486
317.321
317.14
316.95
316.763
316.591
316.462
309.894
309.971
310.075
310.187
310.301
310.41
310.509
310.591
310.649
310.68
310.68
310.649
310.591
310.509
310.41
310.301
310.187
310.075
309.971
309.894
303.318
303.343
303.378
303.416
303.454
303.49
303.524
303.551
303.571
303.581
303.581
303.571
303.551
303.524
303.49
303.454
303.416
303.378
303.343
303.318
350.243
350.639
351.135
351.662
352.192
352.699
353.156
353.534
353.805
353.947
353.947
353.805
353.534
353.156
352.699
352.192
351.662
351.135
350.639
350.243
343.644
343.979
344.407
344.863
345.322
345.761
346.157
346.484
346.719
346.841
346.841
346.719
346.484
346.157
345.761
345.322
344.863
344.407
343.979
343.644
337.003
337.281
337.641
338.027
338.415
338.787
339.121
339.398
339.596
339.7
339.7
339.596
339.398
339.121
338.787
338.415
338.027
337.641
337.281
337.003
330.327
330.551
330.845
331.16
331.478
331.782
332.055
332.281
332.443
332.528
332.528
332.443
332.281
332.055
331.782
331.478
331.16
330.845
330.551
330.327
323.623
323.795
324.023
324.268
324.515
324.752
324.964
325.14
325.266
325.332
325.332
325.266
325.14
324.964
324.752
324.515
324.268
324.023
323.795
323.623
316.898
317.019
317.182
317.357
317.533
317.702
317.854
317.98
318.069
318.116
318.116
318.069
317.98
317.854
317.702
317.533
317.357
317.182
317.019
316.898
310.156
310.229
310.326
310.431
310.537
310.639
310.73
310.805
310.859
310.888
310.888
310.859
310.805
310.73
310.639
310.537
310.431
310.326
310.229
310.156
303.406
303.43
303.462
303.498
303.533
303.567
303.598
303.623
303.641
303.651
303.651
303.641
303.623
303.598
303.567
303.533
303.498
303.462
303.43
303.406
351.715
352.088
352.551
353.042
353.533
354
354.419
354.765
355.011
355.14
355.14
355.011
354.765
354.419
354
353.533
353.042
352.551
352.088
351.715
344.921
345.236
345.636
346.062
346.487
346.891
347.254
347.553
347.767
347.878
347.878
347.767
347.553
347.254
346.891
346.487
346.062
345.636
345.236
344.921
338.085
338.346
338.684
339.043
339.403
339.745
340.052
340.305
340.485
340.579
340.579
340.485
340.305
340.052
339.745
339.403
339.043
338.684
338.346
338.085
331.214
331.424
331.699
331.993
332.287
332.567
332.818
333.025
333.172
333.249
333.249
333.172
333.025
332.818
332.567
332.287
331.993
331.699
331.424
331.214
324.313
324.475
324.688
324.917
325.145
325.363
325.558
325.719
325.834
325.894
325.894
325.834
325.719
325.558
325.363
325.145
324.917
324.688
324.475
324.313
317.391
317.505
317.657
317.821
317.984
318.14
318.279
318.394
318.476
318.519
318.519
318.476
318.394
318.279
318.14
317.984
317.821
317.657
317.505
317.391
310.453
310.521
310.612
310.71
310.808
310.902
310.986
311.054
311.104
311.129
311.129
311.104
311.054
310.986
310.902
310.808
310.71
310.612
310.521
310.453
303.505
303.528
303.558
303.591
303.624
303.655
303.683
303.707
303.723
303.732
303.732
303.723
303.707
303.683
303.655
303.624
303.591
303.558
303.528
303.505
353.362
353.71
354.142
354.597
355.048
355.477
355.859
356.172
356.396
356.512
356.512
356.396
356.172
355.859
355.477
355.048
354.597
354.142
353.71
353.362
346.35
346.645
347.017
347.411
347.803
348.174
348.505
348.776
348.97
349.07
349.07
348.97
348.776
348.505
348.174
347.803
347.411
347.017
346.645
346.35
339.296
339.54
339.854
340.187
340.518
340.832
341.112
341.342
341.505
341.59
341.59
341.505
341.342
341.112
340.832
340.518
340.187
339.854
339.54
339.296
332.205
332.402
332.658
332.93
333.201
333.458
333.687
333.875
334.009
334.078
334.078
334.009
333.875
333.687
333.458
333.201
332.93
332.658
332.402
332.205
325.085
325.236
325.435
325.647
325.857
326.057
326.235
326.381
326.485
326.54
326.54
326.485
326.381
326.235
326.057
325.857
325.647
325.435
325.236
325.085
317.943
318.05
318.191
318.343
318.493
318.636
318.763
318.868
318.942
318.981
318.981
318.942
318.868
318.763
318.636
318.493
318.343
318.191
318.05
317.943
310.784
310.848
310.933
311.024
311.114
311.2
311.277
311.339
311.384
311.407
311.407
311.384
311.339
311.277
311.2
311.114
311.024
310.933
310.848
310.784
303.616
303.637
303.666
303.696
303.727
303.755
303.781
303.802
303.817
303.825
303.825
303.817
303.802
303.781
303.755
303.727
303.696
303.666
303.637
303.616
355.185
355.509
355.909
356.328
356.743
357.133
357.48
357.764
357.965
358.07
358.07
357.965
357.764
357.48
357.133
356.743
356.328
355.909
355.509
355.185
347.932
348.206
348.552
348.915
349.274
349.612
349.913
350.159
350.333
350.424
350.424
350.333
350.159
349.913
349.612
349.274
348.915
348.552
348.206
347.932
340.636
340.863
341.154
341.461
341.765
342.052
342.306
342.514
342.661
342.738
342.738
342.661
342.514
342.306
342.052
341.765
341.461
341.154
340.863
340.636
333.303
333.486
333.723
333.974
334.223
334.457
334.665
334.835
334.956
335.019
335.019
334.956
334.835
334.665
334.457
334.223
333.974
333.723
333.486
333.303
325.94
326.08
326.265
326.46
326.653
326.836
326.997
327.13
327.223
327.272
327.272
327.223
327.13
326.997
326.836
326.653
326.46
326.265
326.08
325.94
318.554
318.653
318.785
318.924
319.062
319.193
319.308
319.403
319.47
319.505
319.505
319.47
319.403
319.308
319.193
319.062
318.924
318.785
318.653
318.554
311.152
311.211
311.29
311.373
311.456
311.535
311.604
311.661
311.701
311.722
311.722
311.701
311.661
311.604
311.535
311.456
311.373
311.29
311.211
311.152
303.739
303.759
303.785
303.814
303.841
303.868
303.891
303.91
303.923
303.93
303.93
303.923
303.91
303.891
303.868
303.841
303.814
303.785
303.759
303.739
357.185
357.486
357.855
358.241
358.619
358.974
359.288
359.543
359.724
359.817
359.817
359.724
359.543
359.288
358.974
358.619
358.241
357.855
357.486
357.185
349.668
349.922
350.241
350.575
350.903
351.211
351.483
351.704
351.86
351.942
351.942
351.86
351.704
351.483
351.211
350.903
350.575
350.241
349.922
349.668
342.106
342.317
342.586
342.868
343.146
343.406
343.636
343.824
343.956
344.025
344.025
343.956
343.824
343.636
343.406
343.146
342.868
342.586
342.317
342.106
334.507
334.677
334.896
335.127
335.354
335.567
335.756
335.909
336.017
336.073
336.073
336.017
335.909
335.756
335.567
335.354
335.127
334.896
334.677
334.507
326.878
327.008
327.178
327.357
327.534
327.7
327.846
327.966
328.05
328.094
328.094
328.05
327.966
327.846
327.7
327.534
327.357
327.178
327.008
326.878
319.224
319.317
319.438
319.566
319.692
319.811
319.916
320.001
320.061
320.092
320.092
320.061
320.001
319.916
319.811
319.692
319.566
319.438
319.317
319.224
311.554
311.609
311.682
311.759
311.835
311.906
311.969
312.02
312.056
312.075
312.075
312.056
312.02
311.969
311.906
311.835
311.759
311.682
311.609
311.554
303.874
303.893
303.917
303.943
303.968
303.992
304.013
304.03
304.042
304.049
304.049
304.042
304.03
304.013
303.992
303.968
303.943
303.917
303.893
303.874
359.363
359.641
359.981
360.334
360.679
361
361.283
361.512
361.674
361.758
361.758
361.674
361.512
361.283
361
360.679
360.334
359.981
359.641
359.363
351.558
351.793
352.087
352.392
352.691
352.97
353.215
353.414
353.554
353.626
353.626
353.554
353.414
353.215
352.97
352.691
352.392
352.087
351.793
351.558
343.707
343.902
344.149
344.408
344.661
344.897
345.104
345.272
345.391
345.452
345.452
345.391
345.272
345.104
344.897
344.661
344.408
344.149
343.902
343.707
335.818
335.975
336.177
336.388
336.595
336.788
336.958
337.096
337.193
337.243
337.243
337.193
337.096
336.958
336.788
336.595
336.388
336.177
335.975
335.818
327.898
328.018
328.175
328.339
328.5
328.651
328.783
328.89
328.965
329.004
329.004
328.965
328.89
328.783
328.651
328.5
328.339
328.175
328.018
327.898
319.954
320.039
320.151
320.268
320.383
320.491
320.585
320.662
320.716
320.744
320.744
320.716
320.662
320.585
320.491
320.383
320.268
320.151
320.039
319.954
311.993
312.044
312.111
312.181
312.25
312.315
312.371
312.417
312.45
312.467
312.467
312.45
312.417
312.371
312.315
312.25
312.181
312.111
312.044
311.993
304.021
304.038
304.061
304.084
304.108
304.129
304.148
304.164
304.174
304.18
304.18
304.174
304.164
304.148
304.129
304.108
304.084
304.061
304.038
304.021
361.715
361.972
362.284
362.606
362.919
363.21
363.464
363.67
363.814
363.889
363.889
363.814
363.67
363.464
363.21
362.919
362.606
362.284
361.972
361.715
353.598
353.815
354.085
354.364
354.635
354.887
355.108
355.286
355.411
355.476
355.476
355.411
355.286
355.108
354.887
354.635
354.364
354.085
353.815
353.598
345.435
345.615
345.842
346.078
346.308
346.521
346.708
346.858
346.964
347.019
347.019
346.964
346.858
346.708
346.521
346.308
346.078
345.842
345.615
345.435
337.233
337.377
337.563
337.756
337.944
338.118
338.271
338.395
338.481
338.526
338.526
338.481
338.395
338.271
338.118
337.944
337.756
337.563
337.377
337.233
328.999
329.11
329.254
329.404
329.55
329.686
329.805
329.901
329.969
330.003
330.003
329.969
329.901
329.805
329.686
329.55
329.404
329.254
329.11
328.999
320.741
320.82
320.922
321.029
321.134
321.231
321.316
321.385
321.433
321.458
321.458
321.433
321.385
321.316
321.231
321.134
321.029
320.922
320.82
320.741
312.466
312.512
312.574
312.638
312.701
312.76
312.811
312.852
312.881
312.896
312.896
312.881
312.852
312.811
312.76
312.701
312.638
312.574
312.512
312.466
304.18
304.195
304.216
304.238
304.259
304.278
304.295
304.309
304.319
304.324
304.324
304.319
304.309
304.295
304.278
304.259
304.238
304.216
304.195
304.18
364.232
364.468
364.754
365.048
365.332
365.594
365.822
366.006
366.135
366.201
366.201
366.135
366.006
365.822
365.594
365.332
365.048
364.754
364.468
364.232
355.779
355.979
356.226
356.48
356.727
356.954
357.152
357.312
357.423
357.481
357.481
357.423
357.312
357.152
356.954
356.727
356.48
356.226
355.979
355.779
347.28
347.446
347.654
347.869
348.078
348.27
348.438
348.573
348.668
348.717
348.717
348.668
348.573
348.438
348.27
348.078
347.869
347.654
347.446
347.28
338.743
338.876
339.046
339.222
339.393
339.55
339.688
339.798
339.875
339.915
339.915
339.875
339.798
339.688
339.55
339.393
339.222
339.046
338.876
338.743
330.174
330.276
330.408
330.545
330.678
330.8
330.907
330.993
331.053
331.084
331.084
331.053
330.993
330.907
330.8
330.678
330.545
330.408
330.276
330.174
321.58
321.653
321.747
321.844
321.939
322.027
322.104
322.165
322.208
322.23
322.23
322.208
322.165
322.104
322.027
321.939
321.844
321.747
321.653
321.58
312.97
313.013
313.069
313.128
313.185
313.238
313.284
313.321
313.346
313.36
313.36
313.346
313.321
313.284
313.238
313.185
313.128
313.069
313.013
312.97
304.349
304.363
304.382
304.402
304.421
304.439
304.454
304.466
304.475
304.479
304.479
304.475
304.466
304.454
304.439
304.421
304.402
304.382
304.363
304.349
366.885
367.102
367.364
367.631
367.889
368.125
368.331
368.495
368.61
368.669
368.669
368.61
368.495
368.331
368.125
367.889
367.631
367.364
367.102
366.885
358.075
358.258
358.484
358.716
358.939
359.145
359.323
359.465
359.565
359.617
359.617
359.565
359.465
359.323
359.145
358.939
358.716
358.484
358.258
358.075
349.219
349.372
349.562
349.758
349.948
350.121
350.272
350.393
350.477
350.521
350.521
350.477
350.393
350.272
350.121
349.948
349.758
349.562
349.372
349.219
340.327
340.449
340.605
340.765
340.92
341.063
341.186
341.285
341.354
341.39
341.39
341.354
341.285
341.186
341.063
340.92
340.765
340.605
340.449
340.327
331.405
331.499
331.619
331.744
331.865
331.975
332.072
332.149
332.202
332.23
332.23
332.202
332.149
332.072
331.975
331.865
331.744
331.619
331.499
331.405
322.459
322.526
322.612
322.701
322.787
322.866
322.935
322.99
323.028
323.048
323.048
323.028
322.99
322.935
322.866
322.787
322.701
322.612
322.526
322.459
313.497
313.537
313.588
313.642
313.694
313.741
313.783
313.816
313.839
313.851
313.851
313.839
313.816
313.783
313.741
313.694
313.642
313.588
313.537
313.497
304.526
304.539
304.556
304.574
304.591
304.607
304.621
304.632
304.64
304.644
304.644
304.64
304.632
304.621
304.607
304.591
304.574
304.556
304.539
304.526
369.605
369.804
370.044
370.288
370.522
370.736
370.921
371.068
371.171
371.224
371.224
371.171
371.068
370.921
370.736
370.522
370.288
370.044
369.804
369.605
360.417
360.586
360.793
361.004
361.207
361.393
361.553
361.682
361.771
361.817
361.817
361.771
361.682
361.553
361.393
361.207
361.004
360.793
360.586
360.417
351.19
351.33
351.505
351.684
351.856
352.013
352.149
352.258
352.333
352.372
352.372
352.333
352.258
352.149
352.013
351.856
351.684
351.505
351.33
351.19
341.931
342.044
342.186
342.333
342.474
342.603
342.714
342.803
342.865
342.897
342.897
342.865
342.803
342.714
342.603
342.474
342.333
342.186
342.044
341.931
332.647
332.734
332.844
332.959
333.068
333.169
333.255
333.325
333.373
333.398
333.398
333.373
333.325
333.255
333.169
333.068
332.959
332.844
332.734
332.647
323.344
323.405
323.484
323.566
323.644
323.716
323.778
323.828
323.862
323.88
323.88
323.862
323.828
323.778
323.716
323.644
323.566
323.484
323.405
323.344
314.028
314.064
314.112
314.161
314.208
314.251
314.288
314.318
314.339
314.349
314.349
314.339
314.318
314.288
314.251
314.208
314.161
314.112
314.064
314.028
304.703
304.715
304.731
304.748
304.763
304.778
304.79
304.8
304.807
304.811
304.811
304.807
304.8
304.79
304.778
304.763
304.748
304.731
304.715
304.703
372.214
372.399
372.62
372.845
373.058
373.253
373.421
373.555
373.648
373.695
373.695
373.648
373.555
373.421
373.253
373.058
372.845
372.62
372.399
372.214
362.637
362.793
362.984
363.179
363.365
363.534
363.68
363.797
363.877
363.919
363.919
363.877
363.797
363.68
363.534
363.365
363.179
362.984
362.793
362.637
353.037
353.167
353.329
353.494
353.651
353.795
353.919
354.018
354.086
354.121
354.121
354.086
354.018
353.919
353.795
353.651
353.494
353.329
353.167
353.037
343.421
343.526
343.658
343.793
343.922
344.04
344.142
344.223
344.279
344.308
344.308
344.279
344.223
344.142
344.04
343.922
343.793
343.658
343.526
343.421
333.793
333.873
333.976
334.081
334.182
334.274
334.353
334.416
334.46
334.482
334.482
334.46
334.416
334.353
334.274
334.182
334.081
333.976
333.873
333.793
324.156
324.213
324.286
324.361
324.433
324.499
324.556
324.601
324.632
324.648
324.648
324.632
324.601
324.556
324.499
324.433
324.361
324.286
324.213
324.156
314.512
314.546
314.59
314.635
314.679
314.718
314.752
314.779
314.798
314.808
314.808
314.798
314.779
314.752
314.718
314.679
314.635
314.59
314.546
314.512
304.865
304.876
304.891
304.906
304.921
304.934
304.945
304.955
304.961
304.964
304.964
304.961
304.955
304.945
304.934
304.921
304.906
304.891
304.876
304.865
374.254
374.427
374.636
374.846
375.046
375.228
375.384
375.508
375.594
375.638
375.638
375.594
375.508
375.384
375.228
375.046
374.846
374.636
374.427
374.254
364.306
364.454
364.634
364.817
364.992
365.15
365.287
365.395
365.47
365.509
365.509
365.47
365.395
365.287
365.15
364.992
364.817
364.634
364.454
364.306
354.384
354.507
354.66
354.815
354.964
355.098
355.214
355.307
355.371
355.403
355.403
355.371
355.307
355.214
355.098
354.964
354.815
354.66
354.507
354.384
344.481
344.58
344.705
344.833
344.955
345.066
345.161
345.237
345.29
345.317
345.317
345.29
345.237
345.161
345.066
344.955
344.833
344.705
344.58
344.481
334.593
334.669
334.766
334.866
334.961
335.048
335.122
335.181
335.222
335.243
335.243
335.222
335.181
335.122
335.048
334.961
334.866
334.766
334.669
334.593
324.714
324.768
324.838
324.909
324.977
325.039
325.093
325.135
325.164
325.18
325.18
325.164
325.135
325.093
325.039
324.977
324.909
324.838
324.768
324.714
314.843
314.875
314.917
314.96
315.001
315.038
315.07
315.096
315.113
315.122
315.122
315.113
315.096
315.07
315.038
315.001
314.96
314.917
314.875
314.843
304.975
304.986
305
305.014
305.028
305.04
305.051
305.06
305.066
305.069
305.069
305.066
305.06
305.051
305.04
305.028
305.014
305
304.986
304.975
)
;

boundaryField
{
    hotSide
    {
        type            fixedGradient;
        gradient        nonuniform List<scalar> 
400
(
463.246
464.908
468.238
473.247
479.949
488.365
498.516
510.426
524.121
539.625
556.962
576.155
597.225
620.19
645.068
671.871
700.612
731.301
763.944
798.548
470.074
471.682
474.906
479.76
486.265
494.445
504.331
515.954
529.345
544.536
561.558
580.438
601.201
623.871
648.465
674.999
703.487
733.939
766.363
800.763
477.463
479.007
482.104
486.775
493.045
500.95
510.526
521.814
534.855
549.688
566.352
584.88
605.302
627.643
651.927
678.169
706.385
736.584
768.774
802.96
485.291
486.76
489.711
494.168
500.169
507.756
516.978
527.888
540.535
554.971
571.239
589.381
609.432
631.421
655.373
681.307
709.237
739.173
771.122
805.089
493.34
494.724
497.51
501.729
507.429
514.664
523.498
533.993
546.215
560.222
576.068
593.803
613.465
635.089
658.7
684.319
711.959
741.632
773.341
807.091
501.273
502.567
505.176
509.142
514.522
521.387
529.813
539.878
551.659
565.228
580.646
597.971
617.245
638.507
661.784
687.096
714.457
743.876
775.358
808.903
508.637
509.84
512.273
515.987
521.052
527.552
535.579
545.225
556.582
569.73
584.743
601.68
620.593
641.519
664.487
689.519
716.626
745.817
777.095
810.457
514.887
516.008
518.283
521.77
526.553
532.728
540.401
549.68
560.665
573.448
588.11
604.716
623.319
643.961
666.671
691.468
718.365
747.367
778.476
811.689
519.46
520.519
522.673
525.987
530.555
536.483
543.89
552.892
563.599
576.111
590.513
606.875
625.252
645.686
668.208
692.836
719.581
748.449
779.439
812.545
521.884
522.909
524.996
528.217
532.667
538.462
545.725
554.578
565.136
577.502
591.766
607.998
626.255
646.58
669.003
693.542
720.208
749.006
779.933
812.984
521.884
522.909
524.996
528.217
532.667
538.462
545.725
554.578
565.136
577.502
591.766
607.998
626.255
646.58
669.003
693.542
720.208
749.006
779.933
812.984
519.46
520.519
522.673
525.987
530.555
536.483
543.89
552.892
563.599
576.111
590.513
606.875
625.252
645.686
668.208
692.836
719.581
748.449
779.439
812.545
514.887
516.008
518.283
521.77
526.553
532.728
540.401
549.68
560.665
573.448
588.11
604.716
623.319
643.961
666.671
691.468
718.365
747.367
778.476
811.689
508.637
509.84
512.273
515.987
521.052
527.552
535.579
545.225
556.582
569.73
584.743
601.68
620.593
641.519
664.487
689.519
716.626
745.817
777.095
810.457
501.273
502.567
505.176
509.142
514.522
521.387
529.813
539.878
551.659
565.228
580.646
597.971
617.245
638.507
661.784
687.096
714.457
743.876
775.358
808.903
493.34
494.724
497.51
501.729
507.429
514.664
523.498
533.993
546.215
560.222
576.068
593.803
613.465
635.089
658.7
684.319
711.959
741.632
773.341
807.091
485.291
486.76
489.711
494.168
500.169
507.756
516.978
527.888
540.535
554.971
571.239
589.381
609.432
631.421
655.373
681.307
709.237
739.173
771.122
805.089
477.463
479.007
482.104
486.775
493.045
500.95
510.526
521.814
534.855
549.688
566.352
584.88
605.302
627.643
651.927
678.169
706.385
736.584
768.774
802.96
470.074
471.682
474.906
479.76
486.265
494.445
504.331
515.954
529.345
544.536
561.558
580.438
601.201
623.871
648.465
674.999
703.487
733.939
766.363
800.763
463.246
464.908
468.238
473.247
479.949
488.365
498.516
510.426
524.121
539.625
556.962
576.155
597.225
620.19
645.068
671.871
700.612
731.301
763.944
798.548
)
;
    }
    coldSide
    {
        type            mixed;
        refValue        uniform 300;
        refGradient     uniform 0;
        valueFraction   uniform 0.991591;
        source          uniform 0;
        value           nonuniform List<scalar> 
400
(
300.025
300.025
300.026
300.026
300.026
300.027
300.027
300.028
300.029
300.029
300.03
300.031
300.033
300.034
300.035
300.037
300.038
300.04
300.041
300.042
300.026
300.026
300.026
300.026
300.027
300.027
300.027
300.028
300.029
300.03
300.031
300.032
300.033
300.034
300.035
300.037
300.038
300.04
300.041