/*--------------------------------*- C++ -*----------------------------------*\
| =========                 |                                                 |
| \\      /  F ield         | OpenFOAM: The Open Source CFD Toolbox           |
|  \\    /   O peration     | Version:  2212                                  |
|   \\  /    A nd           | Website:  www.openfoam.com                      |
|    \\/     M anipulation  |                                                 |
\*---------------------------------------------------------------------------*/
FoamFile
{
    version     2.0;
    format      ascii;
    arch        "LSB;label=32;scalar=64";
    class       volScalarField;
    location    "0";
    object      relativeErrorField;
}
// * * * * * * * * * * * * * * * * * * * * * * * * * * * * * * * * * * * * * //

dimensions      [0 0 0 1 0 0 0];

internalField   nonuniform List<scalar> 
3200
(
0.0129514
0.0133585
0.014141
0.0148999
0.0160058
0.0171744
0.0183528
0.0191489
0.0196842
0.0200394
0.0199429
0.0194913
0.0182739
0.017265
0.0161599
0.0147991
0.0135875
0.0124074
0.0110811
0.0105205
0.0107722
0.0112411
0.0118067
0.0127768
0.0137079
0.0146428
0.0154834
0.0162338
0.0170136
0.0170049
0.0171239
0.0165836
0.015932
0.014885
0.0135909
0.0124521
0.0116572
0.0103529
0.00963091
0.00907309
0.00885482
0.00909667
0.00982721
0.0106159
0.0113181
0.0122876
0.0130698
0.0135947
0.0141262
0.0144827
0.01426
0.0136447
0.0131074
0.0124508
0.0115457
0.0105826
0.00933312
0.00893438
0.00797664
0.00743012
0.0069751
0.00756663
0.00783843
0.00848597
0.00909208
0.00976156
0.0103758
0.0108405
0.0113552
0.0114804
0.0116902
0.0113633
0.0107064
0.00999169
0.00926042
0.00834966
0.0078359
0.00698094
0.00644167
0.00614849
0.00539099
0.0058896
0.00617784
0.00652001
0.00701555
0.00764296
0.00799847
0.00840716
0.00861398
0.00902606
0.00912691
0.00880617
0.00793212
0.00760152
0.00708956
0.00674364
0.00615979
0.00554754
0.00489077
0.00455348
0.00390684
0.00386929
0.00442873
0.0047786
0.00494456
0.00559831
0.00576551
0.00615403
0.00618595
0.00640027
0.00641223
0.00630514
0.00597343
0.0054938
0.0050972
0.0045718
0.00441138
0.00386006
0.00357463
0.00310318
0.00236261
0.00269315
0.00255231
0.00266928
0.003209
0.00323142
0.00321469
0.00355211
0.00379566
0.00373889
0.00374775
0.00367016
0.00380076
0.00327064
0.00302473
0.00285562
0.00273332
0.00222194
0.00206445
0.00233229
0.000668738
0.00107599
0.000871368
0.00102385
0.00103301
0.00118893
0.00118329
0.0010879
0.00116662
0.00126065
0.00138464
0.00129551
0.00135815
0.00115539
0.00103891
0.00108723
0.00109403
0.000874653
0.000840368
0.000665048
0.01125
0.0115946
0.0125511
0.013262
0.014323
0.0156221
0.016417
0.0173869
0.0178303
0.0180221
0.0180279
0.0175067
0.016664
0.015478
0.0140461
0.0129861
0.0118033
0.010968
0.00972138
0.00900946
0.00938411
0.00989957
0.0106535
0.011485
0.0123067
0.0132564
0.0139307
0.0147765
0.0152247
0.0156435
0.015598
0.0151287
0.0140967
0.0133283
0.0123096
0.0111503
0.0101192
0.00920503
0.00820289
0.00772624
0.00792122
0.00813805
0.00878114
0.00942979
0.0100818
0.0109207
0.0116046
0.0125155
0.0127897
0.0130611
0.0131321
0.0125711
0.0118446
0.0112779
0.0100253
0.00935755
0.00842929
0.00751755
0.00723987
0.00636497
0.0063339
0.00660728
0.00696472
0.00774939
0.00813589
0.00873022
0.00967146
0.0100418
0.0103792
0.0105042
0.0107109
0.0103343
0.00972345
0.00909106
0.00847346
0.00742454
0.00686069
0.00600148
0.00564746
0.00498476
0.00497204
0.00514562
0.00554769
0.00578883
0.00645043
0.00677518
0.00756062
0.00777553
0.00823095
0.00821821
0.00797497
0.00807604
0.00763827
0.00692928
0.00636813
0.00599247
0.00515008
0.00474634
0.00430182
0.0038519
0.00359028
0.00369265
0.00387189
0.00421996
0.00438991
0.00487069
0.00522185
0.0056592
0.00577351
0.00584948
0.00564833
0.0057838
0.00524036
0.00508619
0.00471622
0.00431735
0.0036186
0.00358922
0.00303824
0.00286071
0.00215602
0.00193278
0.00225497
0.00254272
0.00277764
0.0029498
0.00314327
0.00326835
0.003409
0.00351672
0.00350086
0.00338913
0.00319344
0.00322766
0.00282353
0.00261784
0.00232692
0.00208383
0.00181683
0.00171449
0.000793908
0.000712261
0.000557892
0.000943152
0.000973005
0.000806379
0.00104375
0.00120054
0.00140121
0.00144651
0.00122318
0.00132899
0.00105205
0.00108333
0.000845337
0.000568316
0.000815845
0.000613926
0.000630637
0.000534348
0.00923375
0.00979438
0.0103496
0.0111928
0.0118692
0.0130583
0.0142008
0.0149791
0.0153192
0.0155227
0.0155788
0.0149175
0.0139721
0.0132278
0.0118644
0.0104853
0.00915652
0.00843309
0.00767584
0.00696309
0.00781893
0.00813263
0.00887433
0.00944122
0.0102364
0.0110772
0.0121247
0.0126015
0.0130118
0.013451
0.0132773
0.0129784
0.011982
0.0112657
0.0103549
0.00904474
0.00790322
0.00702993
0.00624387
0.00614402
0.00640569
0.00669964
0.00730856
0.00809657
0.0085729
0.00948626
0.0100968
0.0103691
0.0109912
0.0113539
0.0110572
0.0106699
0.0103765
0.00958575
0.00845603
0.00756967
0.00650789
0.00577912
0.00530496
0.00501874
0.00517022
0.00549862
0.00600082
0.00634582
0.00683033
0.00752006
0.00797911
0.00857832
0.00893841
0.00929819
0.00896463
0.00880658
0.00830504
0.0076357
0.00700711
0.00627272
0.00532727
0.00482693
0.00410634
0.00391147
0.00413301
0.0040143
0.00448835
0.00479312
0.00528778
0.00578286
0.00615769
0.00676269
0.00700073
0.00699016
0.00717403
0.00658794
0.00645709
0.00599207
0.00549922
0.00461646
0.00436714
0.00366314
0.00346655
0.00311897
0.00280708
0.00299738
0.00332103
0.00366205
0.00366986
0.00414951
0.00445192
0.00469537
0.00521447
0.00505886
0.00513453
0.00479268
0.00454563
0.00405256
0.00360662
0.00336418
0.00289602
0.00253811
0.0026202
0.00210819
0.00169208
0.00191689
0.00170327
0.00222871
0.00217415
0.00247224
0.00286335
0.00289303
0.00306728
0.00283545
0.00318564
0.00297634
0.00261473
0.00262438
0.00220336
0.00224483
0.0018138
0.00175359
0.0015018
0.00127632
0.000752405
0.000487951
0.000692387
0.000964317
0.00082434
0.000917702
0.000677674
0.000892088
0.00114313
0.00110108
0.00112611
0.00111998
0.00110708
0.000896934
0.000646521
0.000618446
0.00060729
0.00043795
0.000596014
0.000392756
0.00734887
0.00783486
0.00814145
0.00906415
0.00967698
0.0106796
0.0115692
0.0120005
0.0127375
0.012869
0.0125518
0.0120786
0.0114484
0.0102868
0.00919404
0.00817426
0.00726637
0.00605067
0.00547775
0.00481687
0.00613404
0.00665684
0.00674948
0.00770947
0.00824847
0.00909728
0.00988989
0.0105375
0.0109019
0.0111025
0.0108629
0.0103104
0.00984086
0.00898059
0.00786936
0.00696464
0.00600819
0.00504725
0.00462588
0.00431765
0.00519503
0.0052362
0.00549372
0.00617998
0.00692135
0.00726576
0.00793433
0.00874766
0.00907561
0.00911826
0.00916973
0.00855336
0.00824965
0.00730149
0.00679017
0.00585587
0.00485197
0.00433961
0.00375222
0.00349032
0.00389041
0.00415754
0.00445629
0.00487775
0.00559666
0.00592687
0.00650802
0.00687131
0.00729902
0.00729831
0.00719056
0.00710245
0.00674636
0.0059612
0.00556198
0.00478816
0.00378331
0.00327769
0.00302063
0.00280772
0.00292054
0.00329421
0.00354518
0.00355612
0.00407791
0.00465734
0.00514502
0.00565965
0.00541028
0.00543118
0.00571144
0.00543827
0.0051431
0.00456109
0.00420759
0.00366502
0.00316259
0.00251009
0.00249751
0.00205738
0.00226852
0.00236121
0.00261679
0.00276399
0.00308024
0.00319221
0.00347186
0.00371964
0.00380356
0.00405535
0.00417515
0.00389035
0.00372234
0.00334728
0.00284491
0.00253828
0.00218814
0.00203462
0.00167746
0.00153707
0.00137766
0.00148468
0.00139609
0.00157422
0.00160994
0.00210946
0.00230934
0.00236419
0.00253542
0.00250047
0.00235416
0.00235411
0.00234495
0.00210784
0.00175603
0.00142944
0.00121346
0.00107653
0.00107096
0.000868936
0.000547375
0.000741821
0.00061356
0.000596529
0.000576351
0.000638193
0.000771245
0.000761767
0.000998023
0.000937869
0.000746434
0.000905623
0.00072751
0.000966466
0.000621597
0.000490222
0.000332973
0.000301811
0.000372726
0.000384224
0.00559432
0.00588686
0.00597225
0.00680264
0.00733695
0.00812083
0.00917345
0.00958073
0.010073
0.0102738
0.00999262
0.00990264
0.00872852
0.00792991
0.00683671
0.00583681
0.00495116
0.00379079
0.00325583
0.00264369
0.00453435
0.00472082
0.0050197
0.00563929
0.00636086
0.00707827
0.00736802
0.00808393
0.00853463
0.00856972
0.00856212
0.00819736
0.00751108
0.00667689
0.00580381
0.00494959
0.00409175
0.00310018
0.00267946
0.00237241
0.00365442
0.00397673
0.00408467
0.00447546
0.00514208
0.00579875
0.00625033
0.00678804
0.00710385
0.00719924
0.00725313
0.00667402
0.00612606
0.00554056
0.00471196
0.00409317
0.00322509
0.00272475
0.00197464
0.00172881
0.00262494
0.00296492
0.00334109
0.00352167
0.00418243
0.00473211
0.00495903
0.00541045
0.00576717
0.00571062
0.00586314
0.00563123
0.00508202
0.0044429
0.00369667
0.00318704
0.00264143
0.00200149
0.00164804
0.00121645
0.00222037
0.00229239
0.00251774
0.00269737
0.00305911
0.00343231
0.00391426
0.00392071
0.00432804
0.00428688
0.00445997
0.00417538
0.00367836
0.00326454
0.00305633
0.00242125
0.00186885
0.00168169
0.0012579
0.000997718
0.00134444
0.0017708
0.00175933
0.0020675
0.00214131
0.00247005
0.00282217
0.00291069
0.00325121
0.00299998
0.0033014
0.00300906
0.00273507
0.00234356
0.00190606
0.00185468
0.00142344
0.000948355
0.000915182
0.000576346
0.000871192
0.00102655
0.00108509
0.0010094
0.00130958
0.00152361
0.00156715
0.00163052
0.00185923
0.00195293
0.00173171
0.00184359
0.00167744
0.00126825
0.00127768
0.000925408
0.000893352
0.000700901
0.000594118
0.000294849
0.000140835
0.000168385
0.000191416
0.000485899
0.000475808
0.000623597
0.00072652
0.000612187
0.000512144
0.000650259
0.000698423
0.000470492
0.000619227
0.000517058
0.000443575
0.00030706
0.000408748
0.000225373
0.000460383
5.74889e-05
0.00362159
0.00372633
0.00438095
0.00476385
0.00501883
0.00578646
0.00655246
0.00704542
0.00737377
0.00752192
0.00736957
0.00679028
0.00631983
0.00556119
0.0044557
0.00348294
0.00256267
0.00192662
0.00153818
0.000977542
0.00292485
0.00303386
0.00333403
0.0038953
0.00447669
0.00496695
0.00540999
0.00593449
0.00624892
0.00615302
0.0059418
0.0059141
0.0052569
0.00445331
0.00367481
0.00296928
0.00195137
0.00157164
0.00088439
0.000853056
0.00262963
0.00236893
0.00268157
0.00310921
0.00359489
0.00404476
0.00440005
0.00472492
0.00506277
0.00515119
0.00507592
0.00472031
0.00422846
0.00351436
0.00292157
0.00235181
0.00158251
0.00122303
0.000583047
0.000383125
0.00165837
0.00183822
0.00187292
0.00215071
0.00262326
0.00295506
0.00346271
0.00395272
0.00412044
0.0040656
0.00406154
0.00389513
0.0034066
0.00285214
0.0022989
0.00174522
0.00129593
0.000794325
0.000486704
0.000180988
0.00121309
0.00133297
0.00134358
0.00161834
0.00195415
0.00234033
0.00274019
0.00295619
0.00296481
0.00305052
0.00329771
0.00286069
0.00265235
0.00222984
0.0019337
0.00147338
0.000951493
0.000380176
0.000277752
0.000226038
0.000680515
0.000823093
0.00100898
0.00098045
0.00125491
0.00153505
0.00195057
0.00206234
0.00213694
0.00227407
0.00224508
0.00210647
0.00196459
0.0016122
0.00107034
0.00094695
0.000694339
0.000366888
0.000269626
0.00011719
0.000288859
0.00052317
0.000456834
0.000580631
0.000607826
0.000886713
0.000915343
0.00136115
0.0015324
0.00144665
0.00125108
0.00153197
0.00139524
0.00102084
0.00046893
0.000597204
0.000229294
0.000268497
0.000153595
0.000105186
0.000156995
0.000324238
0.000317594
0.000268131
0.000155274
0.000533294
0.0003269
0.000622534
0.000432906
0.000373107
0.000498274
0.000414857
0.000222884
0.0001778
0.000176891
0.000189289
6.28325e-05
0.000192711
5.62985e-05
3.98034e-06
0.00239414
0.0022167
0.00250861
0.00287329
0.00313298
0.00388152
0.00437053
0.00491567
0.00503876
0.00521687
0.00472552
0.00459679
0.00413626
0.00308863
0.00224322
0.00133253
0.000729193
0.000131338
0.000317772
0.000594643
0.0016201
0.00188694
0.00202153
0.00215612
0.00254142
0.00302106
0.00351099
0.00392965
0.00414656
0.00415547
0.00411649
0.00372346
0.00324479
0.00263084
0.00210885
0.000945843
0.000402468
0.000230645
0.000495876
0.000745504
0.00100019
0.00114504
0.00113836
0.00167904
0.0019591
0.00222289
0.00248884
0.00305506
0.00329326
0.00346411
0.00333783
0.00267165
0.00244542
0.00190009
0.00131144
0.000802588
0.000234609
0.000285262
0.000447345
0.000826327
0.00089294
0.00071147
0.00105357
0.0012707
0.00146411
0.00184444
0.00215189
0.0023301
0.00243594
0.00272461
0.00266174
0.00259467
0.00210495
0.0015528
0.000930849
0.000480997
3.06115e-05
0.000341525
0.000532118
0.000793687
0.000586257
0.000715986
0.000771643
0.000678195
0.00104989
0.00134529
0.00154499
0.00204568
0.0018871
0.00200698
0.00197305
0.00177152
0.00156757
0.00115676
0.000765378
0.000106469
1.20747e-05
0.000124933
0.000545884
0.000578716
0.000251942
0.000244404
0.000603977
0.000609587
0.000648482
0.00104974
0.00122407
0.00142499
0.00135794
0.00152953
0.00117159
0.00138942
0.00119587
0.000657608
0.000509152
0.000103713
7.47399e-06
0.00018624
0.000502987
0.00058243
0.000140078
0.000150171
0.000195852
0.000451115
0.000382094
0.000657503
0.000725222
0.000591125
0.00113731
0.000723352
0.000817264
0.000688493
0.000490117
0.000656353
0.00020132
8.48652e-05
0.000133044
0.000267654
0.000276148
0.000324994
0.000210689
0.000233656
0.000181532
0.000165336
0.000108446
8.94098e-05
0.000328772
0.000284598
0.000309306
0.000362185
9.86394e-05
0.000221833
5.39489e-05
3.99286e-05
4.32793e-06
0.000139382
0.000203702
5.04252e-05
0.000182096
0.000199631
0.000776103
0.000644571
0.000810591
0.00124684
0.00142967
0.00175359
0.00210174
0.00280537
0.00294731
0.00287161
0.00280309
0.00231594
0.00163406
0.000847314
0.000117792
0.000589568
0.00121215
0.00177339
0.00182762
0.00199586
0.00051834
0.000357155
0.000366344
0.000634251
0.00104123
0.00139338
0.00167158
0.00175193
0.00195649
0.00236759
0.0019919
0.00128151
0.00115813
0.00047976
5.18379e-05
0.00055825
0.00138424
0.00180023
0.00171907
0.00186153
0.000124293
0.000327667
0.000317056
0.000134785
0.00049549
0.000912561
0.00140115
0.00145964
0.00168271
0.00154384
0.00146123
0.00135822
0.0008632
0.000210658
0.000460324
0.00070465
0.00120424
0.00156388
0.00167614
0.00209803
1.53089e-05
9.96608e-05
7.31317e-05
5.73971e-05
0.000431733
0.000621286
0.00085613
0.000708953
0.00110513
0.00124506
0.00112901
0.000961724
0.000452484
0.000296371
0.00010593
0.000745416
0.00105883
0.00142346
0.00148392
0.00154444
9.51789e-05
2.81154e-05
0.00011172
0.000140881
6.43585e-05
0.000317517
0.000396607
0.000603711
0.000714121
0.000965792
0.000488142
0.000689024
0.000423582
8.55797e-06
0.000226073
0.000486637
0.000881735
0.00112504
0.00138501
0.00142419
2.00541e-05
5.59087e-05
7.4641e-05
0.000165776
5.35017e-06
0.000403184
0.000494629
0.000476863
0.000496531
0.000524613
0.000331864
0.000217555
0.000136751
7.84118e-05
0.00014634
0.000442758
0.000525529
0.000953903
0.00105798
0.000906031
0.000128691
0.000189366
0.000172624
1.76487e-05
0.000119485
0.000111459
1.43233e-05
0.000174487
0.000286895
0.000425856
0.000421594
0.000174216
0.000198702
0.000268341
0.00019684
0.000197966
0.000461843
0.000656859
0.000602515
0.000833066
4.46022e-05
0.000118664
4.64209e-05
4.7835e-05
0.000158931
0.000135961
0.000240325
0.000294935
0.000121925
3.7297e-05
0.000299799
0.000286221
7.75015e-05
0.000157446
4.20761e-05
0.00014673
0.000218857
0.000133105
0.000388818
0.00023033
4.13637e-05
0.000246902
0.000328932
0.000361358
9.35554e-05
0.000109105
0.00051559
0.000666578
0.000890024
0.000840967
0.000717296
0.000203049
0.000359132
0.000964841
0.00148438
0.00219565
0.00260478
0.00318209
0.00336158
0.00310246
0.000174179
0.000533151
0.00050858
0.000630624
0.000217847
0.000413509
0.000133061
0.000341074
0.000255573
0.000444082
0.000284358
8.54833e-05
0.000397907
0.00115516
0.00155107
0.00230084
0.00246158
0.00287055
0.00297593
0.00317702
0.000575015
0.000877648
0.000586425
0.000696338
0.000708253
0.000282986
0.000126663
6.19985e-05
0.000205627
0.000257301
3.65178e-05
0.000180143
0.000618126
0.00116478
0.001345
0.00190634
0.00227686
0.00263662
0.00274329
0.00280494
0.000623065
0.00096049
0.000918962
0.000811507
0.000586924
0.000797066
0.000543706
0.000127967
6.20543e-05
0.000116372
6.74375e-05
0.000403916
0.000684857
0.00088044
0.00129437
0.00193186
0.00211645
0.00240017
0.00215999
0.00230265
0.000636206
0.000780595
0.000602926
0.000632367
0.000705167
0.000518985
0.000417209
1.31191e-05
0.00017386
1.33959e-05
8.10951e-05
0.00058192
0.000559721
0.000836268
0.00131492
0.00162997
0.00154189
0.00180967
0.00197465
0.00195846
0.00063354
0.0005946
0.000553615
0.000630993
0.000410717
0.000299069
0.000378089
9.70966e-05
0.00037569
8.65545e-05
0.000310951
0.000289607
0.000373372
0.000861619
0.000927438
0.000883184
0.00131579
0.0014924
0.00148446
0.00126185
0.000177589
0.00028116
0.000477866
0.000266891
0.000499735
0.000296184
0.00012865
7.57749e-05
4.90989e-05
0.00011374
0.000339859
3.95751e-05
0.000373621
0.000322142
0.000602244
0.000613423
0.000962909
0.000841018
0.000948377
0.000919957
6.15806e-05
1.07381e-05
0.000198412
0.000204774
2.69319e-05
0.000305494
0.000231777
0.000189068
9.51995e-05
0.000267093
1.15765e-05
0.000260339
5.123e-07
2.43516e-05
0.00023553
0.000193812
0.000206584
0.000388073
0.000227596
0.000474233
0.000750068
0.00114297
0.0012359
0.00147504
0.00140773
0.00111667
0.00124226
0.00111665
0.000811615
0.000913725
0.00117616
0.00123332
0.00204561
0.00243747
0.00298683
0.00364057
0.00388625
0.00417109
0.00408942
0.00424937
0.00111989
0.00121655
0.00160524
0.00173156
0.00171478
0.00125922
0.00124421
0.00113512
0.000992044
0.00126065
0.00143942
0.00152286
0.00196478
0.00258223
0.00300936
0.00313088
0.00368411
0.00374505
0.00385709
0.0039187
0.00114887
0.00141797
0.00146527
0.00176012
0.00160065
0.00146272
0.0011738
0.0012635
0.00131177
0.00120937
0.00125481
0.00160478
0.00202376
0.00233723
0.00272798
0.00292481
0.00330836
0.00356815
0.003241
0.00329047
0.00113914
0.00181001
0.00151781
0.00171285
0.00132725
0.00129497
0.00111823
0.00112679
0.00114481
0.00115444
0.00111915
0.00152077
0.00176433
0.00205088
0.00214635
0.00244601
0.00280089
0.00308404
0.00299833
0.00300237
0.00111469
0.00117896
0.00125937
0.00123102
0.00125193
0.00134291
0.000962916
0.000940892
0.000983204
0.000808271
0.00107345
0.00128573
0.0013723
0.00169117
0.00180089
0.00198574
0.00230671
0.00258057
0.00219251
0.00250871
0.000645798
0.00079093
0.000826883
0.0011278
0.000830496
0.000962191
0.000691355
0.000712867
0.000873211
0.000652613
0.000738992
0.000962898
0.0011534
0.00118078
0.00147119
0.00170403
0.00183538
0.00151501
0.00184319
0.0017081
0.00051106
0.00069676
0.000503171
0.000726174
0.000674272
0.00054641
0.000640332
0.000675593
0.000627105
0.000509769
0.000399489
0.000623837
0.00064357
0.000686163
0.0007438
0.000932432
0.00104086
0.00108883
0.000974013
0.0011695
3.9878e-05
0.000253105
0.00047113
0.000203391
0.000278544
0.000356359
7.69644e-05
0.000155833
0.000194173
8.3927e-05
0.000407803
0.000230144
0.00036445
0.000398043
0.000336082
0.000325829
0.000242096
0.000383297
0.000403318
0.000428087
0.00125848
0.00161142
0.00199234
0.00231636
0.00235381
0.00248576
0.00248469
0.00245354
0.00240859
0.00246039
0.00256929
0.00294559
0.00324612
0.00402268
0.00414945
0.00452698
0.00482725
0.00493613
0.00508858
0.00460899
0.00158317
0.00193899
0.00231569
0.00245907
0.00244574
0.00235623
0.00247444
0.00234902
0.00238325
0.00224409
0.00260994
0.00281473
0.00322014
0.00361419
0.0040445
0.00424226
0.00461051
0.00457173
0.00449809
0.00423754
0.00166253
0.00203171
0.00193148
0.0021506
0.00226073
0.00230442
0.00204476
0.00215576
0.00217358
0.00228187
0.00221599
0.00272666
0.00297041
0.00330815
0.00346571
0.00349693
0.00402532
0.00413861
0.00389144
0.00378664
0.00124128
0.00177203
0.00186776
0.00199245
0.00214895
0.00199242
0.00214978
0.00198005
0.00181703
0.00199205
0.00217536
0.00232713
0.00248208
0.00274837
0.00298389
0.00323663
0.00347289
0.00344984
0.00356006
0.00335597
0.00128555
0.00149299
0.00133402
0.00171834
0.00162671
0.00169216
0.00160065
0.00160251
0.00167612
0.00166492
0.00183786
0.00204128
0.00222011
0.00230284
0.00264296
0.00265143
0.00246854
0.00278149
0.00274647
0.00267159
0.000839148
0.00124711
0.00133026
0.00135922
0.00135437
0.00137469
0.00119924
0.00129661
0.0011624
0.00125136
0.00120373
0.00150499
0.00187185
0.00170132
0.00172071
0.00184187
0.00204222
0.00210844
0.00190655
0.00183673
0.000449433
0.00048103
0.000829508
0.00102846
0.000849494
0.000862738
0.000856072
0.00101108
0.000764769
0.000735418
0.000817746
0.000815001
0.0010029
0.000970442
0.00104414
0.00134109
0.00135958
0.00125594
0.00147495
0.00113248
0.00017574
0.000239215
0.000387585
0.000331174
0.000330585
0.000364698
0.00032285
0.000311349
0.000349789
0.000248774
1.68573e-05
0.000286683
0.000450908
0.000371056
0.000353181
0.000127494
0.00045378
0.000378832
0.000469722
0.000586296
0.00160898
0.00188043
0.00250243
0.00279689
0.00290589
0.00332534
0.00315479
0.00331016
0.00336818
0.00343187
0.00379934
0.00367843
0.00448998
0.00478934
0.00498442
0.00544193
0.00540221
0.00551664
0.00508345
0.00486605
0.00180346
0.00206677
0.00232065
0.00286775
0.00301584
0.00311275
0.00326479
0.00294235
0.00317516
0.00349546
0.00362477
0.00379703
0.00443973
0.00431031
0.00468588
0.0048847
0.0049386
0.00494654
0.00491257
0.00457006
0.00177477
0.0020248
0.00215969
0.00261382
0.00291814
0.00286793
0.00286927
0.00313777
0.00295157
0.00309375
0.00335352
0.00331608
0.00386611
0.00393619
0.00423494
0.00458059
0.00433061
0.0045028
0.00442914
0.00400222
0.00164619
0.0017451
0.0019751
0.00237584
0.00252037
0.00258359
0.00259145
0.0027072
0.00265112
0.00259374
0.00313687
0.0031825
0.00317779
0.00346818
0.0033725
0.00376625
0.00348493
0.0036908
0.00362529
0.00340548
0.00135999
0.00143949
0.00167157
0.00174976
0.00216365
0.00209963
0.00212155
0.00226854
0.0023925
0.00218798
0.00235784
0.00231971
0.00258202
0.00270432
0.00295054
0.00293152
0.00307075
0.00310602
0.0027936
0.00267759
0.00122718
0.0010224
0.00136667
0.00153458
0.00160057
0.00168721
0.00152174
0.00168852
0.00161287
0.00168461
0.00175589
0.0017132
0.00209213
0.00197083
0.0021176
0.00212349
0.00224546
0.00225309
0.00217202
0.00192305
0.000711249
0.000824073
0.000883936
0.00101449
0.00096874
0.00115919
0.000919305
0.000931774
0.00112325
0.00115811
0.00105435
0.000735651
0.00119358
0.00135628
0.00134934
0.00130933
0.00126531
0.00145588
0.00123576
0.00149584
0.000298275
0.00020637
0.000420801
0.00022786
0.00036372
0.000363974
0.000282523
0.000334478
0.000354843
0.000466406
0.000372654
0.00019902
0.00043696
0.000513731
0.000556662
0.000339248
0.000390863
0.00068744
0.000436391
0.000507218
0.00129697
0.00187407
0.00232808
0.00280613
0.00323124
0.00355118
0.00381369
0.0038743
0.0040439
0.00436213
0.00476206
0.00472464
0.005162
0.0053676
0.00548901
0.0056917
0.00582286
0.00548972
0.00538881
0.00504242
0.00161831
0.00195631
0.00241302
0.00299285
0.00337599
0.00356703
0.00347678
0.00385882
0.0039889
0.00394039
0.00421735
0.00434962
0.00451482
0.00494257
0.00514946
0.00532061
0.00529952
0.00534818
0.00482771
0.00464946
0.00158815
0.00192102
0.00225107
0.00273611
0.00315807
0.00333045
0.00346168
0.0034979
0.00366703
0.00388535
0.00410849
0.00405256
0.00417468
0.00448336
0.00446033
0.00482248
0.00454783
0.00468558
0.00414561
0.00385709
0.00166006
0.00189248
0.00224829
0.00253631
0.00278046
0.0030158
0.00288769
0.00299292
0.00326943
0.00325725
0.00326925
0.00353114
0.00361386
0.0038113
0.00395018
0.00417133
0.00378258
0.00393084
0.00370788
0.00327368
0.00117644
0.00121975
0.00170622
0.00210629
0.00238329
0.00263681
0.00240573
0.00243397
0.00245705
0.00237158
0.00285522
0.00263662
0.00322122
0.0028996
0.00316158
0.00302604
0.0031947
0.00316913
0.00311003
0.00268292
0.000922968
0.00110671
0.00145644
0.00137938
0.00165277
0.00198368
0.00184864
0.00200351
0.00185219
0.00197984
0.00188459
0.00241988
0.00210226
0.00230139
0.00227539
0.00238768
0.00233781
0.00242862
0.00216955
0.00222467
0.000663961
0.000707563
0.000998167
0.000885313
0.000833486
0.00109634
0.00100851
0.00121566
0.00133546
0.00101064
0.00132449
0.0011541
0.00108423
0.00137371
0.00139896
0.00147765
0.00153387
0.00136337
0.00139804
0.00135731
0.000271702
0.000311583
0.000142573
0.000162229
0.000447748
0.000410514
0.000190154
0.000368361
0.00047273
0.000383792
0.000188618
0.000371302
0.000253507
0.000510473
0.000368263
0.000458057
0.000560987
0.00047908
0.000511572
0.000530677
0.000917199
0.00136343
0.0022739
0.002762
0.00318976
0.00371622
0.00386403
0.00400209
0.00432293
0.00472442
0.00493868
0.00500669
0.00534723
0.00545672
0.00566195
0.005702
0.0055641
0.00526025
0.00486354
0.00456367
0.00117821
0.00174521
0.00226609
0.00272579
0.00335431
0.00355498
0.00369415
0.00391169
0.00405183
0.00448301
0.00455223
0.00465126
0.00478874
0.0052565
0.00525467
0.00533119
0.00537246
0.00530918
0.00445183
0.004202
0.00131447
0.00158003
0.00212902
0.00284301
0.00316766
0.00325657
0.00363512
0.00365891
0.00395686
0.00398383
0.00418714
0.00435673
0.00440131
0.00468967
0.00490102
0.00473775
0.00451928
0.00444055
0.00407852
0.00394561
0.00121517
0.00160023
0.00213809
0.0024602
0.00283968
0.00298174
0.00334427
0.0032128
0.0033687
0.00343622
0.00350125
0.00363224
0.00389186
0.00410793
0.0040287
0.00397216
0.00390283
0.00361311
0.0035253
0.00318905
0.000987657
0.00132512
0.00160298
0.00191564
0.00215855
0.00235332
0.00250471
0.00250163
0.00277134
0.00295588
0.00325515
0.00288053
0.00319268
0.00316123
0.00335379
0.00337084
0.0032059
0.00306306
0.00291622
0.0023414
0.000748682
0.00100978
0.00119398
0.00155232
0.00170041
0.00170847
0.00194277
0.00187555
0.00196986
0.00195898
0.00212635
0.00233832
0.00245895
0.0021979
0.00241484
0.00230165
0.00221747
0.00214541
0.0021657
0.0021292
0.0005934
0.000416408
0.000946924
0.000842305
0.000967659
0.000947413
0.00110731
0.00121033
0.00136631
0.00125215
0.001322
0.00141187
0.00128439
0.00161122
0.00143453
0.00151572
0.00132896
0.00147986
0.00130116
0.00103862
7.85056e-05
0.000118772
0.00032375
0.000489535
0.000288535
0.000375125
0.000288675
0.000426187
0.000513361
0.000336444
0.00033086
0.000526919
0.000613534
0.000594452
0.0006009
0.000532433
0.000476931
0.00056871
0.000376542
0.000290872
0.000151841
0.000608618
0.00165525
0.00239455
0.00269391
0.00333902
0.00376572
0.00403939
0.00429201
0.00456822
0.00500105
0.005026
0.00515343
0.00576476
0.00545157
0.0053768
0.00531223
0.00509172
0.00428703
0.00388612
0.000189736
0.00113686
0.00200498
0.00253626
0.00285163
0.00344239
0.00377784
0.00405724
0.0043214
0.00455037
0.00463857
0.00477464
0.00484859
0.00507618
0.00488525
0.00490976
0.00474135
0.00440009
0.00425838
0.00361123
0.000696057
0.00117231
0.00175585
0.00215816
0.00275194
0.00318967
0.0034655
0.00368354
0.00373991
0.00404037
0.00431277
0.00433846
0.00469132
0.0043542
0.00461202
0.00441359
0.00424117
0.00402397
0.00383029
0.00306926
0.000668546
0.00098127
0.00158036
0.00210956
0.002578
0.00272467
0.0030256
0.003152
0.00348956
0.00348157
0.00367154
0.00363677
0.00383013
0.0039057
0.00372866
0.00369641
0.003946
0.00332345
0.00300953
0.00286959
0.000487398
0.00102745
0.00131282
0.00179419
0.00210134
0.00226176
0.00220908
0.00261006
0.00265006
0.00300628
0.00301031
0.0031388
0.00314547
0.00309942
0.003209
0.00314088
0.00292335
0.00270206
0.00259805
0.0023261
0.00047087
0.00073662
0.00108209
0.00121317
0.00140961
0.00167649
0.00168033
0.00196925
0.00201872
0.0022082
0.0021275
0.00221182
0.00245154
0.00249404
0.00239688
0.00220458
0.00225832
0.00211066
0.00186692
0.00172439
0.000262034
0.000538874
0.000645601
0.000884517
0.00109245
0.000908192
0.00122258
0.00125913
0.0012286
0.00128441
0.00110045
0.00142019
0.00128959
0.00150805
0.00150669
0.00118527
0.00147153
0.0012868
0.000976457
0.00113375
0.000252382
2.98461e-05
0.00028845
0.000386156
0.000315702
0.000338994
0.000245635
0.000501943
0.000460402
0.000425421
0.000422924
0.00016738
0.000563299
0.000400294
0.000712043
0.000518877
0.000519425
0.000483822
0.000391925
0.000295499
0.00122442
0.000227164
0.000628161
0.00165866
0.00228165
0.00268429
0.00324728
0.00370242
0.00406683
0.00438478
0.0043736
0.00466529
0.0046738
0.00479932
0.00479563
0.00478496
0.00439496
0.00402134
0.00341833
0.00268276
0.000769173
0.000224604
0.000971095
0.00161443
0.0023181
0.00271574
0.00328931
0.00336848
0.0038544
0.00412778
0.00418501
0.0043587
0.00464326
0.00461982
0.00445224
0.00439817
0.00423813
0.00376918
0.00338054
0.00271927
0.00022523
0.000498038
0.00102868
0.00181042
0.0021611
0.00261167
0.00314276
0.0031664
0.00357133
0.00377138
0.0037579
0.00417793
0.00419694
0.00410097
0.0041002
0.00397556
0.00376731
0.00355341
0.00285798
0.00232043
9.44621e-05
0.000508436
0.00088417
0.00178982
0.00211599
0.00256979
0.00271179
0.00271834
0.00294376
0.00323983
0.00338693
0.00340711
0.00363876
0.00363861
0.003624
0.00352801
0.00313189
0.002993
0.00255567
0.00218368
3.39291e-06
0.000509533
0.000783199
0.00127763
0.00165453
0.00200362
0.0022809
0.00239735
0.00247733
0.00266424
0.00252673
0.00276499
0.00312101
0.00301965
0.00292218
0.00284084
0.00262209
0.00213453
0.00225972
0.00173531
0.000321447
0.000431122
0.000724719
0.000954687
0.00125451
0.00157272
0.00157851
0.00176356
0.00201824
0.00194676
0.00206624
0.00215599
0.00218146
0.00204704
0.00206505
0.00189037
0.00198709
0.00187775
0.00159032
0.00132777
6.15968e-05
0.000261607
0.000393399
0.000631062
0.000692697
0.000958578
0.00078174
0.00105049
0.00128634
0.00126239
0.00130602
0.00163624
0.00141528
0.00116237
0.00132916
0.0011994
0.000981776
0.000995528
0.00101972
0.000568954
0.000122463
0.000187309
0.000325104
0.000422282
0.000235145
0.00045436
0.000414502
0.000577531
0.000205522
0.000330018
0.000523827
0.000646826
0.000265949
0.000400219
0.000446465
0.000536727
0.000392798
0.000410091
0.000269947
0.000441996
0.00270993
0.00191852
0.000759023
0.000526017
0.00106036
0.00154933
0.00207746
0.00284872
0.00297692
0.00368602
0.00378292
0.0038283
0.00401697
0.00384784
0.00389086
0.00343862
0.00332586
0.00274093
0.00203575
0.00145297
0.00197354
0.00126091
0.000280213
0.000732732
0.00130716
0.00201874
0.00237315
0.00292373
0.00314947
0.00350416
0.00342635
0.00381023
0.00367279
0.00386535
0.00372937
0.00365823
0.00314925
0.00257905
0.00201566
0.00154659
0.00136772
0.000750611
4.86554e-06
0.000929402
0.00138645
0.00169472
0.00239926
0.00272166
0.00302459
0.00312481
0.00335057
0.00360997
0.00337538
0.00330478
0.00335282
0.00338383
0.00298001
0.00253703