/*--------------------------------*- C++ -*----------------------------------*\
| =========                 |                                                 |
| \\      /  F ield         | OpenFOAM: The Open Source CFD Toolbox           |
|  \\    /   O peration     | Version:  2212                                  |
|   \\  /    A nd           | Website:  www.openfoam.com                      |
|    \\/     M anipulation  |                                                 |
\*---------------------------------------------------------------------------*/
FoamFile
{
    version     2.0;
    format      ascii;
    arch        "LSB;label=32;scalar=64";
    class       volScalarField;
    location    "./ITHACAoutput/true/12.6";
    object      trueState;
}
// * * * * * * * * * * * * * * * * * * * * * * * * * * * * * * * * * * * * * //

dimensions      [0 0 0 1 0 0 0];

internalField   nonuniform List<scalar> 
3200
(
318.855
319.21
319.663
320.157
320.666
321.165
321.626
322.015
322.298
322.448
322.448
322.298
322.015
321.626
321.165
320.666
320.157
319.663
319.21
318.855
316.348
316.648
317.039
317.466
317.906
318.338
318.737
319.073
319.317
319.447
319.447
319.317
319.073
318.737
318.338
317.906
317.466
317.039
316.648
316.348
313.839
314.088
314.417
314.778
315.15
315.515
315.851
316.135
316.341
316.45
316.45
316.341
316.135
315.851
315.515
315.15
314.778
314.417
314.088
313.839
311.328
311.528
311.797
312.092
312.396
312.694
312.968
313.2
313.368
313.457
313.457
313.368
313.2
312.968
312.694
312.396
312.092
311.797
311.528
311.328
308.815
308.969
309.177
309.406
309.642
309.874
310.087
310.267
310.398
310.467
310.467
310.398
310.267
310.087
309.874
309.642
309.406
309.177
308.969
308.815
306.3
306.409
306.558
306.721
306.89
307.056
307.208
307.336
307.43
307.479
307.479
307.43
307.336
307.208
307.056
306.89
306.721
306.558
306.409
306.3
303.785
303.85
303.939
304.037
304.139
304.238
304.329
304.406
304.462
304.492
304.492
304.462
304.406
304.329
304.238
304.139
304.037
303.939
303.85
303.785
301.269
301.291
301.32
301.353
301.387
301.421
301.451
301.477
301.496
301.506
301.506
301.496
301.477
301.451
301.421
301.387
301.353
301.32
301.291
301.269
318.908
319.26
319.709
320.198
320.702
321.195
321.651
322.035
322.315
322.462
322.462
322.315
322.035
321.651
321.195
320.702
320.198
319.709
319.26
318.908
316.394
316.692
317.079
317.502
317.938
318.365
318.759
319.09
319.332
319.459
319.459
319.332
319.09
318.759
318.365
317.938
317.502
317.079
316.692
316.394
313.877
314.124
314.451
314.808
315.176
315.537
315.87
316.15
316.354
316.461
316.461
316.354
316.15
315.87
315.537
315.176
314.808
314.451
314.124
313.877
311.359
311.558
311.824
312.116
312.417
312.712
312.984
313.212
313.379
313.466
313.466
313.379
313.212
312.984
312.712
312.417
312.116
311.824
311.558
311.359
308.839
308.992
309.198
309.425
309.659
309.888
310.099
310.277
310.406
310.474
310.474
310.406
310.277
310.099
309.888
309.659
309.425
309.198
308.992
308.839
306.318
306.426
306.573
306.735
306.902
307.066
307.216
307.343
307.435
307.484
307.484
307.435
307.343
307.216
307.066
306.902
306.735
306.573
306.426
306.318
303.795
303.86
303.948
304.045
304.146
304.244
304.334
304.41
304.466
304.495
304.495
304.466
304.41
304.334
304.244
304.146
304.045
303.948
303.86
303.795
301.272
301.294
301.323
301.356
301.39
301.423
301.453
301.478
301.497
301.507
301.507
301.497
301.478
301.453
301.423
301.39
301.356
301.323
301.294
301.272
319.014
319.36
319.802
320.282
320.775
321.258
321.703
322.078
322.35
322.494
322.494
322.35
322.078
321.703
321.258
320.775
320.282
319.802
319.36
319.014
316.485
316.778
317.159
317.574
318.001
318.419
318.804
319.128
319.363
319.487
319.487
319.363
319.128
318.804
318.419
318.001
317.574
317.159
316.778
316.485
313.954
314.198
314.518
314.869
315.23
315.583
315.908
316.181
316.38
316.485
316.485
316.38
316.181
315.908
315.583
315.23
314.869
314.518
314.198
313.954
311.422
311.618
311.879
312.166
312.461
312.75
313.015
313.238
313.4
313.486
313.486
313.4
313.238
313.015
312.75
312.461
312.166
311.879
311.618
311.422
308.888
309.038
309.241
309.464
309.693
309.918
310.124
310.297
310.423
310.489
310.489
310.423
310.297
310.124
309.918
309.693
309.464
309.241
309.038
308.888
306.353
306.459
306.604
306.763
306.927
307.087
307.234
307.358
307.447
307.495
307.495
307.447
307.358
307.234
307.087
306.927
306.763
306.604
306.459
306.353
303.816
303.88
303.967
304.062
304.16
304.257
304.345
304.419
304.473
304.501
304.501
304.473
304.419
304.345
304.257
304.16
304.062
303.967
303.88
303.816
301.279
301.301
301.33
301.362
301.395
301.427
301.456
301.481
301.499
301.509
301.509
301.499
301.481
301.456
301.427
301.395
301.362
301.33
301.301
301.279
319.173
319.511
319.942
320.409
320.888
321.355
321.785
322.146
322.408
322.547
322.547
322.408
322.146
321.785
321.355
320.888
320.409
319.942
319.511
319.173
316.623
316.909
317.28
317.684
318.099
318.503
318.875
319.187
319.414
319.533
319.533
319.414
319.187
318.875
318.503
318.099
317.684
317.28
316.909
316.623
314.071
314.308
314.621
314.962
315.313
315.654
315.968
316.232
316.423
316.524
316.524
316.423
316.232
315.968
315.654
315.313
314.962
314.621
314.308
314.071
311.517
311.708
311.963
312.242
312.528
312.808
313.064
313.28
313.436
313.518
313.518
313.436
313.28
313.064
312.808
312.528
312.242
311.963
311.708
311.517
308.962
309.109
309.306
309.523
309.746
309.963
310.162
310.329
310.451
310.514
310.514
310.451
310.329
310.162
309.963
309.746
309.523
309.306
309.109
308.962
306.405
306.509
306.65
306.805
306.964
307.119
307.261
307.381
307.467
307.513
307.513
307.467
307.381
307.261
307.119
306.964
306.805
306.65
306.509
306.405
303.848
303.91
303.995
304.087
304.183
304.276
304.361
304.433
304.485
304.512
304.512
304.485
304.433
304.361
304.276
304.183
304.087
303.995
303.91
303.848
301.29
301.311
301.339
301.37
301.402
301.433
301.462
301.486
301.503
301.513
301.513
301.503
301.486
301.462
301.433
301.402
301.37
301.339
301.311
301.29
319.387
319.715
320.132
320.582
321.042
321.49
321.901
322.245
322.495
322.626
322.626
322.495
322.245
321.901
321.49
321.042
320.582
320.132
319.715
319.387
316.808
317.085
317.444
317.834
318.232
318.62
318.975
319.273
319.489
319.602
319.602
319.489
319.273
318.975
318.62
318.232
317.834
317.444
317.085
316.808
314.227
314.457
314.76
315.089
315.426
315.753
316.053
316.305
316.487
316.583
316.583
316.487
316.305
316.053
315.753
315.426
315.089
314.76
314.457
314.227
311.644
311.83
312.076
312.346
312.621
312.889
313.134
313.339
313.488
313.566
313.566
313.488
313.339
313.134
312.889
312.621
312.346
312.076
311.83
311.644
309.061
309.203
309.394
309.604
309.818
310.026
310.216
310.376
310.491
310.552
310.552
310.491
310.376
310.216
310.026
309.818
309.604
309.394
309.203
309.061
306.476
306.577
306.713
306.863
307.015
307.164
307.3
307.414
307.496
307.54
307.54
307.496
307.414
307.3
307.164
307.015
306.863
306.713
306.577
306.476
303.89
303.951
304.032
304.122
304.214
304.303
304.385
304.453
304.503
304.529
304.529
304.503
304.453
304.385
304.303
304.214
304.122
304.032
303.951
303.89
301.304
301.324
301.352
301.382
301.412
301.442
301.47
301.493
301.509
301.518
301.518
301.509
301.493
301.47
301.442
301.412
301.382
301.352
301.324
301.304
319.658
319.973
320.373
320.803
321.242
321.667
322.056
322.381
322.616
322.739
322.739
322.616
322.381
322.056
321.667
321.242
320.803
320.373
319.973
319.658
317.041
317.309
317.653
318.026
318.405
318.774
319.11
319.391
319.594
319.701
319.701
319.594
319.391
319.11
318.774
318.405
318.026
317.653
317.309
317.041
314.424
314.646
314.936
315.251
315.572
315.883
316.167
316.404
316.576
316.666
316.666
316.576
316.404
316.167
315.883
315.572
315.251
314.936
314.646
314.424
311.806
311.984
312.221
312.478
312.741
312.995
313.227
313.421
313.561
313.635
313.635
313.561
313.421
313.227
312.995
312.741
312.478
312.221
311.984
311.806
309.186
309.323
309.507
309.707
309.911
310.109
310.289
310.44
310.548
310.605
310.605
310.548
310.44
310.289
310.109
309.911
309.707
309.507
309.323
309.186
306.565
306.662
306.793
306.936
307.082
307.223
307.352
307.459
307.537
307.578
307.578
307.537
307.459
307.352
307.223
307.082
306.936
306.793
306.662
306.565
303.944
304.002
304.08
304.166
304.254
304.339
304.416
304.48
304.527
304.551
304.551
304.527
304.48
304.416
304.339
304.254
304.166
304.08
304.002
303.944
301.322
301.341
301.368
301.397
301.426
301.454
301.48
301.502
301.517
301.526
301.526
301.517
301.502
301.48
301.454
301.426
301.397
301.368
301.341
301.322
319.985
320.287
320.668
321.077
321.491
321.892
322.256
322.559
322.778
322.893
322.893
322.778
322.559
322.256
321.892
321.491
321.077
320.668
320.287
319.985
317.325
317.58
317.909
318.262
318.621
318.968
319.283
319.546
319.735
319.834
319.834
319.735
319.546
319.283
318.968
318.621
318.262
317.909
317.58
317.325
314.663
314.875
315.152
315.451
315.754
316.047
316.314
316.536
316.695
316.779
316.779
316.695
316.536
316.314
316.047
315.754
315.451
315.152
314.875
314.663
312.001
312.172
312.397
312.642
312.89
313.129
313.347
313.528
313.659
313.727
313.727
313.659
313.528
313.347
313.129
312.89
312.642
312.397
312.172
312.001
309.338
309.469
309.644
309.834
310.027
310.213
310.382
310.523
310.625
310.678
310.678
310.625
310.523
310.382
310.213
310.027
309.834
309.644
309.469
309.338
306.674
306.766
306.891
307.027
307.165
307.298
307.419
307.519
307.592
307.63
307.63
307.592
307.519
307.419
307.298
307.165
307.027
306.891
306.766
306.674
304.009
304.064
304.139
304.221
304.303
304.383
304.456
304.516
304.56
304.583
304.583
304.56
304.516
304.456
304.383
304.303
304.221
304.139
304.064
304.009
301.344
301.362
301.387
301.415
301.443
301.469
301.494
301.514
301.528
301.536
301.536
301.528
301.514
301.494
301.469
301.443
301.415
301.387
301.362
301.344
320.373
320.659
321.02
321.405
321.794
322.168
322.506
322.787
322.99
323.095
323.095
322.99
322.787
322.506
322.168
321.794
321.405
321.02
320.659
320.373
317.659
317.902
318.213
318.546
318.883
319.207
319.5
319.743
319.918
320.01
320.01
319.918
319.743
319.5
319.207
318.883
318.546
318.213
317.902
317.659
314.946
315.147
315.409
315.691
315.976
316.249
316.497
316.703
316.85
316.928
316.928
316.85
316.703
316.497
316.249
315.976
315.691
315.409
315.147
314.946
312.232
312.394
312.607
312.838
313.071
313.294
313.497
313.665
313.786
313.849
313.849
313.786
313.665
313.497
313.294
313.071
312.838
312.607
312.394
312.232
309.517
309.641
309.807
309.986
310.167
310.341
310.499
310.629
310.723
310.772
310.772
310.723
310.629
310.499
310.341
310.167
309.986
309.807
309.641
309.517
306.802
306.89
307.008
307.136
307.265
307.389
307.502
307.595
307.662
307.697
307.697
307.662
307.595
307.502
307.389
307.265
307.136
307.008
306.89
306.802
304.086
304.138
304.209
304.286
304.364
304.438
304.506
304.562
304.602
304.623
304.623
304.602
304.562
304.506
304.438
304.364
304.286
304.209
304.138
304.086
301.37
301.387
301.411
301.437
301.463
301.488
301.51
301.529
301.543
301.55
301.55
301.543
301.529
301.51
301.488
301.463
301.437
301.411
301.387
301.37
320.82
321.091
321.43
321.791
322.153
322.5
322.813
323.071
323.256
323.353
323.353
323.256
323.071
322.813
322.5
322.153
321.791
321.43
321.091
320.82
318.046
318.276
318.568
318.88
319.194
319.494
319.765
319.989
320.149
320.233
320.233
320.149
319.989
319.765
319.494
319.194
318.88
318.568
318.276
318.046
315.273
315.463
315.709
315.973
316.239
316.493
316.721
316.911
317.046
317.117
317.117
317.046
316.911
316.721
316.493
316.239
315.973
315.709
315.463
315.273
312.499
312.652
312.853
313.069
313.286
313.493
313.68
313.835
313.946
314.004
314.004
313.946
313.835
313.68
313.493
313.286
313.069
312.853
312.652
312.499
309.725
309.842
309.998
310.166
310.334
310.496
310.641
310.762
310.848
310.893
310.893
310.848
310.762
310.641
310.496
310.334
310.166
309.998
309.842
309.725
306.95
307.033
307.144
307.264
307.385
307.5
307.604
307.69
307.751
307.783
307.783
307.751
307.69
307.604
307.5
307.385
307.264
307.144
307.033
306.95
304.175
304.224
304.291
304.363
304.435
304.505
304.567
304.619
304.656
304.675
304.675
304.656
304.619
304.567
304.505
304.435
304.363
304.291
304.224
304.175
301.399
301.416
301.438
301.462
301.487
301.51
301.531
301.548
301.561
301.567
301.567
301.561
301.548
301.531
301.51
301.487
301.462
301.438
301.416
301.399
321.331
321.585
321.903
322.238
322.574
322.893
323.18
323.416
323.585
323.673
323.673
323.585
323.416
323.18
322.893
322.574
322.238
321.903
321.585
321.331
318.488
318.703
318.977
319.268
319.558
319.835
320.083
320.288
320.434
320.51
320.51
320.434
320.288
320.083
319.835
319.558
319.268
318.977
318.703
318.488
315.645
315.824
316.055
316.3
316.546
316.78
316.99
317.163
317.287
317.351
317.351
317.287
317.163
316.99
316.78
316.546
316.3
316.055
315.824
315.645
312.803
312.947
313.135
313.336
313.537
313.729
313.9
314.042
314.143
314.195
314.195
314.143
314.042
313.9
313.729
313.537
313.336
313.135
312.947
312.803
309.961
310.071
310.217
310.374
310.53
310.679
310.812
310.922
311.001
311.042
311.042
311.001
310.922
310.812
310.679
310.53
310.374
310.217
310.071
309.961
307.119
307.197
307.301
307.412
307.524
307.631
307.726
307.804
307.861
307.89
307.89
307.861
307.804
307.726
307.631
307.524
307.412
307.301
307.197
307.119
304.276
304.323
304.385
304.452
304.519
304.583
304.64
304.688
304.721
304.739
304.739
304.721
304.688
304.64
304.583
304.519
304.452
304.385
304.323
304.276
301.433
301.449
301.47
301.492
301.515
301.536
301.555
301.571
301.583
301.588
301.588
301.583
301.571
301.555
301.536
301.515
301.492
301.47
301.449
301.433
321.906
322.144
322.439
322.75
323.059
323.352
323.613
323.827
323.98
324.06
324.06
323.98
323.827
323.613
323.352
323.059
322.75
322.439
322.144
321.906
318.985
319.186
319.441
319.71
319.978
320.232
320.458
320.644
320.776
320.845
320.845
320.776
320.644
320.458
320.232
319.978
319.71
319.441
319.186
318.985
316.065
316.232
316.447
316.674
316.901
317.116
317.307
317.464
317.576
317.634
317.634
317.576
317.464
317.307
317.116
316.901
316.674
316.447
316.232
316.065
313.146
313.281
313.456
313.642
313.827
314.003
314.159
314.288
314.379
314.427
314.427
314.379
314.288
314.159
314.003
313.827
313.642
313.456
313.281
313.146
310.227
310.331
310.466
310.611
310.755
310.892
311.014
311.114
311.185
311.222
311.222
311.185
311.114
311.014
310.892
310.755
310.611
310.466
310.331
310.227
307.309
307.382
307.479
307.582
307.685
307.783
307.87
307.941
307.992
308.018
308.018
307.992
307.941
307.87
307.783
307.685
307.582
307.479
307.382
307.309
304.39
304.434
304.492
304.554
304.616
304.675
304.727
304.77
304.8
304.816
304.816
304.8
304.77
304.727
304.675
304.616
304.554
304.492
304.434
304.39
301.472
301.486
301.506
301.527
301.547
301.567
301.584
301.599
301.609
301.614
301.614
301.609
301.599
301.584
301.567
301.547
301.527
301.506
301.486
301.472
322.546
322.767
323.041
323.328
323.611
323.878
324.116
324.309
324.447
324.519
324.519
324.447
324.309
324.116
323.878
323.611
323.328
323.041
322.767
322.546
319.538
319.726
319.962
320.21
320.456
320.687
320.893
321.061
321.18
321.242
321.242
321.18
321.061
320.893
320.687
320.456
320.21
319.962
319.726
319.538
316.533
316.688
316.887
317.097
317.305
317.501
317.675
317.817
317.918
317.97
317.97
317.918
317.817
317.675
317.501
317.305
317.097
316.887
316.688
316.533
313.528
313.653
313.816
313.987
314.157
314.318
314.46
314.576
314.659
314.701
314.701
314.659
314.576
314.46
314.318
314.157
313.987
313.816
313.653
313.528
310.524
310.62
310.746
310.88
311.012
311.137
311.247
311.338
311.402
311.435
311.435
311.402
311.338
311.247
311.137
311.012
310.88
310.746
310.62
310.524
307.521
307.589
307.679
307.774
307.869
307.958
308.037
308.101
308.147
308.171
308.171
308.147
308.101
308.037
307.958
307.869
307.774
307.679
307.589
307.521
304.518
304.558
304.612
304.669
304.726
304.78
304.827
304.866
304.893
304.908
304.908
304.893
304.866
304.827
304.78
304.726
304.669
304.612
304.558
304.518
301.514
301.528
301.546
301.565
301.584
301.602
301.618
301.631
301.64
301.645
301.645
301.64
301.631
301.618
301.602
301.584
301.565
301.546
301.528
301.514
323.253
323.458
323.711
323.974
324.233
324.476
324.691
324.865
324.989
325.053
325.053
324.989
324.865
324.691
324.476
324.233
323.974
323.711
323.458
323.253
320.15
320.324
320.542
320.77
320.994
321.205
321.39
321.542
321.649
321.704
321.704
321.649
321.542
321.39
321.205
320.994
320.77
320.542
320.324
320.15
317.049
317.193
317.377
317.57
317.76
317.938
318.095
318.223
318.314
318.361
318.361
318.314
318.223
318.095
317.938
317.76
317.57
317.377
317.193
317.049
313.95
314.066
314.216
314.374
314.529
314.675
314.804
314.908
314.982
315.021
315.021
314.982
314.908
314.804
314.675
314.529
314.374
314.216
314.066
313.95
310.852
310.941
311.057
311.18
311.301
311.414
311.515
311.596
311.654
311.683
311.683
311.654
311.596
311.515
311.414
311.301
311.18
311.057
310.941
310.852
307.755
307.818
307.901
307.988
308.075
308.156
308.227
308.286
308.327
308.348
308.348
308.327
308.286
308.227
308.156
308.075
307.988
307.901
307.818
307.755
304.658
304.696
304.745
304.798
304.85
304.899
304.942
304.977
305.001
305.014
305.014
305.001
304.977
304.942
304.899
304.85
304.798
304.745
304.696
304.658
301.561
301.574
301.591
301.608
301.626
301.642
301.656
301.668
301.676
301.681
301.681
301.676
301.668
301.656
301.642
301.626
301.608
301.591
301.574
301.561
324.027
324.217
324.45
324.691
324.927
325.146
325.34
325.497
325.607
325.664
325.664
325.607
325.497
325.34
325.146
324.927
324.691
324.45
324.217
324.027
320.819
320.98
321.181
321.39
321.594
321.784
321.952
322.088
322.184
322.233
322.233
322.184
322.088
321.952
321.784
321.594
321.39
321.181
320.98
320.819
317.614
317.748
317.917
318.094
318.267
318.428
318.57
318.685
318.766
318.808
318.808
318.766
318.685
318.57
318.428
318.267
318.094
317.917
317.748
317.614
314.412
314.519
314.657
314.802
314.943
315.075
315.191
315.285
315.352
315.386
315.386
315.352
315.285
315.191
315.075
314.943
314.802
314.657
314.519
314.412
311.211
311.293
311.4
311.513
311.623
311.726
311.816
311.889
311.941
311.968
311.968
311.941
311.889
311.816
311.726
311.623
311.513
311.4
311.293
311.211
308.011
308.069
308.146
308.226
308.305
308.378
308.443
308.495
308.532
308.551
308.551
308.532
308.495
308.443
308.378
308.305
308.226
308.146
308.069
308.011
304.812
304.847
304.892
304.941
304.988
305.032
305.071
305.102
305.124
305.136
305.136
305.124
305.102
305.071
305.032
304.988
304.941
304.892
304.847
304.812
301.613
301.625
301.64
301.656
301.672
301.687
301.7
301.71
301.718
301.722
301.722
301.718
301.71
301.7
301.687
301.672
301.656
301.64
301.625
301.613
324.868
325.043
325.257
325.477
325.691
325.89
326.064
326.204
326.303
326.354
326.354
326.303
326.204
326.064
325.89
325.691
325.477
325.257
325.043
324.868
321.546
321.694
321.879
322.069
322.255
322.427
322.578
322.7
322.786
322.83
322.83
322.786
322.7
322.578
322.427
322.255
322.069
321.879
321.694
321.546
318.228
318.351
318.506
318.668
318.825
318.971
319.099
319.202
319.274
319.312
319.312
319.274
319.202
319.099
318.971
318.825
318.668
318.506
318.351
318.228
314.913
315.012
315.139
315.271
315.4
315.519
315.623
315.708
315.767
315.798
315.798
315.767
315.708
315.623
315.519
315.4
315.271
315.139
315.012
314.913
311.6
311.676
311.775
311.877
311.977
312.07
312.152
312.217
312.263
312.287
312.287
312.263
312.217
312.152
312.07
311.977
311.877
311.775
311.676
311.6
308.289
308.343
308.413
308.486
308.558
308.624
308.682
308.729
308.762
308.779
308.779
308.762
308.729
308.682
308.624
308.558
308.486
308.413
308.343
308.289
304.979
305.011
305.053
305.097
305.14
305.18
305.215
305.243
305.263
305.273
305.273
305.263
305.243
305.215
305.18
305.14
305.097
305.053
305.011
304.979
301.669
301.68
301.694
301.708
301.723
301.736
301.748
301.757
301.764
301.767
301.767
301.764
301.757
301.748
301.736
301.723
301.708
301.694
301.68
301.669
325.772
325.934
326.13
326.33
326.525
326.704
326.86
326.986
327.074
327.119
327.119
327.074
326.986
326.86
326.704
326.525
326.33
326.13
325.934
325.772
322.327
322.464
322.633
322.807
322.975
323.131
323.266
323.375
323.452
323.491
323.491
323.452
323.375
323.266
323.131
322.975
322.807
322.633
322.464
322.327
318.887
319.001
319.143
319.29
319.433
319.564
319.679
319.771
319.836
319.87
319.87
319.836
319.771
319.679
319.564
319.433
319.29
319.143
319.001
318.887
315.451
315.542
315.659
315.779
315.896
316.004
316.097
316.173
316.226
316.253
316.253
316.226
316.173
316.097
316.004
315.896
315.779
315.659
315.542
315.451
312.018
312.088
312.178
312.272
312.363
312.447
312.52
312.579
312.62
312.641
312.641
312.62
312.579
312.52
312.447
312.363
312.272
312.178
312.088
312.018
308.587
308.637
308.701
308.768
308.833
308.893
308.945
308.987
309.017
309.032
309.032
309.017
308.987
308.945
308.893
308.833
308.768
308.701
308.637
308.587
305.158
305.187
305.226
305.266
305.305
305.341
305.372
305.398
305.415
305.424
305.424
305.415
305.398
305.372
305.341
305.305
305.266
305.226
305.187
305.158
301.729
301.739
301.752
301.765
301.778
301.79
301.801
301.809
301.815
301.818
301.818
301.815
301.809
301.801
301.79
301.778
301.765
301.752
301.739
301.729
326.731
326.88
327.059
327.242
327.418
327.579
327.72
327.832
327.911
327.951
327.951
327.911
327.832
327.72
327.579
327.418
327.242
327.059
326.88
326.731
323.154
323.28
323.434
323.593
323.745
323.886
324.008
324.105
324.173
324.208
324.208
324.173
324.105
324.008
323.886
323.745
323.593
323.434
323.28
323.154
319.584
319.688
319.818
319.952
320.082
320.201
320.304
320.386
320.444
320.474
320.474
320.444
320.386
320.304
320.201
320.082
319.952
319.818
319.688
319.584
316.019
316.103
316.209
316.319
316.425
316.522
316.607
316.674
316.722
316.746
316.746
316.722
316.674
316.607
316.522
316.425
316.319
316.209
316.103
316.019
312.459
312.523
312.605
312.691
312.773
312.849
312.915
312.967
313.004
313.023
313.023
313.004
312.967
312.915
312.849
312.773
312.691
312.605
312.523
312.459
308.901
308.947
309.005
309.066
309.125
309.18
309.227
309.264
309.291
309.304
309.304
309.291
309.264
309.227
309.18
309.125
309.066
309.005
308.947
308.901
305.346
305.373
305.408
305.445
305.48
305.513
305.541
305.564
305.58
305.588
305.588
305.58
305.564
305.541
305.513
305.48
305.445
305.408
305.373
305.346
301.792
301.801
301.813
301.825
301.837
301.848
301.857
301.865
301.87
301.873
301.873
301.87
301.865
301.857
301.848
301.837
301.825
301.813
301.801
301.792
327.719
327.856
328.02
328.187
328.347
328.493
328.62
328.72
328.791
328.827
328.827
328.791
328.72
328.62
328.493
328.347
328.187
328.02
327.856
327.719
324.002
324.118
324.26
324.404
324.543
324.67
324.78
324.867
324.928
324.96
324.96
324.928
324.867
324.78
324.67
324.543
324.404
324.26
324.118
324.002
320.295
320.391
320.511
320.633
320.751
320.858
320.951
321.026
321.077
321.104
321.104
321.077
321.026
320.951
320.858
320.751
320.633
320.511
320.391
320.295
316.597
316.674
316.772
316.872
316.968
317.056
317.133
317.193
317.236
317.258
317.258
317.236
317.193
317.133
317.056
316.968
316.872
316.772
316.674
316.597
312.905
312.965
313.04
313.118
313.193
313.262
313.321
313.369
313.402
313.419
313.419
313.402
313.369
313.321
313.262
313.193
313.118
313.04
312.965
312.905
309.219
309.261
309.315
309.371
309.424
309.473
309.516
309.55
309.573
309.585
309.585
309.573
309.55
309.516
309.473
309.424
309.371
309.315
309.261
309.219
305.536
305.561
305.594
305.627
305.659
305.689
305.714
305.735
305.749
305.756
305.756
305.749
305.735
305.714
305.689
305.659
305.627
305.594
305.561
305.536
301.856
301.864
301.875
301.886
301.897
301.907
301.915
301.922
301.927
301.929
301.929
301.927
301.922
301.915
301.907
301.897
301.886
301.875
301.864
301.856
328.674
328.8
328.951
329.105
329.251
329.384
329.499
329.59
329.654
329.686
329.686
329.654
329.59
329.499
329.384
329.251
329.105
328.951
328.8
328.674
324.811
324.918
325.049
325.182
325.309
325.425
325.525
325.604
325.66
325.688
325.688
325.66
325.604
325.525
325.425
325.309
325.182
325.049
324.918
324.811
320.967
321.055
321.166
321.279
321.387
321.485
321.57
321.637
321.684
321.708
321.708
321.684
321.637
321.57
321.485
321.387
321.279
321.166
321.055
320.967
317.137
317.209
317.299
317.391
317.48
317.56
317.63
317.685
317.724
317.743
317.743
317.724
317.685
317.63
317.56
317.48
317.391
317.299
317.209
317.137
313.32
313.375
313.445
313.517
313.586
313.649
313.703
313.746
313.776
313.791
313.791
313.776
313.746
313.703
313.649
313.586
313.517
313.445
313.375
313.32
309.512
309.551
309.601
309.652
309.702
309.747
309.786
309.816
309.838
309.849
309.849
309.838
309.816
309.786
309.747
309.702
309.652
309.601
309.551
309.512
305.711
305.734
305.764
305.795
305.825
305.852
305.875
305.894
305.907
305.913
305.913
305.907
305.894
305.875
305.852
305.825
305.795
305.764
305.734
305.711
301.914
301.922
301.932
301.942
301.952
301.961
301.969
301.975
301.98
301.982
301.982
301.98
301.975
301.969
301.961
301.952
301.942
301.932
301.922
301.914
329.425
329.544
329.686
329.83
329.967
330.091
330.198
330.283
330.341
330.372
330.372
330.341
330.283
330.198
330.091
329.967
329.83
329.686
329.544
329.425
325.424
325.525
325.648
325.773
325.893
326.001
326.094
326.168
326.22
326.246
326.246
326.22
326.168
326.094
326.001
325.893
325.773
325.648
325.525
325.424
321.459
321.543
321.648
321.754
321.855
321.948
322.027
322.09
322.134
322.156
322.156
322.134
322.09
322.027
321.948
321.855
321.754
321.648
321.543
321.459
317.524
317.591
317.677
317.764
317.848
317.923
317.989
318.04
318.076
318.095
318.095
318.076
318.04
317.989
317.923
317.848
317.764
317.677
317.591
317.524
313.611
313.663
313.729
313.798
313.863
313.922
313.973
314.013
314.041
314.056
314.056
314.041
314.013
313.973
313.922
313.863
313.798
313.729
313.663
313.611
309.715
309.752
309.799
309.848
309.895
309.937
309.974
310.003
310.023
310.033
310.033
310.023
310.003
309.974
309.937
309.895
309.848
309.799
309.752
309.715
305.831
305.853
305.882
305.911
305.939
305.964
305.986
306.004
306.016
306.022
306.022
306.016
306.004
305.986
305.964
305.939
305.911
305.882
305.853
305.831
301.954
301.961
301.971
301.981
301.99
301.999
302.006
302.012
302.016
302.018
302.018
302.016
302.012
302.006
301.999
301.99
301.981
301.971
301.961
301.954
)
;

boundaryField
{
    hotSide
    {
        type            fixedGradient;
        gradient        nonuniform List<scalar> 
400
(
200.445
201.024
202.185
203.936
206.287
209.251
212.844
217.082
221.982
227.561
233.836
240.822
248.533
256.982
266.181
276.139
286.863
298.361
310.638
323.698
205.115
205.656
206.745
208.39
210.606
213.409
216.821
220.862
225.555
230.92
236.979
243.751
251.252
259.499
268.504
278.278
288.829
300.166
312.292
325.212
210.168
210.666
211.668
213.187
215.243
217.857
221.057
224.87
229.323
234.444
240.258
246.789
254.056
262.079
270.872
280.446
290.811
301.974
313.941
326.715
215.522
215.968
216.869
218.243
220.114
222.512
225.47
229.023
233.208
238.056
243.6
249.867
256.881
264.663
273.228
282.591
292.761
303.745
315.547
328.171
221.026
221.414
222.203
223.414
225.079
227.236
229.928
233.199
237.091
241.647
246.902
252.891
259.639
267.171
275.504
284.651
294.623
305.426
317.065
329.54
226.451
226.778
227.445
228.483
229.93
231.834
234.247
237.223
240.815
245.07
250.033
255.741
262.224
269.509
277.612
286.55
296.331
306.961
318.444
330.779
231.487
231.751
232.299
233.164
234.395
236.05
238.19
240.88
244.181
248.15
252.835
258.278
264.513
271.568
279.461
288.207
297.815
308.289
319.631
331.842
235.761
235.97
236.409
237.119
238.157
239.589
241.488
243.926
246.973
250.692
255.137
260.354
266.378
273.238
280.954
289.54
299.003
309.349
320.576
332.685
238.888
239.055
239.411
240.003
240.894
242.157
243.874
246.123
248.98
252.513
256.78
261.83
267.7
274.418
282.006
290.476
299.836
310.089
321.234
333.27
240.546
240.689
241
241.528
242.339
243.511
245.129
247.276
250.031
253.465
257.637
262.598
268.386
275.029
282.549
290.958
300.264
310.469
321.572
333.57
240.546
240.689
241
241.528
242.339
243.511
245.129
247.276
250.031
253.465
257.637
262.598
268.386
275.029
282.549
290.958
300.264
310.469
321.572
333.57
238.888
239.055
239.411
240.003
240.894
242.157
243.874
246.123
248.98
252.513
256.78
261.83
267.7
274.418
282.006
290.476
299.836
310.089
321.234
333.27
235.761
235.97
236.409
237.119
238.157
239.589
241.488
243.926
246.973
250.692
255.137
260.354
266.378
273.238
280.954
289.54
299.003
309.349
320.576
332.685
231.487
231.751
232.299
233.164
234.395
236.05
238.19
240.88
244.181
248.15
252.835
258.278
264.513
271.568
279.461
288.207
297.815
308.289
319.631
331.842
226.451
226.778
227.445
228.483
229.93
231.834
234.247
237.223
240.815
245.07
250.033
255.741
262.224
269.509
277.612
286.55
296.331
306.961
318.444
330.779
221.026
221.414
222.203
223.414
225.079
227.236
229.928
233.199
237.091
241.647
246.902
252.891
259.639
267.171
275.504
284.651
294.623
305.426
317.065
329.54
215.522
215.968
216.869
218.243
220.114
222.512
225.47
229.023
233.208
238.056
243.6
249.867
256.881
264.663
273.228
282.591
292.761
303.745
315.547
328.171
210.168
210.666
211.668
213.187
215.243
217.857
221.057
224.87
229.323
234.444
240.258
246.789
254.056
262.079
270.872
280.446
290.811
301.974
313.941
326.715
205.115
205.656
206.745
208.39
210.606
213.409
216.821
220.862
225.555
230.92
236.979
243.751
251.252
259.499
268.504
278.278
288.829
300.166
312.292
325.212
200.445
201.024
202.185
203.936
206.287
209.251
212.844
217.082
221.982
227.561
233.836
240.822
248.533
256.982
266.181
276.139
286.863
298.361
310.638
323.698
)
;
    }
    coldSide
    {
        type            mixed;
        refValue        uniform 300;
        refGradient     uniform 0;
        valueFraction   uniform 0.991591;
        source          uniform 0;
        value           nonuniform List<scalar> 
400
(
300.011
300.011
300.011
300.011
300.011
300.011
300.011
300.012
300.012
300.012
300.012
300.013
300.013
300.014
300.014
300.015
300.015
300.016
300.016
300.016
300.011
300.011
300.011
300.011
300.011
300.011
300.011
300.012
300.012
300.012
300.012
300.013
300.013
300.014