/*--------------------------------*- C++ -*----------------------------------*\
| =========                 |                                                 |
| \\      /  F ield         | OpenFOAM: The Open Source CFD Toolbox           |
|  \\    /   O peration     | Version:  2212                                  |
|   \\  /    A nd           | Website:  www.openfoam.com                      |
|    \\/     M anipulation  |                                                 |
\*---------------------------------------------------------------------------*/
FoamFile
{
    version     2.0;
    format      ascii;
    arch        "LSB;label=32;scalar=64";
    class       volScalarField;
    location    "0";
    object      Ttrue;
}
// * * * * * * * * * * * * * * * * * * * * * * * * * * * * * * * * * * * * * //

dimensions      [0 0 0 1 0 0 0];

internalField   nonuniform List<scalar> 
3200
(
328.915
329.224
329.618
330.047
330.489
330.923
331.323
331.662
331.908
332.038
332.038
331.908
331.662
331.323
330.923
330.489
330.047
329.618
329.224
328.915
324.962
325.223
325.563
325.934
326.317
326.692
327.038
327.331
327.543
327.656
327.656
327.543
327.331
327.038
326.692
326.317
325.934
325.563
325.223
324.962
321.052
321.268
321.554
321.868
322.192
322.509
322.801
323.048
323.227
323.322
323.322
323.227
323.048
322.801
322.509
322.192
321.868
321.554
321.268
321.052
317.178
317.352
317.585
317.842
318.106
318.365
318.604
318.805
318.952
319.029
319.029
318.952
318.805
318.604
318.365
318.106
317.842
317.585
317.352
317.178
313.333
313.467
313.648
313.847
314.053
314.254
314.44
314.596
314.71
314.77
314.77
314.71
314.596
314.44
314.254
314.053
313.847
313.648
313.467
313.333
309.512
309.607
309.736
309.878
310.025
310.168
310.301
310.412
310.494
310.536
310.536
310.494
310.412
310.301
310.168
310.025
309.878
309.736
309.607
309.512
305.707
305.764
305.841
305.926
306.014
306.101
306.18
306.247
306.296
306.322
306.322
306.296
306.247
306.18
306.101
306.014
305.926
305.841
305.764
305.707
301.912
301.931
301.957
301.985
302.015
302.044
302.07
302.093
302.109
302.118
302.118
302.109
302.093
302.07
302.044
302.015
301.985
301.957
301.931
301.912
329.021
329.327
329.717
330.143
330.58
331.009
331.405
331.739
331.982
332.111
332.111
331.982
331.739
331.405
331.009
330.58
330.143
329.717
329.327
329.021
325.053
325.312
325.649
326.017
326.395
326.767
327.109
327.397
327.607
327.718
327.718
327.607
327.397
327.109
326.767
326.395
326.017
325.649
325.312
325.053
321.128
321.343
321.627
321.938
322.258
322.571
322.86
323.104
323.281
323.374
323.374
323.281
323.104
322.86
322.571
322.258
321.938
321.627
321.343
321.128
317.24
317.413
317.644
317.898
318.16
318.416
318.652
318.851
318.996
319.072
319.072
318.996
318.851
318.652
318.416
318.16
317.898
317.644
317.413
317.24
313.381
313.514
313.694
313.891
314.094
314.294
314.477
314.631
314.744
314.803
314.803
314.744
314.631
314.477
314.294
314.094
313.891
313.694
313.514
313.381
309.546
309.64
309.768
309.909
310.054
310.197
310.327
310.438
310.518
310.56
310.56
310.518
310.438
310.327
310.197
310.054
309.909
309.768
309.64
309.546
305.728
305.784
305.86
305.945
306.032
306.118
306.196
306.262
306.31
306.336
306.336
306.31
306.262
306.196
306.118
306.032
305.945
305.86
305.784
305.728
301.919
301.938
301.963
301.992
302.021
302.049
302.076
302.098
302.114
302.123
302.123
302.114
302.098
302.076
302.049
302.021
301.992
301.963
301.938
301.919
329.232
329.533
329.917
330.335
330.764
331.183
331.57
331.896
332.133
332.258
332.258
332.133
331.896
331.57
331.183
330.764
330.335
329.917
329.533
329.232
325.235
325.49
325.821
326.182
326.553
326.916
327.251
327.532
327.737
327.845
327.845
327.737
327.532
327.251
326.916
326.553
326.182
325.821
325.49
325.235
321.281
321.493
321.772
322.077
322.39
322.697
322.98
323.217
323.39
323.481
323.481
323.39
323.217
322.98
322.697
322.39
322.077
321.772
321.493
321.281
317.364
317.535
317.762
318.012
318.268
318.519
318.749
318.943
319.084
319.159
319.159
319.084
318.943
318.749
318.519
318.268
318.012
317.762
317.535
317.364
313.478
313.609
313.785
313.979
314.178
314.373
314.552
314.703
314.813
314.87
314.87
314.813
314.703
314.552
314.373
314.178
313.979
313.785
313.609
313.478
309.615
309.708
309.833
309.972
310.114
310.253
310.381
310.489
310.567
310.608
310.608
310.567
310.489
310.381
310.253
310.114
309.972
309.833
309.708
309.615
305.769
305.824
305.899
305.983
306.068
306.152
306.228
306.293
306.34
306.364
306.364
306.34
306.293
306.228
306.152
306.068
305.983
305.899
305.824
305.769
301.933
301.951
301.976
302.004
302.033
302.061
302.087
302.108
302.124
302.132
302.132
302.124
302.108
302.087
302.061
302.033
302.004
301.976
301.951
301.933
329.55
329.845
330.219
330.625
331.041
331.447
331.821
332.135
332.363
332.483
332.483
332.363
332.135
331.821
331.447
331.041
330.625
330.219
329.845
329.55
325.509
325.758
326.08
326.432
326.792
327.144
327.467
327.738
327.935
328.039
328.039
327.935
327.738
327.467
327.144
326.792
326.432
326.08
325.758
325.509
321.511
321.718
321.99
322.287
322.591
322.888
323.161
323.39
323.557
323.644
323.644
323.557
323.39
323.161
322.888
322.591
322.287
321.99
321.718
321.511
317.552
317.718
317.94
318.183
318.431
318.674
318.897
319.084
319.22
319.292
319.292
319.22
319.084
318.897
318.674
318.431
318.183
317.94
317.718
317.552
313.623
313.751
313.923
314.111
314.305
314.494
314.667
314.812
314.918
314.973
314.973
314.918
314.812
314.667
314.494
314.305
314.111
313.923
313.751
313.623
309.719
309.809
309.931
310.066
310.204
310.339
310.463
310.567
310.642
310.681
310.681
310.642
310.567
310.463
310.339
310.204
310.066
309.931
309.809
309.719
305.831
305.885
305.958
306.039
306.122
306.203
306.277
306.34
306.385
306.408
306.408
306.385
306.34
306.277
306.203
306.122
306.039
305.958
305.885
305.831
301.953
301.971
301.996
302.023
302.051
302.078
302.103
302.124
302.139
302.147
302.147
302.139
302.124
302.103
302.078
302.051
302.023
301.996
301.971
301.953
329.976
330.261
330.623
331.014
331.414
331.804
332.161
332.46
332.677
332.792
332.792
332.677
332.46
332.161
331.804
331.414
331.014
330.623
330.261
329.976
325.875
326.116
326.428
326.767
327.113
327.451
327.759
328.018
328.206
328.304
328.304
328.206
328.018
327.759
327.451
327.113
326.767
326.428
326.116
325.875
321.82
322.02
322.283
322.569
322.862
323.147
323.407
323.626
323.784
323.868
323.868
323.784
323.626
323.407
323.147
322.862
322.569
322.283
322.02
321.82
317.803
317.964
318.178
318.412
318.652
318.885
319.098
319.276
319.405
319.474
319.474
319.405
319.276
319.098
318.885
318.652
318.412
318.178
317.964
317.803
313.818
313.941
314.108
314.29
314.476
314.657
314.822
314.961
315.061
315.114
315.114
315.061
314.961
314.822
314.657
314.476
314.29
314.108
313.941
313.818
309.857
309.945
310.063
310.193
310.326
310.455
310.573
310.672
310.744
310.782
310.782
310.744
310.672
310.573
310.455
310.326
310.193
310.063
309.945
309.857
305.914
305.966
306.037
306.115
306.195
306.273
306.344
306.403
306.446
306.469
306.469
306.446
306.403
306.344
306.273
306.195
306.115
306.037
305.966
305.914
301.981
301.999
302.023
302.049
302.075
302.101
302.125
302.145
302.159
302.167
302.167
302.159
302.145
302.125
302.101
302.075
302.049
302.023
301.999
301.981
330.51
330.784
331.132
331.506
331.887
332.257
332.595
332.877
333.082
333.189
333.189
333.082
332.877
332.595
332.257
331.887
331.506
331.132
330.784
330.51
326.335
326.567
326.866
327.19
327.521
327.841
328.133
328.377
328.554
328.646
328.646
328.554
328.377
328.133
327.841
327.521
327.19
326.866
326.567
326.335
322.206
322.399
322.651
322.925
323.204
323.475
323.722
323.928
324.077
324.155
324.155
324.077
323.928
323.722
323.475
323.204
322.925
322.651
322.399
322.206
318.118
318.273
318.479
318.702
318.931
319.152
319.354
319.522
319.644
319.708
319.708
319.644
319.522
319.354
319.152
318.931
318.702
318.479
318.273
318.118
314.062
314.181
314.34
314.514
314.692
314.864
315.021
315.151
315.246
315.296
315.296
315.246
315.151
315.021
314.864
314.692
314.514
314.34
314.181
314.062
310.031
310.115
310.229
310.353
310.48
310.603
310.715
310.808
310.876
310.911
310.911
310.876
310.808
310.715
310.603
310.48
310.353
310.229
310.115
310.031
306.018
306.068
306.137
306.211
306.287
306.361
306.428
306.484
306.525
306.546
306.546
306.525
306.484
306.428
306.361
306.287
306.211
306.137
306.068
306.018
302.016
302.033
302.056
302.081
302.106
302.131
302.154
302.172
302.186
302.193
302.193
302.186
302.172
302.154
302.131
302.106
302.081
302.056
302.033
302.016
331.154
331.416
331.747
332.103
332.463
332.811
333.128
333.392
333.582
333.682
333.682
333.582
333.392
333.128
332.811
332.463
332.103
331.747
331.416
331.154
326.889
327.111
327.396
327.704
328.016
328.317
328.591
328.82
328.984
329.071
329.071
328.984
328.82
328.591
328.317
328.016
327.704
327.396
327.111
326.889
322.673
322.857
323.097
323.357
323.621
323.876
324.108
324.3
324.439
324.512
324.512
324.439
324.3
324.108
323.876
323.621
323.357
323.097
322.857
322.673
318.497
318.646
318.842
319.054
319.27
319.478
319.668
319.825
319.939
319.998
319.998
319.939
319.825
319.668
319.478
319.27
319.054
318.842
318.646
318.497
314.356
314.47
314.622
314.787
314.955
315.117
315.264
315.386
315.475
315.521
315.521
315.475
315.386
315.264
315.117
314.955
314.787
314.622
314.47
314.356
310.241
310.321
310.43
310.548
310.667
310.783
310.888
310.976
311.039
311.072
311.072
311.039
310.976
310.888
310.783
310.667
310.548
310.43
310.321
310.241
306.144
306.192
306.257
306.328
306.4
306.469
306.532
306.585
306.623
306.642
306.642
306.623
306.585
306.532
306.469
306.4
306.328
306.257
306.192
306.144
302.058
302.074
302.096
302.12
302.144
302.167
302.188
302.206
302.219
302.225
302.225
302.219
302.206
302.188
302.167
302.144
302.12
302.096
302.074
302.058
331.909
332.159
332.472
332.807
333.145
333.47
333.764
334.009
334.184
334.276
334.276
334.184
334.009
333.764
333.47
333.145
332.807
332.472
332.159
331.909
327.539
327.75
328.02
328.31
328.603
328.884
329.139
329.351
329.503
329.582
329.582
329.503
329.351
329.139
328.884
328.603
328.31
328.02
327.75
327.539
323.22
323.395
323.622
323.867
324.115
324.353
324.568
324.747
324.876
324.943
324.943
324.876
324.747
324.568
324.353
324.115
323.867
323.622
323.395
323.22
318.943
319.084
319.269
319.47
319.672
319.867
320.043
320.189
320.294
320.349
320.349
320.294
320.189
320.043
319.867
319.672
319.47
319.269
319.084
318.943
314.701
314.809
314.953
315.109
315.266
315.418
315.555
315.668
315.75
315.793
315.793
315.75
315.668
315.555
315.418
315.266
315.109
314.953
314.809
314.701
310.486
310.563
310.666
310.777
310.889
310.997
311.095
311.176
311.235
311.265
311.265
311.235
311.176
311.095
310.997
310.889
310.777
310.666
310.563
310.486
306.291
306.337
306.398
306.465
306.533
306.598
306.656
306.705
306.74
306.758
306.758
306.74
306.705
306.656
306.598
306.533
306.465
306.398
306.337
306.291
302.108
302.123
302.143
302.166
302.189
302.21
302.23
302.246
302.258
302.264
302.264
302.258
302.246
302.23
302.21
302.189
302.166
302.143
302.123
302.108
332.777
333.013
333.307
333.621
333.936
334.237
334.509
334.734
334.895
334.979
334.979
334.895
334.734
334.509
334.237
333.936
333.621
333.307
333.013
332.777
328.286
328.486
328.74
329.011
329.284
329.545
329.781
329.975
330.114
330.187
330.187
330.114
329.975
329.781
329.545
329.284
329.011
328.74
328.486
328.286
323.848
324.014
324.228
324.457
324.688
324.909
325.108
325.272
325.39
325.452
325.452
325.39
325.272
325.108
324.909
324.688
324.457
324.228
324.014
323.848
319.455
319.588
319.763
319.95
320.139
320.32
320.482
320.617
320.713
320.763
320.763
320.713
320.617
320.482
320.32
320.139
319.95
319.763
319.588
319.455
315.098
315.2
315.336
315.481
315.628
315.769
315.895
316
316.074
316.114
316.114
316.074
316
315.895
315.769
315.628
315.481
315.336
315.2
315.098
310.769
310.842
310.938
311.042
311.147
311.247
311.338
311.412
311.466
311.494
311.494
311.466
311.412
311.338
311.247
311.147
311.042
310.938
310.842
310.769
306.461
306.504
306.562
306.624
306.687
306.748
306.802
306.847
306.879
306.896
306.896
306.879
306.847
306.802
306.748
306.687
306.624
306.562
306.504
306.461
302.164
302.179
302.198
302.219
302.24
302.26
302.279
302.294
302.304
302.31
302.31
302.304
302.294
302.279
302.26
302.24
302.219
302.198
302.179
302.164
333.76
333.981
334.257
334.548
334.84
335.118
335.367
335.572
335.719
335.795
335.795
335.719
335.572
335.367
335.118
334.84
334.548
334.257
333.981
333.76
329.132
329.319
329.557
329.81
330.063
330.303
330.519
330.697
330.824
330.89
330.89
330.824
330.697
330.519
330.303
330.063
329.81
329.557
329.319
329.132
324.56
324.715
324.916
325.129
325.343
325.547
325.729
325.879
325.987
326.043
326.043
325.987
325.879
325.729
325.547
325.343
325.129
324.916
324.715
324.56
320.034
320.159
320.323
320.498
320.672
320.839
320.988
321.111
321.199
321.245
321.245
321.199
321.111
320.988
320.839
320.672
320.498
320.323
320.159
320.034
315.547
315.643
315.77
315.906
316.042
316.171
316.287
316.383
316.451
316.486
316.486
316.451
316.383
316.287
316.171
316.042
315.906
315.77
315.643
315.547
311.089
311.157
311.248
311.345
311.442
311.534
311.617
311.685
311.734
311.76
311.76
311.734
311.685
311.617
311.534
311.442
311.345
311.248
311.157
311.089
306.653
306.693
306.747
306.806
306.864
306.919
306.969
307.01
307.04
307.055
307.055
307.04
307.01
306.969
306.919
306.864
306.806
306.747
306.693
306.653
302.229
302.242
302.26
302.28
302.299
302.318
302.335
302.348
302.358
302.363
302.363
302.358
302.348
302.335
302.318
302.299
302.28
302.26
302.242
302.229
334.857
335.064
335.321
335.591
335.86
336.114
336.342
336.528
336.661
336.73
336.73
336.661
336.528
336.342
336.114
335.86
335.591
335.321
335.064
334.857
330.077
330.252
330.474
330.708
330.941
331.161
331.358
331.52
331.635
331.694
331.694
331.635
331.52
331.358
331.161
330.941
330.708
330.474
330.252
330.077
325.355
325.5
325.687
325.885
326.082
326.269
326.435
326.572
326.669
326.719
326.719
326.669
326.572
326.435
326.269
326.082
325.885
325.687
325.5
325.355
320.682
320.799
320.951
321.113
321.274
321.427
321.563
321.675
321.754
321.796
321.796
321.754
321.675
321.563
321.427
321.274
321.113
320.951
320.799
320.682
316.049
316.139
316.257
316.383
316.508
316.627
316.733
316.82
316.881
316.914
316.914
316.881
316.82
316.733
316.627
316.508
316.383
316.257
316.139
316.049
311.447
311.51
311.595
311.685
311.774
311.859
311.935
311.997
312.041
312.064
312.064
312.041
311.997
311.935
311.859
311.774
311.685
311.595
311.51
311.447
306.867
306.905
306.955
307.009
307.063
307.114
307.16
307.197
307.223
307.237
307.237
307.223
307.197
307.16
307.114
307.063
307.009
306.955
306.905
306.867
302.3
302.313
302.33
302.348
302.366
302.383
302.398
302.411
302.42
302.424
302.424
302.42
302.411
302.398
302.383
302.366
302.348
302.33
302.313
302.3
336.072
336.265
336.502
336.752
336.998
337.23
337.437
337.605
337.725
337.787
337.787
337.725
337.605
337.437
337.23
336.998
336.752
336.502
336.265
336.072
331.123
331.286
331.491
331.707
331.921
332.122
332.301
332.447
332.55
332.604
332.604
332.55
332.447
332.301
332.122
331.921
331.707
331.491
331.286
331.123
326.235
326.37
326.543
326.726
326.907
327.077
327.228
327.352
327.439
327.485
327.485
327.439
327.352
327.228
327.077
326.907
326.726
326.543
326.37
326.235
321.399
321.508
321.649
321.798
321.946
322.085
322.209
322.31
322.382
322.419
322.419
322.382
322.31
322.209
322.085
321.946
321.798
321.649
321.508
321.399
316.604
316.688
316.797
316.914
317.029
317.137
317.233
317.312
317.367
317.396
317.396
317.367
317.312
317.233
317.137
317.029
316.914
316.797
316.688
316.604
311.843
311.902
311.98
312.063
312.145
312.222
312.291
312.347
312.387
312.408
312.408
312.387
312.347
312.291
312.222
312.145
312.063
311.98
311.902
311.843
307.104
307.14
307.186
307.236
307.286
307.332
307.373
307.407
307.431
307.443
307.443
307.431
307.407
307.373
307.332
307.286
307.236
307.186
307.14
307.104
302.38
302.392
302.407
302.424
302.441
302.456
302.47
302.481
302.489
302.494
302.494
302.489
302.481
302.47
302.456
302.441
302.424
302.407
302.392
302.38
337.404
337.583
337.802
338.031
338.256
338.467
338.654
338.806
338.913
338.969
338.969
338.913
338.806
338.654
338.467
338.256
338.031
337.802
337.583
337.404
332.27
332.421
332.611
332.809
333.004
333.187
333.349
333.48
333.573
333.622
333.622
333.573
333.48
333.349
333.187
333.004
332.809
332.611
332.421
332.27
327.2
327.326
327.486
327.653
327.818
327.973
328.11
328.221
328.3
328.341
328.341
328.3
328.221
328.11
327.973
327.818
327.653
327.486
327.326
327.2
322.185
322.286
322.416
322.553
322.688
322.815
322.927
323.018
323.082
323.116
323.116
323.082
323.018
322.927
322.815
322.688
322.553
322.416
322.286
322.185
317.214
317.291
317.392
317.499
317.604
317.703
317.79
317.861
317.911
317.937
317.937
317.911
317.861
317.79
317.703
317.604
317.499
317.392
317.291
317.214
312.277
312.332
312.404
312.48
312.555
312.626
312.688
312.738
312.774
312.793
312.793
312.774
312.738
312.688
312.626
312.555
312.48
312.404
312.332
312.277
307.365
307.397
307.441
307.486
307.531
307.574
307.611
307.642
307.663
307.674
307.674
307.663
307.642
307.611
307.574
307.531
307.486
307.441
307.397
307.365
302.467
302.478
302.492
302.508
302.523
302.537
302.55
302.56
302.567
302.571
302.571
302.567
302.56
302.55
302.537
302.523
302.508
302.492
302.478
302.467
338.854
339.019
339.221
339.431
339.636
339.827
339.995
340.131
340.227
340.277
340.277
340.227
340.131
339.995
339.827
339.636
339.431
339.221
339.019
338.854
333.518
333.658
333.833
334.014
334.192
334.358
334.503
334.621
334.705
334.748
334.748
334.705
334.621
334.503
334.358
334.192
334.014
333.833
333.658
333.518
328.251
328.367
328.514
328.667
328.818
328.958
329.081
329.181
329.252
329.288
329.288
329.252
329.181
329.081
328.958
328.818
328.667
328.514
328.367
328.251
323.04
323.134
323.254
323.379
323.502
323.617
323.718
323.8
323.858
323.887
323.887
323.858
323.8
323.718
323.617
323.502
323.379
323.254
323.134
323.04
317.877
317.948
318.041
318.139
318.235
318.324
318.403
318.466
318.511
318.534
318.534
318.511
318.466
318.403
318.324
318.235
318.139
318.041
317.948
317.877
312.749
312.8
312.866
312.936
313.005
313.068
313.125
313.17
313.202
313.219
313.219
313.202
313.17
313.125
313.068
313.005
312.936
312.866
312.8
312.749
307.648
307.678
307.718
307.76
307.801
307.839
307.873
307.9
307.92
307.93
307.93
307.92
307.9
307.873
307.839
307.801
307.76
307.718
307.678
307.648
302.562
302.572
302.585
302.599
302.613
302.626
302.637
302.646
302.653
302.656
302.656
302.653
302.646
302.637
302.626
302.613
302.599
302.585
302.572
302.562
340.419
340.572
340.757
340.949
341.135
341.308
341.459
341.581
341.667
341.711
341.711
341.667
341.581
341.459
341.308
341.135
340.949
340.757
340.572
340.419
334.866
334.995
335.155
335.321
335.482
335.632
335.763
335.869
335.944
335.982
335.982
335.944
335.869
335.763
335.632
335.482
335.321
335.155
334.995
334.866
329.384
329.491
329.626
329.767
329.903
330.03
330.141
330.231
330.294
330.326
330.326
330.294
330.231
330.141
330.03
329.903
329.767
329.626
329.491
329.384
323.963
324.05
324.16
324.274
324.386
324.49
324.581
324.654
324.706
324.732
324.732
324.706
324.654
324.581
324.49
324.386
324.274
324.16
324.05
323.963
318.592
318.658
318.743
318.833
318.92
319.001
319.071
319.128
319.168
319.189
319.189
319.168
319.128
319.071
319.001
318.92
318.833
318.743
318.658
318.592
313.259
313.306
313.367
313.43
313.493
313.55
313.601
313.642
313.67
313.685
313.685
313.67
313.642
313.601
313.55
313.493
313.43
313.367
313.306
313.259
307.953
307.981
308.018
308.056
308.093
308.128
308.159
308.183
308.2
308.209
308.209
308.2
308.183
308.159
308.128
308.093
308.056
308.018
307.981
307.953
302.664
302.674
302.686
302.699
302.711
302.723
302.733
302.741
302.747
302.75
302.75
302.747
302.741
302.733
302.723
302.711
302.699
302.686
302.674
302.664
342.095
342.235
342.405
342.58
342.749
342.905
343.041
343.15
343.226
343.266
343.266
343.226
343.15
343.041
342.905
342.749
342.58
342.405
342.235
342.095
336.307
336.426
336.573
336.724
336.871
337.006
337.124
337.218
337.285
337.319
337.319
337.285
337.218
337.124
337.006
336.871
336.724
336.573
336.426
336.307
330.596
330.695
330.819
330.946
331.07
331.185
331.285
331.365
331.421
331.45
331.45
331.421
331.365
331.285
331.185
331.07
330.946
330.819
330.695
330.596
324.95
325.029
325.13
325.235
325.336
325.43
325.511
325.577
325.623
325.647
325.647
325.623
325.577
325.511
325.43
325.336
325.235
325.13
325.029
324.95
319.356
319.417
319.495
319.576
319.655
319.728
319.792
319.843
319.879
319.897
319.897
319.879
319.843
319.792
319.728
319.655
319.576
319.495
319.417
319.356
313.803
313.846
313.902
313.96
314.017
314.069
314.114
314.151
314.176
314.189
314.189
314.176
314.151
314.114
314.069
314.017
313.96
313.902
313.846
313.803
308.279
308.305
308.339
308.374
308.407
308.439
308.466
308.488
308.503
308.511
308.511
308.503
308.488
308.466
308.439
308.407
308.374
308.339
308.305
308.279
302.773
302.782
302.793
302.805
302.816
302.827
302.836
302.843
302.848
302.851
302.851
302.848
302.843
302.836
302.827
302.816
302.805
302.793
302.782
302.773
343.864
343.993
344.149
344.308
344.461
344.602
344.724
344.822
344.89
344.925
344.925
344.89
344.822
344.724
344.602
344.461
344.308
344.149
343.993
343.864
337.827
337.936
338.071
338.208
338.341
338.463
338.569
338.654
338.713
338.744
338.744
338.713
338.654
338.569
338.463
338.341
338.208
338.071
337.936
337.827
331.872
331.962
332.076
332.192
332.305
332.408
332.498
332.569
332.62
332.646
332.646
332.62
332.569
332.498
332.408
332.305
332.192
332.076
331.962
331.872
325.986
326.059
326.152
326.247
326.339
326.424
326.497
326.556
326.597
326.618
326.618
326.597
326.556
326.497
326.424
326.339
326.247
326.152
326.059
325.986
320.158
320.214
320.285
320.36
320.431
320.497
320.554
320.6
320.632
320.649
320.649
320.632
320.6
320.554
320.497
320.431
320.36
320.285
320.214
320.158
314.374
314.413
314.464
314.517
314.569
314.616
314.657
314.689
314.712
314.724
314.724
314.712
314.689
314.657
314.616
314.569
314.517
314.464
314.413
314.374
308.621
308.645
308.675
308.707
308.738
308.766
308.791
308.811
308.824
308.831
308.831
308.824
308.811
308.791
308.766
308.738
308.707
308.675
308.645
308.621
302.888
302.896
302.906
302.917
302.927
302.936
302.945
302.951
302.956
302.958
302.958
302.956
302.951
302.945
302.936
302.927
302.917
302.906
302.896
302.888
345.684
345.803
345.946
346.091
346.23
346.357
346.467
346.554
346.616
346.647
346.647
346.616
346.554
346.467
346.357
346.23
346.091
345.946
345.803
345.684
339.383
339.483
339.606
339.732
339.853
339.963
340.059
340.135
340.188
340.215
340.215
340.188
340.135
340.059
339.963
339.853
339.732
339.606
339.483
339.383
333.172
333.256
333.36
333.466
333.568
333.662
333.743
333.807
333.852
333.875
333.875
333.852
333.807
333.743
333.662
333.568
333.466
333.36
333.256
333.172
327.04
327.107
327.191
327.279
327.362
327.439
327.505
327.558
327.595
327.614
327.614
327.595
327.558
327.505
327.439
327.362
327.279
327.191
327.107
327.04
320.97
321.022
321.088
321.155
321.221
321.28
321.332
321.373
321.402
321.417
321.417
321.402
321.373
321.332
321.28
321.221
321.155
321.088
321.022
320.97
314.951
314.987
315.034
315.082
315.129
315.172
315.209
315.238
315.259
315.269
315.269
315.259
315.238
315.209
315.172
315.129
315.082
315.034
314.987
314.951
308.966
308.988
309.016
309.045
309.073
309.099
309.121
309.139
309.151
309.157
309.157
309.151
309.139
309.121
309.099
309.073
309.045
309.016
308.988
308.966
303.003
303.01
303.02
303.03
303.039
303.048
303.055
303.061
303.065
303.067
303.067
303.065
303.061
303.055
303.048
303.039
303.03
303.02
303.01
303.003
347.441
347.551
347.682
347.816
347.943
348.059
348.158
348.238
348.293
348.322
348.322
348.293
348.238
348.158
348.059
347.943
347.816
347.682
347.551
347.441
340.867
340.96
341.073
341.189
341.3
341.4
341.487
341.556
341.604
341.629
341.629
341.604
341.556
341.487
341.4
341.3
341.189
341.073
340.96
340.867
334.4
334.477
334.573
334.671
334.765
334.85
334.924
334.982
335.023
335.044
335.044
335.023
334.982
334.924
334.85
334.765
334.671
334.573
334.477
334.4
328.024
328.086
328.165
328.245
328.322
328.392
328.453
328.501
328.534
328.551
328.551
328.534
328.501
328.453
328.392
328.322
328.245
328.165
328.086
328.024
321.724
321.772
321.833
321.895
321.955
322.01
322.057
322.094
322.121
322.134
322.134
322.121
322.094
322.057
322.01
321.955
321.895
321.833
321.772
321.724
315.483
315.516
315.56
315.605
315.648
315.687
315.72
315.747
315.766
315.775
315.775
315.766
315.747
315.72
315.687
315.648
315.605
315.56
315.516
315.483
309.283
309.303
309.33
309.356
309.382
309.406
309.426
309.442
309.453
309.459
309.459
309.453
309.442
309.426
309.406
309.382
309.356
309.33
309.303
309.283
303.109
303.116
303.125
303.134
303.142
303.15
303.157
303.162
303.166
303.168
303.168
303.166
303.162
303.157
303.15
303.142
303.134
303.125
303.116
303.109
348.829
348.932
349.056
349.181
349.3
349.408
349.5
349.574
349.625
349.652
349.652
349.625
349.574
349.5
349.408
349.3
349.181
349.056
348.932
348.829
341.994
342.081
342.189
342.298
342.401
342.496
342.577
342.641
342.686
342.709
342.709
342.686
342.641
342.577
342.496
342.401
342.298
342.189
342.081
341.994
335.303
335.376
335.467
335.559
335.647
335.728
335.796
335.851
335.889
335.909
335.909
335.889
335.851
335.796
335.728
335.647
335.559
335.467
335.376
335.303
328.731
328.79
328.864
328.94
329.013
329.078
329.135
329.18
329.211
329.227
329.227
329.211
329.18
329.135
329.078
329.013
328.94
328.864
328.79
328.731
322.255
322.3
322.358
322.417
322.474
322.525
322.569
322.604
322.629
322.641
322.641
322.629
322.604
322.569
322.525
322.474
322.417
322.358
322.3
322.255
315.852
315.884
315.925
315.968
316.008
316.045
316.077
316.102
316.12
316.129
316.129
316.12
316.102
316.077
316.045
316.008
315.968
315.925
315.884
315.852
309.501
309.52
309.545
309.571
309.595
309.617
309.636
309.652
309.662
309.667
309.667
309.662
309.652
309.636
309.617
309.595
309.571
309.545
309.52
309.501
303.181
303.188
303.196
303.205
303.213
303.22
303.227
303.232
303.235
303.237
303.237
303.235
303.232
303.227
303.22
303.213
303.205
303.196
303.188
303.181
)
;

boundaryField
{
    hotSide
    {
        type            fixedGradient;
        gradient        nonuniform List<scalar> 
400
(
320.236
321.439
323.849
327.472
332.317
338.395
345.72
354.306
364.168
375.321
387.779
401.555
416.662
433.111
450.912
470.072
490.6
512.501
535.779
560.437
324.295
325.466
327.813
331.344
336.071
342.01
349.178
357.593
367.274
378.241
390.511
404.101
419.026
435.299
452.931
471.932
492.309
514.069
537.216
561.754
328.688
329.821
332.093
335.514
340.102
345.877
352.86
361.077
370.55
381.304
393.362
406.742
421.464
437.542
454.989
473.817
494.032
515.642
538.65
563.06
333.342
334.43
336.615
339.91
344.337
349.923
356.696
364.688
373.927
384.445
396.267
409.418
423.919
439.788
457.038
475.682
495.727
517.181
540.046
564.326
338.127
339.165
341.251
344.405
348.654
354.031
360.572
368.318
377.304
387.566
399.138
412.047
426.317
441.968
459.016
477.473
497.346
518.643
541.365
565.516
342.844
343.828
345.809
348.812
352.871
358.027
364.327
371.816
380.541
390.543
401.86
414.525
428.565
444.001
460.85
479.124
498.831
519.977
542.564
566.593
347.222
348.152
350.029
352.882
356.753
361.692
367.755
374.995
383.467
393.22
404.295
416.73
430.555
445.791
462.457
480.564
500.121
521.131
543.597
567.517
350.937
351.819
353.602
356.32
360.023
364.77
370.622
377.644
385.895
395.43
406.297
418.535
432.176
447.243
463.755
481.723
501.154
522.053
544.418
568.25
353.656
354.501
356.211
358.827
362.402
367.002
372.696
379.553
387.639
397.013
407.726
419.818
433.325
448.269
464.669
482.536
501.878
522.696
544.99
568.759
355.097
355.922
357.593
360.152
363.658
368.179
373.787
380.555
388.553
397.84
408.47
420.486
433.921
448.8
465.141
482.956
502.25
523.026
545.284
569.02
355.097
355.922
357.593
360.152
363.658
368.179
373.787
380.555
388.553
397.84
408.47
420.486
433.921
448.8
465.141
482.956
502.25
523.026
545.284
569.02
353.656
354.501
356.211
358.827
362.402
367.002
372.696
379.553
387.639
397.013
407.726
419.818
433.325
448.269
464.669
482.536
501.878
522.696
544.99
568.759
350.937
351.819
353.602
356.32
360.023
364.77
370.622
377.644
385.895
395.43
406.297
418.535
432.176
447.243
463.755
481.723
501.154
522.053
544.418
568.25
347.222
348.152
350.029
352.882
356.753
361.692
367.755
374.995
383.467
393.22
404.295
416.73
430.555
445.791
462.457
480.564
500.121
521.131
543.597
567.517
342.844
343.828
345.809
348.812
352.871
358.027
364.327
371.816
380.541
390.543
401.86
414.525
428.565
444.001
460.85
479.124
498.831
519.977
542.564
566.593
338.127
339.165
341.251
344.405
348.654
354.031
360.572
368.318
377.304
387.566
399.138
412.047
426.317
441.968
459.016
477.473
497.346
518.643
541.365
565.516
333.342
334.43
336.615
339.91
344.337
349.923
356.696
364.688
373.927
384.445
396.267
409.418
423.919
439.788
457.038
475.682
495.727
517.181
540.046
564.326
328.688
329.821
332.093
335.514
340.102
345.877
352.86
361.077
370.55
381.304
393.362
406.742
421.464
437.542
454.989
473.817
494.032
515.642
538.65
563.06
324.295
325.466
327.813
331.344
336.071
342.01
349.178
357.593
367.274
378.241
390.511
404.101
419.026
435.299
452.931
471.932
492.309
514.069
537.216
561.754
320.236
321.439
323.849
327.472
332.317
338.395
345.72
354.306
364.168
375.321
387.779
401.555
416.662
433.111
450.912
470.072
490.6
512.501
535.779
560.437
)
;
    }
    coldSide
    {
        type            mixed;
        refValue        uniform 300;
        refGradient     uniform 0;
        valueFraction   uniform 0.991591;
        source          uniform 0;
        value           nonuniform List<scalar> 
400
(
300.016
300.016
300.016
300.016
300.017
300.017
300.017
300.018
300.018
300.019
300.019
300.02
300.021
300.022
300.022
300.023
300.024
300.025
300.026
300.027
300.016
300.016
300.016
300.017
300.017
300.017
300.017
300.018
300.018
300.019
300.019
300.02
300.021
300.022
300.022
300.023
300.024
300.025