/*--------------------------------*- C++ -*----------------------------------*\
| =========                 |                                                 |
| \\      /  F ield         | OpenFOAM: The Open Source CFD Toolbox           |
|  \\    /   O peration     | Version:  2212                                  |
|   \\  /    A nd           | Website:  www.openfoam.com                      |
|    \\/     M anipulation  |                                                 |
\*---------------------------------------------------------------------------*/
FoamFile
{
    version     2.0;
    format      ascii;
    arch        "LSB;label=32;scalar=64";
    class       volScalarField;
    location    "0";
    object      T;
}
// * * * * * * * * * * * * * * * * * * * * * * * * * * * * * * * * * * * * * //

dimensions      [0 0 0 1 0 0 0];

internalField   nonuniform List<scalar> 
3200
(
320.416
320.065
319.766
319.654
319.85
320.182
320.376
320.603
320.873
320.901
321.037
320.726
320.324
320.12
319.548
319.125
318.607
318.493
318.573
319.093
317.722
317.471
317.229
317.113
317.304
317.581
317.75
317.98
318.201
318.224
318.343
318.07
317.744
317.543
317.062
316.708
316.236
316.136
316.22
316.657
315.035
314.829
314.647
314.52
314.716
314.945
315.071
315.303
315.491
315.51
315.605
315.37
315.083
314.917
314.54
314.221
313.799
313.722
313.805
314.173
312.33
312.162
312.031
311.909
312.089
312.292
312.372
312.587
312.743
312.771
312.822
312.631
312.395
312.261
311.972
311.688
311.321
311.271
311.334
311.67
309.61
309.482
309.375
309.28
309.415
309.587
309.663
309.856
309.947
309.967
310.015
309.846
309.668
309.57
309.339
309.125
308.81
308.79
308.835
309.13
306.897
306.781
306.691
306.64
306.73
306.863
306.918
307.083
307.113
307.135
307.178
307.05
306.916
306.846
306.684
306.534
306.305
306.305
306.315
306.55
304.151
304.065
304.014
303.997
304.063
304.108
304.157
304.274
304.281
304.287
304.311
304.247
304.157
304.111
304.022
303.925
303.799
303.793
303.798
303.946
301.394
301.361
301.35
301.336
301.369
301.376
301.399
301.429
301.434
301.44
301.435
301.41
301.393
301.385
301.349
301.327
301.277
301.269
301.281
301.326
320.6
320.176
319.816
319.753
320.024
320.372
320.586
320.854
321.18
321.154
321.212
320.909
320.62
320.267
319.75
319.234
318.854
318.598
318.646
319.088
317.92
317.56
317.248
317.206
317.434
317.776
317.93
318.18
318.474
318.435
318.507
318.23
318
317.673
317.23
316.776
316.451
316.252
316.286
316.672
315.214
314.907
314.654
314.64
314.786
315.122
315.242
315.452
315.704
315.656
315.74
315.544
315.321
315.024
314.679
314.276
313.995
313.827
313.873
314.199
312.474
312.213
312.019
312.027
312.127
312.425
312.538
312.691
312.907
312.846
312.931
312.788
312.59
312.344
312.081
311.745
311.518
311.351
311.404
311.677
309.714
309.523
309.366
309.383
309.456
309.718
309.794
309.896
310.087
310.02
310.082
309.995
309.821
309.624
309.439
309.204
309.008
308.851
308.911
309.134
306.947
306.827
306.69
306.698
306.766
306.956
307.018
307.109
307.238
307.16
307.219
307.157
307.035
306.889
306.783
306.604
306.462
306.356
306.391
306.552
304.174
304.101
304.017
304.018
304.051
304.189
304.219
304.294
304.35
304.3
304.339
304.302
304.22
304.138
304.085
303.976
303.889
303.835
303.87
303.954
301.4
301.378
301.347
301.339
301.36
301.406
301.425
301.443
301.463
301.444
301.461
301.431
301.403
301.392
301.375
301.334
301.31
301.298
301.31
301.332
320.78
320.447
320.029
319.958
320.151
320.588
320.779
321.231
321.609
321.645
321.615
321.369
321.037
320.563
320.122
319.497
319.019
318.875
318.855
319.273
318.062
317.826
317.45
317.385
317.568
317.936
318.103
318.478
318.836
318.86
318.848
318.598
318.333
317.932
317.556
317.015
316.615
316.494
316.433
316.793
315.322
315.131
314.843
314.787
314.935
315.247
315.391
315.702
316.014
316.049
316.041
315.83
315.614
315.263
314.922
314.488
314.159
314.052
313.975
314.3
312.57
312.421
312.211
312.152
312.274
312.537
312.654
312.886
313.154
313.165
313.172
313.008
312.844
312.541
312.258
311.91
311.652
311.586
311.494
311.761
309.793
309.691
309.542
309.482
309.587
309.781
309.885
310.042
310.27
310.272
310.284
310.17
310.049
309.789
309.569
309.296
309.109
309.075
308.992
309.206
306.991
306.938
306.838
306.786
306.877
307.009
307.083
307.201
307.362
307.372
307.365
307.282
307.191
307.014
306.845
306.663
306.538
306.535
306.451
306.594
304.21
304.172
304.105
304.08
304.137
304.226
304.255
304.33
304.436
304.449
304.426
304.378
304.313
304.222
304.112
304.014
303.922
303.934
303.878
303.969
301.421
301.394
301.374
301.364
301.385
301.407
301.439
301.452
301.487
301.497
301.482
301.469
301.451
301.422
301.378
301.353
301.311
301.32
301.305
301.331
321.088
320.744
320.461
320.386
320.498
320.818
321.119
321.632
321.925
322.045
322.115
321.971
321.605
321.154
320.549
319.806
319.377
319.15
319.191
319.437
318.34
318.078
317.839
317.754
317.851
318.151
318.395
318.821
319.115
319.215
319.274
319.138
318.84
318.454
317.921
317.275
316.931
316.719
316.753
316.948
315.559
315.368
315.17
315.071
315.173
315.436
315.64
315.989
316.261
316.314
316.397
316.277
316.035
315.683
315.209
314.709
314.428
314.258
314.26
314.412
312.787
312.62
312.465
312.36
312.452
312.694
312.854
313.119
313.356
313.405
313.481
313.375
313.21
312.887
312.457
312.104
311.88
311.757
311.719
311.844
309.977
309.846
309.738
309.649
309.702
309.914
310.032
310.245
310.43
310.473
310.515
310.445
310.326
310.054
309.696
309.461
309.276
309.21
309.159
309.256
307.147
307.052
306.975
306.912
306.95
307.104
307.169
307.346
307.477
307.5
307.522
307.474
307.398
307.18
306.933
306.788
306.658
306.613
306.579
306.63
304.295
304.241
304.194
304.148
304.187
304.264
304.31
304.418
304.491
304.52
304.524
304.488
304.441
304.297
304.177
304.083
304.016
303.994
303.968
303.975
301.438
301.424
301.412
301.392
301.396
301.424
301.446
301.48
301.501
301.508
301.52
301.502
301.495
301.427
301.403
301.368
301.348
301.332
301.331
301.336
321.431
321.131
320.823
320.788
320.935
321.215
321.635
322.21
322.525
322.594
322.678
322.58
322.164
321.708
320.983
320.31
319.891
319.511
319.616
319.725
318.629
318.416
318.152
318.081
318.235
318.463
318.847
319.342
319.619
319.647
319.762
319.675
319.315
318.924
318.301
317.708
317.35
317.053
317.106
317.182
315.81
315.66
315.433
315.363
315.516
315.69
316.011
316.412
316.658
316.685
316.806
316.726
316.442
316.097
315.555
315.072
314.76
314.511
314.546
314.605
312.974
312.863
312.694
312.612
312.748
312.878
313.156
313.462
313.695
313.704
313.828
313.745
313.505
313.226
312.782
312.423
312.123
311.942
311.929
311.99
310.086
310.039
309.923
309.841
309.952
310.059
310.271
310.494
310.713
310.697
310.79
310.727
310.544
310.313
309.96
309.695
309.475
309.337
309.297
309.336
307.197
307.182
307.129
307.044
307.127
307.207
307.358
307.525
307.679
307.681
307.714
307.693
307.554
307.373
307.111
306.936
306.793
306.698
306.664
306.677
304.313
304.323
304.292
304.232
304.296
304.33
304.42
304.522
304.621
304.612
304.643
304.634
304.555
304.429
304.276
304.188
304.088
304.02
304.016
304.016
301.446
301.454
301.444
301.424
301.436
301.452
301.485
301.515
301.559
301.55
301.57
301.562
301.522
301.474
301.436
301.403
301.369
301.346
301.334
301.356
321.885
321.57
321.299
321.281
321.441
321.841
322.168
322.744
323.052
323.146
323.302
323.293
322.804
322.301
321.55
320.924
320.446
320.062
320.111
320.258
319.031
318.764
318.559
318.512
318.663
319.01
319.319
319.815
320.078
320.151
320.301
320.301
319.865
319.453
318.792
318.262
317.814
317.508
317.531
317.65
316.161
315.933
315.764
315.714
315.83
316.14
316.425
316.872
317.063
317.125
317.261
317.259
316.866
316.557
315.961
315.521
315.146
314.913
314.893
315.01
313.252
313.062
312.959
312.891
312.988
313.223
313.45
313.851
314.017
314.08
314.196
314.18
313.834
313.612
313.094
312.754
312.426
312.255
312.216
312.33
310.332
310.174
310.097
310.061
310.12
310.308
310.482
310.802
310.923
311.006
311.075
311.072
310.781
310.638
310.214
309.97
309.704
309.55
309.535
309.622
307.422
307.261
307.225
307.196
307.251
307.389
307.493
307.735
307.824
307.904
307.947
307.923
307.716
307.613
307.325
307.149
306.927
306.831
306.842
306.876
304.484
304.365
304.347
304.333
304.369
304.445
304.501
304.661
304.705
304.766
304.786
304.758
304.651
304.572
304.417
304.308
304.161
304.108
304.122
304.133
301.514
301.463
301.465
301.453
301.459
301.489
301.501
301.569
301.572
301.605
301.608
301.596
301.554
301.522
301.492
301.436
301.398
301.379
301.377
301.382
322.522
322.221
321.859
321.88
322.082
322.426
322.745
323.192
323.712
323.92
323.951
323.727
323.349
322.898
322.18
321.623
321.044
320.782
320.73
320.929
319.565
319.338
319.066
319.036
319.24
319.532
319.803
320.199
320.655
320.828
320.855
320.678
320.348
319.962
319.35
318.86
318.363
318.133
318.085
318.237
316.587
316.427
316.205
316.184
316.344
316.558
316.847
317.175
317.553
317.69
317.703
317.575
317.279
316.976
316.45
316.059
315.628
315.43
315.372
315.484
313.6
313.478
313.305
313.305
313.411
313.58
313.826
314.098
314.422
314.54
314.51
314.428
314.174
313.95
313.494
313.201
312.86
312.702
312.619
312.696
310.595
310.535
310.394
310.384
310.459
310.575
310.772
310.995
311.264
311.359
311.299
311.261
311.042
310.89
310.525
310.313
310.039
309.918
309.867
309.88
307.575
307.55
307.436
307.429
307.486
307.567
307.705
307.87
308.072
308.137
308.07
308.056
307.913
307.802
307.535
307.396
307.186
307.117
307.074
307.062
304.56
304.548
304.465
304.454
304.512
304.545
304.629
304.733
304.857
304.9
304.847
304.845
304.764
304.713
304.525
304.454
304.307
304.286
304.255
304.244
301.538
301.529
301.496
301.486
301.519
301.526
301.55
301.582
301.634
301.647
301.617
301.628
301.603
301.578
301.52
301.493
301.445
301.444
301.426
301.433
323.097
322.761
322.42
322.351
322.686
323.055
323.406
323.788
324.286
324.466
324.527
324.368
324.079
323.536
322.697
322.131
321.646
321.406
321.334
321.356
320.068
319.802
319.495
319.451
319.772
320.06
320.372
320.683
321.144
321.269
321.352
321.224
321.002
320.506
319.788
319.302
318.854
318.667
318.608
318.586
317.024
316.785
316.556
316.534
316.79
317.047
317.299
317.57
317.944
318.044
318.139
318.037
317.874
317.425
316.846
316.423
316.035
315.88
315.838
315.811
313.945
313.757
313.582
313.583
313.777
313.995
314.193
314.409
314.735
314.809
314.89
314.818
314.692
314.294
313.837
313.478
313.18
313.035
313.01
312.985
310.848
310.714
310.578
310.587
310.748
310.916
311.09
311.221
311.483
311.538
311.61
311.575
311.468
311.135
310.792
310.485
310.259
310.16
310.143
310.142
307.75
307.658
307.573
307.583
307.689
307.824
307.963
308.013
308.212
308.25
308.29
308.298
308.23
307.974
307.738
307.478
307.344
307.27
307.267
307.275
304.646
304.598
304.56
304.57
304.625
304.698
304.777
304.82
304.941
304.952
304.97
305.009
304.957
304.791
304.654
304.497
304.427
304.395
304.374
304.37
301.561
301.527
301.529
301.536
301.546
301.579
301.613
301.62
301.647
301.645
301.66
301.674
301.666
301.611
301.567
301.516
301.478
301.477
301.466
301.467
323.668
323.209
323.007
322.937
323.296
323.688
324.167
324.396
324.721
325.148
325.218
325.017
324.669
324.046
323.304
322.849
322.226
321.959
321.998
322.015
320.59
320.198
320.044
319.969
320.276
320.612
321.019
321.221
321.52
321.887
321.962
321.783
321.49
320.963
320.305
319.912
319.372
319.148
319.187
319.182
317.48
317.177
317.032
316.964
317.226
317.487
317.837
318.004
318.294
318.601
318.664
318.514
318.262
317.842
317.26
316.915
316.463
316.271
316.323
316.307
314.36
314.11
313.981
313.92
314.132
314.35
314.639
314.771
315.035
315.274
315.325
315.189
315.005
314.659
314.172
313.879
313.52
313.38
313.417
313.392
311.199
311.004
310.885
310.857
311.026
311.181
311.422
311.517
311.736
311.912
311.943
311.843
311.697
311.438
311.064
310.805
310.531
310.442
310.473
310.428
308.009
307.883
307.778
307.775
307.897
308.016
308.176
308.239
308.392
308.54
308.56
308.465
308.361
308.202
307.922
307.73
307.543
307.484
307.499
307.448
304.812
304.747
304.693
304.674
304.756
304.833
304.922
304.96
305.051
305.14
305.136
305.092
305.033
304.95
304.772
304.651
304.516
304.498
304.51
304.471
301.612
301.597
301.584
301.563
301.593
301.627
301.646
301.676
301.695
301.718
301.718
301.705
301.701
301.658
301.608
301.552
301.503
301.511
301.512
301.503
324.339
323.952
323.707
323.641
323.825
324.227
324.657
324.929
325.306
325.628
325.79
325.634
325.214
324.526
323.928
323.416
322.915
322.563
322.623
322.697
321.174
320.834
320.614
320.567
320.732
321.079
321.465
321.69
322.012
322.288
322.439
322.326
321.959
321.366
320.861
320.406
319.99
319.656
319.714
319.771
317.969
317.684
317.512
317.453
317.619
317.888
318.225
318.411
318.703
318.917
319.068
318.984
318.666
318.159
317.724
317.356
317.003
316.716
316.758
316.799
314.731
314.503
314.371
314.331
314.46
314.705
314.972
315.093
315.376
315.519
315.663
315.575
315.323
314.932
314.549
314.261
313.959
313.723
313.778
313.789
311.464
311.303
311.182
311.2
311.295
311.504
311.679
311.758
311.996
312.097
312.209
312.151
311.955
311.66
311.343
311.129
310.896
310.714
310.766
310.743
308.193
308.094
308.003
308.025
308.103
308.241
308.347
308.4
308.602
308.645
308.742
308.686
308.579
308.343
308.113
307.981
307.805
307.686
307.729
307.685
304.913
304.874
304.812
304.823
304.891
304.961
305.023
305.047
305.184
305.205
305.262
305.231
305.158
305.005
304.885
304.822
304.699
304.621
304.655
304.609
301.641
301.64
301.617
301.615
301.646
301.659
301.691
301.699
301.738
301.743
301.76
301.748
301.725
301.68
301.64
301.622
301.579
301.545
301.569
301.553
325.01
324.591
324.518
324.319
324.441
324.76
325.168
325.621
325.917
326.109
326.343
326.222
325.7
324.956
324.462
324.05
323.637
323.229
323.271
323.461
321.721
321.402
321.309
321.13
321.277
321.561
321.921
322.271
322.547
322.725
322.924
322.835
322.367
321.733
321.289
320.978
320.607
320.23
320.302
320.432
318.403
318.139
318.088
317.92
318.042
318.315
318.623
318.861
319.156
319.288
319.474
319.404
318.993
318.478
318.091
317.834
317.534
317.197
317.279
317.355
315.089
314.887
314.846
314.694
314.811
315.027
315.301
315.453
315.726
315.828
315.995
315.933
315.574
315.178
314.851
314.641
314.409
314.151
314.224
314.248
311.77
311.614
311.57
311.429
311.544
311.724
311.957
312.024
312.247
312.335
312.48
312.425
312.134
311.854
311.577
311.43
311.244
311.047
311.139
311.071
308.417
308.311
308.292
308.154
308.265
308.384
308.578
308.58
308.761
308.831
308.935
308.9
308.667
308.486
308.294
308.202
308.057
307.927
308.014
307.906
305.059
304.996
305.004
304.898
304.953
305.056
305.158
305.163
305.271
305.319
305.363
305.356
305.214
305.093
304.998
304.943
304.855
304.788
304.832
304.758
301.704
301.673
301.685
301.642
301.669
301.698
301.727
301.731
301.761
301.78
301.798
301.789
301.752
301.704
301.68
301.659
301.639
301.61
301.614
301.591
325.6
325.309
325.132
325.035
325.176
325.487
325.879
326.181
326.48
326.621
326.777
326.672
326.38
325.606
325.111
324.639
324.297
323.804
323.863
324.059
322.226
321.994
321.864
321.763
321.93
322.194
322.525
322.772
323.046
323.169
323.303
323.23
322.95
322.275
321.881
321.477
321.181
320.734
320.797
320.943
318.854
318.66
318.565
318.501
318.652
318.842
319.134
319.316
319.581
319.662
319.798
319.725
319.473
318.913
318.601
318.275
317.994
317.607
317.681
317.797
315.462
315.318
315.238
315.183
315.326
315.465
315.718
315.849
316.061
316.109
316.266
316.209
315.971
315.525
315.278
315.002
314.793
314.469
314.529
314.593
312.06
311.963
311.886
311.84
311.962
312.06
312.259
312.346
312.51
312.556
312.682
312.664
312.449
312.093
311.921
311.694
311.566
311.278
311.338
311.341
308.62
308.566
308.504
308.475
308.562
308.644
308.782
308.835
308.934
308.986
309.064
309.099
308.91
308.638
308.551
308.355
308.304
308.075
308.129
308.087
305.184
305.154
305.101
305.091
305.151
305.207
305.277
305.318
305.367
305.393
305.46
305.489
305.34
305.188
305.154
305.032
305.016
304.856
304.874
304.848
301.743
301.723
301.713
301.719
301.725
301.747
301.774
301.784
301.793
301.812
301.834
301.844
301.801
301.729
301.73
301.682
301.678
301.621
301.632
301.619
326.36
325.998
325.882
325.743
325.8
326.004
326.349
326.631
326.945
327.104
327.122
327.096
326.659
326.082
325.646
325.185
324.898
324.453
324.599
324.769
322.905
322.604
322.509
322.386
322.451
322.613
322.937
323.171
323.465
323.588
323.614
323.583
323.212
322.71
322.34
321.96
321.692
321.334
321.437
321.563
319.433
319.179
319.1
319
319.038
319.205
319.475
319.671
319.917
320.015
320.053
320.034
319.714
319.309
319.018
318.691
318.426
318.157
318.236
318.296
315.931
315.731
315.649
315.557
315.615
315.772
315.98
316.168
316.335
316.432
316.449
316.464
316.179
315.854
315.65
315.365
315.136
314.92
314.982
315.01
312.425
312.264
312.176
312.12
312.179
312.292
312.474
312.614
312.717
312.818
312.824
312.849
312.614
312.374
312.208
311.979
311.805
311.647
311.69
311.7
308.903
308.763
308.712
308.663
308.722
308.81
308.93
309.03
309.087
309.192
309.18
309.204
309.031
308.888
308.753
308.577
308.444
308.351
308.389
308.367
305.364
305.266
305.234
305.209
305.23
305.304
305.364
305.432
305.45
305.531
305.53
305.529
305.432
305.359
305.271
305.163
305.076
305.024
305.039
305.018
301.795
301.777
301.752
301.746
301.754
301.78
301.808
301.814
301.829
301.852
301.857
301.86
301.817
301.794
301.772
301.721
301.707
301.682
301.699
301.674
327.126
326.783
326.445
326.416
326.388
326.555
326.92
327.225
327.499
327.567
327.629
327.446
327.112
326.627
326.143
325.76
325.36
325.113
325.104
325.282
323.591
323.298
323.02
322.984
322.933
323.106
323.436
323.689
323.926
323.981
324.042
323.911
323.576
323.173
322.774
322.449
322.075
321.877
321.894
322.043
320.022
319.788
319.546
319.503
319.456
319.634
319.917
320.101
320.301
320.352
320.408
320.32
320.006
319.674
319.374
319.071
318.769
318.596
318.634
318.731
316.417
316.25
316.059
315.974
315.957
316.105
316.346
316.489
316.637
316.689
316.746
316.665
316.406
316.148
315.92
315.63
315.405
315.281
315.322
315.374
312.77
312.666
312.543
312.441
312.444
312.54
312.751
312.851
312.94
313.012
313.07
312.997
312.791
312.596
312.427
312.18
312.008
311.927
311.984
311.962
309.116
309.054
308.988
308.884
308.904
308.97
309.137
309.191
309.241
309.327
309.378
309.308
309.151
309.032
308.886
308.705
308.593
308.536
308.596
308.549
305.468
305.449
305.406
305.325
305.347
305.387
305.485
305.517
305.55
305.614
305.654
305.6
305.511
305.445
305.322
305.228
305.156
305.131
305.165
305.146
301.834
301.836
301.81
301.782
301.8
301.806
301.854
301.861
301.864
301.873
301.894
301.88
301.853
301.827
301.782
301.748
301.716
301.723
301.723
301.738
327.867
327.493
327.241
327.071
327.146
327.243
327.475
327.75
327.875
328.009
328.001
327.848
327.625
327.114
326.593
326.151
325.975
325.72
325.719
325.932
324.223
323.928
323.684
323.535
323.629
323.726
323.911
324.154
324.264
324.365
324.386
324.258
324.01
323.614
323.139
322.776
322.626
322.399
322.392
322.562
320.554
320.319
320.094
319.991
320.064
320.14
320.312
320.503
320.597
320.686
320.72
320.61
320.36
320.086
319.644
319.359
319.244
318.988
319.039
319.164
316.842
316.692
316.497
316.406
316.476
316.541
316.686
316.83
316.891
316.962
317.019
316.918
316.705
316.483
316.129
315.903
315.818
315.581
315.627
315.732
313.115
313.018
312.862
312.772
312.845
312.888
313.026
313.13
313.155
313.231
313.264
313.199
313.035
312.849
312.573
312.43
312.386
312.167
312.189
312.267
309.374
309.317
309.208
309.132
309.166
309.246
309.342
309.386
309.42
309.47
309.496
309.438
309.317
309.194
309.016
308.925
308.902
308.724
308.728
308.778
305.636
305.612
305.535
305.484
305.501
305.587
305.631
305.616
305.685
305.68
305.718
305.67
305.585
305.521
305.437
305.374
305.368
305.257
305.254
305.283
301.888
301.893
301.854
301.841
301.841
301.878
301.883
301.886
301.912
301.907
301.919
301.904
301.869
301.847
301.829
301.792
301.803
301.762
301.768
301.78
328.509
328.15
327.884
327.65
327.616
327.776
328.049
328.165
328.313
328.523
328.385
328.238
328.004
327.692
327.231
326.732
326.478
326.371
326.302
326.641
324.801
324.485
324.236
324.054
324.004
324.164
324.402
324.512
324.646
324.82
324.708
324.578
324.369
324.126
323.713
323.281
323.055
322.968
322.901
323.224
321.028
320.778
320.561
320.424
320.364
320.502
320.744
320.805
320.929
321.068
320.958
320.878
320.665
320.509
320.149
319.793
319.603
319.513
319.438
319.76
317.242
317.035
316.853
316.757
316.708
316.829
317.019
317.095
317.182
317.273
317.169
317.138
316.938
316.856
316.546
316.269
316.096
316.007
315.954
316.23
313.429
313.265
313.134
313.075
313.029
313.138
313.241
313.337
313.374
313.456
313.365
313.367
313.205
313.178
312.894
312.705
312.572
312.498
312.449
312.665
309.632
309.481
309.406
309.346
309.33
309.419
309.476
309.541
309.584
309.636
309.559
309.556
309.451
309.437
309.221
309.091
309.013
308.959
308.916
309.05
305.797
305.687
305.659
305.611
305.618
305.669
305.702
305.736
305.769
305.802
305.748
305.729
305.689
305.682
305.548
305.484
305.414
305.386
305.37
305.435
301.94
301.912
301.908
301.872
301.88
301.912
301.91
301.927
301.935
301.945
301.932
301.92
301.898
301.918
301.856
301.841
301.82
301.798
301.812
301.824
329.121
328.878
328.604
328.366
328.353
328.395
328.519
328.655
328.802
328.869
328.804
328.663
328.403
328.13
327.633
327.192
327.064
327.006
326.941
327.244
325.294
325.118
324.904
324.681
324.648
324.728
324.806
324.938
325.048
325.123
325.052
324.96
324.72
324.503
324.066
323.672
323.563
323.518
323.456
323.747
321.411
321.32
321.147
320.942
320.905
320.994
321.069
321.172
321.259
321.323
321.261
321.216
320.978
320.863
320.474
320.111
320.04
319.989
319.933
320.196
317.536
317.468
317.37
317.169
317.165
317.227
317.293
317.38
317.433
317.487
317.461
317.418
317.228
317.142
316.836
316.507
316.475
316.422
316.372
316.596
313.653
313.606
313.543
313.381
313.374
313.422
313.488
313.578
313.606
313.629
313.621
313.579
313.441
313.397
313.15
312.872
312.873
312.823
312.784
312.928
309.778
309.724
309.693
309.565
309.566
309.607
309.639
309.728
309.743
309.755
309.75
309.724
309.617
309.601
309.427
309.218
309.207
309.18
309.148
309.244
305.87
305.858
305.796
305.734
305.76
305.769
305.787
305.855
305.87
305.86
305.86
305.842
305.776
305.778
305.678
305.551
305.532
305.525
305.504
305.56
301.962
301.968
301.944
301.922
301.936
301.929
301.943
301.973
301.967
301.969
301.967
301.956
301.933
301.944
301.904
301.86
301.857
301.857
301.846
301.867
329.836
329.557
329.309
329.092
329.002
329.098
329.002
329.279
329.318
329.34
329.259
329.136
328.95
328.569
328.219
327.851
327.689
327.629
327.633
327.987
325.923
325.669
325.482
325.282
325.228
325.31
325.194
325.455
325.514
325.549
325.471
325.356
325.196
324.871
324.556
324.236
324.127
324.045
324.062
324.39
321.978
321.772
321.63
321.474
321.412
321.486
321.358
321.605
321.68
321.728
321.627
321.549
321.421
321.131
320.854
320.583
320.514
320.403
320.434
320.723
318.024
317.85
317.73
317.616
317.577
317.619
317.482
317.712
317.788
317.855
317.754
317.708
317.613
317.341
317.13
316.886
316.842
316.758
316.791
317.01
314.049
313.926
313.813
313.719
313.727
313.728
313.614
313.801
313.855
313.926
313.862
313.806
313.756
313.512
313.379
313.157
313.137
313.077
313.118
313.261
310.056
309.968
309.877
309.813
309.84
309.811
309.742
309.867
309.886
309.957
309.94
309.886
309.854
309.661
309.593
309.43
309.4
309.353
309.396
309.476
306.035
306.003
305.927
305.91
305.935
305.904
305.849
305.937
305.953
305.987
305.991
305.937
305.911
305.821
305.781
305.689
305.65
305.612
305.661
305.705
302.026
302.015
301.985
301.978
301.995
301.976
301.957
301.991
301.995
302.009
302.008
301.987
301.976
301.964
301.944
301.914
301.896
301.876
301.898
301.92
330.33
330.195
329.844
329.653
329.567
329.54
329.492
329.628
329.691
329.68
329.682
329.525
329.243
328.946
328.767
328.481
328.255
328.167
328.204
328.537
326.327
326.242
325.937
325.768
325.678
325.703
325.626
325.763
325.824
325.825
325.849
325.708
325.469
325.182
325.049
324.782
324.589
324.51
324.542
324.816
322.293
322.268
322.001
321.856
321.76
321.811
321.732
321.846
321.906
321.946
321.959
321.838
321.644
321.386
321.267
321.031
320.877
320.815
320.839
321.07
318.255
318.264
318.045
317.909
317.848
317.887
317.804
317.915
317.953
318.019
318.015
317.922
317.782
317.556
317.431
317.269
317.14
317.078
317.092
317.269
314.227
314.249
314.072
313.948
313.894
313.935
313.848
313.965
313.983
314.052
314.054
313.941
313.884
313.698
313.573
313.476
313.35
313.316
313.318
313.438
310.168
310.187
310.076
309.98
309.935
309.966
309.889
309.99
310.006
310.067
310.065
309.967
309.957
309.799
309.704
309.65
309.568
309.539
309.517
309.616
306.1
306.116
306.06
305.999
305.96
305.991
305.939
306.013
306.024
306.043
306.072
305.969
305.985
305.893
305.825
305.793
305.759
305.732
305.707
305.768
302.06
302.055
302.035
302.001
301.997
302.012
301.979
302.012
302.02
302.019
302.04
302.011
302
301.975
301.964
301.937
301.932
301.928
301.91
301.935
330.821
330.683
330.243
330.116
329.936
329.972
329.782
329.849
330.039
330.003
329.998
329.848
329.666
329.286
328.991
328.919
328.735
328.558
328.747
328.884
326.749
326.653
326.254
326.167
326.004
326.073
325.86
325.925
326.115
326.075
326.072
325.958
325.799
325.487
325.218
325.175
324.994
324.824
325.001
325.105
322.666
322.598
322.245
322.197
322.031
322.108
321.931
321.972
322.169
322.134
322.121
322.038
321.882
321.649
321.415
321.387
321.231
321.08
321.233
321.297
318.557
318.523
318.221
318.178
318.055
318.122
317.982
318.009
318.181
318.139
318.122
318.085
317.936
317.749
317.59
317.567
317.417
317.307
317.414
317.457
314.448
314.436
314.197
314.153
314.042
314.103
314.011
314.016
314.17
314.13
314.128
314.105
313.979
313.829
313.712
313.701
313.558
313.51
313.569
313.612
310.327
310.32
310.175
310.13
310.055
310.081
310.028
310.025
310.12
310.108
310.108
310.103
310
309.905
309.814
309.799
309.69
309.671
309.709
309.741
306.212
306.191
306.116
306.09
306.046
306.066
306.032
306.034
306.07
306.08
306.08
306.091
306.019
305.952
305.901
305.884
305.819
305.809
305.833
305.843
302.076
302.061
302.057
302.046
302.029
302.025
302.023
302.03
302.043
302.04
302.038
302.04
302.024
301.995
301.966
301.964
301.956
301.947
301.963
301.959
)
;

boundaryField
{
    hotSide
    {
        type            fixedGradient;
        gradient        nonuniform List<scalar> 
400
(
212.288
212.876
214.7
217.725
221.823
226.814
232.502
238.711
245.294
252.137
259.154
266.285
273.491
280.746
288.042
295.378
302.763
310.209
317.728
325.328
204.483
205.203
207.245
210.566
215.013
220.369
226.412
232.945
239.809
246.887
254.091
261.363
268.666
275.98
283.301
290.634
297.997
305.407
312.884
320.44
200.074
201.049
203.329
206.865
211.503
217.027
223.214
229.866
236.821
243.959
251.193
258.463
265.734
272.99
280.23
287.465
294.715
302.004
309.354
316.781
198.832
200.179
202.722
206.411
211.111
216.636
222.785
229.373
236.246
243.282
250.394
257.522
264.632
271.71
278.759
285.794
292.838
299.915
307.052
314.266
199.885
201.672
204.518
208.368
213.108
218.583
224.621
231.058
237.749
244.576
251.453
258.323
265.157
271.945
278.695
285.428
292.168
298.946
305.789
312.716
202.238
204.495
207.689
211.761
216.604
222.084
228.048
234.344
240.837
247.414
253.995
260.529
266.996
273.396
279.749
286.083
292.434
298.834
305.314
311.898
205.062
207.794
211.38
215.749
220.795
226.386
232.373
238.606
244.949
251.29
257.556
263.707
269.74
275.675
281.551
287.413
293.305
299.271
305.344
311.553
207.711
210.902
214.9
219.627
224.97
230.787
236.917
243.195
249.469
255.621
261.581
267.329
272.887
278.307
283.656
289.002
294.404
299.915
305.572
311.406
209.667
213.259
217.651
222.755
228.449
234.577
240.953
247.379
253.675
259.7
265.387
270.737
275.815
280.714
285.537
290.378
295.312
300.398
305.678
311.179
210.507
214.391
219.09
224.516
230.538
236.985
243.643
250.276
256.659
262.623
268.096
273.109
277.772
282.226
286.609
291.039
295.603
300.363
305.361
310.621
209.929
213.937
218.786
224.385
230.604
237.259
244.118
250.916
257.393
263.354
268.723
273.551
277.981
282.188
286.334
290.546
294.921
299.521
304.387
309.543
207.808
211.733
216.522
222.085
228.288
234.945
241.82
248.645
255.16
261.167
266.587
271.471
275.956
280.215
284.409
288.668
293.088
297.735
302.652
307.863
204.238
207.878
212.406
217.732
223.72
230.187
236.908
243.636
250.139
256.24
261.861
267.025
271.834
276.426
280.939
285.493
290.181
295.073
300.216
305.636
199.553
202.748
206.872
211.839
217.512
223.711
230.228
236.84
243.348
249.597
255.507
261.071
266.347
271.428
276.419
281.424
286.53
291.806
297.302
303.051
194.303
196.954
200.61
205.19
210.557
216.528
222.9
229.465
236.041
242.486
248.713
254.696
260.456
266.049
271.555
277.055
282.63
288.349
294.263
300.409
189.253
191.318
194.505
198.739
203.873
209.71
216.035
222.638
229.338
235.998
242.527
248.883
255.067
261.113
267.078
273.032
279.049
285.197
291.532
298.09
185.399
186.891
189.646
193.592
198.564
204.338
210.672
217.344
224.171
231.014
237.782
244.427
250.937
257.332
263.658
269.977
276.36
282.877
289.586
296.523
183.933
184.926
187.294
190.973
195.778
201.456
207.746
214.418
221.285
228.213
235.111
241.927
248.644
255.275
261.855
268.44
275.099
281.903
288.912
296.16
185.906
186.535
188.56
191.923
196.441
201.866
207.94
214.438
221.181
228.037
234.917
241.769
248.571
255.326
262.063
268.829
275.685
282.697
289.918
297.378
191.646
192.064
193.784
196.759
200.839
205.816
211.467
217.59
224.021
230.636
237.347
244.1
250.866
257.643
264.449
271.317
278.296
285.437
292.78
300.346
)
;
    }
    coldSide
    {
        type            mixed;
        refValue        uniform 300;
        refGradient     uniform 0;
        valueFraction   uniform 0.991591;
        source          uniform 0;
        value           nonuniform List<scalar> 
400
(
300.012
300.012
300.012
300.012
300.012
300.013
300.013
300.013
300.014
300.014
300.014
300.015
300.015
300.015
300.016
300.016
300.016
300.017
300.017
300.017
300.011
300.012
300.012
300.012
300.012
300.012
300.013
300.013
300.013
300.014
300.014
300.014
300.015
300.015
300.016
300.016
300.017
300.017
300.017
300.017
300.011
300.011