/*--------------------------------*- C++ -*----------------------------------*\
| =========                 |                                                 |
| \\      /  F ield         | OpenFOAM: The Open Source CFD Toolbox           |
|  \\    /   O peration     | Version:  2212                                  |
|   \\  /    A nd           | Website:  www.openfoam.com                      |
|    \\/     M anipulation  |                                                 |
\*---------------------------------------------------------------------------*/
FoamFile
{
    version     2.0;
    format      ascii;
    arch        "LSB;label=32;scalar=64";
    class       volScalarField;
    location    "0";
    object      T;
}
// * * * * * * * * * * * * * * * * * * * * * * * * * * * * * * * * * * * * * //

dimensions      [0 0 0 1 0 0 0];

internalField   nonuniform List<scalar> 
3200
(
348.337
346.564
345.126
344.463
344.191
344.554
344.982
345.398
345.809
346.241
346.274
346.147
345.809
345.358
344.875
344.459
344.486
345.071
346.206
347.777
341.841
340.335
339.095
338.543
338.295
338.594
338.98
339.34
339.692
340.095
340.115
340.035
339.745
339.354
338.923
338.585
338.635
339.172
340.126
341.431
335.396
334.087
333.076
332.614
332.399
332.649
332.978
333.277
333.584
333.949
333.951
333.895
333.655
333.304
332.95
332.699
332.742
333.202
333.979
335.063
328.964
327.87
327.07
326.695
326.535
326.714
326.988
327.243
327.482
327.78
327.792
327.757
327.558
327.266
326.98
326.815
326.808
327.19
327.799
328.674
322.532
321.68
321.068
320.78
320.653
320.782
320.99
321.203
321.391
321.613
321.636
321.593
321.428
321.201
320.999
320.91
320.881
321.164
321.622
322.313
316.101
315.479
315.066
314.857
314.76
314.866
314.998
315.173
315.278
315.438
315.47
315.453
315.295
315.153
315.01
314.969
314.927
315.138
315.432
315.948
309.665
309.291
309.058
308.904
308.858
308.949
308.998
309.121
309.178
309.253
309.292
309.278
309.182
309.108
309.029
309.011
308.963
309.09
309.254
309.591
303.234
303.123
303.034
302.978
302.957
302.997
303.021
303.062
303.08
303.107
303.117
303.117
303.084
303.053
303.033
303.024
303.019
303.046
303.095
303.212
348.518
346.815
345.495
344.843
344.63
345.014
345.38
346.003
346.414
346.889
346.924
346.768
346.369
345.816
345.236
344.876
344.851
345.298
346.537
348.021
342
340.547
339.416
338.888
338.683
339.006
339.287
339.864
340.209
340.636
340.679
340.551
340.201
339.727
339.207
338.949
338.96
339.349
340.399
341.646
335.526
334.307
333.342
332.948
332.735
332.978
333.231
333.742
334.013
334.388
334.415
334.33
334.027
333.632
333.185
333.02
333.031
333.355
334.231
335.274
329.065
328.082
327.279
326.994
326.781
326.973
327.215
327.619
327.85
328.142
328.15
328.093
327.863
327.542
327.162
327.04
327.067
327.335
328.045
328.869
322.601
321.842
321.232
321.027
320.824
320.976
321.19
321.49
321.663
321.918
321.892
321.835
321.683
321.445
321.134
321.055
321.08
321.276
321.815
322.477
316.144
315.594
315.191
315.027
314.875
314.991
315.142
315.356
315.486
315.675
315.648
315.583
315.518
315.336
315.105
315.063
315.082
315.195
315.587
316.079
309.715
309.362
309.132
309.026
308.925
309.014
309.086
309.224
309.309
309.437
309.393
309.356
309.324
309.214
309.087
309.052
309.059
309.129
309.352
309.669
303.257
303.135
303.061
303.023
302.99
303.024
303.041
303.095
303.122
303.172
303.144
303.134
303.127
303.086
303.048
303.036
303.04
303.058
303.136
303.242
349.013
347.385
346.154
345.432
345.423
345.758
346.276
346.76
347.27
347.715
347.746
347.68
347.195
346.602
345.966
345.633
345.489
345.947
347.084
348.631
342.395
341.052
340.002
339.392
339.37
339.661
340.068
340.527
340.969
341.351
341.388
341.342
340.915
340.404
339.857
339.604
339.494
339.905
340.901
342.177
335.835
334.739
333.846
333.32
333.321
333.563
333.878
334.302
334.671
334.968
335.002
334.989
334.627
334.208
333.775
333.564
333.497
333.817
334.673
335.712
329.294
328.43
327.698
327.254
327.243
327.467
327.695
328.073
328.384
328.589
328.622
328.615
328.32
327.996
327.671
327.502
327.48
327.719
328.434
329.23
322.776
322.085
321.544
321.19
321.197
321.376
321.532
321.848
322.092
322.239
322.246
322.269
322.033
321.782
321.539
321.423
321.416
321.589
322.153
322.755
316.286
315.781
315.374
315.122
315.147
315.287
315.387
315.623
315.795
315.897
315.899
315.917
315.751
315.571
315.395
315.316
315.33
315.443
315.838
316.285
309.781
309.468
309.235
309.085
309.091
309.172
309.232
309.391
309.488
309.553
309.555
309.566
309.464
309.357
309.258
309.203
309.223
309.273
309.501
309.787
303.279
303.172
303.096
303.052
303.05
303.068
303.09
303.151
303.176
303.206
303.204
303.211
303.163
303.139
303.1
303.089
303.092
303.108
303.181
303.281
349.826
348.343
347.096
346.458
346.407
346.758
347.172
347.769
348.448
348.939
348.965
348.804
348.278
347.699
347.156
346.613
346.413
346.894
348.036
349.323
343.093
341.87
340.811
340.27
340.2
340.517
340.884
341.404
341.983
342.396
342.437
342.31
341.844
341.355
340.923
340.423
340.301
340.742
341.738
342.765
336.4
335.398
334.529
334.072
333.983
334.284
334.59
335.054
335.536
335.865
335.898
335.818
335.398
335.018
334.67
334.227
334.181
334.543
335.411
336.204
329.748
328.953
328.246
327.871
327.789
328.053
328.314
328.699
329.09
329.332
329.344
329.303
328.93
328.681
328.394
328.034
328.024
328.299
329.036
329.673
323.109
322.508
321.972
321.672
321.602
321.819
322.058
322.344
322.623
322.811
322.8
322.802
322.507
322.323
322.117
321.833
321.825
322.047
322.609
323.116
316.501
316.089
315.709
315.497
315.431
315.598
315.787
316.001
316.162
316.291
316.274
316.266
316.083
315.963
315.814
315.615
315.611
315.789
316.183
316.539
309.895
309.684
309.445
309.31
309.266
309.373
309.503
309.623
309.704
309.788
309.759
309.756
309.67
309.595
309.494
309.399
309.376
309.486
309.739
309.937
303.325
303.249
303.161
303.11
303.115
303.147
303.189
303.227
303.257
303.279
303.271
303.274
303.243
303.216
303.185
303.148
303.134
303.173
303.272
303.339
351.093
349.628
348.256
347.659
347.637
347.965
348.431
348.981
349.749
350.184
350.29
350.112
349.581
348.97
348.387
347.922
347.773
348.086
349.172
350.441
344.212
342.998
341.826
341.272
341.291
341.543
341.954
342.435
343.11
343.492
343.59
343.412
342.962
342.429
341.952
341.563
341.464
341.74
342.696
343.733
337.367
336.385
335.386
334.903
334.926
335.127
335.489
335.92
336.465
336.786
336.881
336.735
336.326
335.907
335.501
335.186
335.136
335.369
336.177
337.009
330.553
329.775
328.956
328.531
328.552
328.74
329.043
329.412
329.819
330.094
330.18
330.054
329.701
329.375
329.038
328.794
328.787
328.97
329.643
330.291
323.756
323.161
322.522
322.176
322.206
322.368
322.597
322.881
323.187
323.379
323.467
323.382
323.091
322.856
322.592
322.416
322.414
322.556
323.069
323.558
316.976
316.535
316.073
315.827
315.871
315.963
316.156
316.344
316.562
316.692
316.753
316.719
316.494
316.333
316.177
316.031
316.037
316.13
316.481
316.833
310.207
309.915
309.657
309.498
309.521
309.583
309.701
309.836
309.951
310.045
310.048
310.04
309.928
309.812
309.734
309.637
309.634
309.701
309.903
310.126
303.422
303.324
303.236
303.174
303.187
303.218
303.253
303.304
303.329
303.366
303.358
303.365
303.329
303.29
303.266
303.235
303.222
303.253
303.324
303.394
352.588
351.018
349.794
349.095
348.94
349.391
349.912
350.519
351.126
351.638
351.836
351.73
351.098
350.446
349.794
349.324
349.108
349.575
350.516
351.824
345.504
344.215
343.149
342.534
342.411
342.786
343.234
343.764
344.287
344.715
344.941
344.816
344.297
343.741
343.171
342.784
342.593
343.028
343.828
344.916
338.464
337.395
336.515
335.989
335.893
336.168
336.587
337.035
337.475
337.818
338.013
337.925
337.495
337.025
336.536
336.221
336.095
336.43
337.138
338.024
331.449
330.593
329.87
329.424
329.366
329.571
329.952
330.309
330.652
330.955
331.093
331.028
330.677
330.293
329.925
329.65
329.553
329.854
330.423
331.118
324.449
323.804
323.223
322.862
322.833
323.004
323.296
323.566
323.818
324.086
324.184
324.139
323.835
323.543
323.301
323.074
323.009
323.252
323.685
324.209
317.468
317.022
316.586
316.313
316.305
316.432
316.64
316.837
316.987
317.219
317.278
317.25
317.011
316.806
316.678
316.491
316.448
316.608
316.925
317.307
310.502
310.229
309.953
309.803
309.777
309.856
310.001
310.104
310.188
310.352
310.372
310.362
310.219
310.091
310.029
309.904
309.891
309.962
310.176
310.383
303.528
303.442
303.34
303.286
303.277
303.296
303.355
303.385
303.403
303.472
303.476
303.476
303.424
303.381
303.364
303.321
303.317
303.344
303.411
303.487
354.209
352.743
351.524
350.761
350.822
351.055
351.494
352.09
352.654
353.173
353.331
353.332
352.825
352.212
351.388
350.883
350.736
351.278
352.102
353.434
346.936
345.695
344.639
343.959
344.01
344.219
344.586
345.11
345.62
346.058
346.214
346.216
345.805
345.27
344.551
344.118
344.021
344.492
345.209
346.339
339.671
338.637
337.744
337.172
337.231
337.401
337.692
338.153
338.585
338.954
339.116
339.104
338.77
338.321
337.705
337.344
337.297
337.689
338.291
339.219
332.424
331.611
330.862
330.412
330.473
330.569
330.826
331.215
331.553
331.858
331.982
332.008
331.712
331.369
330.874
330.569
330.559
330.865
331.359
332.103
325.212
324.587
323.984
323.642
323.692
323.765
323.975
324.269
324.516
324.776
324.886
324.914
324.669
324.415
324.036
323.788
323.792
324.025
324.412
324.994
318.006
317.592
317.121
316.881
316.907
316.987
317.125
317.332
317.512
317.714
317.788
317.807
317.634
317.446
317.214
317.001
317.008
317.193
317.436
317.854
310.798
310.576
310.287
310.119
310.142
310.205
310.269
310.4
310.537
310.648
310.681
310.671
310.586
310.477
310.365
310.212
310.226
310.338
310.481
310.708
303.618
303.556
303.451
303.388
303.398
303.426
303.43
303.493
303.536
303.574
303.572
303.579
303.543
303.512
303.479
303.417
303.422
303.473
303.506
303.579
356.044
354.596
353.334
352.645
352.611
352.785
353.275
353.746
354.423
354.974
355.022
355.056
354.538
353.959
353.206
352.755
352.635
353.003
353.885
355.213
348.508
347.283
346.21
345.609
345.558
345.734
346.157
346.546
347.125
347.629
347.672
347.686
347.257
346.785
346.136
345.75
345.661
345.995
346.746
347.874
340.99
339.985
339.104
338.587
338.513
338.674
339.042
339.344
339.833
340.3
340.329
340.327
339.948
339.598
339.053
338.721
338.647
338.971
339.6
340.541
333.511
332.718
332.001
331.57
331.499
331.602
331.93
332.198
332.574
332.979
332.999
332.99
332.642
332.41
331.951
331.695
331.64
331.923
332.432
333.167
326.057
325.457
324.888
324.527
324.49
324.566
324.85
325.029
325.309
325.662
325.678
325.646
325.384
325.204
324.863
324.659
324.626
324.862
325.251
325.802
318.621
318.192
317.785
317.512
317.511
317.572
317.748
317.886
318.084
318.335
318.362
318.313
318.127
318.004
317.788
317.625
317.609
317.785
318.049
318.443
311.188
310.934
310.678
310.509
310.515
310.576
310.651
310.737
310.863
311.021
311.034
310.977
310.895
310.809
310.697
310.589
310.601
310.67
310.847
311.078
303.753
303.677
303.573
303.53
303.532
303.546
303.57
303.594
303.643
303.694
303.705
303.675
303.656
303.617
303.586
303.55
303.561
303.572
303.647
303.716
357.98
356.603
355.384
354.816
354.466
354.608
355.094
355.418
356.078
356.708
356.776
356.66
356.306
355.661
355.003
354.557
354.57
354.88
355.91
357.02
350.174
349.023
347.98
347.492
347.201
347.311
347.751
348.016
348.534
349.126
349.191
349.085
348.776
348.234
347.704
347.324
347.35
347.612
348.506
349.428
342.408
341.439
340.569
340.173
339.944
340.032
340.408
340.623
341.037
341.546
341.611
341.503
341.254
340.82
340.384
340.065
340.111
340.333
341.07
341.835
334.661
333.885
333.206
332.86
332.7
332.754
333.069
333.23
333.557
333.96
334.033
333.937
333.724
333.391
333.052
332.795
332.856
333.056
333.633
334.243
326.96
326.372
325.842
325.558
325.446
325.5
325.733
325.858
326.09
326.426
326.492
326.371
326.227
325.98
325.737
325.517
325.592
325.749
326.168
326.647
319.268
318.868
318.463
318.249
318.181
318.234
318.37
318.486
318.644
318.884
318.92
318.816
318.745
318.559
318.428
318.238
318.299
318.418
318.698
319.044
311.564
311.319
311.088
310.957
310.905
310.961
311.039
311.104
311.217
311.348
311.357
311.294
311.259
311.142
311.074
310.966
311.005
311.064
311.246
311.453
303.865
303.792
303.719
303.682
303.656
303.685
303.698
303.726
303.76
303.809
303.812
303.792
303.775
303.721
303.711
303.664
303.684
303.71
303.759
303.841
359.995
358.652
357.441
356.859
356.559
356.583
356.921
357.378
357.876
358.298
358.65
358.396
357.883
357.372
356.841
356.505
356.443
356.88
357.79
358.835
351.918
350.803
349.756
349.272
349.003
349.018
349.318
349.707
350.128
350.511
350.794
350.576
350.14
349.737
349.297
348.983
348.97
349.326
350.141
351.019
343.862
342.976
342.085
341.672
341.451
341.477
341.747
342.051
342.374
342.737
342.949
342.758
342.422
342.065
341.733
341.461
341.459
341.756
342.465
343.196
335.872
335.145
334.426
334.097
333.902
333.949
334.18
334.412
334.628
334.954
335.128
334.973
334.718
334.44
334.146
333.935
333.949
334.168
334.776
335.36
327.902
327.335
326.78
326.509
326.372
326.428
326.615
326.76
326.907
327.18
327.318
327.196
327.02
326.795
326.576
326.406
326.434
326.593
327.058
327.54
319.948
319.533
319.136
318.917
318.872
318.883
319.034
319.12
319.215
319.414
319.519
319.437
319.317
319.161
318.983
318.878
318.909
319.008
319.361
319.694
311.984
311.725
311.475
311.362
311.352
311.346
311.439
311.479
311.548
311.679
311.725
311.658
311.605
311.519
311.398
311.358
311.364
311.41
311.659
311.839
304.022
303.933
303.846
303.812
303.817
303.807
303.826
303.845
303.867
303.92
303.927
303.906
303.889
303.866
303.824
303.819
303.812
303.824
303.906
303.975
362.133
360.738
359.698
359.088
358.635
358.631
358.807
359.239
359.653
359.94
360.416
360.192
359.727
359.197
358.763
358.413
358.507
358.961
359.729
360.922
353.777
352.615
351.724
351.208
350.792
350.793
350.948
351.289
351.677
351.899
352.342
352.15
351.747
351.263
350.923
350.644
350.738
351.134
351.811
352.808
345.483
344.527
343.75
343.296
342.938
342.97
343.084
343.376
343.731
343.879
344.256
344.119
343.778
343.371
343.071
342.857
342.958
343.297
343.856
344.703
337.191
336.43
335.786
335.407
335.117
335.141
335.251
335.458
335.787
335.873
336.191
336.063
335.805
335.463
335.242
335.064
335.188
335.468
335.9
336.575
328.94
328.329
327.842
327.52
327.304
327.352
327.423
327.583
327.845
327.897
328.132
328.032
327.844
327.574
327.404
327.283
327.374
327.594
327.933
328.46
320.687
320.232
319.889
319.631
319.509
319.53
319.605
319.723
319.906
319.924
320.094
320.028
319.885
319.715
319.589
319.499
319.565
319.716
319.959
320.349
312.425
312.139
311.935
311.777
311.709
311.741
311.773
311.856
311.956
311.973
312.069
312.034
311.942
311.853
311.76
311.699
311.775
311.845
311.998
312.221
304.173
304.061
304.008
303.944
303.931
303.941
303.944
303.976
304.013
304.004
304.052
304.036
303.998
303.973
303.932
303.917
303.942
303.962
304.021
304.097
364.298
362.997
361.873
361.173
360.681
360.626
360.685
361.064
361.488
361.753
361.987
361.885
361.51
361.058
360.67
360.39
360.583
361.008
361.816
362.941
355.657
354.577
353.612
352.986
352.571
352.519
352.586
352.898
353.297
353.496
353.7
353.601
353.303
352.929
352.579
352.344
352.555
352.916
353.595
354.581
347.027
346.172
345.349
344.834
344.48
344.435
344.495
344.732
345.091
345.243
345.425
345.343
345.097
344.815
344.503
344.302
344.511
344.803
345.393
346.208
338.453
337.776
337.098
336.691
336.396
336.369
336.409
336.568
336.901
337.015
337.148
337.101
336.898
336.676
336.406
336.252
336.445
336.686
337.164
337.829
329.894
329.375
328.85
328.522
328.302
328.292
328.307
328.415
328.709
328.795
328.869
328.871
328.717
328.549
328.312
328.201
328.364
328.55
328.916
329.429
321.342
320.982
320.599
320.38
320.225
320.217
320.229
320.303
320.502
320.573
320.606
320.626
320.522
320.415
320.234
320.16
320.274
320.41
320.643
321.033
312.817
312.59
312.376
312.238
312.148
312.12
312.139
312.202
312.314
312.352
312.372
312.384
312.327
312.254
312.151
312.118
312.177
312.273
312.391
312.636
304.293
304.225
304.156
304.093
304.073
304.051
304.067
304.077
304.122
304.142
304.148
304.141
304.124
304.109
304.069
304.065
304.081
304.117
304.156
304.244
366.555
365.274
364.069
363.332
362.71
362.534
362.691
362.901
363.23
363.604
363.623
363.568
363.242
362.923
362.555
362.346
362.529
362.956
363.877
364.977
357.64
356.552
355.504
354.871
354.32
354.179
354.324
354.487
354.783
355.082
355.089
355.059
354.787
354.538
354.223
354.056
354.222
354.595
355.402
356.334
348.753
347.826
346.947
346.406
345.946
345.828
345.965
346.089
346.332
346.595
346.592
346.571
346.345
346.16
345.887
345.753
345.901
346.213
346.893
347.688
339.87
339.122
338.419
337.968
337.597
337.508
337.619
337.684
337.888
338.139
338.114
338.119
337.932
337.771
337.567
337.449
337.576
337.837
338.385
339.039
330.985
330.422
329.906
329.518
329.252
329.175
329.259
329.273
329.45
329.676
329.66
329.659
329.528
329.392
329.215
329.141
329.242
329.432
329.874
330.402
322.108
321.751
321.401
321.096
320.898
320.855
320.924
320.919
321.043
321.203
321.213
321.202
321.107
321.029
320.879
320.831
320.894
321.02
321.337
321.72
313.273
313.091
312.866
312.674
312.559
312.52
312.551
312.57
312.634
312.739
312.748
312.733
312.693
312.641
312.546
312.49
312.542
312.623
312.806
313.057
304.447
304.399
304.305
304.244
304.212
304.206
304.212
304.212
304.243
304.276
304.277
304.27
304.249
304.241
304.214
304.178
304.198
304.221
304.291
304.386
368.789
367.441
366.237
365.515
364.843
364.606
364.616
364.809
364.998
365.398
365.372
365.275
365.033
364.673
364.428
364.317
364.532
365.036
366.043
366.988
359.586
358.416
357.358
356.739
356.152
355.962
355.967
356.143
356.296
356.679
356.634
356.572
356.381
356.049
355.873
355.772
355.961
356.404
357.282
358.101
350.398
349.421
348.499
347.977
347.49
347.317
347.357
347.502
347.627
347.956
347.919
347.87
347.727
347.427
347.311
347.211
347.374
347.77
348.521
349.171
341.22
340.424
339.643
339.252
338.863
338.669
338.743
338.876
338.986
339.225
339.243
339.171
339.065
338.81
338.743
338.647
338.773
339.102
339.708
340.234
332.061
331.441
330.832
330.563
330.237
330.062
330.126
330.239
330.32
330.497
330.553
330.485
330.388
330.181
330.169
330.094
330.154
330.411
330.877
331.298
322.908
322.462
322.007
321.818
321.593
321.474
321.51
321.616
321.667
321.774
321.85
321.773
321.718
321.554
321.567
321.529
321.543
321.734
322.063
322.36
313.743
313.489
313.204
313.102
312.966
312.899
312.916
312.979
313.027
313.064
313.132
313.076
313.039
312.956
312.972
312.927
312.946
313.047
313.243
313.432
304.598
304.531
304.424
304.399
304.35
304.331
304.33
304.344
304.37
304.377
304.403
304.383
304.363
304.35
304.354
304.336
304.334
304.372
304.441
304.499
370.985
369.676
368.561
367.755
367.026
366.633
366.636
366.818
366.953
367.123
367.109
367.08
366.794
366.578
366.475
366.324
366.685
367.196
367.974
368.91
361.452
360.356
359.404
358.7
358.068
357.734
357.749
357.903
358.019
358.17
358.154
358.142
357.886
357.715
357.646
357.523
357.817
358.295
358.956
359.758
351.923
351.058
350.272
349.678
349.129
348.829
348.862
348.99
349.081
349.197
349.211
349.196
348.96
348.822
348.789
348.687
348.928
349.367
349.931
350.59
342.421
341.765
341.14
340.654
340.201
339.946
339.998
340.096
340.149
340.249
340.278
340.267
340.063
339.946
339.94
339.855
340.038
340.414
340.89
341.413
332.966
332.476
332.002
331.646
331.279
331.061
331.127
331.192
331.208
331.286
331.342
331.343
331.182
331.065
331.086
331.015
331.145
331.465
331.83
332.241
323.554
323.191
322.869
322.628
322.352
322.192
322.259
322.301
322.291
322.341
322.399
322.411
322.296
322.205
322.212
322.159
322.235
322.49
322.733
323.051
314.131
313.941
313.731
313.592
313.417
313.316
313.375
313.384
313.384
313.416
313.46
313.454
313.411
313.345
313.339
313.302
313.343
313.504
313.647
313.853
304.728
304.691
304.605
304.564
304.495
304.469
304.482
304.494
304.48
304.5
304.517
304.506
304.487
304.472
304.471
304.47
304.464
304.533
304.578
304.632
373.158
371.824
370.824
369.933
369.299
368.837
368.657
368.689
368.847
368.883
368.85
368.866
368.637
368.407
368.39
368.408
368.719
369.342
370.109
371.017
363.335
362.213
361.362
360.605
360.037
359.631
359.471
359.521
359.675
359.694
359.659
359.696
359.487
359.304
359.296
359.312
359.618
360.161
360.8
361.592
353.551
352.616
351.895
351.283
350.799
350.437
350.305
350.347
350.517
350.493
350.464
350.514
350.322
350.185
350.181
350.206
350.512
350.914
351.475
352.135
343.766
343.032
342.451
341.977
341.558
341.256
341.153
341.181
341.346
341.302
341.292
341.332
341.149
341.078
341.056
341.083
341.373
341.696
342.145
342.673
334.027
333.495
333.035
332.664
332.327
332.101
331.982
332.023
332.172
332.111
332.115
332.152
332.004
331.955
331.941
331.968
332.207
332.469
332.795
333.204
324.285
323.935
323.621
323.343
323.091
322.948
322.844
322.898
322.978
322.96
322.965
322.978
322.874
322.837
322.826
322.832
323.027
323.226
323.444
323.724
314.577
314.375
314.197
314.007
313.864
313.797
313.716
313.759
313.778
313.809
313.804
313.807
313.753
313.714
313.705
313.71
313.832
313.947
314.089
314.253
304.882
304.816
304.76
304.688
304.645
304.628
304.588
304.606
304.609
304.631
304.634
304.624
304.606
304.592
304.592
304.593
304.633
304.674
304.729
304.781
375.34
374.108
373.231
372.204
371.353
370.847
370.556
370.615
370.606
370.676
370.543
370.444
370.345
370.213
370.137
370.295
370.746
371.355
372.429
373.181
365.22
364.18
363.478
362.587
361.818
361.386
361.136
361.188
361.168
361.242
361.134
361.055
360.96
360.888
360.807
360.975
361.363
361.903
362.831
363.438
355.149
354.299
353.71
352.956
352.3
351.935
351.701
351.772
351.769
351.817
351.723
351.675
351.587
351.544
351.466
351.619
351.936
352.405
353.212
353.683
345.107
344.465
343.959
343.331
342.803
342.487
342.298
342.355
342.37
342.394
342.321
342.289
342.219
342.211
342.133
342.265
342.5
342.895
343.566
343.936
335.063
334.614
334.222
333.732
333.297
333.037
332.887
332.931
332.968
332.953
332.928
332.903
332.86
332.855
332.793
332.894
333.066
333.384
333.919
334.162
325.052
324.753
324.478
324.117
323.792
323.59
323.488
323.509
323.564
323.518
323.529
323.523
323.455
323.501
323.466
323.511
323.628
323.869
324.268
324.399
315.034
314.868
314.719
314.479
314.288
314.177
314.107
314.13
314.151
314.112
314.13
314.135
314.085
314.131
314.102
314.13
314.17
314.352
314.595
314.647
305.037
304.986
304.934
304.847
304.79
304.753
304.727
304.729
304.744
304.721
304.734
304.742
304.716
304.735
304.729
304.74
304.749
304.813
304.893
304.912
377.452
376.394
375.297
374.238
373.406
372.84
372.568
372.366
372.3
372.424
372.247
372.097
372.036
372.032
372.045
372.278
372.597
373.284
374.361
375.201
367.053
366.19
365.251
364.317
363.584
363.085
362.854
362.705
362.646
362.759
362.574
362.492
362.408
362.418
362.445
362.662
362.943
363.538
364.493
365.175
356.694
355.995
355.216
354.404
353.775
353.362
353.176
353.069
353.008
353.089
352.937
352.869
352.806
352.829
352.869
353.027
353.264
353.786
354.641
355.15
346.373
345.813
345.181
344.506
343.992
343.653
343.507
343.42
343.39
343.43
343.308
343.262
343.211
343.227
343.273
343.386
343.572
344.026
344.741
345.135
336.079
335.626
335.16
334.607
334.216
333.95
333.837
333.772
333.771
333.775
333.701
333.651
333.608
333.649
333.678
333.754
333.909
334.259
334.804
335.112
325.792
325.457
325.14
324.724
324.455
324.253
324.174
324.132
324.136
324.125
324.081
324.058
324.026
324.067
324.071
324.136
324.244
324.488
324.873
325.11
315.505
315.295
315.104
314.854
314.682
314.572
314.518
314.498
314.51
314.476
314.47
314.451
314.45
314.483
314.448
314.506
314.567
314.714
314.947
315.083
305.203
305.126
305.068
304.971
304.912
304.888
304.867
304.859
304.868
304.849
304.85
304.845
304.854
304.854
304.845
304.859
304.886
304.941
305.009
305.057
379.407
378.141
377.184
376.099
375.379
374.712
374.354
374.082
374.027
373.971
373.852
373.749
373.544
373.651
373.774
374.036
374.424
375.129
376.039
377.159
368.717
367.661
366.835
365.896
365.28
364.675
364.395
364.149
364.097
364.066
363.964
363.878
363.71
363.79
363.919
364.16
364.502
365.109
365.895
366.842
358.076
357.196
356.511
355.732
355.23
354.684
354.458
354.233
354.191
354.197
354.12
354.009
353.889
353.956
354.07
354.287
354.579
355.099
355.766
356.554
347.469
346.787
346.196
345.593
345.185
344.713
344.54
344.341
344.332
344.358
344.274
344.183
344.098
344.136
344.209
344.405
344.669
345.071
345.626
346.297
336.909
336.385
335.897
335.447
335.132
334.763
334.644
334.497
334.505
334.497
334.435
334.357
334.303
334.316
334.382
334.523
334.742
335.048
335.501
336.026
326.361
325.983
325.631
325.341
325.091
324.827
324.764
324.649
324.658
324.667
324.603
324.53
324.496
324.522
324.559
324.663
324.825
325.042
325.379
325.75
315.839
315.602
315.37
315.217
315.041
314.894
314.884
314.824
314.806
314.811
314.776
314.718
314.719
314.717
314.75
314.81
314.895
315.034
315.265
315.466
305.307
305.233
305.149
305.108
305.03
304.984
305
304.968
304.966
304.963
304.953
304.927
304.937
304.939
304.949
304.969
304.988
305.043
305.123
305.182
380.79
379.594
378.476
377.444
376.659
376.042
375.687
375.313
375.242
375.118
374.979
374.919
374.768
374.825
374.977
375.38
375.823
376.513
377.475
378.507
369.865
368.844
367.884
366.999
366.319
365.786
365.482
365.162
365.115
365.024
364.895
364.851
364.707
364.744
364.899
365.254
365.656
366.264
367.094
367.987
359.039
358.16
357.366
356.598
356.031
355.583
355.339
355.083
355.037
354.973
354.829
354.804
354.683
354.703
354.869
355.155
355.492
356.026
356.72
357.485
348.25
347.538
346.87
346.257
345.79
345.438
345.249
345.032
344.997
344.963
344.795
344.807
344.698
344.701
344.875
345.09
345.36
345.826
346.359
347.002
337.488
336.965
336.427
335.972
335.618
335.329
335.172
335.005
334.993
334.979
334.818
334.818
334.757
334.73
334.896
335.058
335.246
335.645
336.042
336.544
326.769
326.408
326.007
325.708
325.439
325.22
325.125
324.992
324.994
324.993
324.842
324.859
324.836
324.788
324.936
325.054
325.158
325.471
325.745
326.1
316.067
315.867
315.618
315.451
315.275
315.144
315.088
315.009
314.997
315.008
314.899
314.92
314.933
314.881
314.981
315.053
315.095
315.299
315.477
315.671
305.384
305.32
305.23
305.173
305.112
305.087
305.059
305.018
305.032
305.033
304.986
304.986
305.005
304.982
305.014
305.041
305.065
305.138
305.19
305.238
)
;

boundaryField
{
    hotSide
    {
        type            fixedGradient;
        gradient        nonuniform List<scalar> 
400
(
524.988
527.3
533.209
542.635
555.247
570.562
588.057
607.254
627.751
649.229
671.437
694.186
717.328
740.749
764.357
788.079
811.854
835.633
859.384
883.092
499.403
501.884
508.213
518.293
531.724
547.937
566.336
586.394
607.682
629.868
652.7
675.992
699.601
723.421
747.369
771.378
795.391
819.366
843.275
867.108
482.97
485.903
492.647
503.098
516.862
533.375
552.049
572.354
593.859
616.227
639.203
662.599
686.274
710.124
734.072
758.056
782.028
805.952
829.806
853.588
475.159
478.803
485.972
496.562
510.241
526.533
544.919
564.916
586.109
608.166
630.83
653.907
677.254
700.77
724.38
748.03
771.682
795.309
818.901
842.457
473.726
478.212
485.848
496.531
509.994
525.858
543.694
563.081
583.641
605.056
627.074
649.502
672.202
695.077
718.06
741.11
764.2
787.316
810.456
833.625
476.137
481.494
489.666
500.539
513.887
529.399
546.714
565.464
585.307
605.947
627.147
648.726
670.561
692.571
714.711
736.955
759.295
781.73
804.267
826.916
480.368
486.576
495.348
506.557
519.992
535.371
552.365
570.634
589.855
609.749
630.095
650.739
671.589
692.597
713.75
735.052
756.517
778.161
799.998
822.041
484.942
491.943
501.351
513.026
526.754
542.252
559.191
577.222
596.014
615.288
634.841
654.553
674.379
694.326
714.43
734.733
755.277
776.092
797.202
818.619
488.768
496.447
506.461
518.663
532.827
548.652
565.781
583.827
602.419
621.252
640.132
658.985
677.834
696.757
715.851
735.204
754.881
774.929
795.373
816.223
491.025
499.184
509.674
522.342
536.954
553.188
570.649
588.891
607.479
626.065
644.455
662.622
680.668
698.751
717.026
735.62
754.619
774.076
794.016
814.444
491.164
499.514
510.228
523.154
538.05
554.582
572.323
590.783
609.47
627.996
646.159
663.97
681.585
699.214
717.052
735.247
753.895
773.053
792.744
812.971
488.975
497.165
507.773
520.643
535.532
552.095
569.896
588.438
607.224
625.86
644.14
662.066
679.788
697.513
715.434
733.7
752.412
771.63
791.38
811.667
484.664
492.349
502.529
515.049
529.658
546.01
563.676
582.185
601.08
619.992
638.71
657.193
675.527
693.861
712.353
731.134
750.301
769.917
790.018
810.615
478.889
485.788
495.315
507.318
521.536
537.619
555.147
573.676
592.786
612.138
631.508
650.803
670.035
689.28
708.642
728.223
748.107
768.358
789.02
810.113
472.76
478.69
487.463
498.933
512.827
528.769
546.326
565.053
584.543
604.464
624.58
644.756
664.946
685.168
705.477
725.944
746.639
767.623
788.942
810.626
467.893
472.761
480.778
491.807
505.537
521.537
539.324
558.42
578.406
598.942
619.781
640.765
661.814
682.908
704.069
725.347
746.798
768.481
790.442
812.714
466.505
470.316
477.63
488.316
502.002
518.17
536.26
555.746
576.187
597.236
618.643
640.241
661.934
683.683
705.494
727.398
749.447
771.696
794.193
816.969
471.335
474.225
480.899
491.227
504.782
520.965
539.151
558.783
579.408
600.681
622.353
644.259
666.296
688.416
710.611
732.903
755.336
777.961
800.825
823.957
484.827
487.084
493.16
502.938
515.991
531.718
549.494
568.769
589.1
610.149
631.673
653.504
675.535
697.707
719.999
742.422
765.007
787.797
810.83
834.127
507.672
509.616
515.128
524.112
536.215
550.928
567.708
586.057
605.565
625.908
646.847
668.211
689.881
711.788
733.895
756.196
778.704
801.444
824.437
847.694
)
;
    }
    coldSide
    {
        type            mixed;
        refValue        uniform 300;
        refGradient     uniform 0;
        valueFraction   uniform 0.991591;
        source          uniform 0;
        value           nonuniform List<scalar> 
400
(
300.027
300.027
300.028
300.028
300.029
300.03
300.03
300.032
300.033
300.034
300.035
300.036
300.037
300.039
300.04
300.041
300.042
300.044
300.045
300.045
300.026
300.026
300.027
300.027
300.028
300.029
300.03
300.031
300.032
300.033
300.034