/*--------------------------------*- C++ -*----------------------------------*\
| =========                 |                                                 |
| \\      /  F ield         | OpenFOAM: The Open Source CFD Toolbox           |
|  \\    /   O peration     | Version:  2212                                  |
|   \\  /    A nd           | Website:  www.openfoam.com                      |
|    \\/     M anipulation  |                                                 |
\*---------------------------------------------------------------------------*/
FoamFile
{
    version     2.0;
    format      ascii;
    arch        "LSB;label=32;scalar=64";
    class       volScalarField;
    location    "0";
    object      relativeErrorField;
}
// * * * * * * * * * * * * * * * * * * * * * * * * * * * * * * * * * * * * * //

dimensions      [0 0 0 1 0 0 0];

internalField   nonuniform List<scalar> 
3200
(
0.00217529
0.00437308
0.00560831
0.00237841
0.0103891
0.0117335
0.011895
0.0193377
0.0172501
0.0197279
0.0191947
0.0146853
0.0221461
0.0158639
0.0061351
0.00750753
0.00624414
0.00631997
0.00897415
0.00264946
0.00439639
0.00477655
0.00247581
0.0109155
0.00493508
0.00240962
0.0177581
0.0105344
0.0175811
0.0132393
0.0203192
0.0154654
0.0122174
0.0118495
0.0114266
0.00254649
0.0104105
0.00131707
0.000344409
0.0034501
0.00280016
0.00362178
0.00219793
0.0139517
0.00713012
0.00920654
0.0132054
0.00810077
0.0150783
0.0141217
0.012644
0.00486775
0.0180452
0.0147904
0.0102201
0.0114626
0.0143511
0.00746712
0.00513853
0.00125547
0.00126058
0.00874554
0.00624999
0.0040357
0.00426179
0.00010969
0.00791147
0.00572843
0.00780042
0.0130953
0.0110921
0.00929528
0.0037906
0.0059297
0.00562672
0.0126817
0.00679613
0.00135048
0.000969375
0.00860254
0.00336979
0.00359479
0.00669235
0.00780785
0.00172446
0.00420563
0.00296
0.0135083
0.00993353
0.0140781
0.00110834
0.00631769
0.00299909
0.00345877
0.0145249
0.00351623
0.00586061
0.00671967
0.000478486
0.00600901
0.00027623
0.0092963
0.00289086
0.00750345
0.00325304
0.00698538
0.00111901
0.00694196
0.00968884
0.00442832
0.010931
0.00413591
0.00539332
0.0049878
0.00637256
0.00185221
0.00233115
0.000631024
0.00322559
0.00348015
0.000236126
0.00362766
0.003099
0.00674812
0.00873482
0.000724286
0.00116163
0.00167138
0.000903313
0.00345271
0.000619532
0.0134566
0.000287214
0.00245602
0.00509299
0.0103543
0.00591892
0.00492834
0.000254077
0.00113256
0.0104142
0.0014003
0.00100827
0.0031029
0.00517624
0.00115579
0.0102083
0.00250674
0.000931062
0.006197
0.00206252
0.00447124
0.00222235
0.000264158
0.000677026
0.0027142
0.00560952
0.00863126
0.00562682
0.00598
0.0047797
0.00120134
0.000606338
0.00706923
0.0062444
0.00158183
0.00513034
0.0175138
0.0182935
0.0222466
0.0149774
0.0141555
0.0224628
0.0123134
0.0160163
0.00737296
0.00729474
0.00570392
0.0101828
0.0065643
0.00145563
0.0020645
0.00436694
0.00107304
0.00743644
0.000956678
0.00970451
0.00170984
0.00861374
0.00011624
0.00147785
0.00977977
0.000389092
0.00865359
0.00110711
0.0157044
0.000750449
0.00868606
0.000468734
0.0020857
0.00186526
0.00403347
0.007765
0.0010984
0.00611551
0.00413112
0.00660919
0.00740473
0.0156994
0.0101856
0.0145261
0.0106245
0.0108739
0.0111606
0.00415207
0.00217591
0.00987669
0.00236741
0.00955921
0.0011034
0.00221061
0.00308931
0.00171774
0.00198272
0.000367997
0.0122213
0.00597276
0.00935147
0.00955354
0.0213246
0.016577
0.00795428
0.00815849
0.00482319
0.0055192
0.00202683
0.00734224
0.00553574
0.00358071
3.22615e-05
0.000948091
0.00292123
0.00262455
0.00638145
0.00164838
0.00645714
0.00928227
0.00404228
0.00637663
0.0104195
0.00935671
0.00380983
0.012325
0.000968728
0.00587885
0.00983862
0.00217736
0.00178067
0.00311969
0.00018804
0.000103709
0.00209129
0.00491276
0.000417947
0.00732869
0.00220561
0.00434179
0.00656874
0.0115305
0.00612291
0.000724552
0.00390974
0.0101424
0.00533418
0.000794712
0.00966524
0.00510427
0.00176482
0.00726642
0.00676783
0.00679589
0.00340145
0.00373836
0.00700807
0.00613001
0.00559099
0.00127151
0.00483394
0.0120841
0.00471003
0.00180903
0.0035243
0.00468736
0.000301923
0.0018904
0.000161097
0.00445457
0.00271447
0.0032141
0.00316233
0.00366436
0.000618923
0.00468417
0.00734022
0.00302025
0.00334674
0.00498942
0.00114995
0.0071996
0.00361128
0.00103612
0.000511685
0.00137236
0.003958
0.00988735
0.00635861
0.00731724
0.0037736
0.00564596
0.00226944
0.00131959
0.00505076
0.00641612
0.00015122
0.0021897
0.00990686
0.00529835
0.0141252
0.0123545
0.0104453
0.00936802
0.0118984
0.016096
0.015241
0.0130595
0.0037372
0.000680141
0.00632892
0.00259236
0.00299521
0.00441361
0.00179063
0.00611318
0.00309514
0.00105573
0.0126318
0.00796555
0.0160155
0.0134633
0.0171017
0.0124996
0.00971637
0.0107171
0.00779194
0.0038165
0.00329282
0.00162583
0.00652995
0.00229528
0.000436769
0.00225189
0.00149037
0.00166521
0.00112105
0.00178155
0.00699438
0.00906988
0.00689256
0.0090597
0.0139289
0.00761812
0.0125874
0.0109184
0.00643954
0.0142509
0.00337311
0.0061821
0.00417924
0.000930129
0.000143711
0.00306461
0.00121038
0.00947788
0.00336562
0.00390491
0.00683498
0.00428994
0.0105078
0.010421
0.0127121
0.00866675
0.0118049
0.00906285
0.00605623
0.00683549
0.00184249
0.00848355
0.00173638
0.00458004
0.000334017
0.00172851
0.00535901
0.00531437
0.00302709
0.00950102
0.000363051
0.00983927
0.00656374
0.00366608
0.00659651
0.0056119
0.0170067
0.00448812
0.00881604
0.00796979
0.00781309
0.00403765
0.00411827
0.00185012
0.00401074
0.00448489
0.0115981
0.00193114
0.000290496
0.00173631
0.00124534
0.00375679
0.00263883
0.00130061
0.00646316
0.00689188
0.0151842
0.00645545
0.00368243
0.00569514
0.00213745
0.00281708
0.00161976
0.00107965
0.00336746
0.00482416
0.0126151
0.000312111
0.00415384
0.000897351
0.00965066
0.00577481
3.1338e-05
0.000405169
0.00468054
0.00195928
0.00231564
0.00139874
0.00359204
0.00154239
0.00125698
0.00182352
0.00295949
0.00446776
0.00769893
0.000249101
0.00192659
0.000700052
0.00294081
0.00413449
0.000971736
0.00740739
0.00131881
0.000729141
0.00379525
0.0055868
0.00470325
0.0090809
0.00233977
0.0076663
0.00213843
0.00121424
0.00603816
0.00855656
0.000481368
0.0014406
0.0108352
0.00573347
0.00228583
0.00895756
0.00277923
0.00677805
0.000933565
0.014441
0.0031932
0.0112137
0.00762387
0.0112464
0.00490975
0.00350411
0.000825439
0.00346199
0.00245709
0.00589059
0.00103127
0.00106304
0.00360797
0.00793822
0.00170744
0.00470941
1.72535e-05
0.00835073
0.00184104
0.00945829
0.00198732
0.00181127
0.00953583
2.15921e-05
0.00543846
3.46386e-05
0.000775372
0.000502328
0.00650013
3.66528e-05
0.00752242
0.00975213
0.00666895
0.00234276
0.00309858
0.000678445
0.00122048
0.00123817
0.000631994
0.0136744
0.00865724
0.00707335
0.00751115
0.00279424
0.010322
0.000232243
0.000944349
0.000521186
0.000614769
0.0025957
0.00201781
0.00582366
0.0125235
0.000422428
0.0107798
0.00517256
0.000691916
0.0154218
0.0124714
0.00561606
0.0109773
0.001467
0.00269809
0.00390321
0.00110868
0.0021819
0.00358031
0.00986357
0.0140709
0.00334765
0.000751744
0.00333068
0.00369858
0.000681168
0.00362691
0.00637909
7.9997e-06
0.000717771
0.00433107
0.00825647
0.00670974
0.0129639
0.00529087
0.008197
0.00512326
0.00412522
0.00198194
0.00135926
0.0112284
0.00213054
0.00162283
0.00388778
0.00131982
0.000241818
0.00400413
0.0077322
0.0064164
0.00556984
0.00749436
0.0103094
0.00606524
0.00690722
0.00786812
0.0131716
0.00192812
0.00494515
0.00548233
0.00101847
0.0038851
0.0011629
0.000332853
0.00322352
0.0032507
0.00751416
0.00186804
0.00118401
0.00203604
0.00353048
0.00356814
0.000695026
0.00286568
0.00117835
0.00353866
0.00198347
0.00381111
0.000241959
0.00621005
0.00550144
0.00270487
0.00538091
0.000274396
0.00318555
0.00242971
0.00220628
0.00363656
0.00286043
0.00397827
0.00468474
0.00420543
0.00393535
0.00450398
0.000251496
0.00365527
0.00690766
0.00582975
0.00054304
0.00421072
0.00104289
0.00030077
0.00369085
0.0081122
0.00932153
0.00849377
0.0130571
0.0106841
0.00574707
0.00964482
0.0020286
0.00595776
0.007345
0.00885617
0.00976088
0.00344226
0.0130572
0.00161547
0.00338684
0.00333164
0.00158553
0.00445767
0.00541516
0.00253326
0.00424427
0.0109981
0.00663521
0.00633002
0.000730106
0.0041133
0.00358759
0.00617787
0.012893
0.00673963
0.00475385
0.00328434
0.00414467
0.00120664
0.00537118
0.00320587
5.43115e-05
0.00450887
0.00170011
0.00493259
0.00631557
0.0077542
5.7186e-05
0.00330813
0.00356487
0.00108301
0.00218143
0.00414991
0.00453636
0.00761708
0.00340545
0.00730407
0.00634858
0.00186057
0.00392976
0.00357735
0.00188305
0.00235088
0.00593908
0.00903318
0.0041348
0.00729398
0.00311699
0.00399082
0.00218247
0.000865449
0.0010928
0.00643165
0.00633393
0.00414763
0.00189708
0.00464997
0.00527564
0.00622004
0.003593
0.000896843
0.000949396
0.00702152
0.00562672
0.00120848
0.000571417
0.00483265
0.00508956
0.00155079
0.00507568
0.00105085
0.00236133
0.00347325
0.000831391
0.00253396
0.0052044
0.00505267
0.0025052
0.00105723
0.00188548
0.00239092
0.00269459
0.00593532
0.000506538
0.00266137
0.00135896
0.000819322
0.00173331
0.00371735
0.00683569
0.0145163
0.00696721
0.00295267
0.00387799
0.00396056
0.00237631
0.00873661
0.00254926
0.000210801
0.00507407
0.00554441
0.0105805
0.000960172
0.00226467
0.00430442
0.00561042
0.00264447
0.00792134
0.000884118
0.00186552
0.00560601
0.000633611
0.00397494
0.00131659
0.00467572
7.37213e-05
0.00086751
0.0109248
0.00233039
0.00325454
0.0046169
0.00635686
0.000594451
0.00126728
0.00565987
0.00659218
0.000524917
0.00200926
0.00267668
0.00692384
0.00240443
0.00340534
0.00277502
0.000921149
0.00276781
0.00365628
0.00592153
3.56512e-06
0.00894405
0.00033308
0.00160328
0.00670728
0.00734888
0.00710409
0.00126413
0.00913663
0.0103387
0.00784606
0.00936589
0.00589139
0.00522567
0.00942668
0.00537524
0.000940832
0.00175707
0.00265806
0.00521979
0.00428911
0.00380604
0.000900148
0.00602046
0.00207169
0.0134417
0.00446289
0.00913871
0.00353135
0.00272267
0.00551332
0.00243537
0.00468474
0.000918477
0.00535457
0.00119315
8.4705e-05
0.000948096
4.71856e-05
0.00181644
0.000723369
0.00819729
0.00104749
0.00226187
0.00118981
0.0065919
0.00177252
0.00974571
0.00250185
0.00557754
0.00602162
0.00817445
0.00859741
0.0070512
0.000580544
0.00824909
0.00306232
0.00618831
0.00730857
0.000511982
0.00768415
0.00620181
0.00227081
0.00321114
0.00395715
0.00804516
0.00850342
0.00732049
0.00721285
0.00485064
0.0100225
0.00282509
3.2217e-05
0.00284055
0.00521563
0.0034827
0.00536825
0.00375677
0.00384541
0.00141973
0.00640716
0.00266232
0.00344114
0.000869732
0.00100625
0.000289145
0.00339739
0.00457796
0.00310408
0.00238864
0.00333543
0.00331732
0.000529379
0.00246025
0.00181064
0.00623418
0.00409479
0.00263025
0.00101828
0.00528635
0.00416186
0.00520229
0.000577775
0.00288183
0.00377871
0.0135403
7.65173e-05
0.00944762
0.00191689
0.00660705
0.00104258
0.00125462
0.0035961
0.00128952
0.00483123
0.00585988
0.0029267
0.00409351
0.00388854
0.00172065
0.00225239
0.00486309
0.00178658
0.00197606
0.00344507
0.00429531
0.00520787
0.00134053
0.0106937
0.0022902
0.0016869
0.000638522
0.00491032
0.00548414
6.32115e-05
0.00583115
0.00410655
0.000699023
0.00361006
0.00113169
0.000131317
0.0058193
0.0101644
0.00272332
0.00176538
0.00324575
0.00494783
0.00678767
0.00481771
0.00241588
0.000893573
0.00129994
0.000663198
0.00164533
0.00286404
0.00594287
0.00252523
0.00238866
0.00080555
0.000236224
0.00220113
0.00172707
0.000294665
0.000155026
0.000410532
0.00227823
0.000545091
0.0100339
0.00175165
0.0105397
0.00717977
0.000407123
0.00239997
0.00171992
0.00459761
0.00333212
0.00154759
0.00389761
0.000580199
0.00391281
0.00255732
0.00132464
0.00323752
0.00683408
0.00263733
0.0081781
0.00265791
0.00450481
0.00502135
0.0053388
0.00906325
0.00194394
0.00735114
0.00103009
0.00140259
0.00333559
0.000834707
0.00243204
0.000769961
0.00312134
0.00158639
0.00190706
0.00494903
0.00235174
0.00264289
0.00869787
0.0138092
0.00941459
0.00461899
0.00407117
0.0106934
0.000769166
0.00998066
0.00398351
0.00132773
0.00255914
0.00210594
0.00522427
0.0033428
0.00453762
0.000121321
0.0013328
0.00219744
0.00773694
0.00386669
0.00226653
0.00737884
0.00572323
0.0025165
0.00618083
0.00849394
0.00227558
0.00248629
0.00168477
0.0107654
0.00506496
0.00117443
0.00418257
0.0061529
0.000720194
0.00380626
0.00473261
0.00351633
0.00235243
0.00576166
0.00536847
0.00363627
0.00536568
0.000995471
0.00194217
0.00990099
0.00294205
0.00498208
0.00909069
0.00536754
0.006369
0.00532889
0.000888349
0.00214602
0.00506271
0.000612359
0.00488387
0.00363114
0.00384019
0.00213503
0.00506244
0.00230103
0.00456393
0.00313778
0.00316879
0.00238826
0.00245445
0.00169419
0.00508474
0.00798214
0.00241757
0.00703111
0.00463145
0.00386299
0.00141428
0.000956888
0.00584329
0.00361712
0.00126141
0.00333932
0.00173461
0.00377326
0.00382047
0.000340019
0.00580478
0.000130572
0.00201674
0.00207904
0.00436049
0.00169641
0.00161858
0.00338179
0.00661413
0.0020835
0.00221742
0.000321191
0.000916767
0.00562193
0.000449538
0.00370611
0.00323575
0.000115042
0.0025386
0.00482011
0.00506062
0.000852644
0.0032245
0.0122132
0.000992735
0.00279507
0.00230318
0.00607476
0.00121878
0.00734328
0.000363002
0.00453767
0.00109969
0.00252799
0.0041807
0.00433818
0.00257359
7.48696e-06
8.70252e-05
0.0111262
0.00515876
0.00799939
0.0102745
0.00772442
0.00104481
0.00162716
0.0046907
0.00604322
0.00478475
0.000395876
0.00143508
0.00165761
0.00325012
0.00758266
0.00482708
0.00719694
0.0156604
0.0176001
0.00251029
0.0126507
0.00175356
0.00622982
0.00120769
0.00953041
0.000158458
0.00462819
0.000153545
0.001469
0.00222642
0.000408271
0.00457253
0.00152498
0.00419264
0.000143937
0.0122887
0.000304153
0.00873232
0.000613572
0.00931989
0.00924664
0.00662004
0.00210911
0.0122682
0.0028973
0.00687364
0.0097697
0.00207306
0.00673444
0.00373091
0.000498059
0.000277022
9.91012e-05
0.00111851
0.0132654
0.000752758
0.000886555
0.00360954
0.00627906
0.00732998
0.0067669
0.00504974
0.00239359
0.00176985
0.00376665
0.00203477
0.00893992
0.010633
0.00380998
0.00609859
0.0061139
0.00775587
0.00258478
0.00518415
0.00419714
0.00723582
0.00491158
0.00116484
0.005874
0.00316271
0.000729682
0.00319465
0.00241056
0.00446067
0.0056151
0.00734906
0.00189788
8.00389e-06
0.000905408
0.00314384
0.00405724
0.00159393
0.00235918
0.00968677
0.00563796
0.00436983
0.00917345
0.0010116
0.0101169
0.00142795
0.00424886
0.00981352
0.00163932
0.00456484
0.00227923
0.00184954
0.00025149
0.00468594
0.00345053
0.0104052
0.00184051
0.00533638
0.00209377
0.00169148
0.00635177
0.000701271
0.00755546
0.0038014
0.00085617
0.00684406
0.0057227
0.0094233
0.00632872
0.00216812
0.000802379
0.00269729
0.0077625
0.00662347
0.00600519
0.00696451
0.00419768
0.00407475
0.001966
0.00350084
0.010531
0.00309922
0.00510306
0.0021775
0.00591961
0.00278601
0.0016875
0.00785146
0.00670503
0.00663829
0.00227179
0.00324242
0.00430128
0.00582472
0.00335431
0.00514036
0.00221775
0.00227849
0.00490625
0.00168957
0.00138235
0.00172729
0.00410435
0.000315753
0.000528818
0.000602097
0.0123448
0.0118008
0.00518822
0.00840178
0.00893628
0.00985487
0.00298069
0.000795554
0.0080054
0.00105789
0.00681203
0.00547696
0.00690607
0.00822631
0.00194369
0.0100751
0.00750128
0.0116441
0.0047879
0.00635738
0.00365285
0.00785045
0.0122502
0.00577922
0.00921363
0.00727133
0.00250841
0.00723284
0.00611316
0.00201209
0.00821462
0.00436871
0.000427306
0.00958852
0.00368909
0.00305151
0.0107264
0.0079387
0.00739828
0.000111351
0.00923834
0.00352505
0.00525878
0.0044639
0.00809527
0.0097076
0.00825629
0.0103953
0.00390998
0.00365339
0.00376544
0.00192954
0.00622404
0.0055642
0.00195475
0.00499
0.000617777
0.00613362
0.0113358
0.0126069
0.00818562
0.000505289
0.00504676
0.00801252
0.00900817
0.000380007
0.000240285
0.00346201
0.00267187
0.00671382
0.00169351
0.00103425
0.00718474
0.00656049
0.00371048
0.00951729
0.00308204
0.00755137
0.0059833
0.00342395
0.00531601
0.00075572
0.00379817
0.00888033
0.00203549
0.00496396
0.0145061
0.00499649
0.00345384
0.00227278
0.00204952
0.00171536
0.0056674
0.00462496
0.0049433
0.00704229
0.0031529
0.00165119
0.00434462
0.00374077
0.000948314
0.000298996
0.00440476
0.000394134
0.00187409
0.00195937
0.00155374
0.00972428
0.00126534
0.00436009
0.00466149
0.0037736
0.00158837
0.0031822
0.000294087
0.00180446
0.00715278
0.00636165
0.00377104
0.0107187
0.00257918
0.00821116
0.0012776
0.00275331
0.00804049
0.00277024
0.00741668
0.00757978
0.000344987
0.0129974
0.00480133
0.000412937
0.00406126
0.00144418
0.00683571
0.000673154
0.00254658
0.00695802
0.00366978
0.00066133
0.00370668
0.000910296
0.0150755
0.002146
0.00213738
0.00361223
0.00359053
0.000156937
0.00209892
0.00315822
0.00153437
0.000289681
0.00161631
9.15833e-06
5.45999e-05
0.00364159
0.0061317
0.00080274
0.00607531
0.00664081
0.00561471
0.014944
0.0146479
0.0108285
0.00322986
0.0100946
0.00439337
0.00569045
0.00499127
0.00883517
0.00581795
0.00416697
0.00472357
0.0135022
0.0107657
0.0161818
0.00365814
0.00492944
0.00650989
0.012066
0.00924822
0.00293458
0.00589191
0.00221365
0.00791144
0.00266559
0.0102798
0.00116995
0.00710594
0.000152
0.000197828
0.00147672
0.00114773
0.0155011
3.31541e-05
0.00369403
0.000207069
0.0108959
0.00106841
0.0053065
0.00551129
0.011147
0.00197059
0.0027523
0.00282279
0.00457596
0.00445177
0.00701683
0.0100869
0.00590898
0.00566542
0.000653584
0.000941279
0.00355141
0.00284301
0.000740174
0.0030943
0.00105065
0.00278909
0.0069803
0.00974482
0.0128373
0.0058826
0.00993109
0.00281544
0.00645784
0.00667611
0.00411055
0.00162441
0.00227162
0.000342114
0.00692523
0.00487344
0.00736613
0.00536845
0.00605232
0.00651206
0.00153399
0.009458
0.00698722
0.00513543
0.0102387
0.000426313
0.00697778
0.00136905
0.00228538
0.00321398
0.000878854
0.00237736
0.00256672
0.00241408
0.000524131
0.00371046
0.00419261
0.0056382
0.00682243
0.0111784
0.0037112
0.00523301
0.000555246
0.00916642
0.00877808
0.00486237
0.0140354
0.00127227
0.00755504
0.00360032
0.00165252
0.0108428
0.00288144
0.00110805
0.00342186
0.000650262
0.0027073
0.00205188
0.00559263
0.00419979
0.00340577
0.00376523
0.00806004
0.00264064
0.00195238
0.00240577
0.00372586
0.0027786
0.00186357
0.00211892
0.00703357
0.00893145
0.00573057
0.00203043
0.00362734
0.000168188
0.0012093
0.00230037
0.0022071
0.00341791
0.00616335
0.00156336
0.00486619
0.00842707
0.00314837
0.000979405
0.00104054
0.00841025
0.00720828
0.00844963
0.00109826
0.00171421
0.00524251
0.000607583
0.00450061
0.00134105
0.00740212
0.00736271
0.00583063
0.000493918
0.000654037
0.00665973
0.00233746
0.00692366
0.00497349
0.00685274
0.00265591
0.00410777
0.0162668
0.000304035
0.0108211
0.000413456
0.00415502
0.00826821
0.0100046
0.00777085
0.00965728
0.00739725
0.00720385
0.0125291
0.0108811
0.00867289
0.0068881
0.00923933
0.00123049
0.00594093
0.00158064
0.00191699
0.00253092
0.00724052
0.00113582
0.00168696
0.00182806
0.00115695
0.00239158
6.00907e-05
0.00601108
0.000562492
0.00477582
0.0016729
0.0076644
0.00165135
0.00353407
0.00520497
0.00028395
0.0126106
0.00603978
0.000223542
0.00823435
0.00771113
0.00824132
0.00170747
0.00471957
0.00759923
0.000877469
0.00571909
0.00625467
0.00724738
0.00496564
0.00475818
0.00796736
0.00163107
0.00842362
0.00639533
0.0133255
0.0063381
0.00762173
0.00395571
0.00342966
0.00324133
0.00517052
0.00805527
0.000750794
0.00181835
0.00395088
0.00185689
0.00171243
0.00428784
0.00175518
0.00468123
0.000468822
0.00535648
0.0057986
0.00539091
0.00448585
0.00786993
0.00117845
0.00219437
0.000740914
0.0110251
0.00128706
0.000510443
0.00676107
0.00884697
0.00117528
0.00323144
0.000429951
0.00259962
0.00714225
0.0025668
0.00482291
0.00404352
0.0114219
0.00163969
0.0119723
0.00206545
0.0020684
0.00167518
0.000192827
0.00471343
0.00332354
0.00246415
0.000385526
0.00193945
0.00385589
0.00412827
0.00826416
0.000756351
0.00669972
0.000623135
0.00709187
0.00190573
0.0065207
0.00104896
0.0038465
8.1453e-05
0.000232008
0.000289911
9.37125e-05
0.000155064
0.00577564
0.00337537
0.0017465
0.000457665
0.00658939
0.00474255
0.00536989
0.002586
5.37604e-05
0.000366854
0.00281484
2.48518e-05
0.000943856
0.00633072
0.00509765
0.00399873
0.00355507
0.00149016
0.00623306
0.00848323
0.00358946
0.00673658
0.000833109
0.0125409
0.000286049
0.00283338
0.00425221
0.00319219
0.0038326
0.00192167
0.00146301
0.00209435
0.000436587
0.00848775
0.00890121
0.00562238
0.0118094
0.0108942
0.00262696
0.00624711
0.00395625
0.0111011
0.00670502
0.0112002
0.00665311
0.00769083
0.0040193
0.0121888
0.000844859
0.00785905
0.00740777
0.0118542
0.0136664
0.00253812
0.00897571
0.0114754
0.00995101
0.00816146
0.00169002
0.00673282
0.00634901
0.0110574
0.00398817
0.0085681
0.0036694
0.00527665
0.0121277
0.00248526
0.00495775
0.00338765
0.00223714
0.00374235
0.00558795
0.00219976
0.0100744
0.00398721
0.0100751
0.00577695
0.000420444
0.00230965
0.00992382
0.00702743
0.00826005
0.00653179
0.00564692
0.00169371
0.0106171
0.00977254
0.00773705
0.0123284
0.00602121
0.0100231
0.00200088
0.00280031
0.00472279
0.00503363
0.00504418
0.00186787
0.0021743
0.00629838
0.00153677
0.00757888
0.00578824
0.00478352
0.00241836
0.000892849
0.00157229
0.00304422
0.0064021
0.0100879
0.00675506
0.00795738
0.00781127
0.00414018
0.00442434
0.00287214
0.00423428
0.00114568
0.00821003
0.00236193
0.000470974
0.00294593
0.00449975
0.00276212
0.00404621
2.47866e-05
0.00711658
0.00231651
0.00625751
0.00110481
0.00325921
0.00297638
0.00855933
0.0048334
0.00420001
0.00344735
0.00123009
0.0056663
0.0122976
0.00752534
0.00108611
0.00182629
8.66364e-05
0.00329967
0.00454655
0.00390286
0.00145316
0.00306754
0.00227137
0.00407596
0.0073533
0.00452072
0.0020013
0.00874374
0.0108407
0.00231769
0.00104331
0.00208029
0.0056599
0.00333875
0.00287618
0.0016166
0.0103922
7.92284e-05
0.00296742
0.00239279
0.00384721
0.00398424
0.00595887
0.00194338
0.0013676
0.000595905
0.00321672
0.00506855
0.00556322
0.0062725
0.00205054
0.00862928
0.00446811
0.00033309
0.0042667
0.00231504
0.000170201
0.00457277
0.0023773
0.00729789
0.000272281
0.00233149
0.00240634
0.00351011
0.000585334
0.000306403
0.00382096
0.000901028
0.00748817
0.00485114
0.000237623
0.00391914
0.0021803
0.00565858
0.00954775
0.0111771
0.00721666
0.00945494
0.00990145
0.00531887
0.0036613
0.00279676
0.00824384
0.00624666
0.0033276
0.00131708
0.0022057
0.00621918
0.00318527
0.00946428
0.00102957
0.00132469
0.00159343
0.00598884
0.000775373
0.00498598
0.000695142
0.0010632
0.000291012
0.00208645
0.00690237
0.000323659
0.0061379
5.93135e-05
0.00658518
0.000247765
0.000877167
0.00325493
0.00448338
0.004152
0.00855467
0.00370147
0.00064855
0.00666367
0.0107199
0.00582803
0.00272892
0.0013147
0.00743757
0.00154349
0.0111301
0.00431524
0.00028686
0.00875127
0.00366482
0.00251315
0.00633582
0.00175206
0.00445878
0.0022514
0.00864813
0.00802014
0.0033382
0.000864343
0.00258605
0.00587262
0.00309713
0.00753939
0.00460045
0.00668452
0.00162792
0.00263574
0.00766105
0.00551745
0.00156547
0.000946281
0.000584696
0.00517961
0.00522544
0.00385384
0.00230766
0.00289323
0.000566096
0.00299221
0.00391132
0.00400576
0.00147484
0.00277546
0.00887561
0.00379878
0.00346779
0.00461327
0.0046868
0.00522413
0.00398934
0.00372278
0.00616262
0.00929882
0.001294
0.000998132
0.0011994
0.000831891
0.00131691
0.00301914
0.00507673
0.00626498
0.00115837
0.000934893
0.0058351
0.00819869
0.00707771
0.00488515
0.0121245
0.00345678
0.00247699
0.00718887
0.00125788
0.0016476
0.000720531
0.00460458
4.64362e-05
0.00311468
0.00442427
0.0134946
6.98502e-05
0.00201656
0.00405857
0.000679365
0.000550388
0.00864187
0.00817964
0.00610628
0.000842596
0.00284184
0.00292043
0.0014511
0.00669865
0.00302638
0.00114825
0.00374717
0.00404807
0.00279315
0.00162896
0.00506586
0.00327411
0.00340488
0.00436996
0.000204402
0.011973
0.00606983
0.00154262
0.00441394
0.000967632
0.00346256
0.0112764
0.00183329
0.00351644
0.00419655
0.00558789
0.00318678
0.00274184
0.00649356
0.0032449
0.00188916
0.00337114
0.00553487
0.00687301
0.00736616
0.00275289
0.0124953
0.00187445
0.00630174
0.00134422
0.00514844
0.00415774
0.000395419
0.00031766
0.00135052
0.0029952
0.000285562
0.00154423
0.0145719
0.00231742
0.00475239
0.00823952
0.00554115
0.00163241
0.00413601
0.00726359
0.00505878
0.00130701
0.004672
0.00417562
0.00795563
0.00613832
0.00300297
0.00118718
0.000652119
0.00347554
0.00625996
0.000779103
0.00922243
0.00212083
0.000932849
0.00278188
0.00212553
0.00442018
0.00664377
0.00145947
0.0030018
0.00330857
0.00735791
0.0131279
0.00788722
0.00353325
0.00267458
0.0078235
0.000898652
0.0136604
0.00033474
0.00213461
0.00469695
0.00399917
0.00354959
0.000815216
0.00747108
0.00476938
0.00430248
0.000549088
0.00466599
0.00452049
0.00527303
0.00106652
0.00127711
0.00358216
0.00221368
0.00204257
0.000289926
0.00886363
0.00787034
0.000864254
0.00314
0.00324348
0.00579196
0.00231233
0.00245724
0.00204346
0.00521822
0.00285494
0.00813066
0.0042556
0.00779335
0.00744411
0.00599631
0.00162426
0.000837143
0.00489814
0.000579143
0.000951656
0.000691449
0.00373058
0.00119232
0.004947
0.0117971
0.00954548
0.00397344
0.00368823
0.00223534
0.000236764
0.000524014
0.00195184
0.00292959
0.00501351
0.000508137
0.00403747
0.000719342
0.00455911
0.00486247
0.00372549
0.00104068
0.00456417
0.00233373
0.00479445
0.00327051
0.00256703
0.00545385
0.00208384
0.0127129
0.00473885
0.00403889
0.00441933
0.00181436
0.00785998
0.00298503
0.00516962
0.00243199
0.00293715
0.00139171
0.0038369
0.00329137
0.000242596
0.000196
0.000840793
0.00164534
0.00354964
0.00453628
0.00166154
0.00106176
0.00574981
0.00238675
0.00318858
0.000791526
0.00507647
0.00329649
0.0026806
0.00524932
0.0022021
0.00337535
0.00184111
0.0032993
0.00358165
0.00429909
0.00471718
0.00729494
0.00733902
0.00628554
0.00433258
0.00406518
0.00382515
0.000559039
0.00251735
0.00368189
0.00651391
0.0017457
0.00145265
0.00059601
0.00183976
0.00637421
0.00273524
0.000559142
0.00101156
0.00326482
0.00279359
0.00775294
0.000343255
0.000986289
0.00133188
0.00200227
0.000297742
0.0010479
0.0037488
0.000872746
0.00243879
0.000138175
0.00549622
0.0014994
0.00445278
0.00270223
0.0049438
0.00362189
0.000231697
0.00102468
0.00365552
0.00061721
0.00108367
0.00565982
0.00330592
0.00209132
0.00462325
0.000569806
0.0013865
0.00221139
0.00469594
0.0123311
0.00387137
0.0041544
0.00257205
0.00450803
0.00687762
0.000261599
0.00322353
0.000183081
0.00136135
0.00251007
0.00046672
0.00943194
0.00245684
0.000644309
0.00177774
0.000625087
0.00430872
0.0108013
0.00105856
0.00281661
0.00617459
0.00322075
0.000474588
0.000655145
0.00621056
0.00419426
0.00374548
0.000352711
0.00492236
0.000394939
0.00532496
0.00171932
0.0045663
0.00137786
0.0004756
0.00866
0.00482117
0.00352089
0.0065114
0.00522777
0.00280957
0.0035766
0.00913682
0.00235531
0.00381686
0.00495056
0.00534837
0.00534135
0.000831724
0.000514
0.000170638
0.00031795
0.0042852
0.00313922
0.00637475
0.0133474
0.00254531
0.000288214
0.00163453
0.00217875
0.00262708
0.000487693
0.00226059
0.000937031
0.00305015
0.00458019
0.00122798
0.00502153
0.00229149
0.00433134
0.000816926
0.000912699
0.00535255
0.00189752
0.00164506
0.000416015
0.00103201
0.0128727
0.00135232
0.00480648
0.00417571
0.00181097
0.000108842
0.00100249
0.0026449
0.00201837
0.00609852
0.00675042
0.00287325
0.00409184
0.00419158
0.00364922
0.00294667
0.00361523
0.00783902
0.00205568
0.0038265
0.00448135
0.00261217
0.00532973
0.00494932
0.00617347
0.00420142
0.00556027
0.00513853
0.00328015
0.00133536
0.00156716
0.00323443
0.00164535
0.00213121
0.0112193
0.00265315
0.00145596
0.0071121
0.00152782
0.00509918
5.20137e-05
0.00653516
0.0049934
0.00366165
0.001183
0.00869187
0.00600422
0.00325494
0.00125939
0.00133957
0.000645502
0.00352041
0.00398916
0.00044606
0.00330215
0.00587278
0.00623163
0.00268708
0.00152717
0.00397775
0.00230278
0.00285345
0.00116785
0.00304579
0.00477304
0.00349251
0.00466365
4.36485e-05
0.00363471
0.00382493
0.00205081
0.00412076
0.00674881
0.00348916
0.00339334
0.00685289
0.00219182
3.90708e-06
0.00123307
0.00101968
0.0021361
0.000695572
0.00251999
0.00399372
0.00381322
3.90773e-05
0.002302
0.00056376
0.0100127
0.00744158
0.000103146
0.00274187
0.00444353
0.00214019
0.00695888
0.0039475
0.00492502
0.00019661
0.000129452
0.00206642
0.00185722
0.00931111
0.000641028
0.00119353
0.000781181
0.00926976
0.00999701
0.00477163
0.00446478
0.00796139
0.00221092
0.00317348
0.00302779
0.00238168
0.000136461
0.00145918
0.000194305
0.00499836
0.00524434
0.00625683
9.06723e-05
0.00644033
2.76588e-05
0.0018992
0.00312487
0.00579275
0.00411023
0.0031971
0.00614264
0.00202703
0.000560746
0.00231644
0.00349041
0.00644893
0.000273311
0.00178359
0.00292885
0.00564402
0.00183425
0.00119402
4.58842e-05
0.00138388
0.00353885
0.00347518
0.00273988
0.000108871
0.0065603
0.00412219
0.000855684
0.00171217
0.00651517
0.00615942
0.00316162
0.00277407
0.00248796
0.0034126
0.00662964
0.00345925
0.000287775
0.00168564
0.00632194
0.000293747
0.00635282
0.0053265
0.00685853
0.00559793
0.00191923
0.00472899
0.00637849
0.00548144
0.00404422
0.00169079
0.00542895
0.00158441
0.00566036
0.0043379
0.00169211
0.00137888
0.00040978
0.000156621
0.000589551
0.0017007
0.00375064
0.000859794
0.00638092
0.00346796
0.00688153
0.0127283
0.00296863
0.00406381
0.00966819
0.0025364
0.000725887
0.00101245
0.000981879
0.00138345
0.0028811
0.00013112
0.0107932
0.000247354
7.83909e-05
0.00238968
0.00347663
0.00577441
0.00485486
0.00873183
0.00504017
0.00224719
0.00704397
0.00140475
0.000217441
0.00149785
0.000191387
0.00118574
0.00104225
0.000210387
0.000629197
0.00203897
0.000121519
0.00541571
0.00017206
0.00351867
0.00111387
0.00909838
0.000778482
0.00301124
0.00206342
0.00701252
0.01071
0.00955326
0.00396593
0.00165955
0.00725236
0.00430783
0.00318932
0.00220468
0.000675221
0.00524508
0.00193234
0.00568402
0.00213998
0.00173784
0.00410877
0.00371021
0.00314036
0.0123856
0.00431926
0.00347852
0.00491323
0.00508107
0.00858453
0.00637522
0.00484279
0.0116774
7.53882e-05
0.00114892
0.00201232
0.00271284
0.00430178
0.00211878
0.000493284
0.00411573
0.00356513
0.00429685
0.0118415
0.00901988
0.00754199
0.0054811
0.00448387
0.00363703
0.00357838
0.00837977
0.00537059
0.00429201
0.00415443
0.00363309
0.00273035
0.00034954
0.000647723
0.00730913
0.00205011
0.00564067
0.00807404
0.00755126