/*--------------------------------*- C++ -*----------------------------------*\
| =========                 |                                                 |
| \\      /  F ield         | OpenFOAM: The Open Source CFD Toolbox           |
|  \\    /   O peration     | Version:  2212                                  |
|   \\  /    A nd           | Website:  www.openfoam.com                      |
|    \\/     M anipulation  |                                                 |
\*---------------------------------------------------------------------------*/
FoamFile
{
    version     2.0;
    format      ascii;
    arch        "LSB;label=32;scalar=64";
    class       volScalarField;
    location    "0";
    object      Ttrue;
}
// * * * * * * * * * * * * * * * * * * * * * * * * * * * * * * * * * * * * * //

dimensions      [0 0 0 1 0 0 0];

internalField   nonuniform List<scalar> 
3200
(
349.498
350.089
350.843
351.665
352.512
353.344
354.111
354.759
355.23
355.48
355.48
355.23
354.759
354.111
353.344
352.512
351.665
350.843
350.089
349.498
342.95
343.45
344.101
344.813
345.545
346.265
346.928
347.487
347.895
348.11
348.11
347.895
347.487
346.928
346.265
345.545
344.813
344.101
343.45
342.95
336.382
336.797
337.345
337.946
338.565
339.173
339.733
340.205
340.549
340.73
340.73
340.549
340.205
339.733
339.173
338.565
337.946
337.345
336.797
336.382
329.795
330.129
330.576
331.068
331.574
332.07
332.528
332.913
333.194
333.342
333.342
333.194
332.913
332.528
332.07
331.574
331.068
330.576
330.129
329.795
323.195
323.451
323.798
324.18
324.573
324.959
325.314
325.614
325.832
325.947
325.947
325.832
325.614
325.314
324.959
324.573
324.18
323.798
323.451
323.195
316.584
316.765
317.012
317.285
317.566
317.841
318.095
318.309
318.464
318.546
318.546
318.464
318.309
318.095
317.841
317.566
317.285
317.012
316.765
316.584
309.965
310.073
310.221
310.385
310.553
310.719
310.871
310.999
311.093
311.142
311.142
311.093
310.999
310.871
310.719
310.553
310.385
310.221
310.073
309.965
303.341
303.377
303.427
303.481
303.538
303.593
303.644
303.687
303.719
303.735
303.735
303.719
303.687
303.644
303.593
303.538
303.481
303.427
303.377
303.341
349.672
350.258
351.006
351.821
352.659
353.481
354.239
354.879
355.345
355.591
355.591
355.345
354.879
354.239
353.481
352.659
351.821
351.006
350.258
349.672
343.101
343.597
344.242
344.947
345.673
346.384
347.039
347.592
347.994
348.207
348.207
347.994
347.592
347.039
346.384
345.673
344.947
344.242
343.597
343.101
336.509
336.921
337.464
338.06
338.673
339.274
339.827
340.294
340.633
340.812
340.812
340.633
340.294
339.827
339.274
338.673
338.06
337.464
336.921
336.509
329.9
330.231
330.674
331.161
331.662
332.153
332.605
332.986
333.263
333.409
333.409
333.263
332.986
332.605
332.153
331.662
331.161
330.674
330.231
329.9
323.276
323.531
323.874
324.252
324.642
325.023
325.375
325.671
325.886
325.999
325.999
325.886
325.671
325.375
325.023
324.642
324.252
323.874
323.531
323.276
316.642
316.822
317.067
317.337
317.615
317.887
318.138
318.349
318.503
318.584
318.584
318.503
318.349
318.138
317.887
317.615
317.337
317.067
316.822
316.642
309.999
310.107
310.254
310.416
310.583
310.746
310.897
311.024
311.116
311.164
311.164
311.116
311.024
310.897
310.746
310.583
310.416
310.254
310.107
309.999
303.352
303.388
303.438
303.492
303.548
303.603
303.653
303.696
303.726
303.743
303.743
303.726
303.696
303.653
303.603
303.548
303.492
303.438
303.388
303.352
350.021
350.598
351.333
352.132
352.954
353.758
354.499
355.123
355.577
355.816
355.816
355.577
355.123
354.499
353.758
352.954
352.132
351.333
350.598
350.021
343.403
343.892
344.526
345.217
345.928
346.624
347.265
347.804
348.196
348.403
348.403
348.196
347.804
347.265
346.624
345.928
345.217
344.526
343.892
343.403
336.765
337.17
337.704
338.289
338.89
339.477
340.018
340.473
340.804
340.979
340.979
340.804
340.473
340.018
339.477
338.89
338.289
337.704
337.17
336.765
330.109
330.435
330.871
331.348
331.839
332.32
332.762
333.133
333.403
333.546
333.546
333.403
333.133
332.762
332.32
331.839
331.348
330.871
330.435
330.109
323.439
323.689
324.027
324.398
324.78
325.153
325.497
325.785
325.995
326.106
326.106
325.995
325.785
325.497
325.153
324.78
324.398
324.027
323.689
323.439
316.758
316.935
317.176
317.441
317.714
317.98
318.225
318.431
318.581
318.66
318.66
318.581
318.431
318.225
317.98
317.714
317.441
317.176
316.935
316.758
310.069
310.175
310.319
310.478
310.642
310.802
310.949
311.073
311.163
311.21
311.21
311.163
311.073
310.949
310.802
310.642
310.478
310.319
310.175
310.069
303.376
303.411
303.46
303.513
303.568
303.621
303.671
303.712
303.742
303.758
303.758
303.742
303.712
303.671
303.621
303.568
303.513
303.46
303.411
303.376
350.545
351.109
351.826
352.603
353.4
354.179
354.894
355.496
355.933
356.163
356.163
355.933
355.496
354.894
354.179
353.4
352.603
351.826
351.109
350.545
343.858
344.335
344.953
345.626
346.316
346.989
347.608
348.128
348.506
348.704
348.704
348.506
348.128
347.608
346.989
346.316
345.626
344.953
344.335
343.858
337.149
337.545
338.066
338.634
339.218
339.787
340.309
340.748
341.067
341.235
341.235
341.067
340.748
340.309
339.787
339.218
338.634
338.066
337.545
337.149
330.423
330.742
331.166
331.631
332.108
332.573
333
333.359
333.619
333.756
333.756
333.619
333.359
333
332.573
332.108
331.631
331.166
330.742
330.423
323.683
323.928
324.257
324.618
324.989
325.351
325.682
325.961
326.163
326.269
326.269
326.163
325.961
325.682
325.351
324.989
324.618
324.257
323.928
323.683
316.933
317.106
317.34
317.598
317.863
318.121
318.358
318.557
318.701
318.777
318.777
318.701
318.557
318.358
318.121
317.863
317.598
317.34
317.106
316.933
310.174
310.277
310.418
310.573
310.732
310.887
311.029
311.148
311.235
311.28
311.28
311.235
311.148
311.029
310.887
310.732
310.573
310.418
310.277
310.174
303.411
303.446
303.493
303.545
303.598
303.65
303.697
303.737
303.766
303.782
303.782
303.766
303.737
303.697
303.65
303.598
303.545
303.493
303.446
303.411
351.248
351.794
352.487
353.237
354.003
354.75
355.433
356.007
356.422
356.641
356.641
356.422
356.007
355.433
354.75
354.003
353.237
352.487
351.794
351.248
344.466
344.928
345.526
346.175
346.839
347.484
348.076
348.572
348.931
349.12
349.12
348.931
348.572
348.076
347.484
346.839
346.175
345.526
344.928
344.466
337.664
338.047
338.551
339.1
339.66
340.206
340.706
341.124
341.427
341.587
341.587
341.427
341.124
340.706
340.206
339.66
339.1
338.551
338.047
337.664
330.844
331.153
331.564
332.012
332.47
332.917
333.325
333.667
333.914
334.045
334.045
333.914
333.667
333.325
332.917
332.47
332.012
331.564
331.153
330.844
324.011
324.248
324.566
324.915
325.271
325.618
325.935
326.201
326.393
326.494
326.494
326.393
326.201
325.935
325.618
325.271
324.915
324.566
324.248
324.011
317.167
317.334
317.561
317.81
318.065
318.312
318.539
318.728
318.866
318.938
318.938
318.866
318.728
318.539
318.312
318.065
317.81
317.561
317.334
317.167
310.315
310.415
310.551
310.7
310.853
311.002
311.138
311.252
311.334
311.377
311.377
311.334
311.252
311.138
311.002
310.853
310.7
310.551
310.415
310.315
303.458
303.492
303.537
303.587
303.638
303.688
303.734
303.772
303.8
303.814
303.814
303.8
303.772
303.734
303.688
303.638
303.587
303.537
303.492
303.458
352.13
352.656
353.321
354.038
354.768
355.477
356.124
356.665
357.056
357.261
357.261
357.056
356.665
356.124
355.477
354.768
354.038
353.321
352.656
352.13
345.23
345.675
346.249
346.87
347.502
348.115
348.675
349.143
349.481
349.659
349.659
349.481
349.143
348.675
348.115
347.502
346.87
346.249
345.675
345.23
338.31
338.679
339.163
339.688
340.222
340.74
341.213
341.608
341.894
342.044
342.044
341.894
341.608
341.213
340.74
340.222
339.688
339.163
338.679
338.31
331.373
331.67
332.065
332.493
332.93
333.354
333.741
334.063
334.297
334.419
334.419
334.297
334.063
333.741
333.354
332.93
332.493
332.065
331.67
331.373
324.422
324.65
324.956
325.289
325.629
325.959
326.259
326.51
326.691
326.786
326.786
326.691
326.51
326.259
325.959
325.629
325.289
324.956
324.65
324.422
317.46
317.622
317.84
318.078
318.321
318.556
318.77
318.949
319.079
319.147
319.147
319.079
318.949
318.77
318.556
318.321
318.078
317.84
317.622
317.46
310.491
310.587
310.718
310.861
311.007
311.148
311.277
311.384
311.462
311.503
311.503
311.462
311.384
311.277
311.148
311.007
310.861
310.718
310.587
310.491
303.517
303.549
303.593
303.641
303.69
303.737
303.78
303.816
303.843
303.856
303.856
303.843
303.816
303.78
303.737
303.69
303.641
303.593
303.549
303.517
353.194
353.697
354.331
355.011
355.702
356.368
356.975
357.48
357.845
358.036
358.036
357.845
357.48
356.975
356.368
355.702
355.011
354.331
353.697
353.194
346.153
346.578
347.125
347.714
348.312
348.889
349.414
349.851
350.166
350.332
350.332
350.166
349.851
349.414
348.889
348.312
347.714
347.125
346.578
346.153
339.09
339.443
339.904
340.402
340.907
341.395
341.839
342.208
342.475
342.614
342.614
342.475
342.208
341.839
341.395
340.907
340.402
339.904
339.443
339.09
332.011
332.295
332.671
333.078
333.491
333.89
334.253
334.555
334.772
334.886
334.886
334.772
334.555
334.253
333.89
333.491
333.078
332.671
332.295
332.011
324.919
325.137
325.428
325.744
326.066
326.376
326.658
326.892
327.061
327.15
327.15
327.061
326.892
326.658
326.376
326.066
325.744
325.428
325.137
324.919
317.815
317.969
318.177
318.403
318.633
318.854
319.056
319.223
319.344
319.407
319.407
319.344
319.223
319.056
318.854
318.633
318.403
318.177
317.969
317.815
310.704
310.796
310.921
311.056
311.194
311.327
311.448
311.549
311.621
311.659
311.659
311.621
311.549
311.448
311.327
311.194
311.056
310.921
310.796
310.704
303.589
303.619
303.661
303.707
303.753
303.797
303.838
303.872
303.896
303.909
303.909
303.896
303.872
303.838
303.797
303.753
303.707
303.661
303.619
303.589
354.444
354.921
355.521
356.163
356.81
357.433
357.997
358.465
358.802
358.978
358.978
358.802
358.465
357.997
357.433
356.81
356.163
355.521
354.921
354.444
347.235
347.639
348.157
348.712
349.273
349.812
350.3
350.705
350.997
351.149
351.149
350.997
350.705
350.3
349.812
349.273
348.712
348.157
347.639
347.235
340.006
340.341
340.778
341.247
341.721
342.177
342.59
342.932
343.178
343.307
343.307
343.178
342.932
342.59
342.177
341.721
341.247
340.778
340.341
340.006
332.76
333.03
333.386
333.77
334.158
334.53
334.868
335.148
335.349
335.454
335.454
335.349
335.148
334.868
334.53
334.158
333.77
333.386
333.03
332.76
325.501
325.708
325.984
326.283
326.584
326.874
327.136
327.354
327.51
327.592
327.592
327.51
327.354
327.136
326.874
326.584
326.283
325.984
325.708
325.501
318.231
318.378
318.575
318.788
319.003
319.21
319.398
319.553
319.664
319.723
319.723
319.664
319.553
319.398
319.21
319.003
318.788
318.575
318.378
318.231
310.954
311.042
311.16
311.288
311.417
311.541
311.654
311.747
311.814
311.849
311.849
311.814
311.747
311.654
311.541
311.417
311.288
311.16
311.042
310.954
303.672
303.702
303.741
303.784
303.827
303.869
303.907
303.938
303.961
303.972
303.972
303.961
303.938
303.907
303.869
303.827
303.784
303.741
303.702
303.672
355.881
356.332
356.896
357.497
358.1
358.678
359.198
359.629
359.937
360.099
360.099
359.937
359.629
359.198
358.678
358.1
357.497
356.896
356.332
355.881
348.48
348.862
349.349
349.869
350.391
350.892
351.342
351.715
351.982
352.121
352.121
351.982
351.715
351.342
350.892
350.391
349.869
349.349
348.862
348.48
341.06
341.376
341.787
342.226
342.668
343.091
343.472
343.787
344.013
344.131
344.131
344.013
343.787
343.472
343.091
342.668
342.226
341.787
341.376
341.06
333.622
333.877
334.212
334.571
334.933
335.279
335.59
335.848
336.032
336.128
336.128
336.032
335.848
335.59
335.279
334.933
334.571
334.212
333.877
333.622
326.172
326.367
326.627
326.906
327.187
327.456
327.699
327.899
328.042
328.117
328.117
328.042
327.899
327.699
327.456
327.187
326.906
326.627
326.367
326.172
318.71
318.849
319.034
319.233
319.434
319.626
319.8
319.942
320.045
320.098
320.098
320.045
319.942
319.8
319.626
319.434
319.233
319.034
318.849
318.71
311.242
311.324
311.435
311.555
311.676
311.791
311.895
311.981
312.043
312.075
312.075
312.043
311.981
311.895
311.791
311.676
311.555
311.435
311.324
311.242
303.769
303.797
303.834
303.874
303.914
303.953
303.988
304.017
304.037
304.048
304.048
304.037
304.017
303.988
303.953
303.914
303.874
303.834
303.797
303.769
357.508
357.932
358.46
359.02
359.578
360.11
360.588
360.981
361.262
361.408
361.408
361.262
360.981
360.588
360.11
359.578
359.02
358.46
357.932
357.508
349.89
350.249
350.705
351.189
351.673
352.134
352.547
352.888
353.131
353.258
353.258
353.131
352.888
352.547
352.134
351.673
351.189
350.705
350.249
349.89
342.253
342.55
342.934
343.344
343.753
344.143
344.492
344.78
344.986
345.093
345.093
344.986
344.78
344.492
344.143
343.753
343.344
342.934
342.55
342.253
334.598
334.838
335.151
335.486
335.821
336.14
336.425
336.661
336.829
336.917
336.917
336.829
336.661
336.425
336.14
335.821
335.486
335.151
334.838
334.598
326.931
327.115
327.358
327.618
327.878
328.126
328.349
328.532
328.662
328.73
328.73
328.662
328.532
328.349
328.126
327.878
327.618
327.358
327.115
326.931
319.253
319.383
319.556
319.742
319.928
320.105
320.264
320.395
320.488
320.537
320.537
320.488
320.395
320.264
320.105
319.928
319.742
319.556
319.383
319.253
311.568
311.645
311.749
311.861
311.973
312.079
312.174
312.253
312.309
312.338
312.338
312.309
312.253
312.174
312.079
311.973
311.861
311.749
311.645
311.568
303.878
303.904
303.939
303.976
304.014
304.049
304.081
304.108
304.126
304.136
304.136
304.126
304.108
304.081
304.049
304.014
303.976
303.939
303.904
303.878
359.329
359.726
360.217
360.735
361.25
361.737
362.173
362.53
362.784
362.917
362.917
362.784
362.53
362.173
361.737
361.25
360.735
360.217
359.726
359.329
351.468
351.804
352.228
352.676
353.122
353.545
353.922
354.231
354.451
354.566
354.566
354.451
354.231
353.922
353.545
353.122
352.676
352.228
351.804
351.468
343.587
343.866
344.223
344.602
344.98
345.337
345.656
345.918
346.104
346.201
346.201
346.104
345.918
345.656
345.337
344.98
344.602
344.223
343.866
343.587
335.69
335.914
336.206
336.516
336.825
337.117
337.378
337.592
337.744
337.823
337.823
337.744
337.592
337.378
337.117
336.825
336.516
336.206
335.914
335.69
327.78
327.952
328.178
328.419
328.66
328.887
329.09
329.256
329.375
329.436
329.436
329.375
329.256
329.09
328.887
328.66
328.419
328.178
327.952
327.78
319.86
319.981
320.143
320.315
320.487
320.649
320.794
320.913
320.997
321.041
321.041
320.997
320.913
320.794
320.649
320.487
320.315
320.143
319.981
319.86
311.932
312.005
312.102
312.205
312.308
312.406
312.493
312.564
312.615
312.641
312.641
312.615
312.564
312.493
312.406
312.308
312.205
312.102
312.005
311.932
304
304.025
304.057
304.092
304.126
304.159
304.188
304.212
304.229
304.238
304.238
304.229
304.212
304.188
304.159
304.126
304.092
304.057
304.025
304
361.345
361.715
362.17
362.648
363.12
363.565
363.96
364.283
364.512
364.631
364.631
364.512
364.283
363.96
363.565
363.12
362.648
362.17
361.715
361.345
353.215
353.528
353.921
354.334
354.743
355.129
355.471
355.751
355.949
356.052
356.052
355.949
355.751
355.471
355.129
354.743
354.334
353.921
353.528
353.215
345.065
345.324
345.656
346.006
346.352
346.678
346.968
347.204
347.372
347.459
347.459
347.372
347.204
346.968
346.678
346.352
346.006
345.656
345.324
345.065
336.9
337.108
337.378
337.664
337.948
338.214
338.451
338.645
338.782
338.854
338.854
338.782
338.645
338.451
338.214
337.948
337.664
337.378
337.108
336.9
328.721
328.881
329.091
329.313
329.533
329.741
329.925
330.076
330.182
330.238
330.238
330.182
330.076
329.925
329.741
329.533
329.313
329.091
328.881
328.721
320.532
320.645
320.795
320.954
321.111
321.259
321.391
321.499
321.575
321.614
321.614
321.575
321.499
321.391
321.259
321.111
320.954
320.795
320.645
320.532
312.336
312.403
312.493
312.589
312.683
312.772
312.851
312.916
312.962
312.986
312.986
312.962
312.916
312.851
312.772
312.683
312.589
312.493
312.403
312.336
304.136
304.158
304.188
304.22
304.252
304.282
304.308
304.33
304.345
304.353
304.353
304.345
304.33
304.308
304.282
304.252
304.22
304.188
304.158
304.136
363.559
363.901
364.322
364.761
365.192
365.596
365.953
366.244
366.45
366.556
366.556
366.45
366.244
365.953
365.596
365.192
364.761
364.322
363.901
363.559
355.133
355.422
355.786
356.166
356.539
356.89
357.199
357.451
357.629
357.722
357.722
357.629
357.451
357.199
356.89
356.539
356.166
355.786
355.422
355.133
346.688
346.928
347.234
347.555
347.872
348.168
348.43
348.643
348.794
348.872
348.872
348.794
348.643
348.43
348.168
347.872
347.555
347.234
346.928
346.688
338.227
338.42
338.67
338.933
339.191
339.434
339.648
339.823
339.946
340.01
340.01
339.946
339.823
339.648
339.434
339.191
338.933
338.67
338.42
338.227
329.753
329.902
330.095
330.3
330.501
330.69
330.857
330.992
331.088
331.138
331.138
331.088
330.992
330.857
330.69
330.501
330.3
330.095
329.902
329.753
321.27
321.375
321.513
321.659
321.803
321.937
322.057
322.154
322.222
322.258
322.258
322.222
322.154
322.057
321.937
321.803
321.659
321.513
321.375
321.27
312.779
312.842
312.924
313.012
313.099
313.18
313.251
313.309
313.351
313.372
313.372
313.351
313.309
313.251
313.18
313.099
313.012
312.924
312.842
312.779
304.284
304.305
304.333
304.362
304.391
304.418
304.442
304.462
304.476
304.483
304.483
304.476
304.462
304.442
304.418
304.391
304.362
304.333
304.305
304.284
365.969
366.285
366.673
367.074
367.467
367.833
368.155
368.416
368.6
368.696
368.696
368.6
368.416
368.155
367.833
367.467
367.074
366.673
366.285
365.969
357.221
357.489
357.823
358.171
358.511
358.829
359.108
359.334
359.494
359.576
359.576
359.494
359.334
359.108
358.829
358.511
358.171
357.823
357.489
357.221
348.454
348.676
348.958
349.252
349.54
349.809
350.045
350.237
350.372
350.442
350.442
350.372
350.237
350.045
349.809
349.54
349.252
348.958
348.676
348.454
339.672
339.851
340.08
340.321
340.557
340.777
340.97
341.127
341.237
341.294
341.294
341.237
341.127
340.97
340.777
340.557
340.321
340.08
339.851
339.672
330.877
331.014
331.192
331.38
331.563
331.734
331.885
332.007
332.092
332.137
332.137
332.092
332.007
331.885
331.734
331.563
331.38
331.192
331.014
330.877
322.073
322.17
322.297
322.43
322.562
322.684
322.791
322.878
322.94
322.972
322.972
322.94
322.878
322.791
322.684
322.562
322.43
322.297
322.17
322.073
313.261
313.319
313.395
313.476
313.554
313.628
313.692
313.745
313.782
313.801
313.801
313.782
313.745
313.692
313.628
313.554
313.476
313.395
313.319
313.261
304.446
304.465
304.491
304.518
304.544
304.569
304.59
304.608
304.62
304.627
304.627
304.62
304.608
304.59
304.569
304.544
304.518
304.491
304.465
304.446
368.572
368.865
369.22
369.587
369.944
370.274
370.564
370.798
370.963
371.048
371.048
370.963
370.798
370.564
370.274
369.944
369.587
369.22
368.865
368.572
359.476
359.723
360.03
360.348
360.657
360.944
361.195
361.398
361.54
361.614
361.614
361.54
361.398
361.195
360.944
360.657
360.348
360.03
359.723
359.476
350.361
350.566
350.825
351.094
351.355
351.598
351.811
351.982
352.103
352.166
352.166
352.103
351.982
351.811
351.598
351.355
351.094
350.825
350.566
350.361
341.232
341.396
341.607
341.827
342.042
342.24
342.414
342.555
342.654
342.705
342.705
342.654
342.555
342.414
342.24
342.042
341.827
341.607
341.396
341.232
332.09
332.216
332.38
332.551
332.718
332.873
333.008
333.117
333.194
333.234
333.234
333.194
333.117
333.008
332.873
332.718
332.551
332.38
332.216
332.09
322.939
323.028
323.145
323.267
323.387
323.497
323.594
323.672
323.727
323.755
323.755
323.727
323.672
323.594
323.497
323.387
323.267
323.145
323.028
322.939
313.782
313.835
313.905
313.978
314.05
314.116
314.174
314.221
314.254
314.271
314.271
314.254
314.221
314.174
314.116
314.05
313.978
313.905
313.835
313.782
304.62
304.638
304.661
304.686
304.71
304.732
304.752
304.768
304.779
304.784
304.784
304.779
304.768
304.752
304.732
304.71
304.686
304.661
304.638
304.62
371.359
371.628
371.954
372.288
372.612
372.91
373.17
373.38
373.526
373.602
373.602
373.526
373.38
373.17
372.91
372.612
372.288
371.954
371.628
371.359
361.888
362.115
362.396
362.686
362.966
363.225
363.451
363.633
363.76
363.825
363.825
363.76
363.633
363.451
363.225
362.966
362.686
362.396
362.115
361.888
352.399
352.588
352.825
353.07
353.308
353.527
353.718
353.872
353.979
354.035
354.035
353.979
353.872
353.718
353.527
353.308
353.07
352.825
352.588
352.399
342.898
343.049
343.243
343.443
343.637
343.817
343.973
344.099
344.187
344.233
344.233
344.187
344.099
343.973
343.817
343.637
343.443
343.243
343.049
342.898
333.385
333.501
333.651
333.807
333.958
334.098
334.22
334.318
334.386
334.422
334.422
334.386
334.318
334.22
334.098
333.958
333.807
333.651
333.501
333.385
323.864
323.946
324.053
324.164
324.273
324.372
324.459
324.529
324.578
324.604
324.604
324.578
324.529
324.459
324.372
324.273
324.164
324.053
323.946
323.864
314.337
314.386
314.45
314.517
314.582
314.642
314.694
314.736
314.766
314.781
314.781
314.766
314.736
314.694
314.642
314.582
314.517
314.45
314.386
314.337
304.806
304.823
304.844
304.867
304.888
304.908
304.926
304.94
304.95
304.955
304.955
304.95
304.94
304.926
304.908
304.888
304.867
304.844
304.823
304.806
374.299
374.546
374.844
375.149
375.442
375.711
375.945
376.132
376.263
376.331
376.331
376.263
376.132
375.945
375.711
375.442
375.149
374.844
374.546
374.299
364.427
364.636
364.893
365.158
365.412
365.645
365.848
366.011
366.124
366.183
366.183
366.124
366.011
365.848
365.645
365.412
365.158
364.893
364.636
364.427
354.542
354.715
354.932
355.156
355.371
355.569
355.741
355.878
355.975
356.024
356.024
355.975
355.878
355.741
355.569
355.371
355.156
354.932
354.715
354.542
344.646
344.786
344.963
345.145
345.322
345.484
345.625
345.737
345.816
345.857
345.857
345.816
345.737
345.625
345.484
345.322
345.145
344.963
344.786
344.646
334.742
334.849
334.987
335.129
335.266
335.392
335.502
335.589
335.651
335.682
335.682
335.651
335.589
335.502
335.392
335.266
335.129
334.987
334.849
334.742
324.832
324.908
325.006
325.107
325.206
325.296
325.374
325.437
325.481
325.503
325.503
325.481
325.437
325.374
325.296
325.206
325.107
325.006
324.908
324.832
314.918
314.963
315.022
315.083
315.142
315.196
315.243
315.281
315.307
315.32
315.32
315.307
315.281
315.243
315.196
315.142
315.083
315.022
314.963
314.918
305.001
305.016
305.036
305.056
305.076
305.094
305.11
305.122
305.131
305.136
305.136
305.131
305.122
305.11
305.094
305.076
305.056
305.036
305.016
305.001
377.315
377.542
377.815
378.093
378.36
378.603
378.814
378.982
379.099
379.159
379.159
379.099
378.982
378.814
378.603
378.36
378.093
377.815
377.542
377.315
367.021
367.213
367.449
367.69
367.921
368.132
368.315
368.461
368.563
368.615
368.615
368.563
368.461
368.315
368.132
367.921
367.69
367.449
367.213
367.021
356.721
356.881
357.08
357.284
357.48
357.659
357.814
357.937
358.023
358.068
358.068
358.023
357.937
357.814
357.659
357.48
357.284
357.08
356.881
356.721
346.418
346.547
346.709
346.876
347.037
347.183
347.31
347.412
347.482
347.519
347.519
347.482
347.412
347.31
347.183
347.037
346.876
346.709
346.547
346.418
336.114
336.212
336.339
336.469
336.593
336.708
336.806
336.885
336.94
336.969
336.969
336.94
336.885
336.806
336.708
336.593
336.469
336.339
336.212
336.114
325.808
325.878
325.968
326.061
326.15
326.232
326.303
326.359
326.398
326.419
326.419
326.398
326.359
326.303
326.232
326.15
326.061
325.968
325.878
325.808
315.503
315.544
315.598
315.654
315.708
315.757
315.799
315.833
315.857
315.869
315.869
315.857
315.833
315.799
315.757
315.708
315.654
315.598
315.544
315.503
305.197
305.211
305.229
305.247
305.265
305.282
305.296
305.307
305.315
305.319
305.319
305.315
305.307
305.296
305.282
305.265
305.247
305.229
305.211
305.197
380.213
380.423
380.675
380.931
381.174
381.396
381.587
381.739
381.845
381.9
381.9
381.845
381.739
381.587
381.396
381.174
380.931
380.675
380.423
380.213
369.483
369.661
369.879
370.1
370.312
370.505
370.671
370.803
370.895
370.943
370.943
370.895
370.803
370.671
370.505
370.312
370.1
369.879
369.661
369.483
358.768
358.915
359.099
359.287
359.467
359.63
359.771
359.884
359.962
360.002
360.002
359.962
359.884
359.771
359.63
359.467
359.287
359.099
358.915
358.768
348.067
348.186
348.337
348.491
348.638
348.772
348.888
348.98
349.044
349.077
349.077
349.044
348.98
348.888
348.772
348.638
348.491
348.337
348.186
348.067
337.381
337.472
337.589
337.709
337.824
337.928
338.018
338.09
338.14
338.166
338.166
338.14
338.09
338.018
337.928
337.824
337.709
337.589
337.472
337.381
326.705
326.77
326.853
326.939
327.021
327.096
327.16
327.212
327.248
327.266
327.266
327.248
327.212
327.16
327.096
327.021
326.939
326.853
326.77
326.705
316.038
316.076
316.126
316.178
316.227
316.272
316.311
316.342
316.364
316.375
316.375
316.364
316.342
316.311
316.272
316.227
316.178
316.126
316.076
316.038
305.375
305.388
305.405
305.422
305.439
305.454
305.467
305.477
305.485
305.488
305.488
305.485
305.477
305.467
305.454
305.439
305.422
305.405
305.388
305.375
382.483
382.681
382.918
383.158
383.385
383.592
383.77
383.911
384.009
384.06
384.06
384.009
383.911
383.77
383.592
383.385
383.158
382.918
382.681
382.483
371.338
371.506
371.711
371.92
372.119
372.299
372.454
372.578
372.663
372.707
372.707
372.663
372.578
372.454
372.299
372.119
371.92
371.711
371.506
371.338
360.262
360.402
360.576
360.753
360.922
361.076
361.208
361.313
361.386
361.423
361.423
361.386
361.313
361.208
361.076
360.922
360.753
360.576
360.402
360.262
349.242
349.355
349.497
349.643
349.782
349.908
350.017
350.103
350.163
350.193
350.193
350.163
350.103
350.017
349.908
349.782
349.643
349.497
349.355
349.242
338.266
338.353
338.464
338.577
338.686
338.784
338.869
338.936
338.983
339.007
339.007
338.983
338.936
338.869
338.784
338.686
338.577
338.464
338.353
338.266
327.323
327.385
327.464
327.545
327.623
327.694
327.754
327.802
327.836
327.853
327.853
327.836
327.802
327.754
327.694
327.623
327.545
327.464
327.385
327.323
316.404
316.44
316.488
316.537
316.583
316.626
316.662
316.691
316.712
316.722
316.722
316.712
316.691
316.662
316.626
316.583
316.537
316.488
316.44
316.404
305.497
305.509
305.525
305.542
305.557
305.572
305.584
305.594
305.6
305.604
305.604
305.6
305.594
305.584
305.572
305.557
305.542
305.525
305.509
305.497
)
;

boundaryField
{
    hotSide
    {
        type            fixedGradient;
        gradient        nonuniform List<scalar> 
400
(
521.837
523.703
527.44
533.062
540.585
550.032
561.428
574.799
590.176
607.585
627.054
648.61
672.276
698.073
726.02
756.133
788.425
822.907
859.589
898.475
529.613
531.417
535.034
540.479
547.777
556.956
568.05
581.094
596.125
613.178
632.288
653.488
676.804
702.264
729.888
759.695
791.699
825.912
862.343
900.998
538.028
539.759
543.231
548.468
555.499
564.364
575.105
587.768
602.4
619.046
637.748
658.546
681.474
706.561
733.831
763.305
794.999
828.924
865.089
903.5
546.943
548.589
551.894
556.888
563.612
572.115
582.453
594.685
608.869
625.061
643.313
663.672
686.177
710.863
737.756
766.878
798.246
831.872
867.763
905.924
556.109
557.658
560.775
565.498
571.88
579.982
589.877
601.638
615.337
631.041
648.813
668.708
690.771
715.04
741.545
770.308
801.347
834.672
870.291
908.205
565.144
566.59
569.506
573.94
579.958
587.639
597.069
608.34
621.537
636.742
654.027
673.455
695.076
718.933
745.057
773.471
804.192
837.229
872.587
910.268
573.53
574.873
577.589
581.736
587.394
594.659
603.635
614.43
627.143
641.87
658.692
677.679
698.888
722.362
748.135
776.23
806.662
839.439
874.565
912.037
580.647
581.897
584.433
588.322
593.658
600.553
609.128
619.502
631.793
646.104
662.527
681.136
701.993
725.144
750.622
778.45
808.642
841.204
876.138
913.441
585.856
587.035
589.432
593.124
598.216
604.83
613.101
623.16
635.135
649.136
665.263
683.595
704.194
727.109
752.373
780.008
810.028
842.436
877.234
914.416
588.616
589.756
592.078
595.663
600.622
607.084
615.191
625.08
636.885
650.721
666.69
684.874
705.336
728.127
753.278
780.812
810.741
843.07
877.797
914.915
588.616
589.756
592.078
595.663
600.622
607.084
615.191
625.08
636.885
650.721
666.69
684.874
705.336
728.127
753.278
780.812
810.741
843.07
877.797
914.915
585.856
587.035
589.432
593.124
598.216
604.83
613.101
623.16
635.135
649.136
665.263
683.595
704.194
727.109
752.373
780.008
810.028
842.436
877.234
914.416
580.647
581.897
584.433
588.322
593.658
600.553
609.128
619.502
631.793
646.104
662.527
681.136
701.993
725.144
750.622
778.45
808.642
841.204
876.138
913.441
573.53
574.873
577.589
581.736
587.394
594.659
603.635
614.43
627.143
641.87
658.692
677.679
698.888
722.362
748.135
776.23
806.662
839.439
874.565
912.037
565.144
566.59
569.506
573.94
579.958
587.639
597.069
608.34
621.537
636.742
654.027
673.455
695.076
718.933
745.057
773.471
804.192
837.229
872.587
910.268
556.109
557.658
560.775
565.498
571.88
579.982
589.877
601.638
615.337
631.041
648.813
668.708
690.771
715.04
741.545
770.308
801.347
834.672
870.291
908.205
546.943
548.589
551.894
556.888
563.612
572.115
582.453
594.685
608.869
625.061
643.313
663.672
686.177
710.863
737.756
766.878
798.246
831.872
867.763
905.924
538.028
539.759
543.231
548.468
555.499
564.364
575.105
587.768
602.4
619.046
637.748
658.546
681.474
706.561
733.831
763.305
794.999
828.924
865.089
903.5
529.613
531.417
535.034
540.479
547.777
556.956
568.05
581.094
596.125
613.178
632.288
653.488
676.804
702.264
729.888
759.695
791.699
825.912
862.343
900.998
521.837
523.703
527.44
533.062
540.585
550.032
561.428
574.799
590.176
607.585
627.054
648.61
672.276
698.073
726.02
756.133
788.425
822.907
859.589
898.475
)
;
    }
    coldSide
    {
        type            mixed;
        refValue        uniform 300;
        refGradient     uniform 0;
        valueFraction   uniform 0.991591;
        source          uniform 0;
        value           nonuniform List<scalar> 
400
(
300.028
300.028
300.028
300.029
300.029
300.03
300.03
300.031
300.032
300.033
300.034
300.035
300.036
300.037
300.039
300.04
300.042
300.044
300.045
300.046
300.028
300.028
300.029
300.029
300.029
300.03
300.03
300.031
300.032
300.033
300.034
300.035
300.036
300.038
300.039
300.041