/*--------------------------------*- C++ -*----------------------------------*\
| =========                 |                                                 |
| \\      /  F ield         | OpenFOAM: The Open Source CFD Toolbox           |
|  \\    /   O peration     | Version:  2212                                  |
|   \\  /    A nd           | Website:  www.openfoam.com                      |
|    \\/     M anipulation  |                                                 |
\*---------------------------------------------------------------------------*/
FoamFile
{
    version     2.0;
    format      ascii;
    arch        "LSB;label=32;scalar=64";
    class       volScalarField;
    location    "./ITHACAoutput/true/3.8";
    object      error;
}
// * * * * * * * * * * * * * * * * * * * * * * * * * * * * * * * * * * * * * //

dimensions      [0 0 0 1 0 0 0];

internalField   nonuniform List<scalar> 
3200
(
-4.72433
-2.00562
-1.3549
0.0324676
0.959738
1.39113
4.2445
4.53063
2.54712
2.18387
4.85744
4.16886
5.13097
2.61362
4.44796
0.523351
3.3482
1.87692
-1.51548
-3.68284
-4.48657
-1.12497
-1.75594
0.938421
3.03819
1.40305
4.50713
3.17347
5.648
3.35714
1.90452
4.95947
3.75332
3.33213
0.747444
4.52263
0.55876
1.80379
-0.125797
-1.49354
-2.44457
-1.22774
-0.219784
-0.358523
0.907891
2.33024
1.99078
3.93691
3.66874
3.38033
3.50106
3.61084
2.81352
3.44342
1.35115
2.64038
3.87619
1.57375
-0.688564
0.0556092
-1.95171
-1.45395
-0.356136
-2.48642
-0.241178
0.107152
2.02665
4.20473
2.52445
2.04916
1.89307
2.6467
1.49266
1.12728
2.89763
2.20327
1.33147
1.74613
-2.06855
-0.770423
-1.57717
-1.18159
-0.0994948
-1.83588
1.08491
-0.990545
0.272775
1.64756
2.61472
3.61642
1.43267
3.78379
1.76801
1.74135
3.04715
2.95333
2.798
0.278496
-0.149866
-0.734134
-1.31895
-1.33251
-1.39524
-0.219219
1.87242
1.01142
2.39117
0.000725477
1.52897
1.88096
0.478299
1.61464
0.807453
2.87333
-0.15871
0.0598056
1.45553
1.18027
-0.907677
-1.53853
-1.16545
0.278872
0.392575
1.40503
-0.26005
2.49652
1.09349
1.11054
1.18682
0.868034
1.8684
0.0429265
1.73467
1.18581
-0.64152
2.16229
0.227109
0.65861
-0.0740308
-0.585352
-1.69537
-1.47117
-0.383586
0.478082
-0.765273
-0.0355474
1.27538
1.81185
-0.305575
0.0394242
-0.258117
1.88138
0.0375613
2.18511
0.307027
0.460367
-0.467768
-0.335114
0.881647
-0.490213
-6.0174
-2.8953
0.389383
1.02821
2.1772
3.5914
2.81572
3.27526
4.11443
2.8442
3.9072
3.59583
2.2884
3.18922
2.99015
3.24175
2.2065
2.05061
-0.669819
-4.23924
-2.62987
-0.201048
-0.617286
0.344682
1.65059
0.366439
2.43062
0.519062
3.76844
-0.300932
-0.0935415
2.41759
0.71952
-0.0397545
-0.164238
4.14584
0.441825
1.84473
-0.515351
-2.64758
-3.89352
-2.93791
-0.14859
1.24947
0.00999314
1.14118
2.41915
3.26465
2.80657
1.64547
2.48375
2.51638
5.20362
3.03102
2.04727
2.13786
0.0948997
1.24722
1.04411
-2.79123
-1.85537
-0.636058
0.731592
-0.57725
0.0952175
0.895002
3.63189
3.16314
2.29921
2.40207
2.10052
2.02092
1.27517
2.58329
3.91721
0.397462
2.4946
1.76569
-0.0303912
-3.6167
-0.0751985
-4.07407
0.0451281
0.973089
0.295551
1.17431
3.78201
1.11219
1.39323
1.81524
0.655647
1.63195
2.07983
1.37077
0.859788
1.53037
1.37427
0.165878
-1.24227
-0.890671
0.0641704
-1.55098
-0.48359
0.581557
2.15866
0.104247
0.706091
1.11448
2.6713
0.468043
1.49673
0.423906
1.79549
0.73396
1.52432
0.378418
3.35076
2.55592
-1.09903
-1.36175
-1.61493
-0.0852376
1.09021
-0.293099
0.315123
0.0347084
-0.249269
1.32706
1.84173
0.031699
2.20844
2.81607
-1.52943
-0.400759
1.39979
0.0149543
0.723666
0.539809
0.500443
-0.910814
-0.249715
-0.33083
1.21493
-0.650829
-0.242625
0.137708
-0.641719
1.75023
-0.245177
-0.689898
0.613795
-0.165804
-0.982271
1.70021
-0.526039
-0.46661
-0.368412
-1.27101
0.765407
-0.778649
-1.78605
-1.70581
-0.509487
0.120341
1.14372
3.89689
3.79604
2.61346
1.91185
2.65314
3.11006
0.552679
1.78057
4.24696
2.29183
2.88789
1.25512
0.489004
-1.42457
-2.72429
-4.51267
-0.518748
-2.26931
-0.15214
1.51797
3.53899
3.20945
4.36014
1.52602
2.58342
4.95282
2.85175
1.94054
-0.0299435
1.5226
1.27638
0.122615
1.15253
0.497983
-1.38209
-2.20472
0.105146
-1.83425
0.0582898
0.612065
2.07267
1.60163
3.42969
1.51033
1.7783
1.88603
0.681062
0.400233
2.4206
3.04548
1.38637
1.74285
1.60512
-1.11255
-0.757671
-2.10034
-2.69646
1.31978
-0.143239
2.47563
1.42122
1.95237
1.71886
3.66495
4.16461
2.89806
2.16881
0.438973
3.53738
0.0198502
1.55426
1.08169
2.40488
0.617185
0.603423
0.144284
-1.48597
-0.155473
0.76962
0.446705
1.50229
1.92273
2.98435
0.564262
1.63853
1.38801
1.28776
1.64326
0.263808
-0.648214
-0.134777
1.07712
0.589573
1.81092
0.48818
-1.98397
-0.353112
0.759339
1.41327
-1.36513
0.941198
3.65687
2.51027
3.94381
0.850893
2.08446
1.52754
2.19175
1.24869
0.901794
-2.48704
0.284083
0.421424
0.720418
-0.363438
-0.455267
-1.0186
0.122688
1.44917
-1.00382
0.101638
0.996352
-0.306883
1.16858
1.54231
2.3937
0.452233
1.04262
0.260024
0.908705
-0.367637
1.05648
-0.506071
-0.772156
0.0889603
0.368662
-0.424761
1.96052
-0.321764
-1.58677
1.29319
0.000465208
-0.123471
1.34648
-0.300238
0.285829
-0.164216
-0.885484
0.322126
0.0106411
0.472834
-0.363022
2.37158
-2.7116
0.0228498
-3.99873
-1.11605
0.528427
2.6737
0.23174
2.57481
2.381
0.990906
1.72341
2.74678
1.60516
2.29148
-0.598226
2.33127
-0.519685
2.01809
1.57774
-0.134597
-0.978409
-3.68735
-3.48364
-0.467346
-0.220386
0.0315069
-1.09668
-0.314624
2.93095
0.326641
1.72122
0.286047
0.319802
4.1893
-0.336046
1.4878
-0.0466673
3.46847
-0.00522226
0.209474
-0.171658
-1.64042
-2.29582
-1.74628
-1.0015
-0.330353
1.71255
-0.289446
0.573472
1.02417
1.46781
1.92705
1.90415
-0.493619
2.29903
2.20751
1.04783
-0.730652
2.6316
1.44222
-0.109546
-0.180646
-0.723636
-1.83252
-0.492464
0.322361
4.16494
1.57282
0.976597
0.936187
1.41569
1.54581
0.267104
2.84693
1.68156
1.86351
3.19371
0.503343
2.30013
0.224853
-0.0973486
-1.18302
-0.916351
-0.278033
-0.412575
0.592842
0.26133
1.84474
1.98098
1.51043
2.23202
1.50753
3.22039
1.70783
1.7359
0.224699
0.892841
0.336767
0.655952
1.53833
-0.845679
-0.617178
-2.29885
-1.65361
-1.5896
0.961904
0.780782
1.89143
2.26655
2.01597
1.16922
1.51922
0.755454
2.17353
1.89716
2.44732
-1.19572
0.0641635
-1.35695
0.170929
-0.7717
0.197197
-0.645062
-0.876578
1.23947
1.05178
0.565097
-0.350552
-0.347262
-1.50292
1.95076
-0.842421
1.6583
0.173325
0.0862694
1.24412
1.15716
2.52271
-2.24474
0.168519
-0.470893
0.0396419
-2.77094
-0.725396
-0.0639197
0.311912
-0.629814
-0.837083
0.301494
0.351097
0.844366
1.86161
-1.58573
-0.749983
2.84277
1.55832
0.765512
1.875
-2.54599
-0.138254
-2.53442
-0.588087
-3.39758
-1.50784
-0.27168
-0.719704
3.66265
-0.806448
2.30481
1.47568
1.73155
1.61534
1.53641
0.895143
1.65577
1.46169
0.726745
1.00349
1.98067
-0.0760108
-2.89441
-4.01465
-5.43401
-2.00327
-1.00439
1.45833
2.60445
-0.132308
1.01021
1.68779
0.285651
0.574554
0.84214
2.12868
0.573254
1.71944
1.85341
0.142488
2.18256
1.46723
-1.70861
-3.8899
-2.67118
-0.657907
-1.41768
0.648528
1.61121
-1.31742
2.08242
1.80762
2.21096
2.35541
1.96439
0.64428
0.907845
3.09554
2.57348
1.15878
0.133248
-0.409022
-0.681954
-1.20174
-3.52223
-1.12582
-2.45712
-0.71686
3.02315
0.367151
1.09712
1.38034
2.76588
1.88105
2.52098
1.94326
2.90607
0.695739
2.84638
-0.41802
-0.863293
0.946432
-3.04554
0.581454
-2.13033
-0.541133
0.638034
1.32095
0.99148
-1.20351
1.42108
-0.519748
1.27562
0.97468
0.172162
-0.840759
-0.289539
1.57502
0.00998796
-1.85819
2.03069
-0.602454
-2.41271
2.33379
-1.55939
-1.82239
1.61578
1.12187
-0.99187
0.207669
1.03787
1.07396
-0.128791
1.43712
2.5893
0.38924
-0.117489
0.0988171
0.0298982
1.82726
1.12973
0.727451
0.203019
-1.13466
-1.17908
0.302798
-1.99376
-1.01663
1.67613
0.108078
2.00396
0.0516081
2.68985
0.111405
1.36102
1.43175
-0.408879
0.0709396
0.790934
1.58994
-0.99556
0.539311
0.366727
-3.20079
-0.929672
-1.49092
-0.586348
-1.5256
-1.59957
-1.16556
1.02012
0.297203
0.570696
3.11345
0.543959
1.63241
0.392716
0.323381
-0.497197
1.52893
2.27052
1.03278
-3.47562
-1.06938
-3.63204
-2.96117
-2.23762
0.141455
0.0632708
0.0916143
-1.95084
1.10403
-1.00473
0.465704
0.642256
-0.142259
-1.03225
0.633714
2.7066
1.30971
-0.224074
0.188069
-2.45632
-3.866
-3.68042
0.096201
1.03936
0.0938795
1.63468
-0.0319484
1.09822
0.100173
2.04817
0.465613
0.398768
-1.39728
-0.360707
3.02426
-0.272011
0.468392
-0.461791
-1.71122
-0.616032
-3.71265
-2.73548
-1.68058
-1.03313
-0.831408
0.0732038
2.8957
1.80104
-0.0596998
1.45468
-1.00537
0.0729516
0.389904
-0.873256
2.01384
-0.669181
-0.115557
0.948748
-1.96076
-1.06304
-1.50141
-1.92376
-2.71251
-0.800701
-0.45487
0.449
0.258579
0.377293
0.77487
0.934761
1.01298
-1.754
1.23719
0.877016
-0.0935478
0.754646
0.409986
1.00727
0.168023
-1.13458
-0.924149
-1.15189
0.14464
0.441722
1.58023
1.68473
1.33876
2.10771
1.17996
0.0382431
0.638168
-0.303257
0.871346
-0.385385
0.525149
-1.12469
-0.580407
0.432708
-0.685835
-2.45593
-0.848513
-1.1764
0.536931
-1.20271
-0.0673126
1.31241
-0.360164
1.89467
0.454644
0.697326
1.02381
2.03067
2.21877
0.0937547
2.28561
0.796473
0.112942
2.48473
-2.34183
-0.242075
-0.187978
-0.228643
0.0182919
0.603024
0.199977
0.964743
-0.448126
0.373887
-1.1913
0.298465
0.254737
0.790767
2.93657
0.579297
-0.175284
-1.04443
-2.23896
2.82972
0.501948
-1.52315
0.444777
0.335685
-1.36998
0.284987
1.47961
-1.39928
0.0421364
-0.0828645
0.178703
1.37618
-1.36146
0.0962243
0.0175979
0.742921
2.29142
1.18736
-1.40915
0.510676
-0.705472
-1.24187
0.0905694
-4.60067
-4.03928
-0.522255
-2.08926
0.153379
0.279682
0.125902
-0.0802999
1.16293
-1.05392
0.576818
0.534072
-2.46939
-0.612582
2.28281
-0.90482
0.130738
1.05094
-1.2434
-1.86664
-4.42035
-3.04117
-1.90739
-0.714649
0.421504
0.586949
0.0832935
2.032
-0.34698
-0.625412
-1.29981
0.0131626
0.530332
-0.715093
0.0877129
1.58453
-1.14036
-0.903127
-2.92082
-4.05633
-2.55086
0.457602
-2.21841
1.10483
1.0589
-0.757865
0.945075
-0.122823
0.185663
-1.54209
2.57123
0.491879
-0.0110639
1.22522
1.05056
0.947668
-0.203843
-0.1779
-2.49974
-2.38883
-4.02533
-0.917251
-1.37122
-1.23988
2.29161
-0.319104
0.498903
-1.84448
0.228991
0.458591
-0.967354
-2.37619
1.34517
2.77487
0.0423386
1.26361
1.86719
-0.478446
-1.39964
-1.33007
-4.20266
-1.07189
-0.848827
0.0598702
-1.2706
1.21785
-0.555935
0.601287
1.4492
-0.188196
0.527276
-1.79982
-1.10486
-1.59862
1.09991
0.764571
0.623005
-1.26702
0.743885
-2.83753
-2.69692
-0.235747
-1.67953
0.972147
1.31263
-0.995975
0.0082016
-1.64576
-0.732656
0.936598
0.453356
-0.548054
-0.0686964
0.0769125
0.318651
-3.25747
-1.44257
-0.117239
0.219044
-1.9686
-1.56881
-1.27846
0.388156
-0.250508
-0.635247
-0.0145413
-0.604109
-0.918462
-0.712804
-0.0032999
-0.0903359
1.74576
-2.17814
0.278997
0.557101
0.0915358
-1.41292
-0.378116
0.603001
-1.15823
-2.28057
0.759415
-1.78437
-0.358185
2.11733
-1.52949
0.635997
-0.560429
1.29399
-1.39138
0.610631
-0.242372
0.43696
-0.0754502
0.782211
-0.449279
-1.16676
-2.64266
-2.16072
-0.669622
-4.75099
-3.36048
-2.22292
-1.90961
-1.15221
-1.12408
1.17246
-0.504935
-1.30267
-2.00927
-0.272863
-1.90885
-0.838567
-1.49135
-1.09484
0.739962
0.0658632
-3.02842
-2.70289
-3.95465
-4.79779
-0.299437
-1.49855
-0.373122
-0.46449
-0.435849
0.269676
0.462358
0.603441
0.112556
0.309108
-1.84997
0.116563
-0.817019
0.212883
0.426005
-0.548828
1.56232
-0.752897
-4.14859
-2.84844
-1.63221
-0.501407
0.22415
-1.00543
0.124878
-1.83049
0.34452
0.0844316
-0.858196
-0.0171037
0.185502
0.110707
-2.28583
1.4261
-0.125654
-0.630284
-1.43653
-1.5134
-3.4617
-4.02165
-1.05549
-0.554474
0.411202
1.43301
0.615876
0.22355
1.17854
-1.15415
-2.82453
-0.896967
-0.179119
-0.982456
-1.32882
-0.96257
0.414871
-0.295934
0.79612
-1.26544
-3.06227
-1.66609
-1.86231
-1.70015
-0.448302
1.17056
0.92579
1.10676
-0.513734
0.65855
0.41611
-0.927541
1.55477
0.341213
1.14595
1.85769
-0.493447
-0.421777
0.0930757
0.300822
-0.949274
-1.31751
-2.14225
0.0600494
1.12994
-0.567847
1.84491
-1.04046
-0.241515
-0.220436
-0.278952
-0.857821
0.278747
-0.97174
1.03886
-2.2605
-0.550674
1.67059
-0.561439
-0.0452345
-1.77212
-1.36842
-0.219554
-2.56286
-0.356834
0.600326
-0.830106
0.0320397
-0.200264
0.189203
1.29203
-0.118013
1.36709
-1.60276
-0.643875
-0.153246
2.21473
-0.721483
-0.961495
-2.25568
-1.51653
-1.79048
0.227364
-1.17506
0.113085
0.0470216
-0.406278
0.630056
-2.24582
2.2292
-1.10214
-0.0348067
-0.823524
-0.00486237
0.329985
-1.96538
-0.367192
1.50462
-0.844617
0.490487
0.664858
-6.47053
-2.28765
-0.0882081
-1.06851
-0.419318
-0.474936
-2.40914
-0.760229
-0.476266
-1.81408
-1.83854
-3.89978
-2.06848
-1.42878
-1.01941
-0.472593
-0.632112
-1.97982
-1.38916
-2.74026
-1.9782
-3.72173
-0.181341
0.0140473
-1.92372
-0.92072
-0.201095
-1.86662
-0.769535
-1.06124
-4.55239
-1.52392
-1.044
-0.726335
-1.50625
0.156157
-1.52897
-0.497281
-3.37932
-5.41185
-4.99631
-2.82043
0.0334534
1.06455
-1.11463
2.23487
0.527598
-2.89684
-0.957995
0.35664
-1.69933
-1.78238
1.36335
-2.23799
-2.73265
-0.951594
-3.48286
0.710487
-2.50667
-2.69928
-2.64383
-2.88241
-1.8848
1.94813
-0.101766
-0.405291
0.994904
-0.106004
1.71616
0.0546912
-0.598648
0.0599266
-0.110427
-0.800804
-0.0288013
-1.55172
-0.452723
-0.841784
-0.936491
-0.951539
-0.729851
-3.06477
0.39888
-2.0122
0.729843
0.951482
0.648309
-0.968155
0.887964
-0.693932
0.134041
0.764721
-1.35645
-1.92854
0.462144
-0.679406
-0.894337
-1.2473
-1.20185
-1.21341
-2.39094
0.471167
2.31988
1.06228
-0.5723
-0.392765
0.351113
0.941669
1.81894
0.623445
-0.663394
-2.8148
-1.49556
-0.0569119
0.93772
0.388835
-0.0546074
-0.300305
-1.76332
-1.38136
-1.5927
-2.52081
0.478925
0.818219
0.263378
-0.555912
0.727242
-1.76042
0.374517
0.859131
-0.81276
2.11129
-0.98888
0.203525
-1.85879
-3.19298
0.246977
0.610165
2.02182
1.17111
-0.558863
-1.49917
0.806413
-0.194315
1.33987
2.82631
-0.653964
1.1921
-1.30579
0.0262035
0.339711
-0.84338
-0.264888
1.16307
1.51134
-1.29809
-1.81578
-0.891877
-0.1974
-0.971441
-4.20333
-3.13466
-2.44348
-3.26837
-1.2188
-0.925058
-0.41933
-2.09896
-3.31285
-4.56449
-2.77255
-3.39846
-0.41692
-2.45166
-2.77879
-3.07675
-0.932092
-2.43287
-4.02196
-3.61734
-4.89368
-0.640393
0.684103
-0.486323
0.0738557
-0.145694
-0.546149
-0.104413
-1.25164
-0.31532
-0.386044
-2.56298
-0.0280569
-1.85276
-0.307224
-0.237705
-0.215725
-2.68178
0.0653271
-2.71859
-3.87641
-2.94242
-1.38068
-0.996428
0.115897
-0.521808
-1.0946
-2.07418
-0.0186002
-1.83816
-0.60651
-1.98947
0.17138
-2.24779
0.337483
-1.0279
-2.11689
1.11044
-2.60898
-1.03681
-0.255008
-1.07377
2.65017
-0.429096
0.0847884
0.458561
-1.51101
-1.29292
-0.654138
-1.65112
0.382169
-2.20488
-2.38985
-1.31799
0.330896
-2.27392
-2.28858
0.113829
-2.40581
-1.84279
-2.65925
-1.17098
-2.08701
0.611169
-0.255676
0.615192
1.26325
0.400237
-0.573388
-0.747843
0.608474
-0.365761
-0.142868
-1.05454
-1.34976
-1.31785
-0.554714
-2.12406
-1.04877
-1.29331
-3.26418
-2.71487
-0.812074
-1.45463
-0.226232
-1.6069
-0.0492774
1.32477
-0.562811
-0.217806
-0.855002
-1.85862
2.44388
0.0262035
-0.35361
-1.57165
-0.647307
-0.46694
-0.718291
-0.961973
-0.428948
-0.881611
-1.6816
-0.975162
-1.58696
-0.427247
-1.38629
-0.39085
-1.70499
0.32215
-0.631338
-0.890619
0.719203
0.334782
0.0396242
-0.0481525
-1.94471
-0.114412
0.845715
-1.07031
-0.958967
-0.191387
1.14142
-0.155166
-1.52113
-0.0145932
-0.0569863
-0.594462
-1.73086
0.0652946
-0.407582
0.353086
-0.0964115
-0.0250226
0.40483
0.358271
-0.0707646
-0.278379
-0.557549
0.33679
-4.11779
-2.07443
-3.71282
-0.888481
0.205172
-1.29042
0.019086
-0.0253921
-0.563257
-3.27059
-4.54045
-4.34882
-0.638067
-1.41143
-1.97912
-2.38819
1.06406
-2.32876
-4.29592
-4.81621
-3.54641
-0.5561
-2.47891
0.238674
-2.21086
0.0973984
-1.50935
-0.233259
-1.19168
0.111609
-0.811853
-3.1335
-0.254628
-2.13543
-0.476447
-3.42242
-0.198498
-1.83348
0.301843
-2.13735
-4.07231
-1.87404
-1.27487
-0.780546
-1.52702
1.49454
-2.22272
-1.66523
-2.29575
-0.22768
-0.868894
-1.93993
-0.583878
2.45557
-2.50835
-0.242842
-1.4357
-0.494972
-3.57104
-1.49016
-4.10663
-3.59405
-0.114674
-1.55964
-1.13085
-0.857518
-0.535447
-1.69508
0.130588
-2.61878
0.429513
-2.22333
-0.995126
-0.0698657
-1.60537
-0.160296
-0.445484
1.90941
-0.718595
-1.50986
-2.05053
-1.38975
-1.13777
0.209026
-1.3701
-1.0337
0.876126
-0.544857
-0.472788
-2.51662
0.24827
1.50678
-1.63196
-1.6963
-0.889879
-0.110035
-0.917252
-1.64843
-2.52179
-2.16936
-0.943362
-1.06827
-2.13992
-0.568198
0.249721
-0.50791
2.25435
0.315709
-1.33535
0.0117689
1.18128
-2.12575
1.11866
-1.09604
0.306855
-1.21505
-1.33235
-0.967789
-2.01429
-0.488869
-0.993076
-1.56834
0.391011
-1.5764
-2.51968
1.40986
-0.467569
-1.13302
1.40459
-2.34664
2.04033
0.659415
-0.867829
0.818983
0.582119
0.875937
-2.24997
0.159289
-1.13013
1.03995
0.203733
0.0805951
-0.947615
-0.0322024
-0.725154
0.329103
-0.304091
0.360568
-1.83502
1.43468
-0.695102
-0.863321
-2.26535
0.0756592
-1.98403
3.11161
-2.39703
1.3374
0.583377
-1.26302
-2.13281
-2.9994
-2.78875
-0.136604
-2.47155
-1.64868
-1.12781
0.124223
-0.558504
-2.8405
-2.42092
-2.44179
-1.91555
0.236195
-2.5021
-0.699154
-0.594557
-2.93958
-3.31991
-3.57731
-5.50802
-2.70552
-1.91121
-0.957838
-2.61092
-0.831727
-3.12544
-1.12372
-1.83434
-1.50795
-3.23021
-2.27874
-3.52768
-2.08956
-1.56513
-3.12955
-1.84491
-0.768862
-3.38835
-3.32976
-2.19751
-1.20619
-0.769955
-0.60428
-0.142789
-1.07556
-1.23696
0.425956
-1.55972
-1.75312
-3.67576
-2.49033
-1.32371
-0.807115
-1.66515
-0.0209507
-0.868428
-1.7887
-3.01535
-1.51968
-1.20202
-3.13945
-1.78457
-0.11147
-1.95478
-0.347963
1.44623
-1.34025
-0.614635
0.601283
0.0780818
-2.0119
-1.85731
-2.12516
-2.29833
2.34017
-0.17276
-0.902424
-0.926182
-4.16556
-2.20964
0.315668
-1.60927
0.919009
0.853774
1.84042
-0.793153
-0.209712
2.76549
-0.219045
-1.18807
0.416235
-1.47323
-0.54299
0.771976
-0.399376
-0.47253
0.258446
-1.35278
-2.68755
-1.82079
0.369749
0.197611
1.70145
0.482612
-0.125359
1.32041
-0.596375
1.1004
0.199566
0.35247
-1.49215
-1.79293
-1.00918
-1.97128
-1.51979
0.335908
0.822561
-2.52196
-1.80298
-3.35169
-0.835947
0.399289
-2.42825
1.6995
0.500471
-0.129367
-0.622715
-1.20713
1.10616
0.11893
-0.315575
-1.07141
-0.149298
-0.797987
0.57577
-0.568525
0.857288
-0.821985
-1.49833
-1.08099
-1.16925
1.73403
1.75963
-0.494542
1.04543
0.0766658
0.49509
-0.983218
-0.819284
-0.0545393
-0.979128
0.600568
-1.90984
-1.01875
-0.215555
0.31923
-0.671897
-0.439177
-3.31065
-5.095
-3.66595
-2.90975
-0.690929
-0.739852
-0.747464
-0.0923955
-1.3881
-2.18107
-2.05746
-2.31237
-2.43436
-1.52941
-3.04352
-2.23908
-2.18372
1.12369
-1.8905
-4.65442
-1.62299
-3.42983
-0.0363161
-1.95282
0.122782
-1.17414
-0.40413
-0.370341
-0.175197
-0.571567
-0.17193
-0.318016
-2.91493
-0.465842
-3.12836
0.183887
-0.597325
0.385289
-2.59027
0.224269
-2.80509
-2.51723
-1.93033
-1.48482
-1.31798
-0.821371
-0.329945
-0.0233317
-1.64227
-3.14772
-1.99483
-1.55263
-0.619984
-1.90254
-1.50323
-0.28568
-0.673841
-2.55867
0.268945
-2.01684
-2.77164
-1.50084
0.528354
-2.42943
1.6445
0.826398
2.71418
-1.44986
-0.304343
-1.5212
-3.46618
-1.3072
-0.478957
0.654548
-1.14936
-0.707062
0.214233
-0.454785
-1.27156
-3.54301
-2.37505
-3.20074
-1.38783
-1.17454
-0.0770094
2.57131
0.0649572
1.96359
-1.22697
-0.908917
-0.252866
-0.751896
-3.17682
-0.226741
-0.656032
-2.2665
1.3859
-1.94735
0.621204
-1.48286
-1.05547
-0.894767
-1.83067
-1.27437
0.27469
0.711214
1.32601
0.262013
1.29767
-0.441328
-1.37382
-1.98987
-0.523873
-2.19701
0.407542
-1.56974
-1.37057
-0.521927
0.453344
-0.137119
0.356096
-1.12173
-0.152951
2.45446
-0.408569
0.896297
2.01356
-0.760774
1.98897
-2.6699
-1.54981
0.387847
-0.0875432
-1.07252
0.127795
-1.19014
0.762222
1.18471
0.479207
0.963604
-1.87932
-0.462566
-1.02999
1.44105
-1.33902
-0.181478
3.56679
1.1028
0.903676
0.548765
-0.307766
0.828383
0.127487
-0.102167
-1.81432
0.313824
0.634004
1.09997
-2.1597
-0.851532
-0.137533
-2.65326
-3.1246
-0.202305
-0.426005
-1.26158
-1.24263
-0.682213
-1.44522
-1.09105
-1.08593
-0.0162865
-0.210016
-1.29574
-1.12811
-1.46291
-2.10666
-0.690764
-3.06578
-1.98448
-3.32962
-4.15629
-0.900767
-0.962845
-0.405356
0.320317
0.0538051
-1.01729
-1.68191
-0.142618
-2.29621
-2.38949
-1.8363
-1.19916
-0.98537
0.990399
-1.02266
-2.33998
-2.38851
-3.21539
-3.31626
-2.38764
-1.89069
-1.43208
1.79566
-0.295668
0.969246
-1.14274
0.426809
-1.52774
-2.57985
-0.143065
-2.28729
0.100989
-0.884244
0.0999912
-1.67919
-1.75006
-1.54065
-1.67977
-2.00073
-2.38678
-0.488983
0.0231443
0.641197
-0.867001
0.720907
-0.47159
-1.03776
0.241017
0.740959
1.42113
-0.866334
-1.08543
-0.00355336
0.528195
1.2542
-2.61025
-2.51943
-0.156901
-2.12738
0.84522
-1.7988
-2.0483
-0.909648
-0.0215219
2.11256
0.0915378
-3.05895
0.0316094
-2.03832
0.941164
-1.75746
-0.322443
-0.281045
-0.871159
-0.784223
-0.483043
-1.67379
-1.19753
0.151918
-2.70173
-2.56079
0.0163227
0.167927
-1.2978
1.25243
-0.416915
-0.453387
-0.438554
-0.299506
1.6879
0.525402
1.17921
-2.06519
-0.198081
-0.0843253
0.517505
-2.06514
0.374887
-0.940231
0.414349
-2.30866
0.695291
1.0371
2.56887
-0.857027
1.16148
0.314842
-0.115868
-1.14074
0.785522
0.154589
-1.06387
-1.80721
2.27628
-1.02571
0.389664
0.282887
-2.91868
-2.21882
-0.565901
0.336015
0.226732
-0.475472
0.177548
-1.35507
-1.10077
-0.175724
1.07965
-0.0800081
0.2735
0.188628
-1.70142
0.904399
1.66848
0.275629
1.38562
-0.504278
0.791505
-0.0672612
-2.77874
-3.1893
-1.272
-2.18521
0.772804
1.91665
-0.636012
0.623641
-1.92545
0.776437
-1.96801
-1.12603
0.0800695
1.22794
-1.22964
-0.33003
0.655008
-1.00433
-1.69351
-2.76506
-3.58592
0.294734
0.735981
0.0557831
1.81296
0.145956
0.782736
0.16029
0.652231
-0.28254
-0.41095
-1.54894
0.181659
-2.15509
0.43743
-2.5174
0.0531938
-0.17136
-0.239202
-3.12338
-2.47492
-2.76831
-1.39176
1.61287
0.0908855
2.53715
0.726116
1.35167
-0.629387
-0.948248
-1.40565
-1.16617
-0.913862
-0.434117
-0.374374
0.163539
0.0101157
1.79684
-2.42191
-3.46707
-2.17524
-1.76924
-1.74797
-0.150962
-2.56307
-0.533158
1.65841
-0.834335
-1.16862
-0.818706
-1.42832
1.16817
0.161804
0.205914
0.96752
-0.34754
0.179116
-1.17202
0.202219
-0.647156
-2.3304
0.596248
1.89133
0.34809
0.953243
1.16069
1.3812
0.0651063
-0.0563294
1.04422
0.486801
0.128751
0.426444
1.27755
-0.671321
-1.20281
-1.22085
-0.746419
-2.15135
-1.73768
-1.30138
-1.7641
-0.217748
0.0475321
-0.839701
1.22967
0.33295
2.11428
-1.15054
1.27344
0.757314
-0.415131
-0.97751
0.871682
-0.841452
-0.70831
0.708472
0.868333
-0.514771
0.0408015
-2.32034
-1.8307
1.48951
-0.387985
1.24274
1.88012
-1.62064
-0.943228
0.920786
-0.227228
0.336075
0.59089
0.788946
-0.639264
-2.72103
-2.48225
1.0789
0.356446
-0.331399
-1.91055
0.85546
-1.05233
-1.57991
1.52561
-1.61437
-0.825404
-0.899901
-0.477127
-2.23389
-1.05828
0.733644
2.20372
-1.22066
-0.408691
1.34015
-1.91
-0.869247
0.461735
-1.29833
0.149569
-1.13068
-0.878104
1.01264
-0.816237
0.959023
2.44968
-0.69326
1.53647
0.312914
1.19228
1.6874
-0.626437
1.01079
0.354193
0.914132
0.315283
-2.11033
1.36952
-0.550708
-1.39184
-0.926738
-2.74439
-0.204995
2.82315
0.680405
1.90759
2.01129
0.549148
-0.155113
0.376737
0.974648
-0.787719
-0.761621
0.700109
-0.438648
2.9947
-0.79678
-1.69879
-0.283121
0.052082
-1.64761
-0.225256
-0.0781573
0.218511
1.58968
1.9915
1.08562
0.128668
-0.240476
-0.134363
-1.04913
-1.3891
0.881544
-0.927346
0.683715
-0.722739
-0.350154
-0.327213
-0.0914053
-3.43691
-1.00242
-2.24118
0.912905
1.2315
-0.633588
1.04998
-0.213622
-1.10871
-2.08885
-0.877991
0.15605
0.132478
-0.760721
-1.6897
-0.487664
0.280097
0.235519
-0.118082
-0.790371
-0.391456
-0.479825
-0.781795
-0.192561
1.39633
0.59134
1.77365
0.226422
0.990682
3.30902
1.64238
-0.360638
-0.848825
-0.711986
1.53185
0.524881
-0.634409
-0.992908
-0.463468
0.418238
-1.04463
0.0218491
-2.17757
-0.454916
-0.361226
1.46877
0.690731
0.962821
0.047203
0.40596
-0.270361
-1.4791
-0.656913
1.00285
0.122865
1.12197
2.43191
-0.770428
-0.168965
1.36136
0.22412
-1.73441
0.343504
-0.479245
1.84551
1.55385
-1.88684
0.971242
0.795317
-0.484003
0.560886
0.756755
-0.0462663
-2.33141
-0.189634
0.990108
-0.583354
-0.387611
-1.3639
1.15695
-1.07169
-0.263877
-1.54368
0.349225
-1.83492
-2.35564
0.353782
0.702327
0.938237
0.220779
0.768312
0.294433
2.52388
-0.0938697
-0.0136564
0.851592
0.994159
-0.67515
-0.388407
-0.129559
0.0434841
-1.4763
-0.233797
1.67639
2.1889
1.34827
2.28656
2.32543
1.988
-0.504951
0.594993
1.39894
0.954516
1.58913
0.770581
0.888799
2.56744
0.830058
0.599188
-1.23497
-0.42663
-1.98433
-0.609707
0.646928
0.387368
1.89929
-0.646869
2.60959
-0.160961
1.64642
1.1043
-0.0299536
1.44709
0.0588624
3.13638
0.510026
0.876898
-0.48866
1.00031
0.188193
-0.885937
0.278629
0.758789
-0.0577864
3.15658
1.15345
0.929381
0.357877
0.0440087
0.170624
2.0016
1.72046
-0.863265
2.98895
1.13844
-0.927478
2.18266
0.857409
1.35897
-0.411044
-0.666397
0.0441942
-2.35766
1.04766
1.69395
1.24551
3.45542
1.60062
1.66143
0.0133919
1.24328
1.5957
0.822444
-1.79675
0.690897
1.16979
2.53826
0.999774
0.544812
-1.04615
-0.366068
-1.43824
-0.635117
1.55465
1.56226
1.1937
0.448885
0.508152
3.35181
0.129272
-0.209965
1.99401
0.466989
1.30952
-0.972966
0.815644
-0.286227
0.759252
1.79142
0.564038
-1.94672
0.0413225
1.25355
-0.180896
2.17643
1.16986
0.631752
1.08021
0.942044
0.706152
2.14416
0.500101
-0.558114
0.41729
0.323427
2.65456
1.07326
2.19078
1.48136
-1.05556
0.483434
-1.21545
0.668303
-0.302328
0.951794
1.27349
0.484672
0.346529
0.189685
0.0561464
1.48635
-0.867097
2.94621
0.0167935
0.370119
-0.482758
0.520605
-0.0490016
1.43056
-1.67404
-0.800978
-0.422061
-0.415205
0.910449
-0.0219398
-0.371046
1.23905
-1.35175
1.30868
0.29813
-0.437708
1.33095
-0.112961
1.68063
1.73792
-0.583172
1.52825
-0.223863
0.48406
1.36294
0.474091
-1.19424
0.0940771
0.868893
-0.00424112
3.37584
2.85962
3.82501
3.07593
3.21191
2.5503
2.61295
2.05396
2.16361
1.2485
4.03039
1.53669
0.00457493
1.02134
-1.11833
-0.281547
-0.737144
0.351141
0.259778
1.71038
1.73111
1.41246
2.56405
3.70905
2.1454
1.79938
2.91365
2.3402
2.51655
-0.748732
1.4776
1.59123
1.52664
0.0603853
0.257866
-1.68868
1.32186
-1.70143
1.09347
0.308309
2.39603
1.46617
1.17689
0.24451
1.78266
3.78702
1.96902
1.58381
1.08563
1.79495
3.81917
1.26041
1.51563
1.08901
-1.11212
0.0163715
2.33083
0.164999
0.26341
1.1561
1.52518
0.845637
1.23391
1.03281
-0.608455
3.42261
1.53211
1.16858
0.599131
0.388969
2.78402
1.01408
0.650825
2.77975
-1.79542
-1.0969
0.210441
0.98767
-0.652882
1.29413
2.47055
0.632045
1.17767
1.19994
0.421125
0.520917
1.37612
-0.0192795
1.14806
1.57153
1.5368
0.548966
1.23348
1.66486
-0.065815
0.500913
-0.355713
1.2684
2.20157
2.0146
0.920851
0.916509
-1.22441
-1.74923
0.656404
0.915781
1.76779
2.44786
0.176721
1.75537
2.07452
0.754061
0.678806
1.27762
2.06335
0.329996
0.368342
-0.230427
0.55161
-0.926663
0.780802
0.473443
-0.354454
2.20798
0.762269
-0.581
0.804082
1.37302
1.10927
-0.186675
-0.623832
-0.373106
-1.4172
-1.02388
0.515572
-1.02485
-1.33214
-1.43701
2.01239
0.347364
0.548337
0.257884
0.306418
0.360825
-1.63362
-0.248001
0.375089
0.98812
0.76255
-0.767559
0.835416
2.12968
-0.603645
0.1316
1.24095
0.825773
0.07324
-1.4829
1.71978
2.64065
2.43337
3.97334
4.24605
3.01083
4.12744
1.86861
3.3153
1.89948
3.91214
2.41422
2.06143
3.13888
3.02377
0.540357
2.9833
0.22796
0.0638169
-0.0997436
2.46094
0.0698389
4.66474
-0.30259
3.46816
0.323956
2.11781
0.59426
0.628166
0.549635
0.186029
2.36513
0.0157812
3.4568
0.00457382
1.65722
0.0309895
0.192951
2.39476
-0.259251
2.81023
1.89426
1.32476
4.63004
4.18018
2.96324
3.27015
2.37047
1.82247
2.74478
3.6978
3.03996
2.96862
-0.45638
1.85171
2.28244
1.77795
1.65121
-0.232083
0.978286
3.49722
2.86636
2.6104
1.73659
1.60456
3.75149
1.57656
2.39915
0.343917
-0.12188
0.756122
1.00318
0.976105
3.57875
1.48443
0.975287
0.875307
0.579845
-0.364844
1.02594
0.257914
1.28385
2.41516
3.6452
2.34499
0.925082
2.27328
-0.412055
1.11203
2.06027
1.85454
-0.0403997
1.24064
-0.350956
1.54714
0.571842
-0.668639
-1.06578
0.385457
1.32987
0.716708
2.06708
2.10499
2.03962
1.382
1.06829
-0.191917
2.41156
0.460703
1.77608
0.24495
1.16876
2.25335
0.910453
-1.2838
0.634039
1.59276
0.59558
-0.880951
0.161988
-0.540057
1.17975
-1.57301
0.297451
2.96321
-0.0455277
2.48517
0.650819
-0.270499
-0.387767
2.05069
-0.379401
0.276979
1.8879
1.05023
0.792307
-0.785056
0.744992
-0.558512
0.536934
0.188365
-1.24589
0.0712636
-0.0532577
1.2943
0.155738
1.22621
2.76589
0.31764
0.248164
-0.669684
-0.868093
0.658088
2.32057
-0.704059
1.31715
-0.93465
1.93713
0.460725
1.46458
2.66957
2.82909
3.17027
4.94258
1.8057
6.09287
4.6837
4.46563
4.23021
3.07605
4.37256
0.777695
2.87451
2.65502
1.6964
3.56802
2.13181
0.265911
1.29274
1.88401
0.391629
2.14526
5.22129
2.26235
2.78971
3.03857
3.57171
4.80183
1.88458
3.17507
1.29493
3.95426
3.42788
4.14508
0.675467
3.22582
2.56524
-0.661042
0.616334
1.68189
1.15073
3.14983
5.85308
2.70034
2.60326
4.72357
3.50139
2.89474
2.81027
3.62599
2.6706
3.11279
3.07099
1.89332
3.31791
3.77098
0.855515
0.730479
2.23551
4.1254
2.01594
-0.0512731
2.1536
0.826089
2.39686
1.5306
3.99001
1.14807
3.52427
4.03863
2.78824
1.86233
1.84879
4.03179
0.989874
3.04085
0.8184
0.194549
3.74519
-0.359033
2.58883
1.67623
1.73686
3.55601
1.52481
0.737948
1.91795
3.90418
0.914311
1.59775
4.00826
0.958189
2.72775
1.66354
1.55233
0.986837
0.769185
-0.148511
1.47384
1.24286
1.39181
0.99626
0.680822
1.49205
1.48122
1.73194
0.686329
1.52165
1.60469
1.3531
2.64898
0.793949
2.11125
1.32412
1.08641
1.70511
0.514977
-0.224085
1.94066
-1.04951
3.29075
0.492558
0.531792
1.60472
0.983717
0.836513
0.360934
1.18158
-1.09799
0.321766
1.20968
0.310849
1.24438
2.45661
2.38682
2.4912
-0.605405
-0.229047
0.757661
-1.04701
1.18546
0.398036
-0.816127
-0.250689
0.984809
-0.157399
0.653374
1.65715
1.09764
0.562803
0.902451
1.96504
1.26786
1.35337
1.50068
-1.67788
1.55966
1.18157
)
;

boundaryField
{
    hotSide
    {
        type            calculated;
        value           nonuniform List<scalar> 
400
(
-3.77288
-5.06602
-0.834752
-3.04745
-2.44611
-2.68002
-3.64757
-3.79608
-5.51286
-3.24174
-3.15094
-1.15916
-4.11283
-1.66073
-1.77383
-0.111283
-0.440195
-0.139146
1.14968
1.56091
-0.997743
-1.88793
-0.699404
-0.110936
-0.50417
-1.9589
-3.03812
-2.35988
-1.2868
-2.13248
-1.06959
-1.99035
-2.65092
-2.10164
-2.15632
0.167149
0.826067
1.17098
-0.386467
2.58308
-0.285946
1.45729
0.556416
1.59153
0.788032
-1.18159
0.530099
-1.17389