/*--------------------------------*- C++ -*----------------------------------*\
| =========                 |                                                 |
| \\      /  F ield         | OpenFOAM: The Open Source CFD Toolbox           |
|  \\    /   O peration     | Version:  2212                                  |
|   \\  /    A nd           | Website:  www.openfoam.com                      |
|    \\/     M anipulation  |                                                 |
\*---------------------------------------------------------------------------*/
FoamFile
{
    version     2.0;
    format      ascii;
    arch        "LSB;label=32;scalar=64";
    class       volScalarField;
    location    "./ITHACAoutput/true/3.8";
    object      trueState;
}
// * * * * * * * * * * * * * * * * * * * * * * * * * * * * * * * * * * * * * //

dimensions      [0 0 0 1 0 0 0];

internalField   nonuniform List<scalar> 
3200
(
344.635
345.49
346.583
347.773
348.999
350.203
351.314
352.252
352.935
353.296
353.296
352.935
352.252
351.314
350.203
348.999
347.773
346.583
345.49
344.635
338.704
339.428
340.371
341.401
342.462
343.503
344.463
345.273
345.863
346.175
346.175
345.863
345.273
344.463
343.503
342.462
341.401
340.371
339.428
338.704
332.766
333.367
334.16
335.031
335.927
336.807
337.618
338.302
338.799
339.062
339.062
338.799
338.302
337.618
336.807
335.927
335.031
334.16
333.367
332.766
326.821
327.305
327.952
328.663
329.396
330.115
330.777
331.335
331.742
331.956
331.956
331.742
331.335
330.777
330.115
329.396
328.663
327.952
327.305
326.821
320.872
321.243
321.745
322.298
322.867
323.426
323.94
324.374
324.689
324.856
324.856
324.689
324.374
323.94
323.426
322.867
322.298
321.745
321.243
320.872
314.918
315.181
315.539
315.933
316.34
316.739
317.106
317.416
317.641
317.76
317.76
317.641
317.416
317.106
316.739
316.34
315.933
315.539
315.181
314.918
308.962
309.119
309.334
309.57
309.815
310.054
310.275
310.46
310.595
310.667
310.667
310.595
310.46
310.275
310.054
309.815
309.57
309.334
309.119
308.962
303.004
303.057
303.129
303.208
303.29
303.37
303.444
303.506
303.551
303.575
303.575
303.551
303.506
303.444
303.37
303.29
303.208
303.129
303.057
303.004
344.758
345.607
346.69
347.869
349.083
350.273
351.371
352.297
352.971
353.327
353.327
352.971
352.297
351.371
350.273
349.083
347.869
346.69
345.607
344.758
338.81
339.529
340.463
341.483
342.534
343.563
344.513
345.313
345.895
346.203
346.203
345.895
345.313
344.513
343.563
342.534
341.483
340.463
339.529
338.81
332.856
333.452
334.239
335.101
335.988
336.858
337.66
338.335
338.826
339.086
339.086
338.826
338.335
337.66
336.858
335.988
335.101
334.239
333.452
332.856
326.894
327.374
328.016
328.72
329.446
330.157
330.812
331.363
331.764
331.976
331.976
331.764
331.363
330.812
330.157
329.446
328.72
328.016
327.374
326.894
320.929
321.297
321.795
322.342
322.906
323.458
323.967
324.395
324.707
324.871
324.871
324.707
324.395
323.967
323.458
322.906
322.342
321.795
321.297
320.929
314.959
315.22
315.574
315.965
316.368
316.762
317.126
317.431
317.653
317.771
317.771
317.653
317.431
317.126
316.762
316.368
315.965
315.574
315.22
314.959
308.986
309.142
309.355
309.59
309.831
310.068
310.286
310.47
310.603
310.673
310.673
310.603
310.47
310.286
310.068
309.831
309.59
309.355
309.142
308.986
303.013
303.065
303.136
303.214
303.295
303.375
303.448
303.509
303.554
303.578
303.578
303.554
303.509
303.448
303.375
303.295
303.214
303.136
303.065
303.013
345.005
345.84
346.905
348.062
349.251
350.416
351.488
352.392
353.049
353.396
353.396
353.049
352.392
351.488
350.416
349.251
348.062
346.905
345.84
345.005
339.024
339.731
340.649
341.651
342.68
343.687
344.615
345.395
345.963
346.262
346.262
345.963
345.395
344.615
343.687
342.68
341.651
340.649
339.731
339.024
333.036
333.622
334.396
335.242
336.112
336.963
337.746
338.405
338.884
339.137
339.137
338.884
338.405
337.746
336.963
336.112
335.242
334.396
333.622
333.036
327.042
327.514
328.144
328.836
329.547
330.243
330.882
331.421
331.812
332.018
332.018
331.812
331.421
330.882
330.243
329.547
328.836
328.144
327.514
327.042
321.043
321.405
321.894
322.432
322.985
323.525
324.022
324.44
324.744
324.904
324.904
324.744
324.44
324.022
323.525
322.985
322.432
321.894
321.405
321.043
315.04
315.297
315.646
316.029
316.424
316.81
317.165
317.463
317.68
317.794
317.794
317.68
317.463
317.165
316.81
316.424
316.029
315.646
315.297
315.04
309.035
309.189
309.398
309.628
309.865
310.097
310.31
310.489
310.619
310.687
310.687
310.619
310.489
310.31
310.097
309.865
309.628
309.398
309.189
309.035
303.029
303.08
303.15
303.227
303.307
303.384
303.456
303.516
303.559
303.582
303.582
303.559
303.516
303.456
303.384
303.307
303.227
303.15
303.08
303.029
345.377
346.193
347.231
348.357
349.511
350.638
351.674
352.545
353.178
353.511
353.511
353.178
352.545
351.674
350.638
349.511
348.357
347.231
346.193
345.377
339.346
340.036
340.931
341.906
342.905
343.88
344.776
345.529
346.075
346.363
346.363
346.075
345.529
344.776
343.88
342.905
341.906
340.931
340.036
339.346
333.307
333.88
334.634
335.458
336.302
337.126
337.883
338.518
338.98
339.223
339.223
338.98
338.518
337.883
337.126
336.302
335.458
334.634
333.88
333.307
327.264
327.725
328.34
329.012
329.703
330.376
330.994
331.513
331.89
332.088
332.088
331.89
331.513
330.994
330.376
329.703
329.012
328.34
327.725
327.264
321.215
321.569
322.046
322.569
323.106
323.629
324.109
324.513
324.805
324.959
324.959
324.805
324.513
324.109
323.629
323.106
322.569
322.046
321.569
321.215
315.163
315.414
315.754
316.127
316.511
316.884
317.227
317.515
317.724
317.834
317.834
317.724
317.515
317.227
316.884
316.511
316.127
315.754
315.414
315.163
309.109
309.259
309.463
309.687
309.917
310.141
310.347
310.52
310.645
310.711
310.711
310.645
310.52
310.347
310.141
309.917
309.687
309.463
309.259
309.109
303.054
303.104
303.172
303.247
303.324
303.399
303.468
303.526
303.568
303.59
303.59
303.568
303.526
303.468
303.399
303.324
303.247
303.172
303.104
303.054
345.878
346.669
347.672
348.758
349.868
350.948
351.938
352.768
353.37
353.687
353.687
353.37
352.768
351.938
350.948
349.868
348.758
347.672
346.669
345.878
339.779
340.448
341.314
342.253
343.214
344.149
345.005
345.723
346.243
346.516
346.516
346.243
345.723
345.005
344.149
343.214
342.253
341.314
340.448
339.779
333.673
334.228
334.957
335.751
336.563
337.353
338.077
338.683
339.122
339.353
339.353
339.122
338.683
338.077
337.353
336.563
335.751
334.957
334.228
333.673
327.562
328.009
328.604
329.252
329.916
330.562
331.153
331.648
332.007
332.195
332.195
332.007
331.648
331.153
330.562
329.916
329.252
328.604
328.009
327.562
321.447
321.79
322.251
322.756
323.272
323.774
324.233
324.618
324.896
325.043
325.043
324.896
324.618
324.233
323.774
323.272
322.756
322.251
321.79
321.447
315.329
315.572
315.901
316.261
316.629
316.988
317.316
317.59
317.789
317.894
317.894
317.789
317.59
317.316
316.988
316.629
316.261
315.901
315.572
315.329
309.209
309.354
309.551
309.767
309.988
310.204
310.4
310.565
310.684
310.747
310.747
310.684
310.565
310.4
310.204
309.988
309.767
309.551
309.354
309.209
303.087
303.135
303.201
303.274
303.348
303.42
303.486
303.541
303.581
303.602
303.602
303.581
303.541
303.486
303.42
303.348
303.274
303.201
303.135
303.087
346.51
347.271
348.234
349.273
350.33
351.356
352.292
353.076
353.642
353.94
353.94
353.642
353.076
352.292
351.356
350.33
349.273
348.234
347.271
346.51
340.325
340.969
341.8
342.699
343.614
344.502
345.312
345.989
346.479
346.736
346.736
346.479
345.989
345.312
344.502
343.614
342.699
341.8
340.969
340.325
334.134
334.668
335.368
336.128
336.902
337.652
338.337
338.909
339.322
339.54
339.54
339.322
338.909
338.337
337.652
336.902
336.128
335.368
334.668
334.134
327.939
328.369
328.939
329.56
330.193
330.807
331.366
331.834
332.171
332.349
332.349
332.171
331.834
331.366
330.807
330.193
329.56
328.939
328.369
327.939
321.739
322.07
322.513
322.995
323.487
323.964
324.399
324.762
325.024
325.162
325.162
325.024
324.762
324.399
323.964
323.487
322.995
322.513
322.07
321.739
315.538
315.771
316.087
316.432
316.783
317.124
317.434
317.693
317.881
317.979
317.979
317.881
317.693
317.434
317.124
316.783
316.432
316.087
315.771
315.538
309.334
309.473
309.663
309.87
310.081
310.285
310.472
310.627
310.74
310.799
310.799
310.74
310.627
310.472
310.285
310.081
309.87
309.663
309.473
309.334
303.129
303.176
303.239
303.308
303.379
303.448
303.51
303.562
303.6
303.62
303.62
303.6
303.562
303.51
303.448
303.379
303.308
303.239
303.176
303.129
347.277
348.005
348.922
349.908
350.907
351.873
352.751
353.483
354.01
354.287
354.287
354.01
353.483
352.751
351.873
350.907
349.908
348.922
348.005
347.277
340.988
341.604
342.395
343.248
344.114
344.949
345.709
346.342
346.799
347.038
347.038
346.799
346.342
345.709
344.949
344.114
343.248
342.395
341.604
340.988
334.694
335.205
335.872
336.593
337.324
338.031
338.673
339.208
339.593
339.796
339.796
339.593
339.208
338.673
338.031
337.324
336.593
335.872
335.205
334.694
328.396
328.807
329.351
329.94
330.538
331.116
331.641
332.078
332.393
332.558
332.558
332.393
332.078
331.641
331.116
330.538
329.94
329.351
328.807
328.396
322.095
322.41
322.832
323.29
323.756
324.205
324.613
324.952
325.197
325.325
325.325
325.197
324.952
324.613
324.205
323.756
323.29
322.832
322.41
322.095
315.791
316.015
316.315
316.643
316.975
317.296
317.587
317.83
318.004
318.096
318.096
318.004
317.83
317.587
317.296
316.975
316.643
316.315
316.015
315.791
309.486
309.619
309.8
309.996
310.196
310.388
310.563
310.709
310.814
310.869
310.869
310.814
310.709
310.563
310.388
310.196
309.996
309.8
309.619
309.486
303.18
303.225
303.285
303.351
303.418
303.482
303.541
303.59
303.625
303.643
303.643
303.625
303.59
303.541
303.482
303.418
303.351
303.285
303.225
303.18
348.182
348.874
349.743
350.671
351.609
352.51
353.327
354.005
354.492
354.748
354.748
354.492
354.005
353.327
352.51
351.609
350.671
349.743
348.874
348.182
341.771
342.356
343.105
343.909
344.721
345.502
346.208
346.795
347.217
347.438
347.438
347.217
346.795
346.208
345.502
344.721
343.909
343.105
342.356
341.771
335.355
335.84
336.472
337.151
337.838
338.498
339.095
339.591
339.947
340.134
340.134
339.947
339.591
339.095
338.498
337.838
337.151
336.472
335.84
335.355
328.936
329.326
329.841
330.397
330.958
331.498
331.987
332.392
332.683
332.835
332.835
332.683
332.392
331.987
331.498
330.958
330.397
329.841
329.326
328.936
322.514
322.814
323.213
323.645
324.082
324.502
324.881
325.196
325.423
325.541
325.541
325.423
325.196
324.881
324.502
324.082
323.645
323.213
322.814
322.514
316.091
316.303
316.588
316.896
317.208
317.508
317.779
318.004
318.165
318.25
318.25
318.165
318.004
317.779
317.508
317.208
316.896
316.588
316.303
316.091
309.666
309.792
309.963
310.148
310.336
310.516
310.679
310.814
310.911
310.961
310.961
310.911
310.814
310.679
310.516
310.336
310.148
309.963
309.792
309.666
303.24
303.283
303.34
303.402
303.465
303.525
303.58
303.625
303.657
303.674
303.674
303.657
303.625
303.58
303.525
303.465
303.402
303.34
303.283
303.24
349.231
349.884
350.701
351.571
352.444
353.28
354.034
354.657
355.104
355.337
355.337
355.104
354.657
354.034
353.28
352.444
351.571
350.701
349.884
349.231
342.677
343.23
343.935
344.688
345.444
346.168
346.821
347.36
347.747
347.949
347.949
347.747
347.36
346.821
346.168
345.444
344.688
343.935
343.23
342.677
336.12
336.579
337.173
337.809
338.449
339.062
339.613
340.069
340.396
340.567
340.567
340.396
340.069
339.613
339.062
338.449
337.809
337.173
336.579
336.12
329.561
329.93
330.414
330.935
331.458
331.959
332.41
332.783
333.05
333.19
333.19
333.05
332.783
332.41
331.959
331.458
330.935
330.414
329.93
329.561
323
323.283
323.659
324.064
324.471
324.86
325.211
325.501
325.708
325.817
325.817
325.708
325.501
325.211
324.86
324.471
324.064
323.659
323.283
323
316.437
316.638
316.906
317.195
317.486
317.764
318.014
318.221
318.37
318.447
318.447
318.37
318.221
318.014
317.764
317.486
317.195
316.906
316.638
316.437
309.874
309.994
310.154
310.328
310.502
310.67
310.82
310.944
311.033
311.08
311.08
311.033
310.944
310.82
310.67
310.502
310.328
310.154
309.994
309.874
303.31
303.35
303.404
303.462
303.52
303.576
303.627
303.669
303.698
303.714
303.714
303.698
303.669
303.627
303.576
303.52
303.462
303.404
303.35
303.31
350.426
351.04
351.805
352.614
353.423
354.193
354.884
355.454
355.86
356.073
356.073
355.86
355.454
354.884
354.193
353.423
352.614
351.805
351.04
350.426
343.711
344.23
344.89
345.591
346.291
346.959
347.557
348.05
348.402
348.586
348.586
348.402
348.05
347.557
346.959
346.291
345.591
344.89
344.23
343.711
336.993
337.424
337.98
338.573
339.165
339.73
340.236
340.653
340.95
341.106
341.106
340.95
340.653
340.236
339.73
339.165
338.573
337.98
337.424
336.993
330.274
330.621
331.074
331.559
332.044
332.505
332.919
333.26
333.503
333.63
333.63
333.503
333.26
332.919
332.505
332.044
331.559
331.074
330.621
330.274
323.554
323.82
324.172
324.549
324.926
325.285
325.607
325.872
326.061
326.16
326.16
326.061
325.872
325.607
325.285
324.926
324.549
324.172
323.82
323.554
316.833
317.021
317.272
317.541
317.811
318.067
318.297
318.486
318.622
318.692
318.692
318.622
318.486
318.297
318.067
317.811
317.541
317.272
317.021
316.833
310.111
310.224
310.374
310.536
310.698
310.852
310.99
311.103
311.185
311.227
311.227
311.185
311.103
310.99
310.852
310.698
310.536
310.374
310.224
310.111
303.39
303.427
303.477
303.532
303.586
303.637
303.684
303.722
303.749
303.763
303.763
303.749
303.722
303.684
303.637
303.586
303.532
303.477
303.427
303.39
351.772
352.346
353.058
353.808
354.553
355.259
355.889
356.406
356.774
356.966
356.966
356.774
356.406
355.889
355.259
354.553
353.808
353.058
352.346
351.772
344.875
345.36
345.975
346.624
347.27
347.881
348.427
348.875
349.194
349.36
349.36
349.194
348.875
348.427
347.881
347.27
346.624
345.975
345.36
344.875
337.976
338.379
338.897
339.446
339.992
340.509
340.971
341.35
341.62
341.76
341.76
341.62
341.35
340.971
340.509
339.992
339.446
338.897
338.379
337.976
331.077
331.401
331.824
332.273
332.72
333.143
333.521
333.83
334.051
334.166
334.166
334.051
333.83
333.521
333.143
332.72
332.273
331.824
331.401
331.077
324.178
324.427
324.754
325.103
325.451
325.78
326.074
326.315
326.486
326.576
326.576
326.486
326.315
326.074
325.78
325.451
325.103
324.754
324.427
324.178
317.279
317.455
317.688
317.937
318.186
318.421
318.631
318.803
318.926
318.989
318.989
318.926
318.803
318.631
318.421
318.186
317.937
317.688
317.455
317.279
310.379
310.484
310.624
310.774
310.923
311.064
311.19
311.294
311.367
311.405
311.405
311.367
311.294
311.19
311.064
310.923
310.774
310.624
310.484
310.379
303.479
303.514
303.561
303.611
303.661
303.709
303.751
303.786
303.81
303.823
303.823
303.81
303.786
303.751
303.709
303.661
303.611
303.561
303.514
303.479
353.273
353.807
354.467
355.158
355.842
356.486
357.058
357.525
357.857
358.029
358.029
357.857
357.525
357.058
356.486
355.842
355.158
354.467
353.807
353.273
346.172
346.624
347.194
347.793
348.385
348.943
349.439
349.843
350.131
350.28
350.28
350.131
349.843
349.439
348.943
348.385
347.793
347.194
346.624
346.172
339.072
339.447
339.927
340.433
340.935
341.407
341.826
342.169
342.412
342.538
342.538
342.412
342.169
341.826
341.407
340.935
340.433
339.927
339.447
339.072
331.973
332.275
332.666
333.08
333.49
333.876
334.219
334.5
334.698
334.802
334.802
334.698
334.5
334.219
333.876
333.49
333.08
332.666
332.275
331.973
324.874
325.105
325.409
325.731
326.05
326.351
326.617
326.835
326.99
327.07
327.07
326.99
326.835
326.617
326.351
326.05
325.731
325.409
325.105
324.874
317.775
317.939
318.156
318.386
318.614
318.828
319.019
319.175
319.285
319.343
319.343
319.285
319.175
319.019
318.828
318.614
318.386
318.156
317.939
317.775
310.677
310.775
310.905
311.043
311.18
311.309
311.423
311.517
311.583
311.618
311.618
311.583
311.517
311.423
311.309
311.18
311.043
310.905
310.775
310.677
303.579
303.612
303.655
303.702
303.747
303.791
303.829
303.86
303.883
303.894
303.894
303.883
303.86
303.829
303.791
303.747
303.702
303.655
303.612
303.579
354.93
355.426
356.035
356.67
357.294
357.879
358.397
358.818
359.115
359.27
359.27
359.115
358.818
358.397
357.879
357.294
356.67
356.035
355.426
354.93
347.605
348.025
348.551
349.101
349.642
350.149
350.597
350.962
351.22
351.354
351.354
351.22
350.962
350.597
350.149
349.642
349.101
348.551
348.025
347.605
340.283
340.631
341.074
341.539
341.997
342.426
342.806
343.114
343.333
343.446
343.446
343.333
343.114
342.806
342.426
341.997
341.539
341.074
340.631
340.283
332.962
333.242
333.603
333.984
334.358
334.71
335.02
335.273
335.451
335.544
335.544
335.451
335.273
335.02
334.71
334.358
333.984
333.603
333.242
332.962
325.642
325.857
326.138
326.434
326.725
326.998
327.24
327.436
327.575
327.647
327.647
327.575
327.436
327.24
326.998
326.725
326.434
326.138
325.857
325.642
318.324
318.476
318.676
318.887
319.096
319.291
319.464
319.604
319.703
319.755
319.755
319.703
319.604
319.464
319.291
319.096
318.887
318.676
318.476
318.324
311.006
311.097
311.217
311.344
311.469
311.587
311.69
311.774
311.834
311.865
311.865
311.834
311.774
311.69
311.587
311.469
311.344
311.217
311.097
311.006
303.689
303.72
303.76
303.802
303.844
303.884
303.919
303.947
303.967
303.977
303.977
303.967
303.947
303.919
303.884
303.844
303.802
303.76
303.72
303.689
356.746
357.204
357.765
358.347
358.915
359.445
359.911
360.289
360.556
360.694
360.694
360.556
360.289
359.911
359.445
358.915
358.347
357.765
357.204
356.746
349.176
349.564
350.048
350.551
351.044
351.504
351.908
352.236
352.467
352.586
352.586
352.467
352.236
351.908
351.504
351.044
350.551
350.048
349.564
349.176
341.609
341.931
342.339
342.765
343.182
343.571
343.913
344.19
344.386
344.487
344.487
344.386
344.19
343.913
343.571
343.182
342.765
342.339
341.931
341.609
334.046
334.304
334.637
334.985
335.327
335.645
335.925
336.152
336.312
336.395
336.395
336.312
336.152
335.925
335.645
335.327
334.985
334.637
334.304
334.046
326.484
326.683
326.941
327.212
327.478
327.725
327.943
328.12
328.244
328.309
328.309
328.244
328.12
327.943
327.725
327.478
327.212
326.941
326.683
326.484
318.925
319.066
319.25
319.443
319.633
319.81
319.966
320.092
320.181
320.227
320.227
320.181
320.092
319.966
319.81
319.633
319.443
319.25
319.066
318.925
311.367
311.451
311.562
311.678
311.792
311.898
311.992
312.067
312.121
312.149
312.149
312.121
312.067
311.992
311.898
311.792
311.678
311.562
311.451
311.367
303.81
303.838
303.875
303.914
303.953
303.988
304.02
304.045
304.063
304.072
304.072
304.063
304.045
304.02
303.988
303.953
303.914
303.875
303.838
303.81
358.719
359.142
359.657
360.188
360.704
361.183
361.603
361.941
362.179
362.302
362.302
362.179
361.941
361.603
361.183
360.704
360.188
359.657
359.142
358.719
350.882
351.239
351.684
352.144
352.592
353.007
353.371
353.664
353.871
353.977
353.977
353.871
353.664
353.371
353.007
352.592
352.144
351.684
351.239
350.882
343.05
343.346
343.721
344.11
344.489
344.841
345.149
345.397
345.572
345.662
345.662
345.572
345.397
345.149
344.841
344.489
344.11
343.721
343.346
343.05
335.222
335.461
335.766
336.085
336.395
336.683
336.935
337.138
337.281
337.355
337.355
337.281
337.138
336.935
336.683
336.395
336.085
335.766
335.461
335.222
327.398
327.582
327.819
328.066
328.308
328.532
328.728
328.886
328.997
329.055
329.055
328.997
328.886
328.728
328.532
328.308
328.066
327.819
327.582
327.398
319.578
319.707
319.876
320.053
320.226
320.386
320.526
320.639
320.719
320.76
320.76
320.719
320.639
320.526
320.386
320.226
320.053
319.876
319.707
319.578
311.759
311.836
311.938
312.044
312.148
312.244
312.328
312.396
312.444
312.468
312.468
312.444
312.396
312.328
312.244
312.148
312.044
311.938
311.836
311.759
303.942
303.967
304.001
304.037
304.072
304.104
304.132
304.155
304.171
304.179
304.179
304.171
304.155
304.132
304.104
304.072
304.037
304.001
303.967
303.942
360.842
361.231
361.703
362.187
362.656
363.088
363.465
363.768
363.98
364.09
364.09
363.98
363.768
363.465
363.088
362.656
362.187
361.703
361.231
360.842
352.716
353.046
353.453
353.872
354.278
354.653
354.98
355.243
355.427
355.522
355.522
355.427
355.243
354.98
354.653
354.278
353.872
353.453
353.046
352.716
344.598
344.871
345.214
345.569
345.913
346.23
346.507
346.729
346.885
346.966
346.966
346.885
346.729
346.507
346.23
345.913
345.569
345.214
344.871
344.598
336.486
336.706
336.986
337.276
337.557
337.817
338.044
338.226
338.354
338.419
338.419
338.354
338.226
338.044
337.817
337.557
337.276
336.986
336.706
336.486
328.38
328.548
328.766
328.991
329.21
329.413
329.589
329.731
329.83
329.881
329.881
329.83
329.731
329.589
329.413
329.21
328.991
328.766
328.548
328.38
320.278
320.397
320.552
320.713
320.87
321.015
321.141
321.242
321.313
321.35
321.35
321.313
321.242
321.141
321.015
320.87
320.713
320.552
320.397
320.278
312.179
312.25
312.343
312.44
312.534
312.621
312.697
312.758
312.8
312.822
312.822
312.8
312.758
312.697
312.621
312.534
312.44
312.343
312.25
312.179
304.082
304.106
304.137
304.17
304.201
304.23
304.256
304.276
304.291
304.298
304.298
304.291
304.276
304.256
304.23
304.201
304.17
304.137
304.106
304.082
363.094
363.452
363.884
364.325
364.749
365.139
365.477
365.749
365.938
366.036
366.036
365.938
365.749
365.477
365.139
364.749
364.325
363.884
363.452
363.094
354.658
354.961
355.334
355.716
356.084
356.422
356.716
356.951
357.116
357.2
357.2
357.116
356.951
356.716
356.422
356.084
355.716
355.334
354.961
354.658
346.234
346.485
346.799
347.123
347.434
347.721
347.97
348.169
348.308
348.38
348.38
348.308
348.169
347.97
347.721
347.434
347.123
346.799
346.485
346.234
337.82
338.022
338.278
338.543
338.798
339.033
339.236
339.399
339.513
339.572
339.572
339.513
339.399
339.236
339.033
338.798
338.543
338.278
338.022
337.82
329.414
329.569
329.768
329.974
330.173
330.355
330.514
330.641
330.73
330.775
330.775
330.73
330.641
330.514
330.355
330.173
329.974
329.768
329.569
329.414
321.015
321.125
321.267
321.414
321.556
321.687
321.8
321.891
321.954
321.987
321.987
321.954
321.891
321.8
321.687
321.556
321.414
321.267
321.125
321.015
312.621
312.687
312.772
312.86
312.946
313.024
313.092
313.147
313.185
313.205
313.205
313.185
313.147
313.092
313.024
312.946
312.86
312.772
312.687
312.621
304.231
304.252
304.281
304.311
304.339
304.365
304.388
304.407
304.419
304.426
304.426
304.419
304.407
304.388
304.365
304.339
304.311
304.281
304.252
304.231
365.416
365.745
366.141
366.543
366.929
367.281
367.586
367.829
367.999
368.086
368.086
367.999
367.829
367.586
367.281
366.929
366.543
366.141
365.745
365.416
356.651
356.93
357.272
357.621
357.955
358.261
358.526
358.737
358.884
358.96
358.96
358.884
358.737
358.526
358.261
357.955
357.621
357.272
356.93
356.651
347.906
348.137
348.426
348.721
349.004
349.264
349.488
349.667
349.792
349.856
349.856
349.792
349.667
349.488
349.264
349.004
348.721
348.426
348.137
347.906
339.178
339.364
339.599
339.841
340.073
340.286
340.47
340.616
340.718
340.771
340.771
340.718
340.616
340.47
340.286
340.073
339.841
339.599
339.364
339.178
330.465
330.607
330.79
330.978
331.159
331.324
331.467
331.582
331.661
331.702
331.702
331.661
331.582
331.467
331.324
331.159
330.978
330.79
330.607
330.465
321.763
321.864
321.994
322.128
322.258
322.376
322.478
322.56
322.617
322.646
322.646
322.617
322.56
322.478
322.376
322.258
322.128
321.994
321.864
321.763
313.069
313.129
313.207
313.288
313.366
313.437
313.498
313.547
313.582
313.599
313.599
313.582
313.547
313.498
313.437
313.366
313.288
313.207
313.129
313.069
304.38
304.4
304.427
304.454
304.48
304.504
304.524
304.541
304.552
304.558
304.558
304.552
304.541
304.524
304.504
304.48
304.454
304.427
304.4
304.38
367.658
367.963
368.328
368.697
369.05
369.371
369.648
369.868
370.021
370.1
370.1
370.021
369.868
369.648
369.371
369.05
368.697
368.328
367.963
367.658
358.553
358.811
359.126
359.447
359.754
360.033
360.274
360.465
360.599
360.667
360.667
360.599
360.465
360.274
360.033
359.754
359.447
359.126
358.811
358.553
349.485
349.699
349.965
350.237
350.497
350.734
350.938
351.101
351.214
351.272
351.272
351.214
351.101
350.938
350.734
350.497
350.237
349.965
349.699
349.485
340.449
340.621
340.838
341.061
341.275
341.469
341.636
341.77
341.862
341.91
341.91
341.862
341.77
341.636
341.469
341.275
341.061
340.838
340.621
340.449
331.44
331.572
331.741
331.914
332.081
332.232
332.363
332.467
332.539
332.576
332.576
332.539
332.467
332.363
332.232
332.081
331.914
331.741
331.572
331.44
322.452
322.546
322.666
322.791
322.909
323.018
323.111
323.186
323.237
323.264
323.264
323.237
323.186
323.111
323.018
322.909
322.791
322.666
322.546
322.452
313.48
313.536
313.608
313.683
313.755
313.82
313.876
313.921
313.952
313.968
313.968
313.952
313.921
313.876
313.82
313.755
313.683
313.608
313.536
313.48
304.518
304.536
304.561
304.586
304.61
304.631
304.65
304.665
304.676
304.681
304.681
304.676
304.665
304.65
304.631
304.61
304.586
304.561
304.536
304.518
369.424
369.711
370.054
370.401
370.73
371.03
371.288
371.492
371.634
371.707
371.707
371.634
371.492
371.288
371.03
370.73
370.401
370.054
369.711
369.424
359.994
360.237
360.534
360.837
361.124
361.386
361.61
361.789
361.913
361.976
361.976
361.913
361.789
361.61
361.386
361.124
360.837
360.534
360.237
359.994
350.643
350.845
351.097
351.354
351.599
351.821
352.012
352.164
352.27
352.324
352.324
352.27
352.164
352.012
351.821
351.599
351.354
351.097
350.845
350.643
341.358
341.521
341.727
341.938
342.139
342.322
342.479
342.604
342.69
342.735
342.735
342.69
342.604
342.479
342.322
342.139
341.938
341.727
341.521
341.358
332.124
332.25
332.41
332.574
332.731
332.874
332.997
333.094
333.162
333.197
333.197
333.162
333.094
332.997
332.874
332.731
332.574
332.41
332.25
332.124
322.93
323.019
323.133
323.251
323.363
323.465
323.553
323.623
323.672
323.696
323.696
323.672
323.623
323.553
323.465
323.363
323.251
323.133
323.019
322.93
313.762
313.816
313.884
313.955
314.023
314.084
314.137
314.179
314.208
314.223
314.223
314.208
314.179
314.137
314.084
314.023
313.955
313.884
313.816
313.762
304.611
304.629
304.652
304.676
304.699
304.719
304.737
304.751
304.761
304.766
304.766
304.761
304.751
304.737
304.719
304.699
304.676
304.652
304.629
304.611
)
;

boundaryField
{
    hotSide
    {
        type            fixedGradient;
        gradient        nonuniform List<scalar> 
400
(
473.742
475.091
477.799
481.883
487.368
494.287
502.676
512.574
524.022
537.062
551.733
568.073
586.117
605.894
627.432
650.755
675.881
702.826
731.603
762.221
484.999
486.259
488.792
492.621
497.781
504.312
512.264
521.687
532.635
545.16
559.311
575.135
592.673
611.962
633.033
655.912
680.621
707.176
735.59
765.873
497.182
498.336
500.66
504.187
508.96
515.036
522.476
531.348
541.719
553.654
567.216
582.459
599.433
618.182
638.741
661.138
685.398
711.536
739.566
769.495
510.089
511.119
513.201
516.377
520.705
526.257
533.115
541.363
551.085
562.363
575.272
589.879
606.243
624.41
644.423
666.311
690.099
715.804
743.437
773.005
523.359
524.25
526.059
528.842
532.674
537.647
543.864
551.429
560.449
571.021
583.235
597.17
612.893
630.458
649.908
671.277
694.589
719.858
747.096
776.306
536.439
537.18
538.699
541.064
544.37
548.732
554.276
561.132
569.425
579.274
590.783
604.042
619.125
636.093
654.992
675.856
698.707
723.559
750.421
779.293
548.579
549.172
550.401
552.35
555.135
558.895
563.782
569.948
577.542
586.698
597.537
610.158
624.644
641.058
659.449
679.85
702.283
726.759
753.284
781.855
558.883
559.341
560.309
561.885
564.204
567.429
571.733
577.292
584.273
592.828
603.088
615.163
629.14
645.085
663.049
683.064
705.149
729.315
755.562
783.887
566.424
566.779
567.547
568.838
570.803
573.621
577.485
582.588
589.111
597.218
607.05
618.722
632.326
647.93
665.584
685.32
707.155
731.099
757.149
785.298
570.42
570.718
571.377
572.513
574.286
576.884
580.51
585.367
591.644
599.512
609.115
620.574
633.98
649.404
666.895
686.484
708.189
732.016
757.963
786.022
570.42
570.718
571.377
572.513
574.286
576.884
580.51
585.367
591.644
599.512
609.115
620.574
633.98
649.404
666.895
686.484
708.189
732.016
757.963
786.022
566.424
566.779
567.547
568.838
570.803
573.621
577.485
582.588
589.111
597.218
607.05
618.722
632.326
647.93
665.584
685.32
707.155
731.099
757.149
785.298
558.883
559.341
560.309
561.885
564.204
567.429
571.733
577.292
584.273
592.828
603.088
615.163
629.14
645.085
663.049
683.064
705.149
729.315
755.562
783.887
548.579
549.172
550.401
552.35
555.135
558.895
563.782
569.948
577.542
586.698
597.537
610.158
624.644
641.058
659.449
679.85
702.283
726.759
753.284
781.855
536.439
537.18
538.699
541.064
544.37
548.732
554.276
561.132
569.425
579.274
590.783
604.042
619.125
636.093
654.992
675.856
698.707
723.559
750.421
779.293
523.359
524.25
526.059
528.842
532.674
537.647
543.864
551.429
560.449
571.021
583.235
597.17
612.893
630.458
649.908
671.277
694.589
719.858
747.096
776.306
510.089
511.119
513.201
516.377
520.705
526.257
533.115
541.363
551.085
562.363
575.272
589.879
606.243
624.41
644.423
666.311
690.099
715.804
743.437
773.005
497.182
498.336
500.66
504.187
508.96
515.036
522.476
531.348
541.719
553.654
567.216
582.459
599.433
618.182
638.741
661.138
685.398
711.536
739.566
769.495
484.999
486.259
488.792
492.621
497.781
504.312
512.264
521.687
532.635
545.16
559.311
575.135
592.673
611.962
633.033
655.912
680.621
707.176
735.59
765.873
473.742
475.091
477.799
481.883
487.368
494.287
502.676
512.574
524.022
537.062
551.733
568.073
586.117
605.894
627.432
650.755
675.881
702.826
731.603
762.221
)
;
    }
    coldSide
    {
        type            mixed;
        refValue        uniform 300;
        refGradient     uniform 0;
        valueFraction   uniform 0.991591;
        source          uniform 0;
        value           nonuniform List<scalar> 
400
(
300.025
300.025
300.025
300.026
300.026
300.026
300.027
300.027
300.028
300.029
300.029
300.03
300.031
300.032
300.033
300.034
300.036
300.037
300.038
300.039
300.026
300.026
300.026
300.026
300.026
300.027
300.027
300.028
300.028
300.029
300.03
300.03
300.031
300.032
300.033
300.035
300.036