/*--------------------------------*- C++ -*----------------------------------*\
| =========                 |                                                 |
| \\      /  F ield         | OpenFOAM: The Open Source CFD Toolbox           |
|  \\    /   O peration     | Version:  2212                                  |
|   \\  /    A nd           | Website:  www.openfoam.com                      |
|    \\/     M anipulation  |                                                 |
\*---------------------------------------------------------------------------*/
FoamFile
{
    version     2.0;
    format      ascii;
    arch        "LSB;label=32;scalar=64";
    class       volScalarField;
    location    "0";
    object      Tdirect;
}
// * * * * * * * * * * * * * * * * * * * * * * * * * * * * * * * * * * * * * //

dimensions      [0 0 0 1 0 0 0];

internalField   nonuniform List<scalar> 
3200
(
333.084
333.535
334.111
334.738
335.385
336.019
336.605
337.1
337.46
337.65
337.65
337.46
337.1
336.605
336.019
335.385
334.738
334.111
333.535
333.084
328.797
329.179
329.676
330.219
330.779
331.328
331.834
332.261
332.572
332.736
332.736
332.572
332.261
331.834
331.328
330.779
330.219
329.676
329.179
328.797
324.459
324.776
325.194
325.653
326.126
326.589
327.017
327.378
327.64
327.778
327.778
327.64
327.378
327.017
326.589
326.126
325.653
325.194
324.776
324.459
320.076
320.331
320.672
321.047
321.433
321.812
322.161
322.456
322.67
322.783
322.783
322.67
322.456
322.161
321.812
321.433
321.047
320.672
320.331
320.076
315.656
315.852
316.117
316.408
316.708
317.003
317.274
317.503
317.669
317.757
317.757
317.669
317.503
317.274
317.003
316.708
316.408
316.117
315.852
315.656
311.209
311.347
311.536
311.744
311.958
312.169
312.362
312.525
312.644
312.707
312.707
312.644
312.525
312.362
312.169
311.958
311.744
311.536
311.347
311.209
306.741
306.823
306.937
307.062
307.19
307.317
307.433
307.531
307.602
307.639
307.639
307.602
307.531
307.433
307.317
307.19
307.062
306.937
306.823
306.741
302.261
302.289
302.326
302.368
302.411
302.454
302.493
302.526
302.549
302.562
302.562
302.549
302.526
302.493
302.454
302.411
302.368
302.326
302.289
302.261
333.194
333.641
334.213
334.834
335.474
336.102
336.681
337.169
337.525
337.712
337.712
337.525
337.169
336.681
336.102
335.474
334.834
334.213
333.641
333.194
328.894
329.272
329.765
330.303
330.857
331.4
331.9
332.322
332.629
332.791
332.791
332.629
332.322
331.9
331.4
330.857
330.303
329.765
329.272
328.894
324.54
324.855
325.269
325.724
326.192
326.651
327.073
327.429
327.688
327.825
327.825
327.688
327.429
327.073
326.651
326.192
325.724
325.269
324.855
324.54
320.142
320.395
320.734
321.105
321.488
321.863
322.208
322.499
322.71
322.822
322.822
322.71
322.499
322.208
321.863
321.488
321.105
320.734
320.395
320.142
315.708
315.903
316.165
316.454
316.751
317.042
317.31
317.536
317.7
317.787
317.787
317.7
317.536
317.31
317.042
316.751
316.454
316.165
315.903
315.708
311.246
311.383
311.57
311.776
311.989
312.197
312.388
312.549
312.667
312.728
312.728
312.667
312.549
312.388
312.197
311.989
311.776
311.57
311.383
311.246
306.763
306.845
306.957
307.081
307.209
307.334
307.448
307.545
307.615
307.653
307.653
307.615
307.545
307.448
307.334
307.209
307.081
306.957
306.845
306.763
302.268
302.296
302.333
302.375
302.418
302.459
302.498
302.53
302.554
302.566
302.566
302.554
302.53
302.498
302.459
302.418
302.375
302.333
302.296
302.268
333.415
333.856
334.417
335.027
335.654
336.268
336.834
337.31
337.657
337.839
337.839
337.657
337.31
336.834
336.268
335.654
335.027
334.417
333.856
333.415
329.086
329.459
329.943
330.471
331.014
331.545
332.034
332.446
332.745
332.903
332.903
332.745
332.446
332.034
331.545
331.014
330.471
329.943
329.459
329.086
324.704
325.013
325.421
325.867
326.326
326.775
327.187
327.535
327.787
327.921
327.921
327.787
327.535
327.187
326.775
326.326
325.867
325.421
325.013
324.704
320.277
320.526
320.858
321.223
321.598
321.964
322.302
322.585
322.792
322.9
322.9
322.792
322.585
322.302
321.964
321.598
321.223
320.858
320.526
320.277
315.813
316.004
316.262
316.545
316.837
317.122
317.384
317.604
317.764
317.849
317.849
317.764
317.604
317.384
317.122
316.837
316.545
316.262
316.004
315.813
311.321
311.456
311.64
311.842
312.05
312.254
312.441
312.598
312.712
312.773
312.773
312.712
312.598
312.441
312.254
312.05
311.842
311.64
311.456
311.321
306.808
306.889
306.999
307.121
307.246
307.368
307.48
307.575
307.643
307.679
307.679
307.643
307.575
307.48
307.368
307.246
307.121
306.999
306.889
306.808
302.284
302.311
302.347
302.388
302.43
302.471
302.509
302.54
302.563
302.575
302.575
302.563
302.54
302.509
302.471
302.43
302.388
302.347
302.311
302.284
333.748
334.178
334.726
335.319
335.928
336.522
337.068
337.528
337.861
338.037
338.037
337.861
337.528
337.068
336.522
335.928
335.319
334.726
334.178
333.748
329.376
329.74
330.212
330.726
331.252
331.767
332.239
332.636
332.924
333.076
333.076
332.924
332.636
332.239
331.767
331.252
330.726
330.212
329.74
329.376
324.95
325.252
325.649
326.083
326.529
326.963
327.362
327.697
327.94
328.069
328.069
327.94
327.697
327.362
326.963
326.529
326.083
325.649
325.252
324.95
320.478
320.722
321.046
321.401
321.764
322.12
322.446
322.719
322.918
323.022
323.022
322.918
322.719
322.446
322.12
321.764
321.401
321.046
320.722
320.478
315.97
316.157
316.408
316.684
316.967
317.243
317.496
317.709
317.863
317.944
317.944
317.863
317.709
317.496
317.243
316.967
316.684
316.408
316.157
315.97
311.433
311.565
311.745
311.942
312.144
312.341
312.522
312.673
312.783
312.841
312.841
312.783
312.673
312.522
312.341
312.144
311.942
311.745
311.565
311.433
306.876
306.955
307.062
307.18
307.302
307.42
307.529
307.62
307.686
307.721
307.721
307.686
307.62
307.529
307.42
307.302
307.18
307.062
306.955
306.876
302.306
302.333
302.369
302.408
302.449
302.489
302.525
302.555
302.578
302.589
302.589
302.578
302.555
302.525
302.489
302.449
302.408
302.369
302.333
302.306
334.195
334.612
335.141
335.713
336.298
336.868
337.39
337.828
338.145
338.312
338.312
338.145
337.828
337.39
336.868
336.298
335.713
335.141
334.612
334.195
329.764
330.117
330.573
331.069
331.575
332.068
332.52
332.898
333.172
333.317
333.317
333.172
332.898
332.52
332.068
331.575
331.069
330.573
330.117
329.764
325.279
325.572
325.957
326.375
326.803
327.22
327.601
327.921
328.152
328.274
328.274
328.152
327.921
327.601
327.22
326.803
326.375
325.957
325.572
325.279
320.749
320.985
321.298
321.64
321.99
322.331
322.642
322.903
323.092
323.192
323.192
323.092
322.903
322.642
322.331
321.99
321.64
321.298
320.985
320.749
316.181
316.362
316.605
316.871
317.143
317.408
317.65
317.853
318
318.077
318.077
318
317.853
317.65
317.408
317.143
316.871
316.605
316.362
316.181
311.584
311.712
311.886
312.076
312.27
312.459
312.632
312.777
312.881
312.936
312.936
312.881
312.777
312.632
312.459
312.27
312.076
311.886
311.712
311.584
306.967
307.043
307.147
307.261
307.378
307.491
307.595
307.682
307.745
307.778
307.778
307.745
307.682
307.595
307.491
307.378
307.261
307.147
307.043
306.967
302.337
302.362
302.397
302.435
302.474
302.512
302.547
302.576
302.597
302.608
302.608
302.597
302.576
302.547
302.512
302.474
302.435
302.397
302.362
302.337
334.756
335.157
335.665
336.212
336.77
337.311
337.804
338.217
338.516
338.673
338.673
338.516
338.217
337.804
337.311
336.77
336.212
335.665
335.157
334.756
330.252
330.592
331.03
331.504
331.986
332.454
332.882
333.239
333.497
333.633
333.633
333.497
333.239
332.882
332.454
331.986
331.504
331.03
330.592
330.252
325.694
325.975
326.345
326.745
327.153
327.549
327.91
328.211
328.429
328.544
328.544
328.429
328.211
327.91
327.549
327.153
326.745
326.345
325.975
325.694
321.089
321.316
321.617
321.944
322.278
322.601
322.896
323.142
323.32
323.414
323.414
323.32
323.142
322.896
322.601
322.278
321.944
321.617
321.316
321.089
316.446
316.62
316.854
317.108
317.367
317.619
317.848
318.04
318.178
318.251
318.251
318.178
318.04
317.848
317.619
317.367
317.108
316.854
316.62
316.446
311.774
311.897
312.064
312.245
312.431
312.61
312.774
312.911
313.009
313.061
313.061
313.009
312.911
312.774
312.61
312.431
312.245
312.064
311.897
311.774
307.081
307.154
307.254
307.363
307.474
307.582
307.681
307.763
307.822
307.853
307.853
307.822
307.763
307.681
307.582
307.474
307.363
307.254
307.154
307.081
302.375
302.4
302.433
302.47
302.507
302.543
302.576
302.603
302.623
302.634
302.634
302.623
302.603
302.576
302.543
302.507
302.47
302.433
302.4
302.375
335.433
335.817
336.301
336.82
337.347
337.856
338.319
338.705
338.984
339.13
339.13
338.984
338.705
338.319
337.856
337.347
336.82
336.301
335.817
335.433
330.842
331.166
331.584
332.034
332.49
332.931
333.331
333.665
333.906
334.032
334.032
333.906
333.665
333.331
332.931
332.49
332.034
331.584
331.166
330.842
326.194
326.464
326.815
327.195
327.581
327.954
328.292
328.574
328.778
328.884
328.884
328.778
328.574
328.292
327.954
327.581
327.195
326.815
326.464
326.194
321.5
321.716
322.003
322.314
322.629
322.934
323.211
323.441
323.607
323.694
323.694
323.607
323.441
323.211
322.934
322.629
322.314
322.003
321.716
321.5
316.766
316.933
317.155
317.397
317.642
317.879
318.094
318.273
318.402
318.47
318.47
318.402
318.273
318.094
317.879
317.642
317.397
317.155
316.933
316.766
312.003
312.121
312.28
312.452
312.627
312.796
312.95
313.078
313.17
313.218
313.218
313.17
313.078
312.95
312.796
312.627
312.452
312.28
312.121
312.003
307.219
307.289
307.384
307.488
307.593
307.694
307.787
307.863
307.919
307.948
307.948
307.919
307.863
307.787
307.694
307.593
307.488
307.384
307.289
307.219
302.421
302.445
302.477
302.511
302.547
302.581
302.611
302.637
302.656
302.665
302.665
302.656
302.637
302.611
302.581
302.547
302.511
302.477
302.445
302.421
336.23
336.594
337.052
337.542
338.036
338.512
338.942
339.3
339.557
339.691
339.691
339.557
339.3
338.942
338.512
338.036
337.542
337.052
336.594
336.23
331.535
331.843
332.238
332.662
333.09
333.502
333.874
334.184
334.406
334.523
334.523
334.406
334.184
333.874
333.502
333.09
332.662
332.238
331.843
331.535
326.782
327.038
327.371
327.73
328.092
328.44
328.755
329.016
329.204
329.302
329.302
329.204
329.016
328.755
328.44
328.092
327.73
327.371
327.038
326.782
321.982
322.188
322.46
322.753
323.049
323.333
323.591
323.804
323.958
324.038
324.038
323.958
323.804
323.591
323.333
323.049
322.753
322.46
322.188
321.982
317.143
317.301
317.511
317.739
317.969
318.191
318.391
318.557
318.676
318.739
318.739
318.676
318.557
318.391
318.191
317.969
317.739
317.511
317.301
317.143
312.272
312.384
312.535
312.697
312.862
313.02
313.163
313.281
313.366
313.411
313.411
313.366
313.281
313.163
313.02
312.862
312.697
312.535
312.384
312.272
307.381
307.447
307.537
307.635
307.734
307.829
307.915
307.986
308.037
308.064
308.064
308.037
307.986
307.915
307.829
307.734
307.635
307.537
307.447
307.381
302.476
302.498
302.528
302.561
302.594
302.626
302.654
302.678
302.695
302.704
302.704
302.695
302.678
302.654
302.626
302.594
302.561
302.528
302.498
302.476
337.147
337.491
337.922
338.381
338.841
339.282
339.679
340.008
340.244
340.367
340.367
340.244
340.008
339.679
339.282
338.841
338.381
337.922
337.491
337.147
332.333
332.624
332.996
333.393
333.792
334.173
334.517
334.802
335.006
335.112
335.112
335.006
334.802
334.517
334.173
333.792
333.393
332.996
332.624
332.333
327.46
327.702
328.015
328.351
328.688
329.011
329.302
329.542
329.714
329.804
329.804
329.714
329.542
329.302
329.011
328.688
328.351
328.015
327.702
327.46
322.538
322.733
322.988
323.262
323.538
323.802
324.04
324.237
324.378
324.451
324.451
324.378
324.237
324.04
323.802
323.538
323.262
322.988
322.733
322.538
317.576
317.725
317.924
318.137
318.351
318.557
318.742
318.894
319.004
319.061
319.061
319.004
318.894
318.742
318.557
318.351
318.137
317.924
317.725
317.576
312.583
312.688
312.83
312.982
313.135
313.282
313.414
313.523
313.601
313.642
313.642
313.601
313.523
313.414
313.282
313.135
312.982
312.83
312.688
312.583
307.567
307.63
307.715
307.806
307.898
307.987
308.066
308.131
308.178
308.203
308.203
308.178
308.131
308.066
307.987
307.898
307.806
307.715
307.63
307.567
302.538
302.559
302.588
302.618
302.649
302.679
302.705
302.727
302.743
302.751
302.751
302.743
302.727
302.705
302.679
302.649
302.618
302.588
302.559
302.538
338.187
338.511
338.914
339.341
339.767
340.173
340.538
340.838
341.052
341.164
341.164
341.052
340.838
340.538
340.173
339.767
339.341
338.914
338.511
338.187
333.238
333.511
333.859
334.229
334.598
334.95
335.266
335.526
335.711
335.808
335.808
335.711
335.526
335.266
334.95
334.598
334.229
333.859
333.511
333.238
328.228
328.455
328.749
329.061
329.374
329.671
329.938
330.158
330.315
330.397
330.397
330.315
330.158
329.938
329.671
329.374
329.061
328.749
328.455
328.228
323.168
323.351
323.59
323.846
324.101
324.345
324.563
324.743
324.871
324.938
324.938
324.871
324.743
324.563
324.345
324.101
323.846
323.59
323.351
323.168
318.068
318.208
318.393
318.592
318.791
318.98
319.15
319.29
319.389
319.441
319.441
319.389
319.29
319.15
318.98
318.791
318.592
318.393
318.208
318.068
312.935
313.034
313.166
313.308
313.45
313.585
313.707
313.806
313.878
313.915
313.915
313.878
313.806
313.707
313.585
313.45
313.308
313.166
313.034
312.935
307.779
307.838
307.917
308.002
308.088
308.169
308.242
308.302
308.344
308.367
308.367
308.344
308.302
308.242
308.169
308.088
308.002
307.917
307.838
307.779
302.609
302.629
302.655
302.684
302.713
302.74
302.764
302.784
302.799
302.806
302.806
302.799
302.784
302.764
302.74
302.713
302.684
302.655
302.629
302.609
339.352
339.655
340.03
340.426
340.819
341.191
341.523
341.796
341.99
342.091
342.091
341.99
341.796
341.523
341.191
340.819
340.426
340.03
339.655
339.352
334.251
334.507
334.831
335.174
335.514
335.836
336.124
336.36
336.529
336.616
336.616
336.529
336.36
336.124
335.836
335.514
335.174
334.831
334.507
334.251
329.089
329.301
329.574
329.864
330.152
330.425
330.668
330.868
331.01
331.084
331.084
331.01
330.868
330.668
330.425
330.152
329.864
329.574
329.301
329.089
323.875
324.046
324.268
324.505
324.74
324.964
325.163
325.326
325.442
325.503
325.503
325.442
325.326
325.163
324.964
324.74
324.505
324.268
324.046
323.875
318.618
318.749
318.922
319.106
319.289
319.463
319.618
319.745
319.835
319.882
319.882
319.835
319.745
319.618
319.463
319.289
319.106
318.922
318.749
318.618
313.329
313.421
313.545
313.676
313.807
313.931
314.042
314.132
314.197
314.231
314.231
314.197
314.132
314.042
313.931
313.807
313.676
313.545
313.421
313.329
308.016
308.071
308.145
308.224
308.302
308.377
308.443
308.498
308.537
308.557
308.557
308.537
308.498
308.443
308.377
308.302
308.224
308.145
308.071
308.016
302.689
302.707
302.732
302.758
302.785
302.81
302.832
302.85
302.863
302.87
302.87
302.863
302.85
302.832
302.81
302.785
302.758
302.732
302.707
302.689
340.644
340.926
341.274
341.638
341.999
342.338
342.64
342.886
343.061
343.152
343.152
343.061
342.886
342.64
342.338
341.999
341.638
341.274
340.926
340.644
335.375
335.614
335.914
336.23
336.542
336.836
337.097
337.311
337.462
337.541
337.541
337.462
337.311
337.097
336.836
336.542
336.23
335.914
335.614
335.375
330.043
330.241
330.494
330.761
331.025
331.274
331.495
331.676
331.804
331.87
331.87
331.804
331.676
331.495
331.274
331.025
330.761
330.494
330.241
330.043
324.658
324.817
325.023
325.241
325.457
325.661
325.842
325.99
326.095
326.149
326.149
326.095
325.99
325.842
325.661
325.457
325.241
325.023
324.817
324.658
319.228
319.351
319.511
319.68
319.849
320.007
320.148
320.263
320.344
320.387
320.387
320.344
320.263
320.148
320.007
319.849
319.68
319.511
319.351
319.228
313.765
313.852
313.966
314.087
314.207
314.321
314.421
314.503
314.562
314.592
314.592
314.562
314.503
314.421
314.321
314.207
314.087
313.966
313.852
313.765
308.278
308.33
308.398
308.471
308.543
308.611
308.672
308.721
308.756
308.774
308.774
308.756
308.721
308.672
308.611
308.543
308.471
308.398
308.33
308.278
302.777
302.794
302.817
302.841
302.865
302.888
302.908
302.925
302.937
302.943
302.943
302.937
302.925
302.908
302.888
302.865
302.841
302.817
302.794
302.777
342.064
342.325
342.647
342.982
343.311
343.619
343.892
344.114
344.271
344.352
344.352
344.271
344.114
343.892
343.619
343.311
342.982
342.647
342.325
342.064
336.61
336.831
337.109
337.399
337.684
337.951
338.188
338.38
338.516
338.587
338.587
338.516
338.38
338.188
337.951
337.684
337.399
337.109
336.831
336.61
331.091
331.275
331.509
331.754
331.995
332.222
332.422
332.584
332.699
332.759
332.759
332.699
332.584
332.422
332.222
331.995
331.754
331.509
331.275
331.091
325.518
325.665
325.856
326.056
326.254
326.439
326.603
326.736
326.83
326.879
326.879
326.83
326.736
326.603
326.439
326.254
326.056
325.856
325.665
325.518
319.899
320.012
320.16
320.316
320.47
320.614
320.741
320.845
320.918
320.956
320.956
320.918
320.845
320.741
320.614
320.47
320.316
320.16
320.012
319.899
314.245
314.326
314.431
314.542
314.652
314.755
314.846
314.92
314.973
315
315
314.973
314.92
314.846
314.755
314.652
314.542
314.431
314.326
314.245
308.567
308.615
308.678
308.745
308.811
308.873
308.927
308.972
309.003
309.02
309.02
309.003
308.972
308.927
308.873
308.811
308.745
308.678
308.615
308.567
302.873
302.889
302.911
302.933
302.955
302.976
302.994
303.009
303.02
303.025
303.025
303.02
303.009
302.994
302.976
302.955
302.933
302.911
302.889
302.873
343.612
343.853
344.149
344.456
344.756
345.035
345.281
345.48
345.621
345.693
345.693
345.621
345.48
345.281
345.035
344.756
344.456
344.149
343.853
343.612
337.956
338.161
338.416
338.682
338.942
339.184
339.397
339.57
339.692
339.755
339.755
339.692
339.57
339.397
339.184
338.942
338.682
338.416
338.161
337.956
332.234
332.404
332.619
332.843
333.063
333.268
333.449
333.595
333.698
333.751
333.751
333.698
333.595
333.449
333.268
333.063
332.843
332.619
332.404
332.234
326.455
326.592
326.767
326.951
327.131
327.299
327.446
327.566
327.65
327.694
327.694
327.65
327.566
327.446
327.299
327.131
326.951
326.767
326.592
326.455
320.63
320.735
320.871
321.013
321.154
321.284
321.399
321.492
321.558
321.592
321.592
321.558
321.492
321.399
321.284
321.154
321.013
320.871
320.735
320.63
314.768
314.843
314.94
315.042
315.142
315.235
315.317
315.384
315.431
315.455
315.455
315.431
315.384
315.317
315.235
315.142
315.042
314.94
314.843
314.768
308.881
308.926
308.984
309.045
309.105
309.161
309.211
309.251
309.279
309.293
309.293
309.279
309.251
309.211
309.161
309.105
309.045
308.984
308.926
308.881
302.979
302.994
303.013
303.034
303.054
303.073
303.089
303.103
303.112
303.117
303.117
303.112
303.103
303.089
303.073
303.054
303.034
303.013
302.994
302.979
345.285
345.508
345.78
346.06
346.332
346.585
346.806
346.984
347.11
347.175
347.175
347.11
346.984
346.806
346.585
346.332
346.06
345.78
345.508
345.285
339.412
339.6
339.835
340.077
340.313
340.532
340.724
340.879
340.988
341.044
341.044
340.988
340.879
340.724
340.532
340.313
340.077
339.835
339.6
339.412
333.469
333.625
333.823
334.028
334.228
334.413
334.576
334.707
334.799
334.846
334.846
334.799
334.707
334.576
334.413
334.228
334.028
333.823
333.625
333.469
327.468
327.594
327.755
327.923
328.086
328.238
328.371
328.478
328.553
328.592
328.592
328.553
328.478
328.371
328.238
328.086
327.923
327.755
327.594
327.468
321.419
321.516
321.641
321.771
321.898
322.016
322.12
322.203
322.262
322.292
322.292
322.262
322.203
322.12
322.016
321.898
321.771
321.641
321.516
321.419
315.333
315.402
315.491
315.584
315.675
315.759
315.833
315.893
315.935
315.956
315.956
315.935
315.893
315.833
315.759
315.675
315.584
315.491
315.402
315.333
309.221
309.262
309.315
309.371
309.426
309.476
309.521
309.557
309.582
309.595
309.595
309.582
309.557
309.521
309.476
309.426
309.371
309.315
309.262
309.221
303.093
303.106
303.124
303.143
303.161
303.178
303.193
303.205
303.214
303.218
303.218
303.214
303.205
303.193
303.178
303.161
303.143
303.124
303.106
303.093
347.077
347.282
347.531
347.786
348.033
348.261
348.46
348.62
348.732
348.79
348.79
348.732
348.62
348.46
348.261
348.033
347.786
347.531
347.282
347.077
340.969
341.142
341.357
341.578
341.792
341.99
342.162
342.301
342.398
342.448
342.448
342.398
342.301
342.162
341.99
341.792
341.578
341.357
341.142
340.969
334.789
334.933
335.114
335.301
335.482
335.65
335.796
335.913
335.995
336.037
336.037
335.995
335.913
335.796
335.65
335.482
335.301
335.114
334.933
334.789
328.55
328.666
328.813
328.966
329.115
329.252
329.371
329.467
329.534
329.569
329.569
329.534
329.467
329.371
329.252
329.115
328.966
328.813
328.666
328.55
322.262
322.351
322.465
322.584
322.7
322.806
322.899
322.974
323.026
323.053
323.053
323.026
322.974
322.899
322.806
322.7
322.584
322.465
322.351
322.262
315.936
315.999
316.081
316.166
316.248
316.324
316.391
316.444
316.482
316.501
316.501
316.482
316.444
316.391
316.324
316.248
316.166
316.081
315.999
315.936
309.583
309.621
309.67
309.721
309.77
309.816
309.856
309.888
309.911
309.922
309.922
309.911
309.888
309.856
309.816
309.77
309.721
309.67
309.621
309.583
303.214
303.227
303.243
303.26
303.277
303.292
303.306
303.316
303.324
303.328
303.328
303.324
303.316
303.306
303.292
303.277
303.26
303.243
303.227
303.214
348.967
349.156
349.384
349.616
349.84
350.046
350.224
350.367
350.467
350.518
350.518
350.467
350.367
350.224
350.046
349.84
349.616
349.384
349.156
348.967
342.607
342.767
342.964
343.165
343.359
343.538
343.692
343.816
343.903
343.948
343.948
343.903
343.816
343.692
343.538
343.359
343.165
342.964
342.767
342.607
336.176
336.309
336.474
336.645
336.809
336.96
337.091
337.196
337.27
337.308
337.308
337.27
337.196
337.091
336.96
336.809
336.645
336.474
336.309
336.176
329.685
329.792
329.927
330.066
330.201
330.325
330.432
330.518
330.578
330.609
330.609
330.578
330.518
330.432
330.325
330.201
330.066
329.927
329.792
329.685
323.145
323.227
323.332
323.44
323.545
323.641
323.725
323.792
323.839
323.863
323.863
323.839
323.792
323.725
323.641
323.545
323.44
323.332
323.227
323.145
316.567
316.625
316.7
316.777
316.852
316.921
316.981
317.029
317.062
317.079
317.079
317.062
317.029
316.981
316.921
316.852
316.777
316.7
316.625
316.567
309.962
309.997
310.042
310.088
310.133
310.175
310.211
310.239
310.259
310.27
310.27
310.259
310.239
310.211
310.175
310.133
310.088
310.042
309.997
309.962
303.341
303.353
303.368
303.383
303.399
303.412
303.424
303.434
303.441
303.444
303.444
303.441
303.434
303.424
303.412
303.399
303.383
303.368
303.353
303.341
350.904
351.078
351.286
351.499
351.702
351.888
352.048
352.177
352.266
352.312
352.312
352.266
352.177
352.048
351.888
351.702
351.499
351.286
351.078
350.904
344.279
344.426
344.606
344.79
344.967
345.128
345.268
345.379
345.457
345.497
345.497
345.457
345.379
345.268
345.128
344.967
344.79
344.606
344.426
344.279
337.586
337.707
337.859
338.015
338.164
338.301
338.419
338.514
338.58
338.613
338.613
338.58
338.514
338.419
338.301
338.164
338.015
337.859
337.707
337.586
330.834
330.932
331.056
331.184
331.306
331.418
331.515
331.592
331.646
331.674
331.674
331.646
331.592
331.515
331.418
331.306
331.184
331.056
330.932
330.834
324.036
324.112
324.208
324.307
324.402
324.49
324.565
324.625
324.667
324.689
324.689
324.667
324.625
324.565
324.49
324.402
324.307
324.208
324.112
324.036
317.203
317.256
317.325
317.395
317.464
317.526
317.58
317.623
317.653
317.668
317.668
317.653
317.623
317.58
317.526
317.464
317.395
317.325
317.256
317.203
310.343
310.375
310.416
310.459
310.5
310.537
310.57
310.596
310.614
310.623
310.623
310.614
310.596
310.57
310.537
310.5
310.459
310.416
310.375
310.343
303.469
303.48
303.493
303.508
303.521
303.534
303.545
303.554
303.56
303.563
303.563
303.56
303.554
303.545
303.534
303.521
303.508
303.493
303.48
303.469
352.761
352.921
353.113
353.308
353.494
353.664
353.81
353.926
354.007
354.048
354.048
354.007
353.926
353.81
353.664
353.494
353.308
353.113
352.921
352.761
345.862
345.998
346.164
346.333
346.495
346.642
346.769
346.87
346.94
346.977
346.977
346.94
346.87
346.769
346.642
346.495
346.333
346.164
345.998
345.862
338.905
339.018
339.158
339.302
339.439
339.564
339.672
339.757
339.817
339.848
339.848
339.817
339.757
339.672
339.564
339.439
339.302
339.158
339.018
338.905
331.901
331.991
332.106
332.224
332.336
332.439
332.527
332.597
332.646
332.671
332.671
332.646
332.597
332.527
332.439
332.336
332.224
332.106
331.991
331.901
324.857
324.927
325.016
325.108
325.195
325.275
325.344
325.399
325.437
325.457
325.457
325.437
325.399
325.344
325.275
325.195
325.108
325.016
324.927
324.857
317.785
317.834
317.898
317.963
318.026
318.083
318.132
318.171
318.199
318.213
318.213
318.199
318.171
318.132
318.083
318.026
317.963
317.898
317.834
317.785
310.691
310.721
310.759
310.798
310.836
310.87
310.9
310.923
310.94
310.948
310.948
310.94
310.923
310.9
310.87
310.836
310.798
310.759
310.721
310.691
303.585
303.595
303.608
303.621
303.634
303.645
303.655
303.663
303.669
303.671
303.671
303.669
303.663
303.655
303.645
303.634
303.621
303.608
303.595
303.585
354.207
354.358
354.539
354.722
354.896
355.054
355.19
355.297
355.372
355.411
355.411
355.372
355.297
355.19
355.054
354.896
354.722
354.539
354.358
354.207
347.049
347.177
347.334
347.493
347.645
347.783
347.901
347.995
348.061
348.094
348.094
348.061
347.995
347.901
347.783
347.645
347.493
347.334
347.177
347.049
339.865
339.971
340.104
340.239
340.368
340.486
340.587
340.667
340.722
340.751
340.751
340.722
340.667
340.587
340.486
340.368
340.239
340.104
339.971
339.865
332.657
332.743
332.852
332.963
333.069
333.165
333.248
333.314
333.36
333.383
333.383
333.36
333.314
333.248
333.165
333.069
332.963
332.852
332.743
332.657
325.429
325.495
325.58
325.666
325.749
325.824
325.889
325.94
325.976
325.994
325.994
325.976
325.94
325.889
325.824
325.749
325.666
325.58
325.495
325.429
318.184
318.231
318.292
318.354
318.413
318.467
318.513
318.55
318.576
318.589
318.589
318.576
318.55
318.513
318.467
318.413
318.354
318.292
318.231
318.184
310.928
310.956
310.992
311.03
311.065
311.098
311.126
311.148
311.163
311.171
311.171
311.163
311.148
311.126
311.098
311.065
311.03
310.992
310.956
310.928
303.664
303.673
303.686
303.698
303.71
303.721
303.73
303.738
303.743
303.746
303.746
303.743
303.738
303.73
303.721
303.71
303.698
303.686
303.673
303.664
)
;

boundaryField
{
    hotSide
    {
        type            fixedGradient;
        gradient        nonuniform List<scalar> 
400
(
338.016
339.151
341.425
344.848
349.433
355.197
362.16
370.341
379.763
390.448
402.415
415.686
430.279
446.208
463.49
482.135
502.155
523.557
546.348
570.533
343.952
345.04
347.222
350.51
354.923
360.483
367.215
375.146
384.305
394.717
406.411
419.41
433.736
449.408
466.443
484.855
504.654
525.851
548.451
572.459
350.376
351.408
353.48
356.609
360.818
366.138
372.6
380.241
389.095
399.197
410.579
423.272
437.3
452.688
469.453
487.611
507.173
528.15
550.547
574.369
357.182
358.148
360.092
363.036
367.011
372.055
378.21
385.521
394.033
403.789
414.827
427.185
440.891
455.972
472.449
490.338
509.653
530.401
552.588
576.22
364.179
365.072
366.872
369.609
373.323
378.061
383.878
390.829
398.97
408.354
419.026
431.029
444.397
459.161
475.341
492.957
512.02
532.538
554.518
577.961
371.076
371.89
373.537
376.054
379.49
383.905
389.368
395.945
403.704
412.706
423.006
434.652
447.684
462.132
478.022
495.371
514.191
534.49
556.271
579.535
377.477
378.213
379.707
382.005
385.166
389.265
394.38
400.594
407.983
416.62
426.567
437.877
450.594
464.75
480.372
497.477
516.077
536.177
557.781
580.886
382.911
383.575
384.932
387.032
389.948
393.764
398.573
404.466
411.533
419.853
429.494
440.516
452.964
466.874
482.271
499.172
517.588
537.525
558.982
581.958
386.887
387.497
388.748
390.698
393.427
397.029
401.606
407.259
414.084
422.167
431.583
442.393
454.644
468.374
483.607
500.361
518.646
538.465
559.818
582.702
388.994
389.574
390.768
392.637
395.264
398.75
403.201
408.724
415.42
423.377
432.673
443.369
455.517
469.151
484.298
500.975
519.191
538.949
560.248
583.083
388.994
389.574
390.768
392.637
395.264
398.75
403.201
408.724
415.42
423.377
432.673
443.369
455.517
469.151
484.298
500.975
519.191
538.949
560.248
583.083
386.887
387.497
388.748
390.698
393.427
397.029
401.606
407.259
414.084
422.167
431.583
442.393
454.644
468.374
483.607
500.361
518.646
538.465
559.818
582.702
382.911
383.575
384.932
387.032
389.948
393.764
398.573
404.466
411.533
419.853
429.494
440.516
452.964
466.874
482.271
499.172
517.588
537.525
558.982
581.958
377.477
378.213
379.707
382.005
385.166
389.265
394.38
400.594
407.983
416.62
426.567
437.877
450.594
464.75
480.372
497.477
516.077
536.177
557.781
580.886
371.076
371.89
373.537
376.054
379.49
383.905
389.368
395.945
403.704
412.706
423.006
434.652
447.684
462.132
478.022
495.371
514.191
534.49
556.271
579.535
364.179
365.072
366.872
369.609
373.323
378.061
383.878
390.829
398.97
408.354
419.026
431.029
444.397
459.161
475.341
492.957
512.02
532.538
554.518
577.961
357.182
358.148
360.092
363.036
367.011
372.055
378.21
385.521
394.033
403.789
414.827
427.185
440.891
455.972
472.449
490.338
509.653
530.401
552.588
576.22
350.376
351.408
353.48
356.609
360.818
366.138
372.6
380.241
389.095
399.197
410.579
423.272
437.3
452.688
469.453
487.611
507.173
528.15
550.547
574.369
343.952
345.04
347.222
350.51
354.923
360.483
367.215
375.146
384.305
394.717
406.411
419.41
433.736
449.408
466.443
484.855
504.654
525.851
548.451
572.459
338.016
339.151
341.425
344.848
349.433
355.197
362.16
370.341
379.763
390.448
402.415
415.686
430.279
446.208
463.49
482.135
502.155
523.557
546.348
570.533
)
;
    }
    coldSide
    {
        type            mixed;
        refValue        uniform 300;
        refGradient     uniform 0;
        valueFraction   uniform 0.991591;
        source          uniform 0;
        value           nonuniform List<scalar> 
400
(
300.019
300.019
300.019
300.019
300.02
300.02
300.02
300.021
300.021
300.022
300.023
300.023
300.024
300.025
300.026
300.027
300.028
300.029
300.03
300.031
300.019
300.019
300.019
300.02
300.02
300.02
300.021
300.021
300.022
300.022
300.023
300.023
300.024
300.025
300.026