/*--------------------------------*- C++ -*----------------------------------*\
| =========                 |                                                 |
| \\      /  F ield         | OpenFOAM: The Open Source CFD Toolbox           |
|  \\    /   O peration     | Version:  2212                                  |
|   \\  /    A nd           | Website:  www.openfoam.com                      |
|    \\/     M anipulation  |                                                 |
\*---------------------------------------------------------------------------*/
FoamFile
{
    version     2.0;
    format      ascii;
    arch        "LSB;label=32;scalar=64";
    class       volScalarField;
    location    "0";
    object      T;
}
// * * * * * * * * * * * * * * * * * * * * * * * * * * * * * * * * * * * * * //

dimensions      [0 0 0 1 0 0 0];

internalField   nonuniform List<scalar> 
3200
(
335.38
335.968
336.659
337.3
337.607
337.946
338.318
338.602
338.591
338.341
338.213
338.029
337.745
337.281
336.88
336.499
335.739
334.692
333.669
333.241
330.88
331.329
331.892
332.517
332.833
333.068
333.419
333.679
333.66
333.43
333.329
333.143
332.929
332.518
332.155
331.856
331.184
330.296
329.344
329.042
326.285
326.656
327.092
327.634
327.937
328.132
328.409
328.663
328.705
328.42
328.381
328.167
328.027
327.671
327.359
327.127
326.559
325.867
324.941
324.715
321.622
321.91
322.289
322.711
322.955
323.135
323.308
323.53
323.632
323.323
323.367
323.143
323.023
322.745
322.479
322.324
321.818
321.309
320.473
320.353
316.914
317.099
317.382
317.72
317.869
318.078
318.19
318.37
318.467
318.193
318.232
318.096
317.992
317.791
317.552
317.45
317.084
316.668
315.976
315.902
312.098
312.265
312.445
312.678
312.772
312.913
312.998
313.136
313.22
313.044
313.033
312.962
312.857
312.751
312.544
312.513
312.259
311.94
311.472
311.387
307.287
307.39
307.508
307.594
307.68
307.76
307.788
307.866
307.932
307.855
307.867
307.804
307.727
307.672
307.54
307.523
307.394
307.19
306.921
306.87
302.451
302.479
302.504
302.544
302.564
302.605
302.61
302.616
302.643
302.64
302.647
302.631
302.597
302.559
302.528
302.527
302.498
302.419
302.328
302.302
336.15
336.828
337.598
338.358
338.339
338.71
339.364
339.495
339.575
339.44
339.308
338.942
338.922
338.303
337.802
337.323
336.788
335.672
334.753
334.24
331.472
332.039
332.711
333.389
333.372
333.761
334.274
334.376
334.493
334.33
334.235
333.934
333.913
333.364
332.963
332.528
332.036
331.078
330.232
329.878
326.781
327.2
327.786
328.324
328.367
328.703
329.104
329.214
329.317
329.13
329.131
328.817
328.801
328.389
328.001
327.668
327.205
326.422
325.647
325.426
322.022
322.372
322.829
323.229
323.304
323.618
323.867
324.027
324.104
323.871
323.935
323.638
323.634
323.363
323.001
322.738
322.318
321.737
321.029
320.909
317.203
317.451
317.755
318.101
318.221
318.469
318.608
318.734
318.846
318.585
318.676
318.409
318.454
318.228
317.962
317.742
317.387
316.982
316.381
316.339
312.324
312.485
312.71
312.953
313.054
313.297
313.319
313.401
313.509
313.317
313.384
313.202
313.226
313.062
312.837
312.699
312.425
312.186
311.743
311.752
307.412
307.522
307.661
307.821
307.833
307.988
308
308.091
308.121
308.02
308.068
307.937
307.923
307.864
307.699
307.637
307.477
307.376
307.045
307.105
302.494
302.525
302.568
302.638
302.612
302.672
302.698
302.727
302.714
302.684
302.704
302.659
302.676
302.638
302.589
302.553
302.513
302.494
302.377
302.381
337.514
338.248
338.917
339.638
339.947
340.199
340.854
340.902
341.203
340.97
340.712
340.52
340.224
339.617
339.232
338.756
337.881
337.067
335.945
335.232
332.622
333.257
333.829
334.478
334.745
334.913
335.54
335.616
335.859
335.633
335.43
335.261
335.066
334.51
334.15
333.715
332.917
332.245
331.259
330.685
327.716
328.208
328.69
329.272
329.484
329.642
330.178
330.296
330.446
330.258
330.093
329.983
329.819
329.34
329.011
328.628
327.924
327.356
326.556
326.097
322.74
323.118
323.565
324.027
324.205
324.318
324.738
324.905
325.022
324.827
324.733
324.659
324.508
324.086
323.794
323.49
322.911
322.494
321.82
321.454
317.748
317.978
318.362
318.707
318.865
318.979
319.264
319.4
319.515
319.373
319.313
319.237
319.118
318.749
318.556
318.337
317.901
317.547
317.019
316.75
312.75
312.861
313.148
313.386
313.518
313.604
313.757
313.823
313.95
313.847
313.85
313.783
313.694
313.415
313.313
313.165
312.789
312.573
312.196
311.986
307.669
307.757
307.899
308.068
308.127
308.178
308.306
308.285
308.393
308.312
308.339
308.301
308.22
308.066
308.015
307.906
307.695
307.582
307.33
307.218
302.579
302.581
302.648
302.712
302.71
302.75
302.8
302.767
302.828
302.792
302.806
302.779
302.782
302.698
302.695
302.665
302.579
302.569
302.447
302.424
338.853
339.656
340.326
340.954
341.548
341.827
342.291
342.454
342.763
342.447
342.421
342.166
341.734
341.242
340.829
339.888
339.181
338.534
337.585
336.557
333.751
334.496
335.056
335.613
336.156
336.326
336.755
336.92
337.227
336.935
336.9
336.665
336.292
335.959
335.516
334.691
334.115
333.565
332.703
331.862
328.653
329.247
329.724
330.245
330.667
330.818
331.161
331.332
331.608
331.402
331.297
331.141
330.813
330.601
330.132
329.451
328.942
328.487
327.762
327.116
323.534
323.993
324.372
324.806
325.142
325.244
325.55
325.672
325.956
325.793
325.7
325.532
325.277
325.157
324.73
324.124
323.763
323.398
322.767
322.278
318.352
318.677
318.976
319.346
319.634
319.625
319.886
319.993
320.276
320.106
320.101
319.902
319.733
319.659
319.274
318.762
318.529
318.25
317.771
317.413
313.13
313.35
313.597
313.882
314.056
314.028
314.242
314.271
314.522
314.395
314.41
314.221
314.134
314.097
313.817
313.39
313.26
313.075
312.737
312.481
307.886
308.019
308.16
308.333
308.47
308.412
308.562
308.559
308.716
308.658
308.663
308.544
308.493
308.456
308.305
308.072
307.945
307.888
307.672
307.544
302.631
302.686
302.728
302.792
302.837
302.806
302.87
302.877
302.901
302.908
302.897
302.846
302.832
302.828
302.794
302.725
302.677
302.66
302.574
302.545
340.202
341.118
341.917
342.403
343.081
343.282
343.74
343.979
344.077
343.875
343.868
343.573
342.997
342.879
342.372
341.425
340.549
339.788
338.739
337.838
334.961
335.793
336.412
336.884
337.462
337.668
338.002
338.187
338.331
338.194
338.229
337.941
337.44
337.32
336.832
336.033
335.237
334.632
333.715
332.929
329.689
330.364
330.887
331.301
331.793
332.004
332.181
332.367
332.538
332.428
332.495
332.244
331.836
331.701
331.223
330.574
329.905
329.438
328.638
327.965
324.391
324.895
325.331
325.657
326.002
326.253
326.371
326.507
326.666
326.68
326.696
326.475
326.113
326.082
325.603
325.055
324.527
324.155
323.499
322.936
319.02
319.372
319.764
319.992
320.236
320.455
320.542
320.634
320.769
320.827
320.828
320.664
320.358
320.418
319.949
319.481
319.142
318.861
318.301
317.862
313.646
313.856
314.179
314.302
314.46
314.665
314.696
314.762
314.878
314.897
314.91
314.848
314.602
314.662
314.256
313.926
313.712
313.544
313.105
312.812
308.228
308.334
308.536
308.589
308.697
308.803
308.846
308.868
308.941
308.948
308.976
308.944
308.792
308.79
308.563
308.373
308.27
308.157
307.865
307.726
302.753
302.803
302.843
302.878
302.892
302.963
302.981
302.983
302.979
303.001
303.015
303.014
302.956
302.94
302.869
302.809
302.756
302.729
302.622
302.606
341.661
342.571
343.161
343.643
344.422
344.824
345.14
345.499
345.582
345.525
345.475
345.198
344.65
344.355
343.66
342.872
342.125
341.345
340.307
339.21
336.188
336.989
337.501
337.99
338.615
338.963
339.252
339.56
339.639
339.633
339.595
339.3
338.854
338.592
337.957
337.293
336.627
335.972
335.166
334.145
330.687
331.356
331.787
332.263
332.732
333.091
333.283
333.582
333.668
333.681
333.653
333.381
333.013
332.783
332.227
331.633
331.058
330.549
329.892
329.031
325.19
325.66
326.041
326.453
326.798
327.23
327.263
327.535
327.635
327.645
327.614
327.428
327.11
326.929
326.437
325.931
325.456
325.109
324.544
323.825
319.636
319.962
320.264
320.593
320.853
321.235
321.24
321.447
321.494
321.578
321.505
321.381
321.134
321.007
320.622
320.203
319.854
319.592
319.157
318.612
314.039
314.27
314.458
314.717
314.892
315.175
315.221
315.329
315.351
315.476
315.37
315.295
315.164
315.04
314.757
314.429
314.218
314.039
313.751
313.337
308.451
308.587
308.665
308.816
308.943
309.146
309.162
309.214
309.214
309.302
309.204
309.218
309.134
309.031
308.86
308.643
308.532
308.455
308.325
308.011
302.825
302.878
302.907
302.945
302.999
303.085
303.069
303.096
303.081
303.113
303.072
303.107
303.054
303.038
302.96
302.89
302.838
302.818
302.787
302.68
342.969
343.837
344.693
345.209
345.705
346.184
346.66
347.122
347.032
347.194
347.127
346.748
346.3
345.72
344.991
344.36
343.486
342.559
341.721
340.654
337.381
338.146
338.836
339.303
339.742
340.167
340.551
340.986
340.904
341.012
340.976
340.653
340.226
339.762
339.135
338.573
337.834
337.027
336.299
335.409
331.767
332.353
332.963
333.354
333.725
334.088
334.461
334.78
334.697
334.773
334.767
334.477
334.138
333.752
333.254
332.711
332.133
331.409
330.835
330.066
326.068
326.539
327.037
327.352
327.65
327.98
328.3
328.512
328.469
328.51
328.518
328.263
327.994
327.731
327.317
326.805
326.366
325.758
325.348
324.714
320.335
320.711
321.03
321.307
321.497
321.795
322.059
322.202
322.23
322.217
322.19
322.002
321.78
321.608
321.327
320.893
320.597
320.107
319.701
319.286
314.572
314.864
315.009
315.223
315.338
315.62
315.809
315.876
315.934
315.949
315.85
315.695
315.603
315.464
315.242
314.929
314.728
314.385
314.083
313.79
308.776
308.947
309.008
309.138
309.202
309.378
309.495
309.53
309.591
309.639
309.523
309.413
309.401
309.281
309.161
308.951
308.841
308.643
308.467
308.277
302.952
303.013
302.993
303.058
303.099
303.133
303.174
303.196
303.219
303.231
303.183
303.155
303.172
303.099
303.06
302.999
302.976
302.891
302.838
302.765
344.391
345.023
345.932
346.44
347.391
347.586
348.228
348.426
348.458
348.574
348.345
348.038
347.645
346.992
346.559
345.83
344.845
343.642
342.827
341.963
338.611
339.097
339.935
340.352
341.169
341.339
341.922
342.107
342.124
342.222
342.053
341.775
341.388
340.891
340.493
339.895
339.02
337.96
337.269
336.553
332.769
333.167
333.869
334.209
334.928
335.012
335.544
335.755
335.755
335.822
335.737
335.447
335.064
334.71
334.355
333.88
333.124
332.27
331.644
331.073
326.883
327.233
327.765
328.006
328.62
328.712
329.142
329.335
329.346
329.379
329.364
329.097
328.766
328.509
328.207
327.826
327.217
326.485
325.971
325.508
320.97
321.278
321.632
321.776
322.264
322.392
322.72
322.873
322.839
322.854
322.869
322.644
322.417
322.275
322.014
321.743
321.23
320.663
320.243
319.879
315.03
315.266
315.467
315.555
315.91
316.015
316.242
316.358
316.331
316.342
316.411
316.205
316.055
315.977
315.793
315.569
315.2
314.796
314.474
314.232
309.011
309.195
309.279
309.374
309.579
309.616
309.738
309.823
309.828
309.815
309.911
309.743
309.669
309.618
309.512
309.362
309.143
308.877
308.683
308.54
303.014
303.116
303.099
303.139
303.197
303.227
303.269
303.296
303.267
303.285
303.326
303.258
303.24
303.229
303.18
303.141
303.064
303.005
302.911
302.866
345.512
346.228
347.062
347.943
348.756
349.312
349.729
349.911
349.884
350.145
349.82
349.402
348.875
348.401
347.874
346.938
346.16
345.055
344.071
343.042
339.596
340.175
340.945
341.689
342.376
342.894
343.266
343.407
343.386
343.594
343.323
342.926
342.528
342.125
341.621
340.849
340.201
339.207
338.35
337.448
333.612
334.061
334.753
335.38
335.995
336.44
336.722
336.856
336.845
336.993
336.759
336.393
336.111
335.7
335.349
334.697
334.181
333.26
332.55
331.761
327.619
327.909
328.505
328.994
329.533
329.902
330.147
330.242
330.262
330.367
330.171
329.871
329.641
329.275
329.021
328.488
328.113
327.332
326.729
326.043
321.591
321.712
322.208
322.573
323.011
323.335
323.489
323.561
323.601
323.664
323.483
323.312
323.121
322.822
322.663
322.255
321.943
321.352
320.827
320.266
315.489
315.539
315.922
316.152
316.452
316.726
316.812
316.827
316.887
316.911
316.79
316.695
316.547
316.333
316.218
315.922
315.685
315.276
314.948
314.511
309.294
309.329
309.558
309.704
309.896
310.08
310.109
310.107
310.112
310.159
310.103
310.032
309.919
309.846
309.722
309.6
309.454
309.191
308.965
308.702
303.104
303.127
303.201
303.258
303.321
303.384
303.405
303.397
303.382
303.412
303.371
303.363
303.32
303.303
303.254
303.245
303.175
303.09
302.978
302.909
346.547
347.086
348.394
349.228
350.014
350.665
351.208
351.207
351.355
351.338
350.993
350.687
350.322
349.629
349.088
348.213
347.436
346.365
345.309
344.291
340.488
340.915
342.092
342.809
343.464
344.06
344.545
344.561
344.665
344.658
344.294
344.077
343.775
343.11
342.68
341.914
341.274
340.296
339.417
338.539
334.349
334.721
335.722
336.344
336.866
337.363
337.829
337.813
337.955
337.897
337.562
337.37
337.176
336.583
336.207
335.536
335.047
334.201
333.471
332.763
328.186
328.481
329.327
329.804
330.228
330.637
331.061
331.024
331.146
331.078
330.802
330.632
330.538
330.042
329.705
329.13
328.736
328.063
327.469
326.902
321.963
322.223
322.892
323.207
323.598
323.861
324.235
324.2
324.281
324.239
324.016
323.855
323.74
323.425
323.153
322.705
322.409
321.909
321.442
320.995
315.755
315.873
316.37
316.612
316.898
317.064
317.368
317.307
317.401
317.365
317.162
317.094
316.92
316.732
316.542
316.23
316.03
315.686
315.366
315.05
309.508
309.503
309.841
309.981
310.157
310.255
310.472
310.422
310.467
310.452
310.309
310.302
310.132
310.054
309.954
309.743
309.647
309.459
309.24
309.055
303.211
303.205
303.309
303.363
303.404
303.443
303.515
303.505
303.512
303.508
303.458
303.469
303.387
303.364
303.348
303.266
303.239
303.163
303.09
303.055
347.585
348.317
349.297
350.455
351.033
351.69
352.157
352.507
352.519
352.453
352.262
351.865
351.534
351.073
350.205
349.292
348.507
347.407
346.243
345.093
341.39
341.972
342.826
343.844
344.339
344.924
345.333
345.629
345.641
345.619
345.443
345.04
344.826
344.38
343.671
342.858
342.179
341.192
340.234
339.253
335.147
335.649
336.314
337.161
337.605
338.08
338.458
338.728
338.727
338.696
338.566
338.2
338.055
337.643
337.068
336.351
335.834
334.964
334.212
333.356
328.83
329.259
329.788
330.437
330.818
331.205
331.556
331.823
331.798
331.766
331.615
331.307
331.241
330.895
330.402
329.824
329.402
328.662
328.097
327.396
322.486
322.844
323.227
323.665
323.997
324.267
324.604
324.831
324.824
324.752
324.646
324.394
324.396
324.077
323.708
323.276
322.961
322.36
321.91
321.361
316.103
316.389
316.615
316.907
317.168
317.312
317.641
317.788
317.77
317.695
317.634
317.486
317.472
317.25
316.966
316.676
316.478
316.018
315.667
315.286
309.698
309.834
310.003
310.156
310.313
310.375
310.633
310.729
310.677
310.637
310.629
310.571
310.503
310.371
310.196
309.994
309.935
309.631
309.4
309.189
303.289
303.297
303.36
303.404
303.449
303.475
303.587
303.593
303.571
303.581
303.584
303.566
303.52
303.484
303.446
303.345
303.328
303.237
303.137
303.084
348.562
349.727
350.471
351.521
352.116
352.766
353.285
353.717
353.636
353.596
353.387
353.178
352.724
351.879
351.31
350.461
349.364
348.474
347.374
346.241
342.203
343.251
343.881
344.774
345.277
345.84
346.28
346.677
346.667
346.526
346.424
346.267
345.84
345.069
344.583
343.861
342.945
342.169
341.187
340.264
335.83
336.721
337.253
337.983
338.419
338.885
339.308
339.557
339.61
339.473
339.42
339.257
338.906
338.229
337.842
337.178
336.448
335.809
334.931
334.197
329.433
330.175
330.564
331.156
331.495
331.893
332.293
332.422
332.443
332.355
332.322
332.215
331.945
331.336
331.037
330.52
329.916
329.368
328.687
328.098
322.968
323.517
323.833
324.246
324.54
324.845
325.176
325.271
325.277
325.22
325.199
325.094
324.937
324.441
324.208
323.798
323.36
322.897
322.405
321.909
316.456
316.831
317.062
317.318
317.535
317.814
318.045
318.084
318.03
318.045
318.093
317.968
317.864
317.533
317.336
317.03
316.74
316.376
316.082
315.676
309.905
310.107
310.271
310.43
310.516
310.723
310.876
310.871
310.796
310.871
310.888
310.827
310.734
310.551
310.45
310.236
310.037
309.83
309.704
309.434
303.335
303.387
303.461
303.493
303.526
303.602
303.666
303.646
303.618
303.655
303.654
303.616
303.572
303.532
303.507
303.423
303.358
303.287
303.298
303.187
349.603
350.826
351.596
352.665
353.19
353.815
354.212
354.567
354.866
354.741
354.54
354.15
353.924
353.141
352.364
351.546
350.586
349.521
348.2
347.24
343.123
344.182
344.84
345.754
346.234
346.776
347.087
347.428
347.744
347.594
347.456
347.031
346.881
346.178
345.505
344.825
343.992
343.07
341.917
341.056
336.639
337.486
338.063
338.804
339.228
339.701
339.919
340.227
340.525
340.385
340.295
339.913
339.801
339.173
338.66
338.03
337.381
336.591
335.606
334.845
330.101
330.692
331.212
331.821
332.181
332.59
332.728
332.97
333.264
333.117
333.057
332.719
332.667
332.123
331.752
331.198
330.689
330.093
329.256
328.591
323.517
323.921
324.333
324.809
325.081
325.426
325.512
325.66
325.945
325.807
325.775
325.517
325.502
325.058
324.754
324.294
323.912
323.501
322.805
322.291
316.84
317.121
317.408
317.757
317.948
318.212
318.258
318.323
318.594
318.435
318.44
318.259
318.326
317.946
317.732
317.355
317.079
316.869
316.37
315.973
310.175
310.295
310.449
310.685
310.783
310.966
310.995
310.99
311.194
311.092
311.081
310.972
311.055
310.788
310.678
310.419
310.263
310.171
309.875
309.623
303.407
303.446
303.482
303.567
303.609
303.676
303.673
303.688
303.758
303.725
303.718
303.696
303.721
303.63
303.58
303.492
303.444
303.412
303.309
303.229
350.428
351.53
352.638
353.427
354.127
354.666
355.142
355.602
355.692
355.728
355.589
355.013
354.729
354.137
353.38
352.669
351.569
350.285
349.089
348.09
343.846
344.768
345.774
346.431
347.034
347.469
347.92
348.321
348.386
348.431
348.327
347.779
347.565
347.04
346.396
345.796
344.886
343.756
342.694
341.926
337.205
337.997
338.884
339.348
339.885
340.251
340.646
340.973
341.055
341.106
340.986
340.55
340.323
339.921
339.374
338.843
338.114
337.152
336.253
335.613
330.547
331.176
331.924
332.231
332.678
332.999
333.33
333.544
333.703
333.697
333.6
333.246
333.045
332.739
332.294
331.826
331.24
330.512
329.741
329.22
323.811
324.303
324.9
325.078
325.428
325.746
325.991
326.12
326.274
326.246
326.205
325.91
325.767
325.516
325.18
324.786
324.369
323.792
323.179
322.785
317.023
317.41
317.809
317.914
318.175
318.388
318.566
318.676
318.812
318.743
318.784
318.518
318.431
318.241
318.046
317.725
317.463
317.044
316.596
316.306
310.204
310.438
310.711
310.74
310.909
311.05
311.136
311.226
311.323
311.214
311.301
311.158
311.098
310.931
310.867
310.65
310.485
310.272
309.964
309.793
303.432
303.497
303.599
303.589
303.647
303.691
303.729
303.768
303.802
303.764
303.803
303.715
303.733
303.657
303.655
303.578
303.532
303.429
303.332
303.273
351.316
352.14
353.313
354.11
354.77
355.448
355.878
356.367
356.617
356.566
356.713
356.057
355.497
354.839
354.441
353.419
352.386
351.04
349.947
348.808
344.622
345.311
346.324
346.985
347.573
348.175
348.56
349.004
349.203
349.151
349.314
348.697
348.228
347.662
347.329
346.429
345.544
344.365
343.432
342.535
337.875
338.461
339.293
339.836
340.278
340.887
341.139
341.579
341.755
341.663
341.834
341.279
340.912
340.413
340.114
339.321
338.674
337.619
336.869
336.164
331.019
331.534
332.203
332.688
332.974
333.546
333.664
334.1
334.254
334.203
334.316
333.868
333.555
333.132
332.883
332.238
331.698
330.858
330.254
329.749
324.118
324.569
325.051
325.502
325.688
326.136
326.225
326.611
326.727
326.653
326.773
326.383
326.176
325.831
325.591
325.152
324.712
324.077
323.625
323.221
317.262
317.557
317.93
318.273
318.351
318.691
318.716
319.068
319.117
319.054
319.125
318.887
318.75
318.444
318.289
318.025
317.692
317.216
316.976
316.614
310.366
310.511
310.796
310.992
311.013
311.226
311.241
311.452
311.503
311.473
311.514
311.366
311.287
311.072
310.982
310.855
310.651
310.36
310.212
310.012
303.49
303.528
303.62
303.664
303.665
303.754
303.74
303.83
303.849
303.836
303.865
303.803
303.792
303.685
303.658
303.656
303.573
303.483
303.415
303.371
352.217
352.954
353.959
354.767
355.705
356.372
356.727
356.997
357.511
357.453
357.381
356.956
356.27
355.726
355.035
354.097
353.001
351.933
350.804
349.653
345.438
346.001
346.902
347.585
348.377
348.931
349.287
349.552
350.016
349.927
349.917
349.504
348.893
348.46
347.873
347.031
346.137
345.137
344.196
343.249
338.593
338.956
339.796
340.363
341.017
341.45
341.807
342.053
342.467
342.355
342.348
342.009
341.49
341.117
340.647
339.922
339.176
338.276
337.517
336.749
331.69
331.941
332.648
333.097
333.595
333.979
334.271
334.5
334.787
334.662
334.725
334.458
334.046
333.726
333.35
332.785
332.191
331.405
330.775
330.171
324.693
324.877
325.461
325.852
326.182
326.503
326.726
326.899
327.082
326.977
327.094
326.836
326.551
326.28
326.041
325.57
325.128
324.45
323.941
323.54
317.682
317.77
318.189
318.543
318.777
318.973
319.104
319.274
319.373
319.327
319.408
319.196
318.993
318.802
318.649
318.317
317.964
317.462
317.116
316.867
310.637
310.64
310.913
311.145
311.275
311.401
311.466
311.594
311.637
311.628
311.665
311.557
311.426
311.295
311.213
311.024
310.796
310.505
310.269
310.17
303.558
303.55
303.67
303.739
303.774
303.817
303.837
303.914
303.889
303.891
303.901
303.871
303.835
303.783
303.742
303.707
303.601
303.522
303.449
303.398
352.637
353.589
354.664
355.569
356.357
357.091
357.598
357.696
358.121
358.077
358.067
357.625
357.073
356.647
355.803
354.833
353.84
352.417
351.361
350.215
345.753
346.551
347.477
348.284
348.961
349.595
350.034
350.092
350.513
350.48
350.472
350.059
349.658
349.216
348.527
347.659
346.825
345.617
344.686
343.709
338.804
339.472
340.271
340.986
341.532
342.037
342.421
342.494
342.847
342.803
342.804
342.479
342.158
341.789
341.189
340.452
339.765
338.703
337.927
337.126
331.776
332.381
332.984
333.572
334.047
334.429
334.755
334.814
335.144
335.058
335.104
334.815
334.596
334.278
333.83
333.181
332.627
331.743
331.102
330.508
324.768
325.286
325.682
326.145
326.497
326.807
327.083
327.117
327.346
327.282
327.319
327.116
326.989
326.712
326.409
325.899
325.43
324.757
324.269
323.82
317.707
318.118
318.346
318.693
318.926
319.175
319.375
319.406
319.558
319.449
319.549
319.372
319.35
319.124
318.91
318.59
318.223
317.705
317.363
317.078
310.646
310.918
311.01
311.273
311.344
311.503
311.677
311.675
311.742
311.652
311.768
311.648
311.65
311.489
311.395
311.198
311.002
310.629
310.448
310.297
303.574
303.653
303.683
303.804
303.794
303.848
303.922
303.9
303.92
303.876
303.95
303.894
303.922
303.833
303.829
303.768
303.703
303.588
303.529
303.473
352.882
354.024
355.063
356.274
356.941
357.649
358.11
358.506
358.53
358.558
358.49
358.152
357.839
357.135
356.359
355.432
354.421
353.053
351.924
350.738
345.994
346.922
347.801
348.935
349.446
350.09
350.526
350.813
350.895
350.93
350.8
350.564
350.333
349.7
348.99
348.206
347.318
346.114
345.124
344.142
338.985
339.795
340.504
341.495
341.917
342.464
342.851
343.084
343.191
343.218
343.079
342.907
342.718
342.183
341.557
340.889
340.149
339.117
338.271
337.516
331.933
332.635
333.191
334.038
334.366
334.787
335.12
335.305
335.403
335.458
335.34
335.22
335.014
334.578
334.026
333.525
332.923
332.06
331.382
330.811
324.89
325.426
325.855
326.505
326.761
327.067
327.402
327.504
327.604
327.603
327.542
327.466
327.269
326.934
326.486
326.09
325.683
324.986
324.442
324.023
317.835
318.192
318.489
318.915
319.15
319.378
319.638
319.657
319.772
319.725
319.688
319.668
319.504
319.259
318.936
318.629
318.418
317.88
317.504
317.228
310.71
310.915
311.127
311.395
311.565
311.655
311.822
311.837
311.92
311.831
311.833
311.847
311.725
311.571
311.393
311.187
311.098
310.78
310.556
310.37
303.605
303.664
303.703
303.827
303.893
303.922
303.97
303.968
303.998
303.957
303.948
303.977
303.931
303.861
303.836
303.736
303.726
303.622
303.554
303.488
353.413
354.469
355.596
356.545
357.196
358.101
358.616
358.844
359.059
359.157
359.194
358.727
358.354
357.424
356.779
355.863
354.577
353.466
352.336
351.053
346.424
347.297
348.321
349.131
349.664
350.478
350.905
351.096
351.306
351.444
351.484
351.026
350.693
349.904
349.292
348.616
347.441
346.468
345.511
344.425
339.355
340.115
340.988
341.659
342.07
342.795
343.156
343.361
343.489
343.664
343.66
343.293
343.044
342.368
341.819
341.263
340.284
339.41
338.665
337.767
332.282
332.868
333.63
334.136
334.465
335.063
335.374
335.562
335.672
335.831
335.791
335.508
335.355
334.736
334.294
333.828
333.074
332.284
331.719
330.984
325.144
325.596
326.213
326.576
326.869
327.288
327.577
327.71
327.832
327.971
327.869
327.699
327.541
327.093
326.712
326.367
325.761
325.176
324.698
324.12
317.976
318.302
318.749
318.97
319.221
319.505
319.73
319.782
319.948
320.024
319.912
319.85
319.698
319.384
319.136
318.866
318.448
318.009
317.661
317.242
310.795
310.971
311.309
311.394
311.553
311.714
311.843
311.886
311.991
312.085
311.951
311.93
311.827
311.668
311.511
311.315
311.101
310.82
310.606
310.347
303.615
303.665
303.805
303.813
303.875
303.916
303.972
303.978
304.026
304.074
304.014
303.998
303.967
303.913
303.854
303.791
303.74
303.629
303.579
303.462
353.564
354.599
355.663
356.846
357.519
358.212
358.751
359.163
359.322
359.389
359.378
358.848
358.703
357.732
357.049
356.156
354.862
353.753
352.43
351.327
346.551
347.426
348.338
349.423
349.956
350.566
351.01
351.412
351.537
351.579
351.636
351.154
351.035
350.128
349.574
348.824
347.674
346.721
345.58
344.626
339.496
340.23
340.992
341.951
342.334
342.852
343.268
343.59
343.675
343.696
343.796
343.421
343.298
342.498
342.045
341.399
340.467
339.667
338.692
337.899
332.413
332.995
333.586
334.418
334.719
335.141
335.497
335.737
335.752
335.836
335.863
335.632
335.505
334.871
334.506
333.922
333.209
332.519
331.754
331.118
325.27
325.701
326.177
326.825
327.056
327.342
327.65
327.801
327.838
327.914
327.939
327.809
327.663
327.226
326.885
326.438
325.935
325.336
324.734
324.282
318.079
318.388
318.716
319.215
319.36
319.519
319.761
319.86
319.893
319.984
319.987
319.927
319.802
319.474
319.216
318.897
318.606
318.099
317.664
317.372
310.875
311.065
311.24
311.544
311.625
311.713
311.856
311.889
311.934
312.016
312.012
311.979
311.892
311.701
311.579
311.349
311.169
310.867
310.597
310.461
303.643
303.704
303.755
303.884
303.906
303.907
303.965
303.965
304.005
304.014
304.044
304.022
303.988
303.929
303.901
303.802
303.751
303.646
303.535
303.529
)
;

boundaryField
{
    hotSide
    {
        type            fixedGradient;
        gradient        nonuniform List<scalar> 
400
(
355.092
370.569
385.88
400.957
415.731
430.132
444.091
457.541
470.413
482.644
494.171
504.933
514.876
523.945
532.095
539.281
545.466
550.618
554.711
557.723
362.627
378.522
394.251
409.743
424.929
439.736
454.095
467.934
481.185
493.78
505.657
516.752
527.008
536.372
544.793
552.228
558.637
563.987
568.25
571.406
369.148
385.416
401.519
417.384
432.94
448.113
462.83
477.02
490.613
503.538
515.731
527.129
537.671
547.302
555.972
563.634
570.249
575.783
580.206
583.496
374.634
391.229
407.658
423.851
439.731
455.225
470.259
484.759
498.653
511.871
524.346
536.012
546.808
556.679
565.571
573.439
580.24
585.94
590.509
593.924
379.071
395.944
412.652
429.123
445.281
461.05
476.356
491.122
505.276
518.746
531.464
543.363
554.381
564.46
573.548
581.596
588.562
594.409
599.109
602.637
382.457
399.556
416.493
433.193
449.579
465.575
481.105
496.092
510.462
524.142
537.063
549.157
560.361
570.617
579.87
588.071
595.178
601.154
605.967
609.594
384.795
402.069
419.182
436.059
452.623
468.796
484.501
499.661
514.202
528.048
541.13
553.38
564.734
575.131
584.518
592.845
600.068
606.15
611.058
614.77
386.096
403.49
420.726
437.728
454.418
470.717
486.548
501.833
516.497
530.464
543.665
556.03
567.494
577.999
587.487
595.91
603.223
609.387
614.372
618.152
386.373
403.835
421.141
438.214
454.977
471.35
487.256
502.617
517.356
531.399
544.674
557.112
568.649
579.223
588.779
597.267
604.642
610.866
615.906
619.738
385.647
403.123
420.445
437.536
454.318
470.714
486.643
502.03
516.796
530.867
544.172
556.641
568.21
578.817
588.407
596.929
604.339
610.597
615.671
619.538
383.938
401.375
418.659
435.715
452.465
468.83
484.732
500.094
514.839
528.892
542.182
554.64
566.201
576.803
586.392
594.917
602.332
608.599
613.687
617.569
381.273
398.616
415.809
432.777
449.442
465.725
481.549
496.837
511.512
525.501
538.732
551.136
562.649
573.21
582.763
591.258
598.65
604.902
609.98
613.86
377.676
394.873
411.924
428.751
445.279
461.429
477.126
492.291
506.849
520.728
533.855
546.163
557.589
568.07
577.554
585.988
593.33
599.54
604.588
608.447
373.174
390.175
407.032
423.668
440.008
455.976
471.495
486.49
500.885
514.608
527.59
539.761
551.06
561.427
570.806
579.15
586.412
592.557
597.553
601.374
367.796
384.552
401.165
417.561
433.665
449.402
464.696
479.474
493.661
507.185
519.979
531.974
543.109
553.325
562.569
570.791
577.948
584.003
588.926
592.691
361.571
378.034
394.356
410.464
426.285
441.745
456.769
471.285
485.221
498.505
511.07
522.851
533.786
543.818
552.894
560.966
567.992
573.935
578.765
582.457
354.531
370.656
386.641
402.416
417.909
433.047
447.758
461.971
475.613
488.617
500.916
512.446
523.147
532.963
541.842
549.737
556.607
562.416
567.134
570.738
346.709
362.452
378.058
393.458
408.58
423.355
437.712
451.581
464.892
477.578
489.575
500.821
511.255
520.825
529.479
537.172
543.864
549.518
554.107
557.608
338.141
353.463
368.65
383.633
398.346
412.719
426.684
440.171
453.115
465.449
477.111
488.04
498.179
507.475
515.878
523.346
529.837
535.319
539.764
543.149
328.868
343.731
358.461
372.992
387.259
401.194
414.73
427.803
440.346
452.296
463.592
474.176
483.992
492.989
501.119
508.34
514.613
519.906
524.192
527.449
)
;
    }
    coldSide
    {
        type            mixed;
        refValue        uniform 300;
        refGradient     uniform 0;
        valueFraction   uniform 0.991591;
        source          uniform 0;
        value           nonuniform List<scalar> 
400
(
300.021
300.021
300.022
300.022
300.023
300.024
300.025
300.025
300.026
300.027
300.028
300.028
300.029
300.029
300.029
300.03
300.03
300.03
300.03
300.031
300.021
300.021
300.022
300.023
300.024
300.024
300.025
300.026
300.026
300.027
300.028
300.028
300.029
300.029
300.03
300.03