/*--------------------------------*- C++ -*----------------------------------*\
| =========                 |                                                 |
| \\      /  F ield         | OpenFOAM: The Open Source CFD Toolbox           |
|  \\    /   O peration     | Version:  2212                                  |
|   \\  /    A nd           | Website:  www.openfoam.com                      |
|    \\/     M anipulation  |                                                 |
\*---------------------------------------------------------------------------*/
FoamFile
{
    version     2.0;
    format      ascii;
    arch        "LSB;label=32;scalar=64";
    class       volScalarField;
    location    "0";
    object      relativeErrorField;
}
// * * * * * * * * * * * * * * * * * * * * * * * * * * * * * * * * * * * * * //

dimensions      [0 0 0 1 0 0 0];

internalField   nonuniform List<scalar> 
3200
(
0.00202358
0.00334572
0.0069806
0.00943516
0.0102936
0.0102701
0.0095562
0.00860381
0.00801934
0.00735882
0.0071859
0.007068
0.00773099
0.00864403
0.00908288
0.00998935
0.00929466
0.00746709
0.00410834
0.000617651
0.00216933
0.00199827
0.00552773
0.00767444
0.00836371
0.00814638
0.00804454
0.00715548
0.00625525
0.00563762
0.00552387
0.00556283
0.00625004
0.00680903
0.00748676
0.00778599
0.00739649
0.00582787
0.0029747
0.00115667
0.00239931
0.00129102
0.00414549
0.00620725
0.0067221
0.00698678
0.00607428
0.00548615
0.0048393
0.00453452
0.00425956
0.00455568
0.0048143
0.00544555
0.00607049
0.00624414
0.00601235
0.00472615
0.00188127
0.00102725
0.00197377
0.000570268
0.00321524
0.00468271
0.00518379
0.00517379
0.00460685
0.00415691
0.00382069
0.00328349
0.00349532
0.00338784
0.00378237
0.00406396
0.00465011
0.00487571
0.00469517
0.00364221
0.00110668
0.00117286
0.00171471
0.000324557
0.00231387
0.00339588
0.00413135
0.00394181
0.00353537
0.00314432
0.00254538
0.00268454
0.00228469
0.00223575
0.00241942
0.00305968
0.00335621
0.00388042
0.00355381
0.00235487
0.000686008
0.00132244
0.00124645
6.37945e-05
0.00153396
0.00237513
0.00279415
0.00281578
0.00246827
0.00193341
0.00184287
0.00160472
0.00171001
0.00170827
0.00210762
0.00233864
0.0025485
0.00250681
0.00215808
0.00181747
0.000268068
0.000806261
0.00094259
9.82893e-05
0.000899262
0.00118765
0.00133479
0.00166908
0.00164728
0.00112553
0.00102441
0.00102943
0.000943361
0.00117225
0.00107792
0.00154531
0.00158302
0.00151418
0.00125047
0.00110644
7.23565e-05
0.000524895
0.000472301
0.000249615
0.000298135
0.000581027
0.000264794
0.000580757
0.000391061
0.000506038
0.000461239
0.000330722
0.000454019
0.000553409
0.000192108
0.000635635
0.000340111
0.00038043
0.000552404
9.21124e-05
7.6304e-05
0.000292895
0.0022463
0.00262651
0.00660982
0.00888636
0.00918803
0.00929812
0.00845669
0.00731589
0.00651651
0.00586636
0.00574699
0.00572437
0.00647199
0.00726709
0.00824761
0.0088679
0.00850516
0.00680344
0.0033752
0.000859009
0.00266881
0.00135661
0.00481727
0.00708053
0.00748345
0.00743361
0.00660747
0.00600963
0.00521182
0.00439414
0.0042147
0.00434744
0.00495095
0.00558801
0.00679857
0.00718889
0.00704664
0.00533763
0.00220876
0.00141791
0.00248044
0.000782159
0.00372
0.00538954
0.00637908
0.0060124
0.00573335
0.00456204
0.0039439
0.00352963
0.00333895
0.00362884
0.00388596
0.0045497
0.00529206
0.005589
0.0051787
0.00400397
0.00157491
0.00176283
0.00250834
0.000374513
0.00266433
0.00440768
0.00477987
0.00467333
0.00431741
0.00367006
0.00304212
0.00281455
0.002575
0.00260827
0.00312547
0.0033724
0.00400042
0.00461164
0.0041601
0.00314333
0.000990953
0.00161286
0.00221968
0.000304411
0.00210474
0.00325076
0.00357385
0.00356171
0.00334715
0.00297427
0.00247292
0.0021217
0.00193051
0.00192273
0.00192836
0.00247253
0.00311273
0.00336479
0.00310198
0.00211283
3.8837e-05
0.00154613
0.00166351
0.000183428
0.00140669
0.00222002
0.00244485
0.00266197
0.00193437
0.00182988
0.00156994
0.00109089
0.00112995
0.00122227
0.0013996
0.00179185
0.00213337
0.0024208
0.00208268
0.00147439
8.48148e-05
0.0012569
0.00114194
0.000122668
0.000736645
0.00138545
0.00134097
0.00158571
0.00133391
0.001256
0.000721583
0.000532441
0.000664595
0.000765754
0.00093993
0.000973472
0.00118364
0.00151978
0.00121415
0.000903745
0.000190689
0.000866218
0.000111028
7.37956e-05
0.000362767
0.000555967
0.000353684
0.000610797
0.000251596
0.00059394
0.000110622
0.000410084
0.000279155
5.07888e-05
7.97445e-05
0.000489687
0.000306231
0.000437435
0.000542549
0.000458329
5.99386e-05
0.000354063
0.00300974
0.00142087
0.00545386
0.00761368
0.00806381
0.00786771
0.00656325
0.00575108
0.00467596
0.0038072
0.00342152
0.00367421
0.00439386
0.00535785
0.00658125
0.0072756
0.00745253
0.00575759
0.00247856
0.00176447
0.00372279
0.000638359
0.00393002
0.00609026
0.00658535
0.00615015
0.00538964
0.00431072
0.00369312
0.00278529
0.00245105
0.00254077
0.00320808
0.00413507
0.00520196
0.00608921
0.00590534
0.00416686
0.00126999
0.00240066
0.00325091
8.77108e-06
0.00305668
0.00472367
0.00517935
0.00498837
0.00417362
0.00342864
0.00284679
0.00201484
0.00191911
0.00215022
0.00219306
0.00348223
0.00388344
0.00472931
0.00439286
0.00302417
0.000570743
0.00249209
0.00290698
5.61933e-05
0.00176572
0.00342097
0.00403252
0.00377857
0.00337713
0.0028789
0.00189997
0.0013905
0.0011362
0.00133126
0.00191592
0.00227457
0.00314542
0.00336761
0.00316929
0.00206242
0.000415365
0.00228554
0.00245524
0.000456113
0.0014999
0.00258539
0.00311626
0.00280909
0.00221931
0.00169642
0.00127253
0.000910516
0.00070427
0.000806228
0.00112501
0.00175869
0.00240529
0.00256898
0.00240296
0.001651
5.4898e-05
0.00194548
0.00193663
0.000474547
0.000877964
0.00174711
0.00230829
0.00200089
0.00161097
0.00118733
0.00106188
0.000748451
0.000437089
0.000631995
0.000793513
0.00128661
0.00156726
0.00186455
0.00173467
0.00132912
9.40987e-05
0.0016328
0.00124162
0.000501032
0.000524411
0.000983576
0.00116509
0.00123162
0.00101115
0.000859197
0.000473194
0.000505575
0.000294381
0.000299146
0.000428913
0.00067477
0.00127195
0.000847343
0.00105993
0.00073272
0.000108538
0.00100131
0.000429913
9.14959e-05
9.95468e-05
0.0004647
0.00057749
0.000367222
0.000328794
8.09704e-05
5.80249e-05
0.000514179
0.000257312
9.23555e-06
3.5654e-05
0.000143861
0.000285637
0.00015192
0.00019396
0.000102127
4.16629e-05
0.000300641
0.00430431
0.000149358
0.00378051
0.00577274
0.00629603
0.00591204
0.00497561
0.00372809
0.00254196
0.00170271
0.00109042
0.00127395
0.00209472
0.0032227
0.00447502
0.00536139
0.00549412
0.00422589
0.000663202
0.00324659
0.00424864
0.000674303
0.00267889
0.00445241
0.00498164
0.00459254
0.00351783
0.00257372
0.00160299
0.000551421
0.000375385
0.000745169
0.00128605
0.00237457
0.0034641
0.00404624
0.0041094
0.00275205
1.63209e-05
0.00363315
0.00395706
0.000938971
0.0016743
0.00347857
0.00388667
0.00359818
0.00274614
0.00187836
0.00115257
0.000353984
6.1838e-05
3.99074e-05
0.000725293
0.00179315
0.0023824
0.00305353
0.00302886
0.00205406
0.000580009
0.00336061
0.00360806
0.00107979
0.00122558
0.00236193
0.00283838
0.00259019
0.00202148
0.00146753
0.000413657
0.000116785
0.000265618
0.000160447
0.000409724
0.000879046
0.00170377
0.00215321
0.00223334
0.00120964
0.00081987
0.00294738
0.00315696
0.000936401
0.000925893
0.00186045
0.00201627
0.00214304
0.00169678
0.000850067
0.00037499
0.000141952
0.00041086
0.000400681
0.00013377
0.000872159
0.00116217
0.00144999
0.00167254
0.000719832
0.000525974
0.00268478
0.00235844
0.00088782
0.000412366
0.00125451
0.00159019
0.00128734
0.000854002
0.000640081
0.000321377
0.000247401
0.000195664
0.000444855
0.000175827
0.000436255
0.000538281
0.00140046
0.00105634
0.000577627
0.000441311
0.00193056
0.00146052
0.000695337
0.000287058
0.000874567
0.000764872
0.000896879
0.000654455
0.000331121
0.000173251
0.000104641
0.000241568
0.00016695
0.000107783
0.000269097
0.000341493
0.000601265
0.000549959
0.000161874
0.000419151
0.0012757
0.000581146
0.00010348
0.000286136
0.000353933
0.00029853
0.000347228
0.000306916
1.14908e-05
6.97298e-05
1.69219e-05
0.000140423
0.000205623
8.78427e-05
8.44306e-05
0.000182509
0.00029025
0.00019694
0.000215813
2.74179e-05
0.000310917
0.00605959
0.00172179
0.00201475
0.00407255
0.00449537
0.00373467
0.00304285
0.00145288
0.000418926
0.000995891
0.00139965
0.000892442
0.000336487
0.00102429
0.00240774
0.00321233
0.00305322
0.00219106
0.000831193
0.00469617
0.0054963
0.00208715
0.00116289
0.00288106
0.00335476
0.00281557
0.00201025
0.000781674
0.000409296
0.00138942
0.00181432
0.0015847
0.000772906
0.000393074
0.00162043
0.00229595
0.00250224
0.00113305
0.00156553
0.00475841
0.0055186
0.00218215
0.000350021
0.00193715
0.00254006
0.00222347
0.00119388
0.000337686
0.000749754
0.00139321
0.00191099
0.00183999
0.00101284
0.000156794
0.000662141
0.00152712
0.00166362
0.000431905
0.00162448
0.00442755
0.00458906
0.00217335
5.31883e-05
0.00134911
0.00188992
0.00149453
0.000806518
4.27469e-05
0.000910249
0.00140647
0.00161399
0.00180815
0.00086555
0.00027313
0.0006194
0.0010784
0.000946825
0.000330948
0.00177885
0.00397484
0.0039513
0.00185614
0.000190068
0.000818453
0.00133589
0.000991663
0.000271302
5.28667e-05
0.000941513
0.00114933
0.00166447
0.001308
0.00113624
0.000551461
0.0002931
0.000634511
0.000511421
0.000116089
0.00184333
0.0037066
0.00281786
0.00161049
0.000428945
0.000511671
0.000731251
0.000724411
0.000236146
0.000329283
0.000630256
0.000979575
0.00129591
0.0011126
0.000960427
0.000427008
0.000117947
0.000317143
0.000559168
0.000254357
0.00148695
0.00253035
0.00179778
0.000994078
0.00010336
0.000377872
0.000497413
0.000400506
9.24472e-05
0.000363686
0.000460368
0.000695226
0.00107814
0.000597762
0.000621481
0.000247783
1.3787e-05
6.46351e-05
0.000242163
0.000104701
0.000731612
0.00159487
0.000532145
0.000228781
0.000101718
9.8648e-05
0.000123773
0.000183076
0.000170671
0.000113752
0.000182194
0.00022303
0.000380162
0.000276797
0.000185188
0.000155928
4.35232e-05
8.96432e-05
0.000194882
0.000154431
0.000402828
0.000506463
0.00771827
0.00349516
0.000169653
0.0019777
0.00271527
0.00211789
0.00077008
0.000535282
0.00211508
0.00326515
0.00393119
0.0036267
0.00255094
0.00141146
4.39756e-05
0.00113158
0.00125528
5.38818e-05
0.00287525
0.00659443
0.00735946
0.00389322
0.000638831
0.000891036
0.00155575
0.00137265
3.15752e-05
0.00118746
0.00228799
0.00345757
0.00369112
0.00352397
0.00304398
0.00166283
0.000467635
0.000343867
0.000409688
0.000521642
0.00300929
0.0063256
0.00674432
0.0037689
0.000936234
0.000789168
0.000945244
0.000830115
1.22558e-05
0.0015185
0.00253437
0.0032397
0.0036667
0.00351383
0.00293606
0.00189284
0.000885089
2.61535e-05
0.000105729
0.00113535
0.00309692
0.00577008
0.00577336
0.00335602
0.00119096
5.07169e-05
0.000464211
0.000352671
0.00069121
0.0013298
0.00233652
0.00275818
0.00338291
0.00302344
0.00245851
0.0017785
0.000844378
0.000343577
0.00038876
0.00103833
0.00280404
0.00507838
0.00470222
0.00297274
0.00134808
0.000198186
0.000260556
0.000238876
0.000494066
0.001201
0.00213893
0.00246424
0.00260818
0.00247862
0.0020911
0.00155592
0.000786315
0.000244902
0.00039956
0.00106311
0.002619
0.00426427
0.00338686
0.00216706
0.000761918
0.000150741
4.81081e-05
0.000144944
0.00071351
0.000709529
0.00134136
0.00184765
0.00207077
0.00195805
0.00160176
0.00123777
0.000890639
0.000592848
0.000479572
0.000593679
0.0019497
0.00310499
0.00246874
0.00135537
0.000678388
0.000177909
0.000211532
0.000161836
0.000324693
0.00057812
0.000932991
0.000886606
0.00132542
0.00132071
0.000804546
0.000992103
0.000641198
0.000410238
0.000281908
0.000620691
0.00107913
0.00185938
0.00071021
0.000636538
0.000480431
1.49656e-05
0.000122084
4.84602e-05
0.000125453
6.97036e-05
0.000749572
0.000618785
0.00029647
0.000528164
0.000433621
0.000232494
0.000128451
0.000266165
5.34661e-05
0.000162332
0.000346101
0.000606087
0.00935247
0.00546222
0.00208654
0.000188034
0.000582759
6.45724e-05
0.0011173
0.00267585
0.00419363
0.00561036
0.00619057
0.00595931
0.00496214
0.00344952
0.00226089
0.00104868
0.000981315
0.00188707
0.00466836
0.00834076
0.0086858
0.00555361
0.00242887
0.000937045
9.87862e-05
0.0006528
0.00139291
0.00286038
0.00407273
0.00509513
0.00572723
0.00555319
0.00481691
0.00349307
0.00245136
0.00161959
0.00113801
0.00248049
0.00493112
0.00764039
0.00795247
0.00508982
0.00244939
0.00117632
0.000462208
0.000788229
0.00178521
0.00275521
0.00411919
0.00490315
0.00519484
0.00509954
0.00464843
0.00331835
0.00227636
0.00148922
0.00159092
0.00268206
0.0046871
0.00707998
0.00691426
0.00453184
0.00262815
0.0010378
0.000731243
0.000932937
0.00129141
0.00252348
0.00342897
0.00429849
0.00445543
0.00434966
0.00373951
0.00309974
0.00215402
0.00167659
0.00173766
0.00231721
0.00430693
0.00621266
0.00551641
0.00380928
0.00214196
0.00114003
0.000882581
0.000867057
0.00138792
0.0022454
0.00305855
0.00366194
0.0037352
0.00360827
0.00320037
0.00256387
0.00187178
0.00149467
0.00165395
0.00192738
0.00366003
0.00508863
0.00407364
0.0030073
0.00157034
0.00085513
0.000625398
0.000841769
0.00109627
0.00165772
0.0022558
0.00253783
0.00282018
0.00278266
0.00247054
0.00202006
0.00158818
0.00121191
0.00121704
0.0016957
0.00259098
0.00372882
0.00244692
0.00175101
0.00101733
0.000397893
0.000491033
0.00037052
0.000741593
0.000977571
0.00139443
0.00168254
0.00178016
0.00164726
0.00149251
0.00112411
0.000886939
0.000515497
0.000781203
0.00108483
0.00173279
0.00223192
0.00114928
0.000935214
0.000290588
6.88969e-05
0.000367775
0.000253007
0.000240186
0.000429576
0.000639808
0.00065003
0.000564257
0.000598783
0.00066288
0.000434473
0.000619988
0.000262582
0.000241916
0.000315669
0.00058886
0.000876694
0.0109673
0.00730972
0.00386794
0.00205771
0.00129791
0.00161578
0.00282267
0.00439274
0.00600463
0.00730518
0.00778455
0.00792219
0.00675642
0.00518836
0.00397405
0.00303109
0.00295955
0.00407095
0.00665393
0.00988739
0.010398
0.007241
0.00457734
0.00249723
0.0018308
0.0020758
0.00314433
0.00406386
0.00572538
0.0068919
0.00744061
0.00733022
0.00672724
0.00514448
0.00386349
0.00299962
0.00302384
0.00419879
0.00664382
0.0094001
0.00930822
0.00647764
0.00388962
0.00267728
0.00199549
0.00232442
0.00292265
0.00420237
0.00520688
0.00614192
0.00671907
0.00646669
0.00584884
0.00472361
0.00401424
0.00322348
0.00312086
0.00431285
0.00613379
0.00844754
0.0079668
0.00572338
0.00375209
0.00223054
0.00180953
0.0020695
0.00272317
0.00390754
0.00486215
0.00545012
0.00569256
0.00573581
0.0052173
0.00428528
0.00348366
0.00306129
0.00297477
0.00392576
0.00551303
0.00721272
0.00653441
0.00455614
0.00276236
0.00206562
0.0017472
0.0017505
0.00248281
0.00285835
0.00375208
0.00458867
0.00458994
0.00473002
0.00443391
0.0037114
0.00302898
0.00225961
0.00259975
0.00343781
0.00431221
0.00584065
0.0046362
0.00370194
0.00242997
0.00160676
0.00121868
0.00140135
0.0017047
0.00244546
0.00261885
0.00300314
0.00367741
0.00351936
0.00292264
0.00246007
0.0022924
0.00202593
0.00180121
0.0022081
0.00337297
0.00458663
0.00294372
0.00221548
0.00133865
0.00104266
0.000840697
0.000947166
0.0011159
0.00145435
0.0019056
0.00195838
0.00210131
0.00208115
0.00186032
0.00168088
0.00137161
0.00116295
0.00100259
0.00161281
0.00203255
0.00272009
0.000817996
0.000920571
0.000460886
0.000380627
1.37601e-05
0.000295737
0.00042122
0.000337176
0.000659715
0.000900475
0.000500733
0.000745041
0.000716141
0.000707006
0.000563813
0.000552715
0.000277523
0.000441884
0.000629876
0.000597102
0.0124139
0.00903836
0.00570576
0.00389778
0.00310293
0.00338432
0.0045419
0.00565375
0.00750463
0.0085255
0.00940033
0.00934023
0.00828691
0.00682895
0.00563959
0.00455913
0.00458347
0.00549085
0.00822566
0.0112656
0.0117234
0.00868694
0.00595702
0.00377036
0.0035068
0.0036035
0.00442557
0.00565279
0.00698207
0.00815556
0.0087656
0.00868098
0.007591
0.00657842
0.00526553
0.00467536
0.00470115
0.00551119
0.00773042
0.0105293
0.0104851
0.00797706
0.00518212
0.00380954
0.00319789
0.00336959
0.00398654
0.00520462
0.00629576
0.00732128
0.00781436
0.00779237
0.00708386
0.00581235
0.0050038
0.00448953
0.00442439
0.00551054
0.00702156
0.00933754
0.00900682
0.00686833
0.00473965
0.00345383
0.00297054
0.00302101
0.0038677
0.00477835
0.0054729
0.0062362
0.00664477
0.00657859
0.0060075
0.00510476
0.00429431
0.00402061
0.00398521
0.00493169
0.00628405
0.00815972
0.00733998
0.00578261
0.00401958
0.00274428
0.00239854
0.00284779
0.0030215
0.00373948
0.0044192
0.00489518
0.0054584
0.00546375
0.00496766
0.00430457
0.00389779
0.0035131
0.00337493
0.00387938
0.00508606
0.00674015
0.00535849
0.00413923
0.00308051
0.00220772
0.00199099
0.00187772
0.00235658
0.00280842
0.0035676
0.00383107
0.003947
0.00408718
0.00353914
0.003269
0.00260726
0.00256516
0.00240037
0.00301487
0.00389426
0.00479109
0.00315887
0.00252521
0.00198882
0.00128375
0.00117449
0.00134623
0.00141245
0.00191144
0.00189185
0.00217495
0.00248132
0.00260288
0.00223786
0.00197295
0.00172778
0.00147181
0.00157556
0.00202907
0.00234129
0.00305985
0.00121597
0.000796192
0.00069865
0.00041461
0.000446771
0.000398171
0.000631026
0.000647204
0.000672589
0.000801175
0.000966508
0.000844034
0.000826113
0.000596187
0.00057297
0.000358999
0.000347591
0.000641964
0.000784377
0.00122458
0.0135975
0.0103481
0.0072549
0.00522674
0.00468822
0.00449873
0.00550059
0.00690906
0.00853019
0.00964539
0.0103511
0.0102336
0.00927053
0.0080788
0.00660699
0.00599625
0.0059598
0.00721968
0.00943528
0.0124037
0.0125908
0.00969146
0.007109
0.00529719
0.00457802
0.00473121
0.0058142
0.00646594
0.00758984
0.00892885
0.00944722
0.00954329
0.00864572
0.00756571
0.00626918
0.0057668
0.00574425
0.00669934
0.0087848
0.0116196
0.0113206
0.00876241
0.00646699
0.00512602
0.00451942
0.00420884
0.00500684
0.00608139
0.0070974
0.0081023
0.00855666
0.00833889
0.0078206
0.00679662
0.00577449
0.00526593
0.00537254
0.00651969
0.00811452
0.010248
0.00969115
0.00779831
0.00576577
0.00439671
0.00376654
0.00408404
0.00452614
0.0053463
0.0062191
0.00689887
0.00679822
0.00700652
0.00678514
0.00573693
0.00503794
0.0043866
0.00495246
0.00583499
0.00715232
0.0088814
0.00778936
0.00632424
0.00457254
0.00381313
0.00310801
0.0031
0.00368194
0.00428751
0.00486611
0.0059593
0.00589394
0.00589418
0.00548699
0.00487219
0.00426456
0.00385073
0.00396449
0.00480305
0.00551764
0.00732421
0.0057739
0.00447715
0.00356455
0.002896
0.00248992
0.00242468
0.00284905
0.00313398
0.00378682
0.00442844
0.00435781
0.00451865
0.0040521
0.0036271
0.00323599
0.00278386
0.00287205
0.00373719
0.00420703
0.00543
0.0038185
0.00315307
0.00239392
0.00150372
0.001682
0.00167368
0.00187098
0.00192806
0.0024289
0.00259176
0.00274561
0.00269301
0.00244908
0.00224051
0.00190935
0.001768
0.00175748
0.00217238
0.0025985
0.00336177
0.00132469
0.00107726
0.000991344
0.000566787
0.000635846
0.000630554
0.000432818
0.000778307
0.00053144
0.00103266
0.000945324
0.000821557
0.000767176
0.000704935
0.000654451
0.000750071
0.000601498
0.000613013
0.000857932
0.00134179
0.014644
0.0114834
0.00845544
0.006408
0.00573758
0.00540353
0.00633452
0.00754159
0.00880341
0.0099995
0.0105124
0.0107345
0.00967202
0.00866157
0.0073475
0.00668279
0.00679893
0.00802996
0.0103518
0.0133027
0.0135674
0.0106042
0.00806479
0.0064085
0.00543119
0.00553793
0.00607146
0.00702648
0.00824136
0.00912175
0.00988364
0.00965746
0.00900936
0.00807582
0.00691926
0.00647442
0.00678736
0.00780039
0.00991322
0.0120912
0.0119908
0.00962704
0.00725991
0.00580092
0.00502742
0.0049906
0.00543556
0.00626749
0.0071233
0.00842757
0.00861954
0.00869352
0.00785743
0.00724434
0.00619707
0.00585533
0.00622038
0.00689841
0.00899493
0.0108968
0.0102823
0.00821133
0.00635498
0.00517101
0.00449104
0.00431526
0.00489771
0.00544202
0.00630474
0.00718719
0.00757123
0.00762021
0.00721083
0.00625082
0.00563609
0.00515258
0.00547379
0.00639028
0.00776705
0.00956108
0.00831562
0.00654285
0.00529598
0.00445282
0.00366629
0.00371917
0.00396053
0.00466289
0.00527713
0.00560407
0.00583815
0.00612091
0.00565342
0.00499841
0.00460105
0.0041954
0.00438334
0.00548203
0.00627157
0.00740518
0.00611887
0.00491009
0.00399755
0.00326003
0.00303467
0.0028074
0.00304615
0.00323441
0.0037175
0.00437794
0.00467253
0.00455952
0.00399154
0.00372034
0.00354806
0.00289806
0.00312795
0.00377658
0.00467566
0.00546264
0.00396033
0.00303562
0.00214077
0.00191224
0.00187953
0.00165418
0.00176234
0.00218652
0.00230835
0.00253932
0.0025012
0.00263525
0.00237973
0.00261355
0.00219912
0.00187647
0.0020999
0.00243046
0.00267452
0.0034531
0.00143633
0.00118381
0.000928993
0.000750947
0.000659734
0.000756095
0.000642559
0.000566227
0.000948189
0.000940579
0.0010859
0.000844424
0.000998632
0.000524258
0.000655781
0.000637727
0.000817347
0.000749712
0.000964945
0.0011719
0.0149268
0.0119693
0.00907477
0.00718875
0.00610596
0.0059645
0.00647628
0.00744328
0.0086837
0.00978906
0.0104179
0.0101352
0.00948097
0.00830971
0.00760321
0.00708567
0.00731118
0.008451
0.010664
0.0133112
0.0138117
0.0113172
0.00866449
0.00669953
0.0058276
0.00567765
0.0062317
0.00691089
0.00807867
0.00911861
0.00950021
0.00949492
0.00893166
0.00804775
0.00717222
0.0068377
0.00693122
0.00817854
0.0100684
0.0122998
0.0123157
0.0103437
0.00796367
0.0063959
0.00570036
0.00528383
0.00560307
0.0064642
0.00717922
0.0079472
0.00867418
0.00822658
0.00780287
0.00744108
0.00661681
0.00648349
0.00650741
0.00739462
0.00920049
0.0110118
0.0106794
0.00861284
0.00701509
0.00569049
0.00467271
0.0048182
0.00540225
0.00570156
0.00615867
0.00707702
0.00737327
0.00722948
0.00679949
0.00612556
0.00581788
0.00538361
0.0055821
0.00650351
0.00803404
0.0095833
0.00842085
0.00698963
0.00577969
0.00453479
0.00413826
0.00360907
0.00409641
0.00456252
0.00487815
0.00564537
0.00586505
0.00588841
0.00539262
0.00478832
0.00474443
0.00428067
0.00460522
0.0052638
0.0065567
0.00767042
0.00633761
0.00546544
0.00417729
0.00339435
0.00314722
0.00287046
0.00309173
0.00345958
0.00385081
0.00408181
0.00441381
0.00450765
0.00419532
0.00379391
0.00360438
0.00349654
0.00333478
0.00401833
0.00489696
0.00577251
0.00403901
0.00342414
0.0024583
0.00216496
0.00180296
0.00174184
0.00186767
0.0025341
0.00228008
0.00257244
0.00270606
0.00277015
0.00263147
0.00247448
0.00207491
0.00197651
0.00207539
0.00265969
0.00293262
0.0037639
0.0012257
0.00103594
0.000959358
0.000766025
0.000754703
0.000710256
0.000829909
0.000621258
0.000709844
0.00101646
0.000957049
0.000802539
0.000944525
0.00092229
0.00062874
0.000704577
0.000822145
0.000820017
0.00120791
0.0011014
0.0151263
0.0121802
0.00940526
0.00735439
0.00634708
0.00582856
0.0061548
0.00700347
0.00804719
0.00904899
0.00947981
0.00915549
0.0087771
0.00802526
0.00716237
0.00666966
0.00724213
0.00839234
0.0108021
0.0130339
0.0141878
0.0114152
0.00867503
0.00698628
0.00607852
0.00562244
0.00619869
0.0069115
0.00753713
0.00823967
0.00882429
0.0088078
0.00835775
0.00730096
0.00686881
0.00641438
0.00708165
0.00820196
0.00997681
0.0123256
0.0125534
0.0101497
0.00807249
0.00664447
0.00546387
0.00523978
0.00553501
0.00624055
0.00676399
0.00738861
0.00787633
0.00767699
0.00722539
0.00690258
0.00643126
0.00623957
0.00660059
0.00766836
0.00910569
0.0110179
0.0108506
0.00887004
0.00703634
0.00566283
0.0048112
0.00472364
0.00486564
0.00550362
0.00578342
0.00653932
0.00695717
0.00667935
0.0063296
0.00593462
0.00552612
0.00547616
0.00574246
0.00653878
0.00783768
0.00961591
0.00850744
0.0072017
0.00576163
0.00473582
0.00390325
0.00387023
0.00420599
0.00428089
0.00523294
0.00526059
0.00544421
0.00581969
0.0054646
0.00476602
0.00442349
0.00440418
0.00456015
0.00538279
0.00648586
0.00778494
0.0062015
0.00532427
0.004416
0.00342527
0.00314336
0.00295947
0.00298789
0.0033274
0.00349932
0.00377651
0.00423555
0.00394805
0.00395103
0.00367789
0.00330875
0.00323353
0.00347397
0.00397584
0.00482526
0.00583443
0.00378533
0.003448
0.00306227
0.00199314
0.00217492
0.0018708
0.00170679
0.0019983
0.00230331
0.00234277
0.00270359
0.00225104
0.00244332
0.00219379
0.00190062
0.00207003
0.0022569
0.00241559
0.00319069
0.00360145
0.00161954
0.00114916
0.00128809
0.000627605
0.000765323
0.000556102
0.000807256
0.000865361
0.00105708
0.000745263
0.000969863
0.000908238
0.00104554
0.000984885
0.000649519
0.000985903
0.0011081
0.00107202
0.00106167
0.00128507
0.0148723
0.0117912
0.00911586
0.00699344
0.00601704
0.00544788
0.00552908
0.00604517
0.00697378
0.00763647
0.00796618
0.00794936
0.00741287
0.00700163
0.00639576
0.00619359
0.00673635
0.00802127
0.0102549
0.0126886
0.013598
0.0109343
0.00888022
0.00689651
0.00583367
0.00500814
0.00543818
0.00587473
0.00634757
0.00725527
0.00769295
0.00748612
0.00730364
0.0066145
0.00610149
0.00590763
0.00652338
0.00767033
0.00960736
0.0115332
0.0120103
0.0101351
0.00767082
0.00631099
0.0054481
0.00501061
0.00505297
0.00541923
0.00603903
0.00671403
0.00687405
0.00682154
0.00652995
0.00581686
0.00555449
0.00557548
0.00585431
0.00706248
0.00876403
0.0104105
0.0104126
0.00854419
0.00672523
0.00561266
0.00477603
0.00430173
0.00444796
0.00469818
0.0054181
0.00559507
0.0060402
0.00582597
0.00541712
0.00515652
0.00485723
0.00484073
0.00531666
0.00637716
0.00773011
0.00907993
0.00848536
0.00713297
0.00551749
0.00462708
0.00403093
0.00377008
0.00345776
0.00409019
0.00435801
0.00448904
0.00468378
0.00467582
0.00473666
0.0041725
0.00390936
0.00410595
0.00437063
0.0052224
0.00618613
0.00740261
0.00645811
0.00527044
0.00417044
0.00333302
0.00293971
0.00246055
0.0030063
0.00288614
0.00318459
0.00359738
0.00376552
0.00374459
0.00343426
0.00318164
0.00307073
0.00285252
0.00311275
0.00371733
0.00458056
0.00556759
0.00408921
0.00330223
0.00270017
0.00210541
0.00172028
0.00172168
0.0017349
0.00180524
0.00169338
0.00202137
0.00234407
0.00215207
0.0022039
0.0019992
0.00185286
0.00178746
0.00200483
0.00241452
0.00279021
0.00329179
0.00162892
0.00124038
0.000665674
0.000608893
0.000955502
0.000557045
0.000455139
0.000830748
0.000612351
0.000489138
0.000545419
0.000638308
0.000731818
0.000805334
0.000553252
0.000627491
0.000783868
0.000636561
0.00102042
0.00122612
0.0137096
0.0111863
0.00840305
0.00646653
0.00505445
0.00427325
0.00449059
0.00456307
0.00525677
0.00576717
0.00605839
0.00588418
0.00566379
0.00525147
0.00491901
0.00482572
0.00542452
0.00718261
0.00926548
0.0115464
0.0128849
0.0103928
0.00789142
0.00604693
0.00503476
0.00444147
0.0041708
0.0045631
0.00517025
0.00533776
0.00569545
0.00594526
0.0058313
0.00528975
0.0048265
0.00508996
0.00542865
0.00685925
0.00875344
0.0107043
0.0115475
0.00961388
0.0075438
0.00571303
0.00491766
0.00404014
0.00416481
0.00441716
0.00462099
0.0049891
0.00518704
0.00533985
0.0050812
0.00491527
0.00439272
0.00474864
0.00532109
0.00635619
0.00804747
0.00964308
0.00995563
0.00830458
0.00643751
0.00502382
0.00407054
0.00359297
0.00372833
0.00395086
0.0042059
0.00440048
0.00465436
0.00461131
0.00424885
0.00430521
0.00394524
0.00416845
0.00456362
0.00585729
0.00691715
0.0085207
0.00805423
0.00680429
0.0053723
0.00406216
0.00333893
0.00295563
0.00332135
0.00309017
0.00347507
0.00358452
0.00401264
0.00393938
0.00380351
0.0036922
0.00348798
0.00346997
0.00374449
0.00460117
0.00579504
0.00686894
0.00613396
0.00511049
0.00434388
0.00333506
0.00270981
0.00237203
0.00231326
0.00246257
0.00263436
0.00278127
0.00294428
0.00279543
0.00289411
0.00261841
0.00257076
0.00263193
0.00304043
0.00338056
0.00417198
0.00515884
0.0036818
0.0032147
0.00252359
0.00203156
0.00187605
0.00146133
0.00140764
0.00179148
0.00172782
0.00163153
0.00182847
0.00193685
0.00189122
0.0016676
0.00159477
0.00146162
0.00182855
0.00220134
0.00260972
0.00333344
0.00138992
0.000921472
0.000751639
0.000865466
0.000511549
0.000578129
0.000742299
0.000342432
0.000462015
0.000547358
0.000617623
0.000324222
0.000452668
0.000572382
0.000511184
0.00085155
0.000393468
0.000773915
0.00105165
0.00100394
0.0125465
0.00996119
0.00702684
0.00502892
0.00351478
0.00276331
0.00252121
0.00285744
0.00324156
0.00353254
0.0037887
0.00363824
0.00349434
0.00317091
0.00321715
0.00336852
0.00420828
0.00534608
0.00788147
0.010139
0.011955
0.00938124
0.00676181
0.00528081
0.0036034
0.00310294
0.00295871
0.00268193
0.00294025
0.00353551
0.00362274
0.00368161
0.00353156
0.00345468
0.00325545
0.00360476
0.00410339
0.00559723
0.00744625
0.00940314
0.0105052
0.00850792
0.0065469
0.00464798
0.00354515
0.00299201
0.0028618
0.00279749
0.00340416
0.00354306
0.00353072
0.00357261
0.00345033
0.00315784
0.00320715
0.00366628
0.00404205
0.0049553
0.00676604
0.00835559
0.00911107
0.00759345
0.00575189
0.00424787
0.00341799
0.0026697
0.00255506
0.0026509
0.00304223
0.00319742
0.00329393
0.0032675
0.003061
0.00288358
0.00289552
0.00320268
0.00350605
0.00471342
0.00600754
0.00729339
0.00752082
0.0060768
0.00485441
0.00349999
0.00259563
0.00234996
0.00218671
0.00233798
0.00243033
0.00259937
0.00260402
0.00270168
0.00244349
0.00263696
0.00242481
0.00257553
0.0029888
0.00364515
0.00495433
0.00621326
0.00548775
0.00454921
0.00367795
0.00307814
0.00213818
0.00157985
0.00172679
0.00184032
0.00175418
0.00201998
0.00205134
0.00221994
0.00222348
0.00177518
0.00183577
0.00200878
0.00245136
0.00302283
0.00366048
0.00468231
0.00327469
0.00270782
0.00237225
0.00166123
0.00126736
0.0010887
0.00109476
0.000973739
0.00135734
0.00123483
0.00133894
0.00118645
0.00140817
0.00114247
0.00127819
0.00139577
0.00172167
0.00192087
0.00236784
0.0026385
0.00112848
0.00115023
0.000654562
0.000389948
0.000474205
0.000514624
0.00042046
0.000221147
0.000238925
0.000412386
0.000552024
0.000403528
0.000383519
0.000155049
0.000534626
0.000423387
0.000469133
0.00067383
0.000747174
0.000858277
0.010767
0.00818725
0.0056356
0.00326207
0.00188806
0.000809298
0.000595678
0.000505647
0.000624439
0.00100162
0.00118478
0.000893602
0.000704663
0.000598247
0.000716475
0.00124054
0.00202728
0.00382002
0.00574636
0.00784397
0.0100674
0.00784081
0.00534355
0.00355221
0.0020044
0.00144991
0.00103828
0.000887356
0.00096951
0.00127935
0.00138793
0.00140379
0.0011485
0.00125643
0.00115369
0.00183037
0.00251859
0.00364154
0.00580849
0.00758463
0.00916011
0.00732316
0.00519994
0.00359119
0.00213361
0.00168167
0.0011731
0.00129
0.00127304
0.00142088
0.00154658
0.00164529
0.0013083
0.00111615
0.00149932
0.00163432
0.00242559
0.00372178
0.00547082
0.00707658
0.0082517
0.0063945
0.00456157
0.00303538
0.00212439
0.00156775
0.00122668
0.00126942
0.00116986