/*--------------------------------*- C++ -*----------------------------------*\
| =========                 |                                                 |
| \\      /  F ield         | OpenFOAM: The Open Source CFD Toolbox           |
|  \\    /   O peration     | Version:  2212                                  |
|   \\  /    A nd           | Website:  www.openfoam.com                      |
|    \\/     M anipulation  |                                                 |
\*---------------------------------------------------------------------------*/
FoamFile
{
    version     2.0;
    format      ascii;
    arch        "LSB;label=32;scalar=64";
    class       volScalarField;
    location    "0";
    object      relativeErrorField;
}
// * * * * * * * * * * * * * * * * * * * * * * * * * * * * * * * * * * * * * //

dimensions      [0 0 0 1 0 0 0];

internalField   nonuniform List<scalar> 
3200
(
0.0171087
0.0122649
0.00594883
0.00496911
0.0102792
0.0152148
0.0109249
0.0106415
0.0106296
0.00670919
0.00765708
0.00753537
0.013917
0.0109638
0.0106886
0.00896225
0.00760874
0.00252628
0.00541543
0.00616406
0.00897791
0.00317633
0.00270604
0.000548869
0.00416639
0.00681289
0.00451753
0.0117382
0.00699112
0.00728127
0.00620083
0.00353124
0.0128547
0.00646487
0.00855848
0.0087636
0.0127363
0.00382089
0.00454492
0.00789404
0.00570567
0.00498151
0.00149925
0.00433792
0.00525585
0.00141071
0.00512454
0.0105825
0.0180257
0.000240023
0.00989558
0.00540011
0.00540798
0.0119849
0.00833893
0.00265451
0.00871333
0.00364702
0.000398228
0.00911635
0.00707108
0.0058155
0.00360933
0.00531857
0.00324566
0.000887897
0.00371221
0.0123174
0.00677873
0.00929762
0.00424826
0.0106719
0.00898058
0.00764051
0.0066886
0.00979547
0.00991314
0.00046384
0.00151337
0.00722924
0.00722012
0.0057535
0.00758717
0.00058529
0.00558825
0.00159926
0.00683449
0.0114633
0.00437706
0.00431837
0.0115471
0.00235692
0.00141142
0.00156197
0.00668577
0.000354969
0.00667869
0.00709354
0.000544482
0.000680234
0.00167141
0.0012491
0.00299338
0.00138017
0.00238945
0.00238562
0.00030612
0.00266705
0.00268431
0.00175994
0.00255644
0.00348614
0.0115228
0.00239404
0.00189905
0.00114457
0.00289061
0.00380171
0.000136717
0.00538123
0.00526083
0.00332866
0.0117702
0.00287323
0.00307472
0.00310336
0.00442335
0.000434502
0.00316919
0.00269515
0.00525411
0.000372803
0.00437355
0.00238842
0.00193034
0.000126345
1.53504e-05
0.00428741
0.0035959
0.0003903
0.0037731
0.00424449
0.00193691
0.000540372
0.000331821
0.00183748
0.00884655
0.000217807
0.00177477
0.0014478
0.00391859
0.00467869
0.00276009
0.00205453
0.00356093
0.000866093
0.00025257
0.00458352
0.00346113
0.00295606
0.0100834
0.011422
0.000114755
0.00430779
0.00297385
0.00750378
0.00842552
0.0104945
0.00928099
0.00625686
0.00742754
0.00615184
0.0085758
0.00559821
0.00723139
0.00844726
0.00704517
0.0017082
0.00235062
0.00643517
0.0135175
0.000571476
0.00145197
1.08692e-05
0.00470973
0.000242987
0.00773831
0.00194469
0.00775568
0.000457697
0.000703423
0.00984185
0.00156389
0.0114797
0.000676526
0.00753909
0.000915734
0.00939306
9.45772e-05
0.00448144
0.0159581
0.00583167
0.00602379
0.0063454
0.000513402
0.00347072
0.00479325
0.00836958
0.0120036
0.00774505
0.00254575
0.00641242
0.00615462
0.0067087
0.00389322
0.00615424
0.00841454
0.00482547
0.0019772
0.00420345
0.00536509
0.00624527
0.00460765
0.00546569
0.0058439
0.00676425
0.0051715
0.00349225
0.00350657
0.00916476
0.00570033
0.00507326
0.00170429
0.0103037
0.00273034
0.0094238
0.00158364
0.0020181
0.00235107
0.00301435
0.00445209
0.00378158
0.000535231
0.000531826
0.00666207
0.00805725
0.00534393
0.00619201
0.00490106
0.00208917
0.00651419
0.00980259
0.00135214
0.00602255
0.00344586
0.0082481
0.00583162
0.00232575
0.00834123
0.00177236
0.00507769
0.000552441
0.00491633
0.00217539
0.0013773
0.00632564
0.00071739
0.00375446
0.00739147
0.00632695
0.000967162
0.005283
0.00505985
0.00717392
0.00104066
0.00426788
0.00312926
0.00654242
0.00209588
0.00327863
0.00230516
0.000974683
0.0014357
0.00438452
0.00253541
0.00694507
0.00712352
0.00505396
0.0046397
0.00110017
0.00580832
0.00647382
0.00442802
0.00475197
4.73357e-05
0.00183192
0.000397901
0.003659
6.05951e-05
0.00265482
0.000237749
0.00191527
0.00182409
0.00293433
0.00223016
0.0045329
0.00120724
0.00259713
0.00779034
0.00289661
0.00214865
0.000712397
0.0053976
0.00274844
0.00344705
0.000306095
0.00743447
0.000554862
0.000350708
0.00310726
0.0181139
0.0121189
0.00305455
0.000647151
0.00504306
0.00455738
0.0066661
0.00530595
0.00881323
0.00440146
0.00527029
8.48677e-05
0.00485333
0.0114484
0.00823912
0.0100723
0.00233831
0.000224724
0.00406429
0.00405766
0.0124206
0.00631827
0.000606866
0.000988
0.00346385
0.00787249
0.00361837
0.0103828
0.00805872
0.00113995
0.006253
0.00658201
0.00598973
0.00336193
0.00610825
0.00290247
0.0066857
9.86532e-06
0.000835215
0.00239621
0.00468011
0.00480793
0.00463178
0.00120021
0.00320616
0.00414645
0.00365141
0.00781467
0.000139722
0.0109168
0.0116992
0.000950336
0.00256505
0.00821369
0.00826706
0.00504175
0.0115087
0.00418244
0.000538996
0.00564074
0.00859733
0.00409604
0.000392705
0.00170951
0.00198459
0.000931512
0.00612352
0.00447436
0.0044563
0.0104054
0.0049683
0.00458327
0.00254173
0.00433985
0.000942625
0.00532265
0.00369895
0.00624653
0.00358614
0.00174017
0.0119863
0.0053198
0.00167389
0.00157981
0.00239511
0.00122626
0.00824012
0.00587357
0.000638846
0.000646876
0.00373018
0.00116835
0.0050791
0.000850002
0.000109006
0.000302052
0.00446192
0.00203707
0.00140289
0.00465655
0.000845045
0.000472775
0.00135201
0.00463228
0.00143261
0.000784648
0.00422141
0.00713764
0.00277954
0.0086107
0.00256312
0.00568869
0.000364044
0.0066677
0.00141234
0.0060981
0.00189833
0.00152356
0.00526524
0.00412338
0.00259374
0.000372687
0.00245144
0.00508133
0.000762439
0.00328088
0.000818249
0.000718859
0.00303005
0.0014518
0.000441435
0.00127945
0.00460162
0.00280641
0.00145783
0.00399464
0.00288401
0.000889386
0.00303894
0.00356671
0.00336109
0.00307271
0.000926836
0.0018167
0.00254629
0.00285515
0.00178107
0.00454971
0.00116121
0.00198331
0.000659749
0.000678236
0.00555178
0.00966167
0.00673273
0.00127143
0.00325342
0.000322431
0.00192229
0.00191367
0.0118246
0.00467396
0.00249919
0.00526114
0.00400939
0.0128507
0.000915063
0.00470291
0.00181466
0.0020658
0.00592213
0.000487247
0.00494078
0.00129528
0.00576607
0.0107208
0.00646759
0.00170013
0.000332764
5.05678e-05
0.0171627
0.00100603
0.00120682
0.00138947
0.00417362
0.000976929
0.00424813
0.000622635
0.0149803
0.00142898
0.0013188
0.00531841
0.000512668
0.00223348
0.000420481
0.00549016
0.000865871
0.00649134
0.000390698
0.00636763
0.0132127
0.00545947
2.22907e-05
0.00263749
0.00496568
0.00362069
0.00629283
0.00562429
0.00304639
0.000586242
0.00122289
0.00221101
0.00377519
0.00269937
0.0029654
0.00386704
0.0102214
0.00175632
0.00359653
0.00326556
0.00128933
0.0048873
0.00454695
0.0039776
0.00248012
0.00118754
0.00202276
0.000896921
0.000884122
0.00115138
0.00242211
0.0060785
0.00664041
0.00493834
0.00416456
0.00316632
0.00334679
0.00673339
0.00291599
0.000715354
0.00850136
0.0109836
0.00066941
0.000925183
0.000751621
0.00830521
0.00632212
0.00777441
0.00527729
0.000779023
0.0108637
0.00306975
0.00839335
0.00649022
0.00177711
0.00524146
0.00579863
0.00201086
0.00665124
0.00475557
0.00739343
0.00350704
0.0036693
0.00180881
0.000426408
0.00220276
0.00286034
0.00309183
0.00158949
0.00135753
0.000111284
0.00285486
0.00166291
0.0021649
0.00456582
0.00171564
0.000770526
0.0018671
0.00250091
0.00107664
0.0011743
0.00438994
0.00170162
0.00696462
0.00299498
0.00126142
0.00613925
0.00127011
0.00178483
0.00165016
0.00339915
0.000269937
0.00188782
0.000357399
0.00474552
0.000427961
0.00452635
0.000589235
0.0049209
0.00331048
0.00223563
0.00105255
0.00433414
0.00146325
0.00352417
0.000982898
0.00449347
0.00167236
0.00097583
0.000323052
0.00257252
0.00316922
0.00169147
0.00564007
0.00752594
0.00295448
0.0048354
0.000600939
0.00800449
0.000504519
0.0196701
0.00816673
0.00790968
0.000505952
6.11824e-05
0.00382137
0.00061027
0.00103052
0.00247416
0.00221184
0.00115038
0.00175505
0.00360491
0.00967884
0.00918724
0.00183908
0.0089127
0.00547621
0.00330359
0.00552084
0.0142152
0.00788457
0.00757088
0.00367983
0.00135967
0.00162825
0.00366058
0.00299737
0.00633526
0.00279877
0.00126127
0.00316295
0.00217967
0.00119926
0.000145265
0.00729042
0.00282244
0.00495499
0.00539721
0.00236399
0.00732437
0.00658889
0.00244681
0.000651786
0.000705229
0.00228735
0.00913349
0.00667776
0.00342342
0.00321829
0.00728061
0.000682756
0.00659472
0.00524193
0.00263048
0.00357246
0.00317514
0.00263164
0.000566685
0.00472355
0.00367871
0.0111104
0.00452789
0.00797252
0.00347764
0.00362734
0.00330469
0.000433693
0.00127158
0.00145672
0.00206425
0.00370511
0.000215766
0.00192216
0.00244692
0.00157333
0.000381468
0.00394134
0.00227446
0.0056372
0.00817122
0.00294876
0.000946301
0.000372803
0.00486135
0.00136853
0.00336292
0.00266213
0.00341396
0.00666218
0.00825615
0.00290656
0.00283165
0.00268137
0.00991402
0.00362109
0.00385888
0.00222983
2.41797e-05
0.00297521
0.0088434
0.00202948
0.00713393
0.000485007
0.00286543
0.00352232
0.00273696
0.00775544
0.0029939
0.00186401
0.000711015
0.00132539
0.000501018
0.000152549
0.000453667
0.00334292
0.000847881
0.00374577
0.00120345
0.00446859
0.00223995
0.00726118
0.00285168
0.000883291
0.000585913
0.000520125
0.00356005
0.00143872
0.00253323
0.00201275
0.00860686
0.00328878
0.00135728
0.000838753
0.00225956
0.00258275
0.00163578
0.00142856
0.00439595
0.0032642
0.00264974
0.00496891
0.000609655
0.000423696
0.00184708
0.000457656
0.00540088
0.000566751
0.004341
0.00431438
0.00293115
0.00344522
0.00439109
0.00243287
0.00868154
0.00235734
0.00156227
0.00122931
0.00138191
0.00523313
0.0191316
0.0113157
0.00268122
0.00255539
0.000917711
0.000570213
0.00213735
0.00133262
0.00518608
0.00272421
0.00319133
0.00203568
0.00301373
0.00258047
0.00281673
0.00234112
0.00422161
0.00052363
0.0101846
0.00680889
0.0109217
0.00144897
0.00423397
0.000356714
0.00376155
0.000596527
0.00756756
0.000760726
0.00518891
0.000980854
6.78549e-05
0.00228654
0.000861994
0.00602916
0.000313127
0.00345331
0.000387238
0.00144098
0.000350236
0.00387544
0.00434351
0.00455043
0.00360482
0.00196085
0.00124325
0.000924079
0.00394311
0.00206164
0.00089113
0.00515054
0.00499192
0.00175429
0.000552956
0.00425748
0.00518387
0.00141584
0.000154687
0.0039379
0.00573443
0.00358706
0.0111239
0.00787245
0.00397112
0.004898
0.00276943
0.0015707
0.00235635
0.00264862
0.00435248
0.00525889
0.000741543
0.00440067
0.00293597
0.00332463
0.00793308
0.00348046
0.000954557
8.64533e-05
0.00502237
0.00948203
0.00887772
0.0053136
0.00206321
0.00431971
0.00263402
0.00636539
0.00682078
0.00160464
0.0032609
0.00395875
0.00266255
0.000837965
0.00176799
4.03817e-06
0.00348156
0.00247778
0.00617764
0.00366152
0.00134448
0.00561767
0.00420818
0.00118862
0.000707328
0.00393385
0.00265014
0.00137811
0.00340568
0.000432999
0.00289201
0.00478744
0.00364878
0.0042056
0.00883764
0.00186674
7.74343e-05
0.0036203
0.00441805
0.000958223
0.00230883
0.00143616
0.00153765
0.00734807
0.000532264
0.000653761
0.00172325
0.00592603
0.00540453
0.00387511
0.0011803
0.00421283
0.000608126
0.0025053
0.00126329
0.00305425
7.87437e-05
0.00492814
0.00185158
0.000414282
0.000371671
0.00695919
0.00121777
0.000284092
0.00193557
0.00119455
0.000954288
0.0025025
0.000616271
0.00067758
8.26525e-05
0.00185469
0.00578135
0.00702514
0.00487222
0.00307048
0.00475063
0.000217066
0.00209751
0.00166245
0.00287764
0.00802086
0.0137018
0.00648008
0.00716467
0.000640894
0.000484276
0.00419905
0.00191784
0.00482534
0.00203644
0.00359408
0.00298895
0.00484997
0.00646395
0.00439282
0.00212651
0.000833044
0.00106514
0.000697625
0.0101572
0.0094704
0.00797231
0.00801585
0.00130552
0.000571429
0.00142978
0.00273134
0.00539273
0.00118543
0.00397752
0.00181547
0.000481183
0.00283416
0.00169309
0.00127851
0.0021777
0.00140486
0.00218631
0.00109684
0.00420249
0.0145077
0.0109557
0.00193046
0.00847289
0.00126396
0.00367957
0.00016702
0.00452542
0.00247837
0.00187574
1.59339e-05
0.00505353
0.00440624
0.0052637
0.00454844
0.00539746
0.00429054
0.00140762
0.00253114
0.00345865
0.0117546
0.00962166
0.00286338
0.00332779
0.00298753
0.00177051
0.00471842
0.0027889
0.00317382
0.00119606
0.0112392
0.00612553
0.00311924
0.000908459
0.00579736
0.00262784
0.00536412
0.000419056
0.00332469
0.0048069
0.0090483
0.00674565
0.00675632
0.00267205
0.0022317
0.00055274
0.0101432
0.00395146
0.000174651
0.00320726
0.00230043
0.00233086
0.00306285
0.00388973
0.0047734
3.1756e-05
0.0048319
0.00156131
0.00294971
0.00634591
0.0055845
0.00472255
0.00728633
0.00256634
0.00124993
0.00136909
0.00403593
0.00504819
0.00228147
0.00254952
0.00280195
0.00378703
0.0013454
0.00381734
0.0020067
0.000658746
0.00218367
0.00406047
0.00350635
0.0011426
0.00338794
0.0100259
0.00386698
0.00155686
0.00156598
0.00133394
0.0027088
0.000689661
0.00424942
0.00432766
0.00710575
0.000485914
0.00110711
0.00222201
0.00153131
0.00252742
0.00128218
0.00164404
0.000541237
0.00607269
0.00380039
0.00427192
0.00148166
0.00743624
0.00700517
0.00396609
0.000599525
0.00411405
0.00597142
0.00283654
0.00366108
0.00291626
2.38338e-05
0.00230991
0.00181796
0.00323576
0.00173004
0.00380558
0.00771536
0.00398934
0.00204662
0.0102686
0.0102514
0.0137067
0.00751477
0.00504103
0.00287893
0.000814316
0.000721657
0.00254541
0.00115751
0.00112784
0.00747283
0.00731205
0.00567045
8.14478e-05
0.00379647
0.000489639
0.0021843
0.00442296
0.00707254
0.013895
3.89861e-05
0.00617626
0.000240418
0.0064874
0.000543301
0.00127797
0.000722458
0.0011617
0.000879148
8.83648e-05
0.00426958
0.00166661
0.00593882
0.00143825
0.00602035
0.00113939
0.000660617
0.000714027
0.00877872
0.0091335
0.00838364
0.00180758
0.00869725
0.00641545
0.001438
0.00426198
7.42881e-05
0.00045996
0.00346452
0.00312138
0.00177501
0.00146207
0.00151593
0.000312194
0.00343117
0.00684526
0.00247291
0.00768832
0.0101162
0.00834246
0.00589644
0.00379441
0.00437831
0.00205484
0.0017438
0.000361714
0.00258179
0.00456242
0.00476002
0.00415263
0.00757477
0.00749528
0.000924598
0.000962885
0.00205295
0.00331279
0.00407175
0.00137759
0.00824181
0.0043636
0.00694462
0.0035812
0.00453321
0.00137662
0.000713496
0.000734808
0.00154599
0.00689815
0.000201116
0.00187154
0.00675331
0.0049115
0.00152827
0.00198942
0.00125567
0.00101196
0.00592066
0.000971854
0.00969345
0.00136227
0.00740667
0.00129266
0.00301938
0.00159952
0.00400247
0.000679076
0.00316947
0.00318257
0.000916841
0.00331723
0.00263537
0.00487091
0.00478594
0.00609261
0.00194091
0.00359925
0.00101432
0.00522592
0.00359178
0.00135696
0.000620845
0.00361611
0.00547722
0.000663006
0.000947072
0.00261972
0.00188446
0.0052117
0.000859529
0.00216905
0.00969056
0.00191051
0.00161402
0.0020923
0.000221715
0.00499223
0.000815059
0.0046609
0.00243885
0.00492454
0.0048781
0.000240688
0.00222432
0.00153937
0.000414889
0.00403124
0.00520342
0.00045248
0.00178481
0.00392173
0.00148569
0.000662115
0.00218342
0.000883637
0.00184296
0.00617672
0.00492678
0.00137209
0.000798836
0.0183488
0.011066
0.00784803
0.00192947
0.00013506
0.00784812
0.0047721
0.00235069
0.0015179
0.00225285
0.00733631
0.00707005
0.00169802
0.00534309
0.00251451
0.00375039
0.000313584
0.00511091
0.0126272
0.00997914
0.0167362
0.014033
0.00638284
0.00584826
0.0026356
0.00577109
0.00383681
0.00510348
0.000642386
0.00580447
0.0058992
0.00830663
0.00245411
0.0059164
0.000681739
0.000351363
0.000895776
0.00100313
0.00555462
0.00673399
0.0106508
0.0074759
0.00320157
8.70084e-05
0.00120095
0.00130884
0.00206486
0.00425912
0.00026187
0.0057182
0.00494336
0.00183437
0.00040724
0.000553964
0.00126436
0.00171432
0.00140698
0.00621581
0.00264249
0.00685439
0.00710844
0.00763192
0.00671995
0.00158546
0.00476396
0.00527609
0.00542539
0.000647178
0.0064237
0.00410636
0.00715941
0.00534798
0.00995468
0.00333581
0.00141047
0.000677449
0.000774981
0.000534373
0.00746792
0.0116815
0.00267198
0.000314615
0.00356224
0.000197412
0.00206471
0.000471105
0.000781528
0.00604186
0.0016569
9.08503e-06
0.00538589
0.0054167
0.000266766
0.00175484
0.00384513
0.00155371
0.00436827
0.00189552
0.00724483
0.00178856
0.0011571
0.000744849
0.00215276
0.00817001
0.00214263
0.00141731
0.00640681
0.00695523
0.00124594
0.00538144
0.000229177
0.000202277
0.00388969
0.00341032
0.00238209
0.000676606
0.00423389
0.00340533
0.000905861
0.00201071
0.00247955
0.00465249
0.00597134
0.00199613
0.00127241
0.00237342
0.00706817
0.0062837
0.000625431
0.000688273
1.08415e-05
0.00542157
0.00135681
0.00105574
0.00171175
0.00189326
0.00122724
0.00230026
0.00855521
0.00447044
0.00262919
0.00251236
0.00108011
0.00775511
0.00146566
0.00313146
0.00279839
0.00441952
0.00187444
0.00776534
0.00211233
0.0018812
0.00574796
0.00104761
0.00438639
0.00164133
0.00356256
0.00431386
0.000449145
0.00567352
0.0179502
0.00879414
0.00301669
0.00456967
0.0071496
0.000546067
0.00222868
0.00556513
0.00174336
0.00795677
0.00817774
0.00834952
0.00208617
0.00803961
0.00131171
0.00221331
0.00489876
0.00368645
0.00539403
0.016475
0.0184251
0.00279204
0.00629062
0.000940711
0.00302701
0.000404246
0.00189885
0.00305873
0.00367068
0.000376283
0.000553746
0.0045227
0.00159078
0.00392544
0.00042987
0.00387174
0.000136048
0.00159507
0.00036577
0.00954247
0.00878818
0.00796509
0.00354376
0.00223224
0.00295925
0.00534979
0.00240623
0.00371531
0.00595816
0.00919777
0.00691281
0.00310406
0.00397486
0.00552325
0.000966494
0.00888223
0.00421378
0.00979178
0.00345577
0.0103243
0.00763805
0.000507818
0.00369988
0.00569733
0.00913807
0.00127948
0.00265825
0.00536065
0.010725
0.00210884
0.00127283
0.00272417
0.00771902
0.00404708
0.00176248
0.00308535
0.000140436
0.000871443
0.00494358
0.00793043
0.00727532
0.000280056
0.00643477
0.00284445
0.00243579
0.000996088
0.00204397
0.00132061
0.00129738
0.00559457
0.00119697
0.005822
0.00336857
0.00912255
0.000787566
0.000277193
0.00314073
0.00435302
0.00675096
0.00692575
0.00176684
0.00396326
0.00297161
0.00595863
0.00633595
0.00133823
0.00916634
0.00155745
0.00172802
0.000937778
0.00209565
0.000236748
0.00209242
0.000972813
0.00364403
0.00148864
0.000313107
0.00289304
0.0029943
0.00806875
0.00246659
0.00224918
0.00339213
0.00218099
0.00154507
0.0118081
0.00158421
0.000561526
0.00653058
0.0039804
0.00368816
0.00532417
0.00103011
0.00175326
0.00205877
0.000474524
0.00136764
0.0037613
0.00577736
0.000842938
0.00226573
0.000711678
0.00371446
0.00428725
0.00769186
0.00471595
0.00135255
0.00161672
0.00261101
0.00217616
0.00219849
0.000466123
0.00364854
0.00145224
0.00169658
0.000256048
0.00103883
0.00176473
0.00510086
0.000488455
0.0185885
0.0124148
0.00456693
0.00229064
0.006066
0.00342098
0.00186623
0.00545596
0.0069774
0.00247305
0.0148965
0.00610715
0.000329083
0.000926537
0.00297862
0.00176252
0.00660653
0.0103282
0.0129197
0.0186067
0.00909091
0.00195887
0.0111891
5.65582e-06
0.00779117
0.000627618
0.00640675
0.000317451
0.000216213
0.000678239
0.000890577
0.00167382
0.000993607
0.00704433
0.000415217
0.00629684
0.000311446
0.00641424
0.000239217
0.0113817
0.00457221
0.0119426
0.00585813
0.000572044
0.00329013
0.00644006
0.00227943
0.0103383
0.00486668
0.00344253
0.00561715
0.00674762
0.00529372
0.000560671
0.0012873
0.00271037
0.000557019
0.000715217
0.00808403
0.00813292
0.0144784
0.00283048
0.00749622
0.000476495
0.00226143
0.0045114
0.00068633
0.00517817
0.00476789
8.11546e-05
0.00105261
0.00268149
0.000520824
0.00211743
0.00624228
0.00513796
0.00188509
0.0075184
0.00851726
0.00244506
0.00180844
0.00173938
0.00817946
0.00223778
0.0032072
0.00774582
0.00357721
0.000825891
0.0020428
0.00382748
0.00387661
0.00247404
0.000405997
0.0029918
0.0033131
0.0034585
0.0021363
0.0078945
0.0053078
0.00641686
0.00320289
0.00467793
0.00587587
0.00324251
0.00152412
0.00306637
0.00496879
0.000463973
0.0041524
0.00223602
0.00412449
0.0063167
0.0071191
0.00381053
0.00308363
0.00242417
0.00227996
0.00734799
0.00397078
0.00813919
0.00493329
0.00314699
0.0012259
0.00306102
0.00756629
0.00329036
0.00329062
0.00302509
0.000450207
0.0021791
9.31325e-06
0.00124574
0.00036119
0.00684783
0.0013883
0.00147696
0.00130003
0.0038472
0.00186984
0.000465595
0.00337006
0.0077968
0.0019492
0.000140609
0.000208054
0.000221637
0.00115805
0.00198821
0.00238984
0.00639802
0.00131833
0.00493437
0.00445699
0.000861011
0.0022555
0.00132501
3.66065e-05
0.00879515
0.00153748
0.000136155
0.0154634
0.00476409
0.00570182
0.00795703
0.00170312
0.0030465
0.00701305
0.00541043
0.00456691
0.010526
0.00621845
0.00522116
0.00186841
0.00541494
0.000428081
0.00651607
0.00169009
0.00452339
0.00913014
0.0149745
0.0128405
0.00733782
0.00729042
0.00812427
0.00506369
0.00409771
0.00295675
0.00754244
0.00630785
0.0113916
0.00534315
0.00435855
0.0093773
0.00676462
0.00526373
0.00198265
0.00579468
0.000786726
0.0060089
0.0100794
0.0113869
0.012097
0.0049241
0.00438622
0.00216536
0.00186287
0.00304436
0.00419934
0.00777001
0.000457168
0.0069986
0.00336089
0.00105851
0.000993757
0.00251494
0.00605924
0.00563107
0.00058322
0.00609924
0.00581378
0.00844895
0.00671119
0.000481737
0.00506511
0.00344413
0.00656756
0.00804484
0.0044784
0.00794838
0.00250315
0.0029145
0.0106437
0.00553684
0.00641294
0.00419994
0.000381107
0.00231382
0.00248522
0.00431203
0.00940718
0.00534892
0.00557886
0.000462292
0.00221851
0.000408979
0.00157325
0.00140165
0.000186396
0.00132229
0.00256174
0.0031442
0.00722666
0.00120587
0.00829328
0.0031905
0.00285514
0.000921289
0.000342158
0.00519737
0.00374945
0.00202389
0.000617797
0.000969996
0.00193651
0.00654067
0.00525108
0.000459087
0.00524483
0.000513943
0.00150887
0.00605997
0.00739071
0.000576092
0.00425435
0.00210406
0.00204801
0.00425957
0.000543701
0.000960591
0.00758586
2.58579e-06
0.0111036
0.0052133
0.00524461
0.000393774
0.00205357
0.000474522
0.00447183
0.000942457
0.00118196
0.00284789
0.000544758
0.000504665
0.000121805
0.00751572
8.56861e-05
0.00169406
0.00215197
0.00556222
0.00288197
0.00244666
0.000475152
0.00640372
0.000167174
0.00407291
0.00826243
0.00127584
0.000697413
0.00219129
0.00245109
0.000260675
0.00515405
0.00132635
0.00613209
0.0029298
0.00321893
0.00129493
0.00234056
0.00165876
0.00511458
0.0150886
0.0124977
0.00978541
0.00426355
0.00572072
0.000227176
0.000450184
0.00508758
0.000159615
0.00507727
0.00185401
0.00912786
0.00479145
0.00383828
0.000271557
0.00374388
0.00593144
0.00698093
0.00116427
0.0101209
0.0126832
0.00139055
0.0036152
0.000439772
0.00212829
0.000223143
0.000945792
0.000960204
0.00271114
0.00119338
2.26963e-05
0.00439929
0.00120168
0.0025411
0.000626268
0.00453371
0.000315394
0.00852665
0.00146882
0.00910647
0.0130822
0.00367566
0.00646015
0.00298126
0.00490805
0.00301909
0.00309075
0.0058842
0.000307996
0.014922
0.00901108
0.00394192
0.00305956
0.00450349
0.00308567
0.00316216
0.0066725
0.00653305
0.00032156
0.00450703
0.00681097
0.00595118
0.00569601
0.00353623
0.0011836
0.000249271
0.00077409
0.00445395
0.000623547
0.0086256
0.00721881
0.00335002
0.00141039
0.00249863
0.00276802
0.0019835
0.00299614
0.00421577
0.0119648
0.00349402
0.00271856
0.0120624
0.00217154
0.00161847
5.23077e-05
0.002126
0.0018137
0.00193995
0.00487847
0.00430473
0.0077482
0.00419062
0.000299146
0.00208384
0.000647044
0.000381049
0.00330005
0.00295204
0.00386358
0.0116908
0.000484782
0.00366114
0.0121004
0.0010265
0.00242454
0.00565022
0.00442724
0.00381633
0.00436074
0.00688202
0.000110253
0.00345773
0.00526526
0.0046771
0.00190546
0.00597747
0.0007459
0.00365428
0.00410509
0.00553603
0.000779204
0.00391624
0.000229821
0.00172871
0.0031769
0.000948124
0.00323133
0.00060828
0.0053806
0.0012792
0.00316873
0.000594056
0.00338472
0.000848497
0.000494571
0.00325947
0.00247061
0.000695817
0.00178935
0.00459216
0.00315761
0.00667763
0.00816138
0.00167728
0.00220761
0.000953446
0.00115175
0.0053174
0.00520136
0.00568273
0.00324754
0.00276886
0.00260617
0.00425542
0.000781469
0.00263682
0.0057075
0.00750984
0.00690361
0.0038976
0.0103675
0.00291999
0.00719232
0.000309459
0.00540554
0.00484664
0.00372801
0.00138819
0.00362735
0.00381479
0.00262192
0.00152345
0.005104
0.00122889
0.00503472
0.000442485
0.00212738
0.00348606
0.00856293
0.00928698
0.00746752
0.00865602
0.00527881
0.00341585
0.00314491
0.00641592
0.00166561
0.00135587
0.00800544
0.00605834
0.00609643
0.000813588
0.00279491
0.0015247
0.0032516
0.00290624
0.00375713
0.00200534
0.00958133
0.0123195
0.0103846
0.00361167
0.00813998
0.00288011
0.00191977
0.000210145
0.00246491
0.00726061
0.00908021
0.00464986
0.00437754
0.00218021
0.00375467
0.00542095
0.0016657
0.0100478
0.00186434
0.0058474
0.00286504
0.00665091
0.00599628
0.00686141
0.00360799
0.00230218
0.00459978
0.00352395
0.0016537
0.00150924
0.00569481
0.00350099
0.00345642
0.00869243
0.0025683
0.00653612
7.24812e-05
0.00575207
0.00415848
0.00281516
0.00521072
0.00869155
0.00565448
0.00370194
0.00196376
0.00487961
0.000236837
0.00419946
0.00235952
0.00271649
0.000223176
0.00244363
0.00457406
0.00172574
0.00260582
0.00301167
0.000709771
0.00186402
0.000109424
0.00140243
0.00658941
0.00753074
0.00855507
0.00738478
0.00690115
0.00683343
0.00585804
0.00314574
0.00127185
0.00199043
0.00423715
0.00397711
0.00242891
0.00223608
0.00600495
0.00417662
0.00584239
0.00490758
0.00824845
0.000700758
0.00634434
5.87569e-05
0.00672375
0.00299817
0.00690522
0.00398609
0.00440483
0.000734947
0.00360796
0.00862234
0.00139861
0.000108057
0.00165794
0.000924134
0.00581127
0.00372758
0.00448317
0.00342909
0.000816738
0.00261866
0.00382006
0.00967929
0.00109449
0.00532649
0.00388177
0.00757223
0.00565214
0.00379235
0.00502331
0.00252947
0.000657227
0.00168827
0.00298593
0.00626143
0.00165751
0.00106077
0.0016874
0.00309915
0.000526491
0.00820707
0.00403021
0.00202964
0.00971658
0.00395156
0.00283508
0.00297126
0.00299253
0.00661498
0.00244388
0.00283038
0.000120333
0.00810476
0.00121776
0.00666229
0.00384167
0.00264659
0.0051964
0.00356006
0.00801448
0.000748759
0.000480331
0.0100105
0.00301169
3.99013e-05
0.00186056
0.001403
0.00290278
0.001709
0.003538
0.000429944
0.000534868
0.000803309
0.00127669
0.00191781
0.000813556
0.00244703
0.000572022
0.00161818
0.00138659
0.00284594
0.00198898
0.00385248
0.011506
0.000194268
0.00123067
0.000267485
0.000220444
0.00263495
5.78024e-06
0.00315953
0.00111252
0.00421162
0.0015838
0.0023074
4.26264e-05
0.00405885
0.00326588
0.00255538
0.00316816
0.00304137
0.00204611
0.000625003
0.00231068
0.00237535
0.00524576
0.0031529
2.0202e-05
0.00259184
0.00596952
0.00266053
0.000164907
0.00118165
0.00215243
0.000466865
0.00304065
0.00309159
0.00507155
0.000926827
0.00340081
0.000640634
0.00487813
0.00577289
0.00402704
0.00278185
0.00502101
0.00354063
0.00952104
0.00345658
0.00297349
0.00304357
0.000470336
0.00163981
0.00418818
0.00291387
0.00422345
0.00286095
0.00550576
0.00219096
0.00238993
0.0052333
0.000126062
0.00733269
0.000285677
0.00492623
0.00216348
0.00164086
0.00473758
0.00312904
0.00215067
0.00457929
0.00630494
0.00390958
1.3813e-05
0.00321177
0.00462741
0.0057185
0.00696393
0.00584924
0.00180715
0.00420086
3.45323e-05
0.00141356
0.00036779
0.00349097
0.00489501
0.00310065
0.00340319
0.000743771
0.000246388
0.00269559
0.0031268
0.00154627
0.00665805
0.00143368
0.000489186
0.00723359
0.00192258
0.0019946
0.00470186
0.00166445
0.0049354
0.00300366
0.00100744
0.00291317
0.0037017
0.0037724
0.00289882
0.00115346
0.00112478
0.00723296
0.000733724
0.00369371
0.000901866
0.000782328
0.00457979
0.000897249
0.000679776
0.00335473
0.00016206
0.000390374
0.000553079
0.0027688
0.00686361
6.73166e-05
0.00161476
0.00138965
0.00112569
0.00199551
0.00858289
0.00534059
0.00112433
0.00266427
0.00592056
0.00136746
0.00610179
0.000897404
0.00598233
0.00174899
0.00363792
0.00366591
0.000173234
0.00657465
0.0084871
0.00600368
0.00671496
0.00531519
0.00639362
0.0052125
0.0081999
0.000825966
0.00142514
8.10892e-06
0.00260041
0.000375269
0.000650178
0.006669
0.00179505
0.00128834
0.00355067
0.00622819
0.000634806
0.0019872
0.00299613
0.0049249
0.00152559
0.000680948
0.000159091
0.000202513
0.00399709
0.00446583
0.00416477
0.00135003
0.00504982
0.00586795
0.0022917
0.00194953
0.00744023
0.00133696
0.00281538
0.00415031
0.00708793
0.00670076
0.000163339
0.00231777
0.00624576
0.00190327
0.00643252
0.00250977
0.00638472
0.00111347
0.00102362
0.000658571
0.00175707
0.000547263
0.00423246
0.0142406
0.00149179
0.00876145
0.00289543
0.00171302
0.00139108
0.000779686
0.00199181
0.00331726
0.000459244
0.00314179
0.000357571
0.00370936
0.00369191
0.00591924
0.00376786
0.00387305
0.000712982
0.000918348
0.00418807
0.00252932
0.00478299
0.0045692
0.0054561
0.00108668
0.00494502
0.00208577
0.00150732
0.00642524
0.00146325
0.00202483
0.00517979
0.00630509
0.000313333
0.0023327
0.00231232
0.000843755
0.0041411
0.00487475
0.000666723
0.00519196
0.00093124
0.000111482
0.00466262
0.00397477
0.00468597
0.00480836
0.000778057
0.00347756
0.00138238
0.00395743
0.0100371
0.00462955
0.00181276
0.00166547
0.0039026
0.00264532
0.00618561
0.00241441
0.00654203
0.000536746
0.00163184
0.00830035
0.000949839
0.000377887
0.00336748
0.0045795
0.00440002
0.00400083
0.00576411
0.00038158
0.00920477
0.00466933
0.00480067
0.0024175
0.00224687
0.00369049
0.000761717
0.00125195
0.00292708
0.000279067
0.000121619
0.00398655
0.00555612
0.00141867
0.00289775
0.00358482
0.00909367
0.00110609
0.005909
0.00490331
0.00600813
0.00404571
0.00779991
0.00655172
0.0024679
0.00160129
0.00927092
0.00439193
0.00578316
0.00395107
0.00287756
0.00114033
0.00552437
0.00264645
0.00303309
0.00166268
0.0079947
0.000136565
0.000798374
0.000578125
0.00899733
0.00123376
0.0110612
0.000224198
0.00330787
0.000922209
0.00184924
0.00425808
0.00103442
0.00405167
0.000461867
5.56254e-05
0.00114088
0.00558014
1.916e-05
0.000413922
0.0086978
0.00695719
0.00358956
0.00381153
2.55046e-05
0.0017966
0.0028136
0.00190454
0.00379657
0.00270917
0.00710111
0.00193046
0.00610968
0.00696694
0.00223309
0.00795039
0.00184993
0.00467925
0.00558295
0.000393333
0.00227804
0.000233548
0.00164383
0.00795381
0.00592881
0.0036884
0.00856858
0.00235866
0.00581187
0.00677972
0.00314495
0.00284045
0.00225776
0.00510626
0.0034745
0.00500103
0.0016601