/*--------------------------------*- C++ -*----------------------------------*\
| =========                 |                                                 |
| \\      /  F ield         | OpenFOAM: The Open Source CFD Toolbox           |
|  \\    /   O peration     | Version:  2212                                  |
|   \\  /    A nd           | Website:  www.openfoam.com                      |
|    \\/     M anipulation  |                                                 |
\*---------------------------------------------------------------------------*/
FoamFile
{
    version     2.0;
    format      ascii;
    arch        "LSB;label=32;scalar=64";
    class       volScalarField;
    location    "0";
    object      stateMean;
}
// * * * * * * * * * * * * * * * * * * * * * * * * * * * * * * * * * * * * * //

dimensions      [0 0 0 1 0 0 0];

internalField   nonuniform List<scalar> 
3200
(
351.357
350.516
349.384
346.73
346.046
345.46
348.02
349.011
349.664
351.395
351.059
350.758
347.856
348.006
347.047
346.506
345.811
346.441
348.144
347.576
342.452
341.181
340.083
342.184
341.586
341.672
343.38
341.659
343.863
344.059
344.434
345.061
341.273
342.708
341.072
340.009
337.64
339.703
341.647
342.084
335.259
335.597
335.199
336.989
334.627
336.764
336.287
335.092
333.041
339.487
336.047
337.323
336.844
333.968
334.428
335.502
332.609
333.476
333.801
336.396
329.618
329.674
327.205
327.323
328.708
330.175
329.876
327.556
329.78
329.148
330.826
328.488
328.663
328.575
328.258
326.548
325.811
328.238
328.264
329.67
323.565
323.453
324.529
322.805
321.358
323.182
321.979
320.89
323.492
323.67
321.32
324.148
324.153
324.701
321.536
323.279
320.461
319.8
321.778
321.465
315.712
315.832
316.727
316.597
315.796
316.179
317.191
318.432
316.948
317.355
317.102
316.693
313.926
316.528
316.333
316.914
317.075
314.581
315.395
316.881
310.748
308.244
305.836
310.597
310.895
309.209
311.756
310.697
311.677
309.922
312.393
310.576
311.92
309.642
310.771
309.903
309.712
308.152
308.161
309.001
301.915
304.395
303.765
303.09
303.433
303.968
300.796
303.474
303.045
303.167
302.417
302.164
304.378
302.857
302.33
303.069
303.331
304.568
304.157
303.954
349.062
350.349
347.473
347.064
348.692
348.243
348.966
349.118
350.187
351.597
351.183
351.294
349.795
349.961
348.339
346.778
346.11
348.026
347.207
347.801
344.107
340.402
341.601
342.09
341.479
344.168
342.326
345.093
343.639
346.461
346.376
342.917
345.224
341.036
343.851
340.508
341.773
337.902
340.24
341.04
338.773
335.973
336.798
333.479
336.289
336.127
336.448
335.882
335.118
336.809
338.574
337.014
336.632
335.8
335.985
334.391
332.785
333.166
334.685
334.854
329.137
329.889
329.972
330.935
327.905
328.28
329.432
330.517
330.896
329.218
334.157
330.375
331.11
327.733
329.614
326.725
328.615
329.122
328.613
328.368
322.737
322.877
321.967
322.837
321.053
321.129
322.493
322.627
323.344
325.773
322.976
321.752
325.076
322.273
322.621
320.54
320.783
321.39
324.344
321.876
316.83
315.305
317.373
316.883
316.146
314.956
317.538
316.412
315.468
315.918
318.237
316.138
315.997
319.586
316.631
315.231
315.206
313.754
316.14
314.195
309.861
309.599
309.058
308.37
310.746
308.034
312.608
309.003
309.259
311.111
312.574
312.712
311.948
311.872
310.173
309.392
309.605
310.634
309.317
309.969
302.995
303.698
302.632
304.151
302.663
304.79
303.851
304.332
305.952
304.489
302.958
303.371
305.182
302.651
302.369
303.246
301.006
303.353
303.011
302.125
352.104
350.842
348.726
349.002
348.154
352.638
349.721
351.063
350.452
352.343
352.036
353.538
351.223
348.037
348.146
346.395
347.96
347.586
348.05
347.242
343.964
342.574
341.099
341.93
342.068
341.515
343.867
342.275
343.619
347.094
344.531
344.131
343.794
343.956
342.122
342.261
339.98
341.303
340.707
340.558
335.204
335.814
336.501
336.166
335.52
336.018
336.934
336.154
339.309
335.799
335.533
338.94
337.933
335.391
334.628
334.902
331.899
333.549
334.387
335.525
330.353
329.334
328.468
328.698
329.29
330.305
329.2
330.261
330.64
328.86
330.667
330.598
330.902
329.791
330.301
328.189
328.043
326.544
329.167
328.107
325.281
323.488
322.785
322.252
322.519
324.21
321.618
322.785
325.192
325.347
323.924
325.364
323.043
324.566
323.778
323.195
321.322
322.902
322.227
322.925
315.049
315.413
315.47
314.8
317.099
316.766
316.016
315.376
318.734
315.223
317.146
316.043
317.759
315.24
317.463
314.714
315.665
315.416
313.9
314.015
310.002
309.462
308.789
311.344
310.233
311.238
310.679
310.374
309.78
310.336
310.924
311.12
309.168
309.554
310.672
311.235
310.663
309.823
308.407
308.097
304.103
304.064
303.482
303.826
302.579
304.292
302.953
302.171
303.947
304.218
303.416
303.388
301.867
300.562
301.383
302.965
302.288
303.299
302.55
303.664
350.328
348.639
348.884
347.259
348.801
346.774
352.605
351.459
353.086
353.317
351.951
353.9
351.375
351.827
349.262
346.451
346.838
347.422
346.902
346.252
345.922
340.406
341.197
342.069
342.07
344.106
346.769
345.811
341.36
346.331
347.284
344.708
345.849
344.531
344.297
341.618
342.248
339.392
340.882
342.251
338.343
336.308
335.199
335.111
335.136
336.378
336.198
337.032
338.347
339.813
340.029
338.631
337.658
337.414
336.599
335.506
332.563
334.617
335.685
335.021
328.196
329.82
330.301
328.143
329.297
331.156
330.687
331.558
331.924
332.025
331.603
330.199
329.652
329.721
329.386
329.071
330.556
326.592
327.259
327.539
324.344
325.487
322.193
323.21
323.184
321.24
322.34
322.254
323.344
324.954
321.674
324.061
322.053
322.286
323.354
321.732
321.039
321.761
319.81
323.139
317.777
316.793
317.173
315.8
316.605
317.797
316.52
316.723
317.4
317.579
318.046
316.997
317.177
316.741
315.651
316.197
316.616
316.603
314.896
315.105
309.641
310.78
310.145
311.991
309.125
309.879
308.562
310.239
310.199
310.305
311.875
310.67
310.048
310.579
311.742
310.187
308.431
309.8
310.945
310.302
302.432
302.839
301.91
303.74
304.439
303.145
304.873
303.056
303.901
303.724
302.845
304.567
303.051
305.221
305.727
304.266
304.763
303.042
305.585
303.263
353.585
350.361
351.244
349.354
350.576
350.291
352.371
353.02
353.086
353.482
354.674
353.341
352.11
349.173
348.404
349.952
346.416
350.396
346.375
348.678
345.384
343.876
344.607
344.183
343.376
345.303
344.3
345.216
344.557
346.046
347.455
345.657
345.499
345.979
344.692
341.337
341.953
340.323
343.027
341.348
336.767
337.057
336.373
336.096
336.857
337.081
335.457
336.867
338.391
338.682
337.301
339.321
336.896
336.774
336.965
335.891
335.247
334.669
334.661
335.897
329.295
332.168
330.579
327.084
329.202
329.77
330.443
332.159
332.782
332.056
333.226
331.128
331.943
332.176
330.161
330.871
329.839
330.386
329.265
329.937
324.486
323.136
322.934
322.993
322.036
323.647
323.442
324.037
326.28
323.143
322.624
326.115
323.982
323.663
320.878
322.437
321.866
321.91
322.194
322.814
318.412
315.213
313.914
316.67
317.778
318.331
316.661
315.328
317.032
317.492
318.311
318.405
317.634
317.578
317.07
315.811
316.784
317.354
316.234
317.031
308.691
311.771
310.595
309.646
309.951
310.501
309.424
311.134
310.015
311.488
313.538
309.78
311.109
310.269
311.041
309.332
309.413
309.27
310.884
308.374
302.343
304.699
303.071
303.196
303.957
303.605
301.89
303.754
302.303
302.331
302.751
304.667
302.249
302.791
300.831
302.682
303.799
303.629
302.773
304.732
354.079
352.103
350.025
350.981
351.424
351.887
352.234
353.269
356.121
355.536
353.438
355.005
352.674
353.899
353.08
350.28
348.608
349.272
351.709
349.798
344.847
342.235
343.988
343.524
342.986
345.34
343.295
346.3
345.233
346.94
347.305
347.828
346.863
343.827
345.242
343.092
343.269
343.032
341.86
342.443
336.26
336.845
337.203
337.382
337.885
337.873
337.508
338.694
340.094
338.249
338.303
339.195
339.206
337.401
336.433
336.987
336.774
337.315
337.242
336.007
332.141
331.489
330.757
328.428
331.569
331.763
330.998
331.349
334.001
330.974
332.971
334.017
333.204
332.883
328.615
329.502
330.36
329.477
330.552
331.602
325.025
324.197
323.574
324.769
322.991
322.239
322.505
324.547
326.382
326.742
324.587
325.048
324.494
324.719
323.174
324.646
321.374
324.09
322.917
323.975
317.171
316.442
316.145
317.946
316.198
317.802
316.582
317.775
317.173
316.664
319.348
319.431
315.103
317.071
317.39
315.89
315.301
316.066
316.796
316.296
309.992
311.925
309.667
309.828
310.769
312.27
312.288
309.555
311.234
312.233
310.734
311.646
310.366
311.558
310.406
308.705
310.605
309.96
309.765
307.362
303.559
303.321
302.709
303.724
303.14
302.737
303.369
303.812
303.667
304.225
301.906
301.509
305.085
304.488
302.054
303.364
303.998
302.792
304.108
300.758
353.014
351.202
352.329
350.545
351.56
351.177
352.823
355.913
355.433
356.254
356.039
356.431
356.494
355.054
353.408
351.437
350.396
350.067
352.485
351.54
344.546
345.158
342.726
343.796
345.318
346.572
344.49
346.555
348.787
348.266
347.802
348.39
346.379
346.801
344.875
345.309
344.745
342.798
340.974
346.78
339.072
336.536
339.38
337.648
336.682
338.661
337.686
338.893
340.743
340.294
342.019
341.604
337.947
340.764
336.776
336.475
337.697
337.381
337.05
339.339
332.135
330.308
330.986
329.467
331.615
330.019
331.162
331.453
333.209
336.712
335.01
331.773
332.81
330.163
332.455
329.253
330.592
328.791
327.782
331.947
324.717
325.025
324.113
324.412
323.957
321.276
323.676
325.229
324.477
326.394
326.404
324.524
324.021
323.409
324.578
322.57
323.185
324.202
324.893
324.342
317.602
318.629
317.426
316.531
316.813
318.837
316.231
318.794
317.425
317.432
317.118
317.808
316.854
317.197
317.764
316.554
318.214
315.503
315.963
317.18
312.782
311.003
310.462
310.653
310.773
309.703
310.926
312.173
312.299
308.796
311.157
311.297
310.161
311.188
309.759
309.961
310.677
310.147
311.686
310.854
304.539
303.736
305.601
301.283
302.268
303.352
304.84
305.451
304.532
304.801
304.575
303.664
304.339
304.143
302.552
303.997
302.253
301.005
302.077
302.623
352.784
353.449
355.504
354.231
350.713
354.373
353.852
355.048
356.164
355.917
355.906
357.915
357.386
356.148
353.385
353.828
351.417
351.463
351.409
351.668
347.409
343.223
346.054
344.786
343.242
346.421
346.469
347.726
347.476
348.399
348.124
349.365
346.896
348.972
346.731
343.403
345.096
344.157
342.965
345.656
339.165
339.383
337.777
340.759
336.309
338.627
341.137
340.19
340.665
341.867
341.75
341.112
340.662
340.204
339.009
339.642
340.133
338.002
339.149
339.495
332.289
331.86
331.664
332.393
330.802
332.581
332.351
332.002
331.62
334.873
334.671
335.663
335.356
332.778
331.682
332.164
329.848
331.755
330.369
332.256
324.393
325.517
324.814
322.601
324.043
325.125
325.497
325.058
323.531
325.826
326.502
327.978
323.962
325.755
325.539
324.083
323.742
321.739
322.958
326.115
316.857
318.975
317.313
318.158
318.007
319.059
317.832
317.255
319.432
318.792
319.557
319.258
319.814
319.57
315.851
316.883
318.342
317.224
314.975
317.563
310.287
310.181
311.275
312.031
310.305
310.978
311.654
310.384
312.684
310.845
310.437
314.077
311.564
310.338
310.034
310.442
311.88
309.9
311.434
310.623
301.814
301.868
303.33
302.788
303.056
303.707
304.858
302.097
303.845
304.267
302.534
304.159
303.476
304.297
303.313
304.082
301.589
301.908
303.764
303.55
356.731
354.814
354.476
353.231
353.438
356.974
356.612
356.352
356.486
355.368
358.783
358.463
356.12
356.814
355.085
354.715
352.44
353.514
355.362
353.799
349.355
348.964
347.013
347.556
347.175
344.956
348.919
349.88
348.699
350.693
350.726
351.37
348.957
349.641
347.195
346.14
345.845
345.158
346.047
345.918
340.49
339.865
338.996
338.496
338.733
340.173
340.961
342.147
340.921
343.125
342.861
341.636
340.557
340.07
340.158
339.721
338.049
340.014
338.234
339.211
332.546
333.077
333.243
330.993
333.604
334.257
334.743
333.511
335.695
335.056
336.075
335.336
336.613
334.048
332.972
332.247
331.262
330.842
333.023
334.056
324.36
323.666
325.284
324.454
325.58
325.436
325.874
323.929
326.638
326.205
327.959
327.864
325.985
326.191
324.032
325.414
323.1
324.743
326.114
324.075
317.158
317.22
317.924
320.113
318.479
318.517
320.345
320.72
319.045
317.007
318.649
318.584
319.744
319.392
318.824
317.583
318.863
318.321
316.697
317.428
310.855
308.758
312.209
309.902
310.295
310.113
313.193
309.16
311.395
311.459
311.248
309.513
310.693
310.667
311.383
310.102
310.141
309.642
312.855
308.7
304.179
304.182
303.143
305.881
303.138
302.686
304.536
302.384
304.323
306.128
304.411
304.325
305.472
304.004
302.305
304.081
302.446
304.78
303.556
305.102
357.873
355.248
353.951
355.28
356.975
354.987
355.052
358.375
357.405
359.827
359.906
359.762
357.135
358.706
355.647
353.657
355.397
354.187
354.051
357.354
351.043
346.155
348
346.824
346.12
347.954
347.726
349.928
350.481
349.507
349.569
350.778
349.416
349.756
347.663
348.515
346.545
346.377
345.317
347.981
340.79
340.929
339.97
340.096
340.914
342.272
341.757
342.605
343.658
344.917
344.136
342.683
342.694
342.82
340.122
342.927
340.769
342.086
339.404
341.309
333.478
331.452
332.946
334.078
335.691
333.52
334.379
335.608
337.636
334.88
333.75
334.963
336.396
334.842
332.507
331.625
332.232
331.43
332.922
333.575
326.437
324.426
326.762
325.96
326.19
325.418
325.386
326.737
326.064
328.41
326.192
328.389
327.405
329.026
325.485
325.487
326.056
326.086
326.525
326.323
317.768
318.647
318.574
319.782
320.163
318.82
321.536
319.294
319.477
319.293
318.326
319.002
318.13
318.305
319.554
318.621
317.788
318.549
318.339
319.767
311.101
311.142
309.535
310.066
310.42
307.375
310.687
311.115
313.401
310.168
312.557
313.026
310.969
310.634
311.688
311.048
311.169
309.421
312.238
310.598
302.777
303.717
302.421
304.903
301.318
302.271
304.159
303.293
303.017
304.485
304.492
303.668
304.892
304.189
303.188
303.576
303.286
304.085
301.953
303.613
359.538
357.918
355.831
355.746
357.806
357.546
357.599
359.379
360.279
358.852
363.299
359.968
357.311
356.602
357.388
356.276
357.278
357.871
358.096
359.545
349.061
347.062
350.855
347.595
350.93
349.024
351.567
349.87
350.142
350.463
350.537
350.652
350.107
351.79
348.95
350.41
347.705
349.199
346.3
349.853
340.404
343.293
341.73
340.462
341.913
339.091
340.954
345.634
344.022
343.67
344.415
344.666
343.908
341.925
340.85
341.716
340.077
339.497
341.984
341.611
336.599
333.047
335.005
332.785
332.619
335.286
334.372
336.172
336.248
334.789
335.114
333.755
334.614
333.435
335.864
335.086
333.572
335.012
334.936
332.606
325.323
324.41
327.95
326.354
327.004
328.802
325.39
326.519
327.622
328.291
328.307
327.763
326.922
327.535
327.356
324.832
326.321
327.857
326.7
326.82
318.694
319.333
319.939
319.342
319.034
319.751
320.561
319.289
320.585
318.606
320.637
317.242
321.413
317.761
317.791
319.32
317.584
320.407
319.108
320.263
312.15
311.697
310.472
310.045
308.787
310.252
312.422
310.555
311.707
312.283
311.607
311.955
311.61
313.529
311.708
311.601
311.401
312.049
310.138
310.763
304.582
301.226
303.046
303.643
303.797
303.713
304.172
303.25
304.603
301.946
303.489
305.376
305.208
304.082
303.095
303.332
303.675
306.309
304.06
303.6
360.036
356.759
357.729
359.201
356.414
358.73
360.702
360.579
360.597
362.903
361.356
360.832
359.309
360.13
357.487
359.348
355.763
357.31
358.309
359.862
351.738
350.265
350.8
351.67
351.174
348.507
349.381
353.452
353.297
355.227
353.103
352.612
354.096
352.787
351.783
350.098
346.815
348.535
349.803
350.779
343.879
344.484
342.506
342.812
341.056
342.888
343.696
341.542
345.882
343.18
345.74
344.369
343.345
342.994
343.111
343.867
343.237
341.027
342.443
341.984
335.547
335.261
333.241
335.491
333.043
332.368
337.589
336.665
338.021
336.294
336.432
338.924
337.02
337.043
335.97
334.067
334.572
334.231
334.462
335.866
327.208
327.506
325.83
325.566
326.463
327.4
326.683
327.412
327.933
328.416
328.607
329.867
327.746
329.855
325.843
325.665
326.591
326.093
327.382
326.687
318.843
318.159
318.873
318.168
316.917
317.534
319.247
317.867
319.485
320.186
317.767
322.011
319.727
320.753
319.882
318.351
317.427
318.737
318.662
320.613
310.932
314.478
309.528
312.916
311.291
312.178
311.796
310.344
312.096
311.466
310.947
311.972
311.581
311.61
313.879
311.387
310.756
310.48
312.755
311.827
304.407
303.552
305.682
303.833
302.589
306.378
304.292
303.722
304.622
304.712
303.888
302.389
303.531
302.04
302.977
302.848
304.175
303.026
304.2
305.217
361.668
361.228
360.851
359.49
360.615
359.208
359.461
361.859
360.256
362.292
361.13
363.603
361.752
358.243
359.224
359.906
360.087
359.849
357.184
359.898
353.207
349.672
350.955
350.066
351.486
351.305
351.991
352.346
353.211
351.964
352.377
353.806
352.431
352.552
351.447
352.33
350.11
352.673
349.699
351.959
345.742
342.867
344.247
343.505
341.241
344.374
342.639
346.022
344.313
349.454
347.419
345.564
345.05
345.249
342.278
344.008
344.769
344.272
341.721
342.815
336.047
336.031
336.295
335.94
335.513
335.537
336.012
337.49
336.376
339.155
338.682
337.292
336.468
336.591
336.382
335.781
335.759
335.8
338.04
334.94
325.386
330.418
327.459
326.504
327.297
326.88
328.403
327.361
329.731
329.613
330.743
329.505
327.899
328.491
327.788
327.189
328.112
327.714
327.741
330.087
318.929
320.088
322.974
318.988
318.741
317.897
321.285
321.225
318.703
322.352
320.114
318.992
321.689
321.365
319.094
321.426
319.554
317.947
320.229
320.539
311.52
310.145
311.551
312.14
310.731
312.13
310.926
311.825
310.393
311.703
311.113
312.257
313.071
312.199
311.68
312.737
310.831
311.262
310.807
309.848
302.821
305.838
306.328
304.399
303.258
304.257
303.65
302.41
302.465
302.328
305.043
304.888
303.235
305.294
304.205
303.128
305.623
306.13
305.906
304.964
361.909
359.683
361.758
359.845
358.332
359.04
362.584
361.098
363.169
363.37
362.938
362.407
363.446
361.681
362.605
360.439
360.499
360.427
361.707
361.522
353.046
353.839
353.121
350.549
353.332
354.929
352.466
352.89
356.422
355.849
355.862
353.879
354.357
353.592
351.519
351.2
353.073
351.971
354.163
354.746
346.226
344.216
346.164
342.788
343.518
344.624
344.031
342.641
348.471
347.039
346.945
346.088
346.443
346.751
345.126
347.637
344.419
345.377
343.96
344.947
336.918
337.459
336.688
335.04
334.595
337.633
337.273
336.425
339.008
338.347
338.332
340.018
337.799
338.917
336.423
338.075
337.209
336.422
336.905
337.821
329.006
328.559
328.238
329.455
328.188
326.969
327.783
329.62
328.92
329.713
330.413
329.415
329.584
327.568
328.115
327.498
327.819
328.054
329.504
329.62
322.138
321.9
321.922
322.088
321.96
319.248
319.997
321.164
321.969
319.38
319.876
321.328
322.451
319.067
322.126
321.656
322.541
319.94
321.567
319.386
313.75
310.801
313.995
313.196
310.688
311.936
313.382
309.635
312.816
312.372
312.924
312.668
314.143
313.419
313.564
313.133
311.698
312.659
310.545
314.672
303.574
302.315
305.149
306.309
302.325
302.925
302.58
304.901
304.349
304.672
303.25
302.245
304.636
303.785
304.591
304.985
303.847
306.464
302.709
304.524
363.763
362.093
362.187
362.748
361.085
360.23
362.145
364.386
363.63
366.653
363.262
366.008
364.754
363.993
364.513
360.88
364.572
361.433
360.495
363.868
353.277
352.545
352.329
353.924
352.832
354.863
353.352
355.042
354.897
355.475
354.737
355.768
354.6
353.739
354.461
353.286
352.938
353.991
353.26
353.573
348.136
344.394
345.245
345.287
345.635
344.986
346.195
345.337
346.985
348.146
347.235
345.799
346.447
347.598
347.027
344.676
346.289
345.87
345.166
343.961
336.919
337.171
338.431
338.033
337.262
336.671
339.804
338.882
338.065
337.792
338.92
337.963
336.955
338.832
339.258
337.582
335.825
336.881
338.013
338.083
329.434
329.202
330.166
327.591
325.855
328.064
328.411
330.545
329.494
329.164
331.086
330.61
330.934
330.332
327.389
329.708
329.541
330.236
328.248
330.519
319.997
321.79
319.682
321.071
319.192
321.868
321.689
322.578
319.159
319.968
321.22
320.152
322.594
319.163
318.63
318.835
321.124
321.721
320.224
320.54
311.95
311.05
313.765
313.307
313.502
312.299
312.535
311.834
313.701
313.231
314.829
312.275
312.83
310.351
311.93
313.062
313.808
312.757
313.681
311.128
304.35
304.955
302.976
302.989
305.051
303.849
303.885
302.048
304.488
303.149
304.547
304.503
302.856
303.954
304.407
305.189
304.087
304.221
304.237
303.202
364.971
362.833
362.723
364.282
363.815
363.913
361.87
363.343
365.087
364.629
363.438
365.998
363.065
364.675
362.46
363.588
362.453
364.642
362.794
364.866
357.141
356.579
352.46
353.358
353.362
354.14
353.388
356.267
357.247
356.834
355.903
356.605
356.794
353.934
356.635
356.094
353.985
357.053
354.226
354.839
346.832
347.762
346.916
346.493
347.004
347.434
346.24
349.397
346.545
347.601
346.313
345.952
347.047
348.308
344.78
347.523
345.753
344.95
348.511
348.113
337.41
336.893
335.834
337.58
336.317
337.894
336.797
338.758
339.606
339.545
338.726
339.073
337.701
334.134
339.249
335.528
339.203
337.366
337.206
337.202
329.796
330.394
329.662
328.692
330.056
331.358
329.083
328.482
329.289
329.303
330.819
330.23
331.822
329.467
328.554
331.446
331.527
329.153
330.93
329.827
321.305
322.997
320.614
320.589
319.725
319.501
321.751
322.498
322.559
322.122
323.183
320.246
321.532
319.98
321.827
321.426
319.741
322.36
319.431
322.364
312.262
311.486
313.095
313.994
309.706
311.481
313.569
313.582
314.324
312.295
315.06
312.346
315.109
313.17
312.419
315.443
312.459
312.545
311.52
311.074
305.53
305.431
305.998
304.392
307.107
305.755
302.897
305.114
303.708
305.522
304.631
304.011
305.269
304.273
304.297
303.093
305.967
303.812
305.096
305.282
368.155
365.585
363.436
364.224
364.225
365.318
364.263
364.98
366.663
367.075
364.255
365.956
365.262
365.676
365.747
366.009
363.997
366.564
366.289
364.23
359.012
356.505
356.529
356.975
354.318
357.418
354.181
358.288
357.34
358.939
359.271
360.053
357.997
356.691
358.025
357.555
357.589
354.823
356.463
356.312
350.529
345.328
349.298
347.032
348.669
348.308
348.192
348.7
348.172
348.621
347.086
348.824
347.23
346.741
348.156
345.888
349.004
346.42
349.688
347.643
339.631
339.132
338.741
336.853
337.784
338.77
337.305
339.574
338.507
338.234
339.472
339.519
339.609
341.957
338.843
338.1
340.118
337.783
338.797
338.446
328.137
330.617
331.637
331.858
330.548
330.907
331.027
328.904
331.428
330.817
331.181
330.165
330.978
330.381
333.232
331.971
329.26
330.249
331.695
332.179
323.194
321.311
319.572
319.932
319.523
321.512
319.634
322.79
323.075
322.45
320.953
322.753
320.272
321.053
320.932
321.479
321.456
323.533
320.959
321.751
312.723
313.914
313.695
312.972
311.247
312.77
313.931
313.246
313.594
312.556
312.973
313.536
312.494
312.246
314.668
314.455
312.563
309.952
314.528
311.804
305.577
306.216
303.434
305.956
305.949
305.348
305.14
304.73
305.77
304.714
303.68
305.129
305.331
307.059
306.078
303.531
304.573
305.359
305.999
304.548
369.514
367.413
366.91
364.582
366.106
365.756
366.145
364.873
368.161
368.234
366.122
368.181
365.077
366.177
366.881
365.089
366.792
366.09
367.116
367.957
359.185
357.34
355.455
356.051
355.062
356.991
356.131
357.511
357.772
356.656
356.915
356.05
360.33
357.886
357.547
355.659
358.065
359.563
357.348
359.411
350.014
350.448
348.167
347.296
346.135
347.671
349.078
349
350.783
347.934
348.714
349.347
348.816
350.265
346.974
348.54
350.113
347.844
348.588
348.801
338.487
340.71
338.172
339.602
338.806
341.443
341.529
339.926
339.552
339.948
338.846
340.188
340.292
340.184
341.312
339.37
340.24
338.501
338.816
339.509
331.288
329.659
328.257
329.065
326.676
330.833
330.676
332.042
330.034
330.117
333.717
331.923
331.595
332.523
332.148
330.127
331.268
332.538
330.442
331.329
323.125
321.382
321.961
321.339
321.369
324.074
321.521
321.548
321.398
325.557
321.19
320.894
323.682
322.592
322.408
321.077
319.795
320.776
322.683
322.552
313.035
312.614
311.897
315.2
312.267
312.999
311.778
313.376
313.334
312.73
312.451
314.655
312.711
312.282
312.529
312.696
312.629
312.694
311.998
312.032
304.278
303.766
304.892
304.537
305.258
305.304
303.58
304.375
302.602
303.398
305.391
303.926
304.023
303.588
304.623
303.59
304.892
303.172
303.015
303.518
372.463
367.201
366.347
368.141
368.909
366.297
368.873
368.152
366.926
367.957
368.192
369.827
368.167
368.755
367.248
367.604
366.77
367.372
369.239
370.913
358.217
359.623
359.98
360.79
359.137
361.714
358.665
361.642
358.161
361.783
362.338
358.847
361.978
358.456
361.224
358.791
360.666
358.513
360.327
360.553
349.712
350.721
348.791
349.003
347.179
349.36
348.93
347.912
350.564
350.45
351.25
349.596
351.075
350.007
349.938
349.733
348.416
350.009
349.546
350.854
340.596
340.932
338.08
340.87
339.91
339.672
340.32
341.844
340.066
341.989
342.058
340.844
341.427
339.626
339.934
341.13
340.585
339.84
341.299
341.854
331.941
331.891
330.579
333.866
330.411
330.079
331.636
332.022
330.647
330.695
332.055
330.826
331.572
331.35
332.344
331.023
331.052
330.088
332.229
330.904
321.712
322.151
320.832
320.937
323.593
323.177
323.13
320.557
323.017
322.812
322.065
320.67
322.504
323.088
322.26
322.432
319.36
323.664
323.96
322.177
314.386
313.174
315.066
311.51
312.019
311.506
312.43
315.308
313.772
312.878
315.289
313.538
312.244
312.975
313.57
314.836
312.879
313.209
312.106
314.493
306.386
306.186
304.443
303.26
303.156
303.969
304.315
304.972
305.683
304.912
305.539
303.625
303.625
305.298
303.561
303.996
304.867
303.442
304.347
302.731
371.242
369.036
367.444
367.551
367.623
367.409
368.399
369.61
367.817
369.736
369.874
369.91
370.66
370.62
369.071
370.198
369.598
368.193
370.335
370.693
359.686
360.703
357.495
357.636
358.2
357.715
359.474
357.649
358.379
358.56
358.654
360.827
362.187
359.462
359.33
358.578
358.22
360.803
360.082
362.975
349.596
350.117
351.185
350.279
350.347
348.075
349.687
351.127
349.038
350.493
351.155
350.623
346.549
350.468
350.397
348.888
351
348.042
349.175
351.501
338.959
340.983
341.433
341.31
341.063
339.23
339.328
338.38
340.894
341.696
340.075
341.479
341.518
341.741
340.643
344.357
338.817
340.275
339.456
341.473
332.681
330.457
331.432
332.919
330.99
332.562
330.739
331.826
333.759
331.094
330.99
332.648
331.274
332.356
333.116
328.17
331.431
332.786
332.047
332.148
321.574
324.504
324.86
322.987
322.655
321.864
325.276
322.13
322.29
323.452
322.856
322.933
322.21
324.228
321.34
321.609
321.997
323.825
322.156
323.887
312.292
316.516
312.255
312.397
314.472
312.956
313.083
312.414
316.067
313.717
313.528
312.962
314.102
313.335
314.457
313.173
314.772
312.899
314.808
314.24
304.576
303.983
304.673
304.093
304.575
303.719
304.514
305.486
304.874
303.494
305.981
303.32
305.844
302.829
304.429
304.962
301.451
304.21
304.227
305.71
)
;

boundaryField
{
    hotSide
    {
        type            fixedGradient;
        gradient        nonuniform List<scalar> 
400
(
321.511
322.87
325.591
329.677
335.133
341.965
350.181
359.788
370.794
383.208
397.037
412.289
428.971
447.088
466.647
487.651
510.105
534.011
559.372
586.191
323.738
325.08
327.767
331.802
337.194
343.949
352.078
361.591
372.498
384.81
398.537
413.687
430.268
448.289
467.755
488.672
511.043
534.872
560.161
586.913
326.149
327.47
330.116
334.091
339.406
346.071
354.099
363.503
374.296
386.491
400.101
415.136
431.606
449.52
468.885
489.706
511.988
535.735
560.948
587.63
328.704
330
332.597
336.503
341.73
348.292
356.205
365.485
376.15
388.215
401.695
416.604
432.954
450.753
470.009
490.73
512.919
536.579
561.714
588.325
331.33
332.599
335.142
338.97
344.099
350.546
358.332
367.477
378.003
389.928
403.271
418.047
434.27
451.949
471.095
491.712
513.807
537.382
562.439
588.978
333.918
335.158
337.643
341.389
346.414
352.74
360.392
369.397
379.779
391.562
404.765
419.407
435.503
453.065
472.101
492.618
514.622
538.114
563.096
589.569
336.321
337.531
339.959
343.622
348.544
354.751
362.274
371.142
381.385
393.031
406.101
420.618
436.595
454.047
472.983
493.409
515.33
538.747
563.663
590.076
338.36
339.543
341.92
345.509
350.339
356.44
363.847
372.595
382.718
394.244
407.2
421.608
437.485
454.844
473.695
494.045
515.897
539.253
564.114
590.478
339.852
341.015
343.352
346.885
351.645
357.665
364.985
373.643
383.675
395.113
407.984
422.312
438.116
455.407
474.197
494.491
516.294
539.606
564.428
590.758
340.643
341.795
344.11
347.613
352.334
358.311
365.584
374.193
384.176
395.567
408.393
422.679
438.443
455.699
474.456
494.722
516.498
539.788
564.589
590.901
340.643
341.795
344.11
347.613
352.334
358.311
365.584
374.193
384.176
395.567
408.393
422.679
438.443
455.699
474.456
494.722
516.498
539.788
564.589
590.901
339.852
341.015
343.352
346.885
351.645
357.665
364.985
373.643
383.675
395.113
407.984
422.312
438.116
455.407
474.197
494.491
516.294
539.606
564.428
590.758
338.36
339.543
341.92
345.509
350.339
356.44
363.847
372.595
382.718
394.244
407.2
421.608
437.485
454.844
473.695
494.045
515.897
539.253
564.114
590.478
336.321
337.531
339.959
343.622
348.544
354.751
362.274
371.142
381.385
393.031
406.101
420.618
436.595
454.047
472.983
493.409
515.33
538.747
563.663
590.076
333.918
335.158
337.643
341.389
346.414
352.74
360.392
369.397
379.779
391.562
404.765
419.407
435.503
453.065
472.101
492.618
514.622
538.114
563.096
589.569
331.33
332.599
335.142
338.97
344.099
350.546
358.332
367.477
378.003
389.928
403.271
418.047
434.27
451.949
471.095
491.712
513.807
537.382
562.439
588.978
328.704
330
332.597
336.503
341.73
348.292
356.205
365.485
376.15
388.215
401.695
416.604
432.954
450.753
470.009
490.73
512.919
536.579
561.714
588.325
326.149
327.47
330.116
334.091
339.406
346.071
354.099
363.503
374.296
386.491
400.101
415.136
431.606
449.52
468.885
489.706
511.988
535.735
560.948
587.63
323.738
325.08
327.767
331.802
337.194
343.949
352.078
361.591
372.498
384.81
398.537
413.687
430.268
448.289
467.755
488.672
511.043
534.872
560.161
586.913
321.511
322.87
325.591
329.677
335.133
341.965
350.181
359.788
370.794
383.208
397.037
412.289
428.971
447.088
466.647
487.651
510.105
534.011
559.372
586.191
)
;
    }
    coldSide
    {
        type            mixed;
        refValue        uniform 300;
        refGradient     uniform 0;
        valueFraction   uniform 0.991591;
        source          uniform 0;
        value           nonuniform List<scalar> 
400
(
300.016
300.025
300.035
300.02
300.02
300.03
300.038
300.015
300.035
300.023
300.039
300.037
300.024
300.03
300.037
300.047
300.047
300.036
300.054
300.038
300.037
300.031
300.034
300.024
300.04
300.028
300.031
300.016
300.035
300.031
300.01
300.03
300.049
300.019
300.042
300.046
300.052
300.032
300.052