/*--------------------------------*- C++ -*----------------------------------*\
| =========                 |                                                 |
| \\      /  F ield         | OpenFOAM: The Open Source CFD Toolbox           |
|  \\    /   O peration     | Version:  2212                                  |
|   \\  /    A nd           | Website:  www.openfoam.com                      |
|    \\/     M anipulation  |                                                 |
\*---------------------------------------------------------------------------*/
FoamFile
{
    version     2.0;
    format      ascii;
    arch        "LSB;label=32;scalar=64";
    class       volScalarField;
    location    "./ITHACAoutput/true/17.1";
    object      error;
}
// * * * * * * * * * * * * * * * * * * * * * * * * * * * * * * * * * * * * * //

dimensions      [0 0 0 1 0 0 0];

internalField   nonuniform List<scalar> 
3200
(
0.848288
0.52043
0.174445
0.0584201
-0.171321
-0.186809
-0.250753
-0.147567
-0.0376142
-0.00465219
0.121709
0.124229
0.187657
0.327004
0.384085
0.522241
0.780447
1.08868
1.40206
1.75373
0.659102
0.4914
0.159417
-0.0627004
-0.194821
-0.175874
-0.201094
-0.168818
-0.131635
0.00469838
0.0545785
0.040408
0.0861978
0.160341
0.282549
0.445381
0.572378
0.848608
1.23485
1.58611
0.499785
0.347439
0.153784
-0.0953451
-0.144481
-0.204968
-0.18162
-0.192217
-0.104725
-0.0602986
-0.03309
0.0218537
0.0944453
0.140986
0.181571
0.32469
0.506946
0.71145
0.997619
1.31421
0.483179
0.276292
0.0679892
-0.0551598
-0.19206
-0.196349
-0.204914
-0.137366
-0.0644118
-0.00730396
0.00783483
-0.0232971
1.07951e-05
0.0486874
0.11125
0.316045
0.364946
0.601565
0.81901
1.03442
0.322021
0.216758
0.00424248
-0.114509
-0.137255
-0.152099
-0.228044
-0.149112
-0.0963026
-0.0552904
-0.0863524
-0.00313912
0.0641518
0.0175949
0.0696137
0.223803
0.292162
0.509819
0.580923
0.787486
0.202462
0.149523
-0.0149388
-0.0866536
-0.0675838
-0.0281868
-0.152252
-0.145233
-0.060645
-0.0391081
-0.0191685
-0.0326253
0.06282
0.0994393
0.0636804
0.229564
0.184419
0.300198
0.520221
0.547948
0.105351
0.0328998
0.0223296
-0.119246
-0.0991711
-0.108335
-0.0645418
-0.0762418
-0.0174793
-0.0937181
-0.0311322
-0.0674471
-0.0454006
0.028759
0.00877501
0.073956
0.148167
0.19054
0.256766
0.319163
-0.00321536
-0.0183028
0.00239347
0.0367564
-0.0610837
-0.0251189
-0.0568479
-0.0293233
-0.000138772
0.00677275
-0.0202402
0.0138571
0.0198852
-0.0271727
-0.0102107
0.0606577
0.00351129
0.0305727
0.0514797
0.122466
-0.102417
-0.379448
-0.68619
-0.994508
-1.11183
-1.18709
-1.24837
-1.11067
-1.08365
-1.00415
-1.01338
-0.82445
-0.819233
-0.742642
-0.610101
-0.544074
-0.203391
0.101629
0.450245
0.810715
0.0319332
-0.316654
-0.585795
-0.871746
-1.04793
-1.06581
-1.01556
-1.00654
-0.914198
-0.862732
-0.79523
-0.751515
-0.707178
-0.659373
-0.471122
-0.49091
-0.0992143
0.114256
0.403124
0.707931
-0.0422553
-0.2796
-0.503401
-0.743237
-0.779769
-0.805506
-0.930882
-0.744142
-0.812376
-0.789544
-0.695535
-0.594064
-0.636805
-0.562764
-0.375065
-0.332643
-0.15159
0.132154
0.411816
0.670014
0.00212932
-0.240441
-0.385893
-0.543769
-0.661076
-0.716305
-0.761977
-0.69096
-0.661474
-0.627204
-0.628614
-0.5742
-0.483995
-0.377492
-0.383121
-0.231772
-0.115407
0.0608535
0.341637
0.554107
0.0353008
-0.178769
-0.278759
-0.453842
-0.505474
-0.618026
-0.545207
-0.586839
-0.505746
-0.468111
-0.455384
-0.373377
-0.416739
-0.340656
-0.299836
-0.203912
-0.09824
0.120757
0.344557
0.447763
0.011967
-0.170242
-0.249032
-0.270095
-0.408439
-0.41242
-0.421037
-0.457535
-0.405958
-0.392124
-0.323606
-0.305811
-0.250845
-0.189708
-0.255528
-0.183291
-0.075157
0.0085676
0.172045
0.267995
0.0281823
-0.0660129
-0.0888532
-0.218424
-0.173041
-0.244551
-0.228996
-0.266851
-0.178883
-0.205468
-0.250037
-0.166894
-0.143317
-0.177405
-0.139513
-0.0950585
-0.104609
0.0835793
0.120875
0.165309
0.00388249
0.0274029
-0.0851139
-0.10884
-0.0403023
-0.0808064
-0.119748
-0.0846519
-0.112949
-0.155657
-0.0892393
0.0104525
-0.0418625
-0.0511406
-0.0422932
-0.00512198
-0.0531788
-0.00910831
0.0352335
0.0417586
-1.11412
-1.45982
-1.87105
-2.15681
-2.37549
-2.4433
-2.45813
-2.43818
-2.41893
-2.33626
-2.20169
-2.13522
-2.17868
-2.06365
-1.88497
-1.77673
-1.41781
-1.04614
-0.650251
-0.197209
-0.892922
-1.212
-1.56744
-1.79023
-1.96064
-2.06745
-2.111
-2.06321
-2.01068
-1.98889
-1.90459
-1.9229
-1.8085
-1.74353
-1.63206
-1.39009
-1.27455
-0.9303
-0.453905
-0.0964513
-0.750568
-1.02293
-1.24439
-1.54123
-1.70374
-1.71511
-1.74339
-1.78959
-1.75806
-1.69839
-1.60736
-1.58143
-1.51381
-1.43492
-1.38523
-1.22011
-0.978275
-0.773161
-0.429058
-0.0810556
-0.610576
-0.798412
-0.945611
-1.24083
-1.35476
-1.35823
-1.39812
-1.45766
-1.42267
-1.43987
-1.26361
-1.30219
-1.23611
-1.17904
-1.07411
-0.994441
-0.784541
-0.576672
-0.231674
-0.0298893
-0.440683
-0.653029
-0.781279
-0.869347
-1.05679
-1.04588
-0.999196
-1.11976
-1.09958
-1.07074
-1.01402
-0.978572
-0.894071
-0.961211
-0.826052
-0.694203
-0.623634
-0.418032
-0.26667
-0.0208713
-0.34229
-0.473561
-0.566998
-0.661776
-0.795231
-0.806942
-0.798161
-0.787675
-0.807127
-0.727938
-0.727438
-0.643693
-0.705953
-0.650348
-0.60652
-0.593124
-0.462584
-0.288096
-0.120136
-0.0318718
-0.13975
-0.251148
-0.369463
-0.405945
-0.443957
-0.41384
-0.435693
-0.423768
-0.493752
-0.455224
-0.457007
-0.386042
-0.403103
-0.367499
-0.355746
-0.34234
-0.258854
-0.263834
-0.0575982
-0.0378463
-0.0742939
-0.0598152
-0.14135
-0.114855
-0.0945625
-0.216613
-0.227478
-0.119543
-0.166626
-0.172784
-0.0584415
-0.128691
-0.129412
-0.0684338
-0.120383
-0.0854212
-0.0205261
-0.079973
-0.0825495
-0.0518565
-2.12762
-2.50181
-2.95544
-3.24031
-3.54423
-3.60676
-3.71952
-3.68587
-3.7325
-3.6447
-3.61486
-3.49256
-3.46245
-3.3983
-3.19689
-2.97148
-2.66198
-2.18312
-1.79657
-1.28184
-1.76545
-2.09416
-2.4807
-2.81694
-2.97809
-3.04424
-3.16429
-3.1831
-3.15308
-3.14937
-3.04048
-3.01184
-3.02095
-2.924
-2.7135
-2.49638
-2.2139
-1.84265
-1.44225
-1.02521
-1.49314
-1.78077
-2.07729
-2.33278
-2.57096
-2.61915
-2.62707
-2.66576
-2.64386
-2.54565
-2.57535
-2.5472
-2.52285
-2.39355
-2.28377
-2.10307
-1.87794
-1.54954
-1.17712
-0.8657
-1.22574
-1.43155
-1.68755
-1.86212
-2.07618
-2.09819
-2.20698
-2.2026
-2.21705
-2.08979
-2.06063
-1.98584
-2.06745
-1.92182
-1.8491
-1.68295
-1.54358
-1.29586
-0.953968
-0.668345
-0.947695
-1.10103
-1.31536
-1.49801
-1.53251
-1.68561
-1.70502
-1.7042
-1.66474
-1.67775
-1.59014
-1.57351
-1.52346
-1.48924
-1.45621
-1.3148
-1.15656
-0.934116
-0.712743
-0.47946
-0.674125
-0.768251
-0.879135
-0.976411
-1.12164
-1.15323
-1.24952
-1.21017
-1.18272
-1.11573
-1.22429
-1.16242
-1.1224
-1.04851
-0.979437
-0.919746
-0.865233
-0.662651
-0.487224
-0.371209
-0.447904
-0.518192
-0.639744
-0.672467
-0.734908
-0.751811
-0.710815
-0.702785
-0.690385
-0.657503
-0.649593
-0.713314
-0.689162
-0.614796
-0.589006
-0.583524
-0.495957
-0.396498
-0.334608
-0.231268
-0.131394
-0.107714
-0.164899
-0.234602
-0.280487
-0.21258
-0.257731
-0.256638
-0.180675
-0.205215
-0.25701
-0.190072
-0.226531
-0.203535
-0.187243
-0.214809
-0.136399
-0.089078
-0.0613462
-0.0651861
-3.05623
-3.45144
-3.93964
-4.29923
-4.61667
-4.78344
-4.88178
-4.93444
-4.94329
-4.86986
-4.8662
-4.75046
-4.68742
-4.58498
-4.36988
-4.09093
-3.71861
-3.27542
-2.81966
-2.33149
-2.60281
-2.85784
-3.36757
-3.67672
-3.93987
-4.10222
-4.15145
-4.17698
-4.19201
-4.17666
-4.11781
-4.13197
-4.01319
-3.89902
-3.72504
-3.45004
-3.20425
-2.82312
-2.3465
-1.89462
-2.12329
-2.44214
-2.77773
-3.06173
-3.26665
-3.40928
-3.52506
-3.54322
-3.51525
-3.55812
-3.45258
-3.48712
-3.36885
-3.23309
-3.11895
-2.89848
-2.62861
-2.28892
-1.88151
-1.5998
-1.81659
-2.00924
-2.22989
-2.54155
-2.63755
-2.75895
-2.85709
-2.88269
-2.8667
-2.829
-2.84146
-2.70168
-2.72078
-2.6868
-2.51594
-2.36562
-2.12933
-1.84795
-1.5271
-1.23295
-1.32597
-1.58838
-1.75591
-1.89549
-2.10263
-2.13584
-2.27731
-2.20822
-2.18209
-2.23641
-2.1462
-2.09959
-2.12959
-2.13776
-1.97135
-1.80963
-1.67737
-1.50261
-1.24638
-1.0057
-0.969497
-1.06473
-1.22866
-1.38957
-1.46205
-1.62283
-1.56177
-1.57689
-1.63813
-1.55982
-1.59552
-1.51953
-1.52523
-1.46918
-1.37736
-1.18714
-1.11688
-0.989096
-0.870227
-0.759421
-0.554545
-0.647447
-0.672518
-0.817127
-0.790578
-0.902818
-0.855638
-0.978295
-0.926873
-1.00893
-0.905763
-0.918883
-0.953055
-0.850349
-0.775394
-0.803983
-0.72973
-0.623027
-0.494763
-0.367121
-0.207328
-0.279055
-0.23902
-0.302623
-0.315833
-0.247366
-0.333562
-0.348036
-0.301674
-0.320525
-0.336946
-0.306154
-0.302966
-0.343229
-0.264698
-0.262179
-0.249274
-0.268904
-0.212318
-0.11062
-3.71801
-4.26193
-4.7405
-5.22817
-5.56749
-5.683
-5.86844
-6.02293
-5.9706
-6.06345
-5.9937
-5.81836
-5.75551
-5.61936
-5.37977
-5.0659
-4.72631
-4.1843
-3.62526
-3.0989
-3.17617
-3.56245
-4.08118
-4.49812
-4.71788
-4.95907
-5.07585
-5.12889
-5.18469
-5.15254
-5.07466
-5.05163
-4.96007
-4.85236
-4.61596
-4.31206
-3.99922
-3.58689
-3.13259
-2.5927
-2.62564
-2.97604
-3.32526
-3.74874
-3.95071
-4.10134
-4.27374
-4.28746
-4.34363
-4.40303
-4.24198
-4.19146
-4.13919
-4.00878
-3.86394
-3.61038
-3.307
-3.03393
-2.52223
-2.20975
-2.13765
-2.42445
-2.72549
-3.03652
-3.20167
-3.35494
-3.49007
-3.50425
-3.54232
-3.50992
-3.50169
-3.44332
-3.33539
-3.28219
-3.1456
-2.91059
-2.69232
-2.42633
-2.03519
-1.7515
-1.6773
-1.85729
-2.2102
-2.27102
-2.53486
-2.62894
-2.70376
-2.70662
-2.68629
-2.79561
-2.66556
-2.60136
-2.64997
-2.56486
-2.38483
-2.29245
-2.11052
-1.88846
-1.57237
-1.33463
-1.18817
-1.3434
-1.48752
-1.61941
-1.75718
-1.85916
-1.8856
-1.91079
-1.90488
-1.9797
-1.93527
-1.8272
-1.85022
-1.81478
-1.70603
-1.63671
-1.42564
-1.37067
-1.10929
-0.908448
-0.708052
-0.779122
-0.875367
-1.01903
-1.08054
-1.03569
-1.14427
-1.11709
-1.20038
-1.14656
-1.13334
-1.11254
-1.0754
-1.08682
-1.02008
-1.01852
-0.914594
-0.730778
-0.713257
-0.531771
-0.201033
-0.27284
-0.26391
-0.294904
-0.385544
-0.367826
-0.367363
-0.449066
-0.445716
-0.370601
-0.406483
-0.361306
-0.380284
-0.35645
-0.319991
-0.285059
-0.315045
-0.243192
-0.213124
-0.205726
-4.28448
-4.88866
-5.32228
-5.88577
-6.26417
-6.56284
-6.75831
-6.78104
-6.90494
-6.87734
-6.90645
-6.78644
-6.62984
-6.40608
-6.23186
-5.88082
-5.46092
-4.96039
-4.34175
-3.77705
-3.57322
-4.15252
-4.58935
-5.07829
-5.41953
-5.59093
-5.8162
-5.95729
-5.91025
-5.92063
-5.91182
-5.86596
-5.66544
-5.51245
-5.35737
-5.12428
-4.6924
-4.21107
-3.71
-3.22509
-2.98971
-3.3933
-3.90084
-4.20174
-4.46279
-4.77796
-4.91461
-4.96386
-4.99276
-5.00758
-4.97261
-4.86004
-4.82201
-4.67951
-4.43612
-4.22028
-3.87669
-3.49883
-3.10117
-2.65478
-2.45507
-2.78628
-3.11001
-3.44528
-3.65553
-3.89528
-3.93799
-3.99527
-4.08032
-4.03823
-4.08552
-3.98325
-3.86302
-3.77143
-3.63435
-3.36333
-3.1948
-2.86202
-2.56862
-2.12897
-1.89867
-2.20099
-2.43294
-2.60878
-2.78766
-2.95844
-3.10255
-3.14374
-3.14564
-3.13639
-3.1645
-3.07515
-3.00294
-2.93051
-2.77331
-2.60501
-2.46289
-2.20295
-1.94223
-1.58812
-1.32967
-1.50554
-1.73702
-1.86529
-2.0325
-2.13271
-2.13088
-2.24811
-2.25528
-2.19365
-2.18394
-2.10478
-2.09984
-2.08618
-1.94204
-1.85759
-1.72355
-1.53775
-1.29277
-1.14793
-0.81252
-0.866234
-0.989728
-1.16436
-1.22315
-1.24905
-1.30695
-1.37815
-1.38183
-1.3524
-1.33683
-1.30879
-1.28072
-1.20366
-1.24542
-1.09443
-0.9872
-0.899035
-0.781107
-0.756125
-0.319284
-0.32213
-0.320788
-0.396126
-0.421234
-0.479968
-0.461704
-0.408941
-0.424169
-0.424307
-0.398955
-0.453304
-0.514989
-0.430284
-0.381775
-0.370172
-0.300698
-0.312731
-0.321017
-0.260558
-4.65609
-5.16218
-5.82606
-6.32806
-6.84734
-7.10772
-7.36282
-7.48321
-7.5342
-7.60845
-7.64929
-7.47974
-7.31111
-7.17814
-6.86364
-6.48879
-5.99223
-5.49231
-4.83373
-4.1898
-4.0189
-4.4898
-4.9309
-5.49061
-5.87975
-6.12859
-6.42418
-6.48819
-6.51573
-6.50583
-6.50908
-6.48254
-6.30483
-6.15613
-5.92098
-5.63669
-5.22772
-4.58276
-4.03879
-3.59207
-3.28366
-3.75242
-4.22682
-4.61536
-4.98875
-5.13805
-5.3458
-5.44888
-5.51365
-5.56116
-5.46414
-5.48337
-5.28984
-5.18606
-4.94145
-4.66338
-4.2647
-3.90901
-3.3619
-2.9182
-2.76906
-2.98048
-3.33838
-3.66241
-4.01939
-4.18101
-4.28571
-4.41501
-4.46867
-4.54677
-4.46599
-4.45831
-4.31005
-4.21484
-4.01276
-3.8268
-3.44533
-3.13721
-2.74761
-2.33995
-2.0762
-2.30545
-2.61456
-2.8102
-3.03046
-3.27897
-3.36878
-3.43421
-3.426
-3.40952
-3.40335
-3.36859
-3.41668
-3.21733
-3.11238
-2.85316
-2.72745
-2.38537
-2.10935
-1.78582
-1.43314
-1.66979
-1.83732
-2.03038
-2.18663
-2.29915
-2.41098
-2.51759
-2.51682
-2.46329
-2.52627
-2.41677
-2.3936
-2.33363
-2.20418
-2.08611
-1.93117
-1.71101
-1.54616
-1.27561
-0.903252
-1.04448
-1.07579
-1.20652
-1.29449
-1.42773
-1.40055
-1.44437
-1.48683
-1.46033
-1.50878
-1.45809
-1.37879
-1.41991
-1.29755
-1.25768
-1.14664
-1.00655
-0.836839
-0.840842
-0.374726
-0.35482
-0.38522
-0.351816
-0.482202
-0.428219
-0.477325
-0.526755
-0.516159
-0.482172
-0.525419
-0.469394
-0.467509
-0.504487
-0.484921
-0.378966
-0.370325
-0.427736
-0.265399
-0.255409
-4.79756
-5.46196
-6.08887
-6.68528
-7.17203
-7.55367
-7.80493
-7.96944
-8.08391
-8.13242
-8.16202
-8.04721
-7.88568
-7.64158
-7.27113
-6.95863
-6.45555
-5.77451
-5.04759
-4.38837
-4.03773
-4.67474
-5.19327
-5.74489
-6.15176
-6.459
-6.72798
-6.91604
-6.94766
-7.04497
-6.99729
-6.90189
-6.73298
-6.57932
-6.33789
-5.9448
-5.41624
-4.87432
-4.27911
-3.80757
-3.44751
-3.81234
-4.38087
-4.8229
-5.11889
-5.4336
-5.65409
-5.79489
-5.85488
-5.84337
-5.84211
-5.82037
-5.65949
-5.55128
-5.25873
-4.89879
-4.62134
-4.13086
-3.56473
-3.10631
-2.72961
-3.11992
-3.54112
-3.91905
-4.20937
-4.40871
-4.56484
-4.64081
-4.74792
-4.68963
-4.79649
-4.77246
-4.58912
-4.46255
-4.25786
-4.03715
-3.76801
-3.23325
-2.97762
-2.52993
-2.11026
-2.41148
-2.7049
-3.06094
-3.18637
-3.38257
-3.49969
-3.67854
-3.67326
-3.69572
-3.71282
-3.67495
-3.56901
-3.43702
-3.30937
-3.10251
-2.90266
-2.63379
-2.26101
-1.91647
-1.45436
-1.71419
-1.92262
-2.15959
-2.30752
-2.41943
-2.54033
-2.62196
-2.56854
-2.63989
-2.63227
-2.62563
-2.51598
-2.43549
-2.38893
-2.20746
-1.99269
-1.76106
-1.58538
-1.43381
-0.890918
-1.08476
-1.05635
-1.26969
-1.35493
-1.4355
-1.51405
-1.56435
-1.63629
-1.5892
-1.62259
-1.54749
-1.50676
-1.39367
-1.41426
-1.2862
-1.21962
-1.16801
-0.959848
-0.855197
-0.275431
-0.353268
-0.376128
-0.422078
-0.488391
-0.462222
-0.519173
-0.491599
-0.559273
-0.564522
-0.520045
-0.593129
-0.466954
-0.493673
-0.461496
-0.453656
-0.459495
-0.366094
-0.312595
-0.250315
-4.66157
-5.40606
-6.114
-6.73248
-7.30824
-7.73606
-8.00759
-8.27318
-8.44539
-8.49983
-8.47713
-8.30525
-8.18891
-7.90898
-7.52776
-7.10889
-6.57421
-5.88837
-5.11252
-4.48549
-4.00328
-4.54661
-5.19068
-5.74874
-6.23239
-6.65026
-6.92487
-7.06154
-7.1918
-7.26913
-7.2825
-7.17761
-6.97256
-6.74646
-6.44963
-6.02521
-5.59328
-5.01516
-4.31714
-3.77764
-3.25242
-3.83943
-4.43943
-4.80683
-5.28488
-5.49308
-5.82794
-5.93024
-6.01941
-6.09873
-6.0546
-5.95752
-5.88927
-5.65535
-5.49284
-5.0375
-4.7178
-4.22363
-3.68802
-3.13735
-2.76015
-3.1371
-3.5636
-3.88094
-4.23335
-4.54471
-4.64114
-4.8216
-4.93073
-4.97053
-4.94162
-4.91254
-4.76137
-4.63564
-4.38622
-4.07521
-3.82714
-3.37264
-2.97388
-2.56227
-2.08205
-2.37839
-2.71164
-2.97669
-3.25383
-3.522
-3.66692
-3.66717
-3.78374
-3.81832
-3.8256
-3.78611
-3.66838
-3.55973
-3.44988
-3.22348
-2.92234
-2.5585
-2.21394
-2.0155
-1.45349
-1.65425
-1.97942
-2.18086
-2.31595
-2.50368
-2.58814
-2.59984
-2.73892
-2.66948
-2.68121
-2.68609
-2.60054
-2.52645
-2.40373
-2.29688
-2.09178
-1.81798
-1.5881
-1.44878
-0.947891
-1.02954
-1.14984
-1.27801
-1.45007
-1.41363
-1.57262
-1.55726
-1.59517
-1.69582
-1.61639
-1.63867
-1.5266
-1.53806
-1.44471
-1.32135
-1.24295
-1.05624
-0.940285
-0.824978
-0.296025
-0.322414
-0.516835
-0.436311
-0.486279
-0.403661
-0.504095
-0.565507
-0.606294
-0.548195
-0.656448
-0.486826
-0.517453
-0.516524
-0.55955
-0.518596
-0.398507
-0.334873
-0.277943
-0.206703
-4.415
-5.15318
-5.96844
-6.61988
-7.24846
-7.72269
-8.02366
-8.27725
-8.51773
-8.50755
-8.50982
-8.34394
-8.26527
-7.91185
-7.55532
-7.10804
-6.55859
-5.82526
-4.91735
-4.28294
-3.79272
-4.43659
-5.02106
-5.59397
-6.24092
-6.54761
-6.91921
-7.09618
-7.197
-7.36574
-7.26237
-7.18943
-7.02278
-6.7392
-6.54361
-6.04646
-5.53656
-4.89257
-4.18931
-3.54375
-3.15117
-3.66149
-4.18884
-4.7378
-5.21818
-5.59677
-5.76085
-5.99755
-6.01998
-6.13518
-6.09148
-6.08051
-5.91735
-5.66812
-5.4406
-5.02846
-4.59957
-4.13254
-3.55627
-3.03522
-2.53707
-2.96019
-3.41494
-3.81482
-4.19757
-4.44982
-4.68487
-4.89511
-4.93422
-4.91514
-4.94313
-4.90853
-4.78679
-4.57644
-4.4282
-4.06547
-3.73442
-3.32247
-2.84121
-2.45555
-1.95301
-2.30592
-2.66608
-2.90944
-3.19022
-3.47064
-3.69665
-3.71906
-3.79599
-3.87274
-3.78884
-3.74502
-3.75498
-3.58419
-3.40092
-3.1745
-2.77104
-2.57432
-2.20891
-1.88606
-1.33961
-1.60221
-1.86006
-2.12996
-2.31355
-2.47796
-2.54324
-2.69431
-2.76936
-2.76574
-2.73673
-2.68766
-2.63806
-2.53813
-2.34376
-2.22245
-2.0209
-1.7992
-1.55901
-1.31264
-0.898762
-0.968259
-1.20495
-1.26269
-1.39193
-1.44865
-1.48105
-1.53988
-1.62547
-1.65523
-1.63723
-1.62234
-1.55012
-1.52643
-1.43527
-1.38519
-1.23444
-1.134
-0.886487
-0.754968
-0.249161
-0.264394
-0.405507
-0.410556
-0.453277
-0.564185
-0.532392
-0.59315
-0.527727
-0.541464
-0.566048
-0.547246
-0.464905
-0.452871
-0.45322
-0.369239
-0.432032
-0.361866
-0.31412
-0.221029
-3.89412
-4.65948
-5.50886
-6.28282
-6.91497
-7.43694
-7.81837
-8.09582
-8.32572
-8.31726
-8.29089
-8.24236
-8.05171
-7.78567
-7.33214
-6.82722
-6.14798
-5.42366
-4.62702
-3.86119
-3.32732
-3.93493
-4.64939
-5.3374
-5.7975
-6.39525
-6.58018
-6.89092
-7.07765
-7.11362
-7.19043
-7.01815
-6.79935
-6.64364
-6.24993
-5.85432
-5.24082
-4.62064
-3.90783
-3.22697
-2.78885
-3.30451
-3.86923
-4.40768
-4.88626
-5.2526
-5.58084
-5.77837
-5.9245
-6.01049
-6.0069
-5.92747
-5.78557
-5.47466
-5.2996
-4.8344
-4.36226
-3.79208
-3.18553
-2.66129
-2.18392
-2.68934
-3.15618
-3.65393
-3.98435
-4.25564
-4.43682
-4.71365
-4.77924
-4.82164
-4.87146
-4.80138
-4.68011
-4.47347
-4.25018
-3.93411
-3.55847
-3.09204
-2.64752
-2.15226
-1.74978
-2.04913
-2.45714
-2.82266
-3.03041
-3.32093
-3.44686
-3.67139
-3.65148
-3.70963
-3.75755
-3.66977
-3.58981
-3.48099
-3.2648
-3.02699
-2.66642
-2.29333
-1.98996
-1.62142
-1.15154
-1.51045
-1.74772
-1.97966
-2.15276
-2.35773
-2.5184
-2.48517
-2.58783
-2.6169
-2.68347
-2.67459
-2.52248
-2.45023
-2.35299
-2.12473
-1.8973
-1.62475
-1.35785
-1.20206
-0.74173
-0.836561
-0.994312
-1.13114
-1.28777
-1.37129
-1.49936
-1.56502
-1.5857
-1.58858
-1.51495
-1.60116
-1.50909
-1.49016
-1.43471
-1.28932
-1.17081
-1.01705
-0.862815
-0.702562
-0.21141
-0.304667
-0.374029
-0.494374
-0.393119
-0.460886
-0.505811
-0.540329
-0.596876
-0.548214
-0.571652
-0.485338
-0.558709
-0.472174
-0.419421
-0.442356
-0.369113
-0.321107
-0.261169
-0.248676
-3.14321
-3.90712
-4.80241
-5.64383
-6.33316
-6.85839
-7.26704
-7.65601
-7.86767
-7.94112
-7.90525
-7.83532
-7.6158
-7.32384
-6.84848
-6.34893
-5.63311
-4.826
-3.92348
-3.16918
-2.68596
-3.32566
-4.09412
-4.79941
-5.3012
-5.87359
-6.25538
-6.51808
-6.68045
-6.83175
-6.7993
-6.66205
-6.51799
-6.21852
-5.84311
-5.38399
-4.77034
-4.03006
-3.32628
-2.60763
-2.14389
-2.775
-3.36953
-3.98952
-4.39041
-4.84618
-5.2189
-5.47266
-5.59901
-5.65874
-5.60616
-5.57488
-5.40792
-5.16817
-4.88744
-4.42304
-3.96681
-3.36966
-2.71505
-2.13183
-1.77782
-2.23557
-2.71628
-3.19703
-3.56914
-3.94708
-4.20166
-4.39235
-4.48466
-4.58779
-4.57856
-4.46654
-4.36793
-4.17623
-3.99563
-3.57513
-3.22557
-2.7074
-2.21302
-1.80873
-1.3206
-1.68152
-2.06296
-2.46634
-2.78121
-3.06134
-3.26701
-3.4133
-3.60004
-3.51619
-3.55662
-3.466
-3.37647
-3.23115
-3.05889
-2.81318
-2.3843
-2.0503
-1.71071
-1.33156
-0.963109
-1.22641
-1.51079
-1.75236
-2.03241
-2.16151
-2.32113
-2.38196
-2.44736
-2.48901
-2.49835
-2.46644
-2.44441
-2.35261
-2.22063
-1.94058
-1.72705
-1.44958
-1.17349
-0.988717
-0.556837
-0.730698
-0.899767
-1.05462
-1.18276
-1.32089
-1.38954
-1.4343
-1.52976
-1.58386
-1.52375
-1.46728
-1.41812
-1.36428
-1.22734
-1.16042
-1.06428
-0.830427
-0.76634
-0.516673
-0.202571
-0.185272
-0.241317
-0.26732
-0.385285
-0.434388
-0.472956
-0.513232
-0.535527
-0.514292
-0.519128
-0.467133
-0.494064
-0.498609
-0.414547
-0.406935
-0.356112
-0.235732
-0.275062
-0.218816
-2.14601
-2.92479
-3.89667
-4.8095
-5.51759
-6.0911
-6.53641
-6.88234
-7.14884
-7.22563
-7.18748
-7.13507
-6.97585
-6.61687
-6.14294
-5.53462
-4.87648
-3.99807
-3.02043
-2.25451
-1.74431
-2.44289
-3.21097
-3.97795
-4.64593
-5.18318
-5.56916
-5.84523
-6.03476
-6.1905
-6.11244
-6.098
-5.96945
-5.54872
-5.20076
-4.63095
-4.0836
-3.33732
-2.58544
-1.83956
-1.41235
-2.06319
-2.73024
-3.33347
-3.85327
-4.35175
-4.68469
-4.95628
-5.10839
-5.15844
-5.1577
-5.00594
-4.88446
-4.60944
-4.26169
-3.86544
-3.42113
-2.80104
-2.15155
-1.51938
-1.07899
-1.5957
-2.20323
-2.73065
-3.18474
-3.41981
-3.69939
-3.965
-4.06517
-4.18564
-4.17517
-4.14119
-3.92673
-3.70451
-3.45656
-3.17619
-2.75232
-2.18961
-1.6731
-1.21027
-0.850101
-1.22233
-1.68469
-2.06589
-2.42476
-2.66722
-2.88631
-3.05528
-3.16293
-3.29623
-3.19099
-3.20393
-3.12418
-2.92262
-2.68351
-2.40938
-1.99592
-1.67496
-1.26219
-0.910839
-0.604298
-0.907978
-1.19372
-1.52661
-1.69869
-1.90595
-2.12314
-2.20084
-2.19583
-2.31815
-2.25113
-2.29776
-2.21775
-2.00833
-1.87608
-1.72062
-1.53347
-1.15457
-0.952816
-0.587148
-0.367766
-0.525277
-0.678885
-0.884681
-1.01025
-1.19092
-1.25485
-1.26246
-1.36062
-1.37226
-1.34504
-1.34363
-1.24555
-1.22204
-1.14556
-1.05094
-0.858452
-0.740656
-0.539623
-0.326851
-0.094059
-0.134042
-0.259106
-0.313045
-0.373166
-0.320873
-0.430986
-0.48238
-0.371459
-0.508314
-0.448612
-0.395707
-0.447191
-0.417931
-0.398939
-0.300691
-0.331063
-0.213868
-0.206932
-0.11837
-0.849615
-1.78804
-2.78136
-3.63012
-4.44633
-5.09657
-5.56353
-5.99394
-6.20679
-6.25313
-6.33055
-6.1863
-6.05735
-5.7001
-5.14663
-4.55869
-3.76666
-2.91438
-1.91662
-1.1746
-0.751692
-1.45797
-2.27252
-3.07513
-3.70826
-4.25424
-4.70644
-5.03865
-5.19502
-5.30154
-5.31121
-5.29884
-5.11658
-4.77908
-4.3872
-3.87261
-3.16825
-2.39003
-1.63416
-0.833062
-0.50179
-1.13727
-1.91648
-2.59232
-3.02042
-3.54747
-3.92488
-4.18994
-4.29814
-4.46802
-4.48837
-4.29223
-4.19481
-3.92493
-3.57706
-3.12861
-2.54484
-1.98749
-1.26692
-0.567159
-0.364386
-0.985985
-1.42275
-2.04838
-2.46237
-2.85118
-3.11901
-3.33363
-3.49695
-3.60451
-3.6657
-3.49462
-3.39547
-3.19121
-2.88751
-2.42532
-2.02524
-1.43013
-0.989416
-0.505659
-0.288865
-0.688325
-1.12987
-1.50152
-1.85001
-2.13527
-2.36808
-2.64271
-2.70267
-2.74281
-2.78367
-2.68153
-2.59617
-2.46603
-2.18065
-1.93106
-1.47923
-1.23392
-0.742015
-0.290358
-0.27232
-0.47731
-0.745723
-1.02329
-1.31271
-1.55914
-1.69354
-1.87995
-1.85532
-1.93695
-1.96058
-1.90683
-1.84972
-1.71997
-1.52389
-1.41029
-1.02171
-0.782317
-0.492468
-0.149457
-0.08131
-0.275596
-0.48921
-0.660511
-0.83323
-0.880117
-0.980325
-1.03528
-1.10232
-1.21119
-1.20227
-1.18984
-1.10208
-1.04467
-0.895183
-0.752899
-0.668315
-0.44797
-0.354272
-0.123363
-0.0434585
-0.137959
-0.135916
-0.20927
-0.294021
-0.292894
-0.343227
-0.396893
-0.382139
-0.426147
-0.397895
-0.395285
-0.324857
-0.314713
-0.313836
-0.245175
-0.232013
-0.158549
-0.105118
0.0524186
0.63422
-0.413925
-1.45341
-2.30104
-3.07241
-3.74546
-4.24129
-4.66262
-4.99449
-5.14473
-5.15731
-5.02502
-4.72998
-4.40783
-3.95489
-3.24083
-2.5127
-1.65246
-0.557685
0.289827
0.671665
-0.165193
-1.03969
-1.95066
-2.55265
-3.08234
-3.65316
-3.97094
-4.18693
-4.28043
-4.22943
-4.21977
-3.94286
-3.68747
-3.27151
-2.68658
-2.0931
-1.28367
-0.352203
0.398081
0.555522
0.0133282
-0.769295
-1.49166
-2.0749
-2.64221
-2.94622
-3.28268
-3.42901
-3.58958
-3.59421
-3.46832
-3.31607
-3.06716
-2.64102
-2.19677
-1.63945
-0.997061
-0.244547
0.287419
0.55414
-0.00489994
-0.661424
-1.15091
-1.65956
-1.98967
-2.37149
-2.66128
-2.79342
-2.80083
-2.92176
-2.84682
-2.68237
-2.37549
-2.12508
-1.81225
-1.22164
-0.723372
-0.111759
0.345311
0.464798
0.0315372
-0.42828
-0.87951
-1.25985
-1.54927
-1.82506
-2.01331
-2.12425
-2.17516
-2.18359
-2.15016
-2.02439
-1.80118
-1.6033
-1.29391
-0.933031
-0.492072
-0.0310446
0.270444
0.2807
0.125093
-0.329614
-0.630163
-0.952193
-1.08865
-1.2416
-1.42589
-1.49997
-1.54185
-1.51399
-1.50136
-1.50808
-1.38755
-1.16564
-0.912462
-0.628153
-0.38523
-0.0491522
0.274128
0.14162
0.0536985
-0.165535
-0.34103
-0.548577
-0.677726
-0.794513
-0.746014
-0.849314
-0.905447
-0.945275
-0.870051
-0.823999
-0.734109
-0.641222
-0.543001
-0.426384
-0.255368
-0.0163466
0.186113
0.0129204
0.0124314
-0.0625108
-0.114173
-0.129854
-0.216179
-0.286535
-0.315691
-0.284715
-0.291422
-0.253849
-0.313112
-0.257983
-0.233654
-0.248431
-0.181971
-0.0232695
-0.0677374
0.0342915
0.0508527
2.18429
1.33224
0.33184
-0.648651
-1.56238
-2.20802
-2.83792
-3.23802
-3.5169
-3.69062
-3.67257
-3.58383
-3.33721
-2.95188
-2.43777
-1.8894
-0.979844
-0.051785
0.967918
1.87016
2.09857
1.26456
0.403362
-0.509703
-1.16047
-1.9203
-2.30631
-2.61178
-2.92578
-3.10805
-3.02949
-3.02732
-2.78478
-2.411
-2.0035
-1.46469
-0.706605
0.0795717
0.987037
1.74305
1.8815
1.12366
0.396468
-0.315314
-0.938652
-1.42286
-1.84511
-2.17395
-2.35636
-2.46241
-2.57215
-2.4253
-2.25891
-1.94059
-1.62508
-1.12612
-0.5349
0.193777
0.949401
1.59766
1.52818
1.00662
0.364968
-0.210798
-0.70566
-1.11302
-1.47773
-1.70753
-1.87945
-1.97998
-1.95941
-1.95081
-1.78241
-1.50917
-1.20556
-0.92044
-0.436794
0.239523
0.852757
1.34119
1.27049
0.762869
0.323436
-0.0987957
-0.564463
-0.884776
-1.09911
-1.28384
-1.38248
-1.57929
-1.55284
-1.48689
-1.31057
-1.23467
-0.936103
-0.660667
-0.220634
0.209989
0.699153
1.05024
0.923352
0.633706
0.323185
-0.0731631
-0.402986
-0.576215
-0.795573
-0.920147
-0.926904
-1.11793
-1.11861
-1.04915
-0.971685
-0.82089
-0.632936
-0.386613
-0.134173
0.179739
0.524744
0.806519
0.593028
0.343366
0.118716
-0.0432477
-0.328854
-0.325011
-0.408094
-0.574863
-0.514671
-0.61933
-0.608436
-0.625258
-0.574099
-0.460703
-0.334598
-0.309496
-0.122515
0.0966286
0.302727
0.47707
0.206657
0.11345
0.0803327
-0.0229538
-0.125578
-0.125973
-0.176484
-0.127066
-0.20754
-0.223743
-0.220507
-0.215551
-0.171174
-0.19308
-0.149795
-0.0562897
0.00634404
0.00686844
0.119079
0.17467
4.09369
3.14079
2.05713
0.999369
0.0977777
-0.559543
-1.27902
-1.55664
-1.97899
-2.05709
-2.14985
-1.96793
-1.7123
-1.30446
-0.774269
-0.109869
0.681306
1.67474
2.67707
3.58459
3.64342
2.81586
1.93417
1.04074
0.281391
-0.335496
-0.870487
-1.24174
-1.51446
-1.59875
-1.72829
-1.56337
-1.31385
-0.988923
-0.51835
0.0806664
0.700775
1.5405
2.41977
3.27486
3.12734
2.51549
1.68271
0.947471
0.297355
-0.156656
-0.637517
-1.00368
-1.215
-1.2629
-1.28801
-1.26357
-1.0651
-0.744576
-0.339075
0.093505
0.698152
1.46864
2.20933
2.83248
2.60316
2.12407
1.46019
0.877129
0.355741
-0.091132
-0.446604
-0.680693
-0.938629
-1.06447
-1.01029
-1.0395
-0.861028
-0.526978
-0.205971
0.136347
0.646128
1.26125
1.91109
2.38008
2.05237
1.62349
1.1576
0.728699
0.284697
-0.0867443
-0.311355
-0.506633
-0.663488
-0.806284
-0.713407
-0.621434
-0.603549
-0.478966
-0.147661
0.131614
0.544759
0.957382
1.51115
1.87185
1.51272
1.26877
0.873053
0.478965
0.203492
-0.12143
-0.176522
-0.350336
-0.456343
-0.520679
-0.509573
-0.470673
-0.405525
-0.274089
-0.0010998
0.151225
0.381955
0.737486
1.07965
1.30168
0.913045
0.738334
0.545984
0.300773
0.0992726
-0.0439266
-0.0518446
-0.198458
-0.214941
-0.327004
-0.282087
-0.310231
-0.262613
-0.0888117
-0.102286
0.0903045
0.271795
0.486333
0.61065
0.836891
0.310102
0.232064
0.226857
0.112475
0.0661859
0.00356158
0.000786074
-0.013742
-0.133051
-0.084443
-0.0603891
-0.0739731
-0.0906865
-0.0575064
-0.0300212
0.112373
0.0634813
0.181716
0.250844
0.297183
5.98225
4.93981
3.85111
2.81381
1.9398
1.14265
0.585942
0.0952431
-0.176727
-0.381703
-0.38986
-0.252462
-0.0242759
0.357723
0.903756
1.60529
2.51481
3.43306
4.5124
5.44944
5.24139
4.44005
3.33136
2.58907
1.74544
1.1061
0.617166
0.243778
-0.0430958
-0.13578
-0.285745
-0.140695
0.101241
0.463738
0.927834
1.44979
2.20861
3.06081
3.96169
4.80033
4.46063
3.76278
2.97188
2.23459
1.55182
1.03816
0.573325
0.296778
-0.00543955
-0.0624257
-0.111549
-0.0560447
0.144815
0.465368
0.802028
1.36903
1.95036
2.6531
3.45997
4.14561
3.75055
3.06978
2.55885
1.91107
1.32242
0.932671
0.514747
0.216166
0.0813402
-0.0608247
-0.107818
-0.0233814
0.0969353
0.363679
0.737304
1.13851
1.57446
2.2871
2.89836
3.46963
2.90424
2.52453
1.98209
1.45324
1.12964
0.64839
0.378697
0.248005
0.132044
0.0299119
-0.0804964
0.0103161
0.145014
0.291311
0.558679
0.964956
1.30456
1.7533
2.25403
2.67162
2.05201
1.7869
1.43307
1.0542
0.783747
0.521579
0.302839
0.178589
0.0376936
0.104787
-0.00513269
-0.0156171
0.190904
0.297633
0.497681
0.637434
1.02976
1.26983
1.6099
1.84067
1.30744
1.11986
0.849508
0.654467
0.489037
0.242019
0.215832
0.0764557
0.0150927
-0.0281397
-0.0559468
-0.00322097
0.0802365
0.171247
0.252715
0.403472
0.57148
0.760492
0.989211
1.12062
0.413434
0.318015
0.269373
0.296816
0.139888
0.116696
0.106297
-0.0483444
0.0617402
0.0256725
0.0128305
0.0322897
-0.0248655
0.0292807
0.108227
0.10321
0.251465
0.276452
0.320724
0.407525
7.52926
6.54206
5.32312
4.2968
3.41398
2.60117
2.00561
1.55631
1.23012
0.980478
0.945922
1.0793
1.38499
1.76206
2.31854
3.01919
3.80329
4.82819
5.91718
6.93146
6.54804
5.64544
4.68799
3.81065
2.97827
2.23095
1.75755
1.34935
1.08622
0.813014
0.906026
0.961855
1.14124
1.54948
2.0384
2.58829
3.3206
4.2109
5.19612
6.00652
5.55598
4.78692
3.92925
3.23516
2.47928
1.97225
1.53381
1.18385
0.995708
0.746898
0.754659
0.872693
1.02571
1.32997
1.77611
2.30105
2.89731
3.60157
4.44806
5.10691
4.53515
3.96983
3.25573
2.60563
2.06173
1.60635
1.25832
0.915508
0.709813
0.661471
0.616325
0.764392
0.855514
1.15553
1.45674
1.87785
2.40859
3.01328
3.62333
4.15416
3.55932
3.06648
2.52116
2.05729
1.58977
1.36493
0.948991
0.837996
0.574677
0.569094
0.510854
0.638556
0.653623
0.896893
1.06312
1.46166
1.87069
2.32773
2.88857
3.23946
2.46498
2.20994
1.84868
1.51401
1.17134
0.927593
0.714796
0.541341
0.420278
0.400319
0.322824
0.411548
0.429131
0.637619
0.827882
1.04091
1.32733
1.70615
2.03265
2.31565
1.5126
1.35016
1.0752
0.906242
0.748487
0.543667
0.48351
0.343353