/*--------------------------------*- C++ -*----------------------------------*\
| =========                 |                                                 |
| \\      /  F ield         | OpenFOAM: The Open Source CFD Toolbox           |
|  \\    /   O peration     | Version:  2212                                  |
|   \\  /    A nd           | Website:  www.openfoam.com                      |
|    \\/     M anipulation  |                                                 |
\*---------------------------------------------------------------------------*/
FoamFile
{
    version     2.0;
    format      ascii;
    arch        "LSB;label=32;scalar=64";
    class       volScalarField;
    location    "0";
    object      relativeErrorField;
}
// * * * * * * * * * * * * * * * * * * * * * * * * * * * * * * * * * * * * * //

dimensions      [0 0 0 1 0 0 0];

internalField   nonuniform List<scalar> 
3200
(
0.0214768
0.0152393
0.00938895
0.00542984
0.00311991
0.00203211
0.00117935
0.00107417
0.00126895
0.00122534
0.00114522
0.000705038
0.000246647
4.87638e-05
0.00034244
0.000400707
0.000872412
0.00339302
0.00796087
0.0133168
0.0185258
0.0133777
0.00830825
0.0050424
0.00304005
0.00195874
0.00128932
0.00125432
0.00110291
0.00104428
0.000963524
0.000657415
0.000393869
5.16675e-05
0.000276113
0.00044677
0.000741884
0.0031167
0.00696654
0.0115
0.0158643
0.0113918
0.00719702
0.00414369
0.00273903
0.00163682
0.00123257
0.000934507
0.000896239
0.000975139
0.00102527
0.000652794
0.000310516
0.000105768
0.000257064
0.000125671
0.000853864
0.0027405
0.00610749
0.00978811
0.0131949
0.00962298
0.00583816
0.00363572
0.00225313
0.00118056
0.0011815
0.000705119
0.00105582
0.00103473
0.000693226
0.000578565
0.00042996
0.000150554
4.0142e-05
9.01275e-05
0.000743043
0.00226397
0.00494048
0.00812445
0.0101874
0.00759088
0.00481721
0.00282213
0.00177996
0.000855192
0.000795314
0.000745473
0.000730447
0.000618944
0.000635901
0.000709985
0.000489299
0.000223188
0.000217653
9.75603e-05
0.000268536
0.00183019
0.00407834
0.00619206
0.00755891
0.00547632
0.00358699
0.00194002
0.00111834
0.000892839
0.000491719
0.000528803
0.000600731
0.000483712
0.000673491
0.000306056
0.000100459
5.5322e-05
1.3423e-05
0.000106351
0.000178563
0.00121219
0.00281292
0.0046364
0.00434907
0.00326174
0.00195623
0.00125609
0.000839988
0.000504736
0.000443054
0.000451132
0.000275436
0.000206381
0.000320405
0.000133715
0.000111966
0.000108556
2.78558e-05
4.74378e-05
1.06818e-05
0.000897124
0.00166808
0.00257043
0.0014998
0.00135911
0.000861478
0.000328359
0.000343628
0.000189571
2.82549e-05
0.000127495
0.000295684
0.000133353
1.74771e-06
0.000179152
0.000297194
3.64439e-05
0.000139399
0.000177828
6.04579e-05
0.000289377
0.000609976
0.000958519
0.0214801
0.015216
0.00982053
0.00583012
0.00366238
0.00270048
0.00229639
0.0022174
0.00243465
0.00239012
0.00238382
0.00186705
0.00163686
0.00104423
0.000257858
0.000574234
0.00131664
0.00385923
0.0080039
0.0132471
0.0187936
0.0133605
0.00853694
0.00544097
0.00341602
0.00258458
0.00190246
0.00189408
0.00197203
0.00205233
0.00204805
0.00192548
0.00131973
0.000782498
0.000396426
0.000283741
0.00115661
0.00334055
0.00723903
0.0115439
0.0160746
0.0114782
0.00730669
0.00451735
0.00301535
0.00217253
0.00191027
0.00182298
0.00160185
0.00195015
0.00174378
0.00171081
0.00127563
0.000627652
0.000396853
0.000256976
0.00113272
0.00281008
0.00605543
0.00969998
0.0131819
0.00957302
0.00628164
0.00381656
0.00210415
0.00192069
0.00157013
0.00130036
0.00152693
0.00161587
0.00154761
0.00146162
0.000778476
0.000572048
0.000403774
0.000109365
0.00103654
0.00250407
0.00525014
0.00834029
0.0102016
0.00781985
0.00486062
0.00290905
0.00197658
0.00144456
0.00102098
0.00142567
0.00139368
0.00133654
0.00126366
0.00108594
0.000800692
0.000723019
0.000380007
0.000149093
0.000909108
0.0016749
0.00403023
0.00632751
0.00747746
0.00535328
0.00363141
0.00216672
0.00131094
0.00117211
0.000981371
0.000886859
0.00110077
0.000830523
0.000735648
0.000645404
0.000548451
0.000183755
0.000325005
0.000182715
0.00027931
0.00153175
0.00311949
0.00456084
0.00454178
0.00342487
0.0021895
0.00107741
0.000887733
0.000750854
0.000391454
0.000482472
0.000706528
0.00052197
0.000565314
0.000658789
0.000351635
0.000299864
3.81627e-05
7.77435e-05
5.20527e-05
0.000860827
0.00177855
0.00256783
0.00147298
0.00107832
0.000729843
0.000130136
0.000486757
0.000100014
0.000313658
7.22981e-05
8.60139e-05
0.000403559
0.000307363
0.000166802
4.7832e-05
8.46812e-05
8.67145e-05
3.38569e-05
0.000126122
0.000345218
0.000636523
0.000833008
0.0216567
0.0155374
0.0103783
0.00667265
0.00485578
0.00371297
0.00360064
0.00378411
0.00407104
0.00429763
0.00415904
0.00373262
0.00325461
0.0025553
0.00174068
0.00151541
0.00213197
0.00424404
0.0086299
0.0139127
0.0190572
0.0139084
0.00923265
0.00600756
0.00405295
0.00307244
0.0032088
0.0033112
0.00338195
0.00368378
0.00396983
0.00373258
0.00290258
0.0019238
0.00175624
0.00145278
0.00193071
0.004096
0.00727294
0.0118817
0.0159962
0.011839
0.00800913
0.00514908
0.00363201
0.00289045
0.00282173
0.00296513
0.00292651
0.00326107
0.00336355
0.00316266
0.00260765
0.00196579
0.00152187
0.00105793
0.00148437
0.00352219
0.00632955
0.0101623
0.0134488
0.00987007
0.00640336
0.00423796
0.00309293
0.00236603
0.0021852
0.00248677
0.00256139
0.00270216
0.0027097
0.00260721
0.00209273
0.00165623
0.00123706
0.00102613
0.00147534
0.00288355
0.00516106
0.00823169
0.0105044
0.00792935
0.00526168
0.00372238
0.0022159
0.00211363
0.00177534
0.00199115
0.00203207
0.00200105
0.0021881
0.00192225
0.0016601
0.00126548
0.00082695
0.000678354
0.00096813
0.0022821
0.00398613
0.00658112
0.00747654
0.00589003
0.0038697
0.0025404
0.00173781
0.0014053
0.00138401
0.0014228
0.00134801
0.00157632
0.00150427
0.00134959
0.00113759
0.000990172
0.000720726
0.000396945
0.00107938
0.00181421
0.00314014
0.00487907
0.0046385
0.00349797
0.00240041
0.00148479
0.00111332
0.00104554
0.000733682
0.00105688
0.000938964
0.00107008
0.00101319
0.000768434
0.000775249
0.000406089
0.000388088
0.000255815
0.000387135
0.00113887
0.00219951
0.00284301
0.00164017
0.00144555
0.000816932
0.000490164
0.000305517
0.000289268
1.24886e-05
0.000147618
0.000127138
4.31313e-05
0.000338672
0.0004308
0.000216135
3.13159e-06
8.55234e-05
0.000229754
0.000325821
0.000393596
0.000784781
0.00109084
0.0226079
0.0164914
0.0114954
0.0077972
0.00612638
0.00541283
0.00541715
0.00561799
0.00600555
0.0064226
0.00652571
0.00635624
0.00520309
0.00449915
0.00335699
0.00296714
0.00350499
0.00563582
0.00952129
0.0145763
0.0197034
0.0146334
0.0100973
0.0070655
0.00527415
0.00478594
0.00475267
0.00488858
0.00557409
0.00570098
0.00573948
0.00545784
0.00476377
0.00405786
0.00307241
0.00282838
0.00303429
0.00488982
0.00834609
0.012554
0.0167559
0.0127164
0.00906939
0.00631319
0.00470204
0.00427549
0.00388914
0.0043505
0.00480535
0.00487688
0.00495678
0.00466144
0.00398803
0.00349274
0.0024483
0.00214908
0.00255827
0.00459981
0.00712092
0.0107024
0.0139287
0.0105498
0.007401
0.00499942
0.00379979
0.00332894
0.00315286
0.00360105
0.00376682
0.00400183
0.00409458
0.00389076
0.00336243
0.00283922
0.0021128
0.00197506
0.00228445
0.00380292
0.00591179
0.00885791
0.0109062
0.00831721
0.00596374
0.00401162
0.00322548
0.00279366
0.00260697
0.00276226
0.00305323
0.00313773
0.00326573
0.00307972
0.00257644
0.00208409
0.00184983
0.00150468
0.00170884
0.002548
0.00469186
0.00691769
0.00765228
0.00614942
0.00404532
0.00289781
0.00218358
0.00204828
0.00206342
0.00198036
0.00232062
0.00237661
0.00257951
0.00212203
0.00228071
0.00153014
0.00114353
0.000831036
0.00145979
0.00206244
0.00337347
0.00480235
0.00460863
0.00371622
0.00265831
0.00176202
0.00154635
0.00105253
0.0011442
0.00102416
0.00142082
0.00159133
0.00160993
0.00148593
0.00100625
0.00113869
0.000842268
0.000595671
0.000871309
0.00136625
0.00199807
0.0032461
0.00176487
0.0014138
0.000833698
0.000580001
0.000290674
0.000454342
0.000263128
0.000588493
0.000339977
0.000484602
0.000488717
0.000613491
0.00040754
0.000407777
0.000271185
0.000125165
0.000295989
0.000500488
0.00059328
0.000924219
0.0233465
0.0180294
0.0129427
0.00956771
0.00776179
0.00706923
0.00716261
0.00777228
0.00837775
0.00879792
0.00889599
0.00863411
0.00755093
0.00649962
0.00543808
0.00484145
0.00509831
0.0069118
0.0109663
0.0154109
0.0205214
0.0158835
0.0112146
0.00837045
0.00690117
0.00618876
0.00637863
0.0069316
0.00723767
0.00779862
0.00810539
0.00749376
0.00671987
0.00572378
0.00466697
0.00418594
0.00444389
0.00616767
0.0093852
0.0135378
0.0177601
0.0135691
0.00971678
0.0072897
0.0058561
0.00542716
0.00535804
0.00576499
0.00643516
0.00693057
0.0066374
0.00662489
0.00575188
0.00482616
0.00394416
0.00358911
0.0039432
0.00543197
0.00817322
0.0112774
0.0145868
0.011295
0.0081932
0.00604845
0.00501554
0.0043354
0.00468935
0.00464863
0.00541449
0.00543316
0.00572358
0.00543847
0.00475818
0.00432666
0.00336767
0.00297474
0.00335029
0.00429979
0.00664403
0.00957143
0.0116283
0.00882708
0.0064711
0.00483188
0.00392045
0.00359824
0.00356062
0.00388186
0.00411239
0.00456925
0.00463605
0.0044921
0.00400151
0.00338662
0.0025577
0.00263723
0.00256127
0.00355448
0.00524942
0.00738479
0.00806791
0.0064399
0.00476332
0.0034042
0.00274422
0.00263414
0.0025715
0.00282394
0.00316571
0.00313797
0.0034661
0.00325556
0.00277835
0.0025646
0.00185365
0.00151678
0.00171677
0.00249471
0.00413704
0.00533406
0.00497691
0.00394046
0.0029287
0.00221588
0.00148478
0.00133065
0.00152288
0.0016075
0.0018685
0.00213906
0.00199272
0.00201985
0.00167745
0.00147546
0.00122373
0.00125471
0.00132084
0.00162221
0.00230486
0.00315396
0.00195548
0.00142806
0.000777989
0.000665991
0.000718184
0.000554701
0.000991243
0.000544527
0.000545794
0.000868794
0.000718793
0.00068936
0.000829949
0.000411323
0.000628194
0.000144036
0.000361706
0.000415461
0.000679522
0.00119587
0.0249414
0.019576
0.014549
0.011248
0.00957337
0.00887282
0.00897173
0.00980811
0.0104713
0.0111758
0.0114866
0.0109356
0.00998466
0.00856182
0.00722584
0.0064617
0.00683627
0.00856545
0.0121904
0.0166558
0.0217612
0.0169964
0.0128935
0.0099929
0.00847951
0.00801885
0.00793837
0.00857492
0.00919301
0.00983791
0.0102126
0.00988411
0.00883719
0.00762755
0.00634897
0.00563967
0.00604602
0.0073408
0.0107327
0.0146691
0.018631
0.0146368
0.01128
0.00867436
0.00735635
0.00664304
0.00700057
0.00747904
0.00809973
0.00851766
0.0086225
0.00835744
0.00761737
0.00658838
0.00567002
0.00503158
0.00537333
0.00643382
0.00926567
0.0123316
0.0153756
0.0122853
0.00920712
0.00730642
0.00610035
0.0056096
0.00559433
0.00622823
0.00656647
0.00720719
0.00743083
0.0069827
0.00640547
0.00550547
0.00442884
0.00403264
0.00430534
0.0051784
0.00782636
0.0100957
0.0121169
0.00979831
0.00730426
0.00554551
0.00481608
0.00430697
0.0045655
0.00484631
0.00539276
0.00550811
0.0056866
0.00564345
0.00487904
0.00424655
0.00336613
0.00330577
0.0033194
0.00432741
0.00608328
0.00808304
0.00864787
0.00691624
0.00542712
0.00412772
0.00333375
0.00314725
0.00313214
0.00334357
0.00406706
0.00381555
0.00404174
0.00393276
0.00366135
0.00315206
0.00257751
0.00249816
0.00233591
0.00316292
0.0043529
0.00558608
0.00552959
0.0041878
0.00320742
0.00231694
0.00215385
0.00200706
0.00197388
0.00211388
0.00259086
0.00252476
0.00248305
0.00248417
0.00209402
0.00192086
0.00171303
0.00159272
0.00157683
0.00224887
0.00284531
0.00358044
0.00195034
0.00152535
0.00131534
0.00078435
0.000891802
0.000583374
0.000734024
0.000673962
0.000769659
0.000688044
0.00105181
0.000978922
0.000640492
0.00067446
0.000852273
0.000579355
0.000266884
0.000742151
0.000909615
0.00114806
0.0262297
0.0209709
0.0163582
0.0131317
0.0115335
0.0106913
0.0110336
0.0117105
0.0125046
0.0134647
0.0138141
0.0132977
0.0122469
0.0104543
0.00918065
0.00829219
0.00842717
0.0104121
0.0135477
0.018207
0.0230707
0.0182585
0.0145825
0.0113708
0.0100536
0.00944124
0.00965966
0.0105785
0.0113777
0.0119385
0.0121537
0.0117076
0.010727
0.009354
0.00809025
0.00750214
0.00763963
0.00902536
0.0120011
0.0156931
0.0195458
0.0158901
0.0123211
0.00998992
0.00876008
0.0080719
0.00829404
0.00892481
0.00976213
0.0102909
0.0104102
0.0100756
0.00924205
0.00820225
0.00686215
0.00623706
0.00630565
0.00789085
0.0103751
0.0133448
0.0162506
0.0132775
0.010466
0.00809777
0.00735502
0.00661873
0.00708678
0.00734273
0.0081598
0.00848399
0.00899157
0.0084737
0.00764677
0.00689926
0.00599229
0.00551164
0.00550336
0.00635987
0.00886455
0.0109055
0.0127241
0.0104979
0.00804686
0.00650996
0.00576615
0.00523036
0.00557777
0.00577135
0.00608242
0.00686233
0.00697477
0.00671413
0.00592731
0.00528626
0.0045776
0.00410831
0.00429702
0.00513419
0.00659787
0.00848024
0.00925829
0.00767646
0.0059448
0.00494179
0.00407983
0.00397277
0.00401534
0.00423747
0.00469968
0.00500769
0.0050444
0.0049085
0.00449215
0.00408686
0.00358101
0.00325129
0.00331768
0.00385498
0.00471294
0.00632303
0.0056019
0.00476468
0.00324791
0.00294896
0.00259929
0.00233696
0.00252554
0.00251011
0.00297251
0.00299911
0.00327958
0.00270708
0.00274586
0.00253693
0.00205413
0.00180442
0.00208011
0.00237574
0.00300766
0.00395264
0.00197537
0.00153013
0.00126828
0.000894499
0.000855131
0.000878479
0.000923566
0.000961937
0.000835076
0.000971577
0.000914557
0.00109213
0.00112966
0.000630944
0.000661404
0.000714368
0.000493578
0.000757954
0.000850161
0.00106781
0.0276028
0.0224357
0.017876
0.0146568
0.0131582
0.0124947
0.0125023
0.0135808
0.0143165
0.0155238
0.0158195
0.0154354
0.0142293
0.0125893
0.0107916
0.0101211
0.0102757
0.0118926
0.0150745
0.0190048
0.0238579
0.0198761
0.0157825
0.0130717
0.0116397
0.0109969
0.0111557
0.0118148
0.0129596
0.0136444
0.013983
0.0135435
0.0126469
0.0109402
0.00974472
0.00894505
0.00915629
0.0104978
0.0129261
0.0166276
0.0207538
0.0170572
0.0134182
0.0110876
0.00988248
0.0094259
0.00957071
0.0102586
0.0110051
0.0117765
0.0119913
0.0114252
0.0108125
0.00941583
0.00848386
0.00762096
0.00783844
0.00912507
0.0112344
0.0141289
0.0170905
0.0140141
0.0113301
0.00926589
0.00800961
0.00770021
0.00810389
0.00850079
0.0093311
0.00982736
0.0100011
0.00973916
0.00890191
0.00790018
0.0070225
0.00604286
0.00667052
0.00722611
0.00923482
0.0116382
0.0134806
0.0113289
0.00881222
0.00726594
0.00663024
0.00619217
0.0063065
0.00687038
0.00709432
0.00779077
0.00803703
0.00765299
0.00681627
0.00606428
0.00548445
0.0050847
0.00487903
0.00599806
0.00750199
0.00920201
0.00972603
0.00819299
0.00652709
0.00540835
0.00480747
0.00456067
0.00440562
0.00465449
0.00528922
0.00576491
0.00583508
0.00568082
0.00518968
0.00434099
0.00399103
0.00380289
0.00372095
0.00440703
0.00522139
0.00657266
0.00601377
0.00513118
0.00411647
0.0031272
0.00290394
0.00253648
0.00258982
0.00309338
0.00341393
0.00362277
0.00333919
0.00353328
0.00285108
0.00285001
0.00241527
0.0023141
0.00236229
0.00267335
0.00354362
0.00395596
0.00218636
0.00163001
0.0017499
0.000998375
0.0010837
0.00113237
0.0010081
0.000928586
0.00127722
0.00115908
0.00128784
0.00108642
0.00115503
0.000825623
0.00108578
0.000781238
0.00077762
0.000814077
0.0011993
0.00141051
0.0286218
0.0239092
0.0196142
0.0163538
0.0146748
0.0135715
0.0138788
0.0147855
0.016207
0.0170146
0.0173573
0.0168443
0.0155917
0.0140764
0.0126716
0.0115641
0.0116611
0.0131297
0.0161675
0.0201156
0.0252387
0.0209101
0.0168654
0.0144764
0.0128306
0.012445
0.0125109
0.0131515
0.0139936
0.0150371
0.0153112
0.0149719
0.0139025
0.0124679
0.0109039
0.0101957
0.0102151
0.0113934
0.0139627
0.017294
0.0215142
0.0180284
0.0146229
0.012685
0.0110381
0.0106098
0.0108859
0.011324
0.0121261
0.0128201
0.0131723
0.0128314
0.0115906
0.0106048
0.00930746
0.0088384
0.00892535
0.0099277
0.0120843
0.0147476
0.0176626
0.0148401
0.0123128
0.0104779
0.00914837
0.00888698
0.00897137
0.00948657
0.0100357
0.0105782
0.0109484
0.0109451
0.00957597
0.00879116
0.00772706
0.00755073
0.00745175
0.00840068
0.009938
0.0121195
0.0139223
0.0118048
0.00966502
0.00824003
0.00746146
0.00701642
0.00724231
0.00755461
0.00793444
0.00858699
0.00868992
0.00859264
0.00805294
0.00690804
0.00626003
0.00557874
0.00587662
0.00647456
0.00794138
0.00974604
0.0102485
0.00867029
0.00705564
0.00582866
0.00553223
0.00504945
0.00537352
0.00512121
0.00584527
0.00617067
0.00632762
0.00611683
0.00575677
0.00535161
0.00452155
0.00399218
0.00414503
0.00459497
0.00600825
0.00722672
0.00628837
0.00499545
0.004245
0.00357092
0.00313825
0.00304418
0.00306035
0.00359585
0.00356288
0.00374886
0.0040638
0.00418286
0.00363186
0.00279233
0.00263557
0.00243486
0.00259396
0.00281633
0.00370394
0.00434857
0.00211683
0.00188617
0.00143021
0.00107799
0.00118059
0.00107429
0.00107544
0.00108699
0.00144011
0.00120486
0.00138411
0.00105802
0.00105058
0.000856689
0.000827188
0.00087526
0.000898673
0.00102263
0.00114235
0.00127114
0.0293145
0.0248933
0.0204656
0.0174331
0.0156704
0.0150756
0.0150378
0.0159648
0.0167842
0.0179087
0.0183136
0.0176715
0.0166868
0.0148239
0.0135088
0.0124537
0.012648
0.0139473
0.0169296
0.0206227
0.0260831
0.0219588
0.0183403
0.015579
0.013754
0.0132525
0.0137132
0.0143456
0.0148559
0.0158119
0.0162174
0.0156844
0.0146052
0.0130033
0.011755
0.0110139
0.0111147
0.0124906
0.0148831
0.0179518
0.0220865
0.0186948
0.0156507
0.013144
0.0119149
0.011338
0.0114491
0.0119927
0.012993
0.0136542
0.0138763
0.0136356
0.0125092
0.0116124
0.010248
0.0093654
0.00968739
0.0106798
0.0127668
0.0151726
0.0183932
0.0157871
0.0130346
0.0109575
0.00986428
0.00938388
0.00960774
0.0101553
0.0107684
0.0112734
0.0113351
0.0109958
0.0106098
0.00939865
0.00850812
0.00759771
0.00787713
0.00877241
0.0108092
0.0126743
0.0146591
0.012502
0.0103726
0.00867996
0.00789359
0.00733951
0.00750215
0.00802355
0.00853239
0.00887951
0.00930752
0.00894053
0.00825266
0.00744444
0.00662914
0.00641199
0.00615919
0.00728705
0.00828752
0.00997554
0.0104974
0.00916569
0.00754026
0.00647888
0.00593825
0.00545689
0.00535692
0.00595503
0.00652876
0.00647207
0.00680611
0.00642039
0.00621601
0.00520048
0.00461299
0.00462616
0.00478826
0.0049197
0.0061514
0.00742981
0.00621678
0.00543105
0.0046427
0.0039923
0.00345602
0.00363898
0.00326367
0.00358522
0.00376032
0.00391418
0.00417719
0.00387792
0.00369577
0.00338371
0.0030506
0.00306005
0.00275481
0.00327868
0.00397715
0.00439281
0.00220838
0.00173711
0.00160989
0.00126303
0.00120352
0.000980689
0.0013069
0.00129122
0.000966735
0.00103395
0.00139447
0.00141214
0.00129805
0.0010753
0.00103339
0.00107745
0.000775464
0.00121033
0.00118431
0.00138194
0.0298818
0.025495
0.0214434
0.0185191
0.0163117
0.0158063
0.015864
0.0164784
0.0172586
0.0181934
0.0186491
0.0180582
0.0169783
0.015284
0.0140227
0.0131048
0.0133569
0.0145848
0.01721
0.0208159
0.0262995
0.0225001
0.018883
0.0161587
0.0144792
0.0137018
0.013889
0.0145063
0.0153026
0.0161264
0.0164919
0.0158108
0.0148283
0.0134846
0.0124524
0.0112126
0.0114983
0.0129101
0.0150511
0.0180592
0.0223918
0.0193639
0.016299
0.0139347
0.0125088
0.0118715
0.0120932
0.0124701
0.0131481
0.0137904
0.0141574
0.0138193
0.0130265
0.0115032
0.0103664
0.00993008
0.00993105
0.0108241
0.0130603
0.0152401
0.0184547
0.015961
0.0134194
0.0116843
0.0104649
0.0100878
0.0101239
0.010227
0.0111708
0.0115051
0.0116574
0.0114771
0.0107286
0.00957872
0.00865049
0.00816971
0.00836557
0.00922414
0.0110024
0.0128807
0.014659
0.0127468
0.0106262
0.00926097
0.00828319
0.00771898
0.00804899
0.00831622
0.00871691
0.0092056
0.0091843
0.00918518
0.00828945
0.00779585
0.00679173
0.00663388
0.00664472
0.00724734
0.00859443
0.0100895
0.0107105
0.0092593
0.00787006
0.00693901
0.00599874
0.00585029
0.00579124
0.00596194
0.00659773
0.00669375
0.00675988
0.00684671
0.00614088
0.00571531
0.00491006
0.00487167
0.00476556
0.00533648
0.00619657
0.00760461
0.00644214
0.00555906
0.00486814
0.004413
0.00360867
0.00330991
0.00358648
0.00382343
0.00385821
0.00417772
0.00425329
0.00403109
0.00389161
0.00341674
0.00300557
0.00278002
0.0030358
0.00321573
0.00399089
0.004458
0.00214145
0.001963
0.00140187
0.00140591
0.00140198
0.00120633
0.0010404
0.0012474
0.00106961
0.00134928
0.00154548
0.00127128
0.00128055
0.00107903
0.000985418
0.00102942
0.00108552
0.00109732
0.00125201
0.0011893
0.0301438
0.0257812
0.0217753
0.0188857
0.0168805
0.015996
0.0159336
0.0166209
0.0171083
0.017943
0.018282
0.0177179
0.0163823
0.0151056
0.0138245
0.0129628
0.0132118
0.0146905
0.0173592
0.0203994
0.0263214
0.0226815
0.0191716
0.0166121
0.0149317
0.0141909
0.0142088
0.014256
0.0151047
0.0159729
0.0160401
0.0154523
0.0147739
0.0132782
0.0121573
0.0114643
0.0117953
0.0130689
0.0152128
0.0179582
0.0224928
0.0194663
0.0164697
0.0140839
0.0128087
0.0121657
0.0119748
0.0124918
0.0130491
0.0136438
0.0139575
0.0133499
0.0125328
0.011533
0.0105825
0.0100906
0.0101032
0.011053
0.0130239
0.015103
0.018862
0.0161925
0.0136685
0.0119801
0.0106522
0.0102878
0.0100806
0.0105739
0.0109392
0.011385
0.0115649
0.0112538
0.0106518
0.00937573
0.00882997
0.00812277
0.00833625
0.0090418
0.0110441
0.0127624
0.0149049
0.0129202
0.0108111
0.00951127
0.00850087
0.00800577
0.00797769
0.00813982
0.00870966
0.0089373
0.00913084
0.00868033
0.00819933
0.00753766
0.00698321
0.0063114
0.00681093
0.00726342
0.00869056
0.0101866
0.010958
0.0093841
0.00800551
0.00677905
0.00610206
0.00589813
0.0057906
0.00603098
0.00621367
0.00656911
0.00664789
0.00642244
0.00619525
0.00545845
0.00498673
0.00480428
0.00483181
0.005527
0.00624598
0.00733134
0.00674272
0.00574427
0.00510554
0.00425315
0.00394728
0.00354872
0.00355874
0.00359361
0.00384787
0.00398298
0.00417813
0.00415096
0.00369001
0.0032903
0.00300753
0.00285406
0.00310055
0.00337676
0.00392307
0.00425193
0.00225868
0.00174051
0.00156836
0.00137952
0.00151472
0.00126832
0.00125843
0.00135724
0.00153285
0.00147318
0.00131897
0.00127495
0.00130919
0.00136908
0.000984035
0.000904156
0.000588032
0.00125057
0.00136987
0.00150383
0.0299289
0.0257924
0.0217559
0.018717
0.0168079
0.0159222
0.015565
0.0159608
0.0164399
0.0170432
0.0173766
0.0166763
0.0156766
0.0144579
0.0132829
0.0126465
0.0129408
0.014155
0.0167932
0.0196847
0.0260741
0.0224645
0.0196194
0.0166973
0.0148652
0.0139558
0.0138324
0.014058
0.0146586
0.0149864
0.0150872
0.0147571
0.0136297
0.0131191
0.0116232
0.0111327
0.0113898
0.0124593
0.0149792
0.0174528
0.0225067
0.019228
0.0164105
0.0141525
0.0127577
0.0119885
0.0117941
0.0121329
0.0124906
0.0128483
0.0129861
0.0127569
0.0119438
0.0109534
0.0100686
0.00947809
0.00982961
0.0109901
0.0125723
0.0150709
0.0185118
0.0161012
0.0138874
0.012025
0.0105961
0.00991874
0.00969082
0.0100032
0.0103719
0.0108285
0.010757
0.0107144
0.00996873
0.00899002
0.00840946
0.00773066
0.00781378
0.00871533
0.0106412
0.0122984
0.0146291
0.0129032
0.0110968
0.00931523
0.00858764
0.00807267
0.00768406
0.00785417
0.00806349
0.00876765
0.00848681
0.00847687
0.00787713
0.00700171
0.00662583
0.00620189
0.00656184
0.00703997
0.00851438
0.00979996
0.010779
0.0092297
0.00803159
0.00687315
0.0062772
0.00587747
0.00556799
0.00579719
0.00608972
0.00642161
0.00626634
0.0061645
0.00554771
0.00537422
0.00474494
0.00465921
0.00484843
0.00524367
0.00619541
0.00717245
0.0066018
0.00575024
0.00499367
0.00432265
0.00376813
0.00365454
0.00348879
0.00378846
0.00391766
0.00370029
0.00375557
0.00378422
0.00341335
0.00328381
0.00300989
0.00295338
0.00262736
0.00320747
0.00373019
0.00431614
0.00239608
0.00197691
0.00161304
0.00139205
0.00148506
0.00128469
0.00108875
0.00134655
0.00123063
0.00127957
0.00123756
0.00115284
0.001399
0.000999284
0.00110284
0.000934262
0.00104811
0.00121063
0.00105564
0.00147882
0.0289143
0.0252732
0.021356
0.0184095
0.0160094
0.0151397
0.0150001
0.0150488
0.0151667
0.0155461
0.0154699
0.0151832
0.0141631
0.013103
0.0120294
0.0116627
0.0118363
0.0132339
0.0159523
0.0187687
0.0254362
0.022063
0.0189106
0.0161068
0.014358
0.0133483
0.0130983
0.0132769
0.0134357
0.0138072
0.0137666
0.0131398
0.0124367
0.0115316
0.0104477
0.0102251
0.0105794
0.0118995
0.0138758
0.0161565
0.0218114
0.0189251
0.0161956
0.0136594
0.0122208
0.0115125
0.011299
0.0114101
0.0118232
0.0117453
0.0118992
0.0113691
0.0106978
0.00991344
0.00927581
0.00865403
0.00907507
0.00993469
0.0119604
0.0141929
0.0179674
0.0157134
0.0135044
0.0115508
0.0102495
0.00945288
0.00930425
0.00967216
0.00989874
0.0101517
0.00971441
0.00957609
0.00903046
0.00829271
0.0074766
0.00719015
0.00720702
0.00848145
0.0100512
0.0116965
0.0144722
0.0122982
0.0104609
0.00911231
0.00805153
0.00759828
0.00732471
0.00747717
0.00753226
0.0078953
0.00775121
0.00749979
0.00700223
0.00671845
0.00603462
0.00602054
0.00588811
0.00676681
0.00771155
0.00912119
0.0103473
0.00902012
0.00765329
0.00668112
0.00612497
0.00553949
0.005792
0.00557367
0.00564776
0.00557666
0.00577587
0.00546224
0.00517692
0.00480036
0.00434196
0.00433404
0.00425234
0.00504535
0.00549346
0.00674326
0.00651163
0.00570871
0.00482285
0.0040338
0.00362736
0.00339484
0.00309255
0.00337013
0.00319131
0.00345812
0.00353091
0.00355399
0.00305237
0.00275653
0.00289466
0.00220508
0.00249192
0.00314346
0.00374279
0.00388933
0.00233816
0.00182168
0.00158351
0.00159833
0.00153851
0.00126971
0.00110491
0.0011516
0.0010662
0.00110226
0.00144552
0.00114737
0.000990377
0.00097916
0.000904131
0.00105185
0.000799514
0.000904745
0.00115748
0.001321
0.0278802
0.0239483
0.0203052
0.0172808
0.0151368
0.013838
0.0134599
0.0133574
0.0135682
0.0139283
0.0137204
0.0133213
0.0122695
0.0111189
0.0103884
0.0101693
0.0104423
0.0120858
0.014433
0.0173627
0.0242588
0.0212153
0.0177436
0.0152747
0.0133295
0.0124728
0.0116982
0.0118715
0.0117993
0.0120025
0.0120391
0.0116526
0.0107922
0.00982147
0.00930664
0.00882253
0.0090173
0.010569
0.0123832
0.0152253
0.0209477
0.0181587
0.01537
0.0132312
0.0115706
0.0104204
0.0100411
0.00998244
0.0101247
0.0104278
0.0101064
0.00975848
0.00932155
0.0084836
0.00799446
0.0075879
0.0079692
0.0088434
0.010766
0.0129183
0.0173555
0.0150455
0.012877
0.0110178
0.00965804
0.00860294
0.00847198
0.00839008
0.00846648
0.00854602
0.00886861
0.00832617
0.00775366
0.00710593
0.00648814
0.00628893
0.00649283
0.00767284
0.00903681
0.0106881
0.0135628
0.0119178
0.0099158
0.00866983
0.00759012
0.00717164
0.00692755
0.00666504
0.00677605
0.00679269
0.00680518
0.00644573
0.00608119
0.00556308
0.00501243
0.00499868
0.00534795
0.00600775
0.00732607
0.00857248
0.00981387
0.00887285
0.00737631
0.00631772
0.00529593
0.0049142
0.00500515
0.00484115
0.00501167
0.00514916
0.00497022
0.00487427
0.00459424
0.00414287
0.00356255
0.00368844
0.00390511
0.00450985
0.0051619
0.00611363
0.0063981
0.00540506
0.00436261
0.00380026
0.00349031
0.00338533
0.00291471
0.0028849
0.00303272
0.00296447
0.00300199
0.00310424
0.00286705
0.0025335
0.00217284
0.00233598
0.00251173
0.00255856
0.00314072
0.00373702
0.00206768
0.0017286
0.00135183
0.00141472
0.00117252
0.00113516
0.00073404
0.0011223
0.00106527
0.00109373
0.000928532
0.00131511
0.000752145
0.000819258
0.000693243
0.000828024
0.000753492
0.00108468
0.00106133
0.00133771
0.0260891
0.0224303
0.0187932
0.0158624
0.0138492
0.0123678
0.0115568
0.0113566
0.0112887
0.0113546
0.0111716
0.0106066
0.0100771
0.00906925
0.00818446
0.00817508
0.00875809
0.0104467
0.0126225
0.015484
0.0230197
0.019591
0.0166172
0.0138794
0.0121178
0.0107983
0.0101162
0.00998443
0.0100711
0.0100634
0.00989847
0.00936507
0.00885142
0.00789827
0.00746706
0.00705122
0.00761359
0.00894529
0.0108966
0.0135184
0.0198193
0.0170125
0.014121
0.0118346
0.0102505
0.00943397
0.0090133
0.00876107
0.00859242
0.00862012
0.0083223
0.00796117
0.00732978
0.00672291
0.0064136
0.00629875
0.00658291
0.00773006
0.00930032
0.0115496
0.0161908
0.0139442
0.011653
0.00982362
0.00879872
0.00785963
0.00726224
0.00709708
0.00709317
0.00699205
0.00680017
0.00668865
0.00626933
0.00572994
0.00531195
0.00494971
0.00542973
0.00629551
0.00792994
0.00947123
0.0128642
0.0111009
0.00933705
0.00785936
0.00709921
0.00632783
0.00573667
0.00553566
0.00581214
0.00571236
0.00546162
0.00507898
0.00492527
0.0047036
0.00410625
0.00390109
0.00413925
0.00509343
0.00617308
0.00745953
0.00910125
0.00814725
0.00693547
0.00593154
0.0049641
0.00441421
0.00433668
0.00379511
0.00388539
0.00432197
0.00396915
0.00397788
0.00367443
0.0032651
0.00335388
0.00296579
0.00315082
0.00379898
0.0046821
0.00549689
0.00564965
0.00504245
0.0041703
0.00352773
0.0028519
0.00260053
0.00276765
0.00255251
0.00261006
0.00252636
0.00270555
0.00219537
0.00220679
0.00187176
0.00152485
0.00187083
0.00176689
0.00237376
0.00285739
0.00345526
0.00195153
0.00162805
0.00145445
0.00137856
0.000991638
0.000859517
0.000861172
0.000919318
0.000809591
0.000683179
0.000990014
0.000881359
0.000553721
0.000478593
0.000448261
0.000594059
0.000603407
0.000710192
0.000973981
0.000922171
0.0240808
0.0206474
0.0170032
0.0141019
0.0118162
0.0101927
0.00945238
0.00902361
0.00869317
0.00869957
0.00821264
0.00789881
0.00701604
0.00634805
0.005809
0.00581842
0.00641416
0.00822786
0.0103349
0.0132694
0.021286
0.0179633
0.0148286
0.0121807
0.0101401
0.00904437
0.00835051
0.00791023
0.00773285
0.00748081
0.00743593
0.00693802
0.00623111
0.0055413
0.00520602
0.00508406
0.00562582
0.0071146
0.00916533
0.01159
0.0180836
0.015563
0.0130062
0.0105981
0.00900426
0.00764632
0.00703638
0.00658245
0.00673088
0.00645543
0.00640378
0.00587213
0.00515477
0.00476715
0.0044089
0.00424674
0.00484149
0.00616594
0.00794553
0.00963869
0.0150854
0.0128379
0.0106174
0.00867364
0.00720995
0.0065942
0.00572757
0.00560961
0.00554643
0.00534327
0.00501992
0.00487411
0.00450667
0.00405727
0.00344021
0.00362052
0.00402421
0.00501561
0.00649242
0.00798617
0.0121462
0.0103826
0.00833033
0.0069063
0.00597656
0.00491022
0.00450357
0.00435249
0.00442864
0.00408188
0.00392385
0.00381208
0.00331172
0.00289857
0.00278995
0.00280624
0.00313694
0.00402123
0.0053015
0.00636264
0.00860647
0.00757433
0.00617406
0.00524689
0.00417439
0.00359317
0.0034065
0.00323668
0.00325866
0.00306016
0.00328559
0.00270023
0.00224784
0.0022337
0.0020659
0.00213757
0.00206608
0.00297214
0.00375393
0.00476432
0.0052757
0.00466793
0.00378486
0.00326091
0.0027942
0.00224077
0.00192004
0.00205954
0.00183995
0.00179169
0.00191428
0.00193747
0.00133609
0.00131012
0.00131705
0.00126773
0.00146221
0.00182622
0.00243155
0.00272622
0.00176727
0.00137711
0.00102445
0.00120353
0.00117882
0.000809496
0.000642633
0.00077167
0.000725749
0.000688075