/*--------------------------------*- C++ -*----------------------------------*\
| =========                 |                                                 |
| \\      /  F ield         | OpenFOAM: The Open Source CFD Toolbox           |
|  \\    /   O peration     | Version:  2212                                  |
|   \\  /    A nd           | Website:  www.openfoam.com                      |
|    \\/     M anipulation  |                                                 |
\*---------------------------------------------------------------------------*/
FoamFile
{
    version     2.0;
    format      ascii;
    arch        "LSB;label=32;scalar=64";
    class       volScalarField;
    location    "./ITHACAoutput/true/8.4";
    object      error;
}
// * * * * * * * * * * * * * * * * * * * * * * * * * * * * * * * * * * * * * //

dimensions      [0 0 0 1 0 0 0];

internalField   nonuniform List<scalar> 
3200
(
-4.94684
-2.86349
-1.00698
0.240162
1.02099
1.13847
1.35962
1.29249
1.18913
1.15186
1.11182
1.01857
1.21238
1.18942
1.24557
1.04189
0.64304
-0.326486
-1.91205
-3.67082
-3.97422
-2.22647
-0.635486
0.471539
0.938616
1.27014
1.35849
1.27992
1.21543
1.12695
0.989614
0.998996
0.966018
1.00613
0.957388
0.878675
0.497298
-0.402079
-1.64107
-3.24736
-3.15784
-1.65419
-0.397904
0.487164
0.99243
1.16456
1.24347
1.18494
1.08085
0.964574
0.873285
0.942696
0.856151
0.877234
0.848132
0.747028
0.356631
-0.404008
-1.43691
-2.83039
-2.43635
-1.40608
-0.176392
0.504758
0.895773
1.0802
1.08442
0.990402
0.98987
0.90696
0.737794
0.708019
0.705671
0.705558
0.717704
0.5489
0.263064
-0.331359
-1.16558
-2.21259
-1.77317
-0.961143
-0.111941
0.456163
0.69106
0.882095
0.894876
0.790286
0.798323
0.658011
0.56668
0.559938
0.610655
0.627969
0.537294
0.426602
0.182402
-0.293177
-0.989329
-1.76683
-1.3119
-0.70706
-0.0331785
0.332524
0.540864
0.607162
0.660304
0.58111
0.491294
0.502738
0.453991
0.427925
0.365858
0.457016
0.295669
0.393726
0.123755
-0.185016
-0.750228
-1.28517
-0.715847
-0.448634
-0.0920415
0.188941
0.299565
0.413756
0.412438
0.333371
0.335222
0.233443
0.209744
0.329739
0.277019
0.310452
0.274004
0.138422
0.00849519
-0.0325026
-0.413256
-0.74738
-0.235121
-0.0999738
0.0360381
0.10116
0.186035
0.193928
0.166835
0.11304
0.0261238
0.0984931
0.138036
0.0561056
0.0897341
0.0443791
0.064627
0.0727489
-0.00801778
-0.0369243
-0.117122
-0.309021
-4.96249
-2.84575
-1.07248
0.0854331
0.810138
1.0648
1.11422
1.06403
0.853051
0.672111
0.620925
0.531543
0.684833
0.900949
0.897685
0.805225
0.461748
-0.323666
-1.88936
-3.77432
-3.92734
-2.24614
-0.773985
0.355681
0.859109
1.05525
1.04266
1.02873
0.81974
0.703547
0.568369
0.541079
0.544963
0.688396
0.762331
0.816538
0.363681
-0.370795
-1.72349
-3.2355
-3.23806
-1.72527
-0.510583
0.363902
0.831115
1.08135
1.02695
0.942206
0.782121
0.634558
0.585377
0.558411
0.500695
0.543023
0.657699
0.525361
0.30065
-0.340318
-1.58008
-2.77508
-2.48055
-1.35658
-0.262738
0.367333
0.808417
0.915536
0.862157
0.911318
0.744313
0.621119
0.455442
0.478345
0.398499
0.563993
0.577282
0.447171
0.220633
-0.362712
-1.21604
-2.23194
-1.81536
-0.905969
-0.16264
0.337787
0.673111
0.712232
0.770917
0.706564
0.586042
0.380391
0.433368
0.34812
0.369318
0.457814
0.452327
0.401357
0.171715
-0.354296
-0.976011
-1.78446
-1.3145
-0.688953
-0.116286
0.337076
0.539503
0.565346
0.596559
0.519832
0.412205
0.305557
0.317844
0.226859
0.30579
0.278629
0.237141
0.288754
0.172224
-0.222727
-0.741866
-1.28428
-0.662623
-0.376013
-0.099478
0.186425
0.367917
0.339431
0.292398
0.317367
0.300223
0.264695
0.268956
0.185392
0.226626
0.153606
0.180924
0.0962952
0.0514444
-0.111049
-0.494243
-0.750064
-0.280849
-0.21153
-0.090211
0.0126162
0.168069
0.115464
0.0802778
0.110308
0.0946971
0.149105
0.105773
0.113242
0.0562991
0.115971
0.0370155
0.0286104
-0.035903
-0.0345678
-0.112198
-0.283995
-4.99592
-3.07012
-1.28381
-0.100707
0.431805
0.633281
0.616577
0.479243
0.22765
0.0136159
-0.0889847
-0.149372
0.00115349
0.274865
0.38692
0.451926
0.182233
-0.693144
-2.04303
-3.91867
-4.06904
-2.41924
-0.86629
0.0482486
0.574
0.767171
0.773123
0.568169
0.29334
0.0960126
-0.00979263
0.0161721
-0.00127614
0.331553
0.383458
0.420923
0.132325
-0.637338
-1.85384
-3.31361
-3.27111
-1.86371
-0.611414
0.25755
0.657621
0.7473
0.676077
0.521897
0.449379
0.213118
0.0258562
-0.0424355
0.0557792
0.215967
0.355996
0.285469
0.0482999
-0.475451
-1.68258
-2.85322
-2.60594
-1.44766
-0.37071
0.25962
0.673728
0.744431
0.724633
0.58628
0.403731
0.20225
0.159968
0.0761062
0.124199
0.21512
0.241264
0.258546
0.038923
-0.527568
-1.37477
-2.42374
-1.82979
-1.12407
-0.256352
0.212427
0.520769
0.630593
0.556118
0.467241
0.3399
0.265911
0.180772
0.113146
0.116472
0.196871
0.294315
0.174171
-0.0273985
-0.418776
-1.1474
-1.8686
-1.32226
-0.750326
-0.158725
0.211817
0.374081
0.428794
0.487972
0.366066
0.212922
0.168115
0.10027
0.0741099
0.0894369
0.134628
0.140027
0.111187
-0.0670855
-0.371053
-0.912664
-1.31603
-0.808497
-0.326138
-0.0494524
0.144924
0.218082
0.295828
0.240815
0.222681
0.108185
0.0585491
0.0332196
0.064592
-0.0271664
0.0693994
0.0924012
0.0497877
0.0109049
-0.162312
-0.452517
-0.793439
-0.256238
-0.2098
0.0202378
0.0624948
0.0956497
0.130192
-0.00818827
0.0991298
0.0524389
0.0798585
-0.0302487
0.0241707
0.0328204
0.0416822
0.12299
-0.0350161
-0.00590872
-0.0164951
-0.140916
-0.216339
-5.29346
-3.27961
-1.66078
-0.554743
0.0844493
0.155559
0.0500897
-0.162409
-0.437654
-0.702092
-0.938511
-0.915938
-0.705826
-0.393843
-0.0971002
-0.0420642
-0.272407
-1.02581
-2.36751
-4.18721
-4.23563
-2.58362
-1.16732
-0.232426
0.206273
0.277213
0.20002
0.0414832
-0.256713
-0.554442
-0.685846
-0.698087
-0.607982
-0.344145
-0.116652
-0.0138799
-0.27871
-0.990277
-2.15289
-3.52545
-3.36774
-2.05106
-0.837914
-0.0505243
0.438289
0.490996
0.313024
0.16973
-0.16503
-0.331427
-0.418809
-0.510442
-0.438421
-0.22498
-0.117734
-0.0642968
-0.228138
-0.809433
-1.87081
-3.04632
-2.63975
-1.55827
-0.562765
-0.0477677
0.3259
0.426319
0.34793
0.171062
-0.0776874
-0.150443
-0.376985
-0.375762
-0.246298
-0.122121
-0.0933958
-0.0464144
-0.20965
-0.761458
-1.59189
-2.41175
-1.92155
-1.12477
-0.405376
0.0598767
0.295354
0.34905
0.322176
0.186266
-0.0294097
-0.208259
-0.206307
-0.212813
-0.160514
-0.115418
-0.0902779
-0.0730727
-0.167807
-0.569655
-1.22203
-1.94775
-1.294
-0.776889
-0.224242
-0.0307579
0.291581
0.341991
0.226138
0.158874
0.0657951
-0.083563
-0.170006
-0.233102
-0.133208
-0.0746312
-0.0467519
0.102797
-0.0958883
-0.446505
-0.872544
-1.42679
-0.775039
-0.527511
-0.111152
-0.026145
0.161344
0.22572
0.196573
0.113382
0.00834904
-0.0413312
0.0198869
-0.127885
-0.113477
-0.0773679
-0.0120113
0.0217691
-0.0870003
-0.266775
-0.509031
-0.780098
-0.230076
-0.198953
-0.0441716
-0.0383998
0.084187
0.0381992
0.110137
0.0610501
-0.00637722
0.0215178
-0.132567
0.00181206
-0.0236849
-0.0674301
0.03476
0.0825195
0.0164456
-0.169057
-0.153116
-0.271671
-5.58291
-3.70861
-1.99695
-0.948614
-0.477359
-0.362726
-0.60107
-0.921994
-1.31552
-1.64769
-1.70584
-1.75816
-1.48079
-1.14754
-0.756876
-0.596808
-0.728882
-1.47062
-2.81532
-4.42881
-4.61541
-2.91629
-1.5569
-0.62005
-0.198753
-0.107809
-0.337535
-0.597152
-0.927513
-1.23921
-1.41216
-1.45316
-1.18656
-0.903152
-0.627126
-0.524788
-0.720017
-1.36653
-2.49545
-3.80764
-3.63387
-2.37502
-1.13514
-0.434475
-0.0188121
0.0132955
-0.138108
-0.419358
-0.672453
-0.85159
-1.13962
-1.08865
-0.940868
-0.695574
-0.432293
-0.436992
-0.587235
-1.13784
-2.07604
-3.25516
-2.79768
-1.80944
-0.803304
-0.156021
0.0812801
0.0992188
0.0456117
-0.178251
-0.523657
-0.678555
-0.795881
-0.736551
-0.818927
-0.554651
-0.401935
-0.338138
-0.57812
-0.907446
-1.88503
-2.6774
-2.12965
-1.41893
-0.602257
-0.0685392
0.0758703
0.189499
0.0006918
-0.138751
-0.341922
-0.510673
-0.665332
-0.581932
-0.611741
-0.5182
-0.344574
-0.239134
-0.461512
-0.742995
-1.34891
-2.04964
-1.43272
-0.964894
-0.39388
-0.0941938
0.0925519
0.119553
0.0112205
-0.0383441
-0.185694
-0.356832
-0.369805
-0.431488
-0.485706
-0.32372
-0.273671
-0.127898
-0.311366
-0.540559
-1.02267
-1.40902
-0.922978
-0.565626
-0.170001
-0.00779637
0.00678171
0.0992985
-0.052204
-0.0906727
-0.0395647
-0.176623
-0.29426
-0.217885
-0.240914
-0.153223
-0.136076
-0.0995613
-0.241463
-0.332852
-0.541254
-0.966189
-0.369609
-0.134886
-0.0749007
0.0200206
-0.00809466
0.0385313
0.0711525
0.0407858
0.0255259
-0.0228291
-0.0582744
-0.12623
-0.0982051
-0.0887616
-0.0354603
-0.00439861
-0.0917546
-0.1597
-0.214495
-0.296441
-5.94798
-4.10561
-2.54935
-1.53591
-1.01549
-0.953556
-1.20055
-1.56878
-1.9674
-2.34952
-2.67781
-2.60244
-2.30593
-1.87673
-1.42871
-1.18921
-1.38888
-2.0096
-3.36279
-4.83889
-4.92524
-3.34584
-2.00436
-1.15315
-0.684384
-0.585632
-0.803645
-1.17858
-1.54823
-1.91973
-2.0598
-2.10508
-1.84958
-1.50369
-1.19913
-1.0353
-1.16547
-1.84256
-2.84874
-4.15231
-3.83518
-2.61934
-1.4737
-0.797116
-0.403227
-0.397225
-0.542549
-0.80465
-1.22323
-1.49256
-1.70348
-1.72852
-1.50745
-1.26277
-1.05412
-0.908748
-1.01703
-1.60275
-2.50318
-3.56366
-3.0135
-2.07811
-1.11233
-0.612467
-0.256457
-0.17283
-0.324796
-0.666633
-0.932926
-1.13861
-1.2181
-1.29213
-1.13259
-0.992449
-0.79699
-0.716331
-0.842305
-1.35408
-2.06041
-2.89257
-2.26936
-1.58048
-0.829128
-0.400795
-0.0780843
-0.0820478
-0.302282
-0.51798
-0.626265
-0.866191
-0.945652
-1.06127
-0.952518
-0.732088
-0.626699
-0.628976
-0.611991
-1.05919
-1.61698
-2.3013
-1.55292
-1.087
-0.496916
-0.22446
-0.152244
-0.087719
-0.170281
-0.249612
-0.455278
-0.490076
-0.71493
-0.701925
-0.678194
-0.5301
-0.472785
-0.415777
-0.448129
-0.760825
-1.14878
-1.66152
-0.918853
-0.607301
-0.331882
-0.0624461
-0.0461667
-0.136584
-0.0986541
-0.108179
-0.177109
-0.291758
-0.435466
-0.428793
-0.432691
-0.338665
-0.259161
-0.236087
-0.24996
-0.428862
-0.7034
-0.980127
-0.299728
-0.191785
-0.124494
-0.0193711
-0.00944334
-0.11846
-0.0701717
-0.0344237
-0.162305
-0.131494
-0.199547
-0.120127
-0.147661
-0.0578114
-0.1115
-0.120119
-0.0419684
-0.130589
-0.187617
-0.311642
-6.30261
-4.66408
-3.02979
-2.03089
-1.64336
-1.47945
-1.76149
-2.18008
-2.68583
-3.15198
-3.40671
-3.33801
-2.99323
-2.57431
-2.07723
-1.81486
-1.89719
-2.56004
-3.71292
-5.23353
-5.24768
-3.76297
-2.42533
-1.50953
-1.1935
-1.09911
-1.3306
-1.73308
-2.20879
-2.59709
-2.76836
-2.77226
-2.54643
-2.16372
-1.74652
-1.54014
-1.71155
-2.15028
-3.26312
-4.51101
-4.28
-2.96594
-1.94392
-1.12331
-0.79038
-0.728458
-0.980701
-1.37695
-1.69657
-1.97454
-2.22323
-2.21595
-2.0553
-1.7099
-1.40651
-1.28622
-1.41682
-1.97069
-2.90101
-3.78407
-3.24967
-2.41639
-1.46063
-0.872073
-0.550941
-0.524681
-0.68936
-0.968329
-1.34308
-1.64299
-1.67502
-1.77574
-1.6023
-1.44543
-1.15818
-1.00367
-1.1119
-1.62614
-2.28199
-3.12605
-2.50058
-1.74082
-1.0723
-0.576801
-0.400898
-0.346078
-0.573503
-0.698937
-0.921736
-1.22486
-1.39086
-1.34874
-1.27156
-1.06538
-0.859626
-0.895338
-0.866331
-1.22044
-1.77934
-2.44281
-1.724
-1.15704
-0.733493
-0.44595
-0.297618
-0.196412
-0.359789
-0.471202
-0.622511
-0.867991
-0.929426
-0.927746
-0.823858
-0.774946
-0.687732
-0.607242
-0.6142
-0.962448
-1.31533
-1.65847
-1.00229
-0.647826
-0.381913
-0.27519
-0.170814
-0.0200498
-0.215148
-0.280938
-0.428526
-0.427777
-0.546447
-0.574408
-0.508364
-0.502657
-0.336974
-0.322001
-0.422399
-0.503312
-0.773832
-1.00964
-0.269398
-0.234925
-0.190346
-0.0920056
-0.00870286
-0.0429464
-0.074818
-0.0864928
-0.173396
-0.116496
-0.198061
-0.215701
-0.185746
-0.0854565
-0.152409
-0.114692
-0.0904615
-0.237232
-0.279754
-0.333312
-6.76229
-5.03531
-3.60489
-2.60427
-2.08139
-2.09324
-2.34813
-2.79031
-3.26512
-3.79174
-4.03042
-4.00822
-3.74289
-3.17952
-2.6386
-2.38606
-2.43298
-3.118
-4.1683
-5.58499
-5.52106
-4.09775
-2.78516
-1.97177
-1.61852
-1.58844
-1.80707
-2.16823
-2.68969
-3.07443
-3.3167
-3.25755
-3.03919
-2.60853
-2.21475
-1.98896
-2.13657
-2.63078
-3.61306
-4.78081
-4.42546
-3.32176
-2.22178
-1.56061
-1.1675
-1.19571
-1.33676
-1.77437
-2.15342
-2.55926
-2.7165
-2.69393
-2.52498
-2.09316
-1.87398
-1.61771
-1.83897
-2.16448
-3.08328
-4.05819
-3.43266
-2.59813
-1.69872
-1.12566
-0.79227
-0.88407
-1.08443
-1.34017
-1.68637
-1.9423
-2.12886
-2.09669
-1.97755
-1.71578
-1.51341
-1.42399
-1.52249
-1.83556
-2.56577
-3.28663
-2.63971
-1.96586
-1.25641
-0.847202
-0.648796
-0.605835
-0.742384
-0.884458
-1.26734
-1.46049
-1.65891
-1.63813
-1.51874
-1.31067
-1.15332
-1.03929
-1.14809
-1.4713
-1.99231
-2.55919
-1.79026
-1.36144
-0.913479
-0.578728
-0.40058
-0.444909
-0.447861
-0.61208
-0.885908
-1.02753
-1.21736
-1.16215
-1.10746
-0.9684
-0.796184
-0.751217
-0.799332
-1.12447
-1.39843
-1.86615
-0.990131
-0.790048
-0.488301
-0.332167
-0.282626
-0.248686
-0.292729
-0.400412
-0.503024
-0.601015
-0.709591
-0.750382
-0.651672
-0.542998
-0.513239
-0.439345
-0.529053
-0.590666
-0.883794
-1.1159
-0.278569
-0.209105
-0.13083
-0.0939835
-0.115342
-0.0434109
-0.190078
-0.161729
-0.153245
-0.138715
-0.150375
-0.247369
-0.209909
-0.155924
-0.199764
-0.127521
-0.185571
-0.225752
-0.423194
-0.336202
-7.02084
-5.4347
-4.03295
-3.04853
-2.57064
-2.48775
-2.71813
-3.24831
-3.80633
-4.26098
-4.57112
-4.56364
-4.11596
-3.62541
-3.11784
-2.78404
-2.85456
-3.44188
-4.48206
-5.79122
-5.67333
-4.39713
-3.16421
-2.34433
-2.04223
-1.98197
-2.24168
-2.60226
-2.9324
-3.51704
-3.80197
-3.7311
-3.45997
-3.06394
-2.60413
-2.37301
-2.48281
-3.02416
-3.94293
-5.00929
-4.58812
-3.59954
-2.59771
-1.85142
-1.46776
-1.48651
-1.75142
-2.01312
-2.4576
-2.8585
-3.05039
-3.12646
-2.86972
-2.51604
-2.0525
-1.9489
-2.15683
-2.66346
-3.2953
-4.31268
-3.66032
-2.79844
-1.96127
-1.39902
-1.14179
-1.11252
-1.23113
-1.68845
-1.9311
-2.27536
-2.41451
-2.35133
-2.23898
-1.91995
-1.7095
-1.68256
-1.67664
-1.98843
-2.64633
-3.48589
-2.72626
-2.02648
-1.46471
-1.07207
-0.799659
-0.81315
-0.965852
-1.19039
-1.38031
-1.77863
-1.8735
-1.85346
-1.71141
-1.52666
-1.32268
-1.29049
-1.35692
-1.61352
-2.09307
-2.72429
-1.90441
-1.37769
-1.00277
-0.666093
-0.518198
-0.588039
-0.635354
-0.824145
-1.01323
-1.18335
-1.29348
-1.30069
-1.23516
-1.11344
-0.920773
-0.893277
-0.953723
-1.18271
-1.50573
-1.8774
-1.10165
-0.823603
-0.63643
-0.409737
-0.32177
-0.313879
-0.322611
-0.436736
-0.629878
-0.737824
-0.755504
-0.740496
-0.743872
-0.604825
-0.5342
-0.588776
-0.522564
-0.685216
-0.926454
-1.21308
-0.387328
-0.300078
-0.172727
-0.0959003
-0.0645728
-0.052106
-0.127575
-0.220714
-0.164725
-0.257432
-0.187872
-0.239144
-0.150881
-0.189901
-0.161136
-0.296415
-0.15597
-0.151075
-0.295641
-0.400618
-7.31795
-5.80632
-4.33917
-3.33703
-2.90021
-2.81242
-3.0014
-3.51881
-4.01917
-4.50171
-4.85936
-4.81996
-4.35579
-3.91674
-3.33405
-3.07387
-3.23972
-3.77199
-4.85834
-5.98047
-5.93088
-4.66773
-3.51435
-2.7005
-2.24477
-2.2702
-2.44349
-2.8349
-3.37712
-3.74595
-3.97472
-3.91668
-3.68944
-3.31202
-2.84856
-2.61463
-2.71565
-3.25309
-4.11915
-5.10331
-4.82653
-3.68656
-2.73331
-2.17004
-1.77062
-1.59699
-1.89799
-2.22537
-2.68489
-3.00212
-3.24372
-3.25705
-2.97251
-2.65153
-2.32048
-2.20111
-2.30773
-2.62293
-3.46808
-4.36324
-3.73268
-2.86283
-2.1715
-1.62428
-1.27475
-1.25244
-1.35177
-1.7596
-2.02944
-2.2803
-2.64468
-2.54965
-2.36678
-2.11806
-1.84429
-1.72562
-1.80603
-2.20496
-2.90946
-3.53644
-2.83098
-2.20574
-1.53225
-1.0705
-0.953295
-0.983481
-1.04102
-1.28027
-1.65819
-1.78693
-1.93674
-1.95236
-1.93279
-1.64246
-1.39756
-1.30824
-1.48831
-1.69765
-2.11613
-2.7853
-2.00595
-1.56873
-1.05981
-0.727926
-0.588799
-0.603972
-0.71696
-0.871071
-1.06116
-1.3048
-1.38986
-1.33422
-1.24228
-1.12993
-1.02986
-0.992429
-1.07008
-1.25605
-1.59365
-1.99226
-1.16769
-0.908546
-0.680065
-0.443326
-0.304565
-0.315671
-0.430372
-0.54076
-0.619207
-0.710056
-0.837211
-0.850507
-0.748475
-0.713349
-0.587205
-0.564724
-0.562023
-0.705924
-0.973943
-1.19323
-0.40836
-0.350461
-0.198238
-0.156649
-0.224872
-0.188433
-0.0107638
-0.14678
-0.178434
-0.270247
-0.286003
-0.365609
-0.252981
-0.15949
-0.187484
-0.168945
-0.170421
-0.22071
-0.33018
-0.438949
-7.29935
-5.76693
-4.48328
-3.51795
-3.11566
-2.93844
-3.23347
-3.552
-4.18448
-4.58703
-4.82254
-4.80444
-4.4925
-3.96788
-3.34347
-3.19495
-3.24973
-3.84631
-4.77409
-5.9739
-5.99869
-4.79847
-3.64852
-2.88413
-2.40398
-2.34182
-2.58698
-2.97265
-3.42903
-3.77181
-3.96416
-3.95312
-3.69253
-3.34607
-3.0012
-2.72749
-2.82898
-3.35796
-4.21682
-5.13968
-4.93842
-3.85181
-2.91772
-2.25965
-1.91114
-1.80467
-2.02452
-2.28412
-2.79068
-2.95484
-3.26263
-3.27682
-3.05645
-2.72331
-2.37775
-2.2629
-2.29546
-2.76591
-3.48915
-4.30056
-3.79954
-2.98503
-2.21467
-1.68782
-1.3821
-1.32432
-1.44916
-1.82687
-2.09229
-2.43817
-2.63118
-2.62033
-2.45161
-2.17069
-1.9151
-1.87022
-1.91556
-2.26041
-2.85617
-3.49171
-2.92775
-2.28612
-1.71323
-1.28693
-1.13838
-1.01511
-1.07164
-1.30142
-1.52975
-1.88836
-2.0018
-1.99646
-1.86404
-1.57988
-1.51717
-1.31091
-1.53776
-1.76308
-2.21697
-2.74616
-2.01799
-1.5921
-1.08809
-0.91455
-0.69135
-0.632729
-0.764155
-0.852781
-1.08749
-1.38224
-1.43496
-1.31973
-1.25835
-1.15719
-0.986812
-0.969367
-1.05037
-1.26495
-1.54713
-2.02029
-1.13724
-0.932864
-0.676
-0.477898
-0.434829
-0.2914
-0.444892
-0.500414
-0.645175
-0.73206
-0.862479
-0.798797
-0.783472
-0.702193
-0.616954
-0.586846
-0.612337
-0.69893
-0.954961
-1.23379
-0.465396
-0.27307
-0.236198
-0.121321
-0.141804
-0.0709065
-0.142925
-0.168976
-0.264494
-0.258874
-0.264646
-0.271637
-0.192265
-0.268495
-0.250903
-0.173484
-0.214871
-0.237411
-0.293298
-0.356876
-7.34215
-5.84505
-4.53726
-3.63682
-3.06685
-2.99009
-3.2141
-3.46309
-3.90644
-4.34993
-4.57684
-4.56418
-4.25934
-3.8033
-3.32712
-3.06149
-3.25379
-3.8031
-4.67939
-5.88319
-6.01028
-4.83712
-3.67186
-2.86001
-2.42391
-2.36051
-2.47752
-2.76912
-3.20356
-3.58655
-3.83744
-3.8132
-3.51613
-3.09185
-2.85506
-2.6226
-2.75538
-3.21752
-4.08954
-4.97642
-4.83811
-3.84601
-2.87986
-2.2684
-1.85547
-1.78165
-1.91326
-2.26772
-2.56855
-2.87104
-3.08915
-3.09346
-2.84878
-2.57744
-2.18496
-2.09827
-2.28688
-2.67763
-3.41852
-4.20617
-3.77151
-3.0389
-2.2679
-1.75613
-1.37871
-1.33546
-1.55799
-1.68205
-2.05181
-2.25747
-2.44127
-2.46056
-2.27195
-2.01631
-1.79925
-1.7048
-1.82201
-2.22924
-2.76517
-3.4606
-2.89631
-2.20102
-1.62867
-1.25676
-0.934249
-0.999967
-1.07132
-1.29841
-1.59731
-1.74079
-1.88713
-1.82806
-1.77355
-1.52884
-1.32056
-1.35225
-1.40198
-1.68492
-2.20855
-2.56808
-1.96683
-1.56712
-1.17608
-0.77918
-0.690867
-0.746834
-0.790096
-0.931695
-1.04408
-1.17051
-1.25135
-1.26188
-1.18232
-1.0053
-1.00051
-0.982925
-1.02578
-1.19198
-1.54308
-1.87748
-1.07296
-0.93241
-0.657208
-0.479034
-0.429715
-0.435866
-0.39382
-0.555774
-0.600372
-0.675949
-0.705777
-0.730948
-0.724439
-0.647291
-0.527757
-0.609423
-0.564655
-0.758755
-0.901968
-1.17768
-0.30569
-0.291819
-0.143846
-0.106645
-0.180173
-0.132311
-0.206499
-0.206398
-0.198003
-0.216192
-0.204868
-0.267195
-0.204049
-0.229867
-0.287075
-0.22028
-0.171275
-0.35089
-0.279961
-0.363636
-7.07906
-5.71467
-4.41662
-3.50303
-2.92981
-2.82674
-2.95036
-3.19349
-3.55965
-3.95951
-4.20859
-4.09188
-3.83788
-3.45238
-3.05959
-2.87503
-3.00075
-3.48797
-4.52215
-5.62582
-5.78186
-4.62332
-3.50651
-2.81508
-2.34939
-2.24246
-2.26972
-2.50815
-2.9005
-3.24578
-3.36904
-3.38436
-3.19473
-2.84377
-2.52262
-2.4278
-2.56348
-2.94321
-3.69227
-4.75835
-4.6398
-3.74425
-2.76167
-2.13431
-1.80568
-1.65109
-1.75815
-2.04666
-2.24679
-2.56594
-2.77363
-2.71986
-2.58337
-2.259
-2.08947
-2.0223
-2.13294
-2.49355
-3.31043
-4.02679
-3.65719
-2.87365
-2.20096
-1.72283
-1.27533
-1.16452
-1.31963
-1.48475
-1.69444
-1.93208
-2.18905
-2.10973
-1.98322
-1.84816
-1.6783
-1.62442
-1.67386
-2.06086
-2.60334
-3.21778
-2.71388
-2.15654
-1.6424
-1.14012
-0.954913
-0.945741
-0.923007
-1.12715
-1.262
-1.4926
-1.63891
-1.57267
-1.55167
-1.41568
-1.24044
-1.23594
-1.24302
-1.61964
-2.08947
-2.49739
-1.86801
-1.49269
-1.11327
-0.839401
-0.611045
-0.60219
-0.634181
-0.742106
-0.889902
-0.990549
-1.15847
-1.11961
-1.08869
-1.02039
-0.862332
-0.819423
-0.947052
-1.11914
-1.53027
-1.78665
-1.08013
-0.810265
-0.687019
-0.514566
-0.417968
-0.349091
-0.348576
-0.550565
-0.59961
-0.573067
-0.635278
-0.582255
-0.657618
-0.501485
-0.517114
-0.523992
-0.513206
-0.668686
-0.814038
-1.0066
-0.409151
-0.285078
-0.219946
-0.146357
-0.12196
-0.160759
-0.0982126
-0.0957633
-0.202972
-0.294921
-0.170964
-0.232072
-0.118979
-0.183598
-0.174787
-0.117161
-0.155912
-0.217081
-0.296937
-0.384813
-6.73687
-5.38869
-4.11936
-3.1445
-2.68534
-2.36262
-2.42251
-2.68661
-3.00253
-3.32665
-3.42583
-3.34011
-3.15875
-2.80072
-2.49551
-2.38724
-2.55468
-3.00948
-4.01205
-4.96672
-5.41105
-4.3811
-3.2764
-2.51237
-1.94209
-1.83255
-1.92875
-2.11561
-2.32657
-2.72898
-2.80834
-2.81421
-2.49691
-2.2563
-2.03884
-1.99053
-2.17
-2.59858
-3.4608
-4.27195
-4.43232
-3.40574
-2.64129
-1.9083
-1.56251
-1.29847
-1.39787
-1.60008
-1.8642
-2.12281
-2.27295
-2.18884
-2.06001
-1.87022
-1.70023
-1.58049
-1.71358
-2.15271
-2.86865
-3.69829
-3.42012
-2.66928
-2.0198
-1.46027
-1.10573
-0.983542
-1.01628
-1.20107
-1.48081
-1.60253
-1.7456
-1.7182
-1.59444
-1.49633
-1.32156
-1.27562
-1.31775
-1.77219
-2.2665
-2.9107
-2.53808
-2.06862
-1.50608
-1.07652
-0.79516
-0.755808
-0.798725
-0.801892
-1.01925
-1.1758
-1.31709
-1.27988
-1.27484
-1.07688
-0.918087
-0.951934
-1.13883
-1.39596
-1.87489
-2.17593
-1.78318
-1.42446
-0.914925
-0.651029
-0.514886
-0.504323
-0.501828
-0.58052
-0.716312
-0.869617
-0.960836
-0.90431
-0.82295
-0.857269
-0.577166
-0.684373
-0.778448
-0.964478
-1.29175
-1.62579
-0.990602
-0.881092
-0.52394
-0.420109
-0.297098
-0.209176
-0.362776
-0.348003
-0.382305
-0.437436
-0.445453
-0.589647
-0.480123
-0.434161
-0.409967
-0.347798
-0.473049
-0.577942
-0.807457
-0.925053
-0.385589
-0.329026
-0.237995
-0.21051
-0.0941699
-0.120266
-0.0245473
-0.123951
-0.236085
-0.157025
-0.196897
-0.138765
-0.136805
-0.146838
-0.156417
-0.119251
-0.108896
-0.134731
-0.341592
-0.353222
-6.17159
-4.8527
-3.65983
-2.72737
-2.18999
-1.86797
-1.86235
-1.95375
-2.21901
-2.44234
-2.58474
-2.47338
-2.27044
-2.06656
-1.86322
-1.6922
-1.98664
-2.4793
-3.43107
-4.31713
-5.00087
-3.91389
-2.80736
-2.02602
-1.53335
-1.36965
-1.31673
-1.52013
-1.71634
-1.93147
-2.01003
-2.01183
-1.86408
-1.61543
-1.4346
-1.39861
-1.61676
-2.06949
-2.92228
-3.75995
-4.03315
-3.12153
-2.24291
-1.57409
-1.15354
-0.955963
-1.02743
-1.16899
-1.2803
-1.50416
-1.57512
-1.61571
-1.413
-1.24675
-1.15762
-1.14141
-1.29099
-1.74129
-2.31798
-3.1348
-3.12079
-2.36975
-1.66398
-1.12899
-0.808136
-0.720715
-0.729286
-0.772728
-0.896287
-1.12861
-1.25368
-1.24346
-1.09076
-1.03342
-0.89172
-0.819264
-1.01876
-1.38836
-1.93378
-2.48576
-2.35455
-1.73086
-1.20253
-0.767636
-0.567127
-0.551099
-0.383753
-0.516735
-0.571845
-0.774963
-0.841086
-0.85277
-0.744338
-0.685766
-0.618657
-0.678235
-0.792038
-1.11941
-1.51261
-1.90198
-1.50437
-1.26866
-0.833024
-0.557263
-0.363149
-0.231083
-0.292168
-0.290585
-0.39265
-0.505555
-0.55939
-0.577967
-0.591549
-0.555841
-0.474936
-0.527152
-0.524099
-0.661256
-1.04071
-1.43117
-0.942207
-0.72661
-0.556538
-0.31954
-0.163531
-0.154186
-0.218777
-0.258401
-0.265513
-0.324377
-0.366711
-0.385587
-0.328619
-0.256956
-0.238113
-0.338599
-0.417855
-0.438832
-0.584724
-0.840079
-0.27701
-0.221691
-0.166219
-0.0878189
-0.0144042
-0.085571
-0.0698469
-0.0933978
-0.13604
-0.163729
-0.0332688
-0.13362
-0.168711
-0.0255972
-0.0812371
-0.144768
-0.0935892
-0.176341
-0.196784
-0.239809
-5.48656
-4.19857
-2.95481
-1.99531
-1.44898
-1.19752
-1.01672
-1.06585
-1.331
-1.46554
-1.48201
-1.49017
-1.28658
-1.1011
-0.847051
-0.884142
-1.09347
-1.61984
-2.55789
-3.54968
-4.40643
-3.32877
-2.23868
-1.52135
-1.02745
-0.759468
-0.685923
-0.735147
-0.940054
-1.04315
-1.16245
-1.12306
-0.92062
-0.679132
-0.63001
-0.686749
-0.915121
-1.32786
-2.26804
-3.10755
-3.47876
-2.57956
-1.67249
-1.01868
-0.661053
-0.351557
-0.373801
-0.420239
-0.535621
-0.593056
-0.735932
-0.867663
-0.642528
-0.496032
-0.447619
-0.430198
-0.727114
-1.09057
-1.80913
-2.58979
-2.64071
-2.03715
-1.20489
-0.79025
-0.40433
-0.142176
-0.167837
-0.204546
-0.437681
-0.500267
-0.581236
-0.604261
-0.476058
-0.334732
-0.348238
-0.371862
-0.485584
-0.92471
-1.45021
-2.05034
-1.97118
-1.52107
-0.919573
-0.50556
-0.197206
-0.1187
-0.122276
-0.108926
-0.197759
-0.348947
-0.374929
-0.373001
-0.344447
-0.367554
-0.221713
-0.264488
-0.385725
-0.715645
-1.13945
-1.51879
-1.34351
-0.9542
-0.573372
-0.287783
-0.151673
-0.0131832
-0.0701364
0.0547259
-0.155859
-0.205611
-0.199921
-0.15066
-0.214111
-0.163134
-0.238731
-0.195271
-0.303382
-0.552333
-0.807183
-1.13936
-0.693255
-0.666727
-0.371871
-0.120969
-0.0597701
-0.00268842
0.0114314
-0.0182304
-0.116477
-0.0477489
-0.140268
-0.10284
-0.0915115
-0.0787961
-0.0779549
-0.12648
-0.144209
-0.237679
-0.418261
-0.653374
-0.276938
-0.311963
-0.107796
-0.0278008
0.0339171
-0.00442181
-0.00610864
-0.0622197
0.0508938
0.0129463
-0.0175808
-0.0519954
-0.0874029
-0.0102956
0.00694107
-0.0429641
-0.0734226
-0.0900712
-0.105415
-0.255789
-4.66568
-3.38607
-2.22227
-1.19788
-0.680487
-0.17843
-0.0813568
-0.064204
-0.165925
-0.195031
-0.294214
-0.229426
-0.0910585
0.0452269
0.206356
0.212412
-0.0551082
-0.777278
-1.57612
-2.6179
-3.65732
-2.6049
-1.51455
-0.768508
-0.290874
0.029144
0.198407
0.150163
0.0534217
-0.00189767
-0.0305086
-0.0206359
0.166857
0.135655
0.269255
0.169716
-0.187536
-0.624298
-1.33415
-2.24746
-2.74758
-1.9938
-1.12542
-0.459838
-0.0214633
0.266942
0.308063
0.363209
0.239225
0.101016
0.0219455
0.182986
0.170976
0.246887
0.293147
0.271215
0.0639408
-0.521386
-1.04979
-1.87023
-2.22479
-1.49579
-0.701722
-0.204304
0.185859
0.345659
0.384816
0.325259
0.31636
0.2205
0.0814796
0.206446
0.182585
0.329702
0.350612
0.253276
0.0675688
-0.414933
-0.916157
-1.51452
-1.67258
-1.12119
-0.4806
-0.0934719
0.133492
0.362516
0.365629
0.299798
0.327849
0.23599
0.18047
0.126492
0.202286
0.298155
0.283861
0.200379
0.0367012
-0.269036
-0.615799
-1.13641
-1.1032
-0.690658
-0.330936
-0.030057
0.19763
0.260511
0.178315
0.232613
0.210205
0.191945
0.137851
0.123522
0.139986
0.198918
0.232791
0.222507
0.0640154
-0.0833776
-0.441353
-0.778432
-0.60278
-0.421585
-0.242211
0.0685661
0.105496
0.132377
0.219141
0.0967937
0.182369
0.106308
0.122044
0.0931058
0.0524425
0.125893
0.138751
0.137051
-0.0324951
-0.109302
-0.337767
-0.479058
-0.175854
-0.0862652
-0.0554193
0.010926
0.0811577
0.0801727
-0.0304681
0.0734941
0.00210241
-0.0299228
-0.00810238
0.00133976
0.057819
0.0812543
0.0749953
0.0453548
0.00878127
-0.0253549
-0.084067
-0.160574
-3.77938
-2.5358
-1.23243
-0.270764
0.394842
0.777159
1.03907
1.08718
1.01384
1.01125
0.987095
1.08297
1.2133
1.30184
1.34911
1.20702
0.917943
0.257083
-0.525592
-1.59672
-2.81155
-1.83427
-0.790603
0.113474
0.572401
1.09112
1.08751
1.13124
1.13894
1.08798
1.05187
1.15918
1.18181
1.21102
1.33792
1.15343
0.853806
0.279373
-0.429564
-1.35364
-2.13691
-1.30957
-0.525157
0.225784
0.73108
1.0507
1.08394
1.10534
1.17907
1.06326
1.08326
1.00868
1.16882
1.12346
1.1952
1.10457
0.754744
0.293174
-0.297653
-1.1281
-1.57207
-0.97043
-0.232379
0.32565
0.767012
0.882608
1.03323
1.05763
1.00426
0.991478
0.943652
0.970349
0.934927
1.03054
0.993436
0.828844
0.674586
0.36292
-0.172091
-0.795543
-1.07944
-0.679325
-0.108493
0.324643
0.645588
0.793982
0.932297
0.843818
0.90144
0.766298
0.837362
0.799416
0.823949
0.748479
0.795767
0.781985
0.547852
0.192748
-0.204443
-0.62913
-0.777569
-0.361585
-0.041194
0.235516
0.479712
0.580279
0.646828
0.735496
0.612077
0.585038
0.554604
0.555053
0.590607
0.582588
0.589378
0.520514
0.394339
0.223781
-0.0902497
-0.481667
-0.411785
-0.215954
-0.0915723
0.119109
0.307536
0.40393
0.427461
0.410611
0.341555
0.362596
0.33838
0.370967
0.376551
0.382535
0.329807
0.371676
0.268005
0.120749
-0.00836518
-0.311588
-0.203142
-0.069794
-0.0566355
0.0822735
0.130006
0.111419
0.185336
0.0860399
0.124113
0.13482
0.0554892
0.202612
0.12365
0.114849
0.098775
0.0856679
0.107311
0.0168093
0.0158828
-0.143761
-2.68913
-1.44825
-0.190034
0.68512
1.35626
1.77977
2.14643
2.26795
2.2271
2.36139
2.29052
2.30716
2.42206
2.52733
2.54278
2.43561
2.00219
1.42238
0.45321
-0.553507
-1.95441
-0.935404
0.0650489
0.869332
1.51143
1.90706
2.07649
2.12758
2.24704
2.10481
2.15626
2.17296
2.32845
2.26403
2.2299
2.2005
1.80449
1.31359
0.453225
-0.412343
-1.48603
-0.542867
0.263523
0.91644
1.42785
1.73073
1.90578
2.03419
1.99593
1.95395
1.95868
1.96378
2.0157
2.03105
1.9345
1.86777
1.53874
1.09225
0.375728
-0.27842
-1.05471
-0.315526
0.347848
0.868232
1.29054
1.56014
1.69999
1.69176
1.73193
1.62849
1.61144
1.63293
1.63059
1.76153
1.62684
1.64977
1.30401
0.864286
0.299423
-0.170123
-0.676486
-0.157517
0.404427
0.763339
1.12443
1.26902
1.3942
1.3976
1.40111
1.40248
1.31586
1.33653
1.37039
1.32569
1.33647
1.24583
1.01987
0.71041
0.313767
-0.143248
-0.527551
-0.0716833
0.292263
0.548583
0.785412
0.999967
0.974439
1.14959
0.920642
1.00359
1.11003
1.04347
1.01319
0.97748
1.01141
0.902945
0.748703
0.595041
0.236328
-0.0785497
-0.223209
-0.0335424
0.115237
0.335819
0.519691
0.554874
0.522338
0.654185
0.559887
0.635151
0.582445
0.568655
0.584598
0.606374
0.592038
0.527145
0.52141
0.403412
0.13576
-0.0660373
-0.0206914
0.0202364
-0.0467711
0.0385934
0.170929
0.181658
0.201105
0.276078
0.211067
0.152906
0.249069
0.141294
0.210792
0.206438
0.275279
0.134822
0.141634
0.095263
-0.038584
-0.137626
-1.83353
-0.610651
0.58231
1.54591
2.21284
2.74239
3.11705
3.20269
3.25331
3.24597
3.32525
3.41333
3.45446
3.47967
3.41051
3.31965
2.89136
2.28084
1.2943
0.342465
-1.32684
-0.274008
0.75373
1.57785
2.17573
2.66848
2.79485
2.9282
2.97395
2.97808
2.99154
3.04439
3.07233
3.15244
3.02327
2.87913
2.49919
1.98337
1.17299
0.25937
-0.858727
-0.101928
0.78927
1.46615
2.07442
2.32013
2.54596
2.58163
2.58576
2.58531
2.64469
2.66334
2.64592
2.6352
2.69999
2.55541
2.14383
1.62399
0.991625
0.254651
-0.611011
0.14342
0.868791
1.32304
1.61051
1.99284
2.1344
2.1956
2.24067
2.19587
2.1785
2.18748
2.22161
2.22434
2.25235
2.04443
1.77183
1.3472
0.79541
0.255068
-0.397347
0.150937
0.624077
1.11817
1.38872
1.57186
1.66323
1.78192
1.83877
1.73613
1.67334
1.73497
1.72859
1.70157
1.74351
1.57793
1.34563
1.03448
0.664826