/*--------------------------------*- C++ -*----------------------------------*\
| =========                 |                                                 |
| \\      /  F ield         | OpenFOAM: The Open Source CFD Toolbox           |
|  \\    /   O peration     | Version:  2212                                  |
|   \\  /    A nd           | Website:  www.openfoam.com                      |
|    \\/     M anipulation  |                                                 |
\*---------------------------------------------------------------------------*/
FoamFile
{
    version     2.0;
    format      ascii;
    arch        "LSB;label=32;scalar=64";
    class       volScalarField;
    location    "0";
    object      relativeErrorField;
}
// * * * * * * * * * * * * * * * * * * * * * * * * * * * * * * * * * * * * * //

dimensions      [0 0 0 1 0 0 0];

internalField   nonuniform List<scalar> 
3200
(
0.0142707
0.0082478
0.00289467
0.000688887
0.00292216
0.00325132
0.00387512
0.00367761
0.00337933
0.00327132
0.0031576
0.00289463
0.00344965
0.00339002
0.00355718
0.00298197
0.00184452
0.000938524
0.00550733
0.0105897
0.0116716
0.00653001
0.00186057
0.00137794
0.00273749
0.00369729
0.00394751
0.00371367
0.00352277
0.00326444
0.00286663
0.00289545
0.0028029
0.00292361
0.0027869
0.00256267
0.00145322
0.0011772
0.00481309
0.00953694
0.00944527
0.00494217
0.00118703
0.00145093
0.0029508
0.00345689
0.00368551
0.00350756
0.00319647
0.0028512
0.00258136
0.0027879
0.0025343
0.00260003
0.00251759
0.00222114
0.00106216
0.00120523
0.004293
0.00846582
0.00742494
0.00428112
0.000536401
0.00153285
0.00271647
0.00327125
0.00327989
0.00299233
0.0029884
0.00273699
0.00222648
0.0021375
0.00213207
0.00213399
0.00217348
0.00166456
0.000798875
0.00100765
0.00354889
0.00674301
0.00550831
0.00298359
0.000347148
0.0014131
0.00213839
0.00272655
0.00276328
0.00243826
0.00246154
0.00202824
0.00174673
0.00172651
0.00188404
0.0019391
0.00166077
0.00132006
0.000565047
0.000909189
0.00307109
0.00548862
0.00415595
0.0022387
0.000104975
0.00105126
0.00170853
0.00191644
0.00208265
0.00183174
0.00154793
0.00158361
0.00143006
0.00134827
0.00115323
0.00144146
0.000933244
0.00124374
0.000391247
0.00058538
0.00237538
0.00407127
0.00231353
0.00144947
0.000297243
0.00060988
0.000966478
0.00133424
0.0013294
0.00107413
0.0010798
0.000751846
0.00067552
0.00106214
0.000892565
0.00100067
0.00088358
0.000446589
2.74214e-05
0.000104965
0.00133517
0.00241545
0.000775576
0.000329739
0.000118845
0.000333548
0.000613293
0.000639208
0.00054982
0.000372486
8.60743e-05
0.000324505
0.000454786
0.00018486
0.00029569
0.000146256
0.000213018
0.000239828
2.64364e-05
0.000121768
0.000386298
0.00101934
0.014309
0.00819289
0.0030816
0.000244954
0.00231774
0.00303978
0.00317457
0.00302652
0.00242349
0.00190822
0.0017629
0.0015101
0.00194795
0.00256693
0.0025627
0.00230368
0.00132392
0.000930002
0.00543945
0.010883
0.0115291
0.006585
0.00226517
0.00103899
0.00250471
0.00307073
0.00302882
0.00298398
0.00237524
0.00203742
0.00164595
0.00156781
0.00158075
0.00199972
0.00221835
0.0023806
0.00106236
0.00108518
0.00505273
0.00949811
0.00968168
0.0051527
0.00152265
0.00108346
0.0024704
0.00320897
0.00304294
0.00278833
0.00231245
0.00187525
0.00172992
0.00165102
0.00148174
0.00160903
0.00195175
0.00156158
0.000895138
0.00101489
0.00471907
0.0082974
0.00755736
0.00412921
0.000798745
0.00111522
0.00245093
0.00277192
0.00260704
0.0027528
0.00224662
0.00187401
0.00137414
0.00144382
0.00120374
0.00170544
0.0017478
0.00135572
0.000669837
0.00110268
0.00370142
0.00679994
0.00563799
0.00281166
0.000504258
0.00104617
0.00208243
0.00220108
0.00238008
0.00217958
0.0018067
0.00117233
0.0013356
0.00107321
0.00113926
0.00141343
0.00139787
0.00124169
0.000531826
0.00109848
0.00302903
0.00554203
0.00416345
0.002181
0.000367863
0.00106548
0.00170398
0.0017842
0.00188134
0.00163837
0.00129859
0.000962387
0.00100109
0.000714685
0.000963771
0.000878702
0.000748404
0.000912008
0.000544393
0.000704581
0.0023485
0.00406773
0.00214129
0.00121472
0.000321225
0.000601698
0.00118689
0.00109447
0.000942396
0.00102249
0.000966991
0.000852437
0.000866161
0.000597132
0.000730144
0.000495069
0.000583375
0.000310647
0.00016604
0.000358588
0.00159666
0.00242386
0.000926377
0.000697655
0.000297484
4.1597e-05
0.000554048
0.000380571
0.000264557
0.000363476
0.000312006
0.000491244
0.000348481
0.000373107
0.000185511
0.000382182
0.000122004
9.43157e-05
0.000118376
0.000113993
0.000370044
0.000936756
0.0143916
0.00883063
0.00368552
0.000288502
0.00123436
0.0018065
0.00175546
0.00136225
0.000646332
3.86335e-05
0.000252484
0.000424089
3.2788e-06
0.000782572
0.00110373
0.00129188
0.000522052
0.00198986
0.00587639
0.0112885
0.0119349
0.00708662
0.0025333
0.000140834
0.00167229
0.00223093
0.00224442
0.00164707
0.000849484
0.000277891
2.8343e-05
4.68328e-05
3.69943e-06
0.000962517
0.0011151
0.00122631
0.000386245
0.00186377
0.0054304
0.0097192
0.00977337
0.00556221
0.0018221
0.000766316
0.0019535
0.00221635
0.00200218
0.00154368
0.001328
0.000629507
7.63737e-05
0.000125405
0.000164985
0.000639581
0.00105582
0.000848
0.000143712
0.00141691
0.00502163
0.0085248
0.00793454
0.00440384
0.00112635
0.000787771
0.00204152
0.00225277
0.00219018
0.0017702
0.00121811
0.000609974
0.000482454
0.000229622
0.000375003
0.000650194
0.000730106
0.000783443
0.000118105
0.00160294
0.00418208
0.00737979
0.00568008
0.00348689
0.000794449
0.000657633
0.00161046
0.00194803
0.0017163
0.00144083
0.00104753
0.000819248
0.000556943
0.000348701
0.000359164
0.000607584
0.000909196
0.000538619
8.48203e-05
0.00129781
0.00355927
0.00580056
0.00418654
0.00237447
0.000501949
0.000669331
0.00118115
0.00135286
0.00153848
0.00115345
0.000670617
0.000529374
0.000315738
0.000233416
0.000281811
0.000424456
0.000441792
0.000351069
0.000211987
0.00117341
0.00288821
0.00416684
0.00261212
0.00105337
0.000159655
0.000467662
0.000703397
0.000953707
0.00077602
0.000717322
0.000348405
0.000188527
0.000106967
0.000208015
8.7511e-05
0.000223637
0.000297889
0.000160584
3.51896e-05
0.000524017
0.00146155
0.00256347
0.000845136
0.0006919
6.67325e-05
0.000206039
0.000315295
0.000429089
2.6983e-05
0.000326624
0.000172766
0.000263091
9.9653e-05
7.96331e-05
0.00010814
0.000137356
0.000405353
0.000115425
1.94804e-05
5.43912e-05
0.000464729
0.000713539
0.0152268
0.00941997
0.00476127
0.00158715
0.000241112
0.000443238
0.000142456
0.000461174
0.00124135
0.0019902
0.00266037
0.00259794
0.00200425
0.0011201
0.000276669
0.000120098
0.000779373
0.00294087
0.00680017
0.0120447
0.0124078
0.00755877
0.00340954
0.000677658
0.000600304
0.000805314
0.00058011
0.000120147
0.000742771
0.00160337
0.00198337
0.00201983
0.00176088
0.000998111
0.000338878
4.03937e-05
0.000812603
0.00289243
0.0062986
0.0103274
0.0100511
0.00611482
0.00249453
0.000150182
0.00130074
0.00145491
0.000926241
0.000501636
0.000487325
0.000978248
0.00123617
0.00150731
0.00129575
0.000665717
0.000348869
0.000190818
0.000678136
0.00240974
0.00557742
0.00909177
0.00803016
0.00473608
0.0017084
0.000144823
0.000986767
0.00128916
0.00105088
0.000516159
0.000234244
0.000453447
0.00113626
0.001133
0.000743175
0.000368852
0.000282423
0.000140535
0.000635624
0.00231158
0.00483826
0.00733658
0.00596062
0.00348659
0.00125542
0.000185245
0.000912804
0.00107765
0.000993751
0.000574086
9.05914e-05
0.000641315
0.000635303
0.000655534
0.000494716
0.000356007
0.000278722
0.000225834
0.000519156
0.00176418
0.00378808
0.00604189
0.00409492
0.00245726
0.000708786
9.71474e-05
0.00092024
0.00107853
0.000712684
0.000500411
0.000207151
0.000263035
0.000535135
0.000733905
0.000419569
0.000235203
0.000147441
0.000324431
0.000302858
0.00141131
0.00275981
0.00451512
0.00250322
0.00170323
0.000358741
8.43436e-05
0.000520252
0.000727499
0.000633292
0.000365151
2.68815e-05
0.000133057
6.40216e-05
0.000411752
0.000365456
0.000249253
3.87126e-05
7.01942e-05
0.000280662
0.00086101
0.00164356
0.00251956
0.000758763
0.000656058
0.000145637
0.000126587
0.000277483
0.000125886
0.000362906
0.000201138
2.10089e-05
7.0884e-05
0.000436703
5.96959e-06
7.80332e-05
0.000222185
0.000114552
0.000271987
5.42139e-05
0.000557395
0.000504908
0.000895938
0.0160287
0.0106322
0.0057147
0.00270935
0.00136067
0.00103191
0.00170693
0.00261441
0.00372628
0.00466452
0.00482915
0.00498008
0.00419894
0.00325882
0.00215322
0.00170115
0.00208177
0.00420848
0.00807125
0.0127152
0.0134974
0.00851796
0.00454015
0.00180504
0.000577576
0.000312756
0.000977662
0.00172737
0.00268046
0.00357946
0.00407901
0.00419954
0.00343235
0.00261596
0.00181931
0.00152503
0.00209606
0.00398503
0.00728876
0.0111351
0.0108295
0.00707053
0.00337471
0.00128976
5.57596e-05
3.93502e-05
0.000408201
0.00123808
0.00198367
0.00251103
0.00336034
0.00321142
0.00277774
0.00205588
0.00127944
0.00129526
0.00174323
0.00338276
0.00618046
0.00970084
0.00850018
0.00549291
0.0024358
0.000472505
0.000245843
0.000299731
0.000137634
0.000537365
0.00157757
0.00204349
0.00239682
0.00221894
0.00246879
0.00167367
0.00121421
0.00102274
0.00175082
0.00275159
0.00572238
0.00813473
0.00659971
0.00439427
0.00186344
0.000211859
0.000234283
0.00058459
2.13224e-06
0.000427334
0.00105251
0.0015715
0.00204744
0.0017913
0.00188408
0.00159718
0.00106299
0.000738432
0.00142656
0.0022989
0.00417742
0.00635177
0.00453068
0.0030498
0.00124414
0.000297316
0.000291919
0.000376813
3.53423e-05
0.00012071
0.000584348
0.00112266
0.00116348
0.00135783
0.00152904
0.00101965
0.000862573
0.000403404
0.000982803
0.00170746
0.00323242
0.00445574
0.00297973
0.00182552
0.000548446
2.51411e-05
2.18593e-05
0.000319926
0.000168127
0.00029192
0.000127348
0.000568427
0.000947017
0.000701309
0.000775622
0.000493464
0.000438419
0.000320913
0.000778653
0.00107383
0.00174686
0.00311923
0.00121875
0.000444729
0.000246918
6.59899e-05
2.66768e-05
0.000126965
0.000234423
0.000134359
8.40823e-05
7.5196e-05
0.000191948
0.000415803
0.000323515
0.000292439
0.000116846
1.4496e-05
0.000302433
0.000526468
0.000707203
0.000977481
0.0170357
0.0117428
0.00727895
0.00437716
0.00288853
0.00270737
0.00340295
0.00444046
0.00556311
0.0066401
0.00756791
0.00735881
0.00652697
0.00531957
0.00405645
0.00338268
0.00395814
0.00573784
0.00961821
0.0138591
0.0143729
0.00975229
0.0058333
0.00335049
0.00198515
0.00169595
0.00232386
0.00340383
0.00446741
0.00553678
0.00594076
0.00607421
0.00534171
0.00434813
0.00347259
0.00300302
0.00338629
0.0053624
0.00830337
0.0121173
0.0114085
0.0077839
0.00437364
0.00236232
0.00119327
0.00117386
0.00160127
0.0023723
0.0036036
0.00439527
0.0050164
0.00509219
0.00444434
0.00372692
0.00311509
0.00268926
0.00301405
0.00475663
0.00743869
0.0106008
0.00914186
0.00629905
0.00336794
0.00185225
0.000774653
0.000521442
0.000978887
0.00200735
0.00280741
0.00342521
0.00366434
0.00388835
0.00341043
0.0029911
0.00240458
0.00216375
0.00254734
0.00409992
0.00624539
0.00877502
0.00702412
0.00488875
0.00256245
0.00123751
0.000240864
0.000252856
0.000930788
0.00159384
0.00192606
0.00266323
0.00290754
0.0032639
0.00293092
0.00225425
0.00193136
0.00194018
0.0018896
0.00327347
0.00500165
0.00712298
0.00490643
0.00343277
0.00156828
0.000707917
0.000479822
0.000276273
0.000535972
0.00078527
0.00143175
0.00154089
0.00224787
0.00220741
0.00213357
0.00166854
0.00148905
0.00131039
0.00141334
0.00240119
0.00362787
0.00524955
0.00296481
0.00195899
0.00107015
0.000201271
0.000148737
0.000439853
0.000317585
0.000348138
0.000569835
0.000938596
0.00140091
0.00137961
0.00139247
0.00109022
0.000834601
0.00076061
0.000805651
0.00138286
0.00226897
0.00316252
0.000988138
0.000632211
0.000410335
6.38384e-05
3.11164e-05
0.000390278
0.000231157
0.000113385
0.000534562
0.000433066
0.000657193
0.000395645
0.000486368
0.00019044
0.000367349
0.0003958
0.000138309
0.000430423
0.000618472
0.00102742
0.0179992
0.0133024
0.00862695
0.00577249
0.00466263
0.00419035
0.00498134
0.00615706
0.00757826
0.0088892
0.00960757
0.00941843
0.00845358
0.00727995
0.00588348
0.00514923
0.00539246
0.00728941
0.0105896
0.0149461
0.0152747
0.0109407
0.0070413
0.00437568
0.00345414
0.00317613
0.00383973
0.00499541
0.0063613
0.00747636
0.00796938
0.00798408
0.00733978
0.00624389
0.00504696
0.00445734
0.00496127
0.00624276
0.00948738
0.0131304
0.0127035
0.00879482
0.00575705
0.00332228
0.00233443
0.00214871
0.00288929
0.00405266
0.00498982
0.00580518
0.00653633
0.00651737
0.00604921
0.00503762
0.00414874
0.00379892
0.00419039
0.00583635
0.00860229
0.0112315
0.00984016
0.00731119
0.0044148
0.0026329
0.00166147
0.00158054
0.00207454
0.00291165
0.00403606
0.00493576
0.005032
0.00533625
0.00481792
0.00434985
0.00348888
0.00302677
0.00335696
0.00491505
0.00690455
0.00946582
0.00772845
0.00537699
0.00330935
0.00177855
0.00123504
0.00106523
0.00176384
0.0021482
0.00283164
0.00376191
0.00427175
0.00414343
0.00390818
0.00327665
0.00264592
0.00275826
0.00267131
0.00376656
0.00549597
0.00754991
0.00544114
0.00365013
0.00231257
0.00140508
0.000937104
0.000618048
0.00113149
0.00148115
0.00195609
0.00272696
0.00291997
0.00291521
0.00258967
0.0024371
0.00216408
0.00191201
0.0019352
0.00303443
0.00414949
0.00523434
0.0032319
0.00208836
0.0012307
0.000886435
0.000549997
6.45326e-05
0.000692229
0.00090364
0.00137807
0.0013755
0.00175708
0.0018472
0.00163516
0.00161728
0.00108459
0.0010368
0.00136062
0.0016219
0.00249456
0.00325559
0.000887948
0.000774248
0.00062725
0.000303147
2.86708e-05
0.000141464
0.000246418
0.000284841
0.000570991
0.000383606
0.000652188
0.000710304
0.000611706
0.000281457
0.000502029
0.000377841
0.000298059
0.000781756
0.000921994
0.00109861
0.0192466
0.0143136
0.0102314
0.00737918
0.00588773
0.00591173
0.00662197
0.00785948
0.00918891
0.0106661
0.0113375
0.0112802
0.0105426
0.00896657
0.00745193
0.00674957
0.00689383
0.00884956
0.011849
0.0158958
0.0160224
0.0118791
0.00806293
0.00569983
0.00467175
0.00457842
0.0052019
0.00623491
0.00772848
0.00883043
0.0095263
0.00936017
0.0087394
0.007509
0.00638366
0.00574101
0.00617622
0.00761601
0.010474
0.0138741
0.0131013
0.00982497
0.00656375
0.00460465
0.00344034
0.00351917
0.00392992
0.00521166
0.00632084
0.00750947
0.00797087
0.00790736
0.00741636
0.00615365
0.00551543
0.00476701
0.00542595
0.00639448
0.0091196
0.012014
0.0103718
0.00784444
0.00512385
0.00339173
0.00238465
0.00265823
0.00325765
0.00402282
0.00505923
0.00582536
0.00638489
0.00629021
0.00593604
0.00515426
0.00455055
0.00428605
0.00458744
0.00553659
0.00774673
0.0099306
0.00814446
0.00606187
0.00387121
0.00260818
0.00199568
0.00186202
0.00228001
0.00271469
0.00388819
0.00447972
0.00508833
0.00502575
0.00466152
0.00402535
0.0035447
0.00319683
0.00353448
0.00453333
0.0061434
0.00789602
0.00564317
0.00428967
0.00287658
0.00182132
0.00125989
0.00139848
0.001407
0.00192205
0.00278104
0.0032251
0.00382091
0.00364821
0.00347764
0.00304233
0.00250264
0.0023627
0.00251558
0.003541
0.00440621
0.00588239
0.00319023
0.00254491
0.00157237
0.00106921
0.000909391
0.000799892
0.000941245
0.00128714
0.00161667
0.00193141
0.00228032
0.00241166
0.00209482
0.00174596
0.00165082
0.00141366
0.00170296
0.001902
0.00284688
0.00359547
0.000917931
0.000688977
0.000431019
0.000309587
0.000379894
0.000142962
0.000625898
0.0005325
0.000504532
0.000456676
0.000495062
0.000814417
0.000691134
0.000513434
0.000657866
0.000420009
0.00061128
0.000743737
0.00139438
0.00110784
0.019905
0.0153901
0.011404
0.00860695
0.00724645
0.00700237
0.00764058
0.00912084
0.0106792
0.0119498
0.0128196
0.012804
0.0115571
0.0101909
0.0087759
0.007848
0.00805932
0.00973257
0.0126924
0.0164189
0.0164078
0.0127041
0.00913021
0.00675521
0.00587661
0.00569572
0.00643446
0.00746218
0.00840299
0.0100746
0.0108908
0.0106917
0.00992173
0.00879465
0.00748367
0.00682846
0.00715424
0.00872609
0.0113918
0.0144873
0.0135426
0.0106156
0.00765255
0.00544765
0.00431362
0.00436378
0.00513619
0.00589865
0.00719669
0.00836802
0.00892977
0.00915536
0.0084086
0.00737851
0.00602527
0.00572765
0.00634628
0.00784625
0.00971836
0.0127296
0.0110323
0.00842866
0.00590172
0.00420569
0.00342901
0.00333794
0.00369066
0.00505804
0.00578198
0.00681095
0.0072275
0.00704023
0.00670722
0.00575557
0.00512906
0.00505302
0.00504025
0.00598348
0.00797052
0.0105066
0.00839495
0.00623669
0.00450451
0.00329441
0.00245536
0.0024949
0.00296141
0.00364781
0.0042281
0.00544708
0.00573764
0.00567746
0.00524443
0.00468091
0.00405824
0.00396245
0.00416973
0.00496216
0.00644163
0.00838887
0.00599437
0.00433473
0.00315341
0.00209346
0.0016277
0.00184606
0.00199361
0.00258494
0.00317706
0.00370994
0.0040552
0.00407841
0.00387407
0.00349375
0.00289062
0.00280585
0.00299745
0.00371926
0.00473759
0.00590936
0.00354641
0.00265069
0.00204762
0.0013178
0.00103452
0.0010088
0.00103655
0.00140288
0.00202293
0.00236939
0.00242617
0.00237819
0.00238947
0.00194331
0.00171691
0.00189296
0.00168068
0.00220458
0.0029817
0.00390515
0.00127592
0.000988427
0.000568879
0.000315812
0.000212621
0.000171551
0.000419975
0.000726526
0.000542195
0.000847312
0.000618363
0.000787146
0.000496658
0.000625153
0.000530514
0.000976016
0.000513628
0.00049757
0.000973811
0.0013197
0.0206568
0.0163719
0.0122184
0.00938301
0.00814308
0.00788582
0.00840541
0.00984453
0.0112363
0.0125806
0.0135801
0.013475
0.0121861
0.0109688
0.00934841
0.00863069
0.00910939
0.0106213
0.0136989
0.0168814
0.0170863
0.0134346
0.0101028
0.00775337
0.00643674
0.00650181
0.00699054
0.00810312
0.00964686
0.0106969
0.0113502
0.0111881
0.0105457
0.00947531
0.00815824
0.0074973
0.00779688
0.00935177
0.0118557
0.0147022
0.0141987
0.0108364
0.00802615
0.00636515
0.00518789
0.00467426
0.00555007
0.00650241
0.00784079
0.00876471
0.00947006
0.00951168
0.00868551
0.00775356
0.00679188
0.00644923
0.00676901
0.007702
0.0101942
0.0128358
0.0112189
0.00859885
0.00651674
0.00487005
0.00381856
0.00374844
0.00404257
0.00525885
0.00606253
0.00681028
0.00789853
0.00761652
0.00707349
0.00633425
0.0055198
0.00516915
0.005415
0.00661717
0.00873891
0.0106291
0.00869798
0.00677349
0.00470209
0.00328269
0.00292116
0.00301157
0.00318577
0.00391595
0.00507004
0.00546262
0.0059206
0.00596947
0.00591181
0.00502634
0.00427954
0.00400881
0.00456392
0.00520967
0.0064983
0.00855766
0.00630369
0.00492789
0.00332756
0.0022843
0.00184672
0.00189335
0.00224652
0.00272839
0.00332291
0.00408525
0.0043516
0.00417797
0.00389109
0.00354054
0.00322842
0.00311267
0.00335802
0.00394369
0.00500619
0.00626069
0.00375527
0.00292119
0.0021859
0.0014245
0.000978307
0.00101366
0.0013816
0.00173557
0.00198702
0.00227835
0.00268636
0.00272926
0.00240223
0.00229002
0.0018856
0.00181398
0.0018059
0.00226902
0.00313146
0.00383738
0.00134474
0.00115399
0.000652688
0.000515697
0.000740211
0.000620199
3.54238e-05
0.000483018
0.00058715
0.000889242
0.000941086
0.00120307
0.0008325
0.000524886
0.000617074
0.000556115
0.000561036
0.000726674
0.00108721
0.00144548
0.020504
0.016183
0.012565
0.00984646
0.00870902
0.00820343
0.00901707
0.00989633
0.011651
0.0127675
0.013423
0.0133771
0.0125167
0.0110651
0.00933417
0.00893066
0.00909573
0.0107798
0.0133969
0.0167808
0.0172072
0.0137523
0.010445
0.00824698
0.00686602
0.00668112
0.00737331
0.0084657
0.00975983
0.0107323
0.0112796
0.0112515
0.0105158
0.00953684
0.00856231
0.00778999
0.00808929
0.00961316
0.0120853
0.0147432
0.0144737
0.0112807
0.00853683
0.0066047
0.00558043
0.00526452
0.00590085
0.00665286
0.00812426
0.00859995
0.00949576
0.00953954
0.00890239
0.00793759
0.0069363
0.00660756
0.00670938
0.00809267
0.0102185
0.0126043
0.0113843
0.00893834
0.00662627
0.00504568
0.00412824
0.0039525
0.00432203
0.00544536
0.00623389
0.00726289
0.00783783
0.00780717
0.0073075
0.00647396
0.00571574
0.00558623
0.00572649
0.00676314
0.00855249
0.0104619
0.00897298
0.00700314
0.00524487
0.00393714
0.00348033
0.00310151
0.00327236
0.00397218
0.00466755
0.00576075
0.00610682
0.00609157
0.0056894
0.00482432
0.00463546
0.00400781
0.00470452
0.00539748
0.0067913
0.00841646
0.00633001
0.00499236
0.00341034
0.00286501
0.00216473
0.00198026
0.00239059
0.00266694
0.00340014
0.00432117
0.00448597
0.00412625
0.00393528
0.00362016
0.00308844
0.00303525
0.0032905
0.00396466
0.00485135
0.00633724
0.00365325
0.00299607
0.00217049
0.00153396
0.00139529
0.000934787
0.00142681
0.00160454
0.0020684
0.00234677
0.00276485
0.0025609
0.00251214
0.002252
0.00197914
0.00188309
0.00196548
0.00224411
0.00306703
0.00396341
0.00153198
0.000898819
0.00077738
0.000399253
0.00046661
0.000233297
0.000470212
0.000555876
0.000870053
0.000851546
0.000870531
0.00089355
0.000632489
0.000883325
0.000825522
0.000570853
0.000707112
0.00078137
0.000965401
0.00117475
0.0205138
0.0163156
0.0126504
0.0101275
0.0085301
0.00830719
0.0089206
0.00960379
0.010827
0.0120525
0.0126812
0.01265
0.0118119
0.0105559
0.00924354
0.00851518
0.0090609
0.0106035
0.0130618
0.0164375
0.0171586
0.0137982
0.0104635
0.00814122
0.00689249
0.00670551
0.00703165
0.00785356
0.00908101
0.0101639
0.0108749
0.0108091
0.00997218
0.00877522
0.00811036
0.00745747
0.00784337
0.00916876
0.0116657
0.0142071
0.0141215
0.011218
0.00839251
0.00660445
0.00539723
0.00517801
0.00555622
0.00658149
0.00745122
0.00832683
0.00895942
0.00897396
0.00826784
0.00748505
0.00635015
0.00610349
0.00665823
0.00780317
0.00997109
0.012277
0.0112614
0.00906873
0.0067629
0.00523274
0.00410496
0.00397331
0.00463242
0.00499865
0.00609522
0.00670486
0.00725075
0.00730947
0.0067517
0.00599514
0.00535318
0.00507586
0.00542902
0.00664762
0.00825185
0.010333
0.00885233
0.00672419
0.00497276
0.00383481
0.00284898
0.00304762
0.00326341
0.00395352
0.00486218
0.00529811
0.00574349
0.00556459
0.00540025
0.00465708
0.0040247
0.00412368
0.00427794
0.00514449
0.0067472
0.00784912
0.00615716
0.00490428
0.00367894
0.00243629
0.00215918
0.00233311
0.00246733
0.00290862
0.00325876
0.00365296
0.00390525
0.00393857
0.00369104
0.00313938
0.00312559
0.00307196
0.00320735
0.0037287
0.00482903
0.00587743
0.00344251
0.00299096
0.00210762
0.0015358
0.0013773
0.00139665
0.00126163
0.00178012
0.00192271
0.0021646
0.00226011
0.00234088
0.00232035
0.00207364
0.0016911
0.00195328
0.0018103
0.00243327
0.00289331
0.00377847
0.00100583
0.000960131
0.000473233
0.000350813
0.00059263
0.000435163
0.000679109
0.00067873
0.000651095
0.000710886
0.000673649
0.00087862
0.000671008
0.000755959
0.000944171
0.000724552
0.000563415
0.00115438
0.000921115
0.0011965
0.0196633
0.0158597
0.0122442
0.00970066
0.00810444
0.00781135
0.00814561
0.00881039
0.00981546
0.0109151
0.0116018
0.0112831
0.0105882
0.00953162
0.0084548
0.00795289
0.00830972
0.00966968
0.0125501
0.0156267
0.016421
0.0131208
0.00994198
0.00797372
0.00664823
0.00633991
0.00641185
0.00708077
0.00818466
0.0091568
0.00950452
0.00955001
0.00901905
0.00803349
0.00713196
0.00687011
0.00726104
0.00834487
0.0104785
0.0135142
0.0134819
0.0108728
0.00801298
0.00618741
0.00523033
0.00477878
0.00508513
0.00591626
0.00649218
0.00741285
0.00801285
0.00785913
0.00746774
0.00653376
0.00604761
0.00585778
0.00618343
0.00723503
0.00961301
0.0117007
0.010879
0.0085437
0.0065393
0.00511507
0.00378378
0.00345275
0.00391036
0.00439757
0.00501696
0.00571959
0.00648033
0.00624658
0.00587397
0.00547653
0.00497607
0.00481948
0.00496967
0.00612303
0.00774005
0.00957187
0.00826986
0.00656879
0.00500003
0.00346893
0.0029038
0.00287441
0.00280401
0.00342288
0.00383138
0.00453084
0.00497497
0.00477454
0.00471207
0.0043007
0.0037701
0.00375837
0.00378203
0.00493074
0.00636449
0.00761016
0.00583497
0.0046612
0.003475
0.00261906
0.00190577
0.00187743
0.0019765
0.00231222
0.00277218
0.00308539
0.00360844
0.00348774
0.0033921
0.00318015
0.00268847
0.00255567
0.00295495
0.00349333
0.00477857
0.00558082
0.0034608
0.00259566
0.00220031
0.00164757
0.00133794
0.0011172
0.00111532
0.00176131
0.00191798
0.00183296
0.00203194
0.00186247
0.00210378
0.00160457
0.00165492
0.00167733
0.00164322
0.0021416
0.00260775
0.00322522
0.00134563
0.000937518
0.00072326
0.000481232
0.000400978
0.000528499
0.000322852
0.000314782
0.000667161
0.000969369
0.000561938
0.00076281
0.000391093
0.000603538
0.000574616
0.000385201
0.000512649
0.000713842
0.000976518
0.00126559
0.0185945
0.0148615
0.0113497
0.00865506
0.00738394
0.00649057
0.00664972
0.00736985
0.00823268
0.00911921
0.00939109
0.00915829
0.00866501
0.0076879
0.00685565
0.00656425
0.0070316
0.00829179
0.0110649
0.0137087
0.0152817
0.0123644
0.00923877
0.00707803
0.00546659
0.00515404
0.00542072
0.00594245
0.00653231
0.00766053
0.0078833
0.00790146
0.00701347
0.00634129
0.00573425
0.00560294
0.00611346
0.00732745
0.00976713
0.0120647
0.0128164
0.00984221
0.00762736
0.0055064
0.0045052
0.00374122
0.00402511
0.00460507
0.00536331
0.00610621
0.00653808
0.00629728
0.00592876
0.00538524
0.00489882
0.00455703
0.00494453
0.00621646
0.00829009
0.0106939
0.0101323
0.00790405
0.00597716
0.00431853
0.00326796
0.00290511
0.00300022
0.00354427
0.00436847
0.00472682
0.00514883
0.00506879
0.00470507
0.00441742
0.00390353
0.00377005
0.00389704
0.0052444
0.00671138
0.00862312
0.007709
0.0062807
0.00457048
0.00326519
0.00241058
0.00229019
0.00241923
0.002428
0.0030854
0.00355886
0.00398648
0.00387436
0.00386
0.00326171
0.00278191
0.00288585
0.00345419
0.00423628
0.0056925
0.00660902
0.00555669
0.00443764
0.00284924
0.00202665
0.00160224
0.00156882
0.00156058
0.00180486
0.00222664
0.00270295
0.00298648
0.00281104
0.00255858
0.00266594
0.00179542
0.00212966
0.0024233
0.00300356
0.0040242
0.00506624
0.00316928
0.00281844
0.00167561
0.00134323
0.000949705
0.00066851
0.00115918
0.00111181
0.00122127
0.00139731
0.00142291
0.00188362
0.00153391
0.00138728
0.00131022
0.00111177
0.0015125
0.00184832
0.0025829
0.00295956
0.0012675
0.0010815
0.000782228
0.000691833
0.000309462
0.000395188
8.06561e-05
0.000407248
0.000775645
0.000515887
0.000646883
0.000455905
0.000449483
0.000482473
0.000513981
0.000391882
0.000357885
0.000442825
0.00112281
0.00116111
0.0169188
0.0132935
0.0100168
0.00745787
0.0059831
0.00509911
0.00508009
0.00532632
0.00604699
0.00665417
0.00704214
0.00674018
0.00618968
0.00563716
0.00508616
0.00462313
0.00543236
0.00678576
0.0093991
0.011835
0.0140384
0.01098
0.00786958
0.00567471
0.00429138
0.00383042
0.00368005
0.00424634
0.00479271
0.0053924
0.00561174
0.00561782
0.00520712
0.00451489
0.00401207
0.00391429
0.00452841
0.00580117
0.00819817
0.0105549
0.0116013
0.00897422
0.00644386
0.00451917
0.00330949
0.00274091
0.00294417
0.00334831
0.00366599
0.00430627
0.00450942
0.00462639
0.00404723
0.00357264
0.00331908
0.00327469
0.00370638
0.00500273
0.00666407
0.00901723
0.00920502
0.00698665
0.00490308
0.0033247
0.00237847
0.00212004
0.00214425
0.00227112
0.00263358
0.00331575
0.0036832
0.00365367
0.00320585
0.00303846
0.00262307
0.00241123
0.00300009
0.00409094
0.00570131
0.00733194
0.00712657
0.00523698
0.0036368
0.00232045
0.00171356
0.00166441
0.00115856
0.00155958
0.00172554
0.00233819
0.0025377
0.00257323
0.00224651
0.00207036
0.00186845
0.00204926
0.00239422
0.00338542
0.00457665
0.00575674
0.00467586
0.00394221
0.00258766
0.00173045
0.0011273
0.000717108
0.000906424
0.000901314
0.0012177
0.00156771
0.00173465
0.00179241
0.00183482
0.00172444
0.00147384
0.0016364
0.00162747
0.00205409
0.00323389
0.00444832
0.00300967
0.00232064
0.0017771
0.00102011
0.000521953
0.000492033
0.000698032
0.000824347
0.000846954
0.00103467
0.00116971
0.00122997
0.00104835
0.000819847
0.000759856
0.00108073
0.00133398
0.00140125
0.00186748
0.00268344
0.000910082
0.000728301
0.000546024
0.000288461
4.73105e-05
0.000281039
0.000229383
0.000306712
0.000446731
0.000537647
0.000109247
0.000438784
0.000554035
8.40633e-05
0.000266805
0.00047549
0.000307415
0.000579276
0.000646477
0.000787863
0.0149326
0.0114195
0.00803015
0.00541804
0.00393141
0.00324673
0.00275477
0.00288638
0.00360312
0.00396657
0.00401115
0.00403402
0.00348412
0.00298338
0.00229653
0.00239887
0.00296921
0.00440214
0.00695709
0.00966103
0.0122906
0.00927934
0.00623612
0.0042348
0.00285793
0.00211114
0.00190561
0.00204142
0.00260958
0.00289529
0.00322641
0.00311759
0.00255645
0.00188674
0.00175127
0.00191025
0.0025473
0.00369891
0.00632244
0.0086677
0.00995115
0.00737533
0.00477892
0.00290887
0.00188649
0.00100269
0.0010656
0.0011975
0.00152586
0.00168924
0.0020962
0.00247178
0.00183093
0.00141405
0.00127667
0.00122769
0.0020763
0.00311616
0.00517254
0.00740821
0.00775275
0.00597833
0.0035341
0.00231667
0.0011847
0.00041638
0.000491326
0.000598585
0.00128054
0.00146347
0.00170033
0.0017679
0.00139314
0.000979895
0.00101986
0.00108957
0.00142352
0.0027123
0.00425587
0.00601952
0.00594402
0.00458524
0.0027709
0.00152272
0.000593729
0.000357232
0.000367871
0.000327618
0.000594693
0.00104924
0.00112736
0.00112167
0.001036
0.0011058
0.000667257
0.000796294
0.00116179
0.00215642
0.00343485
0.00457984
0.00416446
0.00295704
0.00177632
0.000891277
0.000469596
4.08049e-05
0.000217034
0.000169314
0.00048214
0.000635996
0.000618396
0.000466055
0.000662427
0.000504811
0.000738927
0.000604579
0.000939589
0.00171114
0.00250144
0.00353167
0.00221071
0.00212582
0.00118547
0.000385555
0.000190464
8.56548e-06
3.64156e-05
5.80672e-05
0.00037097
0.000152069
0.000446721
0.000327535
0.000291481
0.000251011
0.000248369
0.000403043
0.000459626
0.000757682
0.0013336
0.00208354
0.000909316
0.00102427
0.000353904
9.12666e-05
0.000111338
1.45145e-05
2.00504e-05
0.000204214
0.000167036
4.24897e-05
5.77001e-05
0.000170652
0.00028687
3.37931e-05
2.27838e-05
0.000141036
0.000241037
0.000295712
0.00034611
0.000839877
0.0126028
0.00914074
0.00599464
0.0032289
0.00183293
0.000480294
0.000218869
0.000172644
0.000446028
0.000524181
0.000790754
0.000616726
0.000244855
0.000121671
0.000555465
0.000572144
0.000148544
0.00209673
0.00425477
0.00707138
0.010133
0.00721332
0.00419125
0.0021253
0.000803889
8.0498e-05
0.000547736
0.000414381
0.000147377
5.23439e-06
8.41528e-05
5.69292e-05
0.000460447
0.000374496
0.000743705
0.000469046
0.000518628
0.00172764
0.00369443
0.0062268
0.00781405
0.00566777
0.00319743
0.00130569
6.09097e-05
0.000757155
0.000873402
0.00102938
0.000677826
0.000286184
6.21729e-05
0.000518477
0.000484567
0.000699961
0.000831484
0.00076967
0.000181557
0.00148131
0.00298424
0.0053189
0.00649991
0.00436847
0.00204841
0.000596097
0.000542027
0.00100762
0.00112134
0.000947511
0.000921395
0.000642133