/*--------------------------------*- C++ -*----------------------------------*\
| =========                 |                                                 |
| \\      /  F ield         | OpenFOAM: The Open Source CFD Toolbox           |
|  \\    /   O peration     | Version:  2212                                  |
|   \\  /    A nd           | Website:  www.openfoam.com                      |
|    \\/     M anipulation  |                                                 |
\*---------------------------------------------------------------------------*/
FoamFile
{
    version     2.0;
    format      ascii;
    arch        "LSB;label=32;scalar=64";
    class       volScalarField;
    location    "0";
    object      stateMean;
}
// * * * * * * * * * * * * * * * * * * * * * * * * * * * * * * * * * * * * * //

dimensions      [0 0 0 1 0 0 0];

internalField   nonuniform List<scalar> 
3200
(
351.589
350.045
348.879
348.383
348.376
349.019
349.498
350.158
350.693
350.957
350.997
350.863
350.238
349.669
348.911
348.355
347.98
348.198
349.094
350.313
344.477
343.186
342.19
341.733
341.936
342.262
342.78
343.37
343.807
344.092
344.229
344.023
343.684
343.132
342.575
341.996
341.708
341.957
342.601
343.75
337.489
336.364
335.609
335.273
335.334
335.717
336.151
336.64
337.058
337.34
337.432
337.196
336.969
336.517
336.034
335.579
335.403
335.615
336.147
337.161
330.567
329.842
329.02
328.788
328.86
329.13
329.544
329.99
330.247
330.465
330.634
330.529
330.274
329.922
329.492
329.207
329.03
329.175
329.602
330.344
323.681
323.104
322.572
322.353
322.477
322.639
322.951
323.329
323.52
323.766
323.857
323.758
323.508
323.218
322.984
322.741
322.627
322.753
323.132
323.675
316.981
316.542
316.094
315.977
316.026
316.211
316.39
316.664
316.897
316.96
317.009
316.96
316.879
316.593
316.522
316.173
316.186
316.246
316.585
316.954
310.133
309.965
309.743
309.612
309.655
309.692
309.833
310.03
310.113
310.26
310.283
310.118
310.086
309.935
309.832
309.817
309.793
309.684
309.929
310.164
303.392
303.291
303.2
303.185
303.152
303.194
303.268
303.361
303.477
303.42
303.38
303.447
303.384
303.391
303.323
303.265
303.294
303.273
303.308
303.466
351.77
350.19
349.099
348.687
348.728
349.224
349.869
350.503
351.14
351.546
351.597
351.461
350.882
350.082
349.391
348.733
348.31
348.351
349.233
350.582
344.574
343.346
342.464
341.978
342.138
342.592
343.203
343.722
344.299
344.609
344.745
344.578
344.206
343.558
342.885
342.18
341.97
342.061
342.823
343.883
337.69
336.554
335.836
335.506
335.599
335.898
336.458
336.969
337.44
337.75
337.8
337.664
337.41
336.942
336.321
335.905
335.569
335.665
336.409
337.227
330.711
329.89
329.201
329.016
329.033
329.374
329.841
330.14
330.56
330.817
330.983
330.826
330.653
330.139
329.713
329.394
329.162
329.301
329.749
330.462
323.801
323.125
322.696
322.54
322.561
322.871
323.133
323.467
323.785
324.095
324.042
324.023
323.805
323.446
323.131
322.833
322.706
322.887
323.195
323.77
317.039
316.578
316.229
316.023
316.074
316.298
316.495
316.765
317.013
317.193
317.181
317.198
316.979
316.813
316.626
316.325
316.188
316.336
316.631
317.008
310.113
309.924
309.782
309.645
309.615
309.794
309.979
310.069
310.171
310.25
310.246
310.286
310.159
310.117
309.952
309.887
309.78
309.794
310.042
310.2
303.45
303.413
303.336
303.283
303.179
303.282
303.363
303.372
303.415
303.376
303.419
303.397
303.426
303.327
303.36
303.318
303.332
303.281
303.313
303.453
352.136
350.737
349.623
349.171
349.389
349.923
350.616
351.324
351.99
352.423
352.526
352.367
351.802
350.958
350.169
349.369
348.888
349.032
349.71
351.059
345.004
343.8
342.827
342.545
342.669
343.112
343.691
344.389
345.022
345.408
345.514
345.299
344.958
344.132
343.496
342.822
342.461
342.598
343.235
344.249
337.967
336.93
336.166
335.831
335.98
336.429
336.994
337.564
337.939
338.335
338.522
338.43
338.03
337.454
336.82
336.353
336.041
336.03
336.749
337.549
331.036
330.176
329.497
329.303
329.338
329.707
330.13
330.608
331.037
331.369
331.411
331.365
331.07
330.64
330.21
329.753
329.524
329.654
330.103
330.854
323.971
323.494
322.935
322.806
322.846
323.078
323.466
323.819
324.138
324.313
324.398
324.365
324.17
323.825
323.415
323.193
323.045
323.098
323.517
324.01
317.157
316.747
316.376
316.248
316.335
316.524
316.689
316.999
317.289
317.406
317.474
317.428
317.276
317.042
316.813
316.598
316.527
316.588
316.91
317.151
310.325
309.94
309.795
309.746
309.823
309.891
310.08
310.211
310.408
310.501
310.527
310.451
310.461
310.252
310.095
309.991
309.88
309.908
310.067
310.31
303.447
303.433
303.248
303.254
303.27
303.285
303.468
303.399
303.474
303.46
303.57
303.502
303.465
303.418
303.292
303.401
303.322
303.284
303.364
303.407
352.933
351.435
350.471
350.076
350.165
350.805
351.565
352.327
353.002
353.476
353.713
353.48
352.871
352.009
351.058
350.291
349.793
349.836
350.523
351.827
345.604
344.388
343.536
343.216
343.408
343.953
344.596
345.23
345.873
346.352
346.484
346.314
345.879
345.14
344.347
343.628
343.263
343.359
343.957
344.893
338.431
337.476
336.739
336.471
336.515
336.983
337.638
338.183
338.809
339.128
339.216
339.154
338.791
338.176
337.592
337.017
336.648
336.71
337.296
338.109
331.37
330.579
329.973
329.882
329.944
330.269
330.737
331.242
331.729
331.926
332.153
332.027
331.659
331.207
330.788
330.316
330.044
330.171
330.613
331.142
324.297
323.724
323.305
323.17
323.273
323.55
323.88
324.271
324.67
324.946
324.944
324.854
324.618
324.317
323.989
323.641
323.398
323.47
323.821
324.323
317.296
316.938
316.599
316.642
316.561
316.747
317.079
317.328
317.553
317.772
317.858
317.852
317.62
317.38
317.136
316.75
316.707
316.822
317.034
317.429
310.392
310.24
309.951
310.008
309.966
310.043
310.202
310.395
310.579
310.669
310.608
310.715
310.621
310.476
310.281
310.105
310.069
310.107
310.221
310.397
303.455
303.455
303.343
303.385
303.311
303.405
303.376
303.462
303.555
303.541
303.696
303.547
303.547
303.553
303.408
303.312
303.331
303.468
303.409
303.497
353.891
352.517
351.438
351.075
351.304
351.872
352.735
353.58
354.354
354.886
354.944
354.796
354.139
353.282
352.266
351.424
350.855
350.912
351.623
352.737
346.563
345.286
344.474
344.13
344.315
344.814
345.585
346.297
346.956
347.44
347.613
347.481
346.887
346.15
345.333
344.641
344.23
344.284
344.865
345.756
339.188
338.279
337.5
337.3
337.398
337.864
338.472
339.136
339.666
339.992
340.28
340.083
339.658
339.03
338.309
337.816
337.453
337.503
337.98
338.809
331.93
331.223
330.593
330.355
330.537
330.927
331.353
331.89
332.462
332.736
332.853
332.675
332.531
331.954
331.428
330.956
330.777
330.697
331.299
331.809
324.818
324.323
323.798
323.583
323.764
323.968
324.446
324.828
325.207
325.469
325.623
325.447
325.301
324.965
324.502
324.079
323.976
323.939
324.253
324.738
317.659
317.344
316.981
316.908
316.954
317.153
317.469
317.692
317.965
318.202
318.215
318.21
318.14
317.804
317.547
317.175
317.125
317.128
317.402
317.635
310.675
310.409
310.138
310.112
310.237
310.281
310.556
310.699
310.723
310.9
311.017
310.901
310.849
310.657
310.516
310.344
310.345
310.301
310.384
310.718
303.64
303.435
303.417
303.368
303.443
303.441
303.451
303.516
303.556
303.618
303.653
303.708
303.655
303.611
303.515
303.439
303.48
303.502
303.514
303.566
355.096
353.734
352.785
352.428
352.574
353.161
353.999
354.862
355.617
356.188
356.516
356.252
355.599
354.675
353.636
352.748
352.281
352.246
352.991
353.987
347.601
346.429
345.611
345.327
345.436
345.899
346.628
347.431
348.109
348.643
348.783
348.666
348.102
347.328
346.512
345.787
345.339
345.45
345.932
346.828
340.005
339.127
338.424
338.226
338.321
338.789
339.367
339.99
340.669
341.076
341.286
341.175
340.692
340.087
339.446
338.827
338.446
338.553
339.011
339.734
332.65
331.986
331.381
331.273
331.316
331.62
332.126
332.763
333.242
333.56
333.639
333.601
333.229
332.793
332.244
331.776
331.503
331.623
331.968
332.53
325.35
324.869
324.398
324.274
324.262
324.567
325.061
325.507
325.78
326.107
326.187
326.215
325.942
325.491
325.112
324.813
324.485
324.628
324.906
325.382
318.06
317.741
317.35
317.295
317.445
317.596
317.874
318.118
318.441
318.538
318.763
318.688
318.546
318.234
317.981
317.709
317.519
317.614
317.803
318.169
310.839
310.615
310.46
310.32
310.438
310.658
310.737
310.845
310.985
311.137
311.28
311.237
311.17
310.977
310.78
310.628
310.508
310.557
310.711
310.9
303.626
303.548
303.52
303.458
303.493
303.645
303.637
303.634
303.785
303.767
303.836
303.743
303.748
303.625
303.639
303.604
303.481
303.527
303.544
303.638
356.464
355.284
354.23
353.853
354.096
354.541
355.378
356.258
357.098
357.738
357.993
357.75
357.071
356.191
355.139
354.268
353.719
353.76
354.333
355.395
348.802
347.706
346.868
346.492
346.722
347.154
347.866
348.668
349.432
349.971
350.142
349.995
349.481
348.699
347.802
347.068
346.694
346.593
347.206
348.065
341.194
340.203
339.602
339.236
339.365
339.749
340.407
341.141
341.704
342.11
342.358
342.223
341.819
341.136
340.428
339.861
339.53
339.629
340.138
340.698
333.496
332.921
332.31
332.093
332.15
332.488
332.984
333.539
334.112
334.517
334.549
334.545
334.173
333.74
333.121
332.603
332.333
332.475
332.787
333.372
326.056
325.495
325.092
324.886
325.004
325.233
325.718
326.058
326.435
326.819
326.985
326.862
326.631
326.209
325.747
325.498
325.175
325.24
325.533
325.998
318.569
318.144
317.909
317.829
317.891
317.991
318.339
318.603
318.866
319.168
319.229
319.171
318.956
318.754
318.483
318.2
317.997
318.138
318.302
318.503
311.126
310.856
310.704
310.721
310.743
310.713
311.019
311.177
311.391
311.425
311.543
311.536
311.404
311.307
311.03
310.894
310.868
310.825
310.982
311.134
303.663
303.658
303.651
303.594
303.554
303.628
303.697
303.739
303.848
303.803
303.885
303.891
303.839
303.707
303.737
303.66
303.592
303.698
303.703
303.727
358.112
356.821
355.939
355.525
355.594
356.175
356.945
357.815
358.598
359.286
359.524
359.341
358.768
357.777
356.721
355.899
355.354
355.452
355.954
356.935
350.106
349.053
348.213
347.907
348.067
348.529
349.194
349.925
350.713
351.237
351.48
351.281
350.796
349.996
349.156
348.437
348.072
348.059
348.568
349.366
342.212
341.416
340.714
340.482
340.522
340.967
341.486
342.235
342.839
343.363
343.521
343.38
342.986
342.242
341.645
340.973
340.76
340.656
341.177
341.845
334.393
333.805
333.231
333.009
333.029
333.462
333.97
334.482
335.012
335.364
335.551
335.423
335.12
334.602
334.091
333.661
333.405
333.368
333.773
334.247
326.751
326.266
325.808
325.672
325.749
325.971
326.347
326.688
327.214
327.482
327.681
327.585
327.323
326.916
326.518
326.139
325.973
326.023
326.292
326.67
319.033
318.738
318.47
318.331
318.349
318.583
318.757
319.063
319.439
319.634
319.823
319.715
319.558
319.277
318.934
318.699
318.551
318.681
318.775
319.109
311.353
311.233
311.038
310.999
311.069
311.148
311.295
311.487
311.651
311.781
311.89
311.898
311.739
311.545
311.412
311.225
311.196
311.141
311.327
311.479
303.754
303.71
303.668
303.671
303.731
303.697
303.879
303.879
303.891
303.888
303.899
303.985
303.927
303.845
303.854
303.744
303.763
303.763
303.924
303.811
359.738
358.564
357.678
357.243
357.316
357.761
358.467
359.39
360.23
360.833
361.143
360.988
360.258
359.374
358.391
357.529
357.049
357.087
357.611
358.508
351.444
350.517
349.729
349.384
349.56
349.957
350.629
351.329
351.903
352.616
352.901
352.702
352.187
351.451
350.579
349.891
349.523
349.589
350.063
350.78
343.379
342.68
342.054
341.708
341.729
342.135
342.747
343.297
343.948
344.456
344.648
344.616
344.154
343.512
342.7
342.21
342.014
342.119
342.375
343.104
335.442
334.813
334.282
334.049
334.122
334.409
334.812
335.504
335.916
336.348
336.488
336.336
336.055
335.501
335.005
334.663
334.327
334.309
334.661
335.268
327.476
326.955
326.631
326.494
326.479
326.738
327.112
327.519
327.84
328.308
328.403
328.313
328.04
327.673
327.248
326.969
326.779
326.78
327.022
327.474
319.604
319.205
318.999
318.844
318.88
319.126
319.331
319.65
319.933
320.152
320.262
320.221
320.061
319.809
319.459
319.255
319.132
319.179
319.333
319.577
311.739
311.537
311.45
311.334
311.356
311.454
311.557
311.75
311.999
312.136
312.154
312.109
312.057
311.839
311.674
311.623
311.447
311.499
311.639
311.85
303.954
303.892
303.799
303.759
303.764
303.787
303.895
304.014
303.977
304.079
304.01
304.051
303.944
303.957
303.896
303.995
303.819
303.777
303.888
303.968
361.582
360.458
359.474
358.983
359.056
359.455
360.08
360.957
361.714
362.331
362.688
362.515
361.794
360.996
359.977
359.23
358.886
358.907
359.51
360.244
353.044
352.109
351.372
351
350.988
351.434
351.985
352.688
353.452
353.937
354.166
353.992
353.542
352.854
352.013
351.358
351.016
351.111
351.56
352.216
344.755
343.887
343.284
343.095
343.07
343.252
343.873
344.463
345.111
345.526
345.768
345.683
345.211
344.627
343.975
343.5
343.233
343.174
343.668
344.291
336.446
335.795
335.389
335.148
335.105
335.374
335.735
336.358
336.781
337.112
337.477
337.302
336.965
336.501
335.966
335.556
335.33
335.423
335.841
336.249
328.306
327.849
327.397
327.173
327.294
327.55
327.812
328.218
328.715
328.906
329.056
329.009
328.871
328.413
327.965
327.649
327.591
327.563
327.759
328.26
320.224
319.906
319.555
319.393
319.424
319.601
319.859
320.133
320.408
320.697
320.782
320.681
320.504
320.272
320.027
319.827
319.735
319.751
319.931
320.21
312.116
311.928
311.794
311.659
311.623
311.732
311.933
312.116
312.245
312.363
312.49
312.477
312.323
312.216
312.003
311.883
311.778
311.82
311.993
312.141
304.079
304.045
303.924
303.918
304.02
304.015
303.868
304.028
304.076
304.177
304.193
304.264
304.134
304.016
304.014
303.964
303.931
303.947
304.025
304.11
363.295
362.125
361.29
360.799
360.867
361.135
361.827
362.473
363.337
363.861
364.097
363.957
363.413
362.562
361.54
360.946
360.531
360.653
361.132
361.97
354.614
353.719
352.958
352.603
352.531
352.855
353.444
354.113
354.77
355.218
355.41
355.294
354.833
354.203
353.514
352.854
352.548
352.667
353.138
353.755
346.137
345.305
344.698
344.387
344.383
344.603
345.115
345.613
346.29
346.543
346.851
346.776
346.385
345.813
345.176
344.735
344.422
344.546
344.942
345.5
337.554
336.943
336.44
336.196
336.173
336.382
336.745
337.319
337.723
338.141
338.334
338.251
337.944
337.467
336.973
336.661
336.424
336.485
336.814
337.246
329.213
328.728
328.362
328.156
328.226
328.311
328.554
328.935
329.272
329.686
329.8
329.738
329.498
329.062
328.813
328.399
328.407
328.412
328.659
329.031
320.815
320.5
320.144
320.128
320.061
320.151
320.415
320.613
320.924
321.259
321.312
321.157
321.018
320.808
320.505
320.339
320.263
320.321
320.455
320.817
312.433
312.296
312.127
312.024
312.075
312.02
312.254
312.374
312.565
312.676
312.806
312.719
312.657
312.511
312.346
312.227
312.158
312.15
312.318
312.53
304.253
304.083
304.075
303.992
304.045
304.003
304.102
304.15
304.261
304.264
304.27
304.269
304.173
304.227
304.183
304.076
304.086
304.076
304.103
304.145
365.254
364.094
363.203
362.739
362.6
362.93
363.515
364.059
364.712
365.264
365.491
365.37
364.855
364.104
363.267
362.594
362.356
362.469
362.928
363.795
356.287
355.399
354.594
354.16
354.098
354.387
354.817
355.363
355.98
356.457
356.707
356.589
356.11
355.431
354.881
354.297
354.055
354.14
354.652
355.253
347.444
346.689
346.026
345.734
345.637
345.862
346.258
346.829
347.284
347.665
347.883
347.808
347.41
346.922
346.265
345.88
345.753
345.824
346.262
346.812
338.678
338.136
337.612
337.361
337.243
337.443
337.882
338.183
338.679
338.949
339.133
339.088
338.773
338.34
337.907
337.569
337.427
337.573
337.862
338.367
330.077
329.529
329.148
328.98
328.858
329.114
329.353
329.718
330.114
330.309
330.455
330.345
330.194
329.811
329.435
329.276
329.125
329.204
329.537
329.749
321.405
321.109
320.854
320.602
320.658
320.85
321.013
321.254
321.435
321.599
321.679
321.653
321.504
321.228
321.104
320.95
320.849
320.87
321.085
321.315
312.754
312.675
312.482
312.391
312.429
312.516
312.546
312.767
312.853
312.951
312.981
312.984
312.935
312.799
312.608
312.608
312.477
312.584
312.645
312.859
304.223
304.229
304.109
304.101
304.203
304.182
304.28
304.3
304.306
304.332
304.321
304.375
304.298
304.304
304.337
304.243
304.165
304.316
304.217
304.281
367.093
366.042
365.129
364.616
364.437
364.703
365.153
365.662
366.217
366.714
366.963
366.749
366.307
365.655
364.936
364.382
364.114
364.2
364.849
365.64
357.883
356.988
356.204
355.86
355.735
355.948
356.259
356.728
357.284
357.713
357.836
357.767
357.415
356.833
356.229
355.814
355.608
355.64
356.057
356.859
348.791
348.114
347.412
347.078
347.039
347.155
347.501
347.985
348.323
348.713
348.921
348.796
348.521
348.002
347.593
347.255
347.077
347.144
347.68
348.178
339.827
339.221
338.776
338.538
338.327
338.439
338.79
339.114
339.436
339.732
339.989
339.852
339.612
339.318
338.952
338.676
338.489
338.636
338.95
339.388
330.879
330.458
330.12
329.805
329.804
329.967
330.097
330.425
330.648
330.924
331.07
330.959
330.85
330.59
330.261
330.085
329.908
330.098
330.39
330.662
322.009
321.73
321.477
321.336
321.24
321.354
321.495
321.691
321.902
322.036
322.203
322.132
322.038
321.881
321.614
321.448
321.444
321.483
321.767
321.928
313.184
312.971
312.924
312.832
312.814
312.819
312.885
313.14
313.226
313.219
313.281
313.208
313.247
313.037
312.987
312.92
312.83
312.906
312.975
313.111
304.467
304.362
304.323
304.276
304.278
304.342
304.301
304.317
304.436
304.535
304.411
304.465
304.34
304.387
304.356
304.273
304.286
304.32
304.374
304.443
369.041
367.982
367.066
366.459
366.358
366.371
366.725
367.228
367.712
368.123
368.222
368.049
367.7
367.103
366.504
366.06
365.869
365.956
366.605
367.271
359.497
358.712
357.912
357.466
357.207
357.388
357.74
358.133
358.49
358.968
359.047
358.977
358.514
358.067
357.594
357.256
357.124
357.235
357.792
358.358
350.263
349.44
348.933
348.469
348.387
348.368
348.684
349.061
349.448
349.771
349.921
349.773
349.521
349.156
348.77
348.404
348.275
348.445
348.903
349.529
340.966
340.379
339.94
339.6
339.461
339.54
339.749
340.077
340.458
340.632
340.775
340.695
340.47
340.229
339.878
339.631
339.458
339.692
339.977
340.457
331.774
331.431
331.03
330.773
330.658
330.776
330.956
331.071
331.366
331.564
331.705
331.627
331.544
331.234
330.938
330.815
330.835
330.92
331.237
331.412
322.69
322.42
322.027
321.885
321.869
321.97
322.066
322.224
322.416
322.599
322.69
322.604
322.466
322.421
322.043
322.038
322.012
322.076
322.288
322.533
313.555
313.498
313.21
313.18
313.129
313.108
313.321
313.354
313.421
313.494
313.502
313.629
313.486
313.392
313.309
313.18
313.233
313.264
313.424
313.489
304.598
304.559
304.491
304.489
304.396
304.445
304.37
304.485
304.608
304.535
304.575
304.511
304.498
304.492
304.481
304.421
304.387
304.388
304.572
304.565
370.948
369.896
369.028
368.431
368.22
368.2
368.459
368.765
369.18
369.481
369.624
369.434
369.081
368.664
368.195
367.722
367.691
367.847
368.474
369.093
361.23
360.369
359.543
359.052
358.842
358.941
359.118
359.506
359.832
360.115
360.194
360.128
359.85
359.416
359.006
358.708
358.643
358.805
359.377
359.989
351.679
350.955
350.312
349.889
349.708
349.732
349.998
350.297
350.518
350.799
350.87
350.854
350.541
350.218
349.934
349.695
349.606
349.81
350.151
350.781
342.152
341.552
341.039
340.705
340.579
340.674
340.841
341.014
341.227
341.506
341.631
341.574
341.332
341.145
340.845
340.59
340.595
340.763
341.116
341.517
332.746
332.238
331.86
331.581
331.532
331.658
331.615
331.847
331.973
332.212
332.278
332.254
332.074
331.917
331.726
331.643
331.605
331.776
332.02
332.293
323.236
323.083
322.754
322.59
322.504
322.474
322.623
322.693
322.846
322.985
323.038
323.031
322.994
322.887
322.718
322.668
322.557
322.582
322.855
323.163
314.002
313.835
313.729
313.56
313.469
313.52
313.638
313.72
313.758
313.831
313.874
313.878
313.791
313.676
313.604
313.644
313.658
313.611
313.693
313.9
304.656
304.617
304.582
304.527
304.475
304.567
304.569
304.606
304.66
304.693
304.562
304.658
304.682
304.525
304.562
304.606
304.533
304.592
304.592
304.619
372.909
371.866
370.92
370.266
370.015
370.037
370.094
370.334
370.733
370.938
370.954
370.892
370.555
370.178
369.686
369.45
369.364
369.585
370.225
370.972
362.927
362.058
361.225
360.772
360.534
360.503
360.636
360.851
361.172
361.335
361.454
361.355
361.037
360.629
360.374
360.194
360.166
360.314
360.997
361.629
353.063
352.336
351.645
351.216
351.075
350.966
351.163
351.349
351.564
351.672
351.815
351.896
351.572
351.285
351.062
350.844
350.924
351.064
351.565
352.174
343.257
342.792
342.137
341.905
341.697
341.599
341.768
341.92
342.233
342.337
342.418
342.399
342.191
341.935
341.805
341.665
341.601
341.857
342.205
342.666
333.595
333.252
332.788
332.516
332.346
332.395
332.51
332.586
332.738
332.921
332.947
332.913
332.821
332.756
332.498
332.413
332.396
332.584
332.87
333.143
323.957
323.642
323.359
323.176
323.139
323.091
323.228
323.167
323.422
323.496
323.49
323.417
323.436
323.321
323.317
323.182
323.191
323.338
323.495
323.752
314.282
314.3
314.064
313.874
313.873
313.87
313.904
313.972
314.097
314.043
314.135
314.084
314.046
313.994
313.945
313.939
313.897
313.93
314.051
314.242
304.833
304.883
304.699
304.639
304.597
304.653
304.671
304.74
304.636
304.679
304.71
304.739
304.765
304.675
304.642
304.674
304.684
304.681
304.676
304.812
374.877
373.823
372.931
372.186
371.936
371.68
371.796
371.951
372.172
372.263
372.362
372.235
371.978
371.67
371.296
371.044
371.043
371.486
372.013
372.829
364.59
363.729
362.874
362.369
362.124
362.017
362.034
362.23
362.431
362.54
362.569
362.505
362.213
362.096
361.777
361.663
361.788
361.983
362.458
363.18
354.368
353.773
353.102
352.641
352.399
352.292
352.408
352.479
352.691
352.874
352.953
352.747
352.671
352.469
352.266
352.107
352.117
352.498
352.829
353.49
344.505
343.903
343.271
342.94
342.711
342.699
342.789
342.952
343.033
343.166
343.305
343.143
343.094
342.844
342.694
342.644
342.668
342.984
343.323
343.795
334.589
334.135
333.62
333.362
333.262
333.147
333.244
333.39
333.418
333.539
333.595
333.62
333.488
333.312
333.226
333.195
333.232
333.408
333.63
334.052
324.638
324.295
324.025
323.817
323.678
323.698
323.852
323.855
323.918
323.956
324.01
324.004
323.948
323.831
323.726
323.653
323.723
323.777
324.045
324.313
314.745
314.605
314.479
314.224
314.242
314.264
314.22
314.377
314.316
314.404
314.388
314.405
314.422
314.313
314.257
314.21
314.325
314.346
314.521
314.621
304.917
304.841
304.828
304.781
304.729
304.747
304.871
304.779
304.859
304.895
304.873
304.86
304.794
304.76
304.752
304.765
304.783
304.798
304.839
304.902
376.85
375.814
374.76
374.053
373.63
373.471
373.401
373.507
373.687
373.745
373.769
373.618
373.381
373.138
372.899
372.818
372.864
373.271
373.804
374.668
366.206
365.404
364.577
363.893
363.645
363.319
363.489
363.58
363.665
363.763
363.799
363.645
363.529
363.366
363.072
363.064
363.152
363.507
364
364.748
355.827
355.146
354.543
353.978
353.652
353.496
353.605
353.696
353.701
353.858
353.838
353.871
353.632
353.566
353.352
353.278
353.449
353.725
354.134
354.818
345.536
345.051
344.462
344.056
343.762
343.78
343.746
343.814
343.932
343.978
344.025
343.966
343.937
343.748
343.67
343.7
343.707
343.867
344.253
344.76
335.299
334.989
334.534
334.22
334.013
333.969
333.921
334.081
334.075
334.236
334.165
334.177
334.101
334.105
333.967
333.877
333.997
334.233
334.514
334.849
325.242
324.89
324.651
324.459
324.296
324.271
324.269
324.232
324.391
324.437
324.467
324.448
324.376
324.333
324.262
324.255
324.301
324.386
324.618
324.946
315.11
314.953
314.878
314.718
314.578
314.527
314.543
314.59
314.68
314.67
314.695
314.651
314.624
314.587
314.601
314.514
314.569
314.665
314.745
315.01
305.131
305.01
305.014
304.892
304.86
304.895
304.834
304.943
304.912
304.905
304.985
304.833
304.905
304.904
304.907
304.904
304.867
304.94
304.924
305.072
378.505
377.456
376.428
375.787
375.338
375.117
374.926
374.943
375.081
374.996
375.066
375.001
374.789
374.545
374.354
374.258
374.47
374.816
375.555
376.37
367.682
366.826
366.025
365.424
364.975
364.756
364.739
364.807
364.773
364.958
364.907
364.847
364.607
364.551
364.433
364.286
364.489
364.776
365.438
366.14
357.118
356.31
355.671
355.191
354.843
354.69
354.643
354.618
354.727
354.806
354.801
354.759
354.636
354.518
354.486
354.403
354.568
354.843
355.391
355.91
346.585
345.954
345.428
345.048
344.76
344.614
344.579
344.672
344.69
344.824
344.841
344.789
344.733
344.517
344.547
344.401
344.612
344.912
345.339
345.7
336.1
335.665
335.21
334.961
334.705
334.655
334.613
334.674
334.717
334.739
334.825
334.781
334.702
334.681
334.588
334.583
334.704
334.904
335.193
335.567
325.844
325.447
325.159
324.981
324.82
324.673
324.758
324.629
324.891
324.825
324.719
324.769
324.766
324.755
324.662
324.702
324.781
324.856
325.139
325.395
315.43
315.277
315.173
314.999
314.86
314.867
314.935
314.831
314.945
314.88
314.933
314.936
314.9
314.851
314.83
314.853
314.814
314.885
315.107
315.273
305.119
305.09
305.172
305.102
304.985
304.988
304.98
304.915
304.986
305.048
304.952
305.056
304.98
304.975
304.895
305.021
304.999
305.03
305.149
305.236
379.797
378.755
377.778
377.033
376.575
376.235
376.022
376.065
376.105
376.158
376.079
375.945
375.814
375.659
375.566
375.468
375.688
376.079
376.85
377.621
368.812
367.912
367.072
366.439
366.023
365.696
365.71
365.69
365.722
365.758
365.744
365.652
365.546
365.353
365.341
365.32
365.518
365.843
366.465
367.226
357.907
357.278
356.546
356.031
355.577
355.472
355.366
355.426
355.489
355.524
355.464
355.412
355.362
355.277
355.092
355.096
355.353
355.711
356.184
356.793
347.255
346.604
346.008
345.687
345.526
345.259
345.217
345.234
345.244
345.317
345.335
345.298
345.208
345.127
345
345.093
345.238
345.53
345.952
346.389
336.661
336.193
335.821
335.431
335.259
335.166
335.152
335.095
335.08
335.205
335.268
335.184
335.148
335.113
334.994
335.07
335.203
335.411
335.679
336.095
326.167
325.824
325.569
325.293
325.077
325.064
324.984
324.972
325.104
325.084
325.103
325.078
325.044
324.968
325.053
325.032
325.094
325.297
325.498
325.78
315.69
315.503
315.298
315.176
315.038
315.068
315.062
314.966
315.066
315.107
314.992
315.053
315.018
315.01
315.066
315.008
315.071
315.17
315.285
315.525
305.22
305.236
305.086
305.119
305.048
305.021
305.096
305.038
305.025
305.035
305.028
305.114
305.06
305.082
305.038
305.073
305.088
305.086
305.134
305.168
)
;

boundaryField
{
    hotSide
    {
        type            fixedGradient;
        gradient        nonuniform List<scalar> 
400
(
321.511
322.87
325.591
329.677
335.133
341.965
350.181
359.788
370.794
383.208
397.037
412.289
428.971
447.088
466.647
487.651
510.105
534.011
559.372
586.191
323.738
325.08
327.767
331.802
337.194
343.949
352.078
361.591
372.498
384.81
398.537
413.687
430.268
448.289
467.755
488.672
511.043
534.872
560.161
586.913
326.149
327.47
330.116
334.091
339.406
346.071
354.099
363.503
374.296
386.491
400.101
415.136
431.606
449.52
468.885
489.706
511.988
535.735
560.948
587.63
328.704
330
332.597
336.503
341.73
348.292
356.205
365.485
376.15
388.215
401.695
416.604
432.954
450.753
470.009
490.73
512.919
536.579
561.714
588.325
331.33
332.599
335.142
338.97
344.099
350.546
358.332
367.477
378.003
389.928
403.271
418.047
434.27
451.949
471.095
491.712
513.807
537.382
562.439
588.978
333.918
335.158
337.643
341.389
346.414
352.74
360.392
369.397
379.779
391.562
404.765
419.407
435.503
453.065
472.101
492.618
514.622
538.114
563.096
589.569
336.321
337.531
339.959
343.622
348.544
354.751
362.274
371.142
381.385
393.031
406.101
420.618
436.595
454.047
472.983
493.409
515.33
538.747
563.663
590.076
338.36
339.543
341.92
345.509
350.339
356.44
363.847
372.595
382.718
394.244
407.2
421.608
437.485
454.844
473.695
494.045
515.897
539.253
564.114
590.478
339.852
341.015
343.352
346.885
351.645
357.665
364.985
373.643
383.675
395.113
407.984
422.312
438.116
455.407
474.197
494.491
516.294
539.606
564.428
590.758
340.643
341.795
344.11
347.613
352.334
358.311
365.584
374.193
384.176
395.567
408.393
422.679
438.443
455.699
474.456
494.722
516.498
539.788
564.589
590.901
340.643
341.795
344.11
347.613
352.334
358.311
365.584
374.193
384.176
395.567
408.393
422.679
438.443
455.699
474.456
494.722
516.498
539.788
564.589
590.901
339.852
341.015
343.352
346.885
351.645
357.665
364.985
373.643
383.675
395.113
407.984
422.312
438.116
455.407
474.197
494.491
516.294
539.606
564.428
590.758
338.36
339.543
341.92
345.509
350.339
356.44
363.847
372.595
382.718
394.244
407.2
421.608
437.485
454.844
473.695
494.045
515.897
539.253
564.114
590.478
336.321
337.531
339.959
343.622
348.544
354.751
362.274
371.142
381.385
393.031
406.101
420.618
436.595
454.047
472.983
493.409
515.33
538.747
563.663
590.076
333.918
335.158
337.643
341.389
346.414
352.74
360.392
369.397
379.779
391.562
404.765
419.407
435.503
453.065
472.101
492.618
514.622
538.114
563.096
589.569
331.33
332.599
335.142
338.97
344.099
350.546
358.332
367.477
378.003
389.928
403.271
418.047
434.27
451.949
471.095
491.712
513.807
537.382
562.439
588.978
328.704
330
332.597
336.503
341.73
348.292
356.205
365.485
376.15
388.215
401.695
416.604
432.954
450.753
470.009
490.73
512.919
536.579
561.714
588.325
326.149
327.47
330.116
334.091
339.406
346.071
354.099
363.503
374.296
386.491
400.101
415.136
431.606
449.52
468.885
489.706
511.988
535.735
560.948
587.63
323.738
325.08
327.767
331.802
337.194
343.949
352.078
361.591
372.498
384.81
398.537
413.687
430.268
448.289
467.755
488.672
511.043
534.872
560.161
586.913
321.511
322.87
325.591
329.677
335.133
341.965
350.181
359.788
370.794
383.208
397.037
412.289
428.971
447.088
466.647
487.651
510.105
534.011
559.372
586.191
)
;
    }
    coldSide
    {
        type            mixed;
        refValue        uniform 300;
        refGradient     uniform 0;
        valueFraction   uniform 0.991591;
        source          uniform 0;
        value           nonuniform List<scalar> 
400
(
300.029
300.029
300.029
300.029
300.031
300.03
300.031
300.032
300.033
300.034
300.036
300.036
300.038
300.039
300.039
300.041
300.041
300.043
300.043
300.044
300.028
300.029
300.029
300.029
300.029
300.03
300.031
300.031
300.033
300.034
300.034
300.036
300.037
300.038
300.039
300.041
300.041
300.042
300.043