/*--------------------------------*- C++ -*----------------------------------*\
| =========                 |                                                 |
| \\      /  F ield         | OpenFOAM: The Open Source CFD Toolbox           |
|  \\    /   O peration     | Version:  2212                                  |
|   \\  /    A nd           | Website:  www.openfoam.com                      |
|    \\/     M anipulation  |                                                 |
\*---------------------------------------------------------------------------*/
FoamFile
{
    version     2.0;
    format      ascii;
    arch        "LSB;label=32;scalar=64";
    class       volScalarField;
    location    "./ITHACAoutput/true/8.4";
    object      trueState;
}
// * * * * * * * * * * * * * * * * * * * * * * * * * * * * * * * * * * * * * //

dimensions      [0 0 0 1 0 0 0];

internalField   nonuniform List<scalar> 
3200
(
346.642
347.182
347.872
348.623
349.397
350.157
350.858
351.45
351.882
352.109
352.109
351.882
351.45
350.858
350.157
349.397
348.623
347.872
347.182
346.642
340.503
340.96
341.555
342.205
342.875
343.532
344.138
344.65
345.022
345.219
345.219
345.022
344.65
344.138
343.532
342.875
342.205
341.555
340.96
340.503
334.331
334.71
335.211
335.76
336.326
336.882
337.394
337.825
338.139
338.305
338.305
338.139
337.825
337.394
336.882
336.326
335.76
335.211
334.71
334.331
328.131
328.436
328.844
329.293
329.756
330.21
330.628
330.98
331.237
331.372
331.372
331.237
330.98
330.628
330.21
329.756
329.293
328.844
328.436
328.131
321.908
322.143
322.46
322.809
323.168
323.521
323.846
324.119
324.318
324.424
324.424
324.318
324.119
323.846
323.521
323.168
322.809
322.46
322.143
321.908
315.669
315.835
316.061
316.31
316.567
316.818
317.05
317.245
317.388
317.463
317.463
317.388
317.245
317.05
316.818
316.567
316.31
316.061
315.835
315.669
309.417
309.516
309.651
309.801
309.955
310.106
310.245
310.363
310.448
310.493
310.493
310.448
310.363
310.245
310.106
309.955
309.801
309.651
309.516
309.417
303.157
303.191
303.236
303.286
303.338
303.388
303.435
303.474
303.503
303.518
303.518
303.503
303.474
303.435
303.388
303.338
303.286
303.236
303.191
303.157
346.808
347.344
348.027
348.772
349.538
350.289
350.983
351.567
351.993
352.218
352.218
351.993
351.567
350.983
350.289
349.538
348.772
348.027
347.344
346.808
340.647
341.1
341.69
342.334
342.997
343.647
344.246
344.751
345.119
345.313
345.313
345.119
344.751
344.246
343.647
342.997
342.334
341.69
341.1
340.647
334.452
334.829
335.325
335.87
336.43
336.979
337.485
337.911
338.222
338.385
338.385
338.222
337.911
337.485
336.979
336.43
335.87
335.325
334.829
334.452
328.23
328.533
328.938
329.383
329.841
330.29
330.703
331.051
331.304
331.438
331.438
331.304
331.051
330.703
330.29
329.841
329.383
328.938
328.533
328.23
321.986
322.219
322.533
322.878
323.234
323.583
323.904
324.174
324.371
324.475
324.475
324.371
324.174
323.904
323.583
323.234
322.878
322.533
322.219
321.986
315.724
315.889
316.113
316.36
316.614
316.863
317.092
317.285
317.425
317.499
317.499
317.425
317.285
317.092
316.863
316.614
316.36
316.113
315.889
315.724
309.45
309.548
309.683
309.831
309.983
310.133
310.271
310.386
310.471
310.515
310.515
310.471
310.386
310.271
310.133
309.983
309.831
309.683
309.548
309.45
303.169
303.201
303.246
303.296
303.347
303.397
303.443
303.482
303.51
303.525
303.525
303.51
303.482
303.443
303.397
303.347
303.296
303.246
303.201
303.169
347.14
347.667
348.339
349.07
349.821
350.556
351.233
351.803
352.218
352.437
352.437
352.218
351.803
351.233
350.556
349.821
349.07
348.339
347.667
347.14
340.935
341.381
341.961
342.593
343.243
343.879
344.464
344.957
345.315
345.504
345.504
345.315
344.957
344.464
343.879
343.243
342.593
341.961
341.381
340.935
334.696
335.066
335.555
336.089
336.638
337.176
337.67
338.086
338.388
338.548
338.548
338.388
338.086
337.67
337.176
336.638
336.089
335.555
335.066
334.696
328.43
328.728
329.126
329.563
330.012
330.451
330.855
331.194
331.441
331.571
331.571
331.441
331.194
330.855
330.451
330.012
329.563
329.126
328.728
328.43
322.141
322.37
322.679
323.018
323.367
323.709
324.022
324.286
324.478
324.579
324.579
324.478
324.286
324.022
323.709
323.367
323.018
322.679
322.37
322.141
315.835
315.997
316.217
316.46
316.709
316.953
317.177
317.365
317.502
317.574
317.574
317.502
317.365
317.177
316.953
316.709
316.46
316.217
315.997
315.835
309.517
309.614
309.746
309.891
310.041
310.187
310.321
310.434
310.516
310.56
310.56
310.516
310.434
310.321
310.187
310.041
309.891
309.746
309.614
309.517
303.191
303.223
303.268
303.316
303.366
303.415
303.46
303.498
303.526
303.54
303.54
303.526
303.498
303.46
303.415
303.366
303.316
303.268
303.223
303.191
347.64
348.155
348.81
349.521
350.249
350.961
351.615
352.165
352.564
352.774
352.774
352.564
352.165
351.615
350.961
350.249
349.521
348.81
348.155
347.64
341.368
341.804
342.369
342.984
343.614
344.23
344.796
345.271
345.616
345.798
345.798
345.616
345.271
344.796
344.23
343.614
342.984
342.369
341.804
341.368
335.063
335.425
335.901
336.42
336.953
337.474
337.951
338.353
338.644
338.797
338.797
338.644
338.353
337.951
337.474
336.953
336.42
335.901
335.425
335.063
328.73
329.021
329.41
329.834
330.27
330.695
331.085
331.413
331.651
331.776
331.776
331.651
331.413
331.085
330.695
330.27
329.834
329.41
329.021
328.73
322.375
322.599
322.9
323.23
323.568
323.899
324.202
324.457
324.641
324.738
324.738
324.641
324.457
324.202
323.899
323.568
323.23
322.9
322.599
322.375
316.002
316.161
316.375
316.611
316.853
317.089
317.305
317.487
317.619
317.688
317.688
317.619
317.487
317.305
317.089
316.853
316.611
316.375
316.161
316.002
309.617
309.712
309.84
309.982
310.127
310.269
310.399
310.508
310.587
310.628
310.628
310.587
310.508
310.399
310.269
310.127
309.982
309.84
309.712
309.617
303.225
303.256
303.299
303.347
303.395
303.443
303.486
303.523
303.549
303.563
303.563
303.549
303.523
303.486
303.443
303.395
303.347
303.299
303.256
303.225
348.308
348.808
349.441
350.126
350.827
351.509
352.134
352.658
353.038
353.238
353.238
353.038
352.658
352.134
351.509
350.827
350.126
349.441
348.808
348.308
341.948
342.37
342.917
343.51
344.116
344.706
345.247
345.7
346.028
346.201
346.201
346.028
345.7
345.247
344.706
344.116
343.51
342.917
342.37
341.948
335.554
335.904
336.365
336.866
337.379
337.877
338.334
338.717
338.994
339.14
339.14
338.994
338.717
338.334
337.877
337.379
336.866
336.365
335.904
335.554
329.132
329.414
329.79
330.199
330.618
331.026
331.399
331.712
331.938
332.057
332.057
331.938
331.712
331.399
331.026
330.618
330.199
329.79
329.414
329.132
322.688
322.904
323.196
323.514
323.84
324.157
324.447
324.689
324.865
324.958
324.958
324.865
324.689
324.447
324.157
323.84
323.514
323.196
322.904
322.688
316.226
316.379
316.587
316.814
317.047
317.273
317.48
317.654
317.779
317.845
317.845
317.779
317.654
317.48
317.273
317.047
316.814
316.587
316.379
316.226
309.752
309.843
309.968
310.104
310.244
310.38
310.504
310.608
310.683
310.723
310.723
310.683
310.608
310.504
310.38
310.244
310.104
309.968
309.843
309.752
303.27
303.3
303.342
303.388
303.435
303.48
303.522
303.557
303.582
303.595
303.595
303.582
303.557
303.522
303.48
303.435
303.388
303.342
303.3
303.27
349.148
349.628
350.236
350.892
351.559
352.207
352.798
353.293
353.65
353.838
353.838
353.65
353.293
352.798
352.207
351.559
350.892
350.236
349.628
349.148
342.676
343.083
343.607
344.174
344.752
345.313
345.824
346.252
346.561
346.723
346.723
346.561
346.252
345.824
345.313
344.752
344.174
343.607
343.083
342.676
336.17
336.508
336.95
337.429
337.918
338.392
338.824
339.185
339.446
339.583
339.583
339.446
339.185
338.824
338.392
337.918
337.429
336.95
336.508
336.17
329.637
329.908
330.269
330.661
331.06
331.447
331.801
332.096
332.309
332.421
332.421
332.309
332.096
331.801
331.447
331.06
330.661
330.269
329.908
329.637
323.081
323.289
323.569
323.873
324.184
324.485
324.759
324.989
325.154
325.241
325.241
325.154
324.989
324.759
324.485
324.184
323.873
323.569
323.289
323.081
316.507
316.654
316.853
317.071
317.293
317.508
317.704
317.868
317.986
318.048
318.048
317.986
317.868
317.704
317.508
317.293
317.071
316.853
316.654
316.507
309.92
310.008
310.128
310.258
310.392
310.521
310.638
310.737
310.808
310.845
310.845
310.808
310.737
310.638
310.521
310.392
310.258
310.128
310.008
309.92
303.326
303.356
303.396
303.439
303.484
303.527
303.567
303.6
303.623
303.636
303.636
303.623
303.6
303.567
303.527
303.484
303.439
303.396
303.356
303.326
350.161
350.62
351.2
351.822
352.453
353.062
353.617
354.078
354.412
354.586
354.586
354.412
354.078
353.617
353.062
352.453
351.822
351.2
350.62
350.161
343.554
343.943
344.443
344.982
345.528
346.055
346.535
346.935
347.223
347.374
347.374
347.223
346.935
346.535
346.055
345.528
344.982
344.443
343.943
343.554
336.914
337.237
337.658
338.113
338.575
339.021
339.426
339.764
340.007
340.135
340.135
340.007
339.764
339.426
339.021
338.575
338.113
337.658
337.237
336.914
330.246
330.505
330.849
331.221
331.599
331.963
332.295
332.571
332.769
332.874
332.874
332.769
332.571
332.295
331.963
331.599
331.221
330.849
330.505
330.246
323.555
323.754
324.02
324.309
324.603
324.887
325.144
325.359
325.513
325.594
325.594
325.513
325.359
325.144
324.887
324.603
324.309
324.02
323.754
323.555
316.845
316.987
317.176
317.383
317.593
317.795
317.979
318.132
318.243
318.3
318.3
318.243
318.132
317.979
317.795
317.593
317.383
317.176
316.987
316.845
310.124
310.208
310.322
310.446
310.572
310.693
310.804
310.896
310.962
310.997
310.997
310.962
310.896
310.804
310.693
310.572
310.446
310.322
310.208
310.124
303.394
303.423
303.461
303.502
303.545
303.585
303.622
303.653
303.675
303.687
303.687
303.675
303.653
303.622
303.585
303.545
303.502
303.461
303.423
303.394
351.35
351.786
352.334
352.921
353.513
354.082
354.597
355.025
355.333
355.494
355.494
355.333
355.025
354.597
354.082
353.513
352.921
352.334
351.786
351.35
344.585
344.955
345.428
345.935
346.448
346.941
347.387
347.757
348.023
348.163
348.163
348.023
347.757
347.387
346.941
346.448
345.935
345.428
344.955
344.585
337.787
338.094
338.492
338.921
339.355
339.771
340.149
340.461
340.686
340.804
340.804
340.686
340.461
340.149
339.771
339.355
338.921
338.492
338.094
337.787
330.96
331.207
331.532
331.883
332.237
332.578
332.886
333.142
333.326
333.422
333.422
333.326
333.142
332.886
332.578
332.237
331.883
331.532
331.207
330.96
324.111
324.3
324.552
324.825
325.1
325.365
325.605
325.804
325.947
326.022
326.022
325.947
325.804
325.605
325.365
325.1
324.825
324.552
324.3
324.111
317.243
317.377
317.557
317.752
317.948
318.138
318.309
318.451
318.553
318.606
318.606
318.553
318.451
318.309
318.138
317.948
317.752
317.557
317.377
317.243
310.363
310.443
310.55
310.667
310.786
310.899
311.002
311.087
311.148
311.18
311.18
311.148
311.087
311.002
310.899
310.786
310.667
310.55
310.443
310.363
303.475
303.501
303.537
303.577
303.616
303.654
303.689
303.717
303.738
303.749
303.749
303.738
303.717
303.689
303.654
303.616
303.577
303.537
303.501
303.475
352.717
353.129
353.645
354.194
354.745
355.273
355.749
356.142
356.424
356.572
356.572
356.424
356.142
355.749
355.273
354.745
354.194
353.645
353.129
352.717
345.771
346.12
346.565
347.04
347.518
347.975
348.387
348.727
348.971
349.099
349.099
348.971
348.727
348.387
347.975
347.518
347.04
346.565
346.12
345.771
338.791
339.08
339.456
339.857
340.261
340.648
340.996
341.284
341.49
341.598
341.598
341.49
341.284
340.996
340.648
340.261
339.857
339.456
339.08
338.791
331.782
332.015
332.321
332.65
332.98
333.296
333.581
333.816
333.985
334.073
334.073
333.985
333.816
333.581
333.296
332.98
332.65
332.321
332.015
331.782
324.75
324.929
325.166
325.422
325.679
325.925
326.146
326.329
326.46
326.529
326.529
326.46
326.329
326.146
325.925
325.679
325.422
325.166
324.929
324.75
317.7
317.827
317.996
318.178
318.362
318.538
318.696
318.826
318.92
318.969
318.969
318.92
318.826
318.696
318.538
318.362
318.178
317.996
317.827
317.7
310.637
310.713
310.814
310.924
311.034
311.14
311.234
311.313
311.369
311.398
311.398
311.369
311.313
311.234
311.14
311.034
310.924
310.814
310.713
310.637
303.567
303.592
303.626
303.663
303.699
303.735
303.767
303.793
303.812
303.822
303.822
303.812
303.793
303.767
303.735
303.699
303.663
303.626
303.592
303.567
354.264
354.652
355.135
355.646
356.156
356.643
357.079
357.438
357.695
357.829
357.829
357.695
357.438
357.079
356.643
356.156
355.646
355.135
354.652
354.264
347.113
347.441
347.858
348.3
348.743
349.164
349.542
349.853
350.075
350.191
350.191
350.075
349.853
349.542
349.164
348.743
348.3
347.858
347.441
347.113
339.928
340.2
340.551
340.925
341.299
341.655
341.975
342.238
342.426
342.524
342.524
342.426
342.238
341.975
341.655
341.299
340.925
340.551
340.2
339.928
332.713
332.932
333.218
333.524
333.83
334.122
334.383
334.598
334.752
334.832
334.832
334.752
334.598
334.383
334.122
333.83
333.524
333.218
332.932
332.713
325.475
325.643
325.865
326.103
326.341
326.567
326.771
326.938
327.057
327.119
327.119
327.057
326.938
326.771
326.567
326.341
326.103
325.865
325.643
325.475
318.218
318.337
318.495
318.665
318.835
318.997
319.142
319.262
319.347
319.392
319.392
319.347
319.262
319.142
318.997
318.835
318.665
318.495
318.337
318.218
310.948
311.019
311.114
311.216
311.318
311.416
311.503
311.575
311.626
311.653
311.653
311.626
311.575
311.503
311.416
311.318
311.216
311.114
311.019
310.948
303.671
303.695
303.726
303.761
303.795
303.827
303.857
303.881
303.898
303.907
303.907
303.898
303.881
303.857
303.827
303.795
303.761
303.726
303.695
303.671
355.996
356.358
356.807
357.281
357.751
358.197
358.594
358.921
359.153
359.274
359.274
359.153
358.921
358.594
358.197
357.751
357.281
356.807
356.358
355.996
348.615
348.921
349.309
349.719
350.127
350.513
350.857
351.14
351.341
351.446
351.446
351.341
351.14
350.857
350.513
350.127
349.719
349.309
348.921
348.615
341.199
341.453
341.78
342.127
342.472
342.798
343.09
343.329
343.499
343.588
343.588
343.499
343.329
343.09
342.798
342.472
342.127
341.78
341.453
341.199
333.754
333.958
334.225
334.508
334.791
335.058
335.296
335.492
335.631
335.703
335.703
335.631
335.492
335.296
335.058
334.791
334.508
334.225
333.958
333.754
326.285
326.442
326.649
326.869
327.088
327.296
327.482
327.634
327.742
327.798
327.798
327.742
327.634
327.482
327.296
327.088
326.869
326.649
326.442
326.285
318.797
318.908
319.056
319.213
319.37
319.518
319.651
319.76
319.837
319.877
319.877
319.837
319.76
319.651
319.518
319.37
319.213
319.056
318.908
318.797
311.296
311.363
311.451
311.546
311.64
311.729
311.809
311.874
311.92
311.944
311.944
311.92
311.874
311.809
311.729
311.64
311.546
311.451
311.363
311.296
303.788
303.81
303.839
303.871
303.903
303.932
303.959
303.981
303.997
304.005
304.005
303.997
303.981
303.959
303.932
303.903
303.871
303.839
303.81
303.788
357.912
358.249
358.666
359.102
359.533
359.94
360.301
360.596
360.806
360.914
360.914
360.806
360.596
360.301
359.94
359.533
359.102
358.666
358.249
357.912
350.277
350.562
350.922
351.3
351.674
352.026
352.339
352.594
352.776
352.87
352.87
352.776
352.594
352.339
352.026
351.674
351.3
350.922
350.562
350.277
342.606
342.843
343.146
343.466
343.782
344.08
344.345
344.561
344.715
344.794
344.794
344.715
344.561
344.345
344.08
343.782
343.466
343.146
342.843
342.606
334.906
335.097
335.344
335.605
335.864
336.108
336.324
336.501
336.627
336.692
336.692
336.627
336.501
336.324
336.108
335.864
335.605
335.344
335.097
334.906
327.181
327.328
327.519
327.723
327.924
328.114
328.282
328.42
328.517
328.568
328.568
328.517
328.42
328.282
328.114
327.924
327.723
327.519
327.328
327.181
319.438
319.542
319.678
319.823
319.967
320.103
320.223
320.322
320.391
320.428
320.428
320.391
320.322
320.223
320.103
319.967
319.823
319.678
319.542
319.438
311.681
311.743
311.825
311.912
311.999
312.08
312.152
312.211
312.253
312.275
312.275
312.253
312.211
312.152
312.08
311.999
311.912
311.825
311.743
311.681
303.917
303.937
303.965
303.994
304.023
304.05
304.074
304.094
304.108
304.116
304.116
304.108
304.094
304.074
304.05
304.023
303.994
303.965
303.937
303.917
360.014
360.327
360.712
361.113
361.507
361.876
362.203
362.469
362.657
362.754
362.754
362.657
362.469
362.203
361.876
361.507
361.113
360.712
360.327
360.014
352.101
352.365
352.697
353.045
353.386
353.706
353.989
354.22
354.383
354.467
354.467
354.383
354.22
353.989
353.706
353.386
353.045
352.697
352.365
352.101
344.151
344.37
344.65
344.944
345.233
345.504
345.743
345.938
346.076
346.147
346.147
346.076
345.938
345.743
345.504
345.233
344.944
344.65
344.37
344.151
336.17
336.347
336.575
336.815
337.052
337.274
337.47
337.629
337.742
337.8
337.8
337.742
337.629
337.47
337.274
337.052
336.815
336.575
336.347
336.17
328.165
328.301
328.478
328.665
328.849
329.021
329.174
329.298
329.386
329.431
329.431
329.386
329.298
329.174
329.021
328.849
328.665
328.478
328.301
328.165
320.141
320.237
320.364
320.497
320.629
320.752
320.861
320.949
321.012
321.045
321.045
321.012
320.949
320.861
320.752
320.629
320.497
320.364
320.237
320.141
312.104
312.161
312.237
312.317
312.396
312.47
312.536
312.589
312.626
312.646
312.646
312.626
312.589
312.536
312.47
312.396
312.317
312.237
312.161
312.104
304.058
304.077
304.103
304.13
304.156
304.181
304.203
304.221
304.233
304.24
304.24
304.233
304.221
304.203
304.181
304.156
304.13
304.103
304.077
304.058
362.304
362.593
362.947
363.314
363.673
364.008
364.302
364.541
364.709
364.796
364.796
364.709
364.541
364.302
364.008
363.673
363.314
362.947
362.593
362.304
354.086
354.331
354.636
354.954
355.265
355.555
355.811
356.017
356.163
356.239
356.239
356.163
356.017
355.811
355.555
355.265
354.954
354.636
354.331
354.086
345.831
346.034
346.292
346.561
346.824
347.07
347.286
347.461
347.584
347.648
347.648
347.584
347.461
347.286
347.07
346.824
346.561
346.292
346.034
345.831
337.546
337.71
337.92
338.14
338.355
338.556
338.733
338.876
338.977
339.029
339.029
338.977
338.876
338.733
338.556
338.355
338.14
337.92
337.71
337.546
329.236
329.362
329.524
329.696
329.863
330.02
330.157
330.269
330.347
330.388
330.388
330.347
330.269
330.157
330.02
329.863
329.696
329.524
329.362
329.236
320.907
320.996
321.112
321.234
321.354
321.466
321.564
321.643
321.7
321.729
321.729
321.7
321.643
321.564
321.466
321.354
321.234
321.112
320.996
320.907
312.564
312.617
312.686
312.76
312.832
312.899
312.958
313.006
313.039
313.057
313.057
313.039
313.006
312.958
312.899
312.832
312.76
312.686
312.617
312.564
304.212
304.23
304.253
304.278
304.302
304.325
304.345
304.361
304.372
304.378
304.378
304.372
304.361
304.345
304.325
304.302
304.278
304.253
304.23
304.212
364.776
365.043
365.368
365.704
366.03
366.332
366.597
366.811
366.961
367.039
367.039
366.961
366.811
366.597
366.332
366.03
365.704
365.368
365.043
364.776
356.229
356.455
356.736
357.026
357.309
357.571
357.801
357.986
358.116
358.184
358.184
358.116
357.986
357.801
357.571
357.309
357.026
356.736
356.455
356.229
347.646
347.833
348.069
348.315
348.554
348.776
348.971
349.128
349.238
349.295
349.295
349.238
349.128
348.971
348.776
348.554
348.315
348.069
347.833
347.646
339.031
339.182
339.375
339.576
339.771
339.953
340.112
340.241
340.331
340.377
340.377
340.331
340.241
340.112
339.953
339.771
339.576
339.375
339.182
339.031
330.391
330.507
330.657
330.813
330.965
331.107
331.231
331.33
331.401
331.437
331.437
331.401
331.33
331.231
331.107
330.965
330.813
330.657
330.507
330.391
321.732
321.814
321.921
322.033
322.141
322.243
322.331
322.402
322.453
322.479
322.479
322.453
322.402
322.331
322.243
322.141
322.033
321.921
321.814
321.732
313.06
313.108
313.172
313.24
313.305
313.366
313.419
313.462
313.492
313.507
313.507
313.492
313.462
313.419
313.366
313.305
313.24
313.172
313.108
313.06
304.379
304.395
304.416
304.439
304.461
304.481
304.499
304.513
304.524
304.529
304.529
304.524
304.513
304.499
304.481
304.461
304.439
304.416
304.395
304.379
367.422
367.667
367.965
368.271
368.566
368.839
369.077
369.268
369.402
369.472
369.472
369.402
369.268
369.077
368.839
368.566
368.271
367.965
367.667
367.422
358.521
358.729
358.986
359.251
359.507
359.744
359.95
360.116
360.232
360.292
360.292
360.232
360.116
359.95
359.744
359.507
359.251
358.986
358.729
358.521
349.584
349.756
349.973
350.197
350.414
350.614
350.789
350.929
351.028
351.079
351.079
351.028
350.929
350.789
350.614
350.414
350.197
349.973
349.756
349.584
340.616
340.755
340.932
341.115
341.293
341.457
341.6
341.715
341.795
341.837
341.837
341.795
341.715
341.6
341.457
341.293
341.115
340.932
340.755
340.616
331.624
331.731
331.868
332.01
332.149
332.276
332.388
332.477
332.54
332.572
332.572
332.54
332.477
332.388
332.276
332.149
332.01
331.868
331.731
331.624
322.613
322.688
322.786
322.888
322.987
323.078
323.158
323.222
323.266
323.29
323.29
323.266
323.222
323.158
323.078
322.987
322.888
322.786
322.688
322.613
313.589
313.633
313.692
313.753
313.813
313.867
313.915
313.954
313.981
313.995
313.995
313.981
313.954
313.915
313.867
313.813
313.753
313.692
313.633
313.589
304.556
304.571
304.591
304.611
304.631
304.649
304.665
304.678
304.687
304.692
304.692
304.687
304.678
304.665
304.649
304.631
304.611
304.591
304.571
304.556
370.211
370.437
370.709
370.988
371.256
371.502
371.715
371.887
372.006
372.068
372.068
372.006
371.887
371.715
371.502
371.256
370.988
370.709
370.437
370.211
360.933
361.124
361.359
361.6
361.833
362.046
362.232
362.38
362.484
362.538
362.538
362.484
362.38
362.232
362.046
361.833
361.6
361.359
361.124
360.933
351.62
351.779
351.977
352.181
352.378
352.559
352.716
352.842
352.93
352.975
352.975
352.93
352.842
352.716
352.559
352.378
352.181
351.977
351.779
351.62
342.28
342.407
342.569
342.736
342.897
343.045
343.174
343.277
343.349
343.386
343.386
343.349
343.277
343.174
343.045
342.897
342.736
342.569
342.407
342.28
332.916
333.014
333.139
333.269
333.395
333.51
333.61
333.69
333.746
333.775
333.775
333.746
333.69
333.61
333.51
333.395
333.269
333.139
333.014
332.916
323.535
323.604
323.694
323.787
323.876
323.959
324.03
324.088
324.128
324.148
324.148
324.128
324.088
324.03
323.959
323.876
323.787
323.694
323.604
323.535
314.142
314.183
314.237
314.293
314.347
314.396
314.439
314.474
314.498
314.51
314.51
314.498
314.474
314.439
314.396
314.347
314.293
314.237
314.183
314.142
304.741
304.755
304.773
304.792
304.81
304.827
304.841
304.852
304.861
304.865
304.865
304.861
304.852
304.841
304.827
304.81
304.792
304.773
304.755
304.741
373.071
373.278
373.528
373.782
374.025
374.248
374.44
374.594
374.701
374.756
374.756
374.701
374.594
374.44
374.248
374.025
373.782
373.528
373.278
373.071
363.394
363.57
363.786
364.006
364.217
364.41
364.577
364.711
364.804
364.851
364.851
364.804
364.711
364.577
364.41
364.217
364.006
363.786
363.57
363.394
353.69
353.836
354.018
354.204
354.383
354.547
354.689
354.801
354.88
354.921
354.921
354.88
354.801
354.689
354.547
354.383
354.204
354.018
353.836
353.69
343.964
344.081
344.23
344.382
344.529
344.663
344.779
344.872
344.936
344.969
344.969
344.936
344.872
344.779
344.663
344.529
344.382
344.23
344.081
343.964
334.22
334.31
334.426
334.545
334.659
334.763
334.853
334.925
334.976
335.002
335.002
334.976
334.925
334.853
334.763
334.659
334.545
334.426
334.31
334.22
324.464
324.528
324.61
324.695
324.776
324.851
324.916
324.967
325.003
325.022
325.022
325.003
324.967
324.916
324.851
324.776
324.695
324.61
324.528
324.464
314.698
314.737
314.786
314.837
314.886
314.931
314.97
315.001
315.022
315.033
315.033
315.022
315.001
314.97
314.931
314.886
314.837
314.786
314.737
314.698
304.928
304.94
304.957
304.974
304.99
305.006
305.019
305.029
305.036
305.04
305.04
305.036
305.029
305.019
305.006
304.99
304.974
304.957
304.94
304.928
375.816
376.008
376.238
376.472
376.694
376.897
377.072
377.211
377.308
377.357
377.357
377.308
377.211
377.072
376.897
376.694
376.472
376.238
376.008
375.816
365.728
365.891
366.09
366.293
366.486
366.663
366.815
366.935
367.02
367.063
367.063
367.02
366.935
366.815
366.663
366.486
366.293
366.09
365.891
365.728
355.632
355.767
355.935
356.107
356.271
356.421
356.549
356.652
356.723
356.76
356.76
356.723
356.652
356.549
356.421
356.271
356.107
355.935
355.767
355.632
345.53
345.638
345.776
345.916
346.051
346.174
346.279
346.364
346.422
346.452
346.452
346.422
346.364
346.279
346.174
346.051
345.916
345.776
345.638
345.53
335.424
335.507
335.614
335.724
335.829
335.924
336.007
336.072
336.118
336.141
336.141
336.118
336.072
336.007
335.924
335.829
335.724
335.614
335.507
335.424
325.316
325.375
325.451
325.53
325.605
325.673
325.732
325.779
325.812
325.829
325.829
325.812
325.779
325.732
325.673
325.605
325.53
325.451
325.375
325.316
315.207
315.243
315.288
315.335
315.38
315.422
315.457
315.485
315.505
315.515
315.515
315.505
315.485
315.457
315.422
315.38
315.335
315.288
315.243
315.207
305.098
305.11
305.125
305.141
305.156
305.17
305.181
305.191
305.197
305.201
305.201
305.197
305.191
305.181
305.17
305.156
305.141
305.125
305.11
305.098
377.963
378.144
378.36
378.579
378.788
378.977
379.139
379.268
379.358
379.404
379.404
379.358
379.268
379.139
378.977
378.788
378.579
378.36
378.144
377.963
367.485
367.638
367.826
368.017
368.199
368.364
368.505
368.618
368.696
368.736
368.736
368.696
368.618
368.505
368.364
368.199
368.017
367.826
367.638
367.485
357.048
357.176
357.335
357.497
357.651
357.792
357.912
358.008
358.075
358.109
358.109
358.075
358.008
357.912
357.792
357.651
357.497
357.335
357.176
357.048
346.644
346.747
346.877
347.01
347.137
347.252
347.351
347.43
347.485
347.513
347.513
347.485
347.43
347.351
347.252
347.137
347.01
346.877
346.747
346.644
336.264
336.344
336.445
336.549
336.648
336.738
336.815
336.877
336.919
336.941
336.941
336.919
336.877
336.815
336.738
336.648
336.549
336.445
336.344
336.264
325.903
325.959
326.032
326.106
326.177
326.241
326.297
326.341
326.372
326.387
326.387
326.372
326.341
326.297
326.241
326.177
326.106
326.032
325.959
325.903
315.555
315.588
315.631
315.676
315.719
315.758
315.791
315.818
315.836
315.845
315.845
315.836
315.818
315.791
315.758
315.719
315.676
315.631
315.588
315.555
305.213
305.224
305.239
305.254
305.268
305.281
305.293
305.301
305.308
305.311
305.311
305.308
305.301
305.293
305.281
305.268
305.254
305.239
305.224
305.213
)
;

boundaryField
{
    hotSide
    {
        type            fixedGradient;
        gradient        nonuniform List<scalar> 
400
(
488.078
489.836
493.359
498.657
505.747
514.649
525.384
537.98
552.461
568.853
587.182
607.471
629.742
654.014
680.305
708.629
738.998
771.422
805.91
842.466
495.184
496.887
500.299
505.436
512.32
520.977
531.437
543.733
557.898
573.965
591.966
611.929
633.881
657.845
683.841
711.885
741.99
774.168
808.427
844.771
502.875
504.51
507.791
512.738
519.378
527.747
537.884
549.832
563.633
579.328
596.956
616.552
638.149
661.772
687.444
715.184
745.006
776.921
810.936
847.058
511.023
512.58
515.708
520.433
526.792
534.831
544.6
556.154
569.545
584.825
602.042
621.237
642.447
665.704
691.031
718.45
747.974
779.615
813.38
849.274
519.4
520.869
523.825
528.302
534.348
542.021
551.386
562.509
575.456
590.291
607.068
625.839
646.645
669.521
694.494
721.585
750.808
782.175
815.69
851.358
527.657
529.032
531.804
536.017
541.731
549.018
557.959
568.634
581.123
595.501
611.833
630.177
650.58
673.079
697.703
724.475
753.408
784.511
817.789
853.243
535.321
536.602
539.191
543.142
548.527
555.434
563.96
574.199
586.247
600.188
616.097
634.038
654.064
676.213
700.517
726.997
755.665
786.531
819.597
854.861
541.826
543.022
545.446
549.161
554.252
560.822
568.979
578.835
590.496
604.057
619.601
637.198
656.902
678.755
702.79
729.025
757.475
788.144
821.035
856.143
546.586
547.717
550.015
553.551
558.418
564.731
572.61
582.178
593.55
606.828
622.102
639.445
658.913
680.551
704.39
730.449
758.741
789.27
822.036
857.034
549.109
550.204
552.434
555.871
560.617
566.79
574.52
583.933
595.15
608.277
623.406
640.614
659.957
681.482
705.217
731.184
759.394
789.849
822.55
857.491
549.109
550.204
552.434
555.871
560.617
566.79
574.52
583.933
595.15
608.277
623.406
640.614
659.957
681.482
705.217
731.184
759.394
789.849
822.55
857.491
546.586
547.717
550.015
553.551
558.418
564.731
572.61
582.178
593.55
606.828
622.102
639.445
658.913
680.551
704.39
730.449
758.741
789.27
822.036
857.034
541.826
543.022
545.446
549.161
554.252
560.822
568.979
578.835
590.496
604.057
619.601
637.198
656.902
678.755
702.79
729.025
757.475
788.144
821.035
856.143
535.321
536.602
539.191
543.142
548.527
555.434
563.96
574.199
586.247
600.188
616.097
634.038
654.064
676.213
700.517
726.997
755.665
786.531
819.597
854.861
527.657
529.032
531.804
536.017
541.731
549.018
557.959
568.634
581.123
595.501
611.833
630.177
650.58
673.079
697.703
724.475
753.408
784.511
817.789
853.243
519.4
520.869
523.825
528.302
534.348
542.021
551.386
562.509
575.456
590.291
607.068
625.839
646.645
669.521
694.494
721.585
750.808
782.175
815.69
851.358
511.023
512.58
515.708
520.433
526.792
534.831
544.6
556.154
569.545
584.825
602.042
621.237
642.447
665.704
691.031
718.45
747.974
779.615
813.38
849.274
502.875
504.51
507.791
512.738
519.378
527.747
537.884
549.832
563.633
579.328
596.956
616.552
638.149
661.772
687.444
715.184
745.006
776.921
810.936
847.058
495.184
496.887
500.299
505.436
512.32
520.977
531.437
543.733
557.898
573.965
591.966
611.929
633.881
657.845
683.841
711.885
741.99
774.168
808.427
844.771
488.078
489.836
493.359
498.657
505.747
514.649
525.384
537.98
552.461
568.853
587.182
607.471
629.742
654.014
680.305
708.629
738.998
771.422
805.91
842.466
)
;
    }
    coldSide
    {
        type            mixed;
        refValue        uniform 300;
        refGradient     uniform 0;
        valueFraction   uniform 0.991591;
        source          uniform 0;
        value           nonuniform List<scalar> 
400
(
300.027
300.027
300.027
300.027
300.027
300.028
300.029
300.029
300.03
300.031
300.032
300.033
300.034
300.035
300.037
300.038
300.04
300.041
300.043
300.044
300.027
300.027
300.027
300.027
300.028
300.028
300.029
300.029
300.03
300.031
300.032
300.033
300.034
300.036