/*--------------------------------*- C++ -*----------------------------------*\
| =========                 |                                                 |
| \\      /  F ield         | OpenFOAM: The Open Source CFD Toolbox           |
|  \\    /   O peration     | Version:  2212                                  |
|   \\  /    A nd           | Website:  www.openfoam.com                      |
|    \\/     M anipulation  |                                                 |
\*---------------------------------------------------------------------------*/
FoamFile
{
    version     2.0;
    format      ascii;
    arch        "LSB;label=32;scalar=64";
    class       volScalarField;
    location    "0";
    object      T;
}
// * * * * * * * * * * * * * * * * * * * * * * * * * * * * * * * * * * * * * //

dimensions      [0 0 0 1 0 0 0];

internalField   nonuniform List<scalar> 
3200
(
341.781
342.949
343.622
344.625
345.505
346.237
346.322
346.645
347.038
347.273
347.003
346.983
346.47
345.903
345.56
344.469
343.842
342.905
341.768
340.7
336.374
337.291
337.88
338.76
339.563
340.162
340.254
340.505
340.88
341.082
340.804
340.879
340.396
339.864
339.588
338.637
338.099
337.281
336.302
335.433
330.914
331.589
332.116
332.912
333.519
334.045
334.14
334.344
334.708
334.857
334.57
334.657
334.231
333.786
333.568
332.774
332.3
331.602
330.807
330.082
325.385
325.922
326.36
326.957
327.412
327.875
327.96
328.149
328.471
328.582
328.298
328.396
328.018
327.7
327.53
326.849
326.426
325.847
325.211
324.705
319.777
320.196
320.527
320.989
321.334
321.677
321.802
321.934
322.205
322.281
322.018
322.089
321.811
321.58
321.432
320.926
320.574
320.084
319.602
319.288
314.15
314.439
314.698
315.023
315.225
315.434
315.567
315.705
315.865
315.937
315.716
315.775
315.599
315.458
315.291
314.942
314.725
314.322
313.993
313.802
308.511
308.671
308.84
308.994
309.096
309.218
309.324
309.446
309.56
309.576
309.381
309.469
309.384
309.335
309.169
308.966
308.838
308.595
308.417
308.269
302.872
302.914
302.973
303.007
303.038
303.071
303.115
303.159
303.228
303.22
303.136
303.185
303.149
303.138
303.072
303.009
302.958
302.882
302.82
302.755
342.545
343.387
344.476
345.471
346.296
346.756
347.087
347.537
347.793
348.126
347.943
347.927
347.395
346.723
346.238
345.478
344.571
343.705
342.662
341.618
336.935
337.659
338.604
339.475
340.231
340.543
340.854
341.248
341.505
341.777
341.603
341.621
341.158
340.548
340.126
339.425
338.644
337.971
337.03
336.17
331.303
331.892
332.725
333.412
334.093
334.338
334.597
334.921
335.193
335.42
335.232
335.282
334.922
334.378
333.988
333.363
332.717
332.175
331.349
330.674
325.654
326.094
326.827
327.347
327.923
328.141
328.335
328.629
328.857
329.02
328.815
328.866
328.625
328.207
327.817
327.365
326.771
326.382
325.685
325.125
319.959
320.305
320.903
321.262
321.695
321.865
322.032
322.3
322.447
322.588
322.409
322.428
322.272
321.945
321.637
321.315
320.85
320.543
319.99
319.577
314.238
314.519
314.973
315.193
315.472
315.591
315.771
315.92
316.062
316.173
316.045
316.053
315.903
315.701
315.457
315.265
314.914
314.669
314.269
313.994
308.519
308.746
309.034
309.14
309.245
309.358
309.467
309.55
309.667
309.759
309.64
309.645
309.549
309.445
309.277
309.141
308.982
308.839
308.571
308.401
302.859
302.91
303.038
303.087
303.096
303.148
303.17
303.196
303.237
303.277
303.236
303.22
303.2
303.158
303.099
303.062
303.027
302.964
302.857
302.839
343.639
344.397
345.529
346.486
347.354
347.837
348.276
349.019
349.27
349.168
349.087
348.923
348.652
348.034
347.577
346.718
345.649
344.888
343.689
342.672
337.884
338.492
339.522
340.381
341.052
341.478
341.863
342.497
342.691
342.638
342.576
342.402
342.226
341.697
341.258
340.498
339.577
338.966
337.933
337.058
332.102
332.542
333.478
334.244
334.75
335.136
335.423
336.018
336.117
336.102
336.035
335.863
335.8
335.323
334.959
334.257
333.535
333.022
332.126
331.447
326.328
326.637
327.434
328.067
328.433
328.759
328.945
329.523
329.557
329.585
329.488
329.354
329.396
328.92
328.629
328.027
327.472
327.051
326.336
325.776
320.516
320.751
321.38
321.858
322.144
322.355
322.526
322.995
322.979
323.066
322.941
322.839
322.923
322.535
322.296
321.824
321.359
321.057
320.515
320.091
314.686
314.865
315.276
315.602
315.854
315.971
316.06
316.481
316.436
316.479
316.412
316.347
316.415
316.12
315.948
315.572
315.285
315.047
314.708
314.384
308.823
308.938
309.194
309.349
309.521
309.59
309.638
309.909
309.859
309.88
309.816
309.847
309.881
309.679
309.591
309.319
309.213
309.039
308.837
308.638
302.944
302.988
303.093
303.131
303.179
303.216
303.215
303.324
303.312
303.287
303.286
303.311
303.319
303.24
303.208
303.124
303.094
303.03
302.955
302.89
344.88
345.662
346.772
347.874
348.627
349.059
349.611
350.085
350.31
350.26
350.208
349.869
349.84
349.177
348.775
347.795
346.832
345.972
344.749
343.751
338.963
339.559
340.561
341.522
342.197
342.562
342.993
343.431
343.636
343.57
343.527
343.219
343.225
342.692
342.286
341.45
340.602
339.894
338.822
337.966
332.998
333.487
334.373
335.14
335.717
336.077
336.34
336.778
336.927
336.886
336.812
336.561
336.607
336.184
335.795
335.085
334.373
333.814
332.869
332.154
327.012
327.391
328.124
328.79
329.267
329.59
329.725
330.139
330.197
330.201
330.101
329.877
329.968
329.659
329.321
328.737
328.112
327.687
326.908
326.283
320.969
321.323
321.908
322.442
322.778
323.05
323.107
323.465
323.477
323.502
323.415
323.229
323.295
323.088
322.81
322.357
321.845
321.552
320.944
320.451
314.987
315.216
315.643
316.077
316.292
316.491
316.486
316.776
316.775
316.784
316.748
316.554
316.669
316.518
316.295
315.983
315.59
315.392
314.97
314.596
308.988
309.11
309.402
309.646
309.793
309.921
309.9
310.101
310.08
310.067
310.069
309.926
310.002
309.932
309.784
309.606
309.378
309.246
308.968
308.767
302.995
303.076
303.164
303.255
303.29
303.326
303.319
303.394
303.378
303.35
303.361
303.32
303.35
303.333
303.274
303.217
303.147
303.097
302.985
302.934
346.099
346.863
347.934
349.036
349.807
350.483
350.838
351.267
351.575
351.433
351.308
351.188
351.098
350.383
349.811
348.866
348.013
346.938
345.848
344.977
340.02
340.658
341.583
342.548
343.193
343.765
344.07
344.462
344.717
344.593
344.499
344.387
344.296
343.734
343.199
342.392
341.68
340.681
339.745
339.02
333.903
334.436
335.213
336.083
336.555
337.08
337.299
337.625
337.845
337.729
337.695
337.571
337.534
337.013
336.563
335.877
335.312
334.432
333.676
333.034
327.759
328.171
328.835
329.575
329.952
330.388
330.506
330.801
330.939
330.87
330.879
330.774
330.715
330.292
329.931
329.386
328.91
328.172
327.559
327.019
321.59
321.893
322.412
323.038
323.326
323.671
323.728
323.998
324.069
323.988
324.045
323.942
323.894
323.566
323.306
322.853
322.512
321.88
321.409
321.025
315.448
315.637
316.012
316.487
316.702
316.929
316.961
317.159
317.215
317.151
317.187
317.103
317.078
316.853
316.656
316.337
316.092
315.594
315.277
315.021
309.281
309.407
309.618
309.872
310.037
310.152
310.172
310.307
310.329
310.288
310.288
310.246
310.24
310.142
310.01
309.777
309.695
309.347
309.186
309.025
303.109
303.155
303.219
303.307
303.379
303.4
303.402
303.472
303.464
303.454
303.462
303.426
303.435
303.417
303.345
303.268
303.269
303.125
303.082
303.015
346.919
347.963
349.13
350.262
350.898
351.624
352.122
352.422
352.772
352.908
352.552
352.507
352.218
351.76
351.142
350.119
349.154
348.028
346.862
345.595
340.742
341.604
342.645
343.549
344.121
344.754
345.187
345.475
345.771
345.823
345.554
345.533
345.307
344.873
344.333
343.459
342.621
341.627
340.637
339.579
334.56
335.243
336.146
336.871
337.338
337.938
338.27
338.47
338.754
338.768
338.549
338.569
338.376
337.99
337.54
336.794
336.112
335.232
334.373
333.525
328.359
328.842
329.597
330.189
330.585
331.084
331.321
331.467
331.747
331.741
331.553
331.576
331.442
331.107
330.733
330.116
329.566
328.834
328.134
327.464
322.086
322.451
323.076
323.525
323.778
324.206
324.356
324.495
324.742
324.71
324.577
324.588
324.516
324.21
323.882
323.448
323.002
322.467
321.884
321.401
315.822
316.062
316.501
316.845
317.032
317.316
317.409
317.544
317.696
317.664
317.581
317.553
317.535
317.286
317.072
316.746
316.439
316.085
315.649
315.299
309.531
309.642
309.907
310.149
310.277
310.378
310.482
310.549
310.622
310.586
310.594
310.534
310.51
310.369
310.275
310.04
309.91
309.668
309.403
309.197
303.183
303.237
303.33
303.408
303.437
303.487
303.522
303.547
303.554
303.533
303.568
303.53
303.502
303.453
303.443
303.376
303.32
303.232
303.146
303.087
347.921
348.939
350.205
351.291
351.958
352.711
353.236
353.543
354.086
354.112
353.833
353.669
353.441
352.706
352.385
351.3
350.27
348.99
347.925
346.592
341.608
342.498
343.51
344.454
345.093
345.755
346.17
346.418
346.915
346.976
346.747
346.551
346.336
345.735
345.448
344.535
343.636
342.51
341.607
340.447
335.273
336.025
336.861
337.642
338.158
338.765
339.134
339.291
339.694
339.804
339.603
339.412
339.24
338.713
338.485
337.745
336.917
336.021
335.214
334.303
328.951
329.506
330.178
330.789
331.225
331.779
332
332.132
332.497
332.563
332.423
332.256
332.113
331.699
331.514
330.905
330.2
329.469
328.839
328.098
322.545
322.966
323.487
323.994
324.279
324.737
324.89
325.007
325.302
325.34
325.222
325.07
324.983
324.686
324.526
324.042
323.51
322.908
322.44
321.845
316.148
316.392
316.776
317.2
317.307
317.709
317.772
317.871
318.125
318.105
318.048
317.898
317.825
317.679
317.543
317.196
316.798
316.383
316.063
315.593
309.702
309.85
310.049
310.366
310.363
310.656
310.68
310.718
310.907
310.897
310.871
310.738
310.672
310.638
310.529
310.334
310.114
309.812
309.649
309.326
303.262
303.301
303.37
303.491
303.485
303.578
303.588
303.614
303.666
303.657
303.662
303.559
303.562
303.567
303.526
303.443
303.401
303.293
303.251
303.133
348.769
349.997
351.125
352.179
352.919
353.885
354.314
354.602
355.076
355.264
355.029
354.648
354.569
353.737
353.243
352.21
351.21
350.079
348.898
347.585
342.283
343.331
344.302
345.242
345.911
346.76
347.076
347.354
347.745
347.947
347.713
347.417
347.35
346.588
346.179
345.296
344.431
343.483
342.433
341.297
335.802
336.694
337.463
338.252
338.87
339.638
339.879
340.121
340.41
340.592
340.401
340.152
340.093
339.467
339.095
338.354
337.664
336.851
335.971
335.008
329.285
330.109
330.654
331.273
331.807
332.488
332.672
332.835
333.069
333.259
333.038
332.845
332.802
332.315
331.976
331.415
330.851
330.217
329.44
328.695
322.752
323.444
323.841
324.292
324.791
325.36
325.429
325.536
325.784
325.868
325.736
325.564
325.505
325.155
324.888
324.484
324.003
323.504
322.888
322.327
316.27
316.79
317.002
317.36
317.761
318.126
318.153
318.234
318.453
318.462
318.42
318.274
318.219
317.989
317.81
317.518
317.203
316.787
316.291
315.912
309.794
310.067
310.194
310.399
310.671
310.893
310.901
310.953
311.08
311.104
311.095
310.994
310.941
310.791
310.694
310.517
310.343
310.072
309.772
309.513
303.284
303.353
303.383
303.481
303.583
303.654
303.658
303.684
303.705
303.733
303.712
303.692
303.68
303.633
303.596
303.534
303.477
303.385
303.275
303.188
349.647
350.876
352.022
352.972
353.871
354.719
355.296
355.685
356.038
356.095
355.813
355.612
355.715
354.753
354.14
353.106
352.074
351.144
349.622
348.496
343.047
344.137
345.166
345.94
346.711
347.46
347.961
348.274
348.613
348.642
348.348
348.203
348.307
347.448
346.959
346.012
345.153
344.338
343.023
342.139
336.412
337.347
338.233
338.888
339.548
340.177
340.591
340.867
341.167
341.186
340.924
340.802
340.902
340.189
339.768
338.889
338.221
337.48
336.39
335.716
329.807
330.565
331.273
331.813
332.395
332.875
333.206
333.408
333.708
333.713
333.497
333.402
333.456
332.937
332.571
331.805
331.278
330.653
329.769
329.267
323.242
323.756
324.319
324.696
325.187
325.581
325.836
325.95
326.27
326.21
326.088
325.983
326.011
325.617
325.355
324.727
324.308
323.872
323.162
322.763
316.603
316.97
317.297
317.613
318.003
318.296
318.436
318.557
318.737
318.734
318.663
318.565
318.547
318.29
318.133
317.636
317.364
317.059
316.562
316.239
309.999
310.217
310.365
310.597
310.796
310.994
311.071
311.159
311.28
311.273
311.226
311.175
311.103
311.01
310.903
310.569
310.419
310.253
309.928
309.723
303.351
303.408
303.469
303.574
303.621
303.68
303.711
303.738
303.788
303.788
303.791
303.778
303.698
303.7
303.654
303.542
303.495
303.433
303.34
303.252
350.488
351.619
352.749
353.976
354.634
355.564
356.143
356.624
356.885
357.079
356.919
356.371
356.378
355.677
354.707
354.061
352.732
351.786
350.222
349.328
343.86
344.762
345.796
346.806
347.384
348.188
348.702
349.094
349.293
349.513
349.347
348.893
348.917
348.28
347.437
346.843
345.702
344.92
343.583
342.808
337.153
337.83
338.796
339.614
340.114
340.82
341.23
341.558
341.709
341.931
341.801
341.37
341.378
340.874
340.175
339.615
338.677
337.988
336.922
336.261
330.426
330.937
331.769
332.436
332.813
333.422
333.758
333.991
334.152
334.35
334.202
333.839
333.819
333.47
332.937
332.38
331.666
331.11
330.244
329.707
323.682
324.044
324.76
325.193
325.535
326.021
326.29
326.422
326.586
326.773
326.589
326.326
326.291
326.077
325.668
325.189
324.626
324.221
323.546
323.138
316.965
317.152
317.69
317.992
318.232
318.596
318.772
318.86
319.023
319.126
318.982
318.813
318.76
318.683
318.386
317.981
317.594
317.332
316.844
316.55
310.215
310.302
310.651
310.824
310.93
311.176
311.255
311.299
311.46
311.511
311.399
311.312
311.237
311.255
311.074
310.812
310.571
310.381
310.135
309.955
303.425
303.449
303.567
303.642
303.668
303.725
303.779
303.782
303.855
303.889
303.84
303.79
303.782
303.8
303.712
303.628
303.567
303.468
303.414
303.339
351.177
352.18
353.64
354.718
355.407
356.255
356.952
357.402
357.514
357.989
357.948
357.482
357.004
356.504
355.44
354.705
353.666
352.385
351.062
349.916
344.454
345.266
346.504
347.462
348.063
348.781
349.38
349.739
349.884
350.315
350.198
349.803
349.419
349.006
348.069
347.449
346.498
345.395
344.317
343.334
337.701
338.323
339.34
340.184
340.739
341.319
341.85
342.078
342.272
342.591
342.47
342.138
341.859
341.468
340.711
340.144
339.355
338.442
337.524
336.714
330.959
331.404
332.167
332.877
333.35
333.759
334.302
334.468
334.567
334.848
334.723
334.441
334.287
333.916
333.33
332.845
332.251
331.462
330.712
330.089
324.136
324.464
324.994
325.542
325.911
326.228
326.751
326.83
326.895
327.131
327.021
326.765
326.671
326.395
325.946
325.563
325.078
324.497
323.857
323.422
317.271
317.531
317.887
318.215
318.508
318.718
319.152
319.166
319.266
319.36
319.326
319.078
319.055
318.875
318.55
318.27
317.915
317.567
317.006
316.756
310.374
310.527
310.76
310.933
311.15
311.243
311.492
311.49
311.624
311.639
311.636
311.447
311.441
311.376
311.154
310.966
310.759
310.591
310.179
310.062
303.493
303.537
303.623
303.655
303.755
303.778
303.857
303.854
303.894
303.891
303.899
303.843
303.831
303.816
303.74
303.664
303.6
303.541
303.405
303.352
351.831
352.958
354.102
355.328
356.293
356.935
357.686
358.069
358.24
358.446
358.456
358.295
357.748
357.217
356.314
355.379
354.376
353.23
351.826
350.617
344.968
345.948
346.898
348.006
348.79
349.342
350.009
350.359
350.471
350.666
350.66
350.544
350.073
349.609
348.832
348.093
347.148
346.131
344.97
343.888
338.123
338.918
339.703
340.624
341.278
341.767
342.317
342.627
342.712
342.911
342.906
342.747
342.378
341.973
341.363
340.733
339.929
339.052
338.07
337.163
331.297
331.868
332.496
333.264
333.77
334.195
334.658
334.887
334.963
335.127
335.141
334.969
334.631
334.368
333.894
333.346
332.727
331.969
331.105
330.44
324.412
324.839
325.303
325.901
326.259
326.595
327.017
327.119
327.261
327.313
327.365
327.224
326.882
326.791
326.379
325.954
325.429
324.878
324.173
323.701
317.476
317.772
318.127
318.539
318.785
319
319.337
319.353
319.541
319.519
319.538
319.522
319.186
319.176
318.81
318.547
318.147
317.788
317.261
316.999
310.522
310.687
310.917
311.17
311.29
311.412
311.607
311.644
311.756
311.731
311.726
311.728
311.489
311.548
311.304
311.12
310.891
310.658
310.363
310.25
303.517
303.604
303.662
303.749
303.78
303.822
303.882
303.921
303.93
303.942
303.948
303.927
303.834
303.889
303.79
303.724
303.653
303.541
303.479
303.444
352.457
353.351
354.639
355.935
356.912
357.62
358.382
358.832
359.114
359.048
359.221
358.787
358.286
357.889
356.978
355.887
354.867
353.724
352.412
350.997
345.522
346.312
347.4
348.54
349.346
349.915
350.622
350.988
351.21
351.165
351.366
350.995
350.528
350.181
349.388
348.465
347.544
346.574
345.42
344.24
338.572
339.25
340.127
341.111
341.738
342.222
342.85
343.159
343.341
343.335
343.502
343.186
342.766
342.453
341.829
341.029
340.192
339.392
338.463
337.47
331.585
332.131
332.85
333.648
334.116
334.579
335.05
335.337
335.448
335.504
335.641
335.323
335.014
334.698
334.232
333.588
332.873
332.217
331.464
330.676
324.544
324.976
325.61
326.189
326.512
326.899
327.27
327.49
327.611
327.643
327.744
327.495
327.241
327.001
326.624
326.138
325.516
325.074
324.452
323.884
317.558
317.853
318.32
318.725
318.941
319.277
319.503
319.621
319.76
319.77
319.855
319.654
319.451
319.281
319.082
318.71
318.196
317.87
317.465
317.08
310.557
310.728
311.022
311.289
311.389
311.595
311.712
311.821
311.877
311.889
311.902
311.832
311.687
311.612
311.475
311.276
310.898
310.725
310.484
310.27
303.544
303.594
303.701
303.792
303.817
303.887
303.93
303.965
303.993
303.992
303.998
303.97
303.915
303.904
303.838
303.774
303.643
303.591
303.523
303.43
352.887
354.022
355.298
356.485
357.585
358.161
358.884
359.431
359.577
359.582
359.468
359.307
358.717
358.486
357.415
356.413
355.383
354.168
352.791
351.402
345.875
346.888
347.918
348.982
349.986
350.478
351.035
351.517
351.666
351.666
351.585
351.423
350.903
350.721
349.81
348.892
347.964
346.928
345.745
344.624
338.843
339.711
340.555
341.457
342.367
342.752
343.176
343.636
343.701
343.774
343.635
343.53
343.039
342.912
342.159
341.379
340.569
339.67
338.711
337.779
331.833
332.545
333.161
333.946
334.679
334.995
335.349
335.711
335.772
335.856
335.666
335.606
335.232
335.13
334.527
333.904
333.225
332.434
331.654
330.929
324.781
325.347
325.779
326.425
326.984
327.218
327.531
327.765
327.818
327.897
327.715
327.732
327.416
327.337
326.851
326.424
325.842
325.217
324.588
324.087
317.718
318.064
318.43
318.921
319.307
319.435
319.693
319.803
319.878
319.923
319.775
319.855
319.614
319.562
319.143
318.908
318.46
317.994
317.538
317.213
310.665
310.836
311.071
311.368
311.63
311.688
311.831
311.875
311.921
311.964
311.849
311.925
311.801
311.759
311.493
311.349
311.07
310.805
310.501
310.339
303.566
303.635
303.741
303.818
303.91
303.9
303.958
303.973
303.985
304.015
303.968
303.996
303.966
303.944
303.868
303.811
303.69
303.6
303.518
303.484
353.516
354.365
355.554
356.943
357.902
358.509
359.353
359.803
360.014
360.171
359.893
359.641
359.282
358.747
358.092
356.78
355.841
354.504
353.268
351.845
346.429
347.132
348.153
349.41
350.237
350.763
351.484
351.86
351.957
352.183
351.945
351.719
351.371
350.946
350.361
349.22
348.38
347.297
346.219
344.941
339.332
339.896
340.734
341.86
342.559
342.97
343.564
343.882
343.96
344.134
343.963
343.763
343.453
343.144
342.616
341.676
340.892
340.084
339.139
338.039
332.174
332.638
333.345
334.265
334.827
335.2
335.64
335.88
335.946
336.066
336.009
335.778
335.52
335.323
334.9
334.097
333.425
332.832
332.043
331.126
325.017
325.403
325.96
326.664
327.108
327.416
327.76
327.894
327.929
328.032
327.999
327.834
327.638
327.516
327.184
326.505
326.013
325.58
324.939
324.241
317.918
318.173
318.578
319.097
319.369
319.562
319.828
319.908
319.927
320.028
320.013
319.881
319.753
319.687
319.383
318.902
318.582
318.318
317.788
317.332
310.799
310.93
311.143
311.461
311.599
311.729
311.907
311.939
311.968
312.006
312.045
311.941
311.892
311.823
311.645
311.339
311.144
311.022
310.666
310.403
303.62
303.655
303.739
303.835
303.89
303.942
303.997
304.006
303.996
304.037
304.046
304.008
303.991
303.975
303.872
303.804
303.732
303.719
303.586
303.495
353.847
354.65
355.841
357.005
358.16
358.861
359.615
359.95
360.363
360.493
360.386
360.077
359.775
359.148
358.367
357.215
356.14
354.835
353.529
352.173
346.7
347.361
348.422
349.423
350.448
351.044
351.704
351.975
352.357
352.45
352.351
352.118
351.808
351.305
350.585
349.621
348.735
347.562
346.387
345.245
339.526
340.107
340.981
341.859
342.717
343.239
343.741
344.032
344.351
344.449
344.345
344.107
343.831
343.423
342.794
341.999
341.272
340.273
339.269
338.276
332.338
332.854
333.506
334.264
334.976
335.413
335.834
336.077
336.342
336.421
336.285
336.151
335.878
335.595
334.998
334.388
333.811
332.983
332.09
331.301
325.135
325.561
326.04
326.712
327.225
327.569
327.874
328.087
328.298
328.329
328.231
328.157
327.932
327.705
327.172
326.76
326.321
325.677
324.941
324.312
317.974
318.26
318.587
319.111
319.457
319.704
319.923
320.114
320.261
320.27
320.22
320.159
320.01
319.806
319.377
319.127
318.808
318.331
317.796
317.373
310.803
310.948
311.141
311.5
311.686
311.79
311.946
312.063
312.167
312.19
312.191
312.11
312.037
311.88
311.63
311.491
311.3
311.019
310.697
310.435
303.616
303.666
303.741
303.863
303.927
303.939
304.022
304.046
304.083
304.063
304.11
304.058
304.043
303.993
303.889
303.88
303.802
303.673
303.575
303.499
354.005
354.945
356.216
357.298
358.26
359.239
359.765
360.325
360.621
360.643
360.664
360.385
360.111
359.36
358.498
357.345
356.366
355.197
353.725
352.324
346.899
347.659
348.768
349.651
350.485
351.381
351.822
352.323
352.574
352.609
352.626
352.356
352.128
351.461
350.703
349.767
348.895
347.833
346.623
345.409
339.76
340.365
341.27
341.983
342.697
343.493
343.855
344.271
344.534
344.549
344.549
344.328
344.085
343.557
342.906
342.14
341.388
340.474
339.495
338.529
332.55
333.062
333.728
334.362
334.923
335.563
335.903
336.249
336.47
336.475
336.472
336.283
336.064
335.664
335.14
334.489
333.883
333.097
332.339
331.595
325.363
325.785
326.167
326.751
327.11
327.701
327.941
328.218
328.42
328.373
328.375
328.281
328.041
327.773
327.306
326.804
326.361
325.777
325.174
324.641
318.16
318.439
318.703
319.12
319.33
319.8
319.977
320.154
320.309
320.27
320.274
320.249
320.026
319.866
319.498
319.144
318.862
318.459
317.988
317.623
310.946
311.046
311.206
311.483
311.588
311.883
311.986
312.086
312.185
312.139
312.192
312.174
312.063
311.94
311.718
311.494
311.354
311.091
310.797
310.576
303.665
303.694
303.763
303.847
303.904
303.984
304.024
304.042
304.072
304.049
304.097
304.079
304.032
304.008
303.933
303.829
303.799
303.7
303.62
303.54
354.028
355.179
356.3
357.336
358.354
359.44
359.902
360.492
360.74
360.865
360.75
360.764
360.053
359.338
358.579
357.511
356.522
355.242
353.916
352.38
346.873
347.885
348.777
349.687
350.569
351.575
351.915
352.453
352.67
352.771
352.683
352.728
352.071
351.458
350.833
349.858
349.007
347.923
346.789
345.439
339.731
340.596
341.247
342.094
342.818
343.703
343.93
344.382
344.593
344.639
344.598
344.629
344.065
343.566
343.047
342.234
341.485
340.568
339.613
338.52
332.524
333.247
333.73
334.446
335.022
335.808
335.939
336.323
336.51
336.489
336.507
336.531
336.033
335.7
335.258
334.55
333.955
333.206
332.412
331.555
325.279
325.888
326.216
326.781
327.24
327.899
327.926
328.287
328.448
328.358
328.423
328.427
328.01
327.778
327.405
326.877
326.439
325.848
325.212
324.562
318.068
318.517
318.718
319.125
319.49
319.933
319.943
320.231
320.346
320.246
320.285
320.332
320.015
319.855
319.554
319.198
318.921
318.521
318.03
317.536
310.875
311.101
311.242
311.469
311.712
311.934
311.967
312.148
312.231
312.142
312.175
312.249
312.018
311.924
311.774
311.542
311.362
311.168
310.834
310.526
303.651
303.725
303.762
303.84
303.91
303.99
304.019
304.053
304.101
304.06
304.092
304.118
304.002
303.981
303.941
303.863
303.805
303.773
303.644
303.545
354.062
355.208
356.266
357.429
358.298
359.323
359.988
360.599
360.797
360.878
360.905
360.727
360.057
359.34
358.599
357.729
356.44
355.305
353.76
352.569
346.883
347.945
348.798
349.73
350.517
351.463
352.036
352.563
352.692
352.783
352.814
352.662
352.08
351.483
350.797
350.054
348.956
347.973
346.624
345.589
339.68
340.649
341.328
342.064
342.717
343.584
344.041
344.525
344.587
344.669
344.734
344.596
344.092
343.602
342.994
342.352
341.474
340.567
339.46
338.598
332.478
333.283
333.791
334.41
334.976
335.689
336.036
336.466
336.526
336.565
336.614
336.566
336.108
335.703
335.181
334.691
333.962
333.196
332.288
331.603
325.265
325.931
326.253
326.785
327.244
327.803
328.035
328.413
328.472
328.465
328.482
328.5
328.095
327.782
327.381
326.991
326.417
325.83
325.137
324.614
318.066
318.516
318.75
319.145
319.512
319.872
320.053
320.36
320.318
320.375
320.341
320.402
320.069
319.872
319.58
319.262
318.92
318.451
318.028
317.599
310.861
311.121
311.292
311.472
311.728
311.943
312.06
312.296
312.166
312.264
312.207
312.281
312.054
311.947
311.78
311.546
311.387
311.054
310.834
310.579
303.637
303.728
303.779
303.841
303.947
303.999
304.023
304.132
304.083
304.125
304.086
304.115
304.041
304.023
303.949
303.874
303.812
303.697
303.63
303.537
353.793
355.054
356.101
357.215
358.251
359.316
360.138
360.515
360.525
360.754
360.976
360.656
360.375
359.179
358.53
357.613
356.297
355.403
353.864
352.459
346.709
347.779
348.628
349.607
350.516
351.433
352.205
352.494
352.455
352.718
352.877
352.623
352.363
351.298
350.727
349.922
348.772
348.029
346.701
345.564
339.622
340.499
341.152
342.026
342.744
343.556
344.238
344.45
344.366
344.623
344.759
344.55
344.346
343.406
342.974
342.266
341.269
340.665
339.539
338.63
332.471
333.201
333.664
334.343
334.961
335.63
336.229
336.413
336.317
336.556
336.61
336.493
336.355
335.543
335.229
334.596
333.777
333.256
332.349
331.594
325.3
325.879
326.157
326.691
327.219
327.738
328.181
328.329
328.267
328.397
328.473
328.429
328.318
327.676
327.474
326.96
326.257
325.823
325.19
324.551
318.08
318.514
318.66
319.045
319.463
319.854
320.133
320.246
320.189
320.276
320.348
320.37
320.292
319.818
319.683
319.287
318.759
318.428
317.996
317.539
310.849
311.11
311.183
311.467
311.693
311.966
312.113
312.132
312.138
312.18
312.213
312.256
312.21
311.94
311.813
311.605
311.269
311.069
310.795
310.526
303.637
303.729
303.747
303.856
303.911
303.989
304.068
304.054
304.06
304.088
304.114
304.134
304.102
304.019
303.964
303.888
303.773
303.7
303.638
303.528
)
;

boundaryField
{
    hotSide
    {
        type            fixedGradient;
        gradient        nonuniform List<scalar> 
400
(
431.61
444.766
457.53
469.845
481.654
492.902
503.535
513.502
522.753
531.242
538.925
545.763
551.72
556.763
560.867
564.009
566.171
567.341
567.512
566.682
443.398
456.929
470.057
482.724
494.873
506.446
517.388
527.647
537.17
545.91
553.822
560.867
567.006
572.207
576.442
579.689
581.929
583.149
583.342
582.506
453.989
467.857
481.313
494.298
506.753
518.619
529.84
540.361
550.129
559.096
567.216
574.447
580.752
586.095
590.45
593.792
596.102
597.369
597.583
596.743
463.312
477.476
491.222
504.488
517.213
529.338
540.804
551.557
561.542
570.71
579.013
586.41
592.86
598.33
602.791
606.218
608.592
609.9
610.133
609.29
471.305
485.724
499.719
513.225
526.183
538.53
550.208
561.16
571.331
580.672
589.133
596.672
603.249
608.828
613.381
616.881
619.31
620.654
620.905
620.061
477.919
492.549
506.749
520.456
533.605
546.136
557.99
569.107
579.434
588.917
597.51
605.167
611.849
617.519
622.148
625.71
628.186
629.56
629.826
628.981
483.114
497.91
512.272
526.135
539.435
552.112
564.102
575.35
585.798
595.395
604.091
611.842
618.606
624.349
629.038
632.649
635.161
636.56
636.839
635.994
486.861
501.777
516.255
530.231
543.64
556.421
568.511
579.852
590.389
600.067
608.838
616.656
623.48
629.275
634.008
637.654
640.194
641.611
641.899
641.054
489.142
504.13
518.678
532.722
546.198
559.041
571.192
582.59
593.18
602.908
611.724
619.583
626.444
632.271
637.031
640.699
643.255
644.685
644.979
644.135
489.947
504.959
519.532
533.599
547.097
559.963
572.134
583.552
594.16
603.905
612.737
620.611
627.485
633.323
638.093
641.769
644.332
645.766
646.063
645.22
489.277
504.267
518.817
532.862
546.339
559.185
571.337
582.737
593.329
603.059
611.878
619.739
626.603
632.431
637.194
640.865
643.423
644.855
645.151
644.309
487.142
502.061
516.543
530.522
543.935
556.719
568.814
580.159
590.7
600.382
609.158
616.98
623.809
629.609
634.347
637.998
640.542
641.964
642.256
641.415
483.561
498.363
512.73
526.599
539.906
552.588
564.585
575.839
586.294
595.898
604.601
612.359
619.131
624.88
629.577
633.194
635.714
637.12
637.404
636.565
478.561
493.2
507.408
521.123
534.282
546.822
558.685
569.812
580.148
589.642
598.245
605.912
612.603
618.284
622.922
626.493
628.978
630.361
630.635
629.798
472.177
486.609
500.616
514.136
527.106
539.466
551.157
562.122
572.307
581.661
590.136
597.688
604.277
609.869
614.433
617.945
620.386
621.74
622
621.165
464.456
478.638
492.401
505.685
518.428
530.571
542.055
552.825
562.828
572.013
580.333
587.746
594.212
599.698
604.173
607.614
610.001
611.32
611.564
610.731
455.449
469.341
482.821
495.831
508.309
520.199
531.443
541.986
551.777
560.766
568.907
576.159
582.482
587.845
592.216
595.574
597.899
599.178
599.404
598.573
445.22
458.782
471.942
484.641
496.821
508.424
519.396
529.683
539.234
548.001
555.94
563.009
569.171
574.393
578.649
581.913
584.169
585.403
585.607
584.781
433.838
447.035
459.839
472.194
484.042
495.328
505.998
516.001
525.286
533.808
541.522
548.389
554.373
559.441
563.568
566.729
568.908
570.093
570.275
569.454
421.381
434.18
446.597
458.576
470.062
481.003
491.344
501.037
510.033
518.287
525.757
532.404
538.194
543.095
547.082
550.132
552.228
553.36
553.519
552.704
)
;
    }
    coldSide
    {
        type            mixed;
        refValue        uniform 300;
        refGradient     uniform 0;
        valueFraction   uniform 0.991591;
        source          uniform 0;
        value           nonuniform List<scalar> 
400
(
300.024
300.024
300.025
300.025
300.026
300.027
300.027
300.028
300.028
300.029
300.029
300.03
300.03
300.03
300.03
300.03
300.031
300.031
300.031
300.031
300.025
300.024
300.025
300.026
300.027
300.027
300.028
300.028
300.029
300.029
300.03
300.03
300.03
300.031
300.031
300.031
300.031
300.031
300.031
300.031
300.025
300.026
300.026