/*--------------------------------*- C++ -*----------------------------------*\
| =========                 |                                                 |
| \\      /  F ield         | OpenFOAM: The Open Source CFD Toolbox           |
|  \\    /   O peration     | Version:  2212                                  |
|   \\  /    A nd           | Website:  www.openfoam.com                      |
|    \\/     M anipulation  |                                                 |
\*---------------------------------------------------------------------------*/
FoamFile
{
    version     2.0;
    format      ascii;
    arch        "LSB;label=32;scalar=64";
    class       volScalarField;
    location    "0";
    object      T;
}
// * * * * * * * * * * * * * * * * * * * * * * * * * * * * * * * * * * * * * //

dimensions      [0 0 0 1 0 0 0];

internalField   nonuniform List<scalar> 
3200
(
349.453
347.966
346.954
346.782
347.01
347.904
348.714
349.706
350.509
351.409
351.829
351.92
351.869
351.851
351.584
351.433
351.437
352.221
353.517
355.067
342.801
341.594
340.75
340.592
340.799
341.558
342.257
343.12
343.799
344.585
344.941
344.992
344.952
344.926
344.713
344.542
344.546
345.23
346.333
347.634
336.188
335.22
334.514
334.397
334.565
335.21
335.778
336.53
337.098
337.761
338.049
338.088
338.037
337.994
337.833
337.667
337.686
338.26
339.179
340.239
329.607
328.836
328.277
328.184
328.303
328.852
329.324
329.936
330.378
330.92
331.147
331.189
331.121
331.073
330.943
330.802
330.847
331.294
332.036
332.883
323.015
322.459
322.035
321.938
322.042
322.46
322.849
323.332
323.637
324.077
324.228
324.293
324.218
324.17
324.076
323.942
323.985
324.344
324.918
325.537
316.43
316.066
315.784
315.695
315.779
316.055
316.352
316.689
316.882
317.222
317.33
317.389
317.301
317.272
317.201
317.101
317.138
317.392
317.804
318.219
309.866
309.654
309.494
309.429
309.492
309.653
309.838
310.026
310.122
310.346
310.423
310.464
310.403
310.379
310.318
310.27
310.279
310.459
310.677
310.926
303.322
303.238
303.192
303.144
303.175
303.241
303.308
303.366
303.388
303.462
303.506
303.518
303.475
303.476
303.455
303.438
303.449
303.505
303.583
303.668
349.578
348.043
347.144
346.873
347.164
348.044
349.077
350.041
350.91
351.731
352.286
352.498
352.42
352.271
351.937
351.752
351.775
352.434
353.669
355.222
342.935
341.669
340.923
340.67
340.9
341.694
342.573
343.399
344.132
344.87
345.326
345.494
345.439
345.285
345.004
344.844
344.831
345.433
346.484
347.784
336.321
335.275
334.687
334.456
334.652
335.325
336.055
336.743
337.357
337.997
338.373
338.488
338.457
338.337
338.1
337.933
337.905
338.432
339.332
340.374
329.708
328.88
328.421
328.239
328.415
328.951
329.532
330.071
330.563
331.102
331.404
331.498
331.466
331.368
331.187
331.016
331.011
331.435
332.189
332.988
323.096
322.475
322.134
321.987
322.147
322.562
322.987
323.406
323.771
324.215
324.441
324.502
324.479
324.405
324.289
324.135
324.118
324.473
325.034
325.647
316.512
316.058
315.849
315.734
315.857
316.133
316.434
316.741
316.981
317.307
317.45
317.498
317.477
317.43
317.366
317.258
317.228
317.514
317.882
318.313
309.937
309.638
309.518
309.438
309.531
309.698
309.875
310.054
310.2
310.394
310.477
310.501
310.482
310.478
310.445
310.356
310.357
310.53
310.736
310.996
303.333
303.235
303.196
303.156
303.194
303.254
303.317
303.372
303.415
303.49
303.509
303.521
303.515
303.517
303.497
303.468
303.472
303.535
303.598
303.689
349.895
348.479
347.681
347.394
347.789
348.619
349.661
350.701
351.598
352.465
353.001
353.199
353.11
352.861
352.665
352.22
352.307
352.875
354.122
355.674
343.193
342.078
341.356
341.12
341.461
342.192
343.076
343.976
344.741
345.493
345.959
346.11
346.019
345.815
345.639
345.228
345.313
345.816
346.865
348.202
336.538
335.655
335.026
334.838
335.125
335.741
336.467
337.245
337.886
338.54
338.907
339.046
338.926
338.788
338.636
338.283
338.327
338.787
339.667
340.756
329.888
329.21
328.68
328.53
328.774
329.283
329.857
330.468
331.026
331.568
331.843
331.972
331.85
331.755
331.617
331.347
331.348
331.754
332.464
333.319
323.236
322.738
322.327
322.21
322.395
322.807
323.229
323.706
324.154
324.568
324.791
324.891
324.779
324.699
324.594
324.385
324.365
324.705
325.249
325.908
316.595
316.263
315.97
315.876
316.025
316.303
316.61
316.937
317.285
317.56
317.717
317.794
317.692
317.661
317.577
317.437
317.397
317.651
318.064
318.504
309.965
309.767
309.599
309.506
309.649
309.792
309.971
310.181
310.398
310.55
310.647
310.685
310.615
310.612
310.556
310.48
310.449
310.598
310.85
311.109
303.339
303.283
303.213
303.185
303.243
303.287
303.354
303.42
303.491
303.538
303.568
303.584
303.557
303.556
303.537
303.503
303.503
303.548
303.641
303.725
350.486
349.251
348.328
348.031
348.467
349.282
350.477
351.549
352.619
353.516
353.974
354.148
354.02
353.776
353.528
353.129
353.185
353.644
354.68
356.3
343.735
342.731
341.944
341.654
342.04
342.755
343.777
344.712
345.615
346.414
346.76
346.904
346.827
346.598
346.395
346.045
346.096
346.496
347.364
348.739
337.01
336.195
335.544
335.28
335.592
336.215
337.067
337.857
338.591
339.312
339.545
339.675
339.638
339.429
339.242
338.976
339.016
339.355
340.081
341.219
330.287
329.64
329.091
328.894
329.171
329.648
330.342
330.985
331.596
332.195
332.339
332.465
332.443
332.26
332.093
331.896
331.933
332.231
332.814
333.713
323.575
323.081
322.635
322.502
322.709
323.081
323.628
324.107
324.588
325.049
325.133
325.265
325.25
325.107
324.948
324.827
324.842
325.1
325.527
326.216
316.831
316.501
316.177
316.093
316.24
316.507
316.914
317.218
317.583
317.878
317.947
318.04
318.03
317.927
317.829
317.749
317.746
317.937
318.246
318.719
310.104
309.913
309.716
309.678
309.758
309.933
310.193
310.342
310.57
310.725
310.773
310.839
310.832
310.762
310.717
310.67
310.655
310.772
310.97
311.246
303.383
303.318
303.247
303.24
303.274
303.338
303.427
303.462
303.551
303.583
303.612
303.633
303.63
303.607
303.594
303.587
303.58
303.597
303.681
303.772
351.459
350.096
349.241
349.13
349.357
350.228
351.521
352.645
353.63
354.544
355.101
355.364
355.211
354.87
354.554
354.085
354.096
354.605
355.73
357.179
344.607
343.455
342.722
342.621
342.827
343.57
344.675
345.657
346.493
347.277
347.751
347.997
347.865
347.545
347.279
346.849
346.884
347.332
348.281
349.483
337.748
336.802
336.189
336.094
336.303
336.92
337.845
338.672
339.359
340.019
340.414
340.602
340.524
340.248
340.003
339.647
339.666
340.068
340.844
341.823
330.891
330.144
329.632
329.563
329.733
330.258
331.007
331.684
332.219
332.778
333.079
333.218
333.155
332.937
332.725
332.447
332.471
332.788
333.402
334.195
324.027
323.483
323.053
323.036
323.136
323.577
324.148
324.676
325.076
325.52
325.709
325.85
325.785
325.631
325.442
325.243
325.263
325.52
325.965
326.594
317.174
316.798
316.489
316.48
316.524
316.884
317.254
317.651
317.938
318.256
318.37
318.49
318.421
318.325
318.181
318.037
318.042
318.226
318.554
319.015
310.342
310.095
309.901
309.914
309.921
310.169
310.36
310.603
310.789
310.996
311.063
311.106
311.073
311.012
310.923
310.837
310.836
310.947
311.15
311.44
303.472
303.384
303.317
303.323
303.316
303.417
303.476
303.542
303.632
303.695
303.712
303.724
303.713
303.69
303.663
303.636
303.636
303.671
303.741
303.84
352.637
351.308
350.503
350.386
350.7
351.462
352.585
353.885
354.905
355.903
356.405
356.765
356.53
356.23
355.742
355.518
355.209
355.801
356.763
358.231
345.632
344.519
343.819
343.729
343.985
344.642
345.604
346.746
347.606
348.446
348.893
349.183
348.993
348.733
348.336
348.104
347.836
348.343
349.168
350.412
338.608
337.69
337.105
337.032
337.243
337.835
338.62
339.591
340.296
341.028
341.378
341.62
341.468
341.235
340.901
340.694
340.481
340.88
341.596
342.629
331.575
330.856
330.367
330.333
330.479
331.009
331.626
332.42
332.958
333.59
333.874
334.05
333.922
333.757
333.464
333.287
333.123
333.429
334.018
334.854
324.565
324.02
323.649
323.614
323.709
324.149
324.62
325.232
325.625
326.144
326.365
326.486
326.383
326.266
326.039
325.894
325.786
326
326.479
327.111
317.556
317.173
316.907
316.881
316.94
317.269
317.582
318.044
318.317
318.703
318.858
318.931
318.861
318.777
318.615
318.507
318.409
318.586
318.926
319.353
310.564
310.321
310.143
310.132
310.165
310.361
310.554
310.86
310.999
311.249
311.339
311.367
311.342
311.287
311.179
311.112
311.049
311.174
311.36
311.622
303.534
303.453
303.396
303.385
303.399
303.477
303.535
303.636
303.699
303.781
303.813
303.813
303.804
303.786
303.745
303.725
303.7
303.744
303.806
303.898
353.924
352.684
351.816
351.655
352.029
352.841
353.958
355.131
356.316
357.179
357.812
358.078
357.813
357.467
357.086
356.751
356.584
357.113
358.134
359.382
346.747
345.702
344.948
344.798
345.148
345.83
346.807
347.808
348.829
349.557
350.107
350.339
350.084
349.798
349.467
349.183
349.036
349.477
350.356
351.384
339.573
338.694
338.076
337.95
338.254
338.832
339.657
340.45
341.346
341.955
342.413
342.587
342.354
342.146
341.856
341.61
341.502
341.86
342.597
343.434
332.396
331.683
331.186
331.074
331.339
331.822
332.474
333.113
333.852
334.373
334.702
334.845
334.658
334.498
334.232
334.059
333.957
334.258
334.844
335.502
325.213
324.653
324.28
324.18
324.41
324.747
325.282
325.795
326.329
326.761
327.024
327.082
326.978
326.843
326.644
326.498
326.414
326.644
327.103
327.603
318.014
317.628
317.352
317.293
317.451
317.676
318.079
318.448
318.815
319.119
319.309
319.345
319.293
319.194
319.045
318.94
318.872
319.039
319.37
319.72
310.819
310.593
310.423
310.396
310.484
310.602
310.866
311.083
311.295
311.488
311.599
311.617
311.586
311.527
311.455
311.376
311.32
311.451
311.637
311.844
303.63
303.551
303.501
303.481
303.516
303.554
303.645
303.706
303.784
303.85
303.882
303.887
303.875
303.867
303.846
303.816
303.789
303.836
303.902
303.973
355.263
354.298
353.412
353.189
353.513
354.203
355.284
356.441
357.668
358.654
359.321
359.472
359.367
358.916
358.428
358.231
358.088
358.551
359.619
360.748
347.896
347.123
346.331
346.132
346.421
347.009
347.949
348.927
349.982
350.836
351.414
351.537
351.434
351.063
350.629
350.469
350.346
350.754
351.64
352.57
340.543
339.926
339.225
339.068
339.329
339.82
340.604
341.411
342.307
343.054
343.511
343.623
343.533
343.19
342.842
342.71
342.623
342.964
343.688
344.441
333.195
332.707
332.123
331.975
332.2
332.617
333.252
333.906
334.632
335.235
335.575
335.725
335.627
335.341
335.081
334.951
334.891
335.152
335.721
336.342
325.844
325.465
325.006
324.895
325.054
325.383
325.881
326.394
326.943
327.399
327.651
327.794
327.705
327.494
327.297
327.195
327.154
327.347
327.78
328.265
318.477
318.201
317.871
317.824
317.916
318.152
318.486
318.877
319.246
319.573
319.764
319.873
319.799
319.634
319.526
319.444
319.424
319.528
319.835
320.204
311.104
310.943
310.728
310.731
310.764
310.898
311.112
311.346
311.55
311.752
311.868
311.952
311.896
311.798
311.74
311.686
311.686
311.713
311.931
312.141
303.716
303.673
303.594
303.594
303.613
303.65
303.725
303.804
303.861
303.942
303.976
304.002
303.978
303.955
303.934
303.927
303.92
303.919
304.002
304.071
356.859
355.938
355.068
354.771
355.092
355.816
356.734
357.868
359.157
359.991
360.772
361.057
360.823
360.469
359.936
359.77
359.627
360.136
361.049
362.293
349.263
348.544
347.778
347.51
347.802
348.41
349.192
350.178
351.312
351.978
352.667
352.926
352.703
352.411
351.946
351.807
351.676
352.106
352.886
353.941
341.68
341.136
340.484
340.241
340.501
341.017
341.656
342.474
343.432
343.972
344.601
344.808
344.597
344.393
343.962
343.84
343.71
344.082
344.74
345.604
334.101
333.711
333.164
332.967
333.179
333.602
334.095
334.766
335.541
335.971
336.511
336.658
336.501
336.354
335.995
335.868
335.748
336.049
336.599
337.312
326.532
326.238
325.828
325.666
325.846
326.159
326.531
327.045
327.639
327.976
328.401
328.5
328.43
328.295
328.027
327.895
327.807
328.048
328.471
329.018
318.953
318.778
318.465
318.33
318.467
318.689
318.966
319.334
319.741
319.996
320.291
320.351
320.334
320.223
320.048
319.948
319.872
320.056
320.334
320.718
311.392
311.293
311.086
311.013
311.088
311.213
311.391
311.612
311.849
312.011
312.192
312.229
312.22
312.152
312.042
311.992
311.948
312.072
312.218
312.433
303.833
303.778
303.716
303.695
303.722
303.758
303.815
303.884
303.971
304.023
304.081
304.09
304.105
304.073
304.023
304.019
304.004
304.05
304.098
304.168
358.61
357.593
356.826
356.53
356.744
357.382
358.317
359.316
360.55
361.352
362.219
362.504
362.324
361.996
361.407
361.342
361.298
361.772
362.825
363.812
350.808
349.968
349.311
349.055
349.209
349.773
350.591
351.432
352.462
353.169
353.92
354.172
354.025
353.743
353.238
353.16
353.109
353.541
354.409
355.237
342.999
342.333
341.753
341.545
341.683
342.146
342.846
343.535
344.371
345.002
345.637
345.87
345.733
345.494
345.065
344.985
344.917
345.306
346.018
346.693
335.194
334.685
334.168
334.012
334.12
334.491
335.093
335.632
336.287
336.839
337.352
337.551
337.428
337.235
336.893
336.813
336.726
337.069
337.646
338.191
327.392
327.017
326.575
326.463
326.544
326.86
327.334
327.722
328.237
328.666
329.065
329.212
329.126
328.96
328.707
328.643
328.547
328.817
329.296
329.696
319.586
319.327
318.975
318.893
318.968
319.218
319.543
319.792
320.203
320.499
320.774
320.867
320.825
320.678
320.528
320.467
320.361
320.585
320.943
321.219
311.78
311.63
311.402
311.355
311.395
311.56
311.727
311.883
312.146
312.326
312.474
312.532
312.507
312.407
312.333
312.286
312.214
312.365
312.579
312.752
303.94
303.899
303.826
303.816
303.83
303.878
303.933
303.978
304.074
304.14
304.18
304.197
304.184
304.161
304.13
304.117
304.091
304.155
304.208
304.277
360.491
359.373
358.688
358.315
358.47
358.975
359.947
360.816
361.976
362.917
363.695
363.854
363.697
363.511
363.07
363.001
362.898
363.379
364.351
365.486
352.423
351.524
350.902
350.591
350.71
351.146
352.022
352.724
353.717
354.534
355.189
355.35
355.213
355.057
354.66
354.605
354.507
354.912
355.764
356.702
344.362
343.663
343.134
342.844
342.925
343.3
344.073
344.64
345.451
346.152
346.698
346.839
346.721
346.599
346.232
346.241
346.139
346.442
347.159
347.938
336.304
335.758
335.323
335.084
335.163
335.468
336.075
336.543
337.199
337.792
338.201
338.322
338.235
338.125
337.818
337.861
337.761
337.977
338.576
339.208
328.235
327.828
327.499
327.325
327.39
327.623
328.085
328.436
328.949
329.431
329.688
329.81
329.751
329.671
329.433
329.475
329.383
329.552
329.99
330.496
320.177
319.88
319.662
319.521
319.59
319.739
320.09
320.316
320.706
321.035
321.205
321.3
321.257
321.201
321.035
321.071
321.001
321.109
321.424
321.781
312.131
311.933
311.825
311.724
311.779
311.859
312.093
312.207
312.442
312.641
312.731
312.789
312.77
312.721
312.623
312.662
312.614
312.675
312.861
313.078
304.065
303.999
303.967
303.939
303.951
303.967
304.056
304.094
304.164
304.247
304.269
304.283
304.278
304.269
304.236
304.239
304.223
304.254
304.327
304.391
362.324
361.258
360.415
360.119
360.199
360.659
361.633
362.419
363.423
364.242
364.943
365.26
365.204
364.978
364.601
364.45
364.478
364.937
365.938
367.157
354.031
353.133
352.381
352.17
352.226
352.609
353.437
354.108
354.99
355.692
356.302
356.564
356.529
356.348
356.004
355.881
355.852
356.267
357.11
358.166
345.736
344.993
344.351
344.208
344.229
344.556
345.231
345.81
346.536
347.14
347.66
347.862
347.848
347.71
347.407
347.306
347.257
347.599
348.295
349.177
337.457
336.822
336.316
336.205
336.211
336.488
337.008
337.503
338.079
338.579
339.007
339.181
339.151
339.056
338.827
338.723
338.664
338.935
339.499
340.198
329.158
328.653
328.273
328.225
328.177
328.395
328.801
329.191
329.646
330.017
330.356
330.489
330.462
330.399
330.222
330.13
330.081
330.28
330.707
331.238
320.846
320.476
320.229
320.198
320.143
320.311
320.585
320.846
321.201
321.457
321.709
321.806
321.771
321.735
321.608
321.536
321.503
321.637
321.921
322.308
312.507
312.283
312.159
312.152
312.108
312.196
312.36
312.514
312.741
312.888
313.062
313.116
313.085
313.063
313.003
312.944
312.909
313.009
313.145
313.395
304.185
304.118
304.073
304.08
304.059
304.083
304.138
304.187
304.265
304.31
304.38
304.397
304.375
304.382
304.37
304.337
304.334
304.369
304.402
304.495
364.063
363.202
362.365
361.976
361.995
362.434
363.323
364.14
364.874
365.655
366.266
366.519
366.659
366.364
366.172
366.126
366.221
366.684
367.703
368.848
355.54
354.814
354.088
353.76
353.776
354.159
354.942
355.629
356.269
356.903
357.426
357.684
357.817
357.548
357.362
357.326
357.383
357.773
358.662
359.613
347.031
346.413
345.808
345.551
345.541
345.877
346.501
347.096
347.64
348.173
348.597
348.841
348.939
348.74
348.537
348.532
348.553
348.873
349.664
350.405
338.498
338.007
337.502
337.315
337.286
337.576
338.042
338.545
338.978
339.426
339.781
339.982
340.057
339.914
339.731
339.737
339.713
339.984
340.646
341.226
329.976
329.584
329.184
329.04
329.022
329.263
329.593
330.017
330.315
330.673
330.97
331.139
331.157
331.071
330.927
330.936
330.882
331.134
331.606
332.048
321.428
321.156
320.875
320.76
320.751
320.923
321.145
321.468
321.646
321.933
322.146
322.259
322.265
322.197
322.13
322.12
322.059
322.243
322.589
322.902
312.879
312.716
312.559
312.478
312.47
312.56
312.694
312.896
313.006
313.163
313.308
313.371
313.382
313.325
313.315
313.29
313.245
313.362
313.582
313.76
304.317
304.255
304.208
304.183
304.179
304.205
304.259
304.324
304.376
304.416
304.452
304.483
304.492
304.46
304.47
304.456
304.44
304.47
304.557
304.614
365.86
365.057
364.213
363.748
363.801
364.243
364.783
365.573
366.228
367.086
367.589
367.806
367.942
367.82
367.68
367.639
367.865
368.368
369.291
370.258
357.1
356.414
355.685
355.289
355.349
355.733
356.188
356.888
357.434
358.157
358.601
358.791
358.914
358.8
358.674
358.624
358.816
359.271
360.047
360.833
348.336
347.761
347.161
346.828
346.886
347.2
347.579
348.164
348.631
349.229
349.61
349.75
349.871
349.756
349.662
349.608
349.768
350.17
350.81
351.447
339.573
339.088
338.609
338.338
338.379
338.655
338.978
339.454
339.833
340.292
340.616
340.718
340.839
340.712
340.665
340.6
340.743
341.066
341.589
342.094
330.803
330.416
330.069
329.842
329.874
330.107
330.362
330.732
331.004
331.338
331.613
331.678
331.788
331.663
331.657
331.591
331.714
331.941
332.362
332.738
322.02
321.731
321.52
321.342
321.359
321.554
321.71
321.972
322.159
322.396
322.615
322.643
322.728
322.626
322.627
322.592
322.675
322.831
323.115
323.389
313.227
313.056
312.926
312.835
312.823
312.969
313.039
313.188
313.299
313.449
313.594
313.607
313.653
313.589
313.592
313.596
313.625
313.715
313.879
314.048
304.418
304.37
304.332
304.295
304.295
304.355
304.38
304.423
304.463
304.518
304.559
304.547
304.58
304.552
304.553
304.554
304.567
304.594
304.653
304.708
367.804
366.944
366.248
365.72
365.734
365.963
366.418
367.05
367.693
368.312
368.838
369.002
369.225
369.248
369.025
369.185
369.632
370.086
370.927
371.992
358.764
358.078
357.496
357.022
357.035
357.21
357.634
358.148
358.689
359.222
359.682
359.786
360.013
360.032
359.846
359.982
360.35
360.761
361.443
362.352
349.75
349.172
348.708
348.302
348.332
348.456
348.843
349.245
349.705
350.134
350.533
350.593
350.821
350.801
350.665
350.777
351.067
351.428
351.991
352.716
340.755
340.249
339.888
339.558
339.606
339.685
340.01
340.32
340.695
341.049
341.378
341.414
341.599
341.589
341.453
341.545
341.806
342.084
342.54
343.096
331.735
331.304
331.035
330.775
330.829
330.888
331.167
331.381
331.664
331.942
332.198
332.218
332.366
332.368
332.262
332.323
332.531
332.728
333.11
333.507
322.697
322.371
322.17
321.997
322.031
322.073
322.299
322.438
322.636
322.835
323.031
323.048
323.133
323.139
323.071
323.095
323.25
323.383
323.66
323.932
313.632
313.438
313.324
313.214
313.235
313.268
313.407
313.477
313.592
313.728
313.841
313.845
313.882
313.903
313.85
313.884
313.972
314.056
314.211
314.382
304.565
304.498
304.466
304.429
304.436
304.446
304.502
304.519
304.561
304.603
304.644
304.644
304.646
304.662
304.65
304.655
304.684
304.71
304.769
304.821
369.908
368.852
368.138
367.593
367.472
367.819
368.224
368.511
369.19
369.734
370.16
370.463
370.564
370.712
370.533
370.796
371.253
371.706
372.701
373.735
360.612
359.704
359.111
358.638
358.521
358.817
359.169
359.415
360
360.474
360.806
361.086
361.188
361.333
361.146
361.37
361.773
362.155
362.96
363.867
351.309
350.553
350.059
349.662
349.572
349.806
350.122
350.329
350.798
351.208
351.471
351.697
351.809
351.924
351.76
351.953
352.294
352.593
353.23
354.005
341.99
341.401
340.992
340.671
340.62
340.787
341.048
341.214
341.581
341.936
342.129
342.316
342.394
342.508
342.373
342.538
342.824
343.037
343.535
344.164
332.686
332.225
331.906
331.662
331.647
331.745
331.944
332.086
332.348
332.655
332.798
332.927
332.991
333.075
332.964
333.103
333.341
333.49
333.861
334.34
323.359
323.029
322.808
322.656
322.644
322.696
322.82
322.954
323.11
323.359
323.456
323.554
323.581
323.629
323.567
323.661
323.858
323.938
324.19
324.517
314.042
313.84
313.702
313.614
313.607
313.64
313.725
313.785
313.89
314.062
314.097
314.152
314.172
314.174
314.168
314.206
314.351
314.386
314.539
314.717
304.722
304.64
304.601
304.573
304.557
304.578
304.598
304.618
304.659
304.721
304.726
304.742
304.747
304.752
304.753
304.774
304.819
304.814
304.872
304.932
371.785
370.849
369.927
369.514
369.307
369.462
369.798
370.185
370.578
371.267
371.632
371.787
371.912
372.094
372.151
372.34
372.95
373.487
374.44
375.617
362.209
361.433
360.662
360.292
360.101
360.227
360.541
360.849
361.195
361.788
362.09
362.228
362.34
362.49
362.538
362.713
363.235
363.684
364.486
365.471
352.642
352.039
351.365
351.058
350.894
351.022
351.265
351.497
351.827
352.309
352.557
352.68
352.764
352.851
352.924
353.083
353.506
353.912
354.554
355.358
343.076
342.628
342.056
341.796
341.668
341.79
341.981
342.132
342.437
342.84
343.027
343.118
343.165
343.252
343.307
343.441
343.759
344.128
344.615
345.279
333.531
333.189
332.737
332.527
332.454
332.54
332.688
332.763
333.036
333.359
333.493
333.553
333.568
333.645
333.705
333.796
334.036
334.333
334.695
335.238
323.988
323.727
323.402
323.257
323.22
323.266
323.359
323.409
323.612
323.842
323.925
323.98
323.971
324.033
324.088
324.147
324.309
324.539
324.803
325.191
314.427
314.25
314.072
313.964
313.949
313.98
314.032
314.05
314.203
314.315
314.364
314.411
314.397
314.436
314.466
314.508
314.604
314.737
314.905
315.143
304.842
304.78
304.734
304.69
304.671
304.692
304.703
304.706
304.767
304.802
304.823
304.838
304.822
304.835
304.844
304.866
304.894
304.945
305.001
305.077
373.64
372.739
371.815
371.306
371.177
371.106
371.519
371.764
372.173
372.663
373.027
373.171
373.346
373.452
373.588
373.935
374.578
375.346
376.167
377.259
363.812
363.092
362.28
361.844
361.732
361.659
362.018
362.229
362.555
362.994
363.306
363.441
363.548
363.666
363.79
364.097
364.644
365.314
365.975
366.866
354.006
353.417
352.737
352.376
352.289
352.222
352.518
352.689
352.948
353.313
353.574
353.71
353.783
353.883
354.006
354.244
354.73
355.283
355.802
356.536
344.202
343.732
343.171
342.897
342.809
342.748
343.007
343.126
343.336
343.635
343.851
343.979
344.007
344.105
344.213
344.381
344.797
345.244
345.659
346.228
334.387
334.052
333.607
333.409
333.325
333.253
333.482
333.565
333.72
333.953
334.148
334.213
334.252
334.327
334.419
334.512
334.83
335.183
335.535
335.962
324.607
324.363
324.033
323.906
323.821
323.745
323.934
323.996
324.116
324.266
324.414
324.439
324.485
324.514
324.605
324.656
324.889
325.139
325.395
325.693
314.796
314.654
314.43
314.363
314.309
314.264
314.37
314.413
314.49
314.581
314.673
314.679
314.713
314.724
314.776
314.816
314.929
315.091
315.265
315.421
304.96
304.905
304.829
304.817
304.793
304.779
304.821
304.834
304.853
304.887
304.91
304.922
304.942
304.929
304.961
304.967
304.995
305.055
305.115
305.17
375.501
374.549
373.541
373.041
372.74
372.782
372.996
373.186
373.556
373.903
374.097
374.558
374.702
374.881
375.111
375.41
376.037
376.884
377.806
378.877
365.412
364.621
363.748
363.33
363.056
363.095
363.279
363.433
363.755
364.046
364.202
364.6
364.73
364.904
365.077
365.337
365.885
366.593
367.408
368.267
355.342
354.7
353.963
353.62
353.363
353.409
353.547
353.67
353.935
354.157
354.315
354.652
354.788
354.913
355.063
355.272
355.742
356.322
357.023
357.706
345.261
344.76
344.178
343.9
343.677
343.693
343.82
343.936
344.141
344.288
344.44
344.724
344.832
344.93
345.06
345.214
345.601
346.087
346.647
347.183
335.214
334.838
334.375
334.17
333.988
333.972
334.088
334.195
334.347
334.442
334.572
334.813
334.869
334.952
335.06
335.165
335.466
335.853
336.287
336.663
325.152
324.894
324.548
324.424
324.268
324.265
324.382
324.436
324.541
324.606
324.729
324.883
324.9
324.963
325.044
325.122
325.354
325.619
325.918
326.177
315.116
314.947
314.743
314.687
314.574
314.569
314.652
314.682
314.73
314.775
314.851
314.952
314.968
314.986
315.044
315.091
315.211
315.39
315.561
315.721
305.074
305.016
304.929
304.915
304.884
304.876
304.91
304.922
304.93
304.946
304.98
305.011
305.021
305.018
305.039
305.058
305.09
305.161
305.213
305.261
376.899
375.874
374.93
374.361
373.855
373.956
374.018
374.239
374.592
374.949
375.112
375.488
375.833
375.9
376.225
376.619
377.29
378.078
379.056
380.101
366.563
365.715
364.889
364.422
363.965
364.024
364.104
364.291
364.597
364.919
365.042
365.361
365.665
365.713
365.997
366.335
366.888
367.584
368.418
369.273
356.263
355.6
354.896
354.479
354.104
354.137
354.231
354.388
354.632
354.897
355.002
355.278
355.539
355.561
355.814
356.098
356.538
357.143
357.813
358.53
346.011
345.461
344.932
344.566
344.261
344.278
344.371
344.508
344.666
344.9
344.967
345.239
345.437
345.443
345.649
345.882
346.227
346.731
347.263
347.817
335.816
335.349
334.98
334.68
334.409
334.434
334.527
334.621
334.716
334.924
334.961
335.201
335.329
335.323
335.485
335.666
335.925
336.351
336.763
337.137
325.613
325.264
325.016
324.803
324.564
324.585
324.68
324.74
324.785
324.955
324.982
325.162
325.219
325.213
325.331
325.462
325.632
325.975
326.268
326.493
315.395
315.165
315.036
314.905
314.743
314.77
314.824
314.865
314.867
315
315
315.102
315.133
315.13
315.217
315.284
315.393
315.608
315.774
315.901
305.169
305.083
305.031
304.99
304.935
304.951
304.967
304.98
304.984
305.034
305.017
305.06
305.069
305.068
305.104
305.115
305.17
305.224
305.286
305.319
)
;

boundaryField
{
    hotSide
    {
        type            fixedGradient;
        gradient        nonuniform List<scalar> 
400
(
532.346
531.753
534.659
540.982
550.395
562.414
576.524
592.253
609.208
627.087
645.661
664.768
684.297
704.182
724.392
744.924
765.798
787.043
808.681
830.721
510.628
510.214
513.54
520.507
530.716
543.598
558.561
575.083
592.744
611.229
630.307
649.817
669.658
689.772
710.14
730.774
751.71
772.993
794.664
816.739
498.489
498.568
502.342
509.705
520.26
533.445
548.673
565.419
583.263
601.882
621.044
640.589
660.415
680.471
700.744
721.252
742.039
763.157
784.651
806.545
495.377
496.24
500.506
508.067
518.588
531.593
546.565
563.025
580.57
598.882
617.728
636.945
656.432
676.139
696.055
716.202
736.622
757.364
778.472
799.974
499.007
500.814
505.646
513.393
523.784
536.438
550.929
566.839
583.8
601.512
619.747
638.346
657.213
676.3
695.604
715.148
734.975
755.13
775.657
796.584
506.784
509.592
515.084
523.142
533.535
545.945
560.012
575.372
591.692
608.691
626.158
643.946
661.976
680.219
698.682
717.404
736.43
755.813
775.594
795.804
516.607
520.414
526.654
535.193
545.811
558.219
572.085
587.067
602.849
619.165
635.822
652.701
669.751
686.979
704.427
722.153
740.223
758.696
777.621
797.03
526.911
531.669
538.703
547.865
558.928
571.6
585.539
600.393
615.829
631.58
647.466
663.405
679.401
695.516
711.842
728.478
745.513
763.021
781.055
799.648
536.5
542.091
549.889
559.732
571.382
584.524
598.782
613.755
629.062
644.404
659.611
674.65
689.598
704.598
719.807
735.372
751.409
768.002
785.208
803.058
544.451
550.66
559.067
569.508
581.733
595.404
610.098
625.348
640.699
655.801
670.481
684.762
698.811
712.856
727.124
741.801
757.025
772.888
789.444
806.719
550.118
556.621
565.346
576.129
588.713
602.745
617.769
633.266
648.722
663.738
678.136
691.98
705.5
718.985
732.705
746.87
761.63
777.078
793.269
810.222
553.223
559.625
568.282
579.029
591.605
605.649
620.7
636.234
651.733
666.799
681.248
695.139
708.695
722.202
735.929
750.09
764.835
780.265
796.434
813.369
553.932
559.846
568.062
578.412
590.634
604.367
619.168
634.549
650.044
665.29
680.104
694.495
708.618
722.695
736.954
751.589
766.748
782.535
799.016
816.223
552.887
558.004
565.515
575.255
586.958
600.267
614.761
629.994
645.553
661.115
676.491
691.633
706.613
721.573
736.679
752.094
767.954
784.365
801.401
819.105
551.184
555.307
561.992
571.083
582.307
595.294
609.623
624.867
640.637
656.63
672.644
688.591
704.477
720.378
736.407
752.693
769.358
786.508
804.221
822.547
550.383
553.422
559.278
567.806
578.705
591.566
605.933
621.361
637.462
653.931
670.56
687.233
703.918
720.647
737.499
754.578
771.996
789.859
808.25
827.222
552.576
554.546
559.636
567.71
578.421
591.287
605.791
621.454
637.875
654.747
671.858
689.08
706.363
723.715
741.194
758.89
776.911
795.364
814.34
833.89
560.301
561.343
565.748
573.388
583.867
596.639
611.137
626.855
643.388
660.43
677.774
695.288
712.913
730.643
748.521
766.625
785.061
803.936
823.344
843.332
575.81
576.204
579.993
587.06
597.015
609.313
623.392
638.756
655.011
671.861
689.1
706.597
724.281
742.137
760.192
778.51
797.181
816.305
835.964
856.2
599.771
599.83
603.061
609.37
618.436
629.801
642.975
657.516
673.057
689.32
706.102
723.267
740.735
758.475
776.497
794.843
813.579
832.778
852.501
872.775
)
;
    }
    coldSide
    {
        type            mixed;
        refValue        uniform 300;
        refGradient     uniform 0;
        valueFraction   uniform 0.991591;
        source          uniform 0;
        value           nonuniform List<scalar> 
400
(
300.028
300.028
300.028
300.028
300.029
300.03
300.031
300.031
300.032
300.033
300.034
300.035
300.036
300.037
300.038
300.04
300.041
300.042
300.043
300.043
300.027
300.027
300.028
300.028
300.028
300.029
300.03
300.031
300.032
300.033
300.034
300.035
300.036
300.037
300.038
300.039
300.04
300.041
300.042