/*--------------------------------*- C++ -*----------------------------------*\
| =========                 |                                                 |
| \\      /  F ield         | OpenFOAM: The Open Source CFD Toolbox           |
|  \\    /   O peration     | Version:  2212                                  |
|   \\  /    A nd           | Website:  www.openfoam.com                      |
|    \\/     M anipulation  |                                                 |
\*---------------------------------------------------------------------------*/
FoamFile
{
    version     2.0;
    format      ascii;
    arch        "LSB;label=32;scalar=64";
    class       volScalarField;
    location    "0";
    object      Tdirect;
}
// * * * * * * * * * * * * * * * * * * * * * * * * * * * * * * * * * * * * * //

dimensions      [0 0 0 1 0 0 0];

internalField   nonuniform List<scalar> 
3200
(
343.856
344.369
345.025
345.74
346.476
347.199
347.866
348.429
348.839
349.056
349.056
348.839
348.429
347.866
347.199
346.476
345.74
345.025
344.369
343.856
338.107
338.541
339.107
339.726
340.363
340.988
341.565
342.051
342.405
342.592
342.592
342.405
342.051
341.565
340.988
340.363
339.726
339.107
338.541
338.107
332.316
332.677
333.154
333.676
334.215
334.743
335.23
335.64
335.939
336.097
336.097
335.939
335.64
335.23
334.743
334.215
333.676
333.154
332.677
332.316
326.492
326.782
327.171
327.598
328.038
328.47
328.867
329.202
329.446
329.575
329.575
329.446
329.202
328.867
328.47
328.038
327.598
327.171
326.782
326.492
320.639
320.862
321.164
321.495
321.838
322.173
322.482
322.742
322.932
323.032
323.032
322.932
322.742
322.482
322.173
321.838
321.495
321.164
320.862
320.639
314.765
314.923
315.138
315.375
315.619
315.858
316.079
316.265
316.4
316.471
316.471
316.4
316.265
316.079
315.858
315.619
315.375
315.138
314.923
314.765
308.875
308.969
309.098
309.24
309.387
309.531
309.663
309.775
309.856
309.899
309.899
309.856
309.775
309.663
309.531
309.387
309.24
309.098
308.969
308.875
302.976
303.008
303.051
303.098
303.148
303.196
303.24
303.277
303.305
303.319
303.319
303.305
303.277
303.24
303.196
303.148
303.098
303.051
303.008
302.976
344.011
344.52
345.171
345.879
346.608
347.322
347.982
348.538
348.943
349.156
349.156
348.943
348.538
347.982
347.322
346.608
345.879
345.171
344.52
344.011
338.241
338.673
339.234
339.846
340.477
341.095
341.665
342.146
342.495
342.68
342.68
342.495
342.146
341.665
341.095
340.477
339.846
339.234
338.673
338.241
332.431
332.788
333.261
333.779
334.312
334.834
335.315
335.721
336.016
336.172
336.172
336.016
335.721
335.315
334.834
334.312
333.779
333.261
332.788
332.431
326.585
326.874
327.259
327.682
328.117
328.544
328.937
329.269
329.509
329.636
329.636
329.509
329.269
328.937
328.544
328.117
327.682
327.259
326.874
326.585
320.712
320.933
321.232
321.561
321.899
322.231
322.537
322.794
322.981
323.079
323.079
322.981
322.794
322.537
322.231
321.899
321.561
321.232
320.933
320.712
314.817
314.974
315.187
315.421
315.663
315.9
316.118
316.302
316.435
316.505
316.505
316.435
316.302
316.118
315.9
315.663
315.421
315.187
314.974
314.817
308.906
309
309.128
309.269
309.414
309.556
309.687
309.797
309.877
309.919
309.919
309.877
309.797
309.687
309.556
309.414
309.269
309.128
309
308.906
302.987
303.018
303.061
303.108
303.156
303.204
303.248
303.285
303.312
303.326
303.326
303.312
303.285
303.248
303.204
303.156
303.108
303.061
303.018
302.987
344.322
344.823
345.463
346.158
346.872
347.571
348.215
348.758
349.152
349.36
349.36
349.152
348.758
348.215
347.571
346.872
346.158
345.463
344.823
344.322
338.511
338.936
339.487
340.089
340.707
341.312
341.868
342.337
342.678
342.858
342.858
342.678
342.337
341.868
341.312
340.707
340.089
339.487
338.936
338.511
332.659
333.012
333.476
333.984
334.507
335.018
335.488
335.884
336.171
336.323
336.323
336.171
335.884
335.488
335.018
334.507
333.984
333.476
333.012
332.659
326.773
327.056
327.435
327.85
328.277
328.695
329.079
329.402
329.637
329.761
329.761
329.637
329.402
329.079
328.695
328.277
327.85
327.435
327.056
326.773
320.858
321.076
321.369
321.692
322.024
322.349
322.647
322.898
323.08
323.176
323.176
323.08
322.898
322.647
322.349
322.024
321.692
321.369
321.076
320.858
314.921
315.075
315.285
315.515
315.752
315.984
316.197
316.376
316.506
316.575
316.575
316.506
316.376
316.197
315.984
315.752
315.515
315.285
315.075
314.921
308.969
309.061
309.187
309.325
309.467
309.606
309.734
309.842
309.92
309.961
309.961
309.92
309.842
309.734
309.606
309.467
309.325
309.187
309.061
308.969
303.008
303.038
303.08
303.127
303.174
303.221
303.264
303.3
303.326
303.34
303.34
303.326
303.3
303.264
303.221
303.174
303.127
303.08
303.038
303.008
344.79
345.28
345.903
346.579
347.272
347.949
348.571
349.094
349.473
349.674
349.674
349.473
349.094
348.571
347.949
347.272
346.579
345.903
345.28
344.79
338.917
339.332
339.869
340.454
341.054
341.64
342.178
342.63
342.958
343.131
343.131
342.958
342.63
342.178
341.64
341.054
340.454
339.869
339.332
338.917
333.003
333.347
333.8
334.295
334.802
335.296
335.751
336.132
336.409
336.555
336.555
336.409
336.132
335.751
335.296
334.802
334.295
333.8
333.347
333.003
327.055
327.331
327.701
328.105
328.519
328.924
329.295
329.606
329.833
329.952
329.952
329.833
329.606
329.295
328.924
328.519
328.105
327.701
327.331
327.055
321.077
321.29
321.576
321.89
322.213
322.527
322.815
323.057
323.233
323.325
323.325
323.233
323.057
322.815
322.527
322.213
321.89
321.576
321.29
321.077
315.078
315.229
315.433
315.657
315.887
316.112
316.318
316.49
316.616
316.682
316.682
316.616
316.49
316.318
316.112
315.887
315.657
315.433
315.229
315.078
309.063
309.153
309.276
309.41
309.548
309.683
309.807
309.911
309.986
310.025
310.025
309.986
309.911
309.807
309.683
309.548
309.41
309.276
309.153
309.063
303.039
303.069
303.11
303.155
303.202
303.247
303.288
303.323
303.348
303.361
303.361
303.348
303.323
303.288
303.247
303.202
303.155
303.11
303.069
303.039
345.416
345.891
346.494
347.145
347.812
348.46
349.055
349.553
349.915
350.105
350.105
349.915
349.553
349.055
348.46
347.812
347.145
346.494
345.891
345.416
339.461
339.863
340.383
340.947
341.523
342.085
342.599
343.03
343.342
343.507
343.507
343.342
343.03
342.599
342.085
341.523
340.947
340.383
339.863
339.461
333.464
333.797
334.235
334.712
335.2
335.674
336.108
336.472
336.736
336.875
336.875
336.736
336.472
336.108
335.674
335.2
334.712
334.235
333.797
333.464
327.432
327.7
328.057
328.447
328.845
329.233
329.588
329.885
330.101
330.214
330.214
330.101
329.885
329.588
329.233
328.845
328.447
328.057
327.7
327.432
321.371
321.577
321.854
322.157
322.467
322.768
323.044
323.275
323.442
323.53
323.53
323.442
323.275
323.044
322.768
322.467
322.157
321.854
321.577
321.371
315.288
315.434
315.632
315.848
316.069
316.284
316.481
316.646
316.765
316.828
316.828
316.765
316.646
316.481
316.284
316.069
315.848
315.632
315.434
315.288
309.19
309.277
309.395
309.525
309.658
309.787
309.905
310.004
310.076
310.113
310.113
310.076
310.004
309.905
309.787
309.658
309.525
309.395
309.277
309.19
303.082
303.111
303.15
303.194
303.238
303.282
303.321
303.354
303.378
303.391
303.391
303.378
303.354
303.321
303.282
303.238
303.194
303.15
303.111
303.082
346.203
346.66
347.238
347.861
348.496
349.112
349.675
350.145
350.485
350.664
350.664
350.485
350.145
349.675
349.112
348.496
347.861
347.238
346.66
346.203
340.144
340.53
341.029
341.569
342.118
342.652
343.138
343.545
343.839
343.993
343.993
343.839
343.545
343.138
342.652
342.118
341.569
341.029
340.53
340.144
334.042
334.363
334.784
335.24
335.704
336.155
336.566
336.91
337.158
337.288
337.288
337.158
336.91
336.566
336.155
335.704
335.24
334.784
334.363
334.042
327.906
328.164
328.507
328.879
329.259
329.628
329.964
330.244
330.447
330.554
330.554
330.447
330.244
329.964
329.628
329.259
328.879
328.507
328.164
327.906
321.74
321.938
322.204
322.494
322.789
323.076
323.337
323.555
323.712
323.795
323.795
323.712
323.555
323.337
323.076
322.789
322.494
322.204
321.938
321.74
315.552
315.692
315.882
316.089
316.3
316.504
316.691
316.846
316.959
317.018
317.018
316.959
316.846
316.691
316.504
316.3
316.089
315.882
315.692
315.552
309.348
309.432
309.546
309.67
309.796
309.919
310.031
310.125
310.192
310.228
310.228
310.192
310.125
310.031
309.919
309.796
309.67
309.546
309.432
309.348
303.135
303.163
303.201
303.242
303.285
303.326
303.364
303.395
303.417
303.429
303.429
303.417
303.395
303.364
303.326
303.285
303.242
303.201
303.163
303.135
347.151
347.588
348.139
348.731
349.331
349.911
350.438
350.878
351.195
351.361
351.361
351.195
350.878
350.438
349.911
349.331
348.731
348.139
347.588
347.151
340.967
341.337
341.812
342.325
342.844
343.346
343.802
344.182
344.456
344.6
344.6
344.456
344.182
343.802
343.346
342.844
342.325
341.812
341.337
340.967
334.74
335.047
335.447
335.88
336.32
336.744
337.13
337.451
337.682
337.804
337.804
337.682
337.451
337.13
336.744
336.32
335.88
335.447
335.047
334.74
328.477
328.724
329.051
329.405
329.764
330.111
330.426
330.688
330.877
330.977
330.977
330.877
330.688
330.426
330.111
329.764
329.405
329.051
328.724
328.477
322.185
322.375
322.628
322.903
323.182
323.452
323.697
323.901
324.048
324.125
324.125
324.048
323.901
323.697
323.452
323.182
322.903
322.628
322.375
322.185
315.87
316.004
316.185
316.381
316.581
316.774
316.949
317.094
317.199
317.254
317.254
317.199
317.094
316.949
316.774
316.581
316.381
316.185
316.004
315.87
309.539
309.619
309.728
309.846
309.966
310.081
310.186
310.274
310.337
310.37
310.37
310.337
310.274
310.186
310.081
309.966
309.846
309.728
309.619
309.539
303.199
303.226
303.262
303.301
303.342
303.38
303.416
303.445
303.466
303.477
303.477
303.466
303.445
303.416
303.38
303.342
303.301
303.262
303.226
303.199
348.265
348.68
349.202
349.759
350.322
350.864
351.354
351.761
352.054
352.207
352.207
352.054
351.761
351.354
350.864
350.322
349.759
349.202
348.68
348.265
341.934
342.285
342.735
343.218
343.705
344.174
344.598
344.951
345.204
345.336
345.336
345.204
344.951
344.598
344.174
343.705
343.218
342.735
342.285
341.934
335.559
335.851
336.23
336.638
337.05
337.446
337.805
338.103
338.317
338.429
338.429
338.317
338.103
337.805
337.446
337.05
336.638
336.23
335.851
335.559
329.148
329.383
329.692
330.025
330.363
330.687
330.98
331.223
331.398
331.49
331.49
331.398
331.223
330.98
330.687
330.363
330.025
329.692
329.383
329.148
322.707
322.887
323.127
323.387
323.649
323.901
324.129
324.318
324.454
324.525
324.525
324.454
324.318
324.129
323.901
323.649
323.387
323.127
322.887
322.707
316.244
316.371
316.542
316.727
316.915
317.095
317.258
317.393
317.49
317.54
317.54
317.49
317.393
317.258
317.095
316.915
316.727
316.542
316.371
316.244
309.764
309.84
309.942
310.054
310.166
310.274
310.372
310.453
310.511
310.542
310.542
310.511
310.453
310.372
310.274
310.166
310.054
309.942
309.84
309.764
303.274
303.299
303.334
303.371
303.409
303.445
303.478
303.505
303.524
303.535
303.535
303.524
303.505
303.478
303.445
303.409
303.371
303.334
303.299
303.274
349.546
349.938
350.429
350.951
351.475
351.977
352.43
352.804
353.072
353.213
353.213
353.072
352.804
352.43
351.977
351.475
350.951
350.429
349.938
349.546
343.045
343.377
343.801
344.253
344.707
345.142
345.534
345.857
346.09
346.211
346.211
346.09
345.857
345.534
345.142
344.707
344.253
343.801
343.377
343.045
336.501
336.776
337.133
337.515
337.899
338.267
338.598
338.872
339.068
339.171
339.171
339.068
338.872
338.598
338.267
337.899
337.515
337.133
336.776
336.501
329.92
330.141
330.432
330.745
331.059
331.36
331.63
331.854
332.015
332.098
332.098
332.015
331.854
331.63
331.36
331.059
330.745
330.432
330.141
329.92
323.308
323.478
323.704
323.947
324.191
324.425
324.636
324.81
324.934
324.999
324.999
324.934
324.81
324.636
324.425
324.191
323.947
323.704
323.478
323.308
316.673
316.794
316.955
317.128
317.303
317.47
317.62
317.745
317.834
317.88
317.88
317.834
317.745
317.62
317.47
317.303
317.128
316.955
316.794
316.673
310.022
310.094
310.19
310.294
310.399
310.5
310.59
310.665
310.718
310.746
310.746
310.718
310.665
310.59
310.5
310.399
310.294
310.19
310.094
310.022
303.361
303.385
303.417
303.452
303.487
303.521
303.551
303.576
303.594
303.603
303.603
303.594
303.576
303.551
303.521
303.487
303.452
303.417
303.385
303.361
350.996
351.365
351.824
352.31
352.795
353.258
353.673
354.015
354.259
354.386
354.386
354.259
354.015
353.673
353.258
352.795
352.31
351.824
351.365
350.996
344.304
344.616
345.012
345.433
345.854
346.255
346.614
346.91
347.121
347.232
347.232
347.121
346.91
346.614
346.255
345.854
345.433
345.012
344.616
344.304
337.568
337.826
338.16
338.516
338.872
339.211
339.515
339.765
339.944
340.037
340.037
339.944
339.765
339.515
339.211
338.872
338.516
338.16
337.826
337.568
330.793
331.002
331.274
331.565
331.856
332.133
332.382
332.586
332.732
332.809
332.809
332.732
332.586
332.382
332.133
331.856
331.565
331.274
331.002
330.793
323.989
324.148
324.359
324.586
324.812
325.028
325.221
325.38
325.494
325.553
325.553
325.494
325.38
325.221
325.028
324.812
324.586
324.359
324.148
323.989
317.16
317.273
317.424
317.585
317.747
317.901
318.039
318.153
318.234
318.276
318.276
318.234
318.153
318.039
317.901
317.747
317.585
317.424
317.273
317.16
310.314
310.382
310.472
310.569
310.666
310.759
310.842
310.91
310.959
310.984
310.984
310.959
310.91
310.842
310.759
310.666
310.569
310.472
310.382
310.314
303.459
303.481
303.511
303.544
303.577
303.608
303.635
303.658
303.675
303.683
303.683
303.675
303.658
303.635
303.608
303.577
303.544
303.511
303.481
303.459
352.618
352.963
353.39
353.84
354.288
354.712
355.09
355.401
355.622
355.737
355.737
355.622
355.401
355.09
354.712
354.288
353.84
353.39
352.963
352.618
345.712
346.004
346.373
346.763
347.15
347.518
347.845
348.114
348.306
348.405
348.405
348.306
348.114
347.845
347.518
347.15
346.763
346.373
346.004
345.712
338.761
339.003
339.313
339.643
339.971
340.282
340.559
340.786
340.948
341.033
341.033
340.948
340.786
340.559
340.282
339.971
339.643
339.313
339.003
338.761
331.771
331.965
332.219
332.488
332.757
333.011
333.238
333.424
333.556
333.625
333.625
333.556
333.424
333.238
333.011
332.757
332.488
332.219
331.965
331.771
324.75
324.899
325.096
325.305
325.514
325.712
325.888
326.033
326.136
326.189
326.189
326.136
326.033
325.888
325.712
325.514
325.305
325.096
324.899
324.75
317.704
317.81
317.95
318.1
318.249
318.39
318.516
318.619
318.693
318.731
318.731
318.693
318.619
318.516
318.39
318.249
318.1
317.95
317.81
317.704
310.641
310.704
310.789
310.878
310.968
311.053
311.129
311.191
311.235
311.258
311.258
311.235
311.191
311.129
311.053
310.968
310.878
310.789
310.704
310.641
303.568
303.589
303.618
303.648
303.678
303.706
303.731
303.752
303.767
303.775
303.775
303.767
303.752
303.731
303.706
303.678
303.648
303.618
303.589
303.568
354.414
354.735
355.131
355.546
355.957
356.343
356.687
356.967
357.167
357.27
357.27
357.167
356.967
356.687
356.343
355.957
355.546
355.131
354.735
354.414
347.271
347.543
347.885
348.244
348.6
348.935
349.232
349.475
349.648
349.738
349.738
349.648
349.475
349.232
348.935
348.6
348.244
347.885
347.543
347.271
340.082
340.307
340.595
340.899
341.2
341.483
341.735
341.941
342.087
342.163
342.163
342.087
341.941
341.735
341.483
341.2
340.899
340.595
340.307
340.082
332.853
333.034
333.269
333.518
333.764
333.996
334.202
334.37
334.489
334.551
334.551
334.489
334.37
334.202
333.996
333.764
333.518
333.269
333.034
332.853
325.592
325.731
325.913
326.107
326.298
326.479
326.639
326.77
326.863
326.911
326.911
326.863
326.77
326.639
326.479
326.298
326.107
325.913
325.731
325.592
318.306
318.405
318.535
318.673
318.81
318.939
319.053
319.147
319.213
319.248
319.248
319.213
319.147
319.053
318.939
318.81
318.673
318.535
318.405
318.306
311.003
311.062
311.14
311.223
311.305
311.383
311.451
311.508
311.547
311.568
311.568
311.547
311.508
311.451
311.383
311.305
311.223
311.14
311.062
311.003
303.69
303.709
303.735
303.763
303.791
303.817
303.84
303.859
303.872
303.879
303.879
303.872
303.859
303.84
303.817
303.791
303.763
303.735
303.709
303.69
356.385
356.683
357.048
357.43
357.805
358.156
358.467
358.719
358.898
358.991
358.991
358.898
358.719
358.467
358.156
357.805
357.43
357.048
356.683
356.385
348.982
349.234
349.549
349.88
350.205
350.509
350.778
350.997
351.152
351.233
351.233
351.152
350.997
350.778
350.509
350.205
349.88
349.549
349.234
348.982
341.531
341.74
342.006
342.285
342.56
342.818
343.046
343.231
343.362
343.43
343.43
343.362
343.231
343.046
342.818
342.56
342.285
342.006
341.74
341.531
334.04
334.208
334.425
334.654
334.879
335.089
335.276
335.427
335.535
335.59
335.59
335.535
335.427
335.276
335.089
334.879
334.654
334.425
334.208
334.04
326.516
326.645
326.814
326.991
327.166
327.331
327.476
327.593
327.677
327.72
327.72
327.677
327.593
327.476
327.331
327.166
326.991
326.814
326.645
326.516
318.967
319.059
319.179
319.306
319.431
319.548
319.652
319.736
319.796
319.826
319.826
319.796
319.736
319.652
319.548
319.431
319.306
319.179
319.059
318.967
311.401
311.455
311.527
311.603
311.678
311.749
311.811
311.862
311.897
311.916
311.916
311.897
311.862
311.811
311.749
311.678
311.603
311.527
311.455
311.401
303.823
303.841
303.865
303.891
303.916
303.939
303.96
303.977
303.989
303.996
303.996
303.989
303.977
303.96
303.939
303.916
303.891
303.865
303.841
303.823
358.531
358.806
359.143
359.492
359.833
360.151
360.431
360.658
360.818
360.901
360.901
360.818
360.658
360.431
360.151
359.833
359.492
359.143
358.806
358.531
350.844
351.077
351.368
351.67
351.966
352.242
352.485
352.681
352.82
352.892
352.892
352.82
352.681
352.485
352.242
351.966
351.67
351.368
351.077
350.844
343.109
343.302
343.547
343.802
344.053
344.286
344.492
344.658
344.776
344.837
344.837
344.776
344.658
344.492
344.286
344.053
343.802
343.547
343.302
343.109
335.332
335.488
335.687
335.897
336.102
336.293
336.461
336.597
336.693
336.743
336.743
336.693
336.597
336.461
336.293
336.102
335.897
335.687
335.488
335.332
327.522
327.642
327.797
327.959
328.119
328.268
328.398
328.504
328.579
328.618
328.618
328.579
328.504
328.398
328.268
328.119
327.959
327.797
327.642
327.522
319.687
319.771
319.882
319.998
320.112
320.218
320.312
320.387
320.441
320.469
320.469
320.441
320.387
320.312
320.218
320.112
319.998
319.882
319.771
319.687
311.833
311.883
311.949
312.019
312.088
312.152
312.208
312.253
312.285
312.302
312.302
312.285
312.253
312.208
312.152
312.088
312.019
311.949
311.883
311.833
303.968
303.985
304.007
304.03
304.053
304.075
304.093
304.109
304.119
304.125
304.125
304.119
304.109
304.093
304.075
304.053
304.03
304.007
303.985
303.968
360.848
361.102
361.411
361.73
362.04
362.328
362.58
362.783
362.926
363
363
362.926
362.783
362.58
362.328
362.04
361.73
361.411
361.102
360.848
352.855
353.07
353.336
353.613
353.881
354.131
354.349
354.526
354.649
354.714
354.714
354.649
354.526
354.349
354.131
353.881
353.613
353.336
353.07
352.855
344.812
344.99
345.215
345.448
345.676
345.887
346.072
346.221
346.326
346.38
346.38
346.326
346.221
346.072
345.887
345.676
345.448
345.215
344.99
344.812
336.727
336.87
337.053
337.245
337.431
337.604
337.755
337.877
337.963
338.007
338.007
337.963
337.877
337.755
337.604
337.431
337.245
337.053
336.87
336.727
328.608
328.718
328.86
329.009
329.154
329.288
329.406
329.501
329.568
329.602
329.602
329.568
329.501
329.406
329.288
329.154
329.009
328.86
328.718
328.608
320.463
320.541
320.642
320.748
320.852
320.948
321.032
321.1
321.148
321.173
321.173
321.148
321.1
321.032
320.948
320.852
320.748
320.642
320.541
320.463
312.299
312.345
312.406
312.47
312.532
312.59
312.641
312.681
312.71
312.725
312.725
312.71
312.681
312.641
312.59
312.532
312.47
312.406
312.345
312.299
304.124
304.14
304.16
304.181
304.202
304.222
304.238
304.252
304.262
304.267
304.267
304.262
304.252
304.238
304.222
304.202
304.181
304.16
304.14
304.124
363.328
363.561
363.845
364.135
364.416
364.676
364.902
365.084
365.212
365.278
365.278
365.212
365.084
364.902
364.676
364.416
364.135
363.845
363.561
363.328
355.004
355.202
355.446
355.698
355.942
356.167
356.363
356.521
356.632
356.689
356.689
356.632
356.521
356.363
356.167
355.942
355.698
355.446
355.202
355.004
346.631
346.795
347.001
347.214
347.42
347.611
347.777
347.911
348.004
348.053
348.053
348.004
347.911
347.777
347.611
347.42
347.214
347.001
346.795
346.631
338.215
338.347
338.515
338.69
338.859
339.015
339.151
339.26
339.337
339.376
339.376
339.337
339.26
339.151
339.015
338.859
338.69
338.515
338.347
338.215
329.766
329.867
329.998
330.133
330.265
330.386
330.492
330.577
330.637
330.668
330.668
330.637
330.577
330.492
330.386
330.265
330.133
329.998
329.867
329.766
321.29
321.362
321.455
321.552
321.646
321.733
321.808
321.869
321.912
321.934
321.934
321.912
321.869
321.808
321.733
321.646
321.552
321.455
321.362
321.29
312.796
312.839
312.895
312.953
313.009
313.061
313.107
313.143
313.169
313.182
313.182
313.169
313.143
313.107
313.061
313.009
312.953
312.895
312.839
312.796
304.291
304.305
304.324
304.343
304.362
304.38
304.395
304.407
304.416
304.42
304.42
304.416
304.407
304.395
304.38
304.362
304.343
304.324
304.305
304.291
365.941
366.156
366.416
366.68
366.935
367.169
367.373
367.536
367.649
367.708
367.708
367.649
367.536
367.373
367.169
366.935
366.68
366.416
366.156
365.941
357.266
357.448
357.672
357.901
358.122
358.325
358.502
358.643
358.742
358.793
358.793
358.742
358.643
358.502
358.325
358.122
357.901
357.672
357.448
357.266
348.542
348.692
348.881
349.075
349.263
349.435
349.584
349.704
349.787
349.83
349.83
349.787
349.704
349.584
349.435
349.263
349.075
348.881
348.692
348.542
339.777
339.898
340.052
340.211
340.364
340.505
340.628
340.726
340.794
340.829
340.829
340.794
340.726
340.628
340.505
340.364
340.211
340.052
339.898
339.777
330.98
331.073
331.192
331.316
331.435
331.545
331.64
331.716
331.769
331.797
331.797
331.769
331.716
331.64
331.545
331.435
331.316
331.192
331.073
330.98
322.157
322.223
322.308
322.396
322.481
322.56
322.628
322.682
322.721
322.74
322.74
322.721
322.682
322.628
322.56
322.481
322.396
322.308
322.223
322.157
313.316
313.355
313.407
313.46
313.511
313.558
313.599
313.632
313.655
313.666
313.666
313.655
313.632
313.599
313.558
313.511
313.46
313.407
313.355
313.316
304.465
304.478
304.495
304.513
304.53
304.546
304.56
304.571
304.578
304.582
304.582
304.578
304.571
304.56
304.546
304.53
304.513
304.495
304.478
304.465
368.621
368.818
369.056
369.298
369.529
369.741
369.924
370.07
370.172
370.224
370.224
370.172
370.07
369.924
369.741
369.529
369.298
369.056
368.818
368.621
359.574
359.741
359.946
360.156
360.357
360.54
360.699
360.826
360.914
360.96
360.96
360.914
360.826
360.699
360.54
360.357
360.156
359.946
359.741
359.574
350.484
350.622
350.795
350.973
351.143
351.299
351.433
351.541
351.616
351.654
351.654
351.616
351.541
351.433
351.299
351.143
350.973
350.795
350.622
350.484
341.358
341.47
341.611
341.756
341.895
342.023
342.133
342.221
342.283
342.314
342.314
342.283
342.221
342.133
342.023
341.895
341.756
341.611
341.47
341.358
332.204
332.29
332.4
332.513
332.621
332.721
332.806
332.875
332.923
332.947
332.947
332.923
332.875
332.806
332.721
332.621
332.513
332.4
332.29
332.204
323.029
323.09
323.168
323.249
323.326
323.398
323.459
323.508
323.542
323.56
323.56
323.542
323.508
323.459
323.398
323.326
323.249
323.168
323.09
323.029
313.839
313.875
313.922
313.971
314.017
314.06
314.097
314.126
314.147
314.158
314.158
314.147
314.126
314.097
314.06
314.017
313.971
313.922
313.875
313.839
304.64
304.652
304.668
304.684
304.7
304.714
304.726
304.736
304.743
304.747
304.747
304.743
304.736
304.726
304.714
304.7
304.684
304.668
304.652
304.64
371.191
371.374
371.593
371.815
372.027
372.22
372.386
372.518
372.61
372.658
372.658
372.61
372.518
372.386
372.22
372.027
371.815
371.593
371.374
371.191
361.761
361.916
362.105
362.298
362.482
362.65
362.794
362.909
362.989
363.03
363.03
362.989
362.909
362.794
362.65
362.482
362.298
362.105
361.916
361.761
352.304
352.432
352.592
352.756
352.912
353.054
353.177
353.274
353.342
353.377
353.377
353.342
353.274
353.177
353.054
352.912
352.756
352.592
352.432
352.304
342.827
342.93
343.061
343.195
343.323
343.439
343.54
343.62
343.676
343.704
343.704
343.676
343.62
343.54
343.439
343.323
343.195
343.061
342.93
342.827
333.334
333.413
333.515
333.619
333.719
333.81
333.888
333.95
333.994
334.016
334.016
333.994
333.95
333.888
333.81
333.719
333.619
333.515
333.413
333.334
323.829
323.886
323.958
324.033
324.104
324.169
324.225
324.27
324.301
324.317
324.317
324.301
324.27
324.225
324.169
324.104
324.033
323.958
323.886
323.829
314.317
314.35
314.394
314.439
314.482
314.521
314.554
314.581
314.6
314.61
314.61
314.6
314.581
314.554
314.521
314.482
314.439
314.394
314.35
314.317
304.8
304.811
304.825
304.841
304.855
304.868
304.879
304.888
304.895
304.898
304.898
304.895
304.888
304.879
304.868
304.855
304.841
304.825
304.811
304.8
373.2
373.371
373.578
373.786
373.984
374.164
374.318
374.441
374.526
374.57
374.57
374.526
374.441
374.318
374.164
373.984
373.786
373.578
373.371
373.2
363.405
363.551
363.73
363.911
364.084
364.241
364.376
364.483
364.557
364.595
364.595
364.557
364.483
364.376
364.241
364.084
363.911
363.73
363.551
363.405
353.631
353.752
353.903
354.057
354.204
354.338
354.453
354.544
354.607
354.64
354.64
354.607
354.544
354.453
354.338
354.204
354.057
353.903
353.752
353.631
343.871
343.969
344.093
344.219
344.34
344.45
344.544
344.619
344.671
344.698
344.698
344.671
344.619
344.544
344.45
344.34
344.219
344.093
343.969
343.871
334.122
334.197
334.293
334.392
334.486
334.572
334.646
334.704
334.745
334.766
334.766
334.745
334.704
334.646
334.572
334.486
334.392
334.293
334.197
334.122
324.38
324.433
324.502
324.573
324.64
324.702
324.754
324.796
324.825
324.84
324.84
324.825
324.796
324.754
324.702
324.64
324.573
324.502
324.433
324.38
314.643
314.675
314.716
314.758
314.799
314.836
314.868
314.893
314.91
314.919
314.919
314.91
314.893
314.868
314.836
314.799
314.758
314.716
314.675
314.643
304.908
304.919
304.933
304.947
304.961
304.973
304.984
304.992
304.998
305.001
305.001
304.998
304.992
304.984
304.973
304.961
304.947
304.933
304.919
304.908
)
;

boundaryField
{
    hotSide
    {
        type            fixedGradient;
        gradient        nonuniform List<scalar> 
400
(
456.111
457.745
461.018
465.94
472.528
480.799
490.776
502.483
515.945
531.185
548.229
567.098
587.813
610.392
634.852
661.208
689.469
719.646
751.747
785.776
462.872
464.452
467.619
472.389
478.78
486.819
496.534
507.956
521.117
536.048
552.779
571.338
591.75
614.036
638.216
664.305
692.315
722.258
754.141
787.969
470.187
471.704
474.746
479.334
485.493
493.258
502.667
513.758
526.572
541.149
557.526
575.736
595.809
617.771
641.643
667.443
695.184
724.877
756.528
790.144
477.938
479.38
482.277
486.654
492.546
499.997
509.055
519.771
532.196
546.379
562.364
580.192
599.898
621.511
645.055
670.549
698.007
727.44
758.853
792.252
485.906
487.265
489.998
494.139
499.734
506.837
515.51
525.816
537.819
551.577
567.145
584.57
603.891
625.142
648.349
673.531
700.703
729.874
761.05
794.234
493.761
495.029
497.588
501.478
506.757
513.493
521.762
531.642
543.209
556.533
571.678
588.696
607.634
628.527
651.402
676.281
703.176
732.097
763.047
796.028
501.051
502.23
504.615
508.255
513.221
519.596
527.47
536.936
548.083
560.992
575.733
592.369
610.948
631.508
654.079
678.679
705.323
734.018
764.766
797.566
507.239
508.337
510.565
513.981
518.667
524.72
532.245
541.346
552.125
564.673
579.067
595.374
613.648
633.926
656.24
680.609
707.045
735.553
766.134
798.787
511.767
512.803
514.911
518.156
522.629
528.439
535.699
544.526
555.03
567.309
581.446
597.512
615.561
635.635
657.762
681.964
708.249
736.624
767.087
799.634
514.166
515.169
517.211
520.363
524.721
530.398
537.516
546.196
556.552
568.686
582.686
598.624
616.554
636.52
658.549
682.663
708.87
737.175
767.576
800.069
514.166
515.169
517.211
520.363
524.721
530.398
537.516
546.196
556.552
568.686
582.686
598.624
616.554
636.52
658.549
682.663
708.87
737.175
767.576
800.069
511.767
512.803
514.911
518.156
522.629
528.439
535.699
544.526
555.03
567.309
581.446
597.512
615.561
635.635
657.762
681.964
708.249
736.624
767.087
799.634
507.239
508.337
510.565
513.981
518.667
524.72
532.245
541.346
552.125
564.673
579.067
595.374
613.648
633.926
656.24
680.609
707.045
735.553
766.134
798.787
501.051
502.23
504.615
508.255
513.221
519.596
527.47
536.936
548.083
560.992
575.733
592.369
610.948
631.508
654.079
678.679
705.323
734.018
764.766
797.566
493.761
495.029
497.588
501.478
506.757
513.493
521.762
531.642
543.209
556.533
571.678
588.696
607.634
628.527
651.402
676.281
703.176
732.097
763.047
796.028
485.906
487.265
489.998
494.139
499.734
506.837
515.51
525.816
537.819
551.577
567.145
584.57
603.891
625.142
648.349
673.531
700.703
729.874
761.05
794.234
477.938
479.38
482.277
486.654
492.546
499.997
509.055
519.771
532.196
546.379
562.364
580.192
599.898
621.511
645.055
670.549
698.007
727.44
758.853
792.252
470.187
471.704
474.746
479.334
485.493
493.258
502.667
513.758
526.572
541.149
557.526
575.736
595.809
617.771
641.643
667.443
695.184
724.877
756.528
790.144
462.872
464.452
467.619
472.389
478.78
486.819
496.534
507.956
521.117
536.048
552.779
571.338
591.75
614.036
638.216
664.305
692.315
722.258
754.141
787.969
456.111
457.745
461.018
465.94
472.528
480.799
490.776
502.483
515.945
531.185
548.229
567.098
587.813
610.392
634.852
661.208
689.469
719.646
751.747
785.776
)
;
    }
    coldSide
    {
        type            mixed;
        refValue        uniform 300;
        refGradient     uniform 0;
        valueFraction   uniform 0.991591;
        source          uniform 0;
        value           nonuniform List<scalar> 
400
(
300.025
300.025
300.025
300.026
300.026
300.026
300.027
300.028
300.028
300.029
300.03
300.031
300.032
300.033
300.035
300.036
300.038
300.039
300.04
300.041
300.025
300.025
300.026
300.026
300.026
300.027
300.027
300.028
300.028
300.029
300.03
300.031
300.032
300.034
300.035
300.036
300.038
300.039
300.04
300.041