/*--------------------------------*- C++ -*----------------------------------*\
| =========                 |                                                 |
| \\      /  F ield         | OpenFOAM: The Open Source CFD Toolbox           |
|  \\    /   O peration     | Version:  2212                                  |
|   \\  /    A nd           | Website:  www.openfoam.com                      |
|    \\/     M anipulation  |                                                 |
\*---------------------------------------------------------------------------*/
FoamFile
{
    version     2.0;
    format      ascii;
    arch        "LSB;label=32;scalar=64";
    class       volScalarField;
    location    "0";
    object      T;
}
// * * * * * * * * * * * * * * * * * * * * * * * * * * * * * * * * * * * * * //

dimensions      [0 0 0 1 0 0 0];

internalField   nonuniform List<scalar> 
3200
(
347.955
346.789
345.845
345.478
345.753
346.325
347.053
347.691
348.305
348.73
348.366
348.173
347.563
346.426
345.179
344.263
343.561
343.428
343.888
345.126
341.632
340.68
339.873
339.552
339.783
340.289
340.924
341.466
342.029
342.389
342.053
341.912
341.405
340.416
339.312
338.526
337.935
337.818
338.218
339.234
335.311
334.521
333.827
333.564
333.757
334.191
334.722
335.193
335.689
335.982
335.673
335.552
335.173
334.35
333.398
332.727
332.257
332.13
332.472
333.297
328.959
328.293
327.737
327.512
327.697
328.052
328.486
328.881
329.294
329.506
329.243
329.168
328.849
328.207
327.419
326.864
326.537
326.374
326.657
327.321
322.576
322.054
321.607
321.439
321.604
321.874
322.207
322.526
322.861
322.979
322.778
322.747
322.48
321.973
321.4
320.949
320.722
320.568
320.79
321.299
316.164
315.773
315.446
315.344
315.468
315.655
315.897
316.122
316.374
316.445
316.296
316.284
316.082
315.727
315.346
315
314.833
314.735
314.88
315.249
309.741
309.488
309.275
309.23
309.301
309.423
309.563
309.676
309.863
309.897
309.792
309.773
309.647
309.465
309.223
309.012
308.935
308.854
308.937
309.163
303.273
303.18
303.113
303.094
303.117
303.158
303.212
303.248
303.308
303.324
303.292
303.284
303.226
303.179
303.103
303.023
303.006
302.965
303.007
303.077
348.215
347.058
346.073
345.868
346.206
346.842
347.656
348.467
349.047
349.435
349.244
348.89
348.192
347.082
345.946
344.801
344.017
343.742
344.341
345.262
341.834
340.913
340.053
339.896
340.178
340.735
341.418
342.116
342.65
343
342.8
342.483
341.927
340.945
339.986
339
338.324
338.078
338.606
339.335
335.449
334.723
333.994
333.851
334.09
334.585
335.14
335.721
336.194
336.479
336.328
336.03
335.592
334.75
333.954
333.131
332.576
332.351
332.798
333.379
329.053
328.475
327.896
327.767
327.946
328.37
328.819
329.259
329.708
329.894
329.804
329.555
329.213
328.498
327.858
327.201
326.764
326.577
326.934
327.378
322.615
322.199
321.759
321.643
321.769
322.114
322.469
322.784
323.164
323.287
323.238
323.047
322.765
322.21
321.719
321.219
320.896
320.747
320.985
321.333
316.159
315.881
315.581
315.492
315.574
315.817
316.06
316.302
316.591
316.671
316.633
316.475
316.28
315.891
315.545
315.21
314.961
314.861
315.001
315.257
309.708
309.562
309.355
309.329
309.364
309.505
309.658
309.794
309.986
310.024
310.004
309.912
309.803
309.555
309.35
309.152
309.001
308.935
309.013
309.153
303.258
303.205
303.139
303.13
303.14
303.183
303.235
303.286
303.345
303.365
303.35
303.32
303.297
303.201
303.123
303.067
303.018
302.985
303.025
303.06
348.882
347.702
346.76
346.61
346.998
347.658
348.538
349.505
350.171
350.491
350.335
350.023
349.264
348.15
346.952
345.695
344.851
344.544
345.043
345.928
342.404
341.445
340.644
340.517
340.857
341.421
342.179
343.011
343.627
343.882
343.745
343.476
342.837
341.883
340.846
339.773
339.047
338.804
339.195
339.91
335.935
335.153
334.502
334.362
334.655
335.108
335.773
336.451
337.017
337.215
337.097
336.881
336.363
335.54
334.666
333.8
333.176
332.964
333.298
333.84
329.447
328.802
328.316
328.181
328.428
328.744
329.33
329.865
330.333
330.514
330.412
330.242
329.821
329.145
328.459
327.732
327.227
327.053
327.34
327.747
322.952
322.457
322.089
321.97
322.149
322.394
322.856
323.257
323.64
323.797
323.691
323.562
323.239
322.704
322.2
321.615
321.234
321.104
321.315
321.632
316.431
316.063
315.829
315.737
315.851
316.012
316.35
316.652
316.912
317.008
316.948
316.85
316.635
316.251
315.899
315.47
315.201
315.101
315.235
315.474
309.888
309.667
309.528
309.477
309.525
309.627
309.825
310.008
310.155
310.217
310.18
310.124
310.019
309.772
309.574
309.295
309.142
309.044
309.148
309.304
303.315
303.239
303.195
303.188
303.203
303.231
303.291
303.361
303.408
303.428
303.413
303.394
303.366
303.271
303.215
303.125
303.074
303.037
303.067
303.117
349.906
348.636
347.725
347.57
347.948
348.916
349.772
350.694
351.292
351.869
351.887
351.366
350.69
349.571
348.136
346.927
346.132
345.6
346.16
346.918
343.307
342.258
341.484
341.366
341.666
342.507
343.24
344.056
344.569
345.079
345.055
344.641
344.051
343.106
341.839
340.837
340.153
339.695
340.192
340.791
336.706
335.817
335.195
335.096
335.342
336.036
336.68
337.353
337.81
338.252
338.199
337.861
337.372
336.578
335.535
334.69
334.1
333.721
334.132
334.631
330.091
329.352
328.861
328.771
328.965
329.514
330.067
330.599
331.008
331.343
331.323
331.046
330.66
330.018
329.167
328.479
328
327.692
328.01
328.405
323.462
322.853
322.505
322.424
322.545
322.962
323.422
323.809
324.181
324.431
324.401
324.174
323.904
323.398
322.746
322.22
321.838
321.615
321.851
322.146
316.796
316.337
316.104
316.039
316.133
316.412
316.755
317.011
317.318
317.479
317.453
317.288
317.098
316.745
316.284
315.908
315.625
315.492
315.637
315.843
310.101
309.814
309.691
309.652
309.702
309.86
310.074
310.231
310.425
310.512
310.494
310.401
310.265
310.061
309.791
309.571
309.386
309.322
309.399
309.516
303.387
303.294
303.256
303.232
303.251
303.313
303.38
303.429
303.5
303.518
303.53
303.487
303.441
303.371
303.285
303.209
303.143
303.129
303.149
303.194
350.985
349.788
348.95
348.901
349.41
350.23
351.145
352.048
352.755
353.427
353.515
353.122
352.304
351.127
349.669
348.47
347.631
347.058
347.523
348.234
344.231
343.263
342.552
342.485
342.936
343.654
344.429
345.209
345.787
346.415
346.501
346.163
345.478
344.461
343.189
342.172
341.446
340.964
341.349
341.962
337.473
336.724
336.131
336.035
336.405
337.028
337.672
338.338
338.803
339.341
339.454
339.149
338.585
337.726
336.637
335.819
335.212
334.801
335.103
335.623
330.702
330.11
329.66
329.556
329.834
330.351
330.882
331.41
331.777
332.224
332.322
332.1
331.663
330.958
330.048
329.415
328.896
328.543
328.79
329.215
323.914
323.458
323.109
323.035
323.243
323.65
324.071
324.487
324.749
325.071
325.182
325.004
324.686
324.143
323.414
322.943
322.528
322.267
322.456
322.768
317.099
316.789
316.52
316.501
316.632
316.903
317.236
317.522
317.7
317.918
318.025
317.887
317.664
317.271
316.736
316.436
316.137
315.943
316.089
316.302
310.284
310.087
309.936
309.923
310.01
310.145
310.36
310.525
310.639
310.768
310.83
310.743
310.629
310.381
310.044
309.88
309.694
309.598
309.68
309.811
303.454
303.384
303.331
303.327
303.353
303.403
303.473
303.533
303.564
303.606
303.641
303.593
303.565
303.471
303.362
303.311
303.243
303.217
303.24
303.293
352.269
351.213
350.522
350.413
350.89
351.631
352.669
353.655
354.535
355.037
355.275
354.899
353.994
352.843
351.379
350.163
349.229
348.716
349.217
350.002
345.36
344.487
343.906
343.817
344.217
344.86
345.748
346.616
347.356
347.79
348.007
347.67
346.914
345.951
344.675
343.611
342.818
342.39
342.834
343.488
338.427
337.699
337.22
337.167
337.5
338.048
338.779
339.519
340.135
340.495
340.694
340.396
339.788
339.003
337.927
337.023
336.323
335.992
336.364
336.919
331.449
330.895
330.526
330.475
330.735
331.179
331.808
332.384
332.872
333.167
333.336
333.094
332.647
332.009
331.131
330.38
329.809
329.519
329.848
330.299
324.463
324.066
323.799
323.739
323.947
324.275
324.792
325.237
325.603
325.822
325.942
325.755
325.479
324.961
324.275
323.696
323.228
323
323.28
323.626
317.474
317.227
317.024
316.988
317.106
317.369
317.743
318.057
318.293
318.47
318.548
318.401
318.251
317.87
317.372
316.962
316.62
316.469
316.659
316.911
310.507
310.36
310.224
310.214
310.277
310.436
310.677
310.849
310.994
311.099
311.141
311.041
310.99
310.744
310.446
310.205
309.991
309.916
309.998
310.176
303.528
303.466
303.424
303.423
303.444
303.503
303.584
303.646
303.696
303.727
303.733
303.702
303.695
303.601
303.502
303.423
303.344
303.332
303.358
303.411
353.765
352.782
352.123
352.063
352.501
353.247
354.252
355.332
356.279
356.835
357.096
356.789
355.944
354.643
353.337
352.042
351.025
350.573
350.967
351.692
346.631
345.834
345.273
345.23
345.632
346.258
347.131
348.064
348.857
349.345
349.572
349.303
348.592
347.484
346.362
345.253
344.394
344.002
344.366
344.952
339.482
338.86
338.354
338.348
338.712
339.223
339.947
340.741
341.383
341.829
342.011
341.783
341.208
340.28
339.336
338.396
337.689
337.363
337.68
338.163
332.329
331.855
331.407
331.435
331.732
332.146
332.746
333.387
333.868
334.262
334.426
334.254
333.793
333.025
332.247
331.485
330.955
330.672
330.92
331.312
325.151
324.797
324.449
324.49
324.737
325.034
325.519
326.023
326.365
326.683
326.813
326.698
326.337
325.727
325.122
324.54
324.136
323.936
324.094
324.39
317.97
317.718
317.486
317.523
317.692
317.889
318.272
318.632
318.877
319.08
319.181
319.109
318.835
318.404
317.977
317.555
317.261
317.13
317.243
317.44
310.779
310.654
310.507
310.53
310.623
310.735
311.009
311.212
311.359
311.45
311.536
311.5
311.308
311.063
310.807
310.541
310.374
310.299
310.361
310.458
303.613
303.579
303.516
303.52
303.552
303.604
303.696
303.769
303.799
303.839
303.867
303.851
303.799
303.703
303.626
303.531
303.472
303.446
303.47
303.502
355.507
354.517
353.817
353.673
354.18
354.925
355.891
356.869
357.938
358.62
358.955
358.608
357.758
356.5
355.23
353.86
352.97
352.57
352.818
353.493
348.142
347.32
346.735
346.61
347.054
347.695
348.529
349.367
350.293
350.902
351.202
350.899
350.164
349.061
348.02
346.843
346.06
345.741
345.942
346.493
340.757
340.105
339.606
339.531
339.89
340.45
341.155
341.863
342.618
343.152
343.402
343.17
342.55
341.578
340.747
339.769
339.1
338.844
338.998
339.449
333.377
332.858
332.468
332.421
332.723
333.165
333.73
334.339
334.921
335.364
335.58
335.392
334.902
334.078
333.387
332.619
332.084
331.882
332.009
332.36
325.967
325.583
325.305
325.244
325.503
325.851
326.279
326.766
327.181
327.529
327.722
327.569
327.208
326.533
325.989
325.427
325.006
324.854
324.964
325.217
318.563
318.254
318.108
318.07
318.245
318.5
318.823
319.134
319.427
319.676
319.835
319.739
319.446
318.96
318.574
318.195
317.882
317.798
317.875
318.052
311.146
310.945
310.892
310.864
310.968
311.143
311.325
311.489
311.668
311.812
311.929
311.879
311.687
311.384
311.153
310.929
310.761
310.72
310.756
310.86
303.738
303.664
303.654
303.639
303.676
303.746
303.804
303.841
303.917
303.951
303.994
303.985
303.921
303.815
303.738
303.664
303.617
303.6
303.619
303.647
357.339
356.383
355.785
355.489
355.905
356.685
357.654
358.687
359.578
360.507
360.821
360.524
359.616
358.391
357.082
355.966
355.014
354.46
354.842
355.338
349.747
348.923
348.435
348.172
348.543
349.208
350.055
350.967
351.727
352.521
352.791
352.575
351.787
350.726
349.621
348.661
347.816
347.348
347.692
348.091
342.133
341.454
341.023
340.829
341.129
341.688
342.412
343.214
343.848
344.499
344.711
344.59
343.915
343.027
342.087
341.289
340.589
340.177
340.466
340.778
334.485
333.96
333.564
333.452
333.669
334.13
334.747
335.379
335.911
336.46
336.639
336.548
335.994
335.281
334.501
333.882
333.305
332.961
333.165
333.438
326.842
326.455
326.132
326.051
326.225
326.573
327.045
327.534
327.962
328.387
328.535
328.463
328.032
327.497
326.875
326.401
325.95
325.711
325.855
326.051
319.196
318.912
318.662
318.653
318.773
318.999
319.343
319.664
320.017
320.289
320.411
320.35
320.056
319.687
319.23
318.9
318.568
318.408
318.479
318.638
311.535
311.372
311.194
311.222
311.294
311.411
311.633
311.805
312.037
312.198
312.25
312.215
312.08
311.859
311.562
311.383
311.162
311.062
311.11
311.175
303.867
303.807
303.751
303.761
303.8
303.823
303.896
303.968
304.035
304.094
304.105
304.088
304.057
303.989
303.87
303.818
303.748
303.719
303.723
303.737
359.181
358.324
357.7
357.584
357.843
358.5
359.384
360.523
361.347
362.194
362.461
362.264
361.314
360.182
358.963
357.883
356.944
356.498
356.891
357.275
351.341
350.61
350.091
349.972
350.229
350.784
351.569
352.545
353.244
353.996
354.211
354.072
353.247
352.281
351.236
350.306
349.495
349.12
349.473
349.787
343.489
342.898
342.462
342.35
342.574
343.039
343.701
344.532
345.13
345.773
345.946
345.832
345.133
344.342
343.473
342.666
341.991
341.68
341.973
342.205
335.611
335.166
334.792
334.693
334.891
335.273
335.811
336.461
336.976
337.536
337.639
337.542
337.002
336.357
335.637
334.979
334.445
334.185
334.407
334.577
327.696
327.393
327.079
327.042
327.174
327.468
327.881
328.385
328.796
329.243
329.3
329.228
328.826
328.317
327.764
327.241
326.853
326.638
326.787
326.919
319.808
319.581
319.358
319.363
319.443
319.634
319.924
320.307
320.595
320.903
320.956
320.891
320.63
320.239
319.867
319.471
319.244
319.069
319.132
319.258
311.903
311.75
311.631
311.649
311.692
311.798
311.969
312.216
312.381
312.559
312.601
312.54
312.399
312.151
311.937
311.711
311.578
311.465
311.494
311.567
303.991
303.934
303.893
303.905
303.926
303.959
304.01
304.093
304.157
304.205
304.222
304.206
304.158
304.069
304.009
303.924
303.88
303.848
303.85
303.876
361.242
360.358
359.639
359.574
359.627
360.413
361.186
362.228
363.039
363.759
364.061
363.817
363.027
361.962
360.759
359.717
358.942
358.704
358.989
359.444
353.139
352.384
351.779
351.725
351.771
352.456
353.13
354.012
354.706
355.365
355.613
355.395
354.734
353.793
352.796
351.912
351.241
351.022
351.299
351.643
345.008
344.374
343.887
343.831
343.893
344.457
345.03
345.76
346.355
346.937
347.122
346.948
346.41
345.582
344.787
344.047
343.504
343.273
343.534
343.784
336.837
336.348
335.962
335.917
335.995
336.425
336.903
337.46
337.992
338.488
338.595
338.47
338.057
337.334
336.701
336.13
335.69
335.486
335.71
335.88
328.664
328.289
328
327.964
328.048
328.358
328.756
329.147
329.584
329.998
330.049
329.952
329.669
329.051
328.605
328.156
327.812
327.662
327.832
327.936
320.493
320.214
320.019
320.002
320.061
320.291
320.565
320.836
321.157
321.462
321.493
321.425
321.224
320.753
320.469
320.153
319.892
319.803
319.942
319.994
312.32
312.137
312.033
312.023
312.065
312.218
312.375
312.494
312.716
312.902
312.92
312.881
312.769
312.44
312.308
312.117
311.944
311.905
311.991
312.01
304.134
304.063
304.037
304.032
304.046
304.093
304.148
304.182
304.268
304.327
304.319
304.321
304.286
304.163
304.127
304.054
303.991
303.995
304.021
304.029
363.35
362.433
361.663
361.503
361.582
362.206
362.905
363.882
364.701
365.496
365.623
365.361
364.786
363.791
362.729
361.744
360.972
360.691
360.908
361.462
354.95
354.181
353.511
353.4
353.441
354.014
354.606
355.445
356.156
356.861
356.967
356.741
356.274
355.399
354.479
353.666
353.002
352.769
352.959
353.422
346.534
345.925
345.342
345.242
345.269
345.794
346.252
346.97
347.576
348.182
348.289
348.077
347.718
346.958
346.203
345.533
344.982
344.781
344.917
345.302
338.079
337.635
337.17
337.051
337.07
337.526
337.895
338.478
338.961
339.475
339.547
339.4
339.107
338.472
337.864
337.355
336.889
336.726
336.829
337.127
329.629
329.31
328.966
328.845
328.853
329.227
329.52
329.959
330.313
330.766
330.786
330.7
330.47
329.973
329.486
329.11
328.737
328.6
328.696
328.898
321.187
320.971
320.727
320.628
320.626
320.897
321.096
321.412
321.68
322.003
322.015
321.97
321.81
321.451
321.106
320.83
320.564
320.471
320.527
320.668
312.736
312.6
312.453
312.386
312.404
312.553
312.693
312.861
313.034
313.236
313.24
313.218
313.107
312.889
312.719
312.526
312.349
312.313
312.346
312.437
304.271
304.219
304.181
304.151
304.155
304.204
304.255
304.312
304.374
304.439
304.441
304.437
304.392
304.316
304.27
304.207
304.14
304.131
304.14
304.177
365.307
364.446
363.663
363.469
363.603
364.087
364.663
365.588
366.301
366.99
367.026
366.753
366.257
365.315
364.424
363.675
362.991
362.737
362.936
363.582
356.638
355.934
355.237
355.085
355.165
355.629
356.13
356.939
357.553
358.153
358.177
357.921
357.53
356.73
355.973
355.346
354.752
354.525
354.696
355.249
347.956
347.38
346.79
346.667
346.723
347.146
347.555
348.268
348.772
349.294
349.286
349.058
348.77
348.099
347.464
346.952
346.447
346.253
346.395
346.856
339.267
338.807
338.308
338.221
338.266
338.634
338.949
339.541
339.945
340.4
340.358
340.186
339.961
339.416
338.897
338.49
338.079
337.937
338.052
338.419
330.561
330.204
329.835
329.748
329.805
330.084
330.32
330.779
331.108
331.458
331.405
331.293
331.123
330.697
330.297
330.003
329.682
329.562
329.641
329.944
321.835
321.593
321.337
321.263
321.329
321.515
321.694
322.018
322.249
322.499
322.454
322.374
322.25
321.944
321.672
321.478
321.227
321.138
321.208
321.417
313.118
312.964
312.833
312.77
312.824
312.935
313.055
313.225
313.365
313.529
313.487
313.427
313.378
313.177
313.049
312.924
312.757
312.689
312.742
312.868
304.397
304.346
304.307
304.28
304.301
304.33
304.373
304.425
304.477
304.541
304.523
304.496
304.501
304.409
304.375
304.341
304.284
304.251
304.271
304.319
367.257
366.409
365.738
365.483
365.587
365.884
366.482
367.257
367.83
368.421
368.441
368.243
367.654
366.897
366.214
365.593
365.015
364.665
365
365.523
358.344
357.621
357.062
356.82
356.922
357.198
357.704
358.384
358.892
359.408
359.425
359.262
358.756
358.083
357.525
357.015
356.508
356.19
356.492
356.945
349.434
348.807
348.334
348.135
348.241
348.459
348.884
349.472
349.912
350.36
350.359
350.242
349.79
349.212
348.785
348.371
347.921
347.674
347.93
348.302
340.486
339.982
339.584
339.437
339.519
339.707
340.022
340.521
340.912
341.288
341.248
341.171
340.796
340.327
339.992
339.663
339.288
339.096
339.294
339.608
331.508
331.138
330.794
330.699
330.753
330.935
331.16
331.541
331.864
332.155
332.112
332.078
331.768
331.409
331.178
330.917
330.614
330.468
330.633
330.85
322.516
322.26
321.993
321.947
321.976
322.125
322.276
322.535
322.788
322.998
322.975
322.952
322.724
322.464
322.3
322.121
321.905
321.802
321.91
322.077
313.539
313.373
313.208
313.188
313.204
313.295
313.378
313.542
313.691
313.804
313.818
313.807
313.653
313.493
313.415
313.308
313.174
313.111
313.163
313.274
304.54
304.472
304.431
304.418
304.43
304.463
304.484
304.542
304.599
304.623
304.642
304.629
304.594
304.523
304.499
304.461
304.42
304.396
304.408
304.45
369.15
368.324
367.732
367.463
367.426
367.71
368.278
368.775
369.293
369.834
369.953
369.692
369.251
368.509
367.919
367.443
367
366.761
366.951
367.446
359.976
359.251
358.778
358.551
358.529
358.772
359.279
359.71
360.159
360.607
360.761
360.498
360.124
359.501
359.015
358.61
358.233
358.015
358.174
358.598
350.787
350.172
349.797
349.607
349.596
349.8
350.243
350.585
350.979
351.352
351.518
351.283
350.955
350.42
350.067
349.709
349.394
349.191
349.365
349.689
341.564
341.091
340.768
340.624
340.621
340.781
341.176
341.435
341.78
342.05
342.229
342.031
341.74
341.3
341.067
340.743
340.509
340.346
340.513
340.745
332.35
331.996
331.742
331.605
331.631
331.741
332.048
332.259
332.549
332.741
332.896
332.751
332.513
332.151
332
331.738
331.554
331.435
331.604
331.761
323.13
322.868
322.703
322.582
322.606
322.697
322.926
323.068
323.285
323.394
323.533
323.442
323.257
322.983
322.909
322.702
322.575
322.469
322.629
322.742
313.893
313.739
313.633
313.564
313.571
313.651
313.793
313.88
314.008
314.051
314.141
314.101
313.959
313.818
313.794
313.654
313.565
313.513
313.624
313.678
304.652
304.595
304.57
304.549
304.541
304.57
304.63
304.652
304.699
304.706
304.745
304.733
304.672
304.639
304.632
304.573
304.548
304.541
304.572
304.592
371.227
370.313
369.667
369.522
369.365
369.518
369.948
370.328
370.792
371.183
371.382
371.219
370.717
370.127
369.625
369.211
368.824
368.774
368.942
369.553
361.755
361.018
360.463
360.344
360.213
360.333
360.725
361.038
361.472
361.794
361.975
361.85
361.403
360.883
360.478
360.15
359.817
359.767
359.896
360.412
352.292
351.674
351.226
351.118
350.997
351.123
351.45
351.718
352.096
352.369
352.532
352.461
352.043
351.617
351.294
351.022
350.739
350.702
350.786
351.224
342.829
342.316
341.965
341.859
341.779
341.887
342.122
342.376
342.685
342.913
343.022
343.016
342.638
342.309
342.064
341.828
341.621
341.57
341.646
341.977
333.333
332.943
332.678
332.591
332.546
332.64
332.784
333.016
333.233
333.422
333.512
333.528
333.203
332.967
332.776
332.586
332.452
332.376
332.452
332.722
323.832
323.544
323.387
323.305
323.289
323.348
323.442
323.622
323.761
323.906
323.976
323.971
323.745
323.592
323.445
323.326
323.25
323.152
323.229
323.418
314.322
314.149
314.059
314.001
313.991
314.022
314.101
314.22
314.263
314.38
314.419
314.393
314.248
314.195
314.088
314.028
313.99
313.92
313.969
314.086
304.8
304.743
304.728
304.702
304.675
304.707
304.727
304.769
304.778
304.831
304.835
304.829
304.773
304.764
304.721
304.714
304.694
304.663
304.686
304.711
373.203
372.494
371.605
371.339
371.235
371.308
371.532
371.962
372.464
372.664
372.731
372.56
372.189
371.717
371.287
370.889
370.603
370.704
370.932
371.493
363.491
362.877
362.123
361.899
361.819
361.879
362.067
362.46
362.885
363.066
363.14
363.037
362.694
362.267
361.915
361.602
361.348
361.46
361.63
362.102
353.765
353.238
352.619
352.424
352.366
352.411
352.581
352.932
353.285
353.423
353.513
353.459
353.142
352.804
352.513
352.251
352.032
352.106
352.27
352.662
344.014
343.588
343.092
342.915
342.899
342.945
343.082
343.39
343.663
343.749
343.857
343.818
343.546
343.279
343.035
342.801
342.657
342.722
342.859
343.168
334.254
333.935
333.516
333.396
333.398
333.462
333.545
333.811
334.019
334.077
334.163
334.124
333.929
333.723
333.529
333.325
333.256
333.278
333.394
333.614
324.481
324.275
323.953
323.856
323.887
323.921
323.992
324.175
324.347
324.373
324.44
324.397
324.276
324.14
323.996
323.842
323.794
323.811
323.895
324.047
314.713
314.579
314.394
314.328
314.354
314.375
314.409
314.521
314.632
314.655
314.692
314.662
314.587
314.532
314.414
314.322
314.31
314.321
314.386
314.462
304.934
304.898
304.837
304.809
304.804
304.818
304.82
304.869
304.907
304.912
304.93
304.908
304.888
304.868
304.845
304.814
304.79
304.802
304.828
304.853
375.237
374.329
373.604
373.202
372.989
373.007
373.307
373.536
373.83
373.957
374.086
373.963
373.726
373.361
372.966
372.754
372.349
372.504
372.802
373.436
365.237
364.48
363.85
363.487
363.334
363.341
363.603
363.813
364.066
364.205
364.329
364.203
364.007
363.705
363.381
363.195
362.842
362.979
363.253
363.773
355.209
354.614
354.081
353.742
353.652
353.679
353.87
354.05
354.27
354.422
354.505
354.414
354.254
354.021
353.717
353.577
353.28
353.415
353.638
354.065
345.173
344.711
344.292
343.997
343.951
343.975
344.129
344.25
344.439
344.619
344.638
344.592
344.467
344.275
344.018
343.916
343.657
343.796
343.962
344.314
335.146
334.81
334.463
334.234
334.233
334.228
334.372
334.432
334.625
334.742
334.738
334.732
334.638
334.503
334.287
334.189
334.016
334.113
334.258
334.52
325.114
324.884
324.642
324.45
324.495
324.466
324.583
324.622
324.774
324.843
324.817
324.842
324.797
324.685
324.509
324.449
324.348
324.414
324.517
324.685
315.083
314.956
314.803
314.678
314.716
314.724
314.778
314.784
314.917
314.926
314.892
314.939
314.902
314.855
314.72
314.695
314.631
314.65
314.751
314.827
305.051
305.018
304.967
304.917
304.929
304.939
304.953
304.962
305.011
305.007
304.995
305
304.998
304.986
304.939
304.931
304.904
304.898
304.954
304.965
376.911
376.112
375.364
374.841
374.737
374.631
374.742
374.918
375.229
375.269
375.29
375.164
375.054
374.579
374.417
374.358
374.019
374.183
374.62
375.266
366.66
365.99
365.344
364.904
364.827
364.73
364.846
364.989
365.272
365.323
365.326
365.21
365.142
364.764
364.611
364.572
364.275
364.421
364.805
365.341
356.39
355.867
355.306
354.98
354.902
354.819
354.941
355.03
355.301
355.358
355.32
355.258
355.19
354.906
354.773
354.742
354.504
354.615
354.922
355.368
346.138
345.733
345.283
345.001
344.956
344.894
345.017
345.053
345.318
345.371
345.295
345.259
345.213
345.001
344.898
344.856
344.685
344.756
344.977
345.363
335.898
335.587
335.228
335.016
334.98
334.941
335.051
335.061
335.297
335.359
335.269
335.246
335.24
335.064
334.975
334.948
334.804
334.867
335.031
335.321
325.655
325.446
325.173
325.026
324.993
324.957
325.06
325.048
325.252
325.306
325.212
325.213
325.218
325.102
325.005
325.014
324.899
324.933
325.055
325.267
315.42
315.28
315.114
315.035
315.018
314.981
315.071
315.042
315.164
315.21
315.14
315.146
315.157
315.092
315.04
315.039
314.972
314.984
315.054
315.19
305.163
305.118
305.078
305.05
305.043
305.016
305.052
305.039
305.078
305.093
305.077
305.084
305.083
305.058
305.049
305.04
305.021
305.031
305.045
305.094
378.168
377.355
376.566
376.147
375.962
375.979
375.936
375.963
376.084
376.281
376.25
376.217
375.902
375.609
375.489
375.496
375.354
375.422
376.112
376.643
367.692
367.003
366.329
365.982
365.845
365.867
365.822
365.857
365.953
366.155
366.121
366.099
365.851
365.599
365.515
365.512
365.375
365.43
366.047
366.497
357.255
356.674
356.119
355.84
355.725
355.757
355.724
355.739
355.844
356.018
355.977
355.954
355.796
355.575
355.494
355.488
355.371
355.441
355.961
356.32
346.822
346.365
345.908
345.694
345.603
345.626
345.637
345.644
345.716
345.876
345.83
345.817
345.704
345.523
345.448
345.427
345.34
345.4
345.835
346.103
336.414
336.061
335.719
335.548
335.462
335.479
335.544
335.542
335.589
335.705
335.675
335.685
335.588
335.449
335.4
335.366
335.297
335.343
335.687
335.882
326.024
325.769
325.533
325.392
325.316
325.351
325.42
325.404
325.441
325.516
325.497
325.529
325.445
325.36
325.3
325.304
325.243
325.28
325.537
325.677
315.646
315.471
315.338
315.248
315.196
315.227
315.276
315.252
315.298
315.329
315.312
315.368
315.3
315.249
315.205
315.202
315.166
315.202
315.338
315.431
305.247
305.187
305.134
305.111
305.092
305.104
305.12
305.119
305.133
305.139
305.138
305.163
305.13
305.116
305.1
305.096
305.08
305.112
305.148
305.18
)
;

boundaryField
{
    hotSide
    {
        type            fixedGradient;
        gradient        nonuniform List<scalar> 
400
(
505.41
508.502
514.964
524.703
537.381
552.511
569.569
588.079
607.643
627.949
648.757
669.896
691.238
712.701
734.23
755.796
777.387
799.006
820.658
842.351
484.508
487.943
494.986
505.523
519.145
535.276
553.317
572.739
593.117
614.122
635.516
657.127
678.837
700.573
722.292
743.978
765.633
787.272
808.915
830.578
472.595
476.689
484.347
495.445
509.573
526.158
544.601
564.371
585.032
606.254
627.793
649.475
671.189
692.864
714.467
735.994
757.456
778.878
800.288
821.714
469.077
474.124
482.45
493.926
508.196
524.767
543.105
562.716
583.18
604.166
625.429
646.793
668.146
689.424
710.601
731.681
752.686
773.648
794.604
815.587
471.646
477.816
486.897
498.753
513.087
529.491
547.512
566.71
586.696
607.149
627.827
648.56
669.243
689.821
710.283
730.645
750.942
771.215
791.51
811.865
477.677
485.035
494.981
507.362
521.912
538.277
556.06
574.863
594.32
614.13
634.061
653.96
673.74
693.375
712.877
732.286
751.657
771.048
790.511
810.095
485.01
493.563
504.474
517.569
532.583
549.179
566.974
585.578
604.632
623.839
642.984
661.942
680.668
699.181
717.539
735.821
754.109
772.482
791.005
809.731
491.989
501.687
513.616
527.583
543.305
560.428
578.544
597.232
616.101
634.84
653.245
671.233
688.827
706.116
723.227
740.292
757.43
774.74
792.299
810.161
497.304
508.01
520.916
535.81
552.392
570.269
588.981
608.034
626.965
645.416
663.187
680.254
696.73
712.807
728.694
744.586
760.638
776.967
793.654
810.752
499.914
511.364
525.05
540.755
558.16
576.839
596.266
615.856
635.045
653.401
670.719
687.04
702.587
717.66
732.555
747.517
762.73
778.319
794.365
810.912
499.078
510.871
524.966
541.148
559.089
578.337
598.321
618.387
637.888
656.329
673.493
689.467
704.552
719.124
733.529
748.044
762.864
778.117
793.882
810.198
494.488
506.131
520.147
536.321
554.317
573.676
593.814
614.07
633.79
652.473
669.894
686.128
701.466
716.275
730.899
745.611
760.611
776.029
791.947
808.408
486.38
497.386
510.849
526.552
544.155
563.199
583.124
603.313
623.175
642.254
660.32
677.385
693.647
709.389
724.898
740.419
756.142
772.203
788.689
805.655
475.572
485.552
498.126
513.078
530.068
548.641
568.265
588.377
608.454
628.088
647.041
665.25
682.804
699.876
716.674
733.396
750.209
767.248
784.607
802.352
463.44
472.146
483.672
497.816
514.229
532.445
551.931
572.15
592.613
612.936
632.862
652.277
671.182
689.661
707.848
725.891
743.931
762.093
780.474
799.145
451.931
459.246
469.713
483.145
499.163
517.251
536.837
557.365
578.347
599.4
620.257
640.767
660.878
680.62
700.07
719.338
738.542
757.796
777.195
796.81
443.641
449.576
459.055
471.902
487.679
505.787
525.582
546.463
567.931
589.599
611.197
632.557
653.604
674.332
694.785
715.048
735.221
755.408
775.702
796.169
441.713
446.436
455.017
467.29
482.761
500.751
520.556
541.545
563.212
585.177
607.17
629.024
650.646
672.011
693.144
714.107
734.986
755.876
776.863
798.007
448.939
452.786
460.542
472.058
486.847
504.231
523.514
544.079
565.432
587.204
609.131
631.041
652.831
674.46
695.931
717.286
738.593
759.931
781.371
802.962
466.162
469.509
476.501
487.019
500.659
516.852
534.99
554.521
574.989
596.042
617.419
638.943
660.497
682.022
703.5
724.949
746.41
767.937
789.579
811.369
)
;
    }
    coldSide
    {
        type            mixed;
        refValue        uniform 300;
        refGradient     uniform 0;
        valueFraction   uniform 0.991591;
        source          uniform 0;
        value           nonuniform List<scalar> 
400
(
300.028
300.027
300.028
300.028
300.029
300.03
300.03
300.031
300.033
300.034
300.035
300.036
300.037
300.038
300.039
300.04
300.041
300.042
300.043
300.044
300.027
300.027
300.027
300.028
300.028
300.029
300.03
300.031
300.032
300.033
300.034
300.035
300.037
300.038
300.039
300.04
300.041
300.042
300.043
300.044
300.026
300.026
300.027
300.027