/*--------------------------------*- C++ -*----------------------------------*\
| =========                 |                                                 |
| \\      /  F ield         | OpenFOAM: The Open Source CFD Toolbox           |
|  \\    /   O peration     | Version:  2212                                  |
|   \\  /    A nd           | Website:  www.openfoam.com                      |
|    \\/     M anipulation  |                                                 |
\*---------------------------------------------------------------------------*/
FoamFile
{
    version     2.0;
    format      ascii;
    arch        "LSB;label=32;scalar=64";
    class       volScalarField;
    location    "0";
    object      T;
}
// * * * * * * * * * * * * * * * * * * * * * * * * * * * * * * * * * * * * * //

dimensions      [0 0 0 1 0 0 0];

internalField   nonuniform List<scalar> 
3200
(
334.817
335.367
335.934
336.664
336.927
337.528
337.7
337.574
337.863
337.785
337.878
337.788
337.535
336.998
336.657
336.188
335.599
335.149
334.187
333.927
330.267
330.669
331.164
331.867
332.11
332.596
332.777
332.681
332.908
332.818
332.954
332.884
332.669
332.098
331.871
331.437
330.954
330.545
329.754
329.505
325.62
325.95
326.369
327.06
327.271
327.634
327.854
327.747
327.919
327.815
327.947
327.927
327.702
327.179
327.058
326.669
326.294
325.924
325.24
325.085
320.958
321.255
321.599
322.162
322.389
322.656
322.883
322.788
322.902
322.782
322.903
322.924
322.727
322.247
322.198
321.827
321.582
321.265
320.678
320.59
316.3
316.54
316.861
317.29
317.453
317.681
317.834
317.808
317.837
317.729
317.842
317.834
317.712
317.335
317.278
316.947
316.823
316.563
316.089
316.046
311.617
311.803
312.073
312.397
312.522
312.677
312.785
312.738
312.729
312.619
312.74
312.75
312.66
312.404
312.312
312.1
312.023
311.873
311.512
311.483
306.959
307.06
307.248
307.475
307.538
307.599
307.698
307.651
307.657
307.585
307.684
307.685
307.577
307.446
307.391
307.254
307.228
307.141
306.909
306.895
302.333
302.337
302.412
302.525
302.544
302.538
302.593
302.562
302.562
302.545
302.586
302.576
302.531
302.512
302.462
302.442
302.415
302.39
302.313
302.324
335.955
336.349
336.946
337.793
338.14
338.62
338.855
338.86
338.994
339.008
338.992
338.759
338.541
338.145
337.674
337.213
336.747
336.202
335.238
334.946
331.198
331.52
332.034
332.786
333.109
333.548
333.767
333.673
333.832
333.855
333.81
333.618
333.508
333.085
332.728
332.237
331.916
331.418
330.573
330.369
326.41
326.687
327.094
327.795
328.037
328.429
328.638
328.512
328.673
328.686
328.617
328.493
328.472
328.025
327.773
327.28
327.04
326.608
325.9
325.774
321.657
321.841
322.155
322.763
322.996
323.306
323.502
323.328
323.497
323.494
323.449
323.342
323.415
322.893
322.816
322.316
322.131
321.747
321.255
321.145
316.857
316.984
317.181
317.731
317.893
318.195
318.308
318.166
318.274
318.29
318.26
318.141
318.257
317.779
317.779
317.373
317.247
316.848
316.537
316.496
312.049
312.159
312.245
312.73
312.784
313.03
313.121
313.01
313.045
313.088
313.076
312.948
313.057
312.712
312.721
312.413
312.339
312.03
311.806
311.799
307.27
307.308
307.35
307.668
307.658
307.841
307.912
307.803
307.845
307.872
307.844
307.79
307.809
307.622
307.651
307.445
307.41
307.245
307.1
307.103
302.464
302.446
302.469
302.577
302.571
302.647
302.656
302.601
302.636
302.657
302.624
302.614
302.608
302.563
302.564
302.517
302.496
302.415
302.383
302.378
337.519
337.742
338.446
339.077
339.617
339.991
340.452
340.62
340.711
340.595
340.407
340.19
340.122
339.84
339.321
338.633
338.492
337.563
336.697
335.94
332.578
332.705
333.355
333.866
334.35
334.649
335.085
335.176
335.292
335.171
335.025
334.833
334.788
334.525
334.064
333.45
333.354
332.553
331.854
331.196
327.613
327.662
328.285
328.652
329.025
329.336
329.684
329.74
329.932
329.809
329.683
329.449
329.444
329.2
328.827
328.325
328.235
327.531
327.006
326.475
322.637
322.625
323.136
323.444
323.709
324.032
324.322
324.343
324.532
324.393
324.351
324.056
324.06
323.907
323.571
323.218
323.128
322.52
322.15
321.719
317.635
317.619
318.015
318.252
318.453
318.691
318.921
318.925
319.133
318.988
318.979
318.65
318.696
318.56
318.33
318.109
318.013
317.502
317.228
316.945
312.62
312.589
312.893
313.074
313.208
313.344
313.543
313.52
313.719
313.595
313.621
313.308
313.341
313.263
313.081
312.974
312.88
312.556
312.308
312.15
307.597
307.566
307.78
307.878
307.892
308.019
308.14
308.12
308.229
308.162
308.218
308.015
307.997
307.966
307.86
307.833
307.76
307.559
307.391
307.307
302.553
302.55
302.616
302.627
302.644
302.687
302.726
302.723
302.766
302.731
302.77
302.677
302.709
302.673
302.603
302.634
302.593
302.551
302.49
302.437
338.832
339.464
340.134
340.564
341.105
341.726
342.085
342.217
342.107
342.34
342.156
342.007
341.672
341.566
340.809
340.22
339.935
339.053
338.273
337.462
333.646
334.204
334.758
335.129
335.59
336.184
336.536
336.559
336.508
336.717
336.516
336.398
336.108
336.013
335.275
334.886
334.599
333.843
333.153
332.526
328.456
328.962
329.387
329.684
330.082
330.627
330.959
330.926
330.942
331.054
330.911
330.772
330.575
330.505
329.828
329.536
329.272
328.583
328.071
327.522
323.274
323.717
324.056
324.259
324.637
325.059
325.356
325.344
325.382
325.416
325.295
325.153
325.028
324.932
324.367
324.206
323.96
323.425
322.986
322.509
318.077
318.472
318.765
318.895
319.158
319.509
319.735
319.757
319.782
319.822
319.685
319.55
319.501
319.363
318.945
318.835
318.624
318.256
317.868
317.511
312.895
313.191
313.437
313.502
313.686
313.916
314.119
314.13
314.18
314.166
314.033
314.016
313.935
313.848
313.542
313.462
313.319
313.066
312.745
312.545
307.731
307.899
308.074
308.106
308.198
308.343
308.458
308.482
308.544
308.553
308.373
308.418
308.354
308.312
308.146
308.058
308.012
307.842
307.683
307.567
302.563
302.644
302.693
302.717
302.73
302.796
302.829
302.841
302.897
302.858
302.805
302.799
302.79
302.801
302.734
302.686
302.678
302.64
302.567
302.544
340.199
340.885
341.679
342.293
343.019
343.413
343.649
344.027
343.773
343.923
343.957
343.737
343.419
343.215
342.436
342.034
341.437
340.83
339.993
338.985
334.845
335.434
336.118
336.584
337.26
337.654
337.853
338.123
337.913
338.112
338.087
337.907
337.614
337.384
336.705
336.409
335.886
335.383
334.69
333.767
329.476
330.014
330.545
330.918
331.522
331.878
332.015
332.264
332.081
332.302
332.238
332.053
331.848
331.572
331.035
330.812
330.361
329.996
329.39
328.561
324.103
324.566
325.043
325.255
325.782
326.066
326.157
326.392
326.24
326.493
326.401
326.221
326.126
325.802
325.397
325.223
324.869
324.575
324.058
323.347
318.737
319.1
319.493
319.627
320.029
320.281
320.365
320.554
320.398
320.615
320.559
320.397
320.394
320.099
319.75
319.603
319.341
319.173
318.706
318.178
313.38
313.613
313.982
314.034
314.302
314.512
314.553
314.721
314.587
314.749
314.712
314.593
314.648
314.361
314.088
313.995
313.806
313.718
313.376
313.018
308.03
308.192
308.401
308.436
308.614
308.713
308.744
308.849
308.77
308.857
308.838
308.738
308.84
308.632
308.5
308.363
308.274
308.226
308.047
307.827
302.692
302.731
302.821
302.835
302.9
302.927
302.933
302.941
302.957
302.977
302.958
302.897
302.954
302.894
302.883
302.79
302.77
302.761
302.689
302.628
341.734
342.417
343.255
343.768
344.604
345.052
345.292
345.551
345.713
345.684
345.718
345.46
345.193
344.958
344.292
343.759
343.111
342.423
341.723
340.811
336.185
336.791
337.488
337.903
338.626
339.032
339.241
339.474
339.58
339.587
339.601
339.335
339.129
338.985
338.403
337.897
337.407
336.781
336.134
335.368
330.617
331.2
331.756
332.044
332.688
333.011
333.235
333.392
333.474
333.497
333.472
333.276
333.121
332.982
332.481
332.064
331.663
331.14
330.565
329.932
325.059
325.516
326.012
326.21
326.741
327.002
327.204
327.314
327.341
327.397
327.372
327.234
327.061
326.968
326.545
326.207
325.901
325.501
324.99
324.502
319.473
319.785
320.25
320.346
320.782
321.021
321.148
321.278
321.263
321.277
321.3
321.174
321.044
320.935
320.638
320.353
320.14
319.845
319.431
319.061
313.894
314.168
314.467
314.485
314.868
315.018
315.109
315.242
315.171
315.215
315.196
315.138
315.026
314.933
314.725
314.532
314.362
314.198
313.929
313.616
308.329
308.5
308.704
308.668
308.945
309.037
309.064
309.146
309.127
309.126
309.124
309.101
309.035
308.92
308.82
308.71
308.611
308.553
308.403
308.204
302.791
302.861
302.926
302.913
303.008
303.024
303.042
303.057
303.073
303.052
303.059
303.059
303.044
302.959
302.946
302.919
302.901
302.872
302.823
302.752
343.185
343.981
344.797
345.574
346.191
346.627
347.011
347.307
347.398
347.488
347.526
347.193
347.007
346.588
346.091
345.424
344.808
343.968
343.03
342.271
337.394
338.1
338.842
339.449
340.028
340.392
340.735
340.947
341.098
341.122
341.216
340.879
340.736
340.333
339.933
339.327
338.832
338.119
337.254
336.614
331.615
332.221
332.871
333.3
333.882
334.203
334.445
334.641
334.78
334.832
334.938
334.565
334.486
334.121
333.784
333.211
332.876
332.215
331.496
330.988
325.875
326.329
326.927
327.186
327.708
327.99
328.158
328.383
328.493
328.545
328.61
328.274
328.197
327.91
327.61
327.132
326.877
326.344
325.732
325.357
320.14
320.452
320.975
321.135
321.586
321.785
321.895
322.087
322.176
322.196
322.274
321.989
321.904
321.712
321.444
321.087
320.886
320.507
320.036
319.705
314.413
314.596
314.987
315.099
315.387
315.615
315.606
315.816
315.828
315.858
315.926
315.708
315.615
315.517
315.313
315.086
314.932
314.635
314.353
314.056
308.647
308.77
308.999
309.045
309.268
309.368
309.379
309.514
309.495
309.548
309.556
309.443
309.384
309.332
309.198
309.102
308.969
308.788
308.626
308.4
302.905
302.926
303.034
303.029
303.095
303.144
303.144
303.195
303.19
303.208
303.197
303.161
303.15
303.129
303.086
303.054
302.988
302.941
302.887
302.821
344.787
345.417
346.181
346.928
347.812
348.256
348.558
348.998
349.193
349.293
349.271
349.155
348.667
348.344
347.605
347.122
346.477
345.516
344.546
343.591
338.819
339.359
339.993
340.683
341.402
341.805
342.101
342.522
342.64
342.723
342.72
342.595
342.15
341.866
341.251
340.768
340.268
339.421
338.584
337.741
332.852
333.287
333.854
334.449
335.011
335.402
335.59
336.033
336.057
336.185
336.151
336.035
335.634
335.417
334.939
334.47
334.076
333.356
332.645
331.942
326.883
327.222
327.698
328.187
328.652
328.979
329.114
329.49
329.518
329.62
329.539
329.449
329.17
328.981
328.639
328.197
327.891
327.32
326.684
326.166
320.919
321.163
321.547
321.951
322.276
322.551
322.674
322.975
322.955
323.063
322.984
322.862
322.732
322.567
322.307
321.93
321.737
321.256
320.777
320.345
314.948
315.115
315.414
315.721
315.86
316.107
316.208
316.413
316.364
316.501
316.446
316.328
316.256
316.124
315.921
315.675
315.54
315.223
314.872
314.524
308.991
309.072
309.3
309.43
309.491
309.667
309.73
309.877
309.833
309.923
309.884
309.812
309.753
309.698
309.556
309.395
309.348
309.148
308.927
308.715
303.024
303.032
303.111
303.163
303.198
303.218
303.261
303.306
303.301
303.33
303.291
303.286
303.27
303.265
303.196
303.141
303.143
303.079
302.991
302.92
346.069
346.758
347.548
348.372
349.076
349.757
350.328
350.465
350.703
350.735
350.704
350.54
350.316
349.88
349.458
348.559
347.964
346.899
346.075
344.89
339.928
340.514
341.197
341.9
342.524
343.127
343.585
343.745
343.921
343.962
343.93
343.832
343.593
343.237
342.841
342.054
341.575
340.63
339.919
338.887
333.815
334.258
334.878
335.466
335.978
336.473
336.828
337.044
337.185
337.183
337.144
337.106
336.879
336.622
336.194
335.577
335.24
334.398
333.794
332.909
327.723
327.993
328.529
329.038
329.452
329.83
330.056
330.327
330.429
330.426
330.394
330.354
330.182
329.963
329.584
329.111
328.887
328.19
327.645
326.959
321.571
321.782
322.132
322.623
322.936
323.234
323.367
323.597
323.681
323.596
323.636
323.651
323.517
323.34
323.002
322.635
322.517
321.987
321.497
320.974
315.383
315.569
315.789
316.202
316.423
316.575
316.711
316.889
316.974
316.831
316.876
316.943
316.835
316.697
316.454
316.19
316.097
315.73
315.359
315
309.245
309.395
309.447
309.716
309.868
309.961
310.008
310.153
310.209
310.117
310.145
310.202
310.122
310.02
309.879
309.741
309.675
309.438
309.255
309.044
303.082
303.174
303.157
303.233
303.289
303.342
303.351
303.395
303.425
303.39
303.414
303.423
303.371
303.367
303.297
303.271
303.236
303.154
303.082
303.044
347.167
348.022
348.835
349.802
350.514
351.085
351.523
351.764
352.138
352.27
352.145
352.274
351.925
351.479
350.856
350.167
349.369
348.297
347.56
346.567
340.828
341.614
342.285
343.151
343.694
344.227
344.622
344.875
345.147
345.288
345.193
345.265
344.978
344.588
344.074
343.439
342.757
341.845
341.155
340.344
334.529
335.192
335.728
336.483
336.921
337.365
337.761
337.953
338.235
338.31
338.226
338.287
338.026
337.735
337.272
336.705
336.155
335.411
334.777
334.167
328.256
328.822
329.184
329.852
330.202
330.531
330.875
331.078
331.309
331.358
331.29
331.313
331.126
330.86
330.491
330.031
329.569
328.981
328.449
328.012
321.966
322.438
322.677
323.218
323.455
323.69
324.008
324.196
324.386
324.394
324.357
324.363
324.246
323.995
323.718
323.35
322.98
322.533
322.16
321.807
315.698
316.002
316.202
316.629
316.754
316.915
317.153
317.29
317.425
317.38
317.409
317.405
317.393
317.141
316.957
316.661
316.427
316.114
315.83
315.582
309.442
309.627
309.748
309.979
310.066
310.146
310.277
310.39
310.468
310.406
310.469
310.489
310.478
310.3
310.187
310.001
309.831
309.713
309.481
309.354
303.168
303.253
303.274
303.348
303.359
303.4
303.424
303.482
303.501
303.479
303.515
303.524
303.518
303.432
303.409
303.362
303.276
303.257
303.169
303.138
348.379
349.48
350.31
351.12
351.786
352.534
352.975
353.23
353.656
353.691
353.73
353.675
353.262
352.923
352.417
351.714
350.856
349.634
348.744
347.856
341.877
342.878
343.573
344.268
344.882
345.514
345.848
346.072
346.525
346.464
346.535
346.492
346.174
345.859
345.458
344.819
344.057
342.982
342.234
341.49
335.383
336.255
336.865
337.433
338.01
338.544
338.734
339.01
339.374
339.311
339.419
339.316
339.044
338.764
338.49
337.919
337.295
336.31
335.748
335.106
328.947
329.688
330.131
330.627
331.143
331.562
331.665
331.927
332.183
332.193
332.282
332.151
331.87
331.701
331.485
331.026
330.499
329.666
329.299
328.731
322.536
323.113
323.438
323.809
324.183
324.527
324.624
324.881
325.019
325.077
325.131
324.996
324.766
324.642
324.473
324.132
323.735
323.053
322.781
322.365
316.097
316.527
316.744
316.991
317.271
317.534
317.567
317.789
317.92
317.946
317.932
317.902
317.686
317.576
317.457
317.221
316.959
316.492
316.282
316.011
309.665
309.968
310.047
310.197
310.38
310.546
310.518
310.659
310.795
310.773
310.77
310.75
310.663
310.573
310.478
310.339
310.184
309.914
309.755
309.629
303.235
303.364
303.384
303.429
303.482
303.539
303.522
303.554
303.619
303.612
303.612
303.616
303.605
303.557
303.516
303.449
303.418
303.325
303.262
303.238
349.507
350.719
351.697
352.26
353.142
353.839
354.275
354.61
355.073
355.091
355.104
354.866
354.765
354.343
353.697
352.981
352.169
350.836
349.999
349.176
342.928
343.937
344.735
345.286
346.044
346.654
346.965
347.264
347.718
347.736
347.703
347.518
347.449
347.069
346.565
345.943
345.193
344.02
343.29
342.595
336.309
337.189
337.798
338.355
338.946
339.471
339.702
339.981
340.363
340.44
340.335
340.209
340.11
339.857
339.423
338.852
338.241
337.201
336.578
335.997
329.673
330.394
330.9
331.444
331.896
332.315
332.473
332.674
333.019
333.096
333.034
332.865
332.776
332.58
332.274
331.772
331.295
330.427
329.939
329.449
323.073
323.625
324.035
324.489
324.815
325.176
325.258
325.398
325.651
325.734
325.774
325.544
325.488
325.338
325.131
324.66
324.369
323.686
323.327
322.878
316.478
316.874
317.148
317.491
317.784
317.962
318.056
318.078
318.305
318.378
318.436
318.225
318.207
318.108
317.958
317.589
317.415
316.903
316.664
316.317
309.886
310.144
310.283
310.54
310.719
310.777
310.849
310.852
310.987
311.033
311.068
310.952
310.925
310.882
310.808
310.563
310.455
310.158
309.983
309.79
303.328
303.416
303.459
303.543
303.599
303.63
303.627
303.658
303.673
303.701
303.703
303.685
303.651
303.634
303.629
303.55
303.491
303.4
303.338
303.269
350.657
351.651
352.71
353.56
354.579
355.02
355.696
355.888
356.387
356.507
356.387
356.309
356.013
355.48
355.097
354.308
353.466
352.378
351.062
350.256
343.892
344.753
345.657
346.385
347.288
347.661
348.244
348.41
348.863
348.884
348.793
348.797
348.492
348.089
347.728
347.076
346.313
345.374
344.217
343.573
337.165
337.85
338.649
339.219
339.98
340.316
340.796
340.922
341.287
341.34
341.241
341.263
341.011
340.69
340.327
339.822
339.15
338.375
337.39
336.829
330.426
330.916
331.602
332.05
332.732
332.972
333.336
333.443
333.762
333.826
333.739
333.742
333.562
333.281
333.007
332.586
332.009
331.4
330.61
330.11
323.639
323.977
324.575
324.905
325.454
325.645
325.9
326.023
326.239
326.335
326.254
326.223
326.137
325.857
325.715
325.376
324.906
324.391
323.788
323.378
316.873
317.107
317.543
317.766
318.207
318.314
318.468
318.6
318.746
318.819
318.801
318.744
318.715
318.463
318.435
318.137
317.79
317.412
317.004
316.692
310.13
310.253
310.541
310.679
310.933
310.993
311.073
311.197
311.23
311.296
311.295
311.279
311.256
311.124
311.115
310.92
310.676
310.465
310.212
310.013
303.383
303.441
303.535
303.589
303.655
303.66
303.695
303.751
303.78
303.78
303.777
303.795
303.754
303.741
303.727
303.664
303.576
303.505
303.432
303.348
351.587
352.737
353.547
354.591
355.639
356.162
356.792
357.158
357.383
357.571
357.535
357.442
357.078
356.774
356.031
355.328
354.575
353.413
352.261
351.562
344.709
345.723
346.365
347.263
348.176
348.665
349.196
349.525
349.712
349.805
349.816
349.742
349.464
349.187
348.545
347.973
347.286
346.285
345.268
344.732
337.836
338.724
339.247
340.019
340.727
341.216
341.637
341.95
342.07
342.116
342.192
342.068
341.817
341.551
341.054
340.6
339.973
339.18
338.28
337.835
330.972
331.68
332.129
332.773
333.319
333.75
334.062
334.353
334.405
334.421
334.574
334.412
334.19
333.961
333.572
333.251
332.665
332.075
331.346
330.951
324.124
324.614
324.975
325.47
325.959
326.269
326.461
326.732
326.743
326.731
326.929
326.752
326.572
326.389
326.117
325.865
325.418
324.95
324.412
324.077
317.238
317.576
317.846
318.191
318.551
318.774
318.913
319.093
319.116
319.07
319.256
319.106
318.988
318.82
318.692
318.482
318.178
317.846
317.481
317.267
310.364
310.559
310.706
310.899
311.138
311.288
311.373
311.481
311.481
311.458
311.539
311.458
311.404
311.293
311.223
311.086
310.986
310.727
310.518
310.401
303.487
303.542
303.595
303.649
303.744
303.794
303.813
303.87
303.856
303.867
303.861
303.844
303.818
303.793
303.78
303.72
303.693
303.605
303.534
303.494
352.545
353.671
354.617
355.564
356.572
357.194
357.968
358.148
358.383
358.66
358.753
358.78
358.259
357.761
357.174
356.424
355.38
354.476
353.368
352.457
345.542
346.512
347.285
348.099
348.998
349.523
350.228
350.371
350.57
350.829
350.888
350.922
350.457
350.044
349.532
348.855
347.969
347.208
346.222
345.464
338.537
339.33
339.975
340.628
341.428
341.905
342.465
342.615
342.801
343.021
343.087
343.055
342.663
342.332
341.875
341.313
340.62
339.957
339.073
338.495
331.564
332.169
332.657
333.21
333.865
334.273
334.759
334.9
335.07
335.22
335.283
335.172
334.839
334.599
334.255
333.801
333.254
332.667
331.935
331.505
324.553
325.025
325.412
325.805
326.308
326.706
327.077
327.144
327.313
327.375
327.454
327.289
327.061
326.91
326.632
326.28
325.9
325.408
324.833
324.577
317.55
317.846
318.163
318.437
318.769
319.112
319.411
319.401
319.543
319.516
319.571
319.486
319.326
319.227
319.019
318.771
318.532
318.121
317.744
317.615
310.557
310.709
310.923
311.087
311.279
311.483
311.695
311.636
311.745
311.716
311.73
311.717
311.588
311.541
311.438
311.276
311.141
310.842
310.672
310.564
303.539
303.581
303.649
303.717
303.79
303.859
303.929
303.912
303.932
303.938
303.933
303.93
303.885
303.86
303.842
303.794
303.731
303.608
303.565
303.543
353.444
354.5
355.422
356.524
357.43
358.153
358.877
359.221
359.442
359.679
359.603
359.66
359.213
358.663
358.056
357.271
356.402
355.389
354.201
353.341
346.336
347.181
347.946
348.953
349.767
350.378
350.974
351.273
351.484
351.704
351.614
351.762
351.253
350.829
350.295
349.589
348.876
348.022
346.981
346.242
339.197
339.925
340.481
341.431
342.097
342.593
343.077
343.383
343.589
343.756
343.661
343.83
343.358
343.016
342.556
341.946
341.36
340.582
339.759
339.13
332.084
332.671
333.096
333.885
334.375
334.772
335.203
335.51
335.643
335.821
335.734
335.845
335.455
335.19
334.802
334.331
333.805
333.197
332.515
332.038
324.944
325.399
325.751
326.332
326.68
326.995
327.38
327.647
327.74
327.908
327.824
327.873
327.574
327.368
327.063
326.712
326.311
325.812
325.288
324.978
317.81
318.154
318.408
318.819
319.056
319.273
319.556
319.756
319.843
319.941
319.878
319.935
319.704
319.567
319.349
319.108
318.823
318.39
318.079
317.877
310.684
310.898
311.06
311.321
311.436
311.607
311.768
311.873
311.933
311.973
311.932
311.981
311.847
311.758
311.63
311.499
311.326
311.015
310.857
310.753
303.566
303.648
303.705
303.802
303.841
303.874
303.953
303.976
303.992
304.003
304.009
304.008
303.963
303.936
303.9
303.847
303.795
303.673
303.625
303.627
354.104
355.172
356.147
357.246
358.305
359.014
359.834
360.394
360.515
360.695
360.453
360.384
360.2
359.577
358.921
358.172
357.45
356.268
355.108
354.142
346.891
347.814
348.596
349.576
350.45
351.119
351.837
352.284
352.404
352.601
352.366
352.348
352.168
351.559
351.014
350.396
349.772
348.741
347.732
346.939
339.68
340.423
341.095
341.932
342.638
343.228
343.839
344.224
344.315
344.503
344.314
344.319
344.112
343.589
343.185
342.629
342.101
341.222
340.386
339.742
332.446
333.027
333.647
334.303
334.868
335.306
335.837
336.201
336.243
336.409
336.273
336.246
336.08
335.61
335.328
334.839
334.463
333.716
333.072
332.578
325.21
325.678
326.185
326.629
327.129
327.41
327.857
328.174
328.181
328.33
328.194
328.18
328.029
327.669
327.528
327.019
326.803
326.211
325.728
325.389
317.983
318.358
318.704
319.009
319.377
319.602
319.924
320.153
320.123
320.24
320.114
320.159
320.021
319.762
319.673
319.25
319.129
318.754
318.393
318.139
310.783
311.052
311.227
311.421
311.629
311.794
311.95
312.127
312.076
312.148
312.074
312.116
312.023
311.853
311.834
311.54
311.473
311.261
311.059
310.903
303.608
303.715
303.778
303.827
303.915
303.977
304.006
304.062
304.056
304.083
304.043
304.057
304.007
303.974
303.966
303.87
303.833
303.763
303.715
303.642
354.607
355.872
357.003
358.059
358.902
359.684
360.342
360.921
361.113
361.45
361.16
361.187
360.743
360.565
359.595
359.051
358.058
357.084
355.673
355.105
347.297
348.451
349.404
350.27
351.033
351.687
352.302
352.786
352.944
353.208
352.949
352.978
352.668
352.479
351.591
351.149
350.34
349.457
348.253
347.748
339.999
341.051
341.848
342.481
343.205
343.695
344.265
344.678
344.806
344.987
344.784
344.815
344.593
344.4
343.645
343.296
342.593
341.842
340.837
340.404
332.682
333.528
334.303
334.747
335.367
335.693
336.227
336.557
336.693
336.782
336.675
336.687
336.495
336.308
335.717
335.427
334.823
334.257
333.445
333.091
325.437
326.032
326.731
327.045
327.541
327.725
328.158
328.387
328.58
328.603
328.49
328.525
328.352
328.255
327.77
327.568
327.107
326.707
326.04
325.732
318.169
318.553
319.127
319.355
319.704
319.748
320.102
320.285
320.454
320.419
320.358
320.339
320.259
320.188
319.821
319.734
319.412
319.128
318.657
318.391
310.919
311.109
311.479
311.658
311.839
311.831
312.071
312.198
312.296
312.225
312.231
312.221
312.191
312.119
311.9
311.844
311.701
311.515
311.249
311.042
303.664
303.723
303.849
303.908
303.987
303.963
304.044
304.084
304.116
304.107
304.101
304.102
304.112
304.053
303.981
303.985
303.91
303.851
303.767
303.693
355.138
356.406
357.411
358.493
359.444
360.348
360.819
361.514
361.526
361.914
361.789
361.932
361.481
361.269
360.476
359.55
358.683
357.652
356.556
355.584
347.769
348.867
349.689
350.663
351.481
352.272
352.656
353.259
353.277
353.611
353.494
353.622
353.251
353.099
352.404
351.586
350.806
349.928
349.02
348.174
340.423
341.344
342.021
342.862
343.553
344.186
344.519
345.101
345.067
345.351
345.237
345.338
345.058
344.967
344.291
343.661
342.936
342.206
341.458
340.784
333.106
333.835
334.372
335.09
335.628
336.148
336.435
336.892
336.837
337.079
337.034
337.095
336.826
336.797
336.203
335.728
335.13
334.543
333.964
333.432
325.787
326.332
326.713
327.288
327.74
328.128
328.367
328.713
328.6
328.785
328.763
328.826
328.587
328.628
328.159
327.778
327.326
326.899
326.478
326.002
318.435
318.826
319.082
319.502
319.861
320.089
320.289
320.551
320.42
320.555
320.542
320.541
320.394
320.445
320.094
319.826
319.54
319.205
318.946
318.565
311.074
311.302
311.474
311.725
311.912
312.021
312.181
312.358
312.264
312.358
312.321
312.31
312.229
312.247
312.057
311.897
311.745
311.521
311.406
311.132
303.706
303.787
303.866
303.928
303.984
304.031
304.093
304.15
304.097
304.161
304.117
304.138
304.092
304.096
304.038
303.996
303.934
303.86
303.809
303.721
355.247
356.776
357.742
358.776
359.776
360.711
361.254
361.839
361.821
362.519
362.399
362.384
361.769
361.283
360.899
359.936
359.034
357.922
356.752
355.643
347.883
349.171
349.986
350.862
351.79
352.547
353.033
353.493
353.529
354.178
354.028
353.998
353.504
353.083
352.732
351.944
351.087
350.123
349.194
348.253
340.533
341.546
342.26
343.015
343.824
344.456
344.819
345.205
345.299
345.819
345.624
345.665
345.232
344.917
344.603
343.925
343.227
342.368
341.656
340.828
333.23
333.921
334.565
335.202
335.834
336.369
336.628
336.939
337.082
337.449
337.261
337.329
336.993
336.781
336.478
335.945
335.358
334.592
334.115
333.413
325.836
326.315
326.887
327.386
327.832
328.247
328.42
328.694
328.838
329.107
328.992
329.032
328.807
328.644
328.375
327.97
327.492
326.902
326.561
326.024
318.483
318.764
319.2
319.539
319.893
320.169
320.3
320.491
320.626
320.786
320.697
320.747
320.541
320.498
320.258
319.967
319.651
319.253
318.991
318.628
311.118
311.254
311.55
311.735
311.955
312.103
312.192
312.356
312.389
312.462
312.39
312.45
312.307
312.326
312.132
312.023
311.799
311.594
311.436
311.204
303.741
303.773
303.873
303.931
303.999
304.045
304.084
304.158
304.143
304.171
304.145
304.173
304.118
304.131
304.059
304.038
303.934
303.883
303.84
303.768
)
;

boundaryField
{
    hotSide
    {
        type            fixedGradient;
        gradient        nonuniform List<scalar> 
400
(
362.513
379.447
396.261
412.881
429.231
445.235
460.817
475.9
490.41
504.273
517.419
529.779
541.289
551.888
561.521
570.136
577.688
584.138
589.453
593.605
369.695
387.135
404.459
421.591
438.453
454.966
471.051
486.631
501.627
515.964
529.569
542.37
554.302
565.302
575.311
584.276
592.151
598.895
604.471
608.853
375.931
393.834
411.626
429.228
446.56
463.542
480.093
496.131
511.577
526.354
540.384
553.597
565.923
577.296
587.658
596.953
605.132
612.152
617.979
622.581
381.218
399.539
417.753
435.78
453.539
470.946
487.919
504.375
520.231
535.409
549.829
563.419
576.106
587.824
598.51
608.11
616.572
623.851
629.911
634.721
385.562
404.252
422.84
441.244
459.382
477.168
494.517
511.345
527.569
543.106
557.877
571.805
584.818
596.847
607.829
617.706
626.425
633.942
640.218
645.22
388.974
407.982
426.893
445.624
464.09
482.204
499.881
517.035
533.579
549.431
564.509
578.736
592.036
604.341
615.584
625.708
634.658
642.387
648.857
654.034
391.469
410.742
429.923
448.928
467.669
486.06
504.014
521.442
538.258
554.377
569.717
584.198
597.745
610.286
621.755
632.092
641.242
649.158
655.799
661.131
393.067
412.551
431.946
451.168
470.13
488.744
506.92
524.57
541.607
557.944
573.497
588.187
601.936
614.673
626.329
636.844
646.162
654.235
661.02
666.485
393.787
413.424
432.977
452.361
471.487
490.266
508.61
526.427
543.631
560.134
575.851
590.701
604.607
617.496
629.299
639.954
649.406
657.604
664.507
670.08
393.648
413.381
433.034
452.52
471.753
490.64
509.094
527.023
544.339
560.954
576.783
591.744
605.759
618.755
630.662
641.418
650.967
659.259
666.25
671.907
392.666
412.437
432.131
451.662
470.941
489.879
508.384
526.367
543.739
560.412
576.299
591.321
605.396
618.453
630.421
641.238
650.847
659.197
666.247
671.96
390.859
410.609
430.285
449.8
469.066
487.994
506.493
524.472
541.843
558.517
574.41
589.439
603.526
616.596
628.581
639.418
649.048
657.423
664.5
670.242
388.238
407.908
427.506
446.946
466.14
484.998
503.431
521.348
538.661
555.282
571.126
586.111
600.158
613.195
625.152
635.966
645.58
653.944
661.016
666.759
384.813
404.344
423.806
443.111
462.173
480.902
499.21
517.007
534.205
550.717
566.458
581.346
595.305
608.261
620.145
630.895
640.454
648.772
655.808
661.525
380.592
399.927
419.193
438.304
457.175
475.717
493.842
511.462
528.488
544.836
560.42
575.162
588.983
601.811
613.578
624.223
633.689
641.927
648.895
654.558
375.582
394.663
413.675
432.535
451.157
469.454
487.339
504.725
521.525
537.655
553.031
567.575
581.21
593.865
605.472
615.972
625.308
633.432
640.302
645.885
369.787
388.559
407.262
425.814
444.131
462.127
479.717
496.814
513.334
529.194
544.311
558.609
572.011
584.448
595.855
606.171
615.341
623.319
630.063
635.539
363.215
381.624
399.963
418.153
436.111
453.752
470.993
487.749
503.938
519.477
534.287
548.292
561.418
573.595
584.761
594.856
603.827
611.628
618.218
623.565
355.874
373.868
391.792
409.568
427.114
444.349
461.19
477.556
493.364
508.536
522.993
536.661
549.468
561.346
572.234
582.074
590.814
598.409
604.82
610.015
347.776
365.306
382.766
400.079
417.165
433.945
450.339
466.267
481.649
496.409
510.47
523.76
536.209
547.751
558.327
567.88
576.36
583.723
589.932
594.955
)
;
    }
    coldSide
    {
        type            mixed;
        refValue        uniform 300;
        refGradient     uniform 0;
        valueFraction   uniform 0.991591;
        source          uniform 0;
        value           nonuniform List<scalar> 
400
(
300.02
300.021
300.021
300.022
300.023
300.023
300.024
300.025
300.026
300.027
300.027
300.028
300.028
300.029
300.03
300.03
300.03
300.031
300.031
300.031
300.02
300.021
300.021
300.022
300.023
300.024
300.025
300.025
300.027
300.027
300.028
300.029
300.029
300.03
300.03
300.031
300.031