/*--------------------------------*- C++ -*----------------------------------*\
| =========                 |                                                 |
| \\      /  F ield         | OpenFOAM: The Open Source CFD Toolbox           |
|  \\    /   O peration     | Version:  2212                                  |
|   \\  /    A nd           | Website:  www.openfoam.com                      |
|    \\/     M anipulation  |                                                 |
\*---------------------------------------------------------------------------*/
FoamFile
{
    version     2.0;
    format      ascii;
    arch        "LSB;label=32;scalar=64";
    class       volScalarField;
    location    "0";
    object      T;
}
// * * * * * * * * * * * * * * * * * * * * * * * * * * * * * * * * * * * * * //

dimensions      [0 0 0 1 0 0 0];

internalField   nonuniform List<scalar> 
3200
(
321.894
321.255
321.031
321.117
321.319
321.658
321.937
322.184
322.743
322.855
322.74
322.561
322.254
321.945
321.284
320.924
320.523
320.49
320.602
320.852
318.985
318.461
318.289
318.355
318.572
318.833
319.117
319.301
319.821
319.907
319.797
319.66
319.411
319.142
318.58
318.249
317.926
317.938
318.017
318.21
316.068
315.663
315.508
315.568
315.795
316.003
316.254
316.398
316.843
316.938
316.809
316.724
316.507
316.288
315.794
315.512
315.266
315.297
315.348
315.501
313.138
312.838
312.693
312.756
312.996
313.14
313.351
313.461
313.829
313.926
313.8
313.716
313.553
313.405
312.966
312.758
312.564
312.608
312.602
312.76
310.203
310.009
309.88
309.948
310.164
310.268
310.417
310.504
310.789
310.851
310.762
310.685
310.559
310.485
310.12
309.958
309.824
309.878
309.831
309.968
307.264
307.176
307.067
307.114
307.296
307.368
307.449
307.526
307.716
307.796
307.713
307.638
307.532
307.518
307.226
307.13
307.058
307.069
307.033
307.15
304.347
304.317
304.255
304.28
304.393
304.436
304.472
304.539
304.632
304.704
304.632
304.61
304.527
304.522
304.321
304.295
304.256
304.249
304.211
304.31
301.452
301.448
301.43
301.44
301.471
301.485
301.5
301.525
301.55
301.587
301.552
301.549
301.519
301.519
301.455
301.429
301.433
301.421
301.399
301.444
321.975
321.376
321.088
321.175
321.415
321.759
322.183
322.396
322.872
323.096
323.069
322.826
322.529
322.024
321.636
321.164
320.69
320.582
320.537
320.76
319.054
318.593
318.331
318.407
318.633
318.957
319.304
319.501
319.897
320.109
320.095
319.873
319.615
319.215
318.901
318.483
318.062
317.994
317.941
318.111
316.132
315.788
315.559
315.616
315.834
316.082
316.384
316.546
316.91
317.066
317.075
316.882
316.679
316.371
316.083
315.74
315.368
315.332
315.27
315.397
313.2
312.967
312.749
312.805
313.002
313.201
313.417
313.568
313.881
314.022
314.001
313.851
313.709
313.468
313.232
312.952
312.632
312.589
312.552
312.635
310.248
310.097
309.917
309.96
310.147
310.301
310.441
310.569
310.812
310.954
310.922
310.793
310.7
310.507
310.337
310.115
309.86
309.814
309.799
309.862
307.29
307.201
307.091
307.13
307.275
307.369
307.459
307.548
307.727
307.855
307.826
307.757
307.665
307.539
307.408
307.243
307.047
307.028
307.014
307.056
304.368
304.317
304.263
304.291
304.361
304.435
304.48
304.538
304.643
304.726
304.699
304.676
304.583
304.53
304.443
304.358
304.226
304.227
304.226
304.247
301.467
301.447
301.424
301.442
301.462
301.49
301.503
301.522
301.567
301.591
301.578
301.569
301.535
301.522
301.48
301.456
301.42
301.411
301.415
301.426
322.025
321.585
321.298
321.301
321.597
322.049
322.486
322.83
323.254
323.518
323.507
323.319
322.908
322.5
321.963
321.448
320.814
320.608
320.695
320.939
319.091
318.764
318.526
318.519
318.753
319.175
319.578
319.874
320.23
320.49
320.467
320.293
319.971
319.626
319.156
318.721
318.193
318.005
318.09
318.297
316.144
315.944
315.718
315.705
315.907
316.287
316.63
316.894
317.197
317.42
317.393
317.237
316.964
316.703
316.288
315.937
315.502
315.332
315.418
315.588
313.192
313.071
312.883
312.861
313.028
313.372
313.652
313.881
314.133
314.305
314.271
314.147
313.927
313.727
313.412
313.122
312.756
312.613
312.687
312.835
310.268
310.159
310.024
310.015
310.141
310.434
310.645
310.837
311.027
311.168
311.104
311.039
310.863
310.693
310.495
310.237
309.969
309.845
309.9
310.023
307.333
307.264
307.191
307.15
307.266
307.468
307.593
307.753
307.882
307.983
307.939
307.898
307.781
307.658
307.51
307.322
307.151
307.053
307.093
307.167
304.407
304.377
304.325
304.288
304.386
304.477
304.557
304.665
304.738
304.8
304.754
304.756
304.672
304.608
304.508
304.391
304.321
304.243
304.275
304.311
301.469
301.484
301.45
301.433
301.479
301.496
301.531
301.565
301.596
301.612
301.596
301.606
301.57
301.53
301.508
301.469
301.445
301.42
301.439
301.444
322.248
321.933
321.67
321.686
322.035
322.361
322.845
323.252
323.745
324.011
323.939
323.787
323.396
322.952
322.368
321.665
321.202
320.963
321.02
321.233
319.293
319.075
318.822
318.85
319.18
319.424
319.882
320.23
320.668
320.899
320.834
320.716
320.376
320.01
319.521
318.921
318.517
318.321
318.372
318.527
316.337
316.191
315.957
316.002
316.286
316.477
316.868
317.174
317.558
317.719
317.686
317.597
317.334
317.029
316.626
316.117
315.778
315.6
315.66
315.771
313.383
313.274
313.083
313.145
313.381
313.501
313.834
314.102
314.4
314.542
314.478
314.437
314.245
313.979
313.674
313.246
312.981
312.839
312.871
312.968
310.402
310.345
310.198
310.256
310.439
310.521
310.784
311.012
311.216
311.345
311.283
311.277
311.107
310.91
310.686
310.347
310.137
310.032
310.048
310.123
307.447
307.384
307.292
307.326
307.448
307.54
307.725
307.882
308.01
308.125
308.085
308.079
307.944
307.799
307.67
307.417
307.272
307.166
307.193
307.242
304.472
304.431
304.364
304.417
304.463
304.517
304.653
304.746
304.802
304.879
304.87
304.844
304.782
304.684
304.612
304.459
304.364
304.29
304.333
304.36
301.505
301.48
301.459
301.49
301.492
301.513
301.564
301.593
301.62
301.638
301.633
301.618
301.607
301.563
301.554
301.496
301.465
301.446
301.455
301.466
322.684
322.485
322.016
322.052
322.418
322.789
323.336
323.858
324.261
324.477
324.615
324.428
323.97
323.501
322.712
322.15
321.735
321.405
321.49
321.742
319.68
319.535
319.128
319.188
319.477
319.803
320.269
320.768
321.108
321.328
321.426
321.25
320.873
320.495
319.825
319.332
319.029
318.717
318.786
318.999
316.665
316.57
316.226
316.271
316.51
316.783
317.172
317.646
317.924
318.135
318.227
318.04
317.729
317.432
316.878
316.45
316.233
315.945
316.003
316.172
313.667
313.587
313.307
313.343
313.543
313.742
314.082
314.477
314.725
314.886
314.978
314.786
314.546
314.316
313.869
313.52
313.374
313.137
313.171
313.314
310.653
310.592
310.372
310.393
310.556
310.697
310.979
311.289
311.476
311.624
311.691
311.531
311.346
311.176
310.834
310.557
310.468
310.289
310.306
310.404
307.618
307.595
307.431
307.428
307.556
307.654
307.853
308.075
308.218
308.325
308.367
308.246
308.113
308.018
307.783
307.577
307.508
307.383
307.377
307.456
304.582
304.585
304.476
304.453
304.551
304.594
304.735
304.848
304.916
305.015
305.035
304.956
304.892
304.835
304.692
304.562
304.496
304.455
304.441
304.495
301.542
301.539
301.503
301.489
301.521
301.538
301.599
301.617
301.645
301.681
301.683
301.663
301.638
301.615
301.577
301.534
301.507
301.499
301.491
301.506
323.201
322.901
322.609
322.621
322.844
323.288
323.799
324.541
324.987
325.127
325.29
325.06
324.677
324.103
323.333
322.815
322.364
322.073
322.077
322.217
320.128
319.919
319.645
319.655
319.863
320.247
320.709
321.351
321.766
321.857
322.024
321.814
321.491
321.018
320.336
319.908
319.542
319.288
319.295
319.422
317.039
316.904
316.648
316.649
316.853
317.163
317.582
318.133
318.502
318.556
318.721
318.528
318.248
317.902
317.302
316.95
316.645
316.413
316.452
316.544
313.956
313.858
313.653
313.64
313.818
314.039
314.411
314.897
315.196
315.235
315.362
315.21
314.97
314.718
314.208
313.934
313.698
313.504
313.548
313.625
310.863
310.786
310.64
310.613
310.751
310.911
311.242
311.61
311.83
311.852
311.974
311.85
311.655
311.49
311.099
310.895
310.716
310.538
310.596
310.652
307.784
307.741
307.602
307.61
307.675
307.79
308.04
308.31
308.455
308.447
308.551
308.473
308.331
308.231
307.948
307.814
307.682
307.55
307.595
307.646
304.684
304.648
304.572
304.575
304.621
304.667
304.846
304.997
305.071
305.052
305.153
305.079
305.003
304.925
304.779
304.69
304.629
304.558
304.559
304.602
301.578
301.56
301.525
301.531
301.544
301.569
301.633
301.684
301.695
301.692
301.73
301.71
301.676
301.649
301.587
301.577
301.564
301.536
301.528
301.548
323.77
323.476
323.062
323.182
323.453
323.918
324.476
325.029
325.602
325.783
325.982
325.745
325.296
324.737
324.006
323.442
322.946
322.606
322.541
322.824
320.616
320.425
320.044
320.163
320.383
320.791
321.266
321.77
322.274
322.407
322.636
322.401
322.037
321.574
320.939
320.472
320.056
319.781
319.717
319.943
317.469
317.339
317.004
317.126
317.272
317.627
318.035
318.466
318.92
319.003
319.251
319.009
318.73
318.344
317.839
317.458
317.072
316.865
316.818
316.998
314.308
314.227
313.953
314.054
314.15
314.44
314.79
315.147
315.513
315.593
315.823
315.587
315.382
315.048
314.663
314.383
314.037
313.886
313.858
313.989
311.136
311.072
310.877
310.951
311.024
311.217
311.502
311.808
312.083
312.165
312.346
312.146
312.003
311.734
311.441
311.24
310.963
310.847
310.85
310.938
307.95
307.914
307.786
307.841
307.903
308.003
308.202
308.441
308.645
308.714
308.849
308.692
308.6
308.399
308.204
308.047
307.859
307.773
307.802
307.849
304.781
304.743
304.671
304.728
304.764
304.798
304.921
305.082
305.215
305.243
305.328
305.216
305.156
305.053
304.948
304.851
304.737
304.672
304.711
304.73
301.608
301.589
301.559
301.59
301.605
301.603
301.657
301.708
301.746
301.752
301.79
301.742
301.718
301.689
301.662
301.63
301.587
301.573
301.578
301.592
324.407
324.077
323.733
323.837
324.046
324.635
325.149
325.598
326.097
326.344
326.567
326.508
326.002
325.47
324.762
324.073
323.449
323.183
323.189
323.343
321.185
320.913
320.601
320.721
320.893
321.428
321.871
322.261
322.716
322.903
323.111
323.089
322.649
322.212
321.612
321.015
320.476
320.248
320.28
320.394
317.964
317.729
317.45
317.596
317.705
318.173
318.553
318.892
319.299
319.435
319.627
319.619
319.243
318.884
318.396
317.892
317.443
317.25
317.293
317.381
314.729
314.517
314.294
314.437
314.506
314.896
315.203
315.504
315.869
315.936
316.118
316.117
315.798
315.506
315.125
314.71
314.33
314.199
314.237
314.303
311.474
311.309
311.14
311.245
311.306
311.6
311.847
312.102
312.382
312.448
312.577
312.579
312.312
312.087
311.81
311.47
311.187
311.099
311.13
311.187
308.206
308.095
307.973
308.029
308.115
308.29
308.474
308.682
308.871
308.908
309.01
309.007
308.82
308.654
308.469
308.219
308.027
307.969
307.984
308.03
304.934
304.868
304.781
304.814
304.898
304.99
305.089
305.237
305.334
305.352
305.429
305.411
305.307
305.188
305.087
304.956
304.828
304.796
304.795
304.839
301.662
301.628
301.6
301.611
301.646
301.663
301.705
301.755
301.796
301.789
301.81
301.819
301.778
301.732
301.707
301.656
301.62
301.616
301.613
301.63
325.089
324.709
324.426
324.477
324.67
325.241
325.687
326.168
326.633
327.019
327.126
327.131
326.683
326
325.463
324.71
324.079
323.865
323.851
324.041
321.792
321.481
321.227
321.262
321.448
321.958
322.363
322.762
323.161
323.526
323.611
323.616
323.255
322.667
322.206
321.559
321.025
320.852
320.834
320.979
318.47
318.224
318.013
318.047
318.203
318.626
319.015
319.31
319.667
319.983
320.057
320.068
319.78
319.282
318.905
318.349
317.91
317.746
317.746
317.844
315.127
314.936
314.789
314.818
314.935
315.287
315.602
315.847
316.134
316.412
316.442
316.48
316.242
315.839
315.533
315.08
314.734
314.6
314.611
314.676
311.773
311.648
311.527
311.549
311.629
311.899
312.169
312.357
312.576
312.785
312.808
312.855
312.68
312.34
312.112
311.785
311.509
311.39
311.442
311.453
308.402
308.345
308.244
308.262
308.334
308.511
308.699
308.853
309
309.153
309.173
309.209
309.081
308.83
308.671
308.447
308.262
308.155
308.228
308.179
305.044
305.011
304.961
304.971
305.016
305.105
305.224
305.338
305.423
305.504
305.51
305.537
305.464
305.296
305.209
305.096
304.964
304.904
304.968
304.916
301.702
301.688
301.665
301.665
301.682
301.704
301.745
301.787
301.822
301.84
301.851
301.845
301.846
301.769
301.735
301.706
301.67
301.64
301.681
301.65
325.685
325.319
325.102
325.101
325.346
325.883
326.345
326.771
327.263
327.51
327.662
327.638
327.234
326.535
326.024
325.362
324.761
324.476
324.37
324.717
322.287
321.989
321.809
321.833
322.036
322.517
322.93
323.277
323.726
323.924
324.054
324.06
323.718
323.119
322.705
322.142
321.624
321.338
321.311
321.601
318.887
318.642
318.498
318.524
318.7
319.111
319.45
319.751
320.15
320.308
320.412
320.413
320.148
319.652
319.328
318.82
318.406
318.157
318.174
318.409
315.467
315.271
315.177
315.201
315.344
315.673
315.942
316.184
316.543
316.643
316.75
316.74
316.535
316.123
315.878
315.44
315.13
314.947
314.96
315.144
312.024
311.892
311.85
311.847
311.975
312.225
312.415
312.608
312.906
312.966
313.052
313.03
312.898
312.558
312.399
312.037
311.824
311.684
311.707
311.831
308.572
308.495
308.477
308.488
308.577
308.75
308.876
309.021
309.247
309.28
309.335
309.305
309.232
308.967
308.865
308.611
308.469
308.378
308.392
308.483
305.149
305.102
305.105
305.106
305.179
305.263
305.335
305.414
305.58
305.582
305.616
305.603
305.551
305.386
305.313
305.175
305.082
305.032
305.06
305.096
301.731
301.709
301.713
301.711
301.732
301.766
301.783
301.808
301.878
301.886
301.875
301.874
301.859
301.806
301.79
301.733
301.71
301.684
301.695
301.697
326.441
326.07
325.78
325.875
326.075
326.563
326.913
327.429
327.924
328.019
328.37
328.223
327.753
327.041
326.502
325.829
325.459
325.104
325.029
325.353
322.981
322.653
322.401
322.494
322.669
323.11
323.438
323.875
324.317
324.372
324.699
324.584
324.184
323.556
323.13
322.542
322.233
321.933
321.869
322.156
319.465
319.214
318.998
319.089
319.231
319.631
319.914
320.262
320.655
320.693
320.959
320.908
320.556
320.035
319.681
319.162
318.924
318.685
318.644
318.87
315.934
315.767
315.591
315.65
315.753
316.124
316.328
316.608
316.947
316.967
317.204
317.193
316.888
316.452
316.184
315.732
315.55
315.362
315.36
315.537
312.397
312.317
312.163
312.181
312.274
312.569
312.702
312.947
313.199
313.206
313.425
313.431
313.19
312.832
312.646
312.273
312.125
312.002
311.996
312.173
308.862
308.828
308.712
308.704
308.789
308.987
309.088
309.278
309.447
309.422
309.621
309.652
309.435
309.175
309.066
308.787
308.659
308.609
308.577
308.742
305.348
305.322
305.248
305.223
305.278
305.407
305.457
305.576
305.68
305.647
305.811
305.814
305.678
305.507
305.47
305.3
305.22
305.185
305.137
305.281
301.801
301.797
301.765
301.758
301.763
301.814
301.828
301.863
301.902
301.893
301.953
301.952
301.906
301.845
301.849
301.776
301.759
301.739
301.717
301.774
326.962
326.827
326.424
326.608
326.912
327.21
327.523
328.034
328.385
328.588
328.937
328.684
328.345
327.652
327.027
326.498
326.022
325.696
325.546
325.843
323.427
323.302
322.979
323.143
323.391
323.698
323.975
324.389
324.691
324.885
325.21
325.004
324.713
324.077
323.571
323.123
322.705
322.45
322.313
322.562
319.881
319.766
319.495
319.626
319.857
320.143
320.377
320.709
320.969
321.131
321.415
321.261
321.009
320.441
320.05
319.671
319.34
319.108
319.017
319.199
316.288
316.22
315.987
316.102
316.279
316.548
316.727
316.979
317.232
317.334
317.586
317.475
317.251
316.77
316.472
316.141
315.902
315.722
315.67
315.776
312.679
312.647
312.466
312.551
312.679
312.916
313.044
313.245
313.451
313.499
313.726
313.645
313.441
313.065
312.846
312.58
312.414
312.282
312.257
312.306
309.076
309.054
308.911
308.986
309.079
309.252
309.331
309.472
309.622
309.657
309.832
309.782
309.613
309.346
309.194
309.004
308.895
308.795
308.8
308.821
305.452
305.449
305.359
305.396
305.47
305.572
305.603
305.681
305.777
305.805
305.935
305.884
305.777
305.625
305.532
305.405
305.345
305.292
305.296
305.301
301.829
301.827
301.802
301.801
301.841
301.876
301.878
301.898
301.939
301.953
301.993
301.971
301.934
301.887
301.852
301.811
301.787
301.769
301.778
301.779
327.719
327.459
327.227
327.374
327.434
327.836
328.06
328.49
328.799
329.166
329.306
329.147
328.732
328.051
327.705
327.11
326.651
326.3
326.394
326.593
324.092
323.866
323.691
323.824
323.877
324.233
324.404
324.807
325.07
325.395
325.52
325.399
325.057
324.459
324.178
323.696
323.256
323.008
323.049
323.246
320.433
320.253
320.127
320.224
320.266
320.592
320.703
321.067
321.31
321.565
321.676
321.6
321.304
320.822
320.569
320.186
319.792
319.606
319.633
319.787
316.749
316.617
316.519
316.591
316.624
316.905
316.993
317.288
317.491
317.684
317.775
317.731
317.486
317.101
316.897
316.618
316.258
316.122
316.172
316.259
313.045
312.95
312.871
312.917
312.972
313.176
313.276
313.472
313.656
313.8
313.848
313.817
313.62
313.353
313.189
312.979
312.684
312.599
312.629
312.681
309.331
309.28
309.185
309.226
309.279
309.432
309.517
309.642
309.766
309.913
309.902
309.878
309.726
309.581
309.442
309.29
309.081
309.032
309.046
309.104
305.604
305.576
305.503
305.525
305.572
305.669
305.735
305.805
305.857
305.982
305.947
305.941
305.841
305.765
305.671
305.59
305.445
305.43
305.44
305.476
301.884
301.873
301.841
301.852
301.873
301.902
301.924
301.949
301.967
302.013
301.986
301.997
301.96
301.939
301.903
301.876
301.824
301.819
301.834
301.831
328.425
328.223
327.95
328.031
328.133
328.421
328.612
328.859
329.244
329.548
329.758
329.544
329.097
328.554
328.17
327.626
327.188
326.92
327.036
327.28
324.682
324.552
324.299
324.379
324.457
324.724
324.909
325.129
325.442
325.727
325.924
325.724
325.36
324.874
324.585
324.111
323.713
323.489
323.606
323.827
320.91
320.833
320.61
320.687
320.775
321.016
321.161
321.339
321.584
321.86
322.021
321.859
321.567
321.127
320.92
320.528
320.175
319.987
320.108
320.265
317.132
317.063
316.911
316.955
317.052
317.258
317.357
317.529
317.715
317.925
318.067
317.937
317.723
317.332
317.208
316.868
316.593
316.439
316.544
316.673
313.321
313.286
313.17
313.225
313.306
313.467
313.523
313.669
313.813
313.946
314.069
313.976
313.826
313.513
313.444
313.146
312.967
312.858
312.912
313.009
309.512
309.503
309.406
309.466
309.539
309.638
309.674
309.81
309.88
309.997
310.065
310.013
309.904
309.671
309.616
309.408
309.291
309.221
309.243
309.302
305.697
305.718
305.647
305.698
305.722
305.805
305.828
305.906
305.944
305.994
306.048
306.03
305.954
305.819
305.774
305.663
305.569
305.551
305.567
305.58
301.908
301.912
301.887
301.915
301.921
301.945
301.972
301.982
302.004
302.002
302.03
302.021
301.994
301.947
301.946
301.904
301.871
301.853
301.867
301.868
329.204
328.889
328.738
328.65
328.774
328.954
329.154
329.452
329.752
329.968
329.966
329.824
329.437
328.994
328.635
328.212
327.774
327.617
327.643
327.887
325.371
325.111
324.985
324.925
325.041
325.202
325.383
325.645
325.899
326.096
326.105
325.974
325.64
325.287
324.981
324.601
324.204
324.097
324.145
324.325
321.509
321.298
321.194
321.155
321.25
321.418
321.552
321.776
321.998
322.177
322.193
322.076
321.771
321.506
321.253
320.922
320.602
320.486
320.554
320.687
317.625
317.463
317.389
317.33
317.423
317.606
317.675
317.868
318.055
318.226
318.212
318.122
317.871
317.661
317.465
317.176
316.947
316.82
316.882
317
313.725
313.624
313.551
313.478
313.578
313.731
313.774
313.945
314.076
314.201
314.209
314.114
313.933
313.777
313.627
313.412
313.276
313.132
313.181
313.274
309.816
309.751
309.676
309.647
309.726
309.845
309.875
310.008
310.062
310.174
310.158
310.094
309.954
309.863
309.751
309.602
309.539
309.417
309.452
309.505
305.885
305.856
305.813
305.799
305.846
305.921
305.94
306.015
306.056
306.125
306.077
306.069
305.983
305.944
305.864
305.77
305.742
305.679
305.689
305.714
301.97
301.96
301.944
301.95
301.963
301.983
301.995
302.004
302.04
302.062
302.036
302.035
302.005
301.994
301.965
301.928
301.926
301.904
301.905
301.919
329.977
329.639
329.498
329.364
329.359
329.473
329.641
330.058
330.259
330.399
330.409
330.209
329.894
329.624
329.21
328.769
328.42
328.265
328.353
328.426
326.046
325.785
325.643
325.54
325.538
325.626
325.789
326.165
326.358
326.484
326.485
326.33
326.054
325.811
325.486
325.102
324.831
324.665
324.762
324.825
322.061
321.886
321.744
321.658
321.69
321.764
321.922
322.201
322.37
322.499
322.514
322.38
322.167
321.954
321.683
321.353
321.158
321.008
321.079
321.143
318.089
317.939
317.84
317.756
317.793
317.859
318.015
318.237
318.343
318.452
318.465
318.336
318.22
318.048
317.82
317.534
317.389
317.271
317.328
317.401
314.082
313.97
313.911
313.838
313.871
313.934
314.067
314.244
314.287
314.397
314.387
314.295
314.235
314.119
313.937
313.7
313.579
313.478
313.514
313.6
310.075
310.003
309.95
309.9
309.92
309.985
310.078
310.21
310.223
310.325
310.28
310.227
310.209
310.131
310.005
309.822
309.752
309.646
309.683
309.741
306.062
306.032
305.972
305.948
305.969
306.007
306.084
306.142
306.141
306.216
306.17
306.136
306.143
306.102
306.019
305.917
305.871
305.783
305.845
305.875
302.033
302.032
302.006
302.001
302.014
302.023
302.035
302.065
302.071
302.093
302.066
302.055
302.055
302.049
302.024
301.983
301.968
301.943
301.958
301.974
330.778
330.383
330.137
330.068
329.976
330.093
330.229
330.576
330.683
330.894
330.798
330.623
330.356
330.093
329.711
329.33
329.016
328.798
329.002
329.041
326.764
326.423
326.212
326.147
326.107
326.164
326.298
326.618
326.736
326.925
326.854
326.702
326.46
326.251
325.932
325.591
325.342
325.172
325.319
325.348
322.704
322.425
322.265
322.206
322.187
322.194
322.353
322.62
322.729
322.9
322.837
322.706
322.494
322.345
322.066
321.778
321.545
321.445
321.552
321.59
318.611
318.372
318.248
318.206
318.221
318.189
318.352
318.581
318.658
318.817
318.752
318.649
318.472
318.375
318.137
317.886
317.701
317.628
317.711
317.75
314.49
314.293
314.214
314.181
314.177
314.144
314.327
314.495
314.536
314.697
314.635
314.544
314.395
314.364
314.168
313.984
313.826
313.753
313.85
313.881
310.359
310.231
310.183
310.134
310.123
310.094
310.276
310.38
310.399
310.526
310.49
310.395
310.296
310.297
310.142
310.032
309.908
309.862
309.948
309.975
306.217
306.154
306.117
306.09
306.074
306.064
306.178
306.234
306.244
306.33
306.315
306.247
306.192
306.195
306.1
306.046
305.95
305.944
305.997
306.016
302.074
302.068
302.047
302.038
302.042
302.037
302.071
302.091
302.092
302.125
302.112
302.097
302.08
302.083
302.051
302.022
301.992
301.996
302.015
302.017
331.395
331.101
330.828
330.657
330.544
330.658
330.813
331
331.255
331.346
331.224
331.086
330.839
330.512
330.069
329.753
329.548
329.47
329.532
329.722
327.261
327.059
326.823
326.691
326.577
326.688
326.809
327.013
327.224
327.302
327.209
327.098
326.885
326.605
326.222
325.942
325.789
325.717
325.793
325.945
323.096
322.955
322.752
322.67
322.571
322.665
322.748
322.939
323.134
323.205
323.146
323.034
322.871
322.615
322.325
322.046
321.941
321.876
321.967
322.108
318.952
318.837
318.64
318.618
318.512
318.593
318.664
318.811
319.005
319.047
319.033
318.908
318.819
318.569
318.332
318.124
318.035
317.977
318.062
318.185
314.787
314.673
314.521
314.522
314.426
314.489
314.535
314.65
314.815
314.864
314.855
314.717
314.684
314.496
314.3
314.143
314.07
314.059
314.107
314.194
310.594
310.489
310.384
310.402
310.34
310.372
310.41
310.487
310.596
310.656
310.647
310.525
310.506
310.382
310.234
310.141
310.097
310.064
310.117
310.165
306.388
306.316
306.241
306.247
306.211
306.23
306.268
306.319
306.36
306.405
306.435
306.315
306.308
306.24
306.161
306.113
306.082
306.057
306.117
306.105
302.144
302.119
302.089
302.092
302.087
302.088
302.107
302.116
302.123
302.143
302.157
302.117
302.105
302.092
302.078
302.046
302.044
302.035
302.056
302.043
331.895
331.677
331.393
331.284
331.161
331.139
331.186
331.463
331.747
331.599
331.566
331.419
331.247
330.917
330.522
330.224
330.08
330.073
330.125
330.321
327.689
327.537
327.288
327.206
327.104
327.097
327.136
327.382
327.662
327.529
327.495
327.368
327.227
326.95
326.616
326.353
326.233
326.25
326.264
326.456
323.453
323.362
323.143
323.085
322.988
322.99
323.028
323.252
323.504
323.401
323.375
323.276
323.147
322.914
322.636
322.412
322.318
322.342
322.362
322.502
319.206
319.152
318.995
318.938
318.855
318.866
318.887
319.105
319.315
319.239
319.204
319.116
319.021
318.811
318.611
318.421
318.343
318.38
318.381
318.483
314.972
314.924
314.797
314.756
314.711
314.72
314.714
314.907
315.066
315.008
314.992
314.927
314.828
314.681
314.538
314.386
314.306
314.353
314.337
314.412
310.694
310.675
310.587
310.529
310.53
310.538
310.534
310.688
310.785
310.738
310.742
310.69
310.597
310.487
310.41
310.321
310.24
310.281
310.269
310.318
306.431
306.404
306.364
306.319
306.345
306.339
306.339
306.435
306.472
306.455
306.465
306.429
306.359
306.309
306.268
306.219
306.157
306.185
306.159
306.213
302.158
302.14
302.14
302.113
302.131
302.125
302.131
302.148
302.162
302.162
302.178
302.16
302.135
302.121
302.099
302.087
302.065
302.08
302.066
302.095
332.537
332.222
331.673
331.754
331.462
331.493
331.634
331.758
331.971
331.892
331.879
331.704
331.542
331.175
330.928
330.601
330.282
330.436
330.461
330.693
328.257
327.98
327.489
327.607
327.356
327.358
327.507
327.641
327.835
327.754
327.745
327.627
327.488
327.143
326.971
326.672
326.379
326.544
326.55
326.73
323.951
323.713
323.3
323.455
323.224
323.205
323.332
323.465
323.641
323.577
323.578
323.483
323.368
323.065
322.946
322.666
322.423
322.55
322.575
322.7
319.599
319.408
319.096
319.251
319.056
319.019
319.128
319.238
319.412
319.362
319.374
319.29
319.198
318.951
318.844
318.601
318.436
318.501
318.541
318.631
315.264
315.091
314.854
315.021
314.859
314.79
314.906
314.988
315.167
315.12
315.141
315.052
314.978
314.793
314.689
314.51
314.374
314.448
314.447
314.506
310.91
310.771
310.609
310.734
310.62
310.566
310.657
310.725
310.878
310.832
310.871
310.791
310.736
310.581
310.506
310.387
310.288
310.364
310.316
310.366
306.555
306.462
306.37
306.44
306.378
306.347
306.407
306.458
306.545
306.518
306.541
306.496
306.462
306.363
306.317
306.252
306.183
306.223
306.192
306.248
302.204
302.171
302.128
302.161
302.136
302.119
302.147
302.177
302.198
302.187
302.199
302.173
302.168
302.138
302.117
302.102
302.078
302.082
302.077
302.108
)
;

boundaryField
{
    hotSide
    {
        type            fixedGradient;
        gradient        nonuniform List<scalar> 
400
(
230.093
230.468
232.103
234.958
238.902
243.748
249.292
255.353
261.78
268.455
275.295
282.238
289.248
296.306
303.406
310.558
317.779
325.09
332.51
340.05
222.242
222.766
224.635
227.805
232.114
237.339
243.248
249.639
256.349
263.255
270.272
277.34
284.427
291.518
298.616
305.735
312.902
320.147
327.497
334.968
217.921
218.725
220.854
224.258
228.775
234.181
240.244
246.759
253.56
260.522
267.557
274.609
281.645
288.655
295.645
302.637
309.662
316.753
323.944
331.254
216.887
218.094
220.516
224.096
228.694
234.114
240.148
246.604
253.321
260.175
267.078
273.972
280.828
287.637
294.411
301.175
307.962
314.809
321.749
328.805
218.226
219.914
222.673
226.445
231.106
236.494
242.43
248.74
255.275
261.914
268.57
275.19
281.747
288.24
294.686
301.115
307.564
314.072
320.675
327.398
220.896
223.1
226.25
230.28
235.077
240.495
246.375
252.556
258.896
265.28
271.626
277.887
284.049
290.121
296.132
302.123
308.139
314.223
320.415
326.744
224.022
226.751
230.34
234.711
239.751
245.316
251.247
257.383
263.579
269.722
275.736
281.586
287.277
292.841
298.328
303.796
309.303
314.901
320.634
326.536
226.914
230.149
234.201
238.981
244.365
250.199
256.309
262.514
268.653
274.602
280.29
285.701
290.872
295.868
300.772
305.666
310.626
315.714
320.978
326.454
229.008
232.688
237.179
242.385
248.17
254.363
260.759
267.143
273.318
279.135
284.525
289.499
294.136
298.552
302.868
307.198
311.633
316.244
321.082
326.182
229.839
233.843
238.676
244.242
250.396
256.949
263.665
270.285
276.561
282.311
287.461
292.056
296.226
300.14
303.962
307.828
311.845
316.088
320.607
325.435
229.075
233.213
238.209
243.966
250.335
257.116
264.052
270.851
277.226
282.965
287.99
292.368
296.27
299.899
303.445
307.062
310.862
314.921
319.291
324
226.572
230.613
235.536
241.243
247.583
254.352
261.291
268.104
274.504
280.278
285.345
289.769
293.717
297.391
300.98
304.639
308.482
312.59
317.014
321.786
222.437
226.154
230.775
236.202
242.284
248.818
255.559
262.237
268.597
274.451
279.718
284.435
288.725
292.754
296.685
300.661
304.796
309.172
313.847
318.855
217.034
220.249
224.408
229.414
235.118
241.324
247.803
254.317
260.648
266.634
272.193
277.33
282.117
286.671
291.119
295.585
300.176
304.976
310.046
315.428
210.965
213.569
217.193
221.746
227.077
232.993
239.271
245.692
252.059
258.226
264.106
269.679
274.978
280.08
285.081
290.085
295.189
300.479
306.018
311.852
205.054
207.005
210.094
214.238
219.277
225.005
231.189
237.61
244.077
250.446
256.629
262.587
268.333
273.916
279.408
284.902
290.488
296.254
302.267
308.572
200.369
201.683
204.28
208.082
212.912
218.533
224.691
231.153
237.728
244.272
250.694
256.95
263.038
268.991
274.871
280.758
286.745
292.921
299.359
306.104
198.172
198.932
201.092
204.582
209.205
214.698
220.785
227.226
233.828
240.452
247.007
253.445
259.757
265.966
272.124
278.305
284.601
291.103
297.888
304.997
199.574
199.929
201.705
204.841
209.145
214.355
220.203
226.454
232.922
239.474
246.019
252.508
258.926
265.287
271.634
278.033
284.564
291.314
298.354
305.719
204.93
205.045
206.486
209.203
213.038
217.774
223.177
229.04
235.191
241.505
247.894
254.305
260.718
267.138
273.596
280.143
286.844
293.767
300.966
308.469
)
;
    }
    coldSide
    {
        type            mixed;
        refValue        uniform 300;
        refGradient     uniform 0;
        valueFraction   uniform 0.991591;
        source          uniform 0;
        value           nonuniform List<scalar> 
400
(
300.012
300.012
300.012
300.013
300.013
300.013
300.014
300.014
300.014
300.015
300.015
300.015
300.016
300.016
300.017
300.017
300.017
300.018
300.018
300.019
300.012
300.012
300.012
300.012
300.013
300.013
300.013
300.014
300.014
300.014
300.015
300.015
300.016
300.016
300.016
300.017
300.017