/*--------------------------------*- C++ -*----------------------------------*\
| =========                 |                                                 |
| \\      /  F ield         | OpenFOAM: The Open Source CFD Toolbox           |
|  \\    /   O peration     | Version:  2212                                  |
|   \\  /    A nd           | Website:  www.openfoam.com                      |
|    \\/     M anipulation  |                                                 |
\*---------------------------------------------------------------------------*/
FoamFile
{
    version     2.0;
    format      ascii;
    arch        "LSB;label=32;scalar=64";
    class       volScalarField;
    location    "0";
    object      T;
}
// * * * * * * * * * * * * * * * * * * * * * * * * * * * * * * * * * * * * * //

dimensions      [0 0 0 1 0 0 0];

internalField   nonuniform List<scalar> 
3200
(
341.833
342.735
343.848
344.621
345.021
345.868
346.198
346.713
346.735
346.979
346.855
346.638
346.201
345.777
345.074
344.509
343.475
342.6
341.543
340.239
336.337
337.122
338.113
338.787
339.106
339.85
340.188
340.611
340.619
340.837
340.746
340.586
340.228
339.803
339.187
338.681
337.792
337.095
336.164
335.016
330.832
331.477
332.333
332.896
333.135
333.802
334.105
334.515
334.458
334.61
334.613
334.501
334.15
333.77
333.211
332.792
332.039
331.477
330.739
329.771
325.309
325.814
326.496
326.988
327.178
327.676
328.035
328.287
328.23
328.356
328.388
328.306
328.04
327.678
327.217
326.868
326.282
325.807
325.235
324.443
319.75
320.086
320.607
321.058
321.179
321.534
321.87
322.03
321.975
322.066
322.117
322.05
321.834
321.568
321.181
320.936
320.482
320.116
319.688
319.051
314.154
314.386
314.719
315.053
315.187
315.398
315.666
315.781
315.68
315.809
315.81
315.757
315.618
315.425
315.207
315.009
314.667
314.404
314.131
313.657
308.53
308.667
308.84
309.033
309.138
309.272
309.453
309.463
309.424
309.5
309.5
309.473
309.386
309.295
309.152
309.047
308.794
308.655
308.526
308.226
302.875
302.901
302.975
303.039
303.091
303.133
303.168
303.154
303.167
303.206
303.203
303.181
303.149
303.114
303.073
303.03
302.976
302.903
302.856
302.765
342.69
343.533
344.443
345.338
346.042
346.734
346.9
347.366
347.848
347.753
347.652
347.431
346.952
346.545
345.865
345.058
344.209
343.204
342.014
341.254
337.047
337.811
338.56
339.374
339.94
340.559
340.701
341.152
341.522
341.458
341.337
341.158
340.777
340.412
339.808
339.126
338.388
337.558
336.522
335.84
331.386
332.055
332.689
333.343
333.838
334.366
334.517
334.906
335.16
335.085
335.045
334.895
334.591
334.256
333.732
333.166
332.545
331.886
330.976
330.397
325.694
326.278
326.743
327.316
327.696
328.107
328.309
328.628
328.778
328.726
328.719
328.585
328.344
328.065
327.655
327.187
326.668
326.155
325.412
324.868
320.024
320.457
320.824
321.302
321.566
321.842
322.098
322.339
322.395
322.379
322.375
322.263
322.094
321.892
321.535
321.231
320.733
320.364
319.808
319.363
314.345
314.61
314.907
315.24
315.425
315.596
315.841
316.021
316.041
316.002
315.992
315.894
315.801
315.629
315.383
315.2
314.785
314.604
314.204
313.839
308.621
308.789
308.973
309.202
309.271
309.35
309.515
309.669
309.675
309.622
309.603
309.57
309.487
309.388
309.206
309.13
308.87
308.787
308.537
308.342
302.901
302.95
303.009
303.091
303.108
303.122
303.197
303.276
303.248
303.216
303.231
303.237
303.179
303.134
303.091
303.063
302.987
302.957
302.873
302.809
343.813
344.654
345.436
346.262
346.945
347.691
348.109
348.495
348.844
348.752
348.755
348.342
348.104
347.711
347.059
346.196
345.208
344.124
342.981
342.268
338.055
338.743
339.436
340.162
340.693
341.359
341.717
342.129
342.365
342.314
342.281
341.961
341.756
341.444
340.856
340.073
339.197
338.311
337.315
336.703
332.246
332.84
333.409
334.033
334.459
335.032
335.36
335.729
335.925
335.844
335.795
335.552
335.43
335.162
334.64
333.905
333.182
332.506
331.593
331.099
326.461
326.905
327.351
327.899
328.203
328.727
328.962
329.279
329.452
329.328
329.248
329.12
329.021
328.844
328.346
327.709
327.186
326.679
325.9
325.463
320.665
320.958
321.262
321.749
321.936
322.363
322.586
322.756
322.937
322.809
322.706
322.659
322.576
322.466
322.064
321.549
321.192
320.802
320.187
319.794
314.802
314.962
315.194
315.514
315.701
315.994
316.188
316.268
316.415
316.283
316.201
316.207
316.127
316.052
315.772
315.43
315.17
314.882
314.459
314.144
308.926
308.986
309.101
309.296
309.456
309.641
309.744
309.77
309.86
309.777
309.714
309.74
309.665
309.634
309.459
309.291
309.113
308.925
308.713
308.51
302.975
303.018
303.043
303.111
303.183
303.235
303.253
303.28
303.312
303.272
303.245
303.252
303.238
303.237
303.188
303.114
303.051
302.981
302.913
302.856
344.825
345.544
346.461
347.53
348.234
348.903
349.206
349.793
350.005
350.005
349.738
349.466
349.263
348.934
348.206
347.26
346.452
345.059
344.101
343.178
338.894
339.545
340.328
341.226
341.831
342.429
342.664
343.211
343.397
343.39
343.128
342.891
342.755
342.527
341.826
341.036
340.28
339.147
338.345
337.52
332.924
333.513
334.142
334.921
335.43
335.937
336.147
336.55
336.783
336.762
336.532
336.355
336.233
336.034
335.431
334.781
334.17
333.205
332.521
331.839
326.957
327.409
327.968
328.58
329.041
329.479
329.612
329.906
330.113
330.088
329.922
329.784
329.71
329.52
329.032
328.498
328.008
327.241
326.67
326.115
321.016
321.332
321.749
322.267
322.603
322.942
323.035
323.28
323.457
323.432
323.289
323.214
323.133
322.978
322.627
322.194
321.786
321.263
320.769
320.316
315.075
315.266
315.558
315.968
316.157
316.388
316.472
316.635
316.773
316.757
316.658
316.583
316.56
316.388
316.248
315.889
315.563
315.244
314.86
314.526
309.105
309.175
309.33
309.598
309.713
309.851
309.907
310.014
310.101
310.066
309.967
309.953
309.957
309.849
309.775
309.544
309.329
309.169
308.933
308.705
303.052
303.071
303.107
303.227
303.288
303.278
303.312
303.34
303.389
303.372
303.325
303.333
303.341
303.317
303.267
303.206
303.128
303.084
302.992
302.898
345.867
346.655
347.585
348.578
349.401
350.15
350.457
350.875
351.266
351.115
351.139
350.793
350.479
349.868
349.119
348.294
347.313
346.192
344.916
344.132
339.84
340.496
341.277
342.18
342.879
343.492
343.771
344.165
344.523
344.34
344.371
344.062
343.799
343.3
342.675
341.97
341.079
340.097
338.989
338.348
333.808
334.305
334.96
335.754
336.327
336.796
337.054
337.418
337.739
337.511
337.551
337.317
337.099
336.709
336.163
335.637
334.845
333.976
333.07
332.522
327.7
328.114
328.652
329.274
329.744
330.072
330.31
330.664
330.936
330.694
330.742
330.588
330.391
330.12
329.632
329.229
328.555
327.828
327.124
326.654
321.568
321.862
322.301
322.808
323.179
323.378
323.568
323.857
324.05
323.852
323.902
323.856
323.645
323.454
323.087
322.734
322.224
321.633
321.142
320.774
315.411
315.61
315.945
316.3
316.572
316.695
316.846
317.06
317.196
317.002
317.079
317.031
316.896
316.782
316.541
316.257
315.911
315.459
315.117
314.884
309.236
309.366
309.583
309.801
309.968
310.031
310.132
310.253
310.347
310.19
310.247
310.207
310.163
310.088
309.928
309.777
309.564
309.305
309.062
308.952
303.112
303.14
303.217
303.278
303.345
303.356
303.4
303.424
303.465
303.423
303.44
303.417
303.409
303.392
303.33
303.284
303.234
303.117
303.036
303.014
346.846
347.75
348.726
349.718
350.481
351.271
351.782
352.032
352.122
352.387
352.3
351.961
351.532
351.017
350.281
349.452
348.246
346.973
346.258
345.214
340.659
341.436
342.259
343.157
343.779
344.505
344.908
345.157
345.253
345.444
345.425
345.141
344.682
344.324
343.674
342.933
341.875
340.767
340.203
339.289
334.424
335.066
335.784
336.563
337.08
337.663
338.041
338.242
338.315
338.458
338.497
338.25
337.838
337.571
337.053
336.389
335.485
334.518
334.096
333.283
328.217
328.713
329.311
329.908
330.398
330.812
331.136
331.311
331.369
331.446
331.545
331.354
331.004
330.779
330.416
329.803
329.041
328.27
327.928
327.232
321.984
322.361
322.824
323.265
323.66
323.965
324.221
324.409
324.405
324.468
324.542
324.411
324.14
323.965
323.733
323.177
322.632
322.02
321.752
321.181
315.744
316.029
316.302
316.586
316.942
317.138
317.294
317.507
317.426
317.528
317.553
317.498
317.294
317.134
316.984
316.539
316.157
315.749
315.548
315.152
309.479
309.66
309.824
309.98
310.196
310.313
310.379
310.512
310.469
310.581
310.577
310.492
310.417
310.3
310.217
309.956
309.682
309.47
309.356
309.082
303.171
303.26
303.296
303.361
303.416
303.461
303.466
303.527
303.497
303.568
303.545
303.508
303.502
303.436
303.433
303.311
303.237
303.18
303.126
303.051
347.718
348.598
349.67
350.669
351.473
352.28
352.753
353.087
353.285
353.208
353.284
352.95
352.534
351.972
351.253
350.22
349.123
348.136
347.096
346.099
341.452
342.158
343.073
343.933
344.721
345.354
345.773
346.063
346.228
346.193
346.254
345.9
345.565
345.1
344.506
343.594
342.678
341.751
340.875
340.077
335.105
335.705
336.467
337.18
337.901
338.394
338.756
338.997
339.175
339.147
339.205
338.875
338.558
338.183
337.753
336.944
336.19
335.316
334.619
333.983
328.746
329.25
329.889
330.419
331.038
331.425
331.737
331.948
332.065
332.067
332.096
331.872
331.568
331.264
330.961
330.283
329.615
328.847
328.361
327.831
322.417
322.769
323.28
323.65
324.204
324.426
324.735
324.901
324.974
324.923
324.979
324.851
324.612
324.349
324.085
323.593
323.064
322.433
322.078
321.676
316.06
316.282
316.648
316.898
317.306
317.482
317.663
317.794
317.816
317.781
317.865
317.767
317.619
317.417
317.218
316.887
316.467
315.997
315.766
315.532
309.659
309.801
310.023
310.142
310.397
310.48
310.585
310.657
310.662
310.665
310.747
310.677
310.581
310.46
310.34
310.137
309.88
309.56
309.462
309.353
303.239
303.297
303.359
303.391
303.468
303.53
303.554
303.577
303.577
303.551
303.588
303.578
303.53
303.512
303.467
303.407
303.299
303.2
303.187
303.132
348.633
349.528
350.583
351.795
352.455
353.241
353.717
354.079
354.193
354.398
354.4
353.831
353.35
352.938
352.023
351.101
350.061
349.053
347.771
346.795
342.211
342.942
343.87
344.934
345.552
346.16
346.6
346.914
347.042
347.219
347.215
346.713
346.315
345.927
345.178
344.399
343.417
342.576
341.467
340.631
335.783
336.375
337.17
338.083
338.612
339.083
339.462
339.725
339.837
340.009
339.997
339.596
339.258
338.93
338.306
337.641
336.767
336.052
335.131
334.448
329.309
329.82
330.428
331.199
331.636
331.986
332.35
332.476
332.661
332.748
332.714
332.417
332.17
331.89
331.369
330.841
330.127
329.527
328.804
328.268
322.782
323.229
323.627
324.269
324.659
324.882
325.181
325.264
325.401
325.443
325.473
325.228
325.024
324.827
324.402
324.002
323.464
322.967
322.392
322.01
316.216
316.596
316.897
317.316
317.609
317.796
318.009
318.081
318.157
318.151
318.258
318.022
317.861
317.755
317.47
317.17
316.789
316.424
316.043
315.764
309.743
309.93
310.127
310.403
310.572
310.67
310.813
310.856
310.94
310.908
310.98
310.799
310.719
310.682
310.498
310.325
310.089
309.842
309.632
309.465
303.264
303.34
303.376
303.474
303.555
303.583
303.613
303.633
303.67
303.661
303.67
303.612
303.588
303.585
303.521
303.457
303.382
303.288
303.231
303.18
349.425
350.507
351.464
352.62
353.409
353.948
354.53
355.087
355.263
355.278
355.337
354.792
354.443
353.676
352.907
352.187
350.973
349.857
348.543
347.59
342.914
343.838
344.653
345.688
346.34
346.806
347.284
347.793
347.928
347.972
347.998
347.532
347.245
346.616
345.944
345.257
344.203
343.235
342.176
341.353
336.384
337.141
337.851
338.747
339.249
339.627
340.071
340.475
340.59
340.651
340.655
340.273
340.021
339.482
338.911
338.342
337.424
336.64
335.769
335.08
329.79
330.417
330.971
331.711
332.18
332.486
332.851
333.124
333.203
333.278
333.293
333.026
332.751
332.315
331.854
331.41
330.628
330.003
329.292
328.758
323.143
323.667
324.079
324.629
325.045
325.28
325.587
325.749
325.829
325.907
325.896
325.712
325.475
325.177
324.749
324.441
323.862
323.348
322.805
322.397
316.553
316.917
317.199
317.63
317.916
318.096
318.31
318.376
318.468
318.522
318.516
318.392
318.193
318.013
317.65
317.448
317.069
316.705
316.314
316.018
309.947
310.104
310.305
310.6
310.749
310.905
310.999
311.022
311.096
311.125
311.094
311.051
310.927
310.853
310.59
310.474
310.252
310.024
309.806
309.644
303.353
303.386
303.437
303.547
303.616
303.638
303.692
303.684
303.716
303.72
303.706
303.69
303.644
303.645
303.563
303.513
303.439
303.364
303.292
303.212
350.182
351.327
352.28
353.25
354.169
354.873
355.33
355.915
356.042
355.977
356.081
355.691
355.292
354.411
353.766
352.94
351.706
350.738
349.454
348.355
343.545
344.535
345.328
346.149
346.97
347.627
347.992
348.523
348.584
348.513
348.649
348.273
347.999
347.232
346.636
345.96
344.916
344.05
342.943
341.985
336.885
337.741
338.351
339.064
339.722
340.32
340.609
341.117
341.129
341.009
341.199
340.84
340.641
339.959
339.5
338.934
338.034
337.289
336.406
335.626
330.165
330.938
331.385
331.983
332.488
333
333.2
333.706
333.66
333.557
333.716
333.418
333.264
332.71
332.326
331.917
331.129
330.545
329.836
329.199
323.442
324.078
324.414
324.891
325.267
325.668
325.851
326.219
326.212
326.097
326.272
326.006
325.925
325.476
325.209
324.816
324.23
323.798
323.268
322.722
316.746
317.198
317.434
317.809
318.074
318.373
318.513
318.759
318.757
318.676
318.766
318.593
318.57
318.218
318.086
317.712
317.304
317.015
316.687
316.203
310.076
310.341
310.485
310.695
310.881
311.022
311.128
311.28
311.278
311.233
311.254
311.184
311.146
310.915
310.868
310.634
310.411
310.248
310.095
309.732
303.388
303.473
303.545
303.596
303.66
303.686
303.735
303.768
303.775
303.774
303.776
303.743
303.748
303.667
303.636
303.557
303.498
303.431
303.401
303.25
350.708
351.698
353.103
354.165
354.755
355.416
355.981
356.556
356.619
356.678
356.644
356.345
355.819
355.18
354.525
353.633
352.602
351.449
350.097
348.833
344.008
344.847
346.073
346.992
347.532
348.006
348.568
349.024
349.089
349.171
349.159
348.889
348.452
347.896
347.288
346.567
345.677
344.683
343.464
342.426
337.262
338.008
339.008
339.718
340.263
340.632
341.152
341.561
341.573
341.635
341.637
341.41
341.063
340.575
340.036
339.483
338.724
337.914
336.798
335.982
330.524
331.14
331.979
332.487
333.034
333.259
333.707
334.055
334.039
334.114
334.102
333.931
333.651
333.221
332.784
332.373
331.69
331.079
330.132
329.523
323.756
324.222
324.928
325.29
325.732
325.854
326.26
326.518
326.493
326.516
326.538
326.44
326.213
325.891
325.531
325.199
324.662
324.231
323.455
323.019
316.983
317.3
317.813
318.108
318.386
318.487
318.819
318.949
318.959
318.964
318.972
318.932
318.76
318.523
318.226
318.003
317.613
317.315
316.774
316.453
310.207
310.406
310.708
310.93
311.086
311.113
311.294
311.369
311.394
311.418
311.391
311.409
311.247
311.09
310.953
310.81
310.587
310.371
310.069
309.88
303.427
303.496
303.573
303.671
303.726
303.732
303.791
303.822
303.81
303.806
303.819
303.854
303.778
303.713
303.686
303.627
303.546
303.461
303.37
303.291
351.441
352.223
353.508
354.722
355.292
355.949
356.662
357.196
357.277
357.521
357.116
356.9
356.586
355.883
355.098
354.327
353.339
352.164
350.981
349.469
344.599
345.331
346.429
347.437
347.942
348.523
349.122
349.643
349.677
349.897
349.54
349.4
349.124
348.465
347.773
347.174
346.296
345.298
344.283
342.943
337.768
338.402
339.381
340.129
340.567
341.071
341.553
342.127
342.065
342.275
341.964
341.884
341.631
341.053
340.419
339.999
339.201
338.39
337.525
336.375
330.91
331.424
332.287
332.825
333.204
333.615
333.978
334.538
334.44
334.66
334.366
334.374
334.083
333.63
333.074
332.776
332.108
331.458
330.753
329.785
324.047
324.427
325.17
325.569
325.796
326.166
326.415
326.895
326.827
326.979
326.769
326.77
326.513
326.178
325.705
325.5
324.989
324.506
323.925
323.181
317.216
317.446
317.998
318.282
318.421
318.705
318.886
319.264
319.217
319.275
319.166
319.134
318.961
318.713
318.372
318.249
317.882
317.495
317.068
316.573
310.373
310.483
310.802
311.025
311.062
311.233
311.338
311.589
311.571
311.615
311.515
311.502
311.39
311.218
311.025
310.981
310.789
310.515
310.241
309.98
303.498
303.522
303.629
303.719
303.719
303.759
303.787
303.885
303.895
303.915
303.853
303.856
303.817
303.742
303.716
303.677
303.643
303.53
303.457
303.36
352.045
352.777
354.095
355.223
356.159
356.596
357.301
357.716
357.846
358.023
357.858
357.582
357.098
356.357
355.566
354.779
353.862
352.528
351.296
349.925
345.158
345.726
346.875
347.832
348.687
349.054
349.687
350.059
350.163
350.368
350.198
349.962
349.524
348.912
348.239
347.537
346.767
345.593
344.551
343.365
338.295
338.692
339.641
340.446
341.185
341.508
342.041
342.377
342.477
342.706
342.494
342.315
341.91
341.444
340.882
340.314
339.644
338.65
337.801
336.751
331.418
331.639
332.422
333.124
333.692
334.005
334.414
334.675
334.743
335.012
334.814
334.638
334.369
333.954
333.52
333.015
332.486
331.646
330.942
330.108
324.499
324.651
325.238
325.812
326.2
326.488
326.772
326.983
326.964
327.273
327.104
326.971
326.792
326.468
326.16
325.704
325.319
324.663
324.076
323.458
317.549
317.66
318.084
318.444
318.7
318.959
319.086
319.282
319.262
319.512
319.367
319.299
319.148
318.949
318.703
318.373
318.129
317.657
317.21
316.74
310.571
310.646
310.889
311.109
311.221
311.386
311.453
311.571
311.56
311.75
311.658
311.619
311.486
311.399
311.233
311.054
310.917
310.623
310.325
310.062
303.541
303.581
303.658
303.733
303.752
303.817
303.836
303.862
303.876
303.94
303.908
303.908
303.862
303.824
303.763
303.699
303.665
303.561
303.455
303.379
352.332
353.285
354.409
355.44
356.521
357.055
357.882
358.167
358.416
358.472
358.325
358.135
357.683
356.897
356.072
355.121
354.089
352.816
351.603
350.147
345.399
346.208
347.155
348.085
349.012
349.5
350.23
350.418
350.637
350.72
350.596
350.362
350.026
349.339
348.648
347.846
346.978
345.837
344.766
343.538
338.46
339.096
339.953
340.706
341.488
341.929
342.555
342.679
342.879
342.955
342.839
342.577
342.341
341.778
341.189
340.55
339.828
338.85
337.961
336.921
331.556
331.974
332.708
333.313
333.976
334.338
334.899
334.95
335.084
335.21
335.062
334.851
334.64
334.216
333.74
333.207
332.602
331.874
331.083
330.257
324.561
324.879
325.449
325.981
326.421
326.737
327.171
327.189
327.33
327.449
327.282
327.087
326.968
326.601
326.3
325.835
325.374
324.855
324.188
323.548
317.579
317.809
318.202
318.583
318.87
319.094
319.448
319.437
319.512
319.669
319.534
319.364
319.272
318.981
318.782
318.436
318.169
317.776
317.289
316.838
310.552
310.676
310.937
311.177
311.348
311.465
311.72
311.688
311.68
311.853
311.739
311.632
311.59
311.407
311.288
311.065
310.907
310.713
310.409
310.126
303.534
303.594
303.655
303.74
303.816
303.846
303.929
303.904
303.9
303.974
303.949
303.908
303.89
303.825
303.782
303.717
303.644
303.602
303.489
303.386
352.266
353.792
354.789
355.881
356.984
357.628
358.353
358.61
358.947
358.622
358.569
358.43
357.869
357.306
356.395
355.432
354.463
353.12
351.689
350.557
345.353
346.63
347.512
348.452
349.426
350.014
350.666
350.82
351.098
350.862
350.816
350.673
350.192
349.704
348.939
348.065
347.272
346.136
344.877
343.896
338.425
339.512
340.211
341.068
341.836
342.359
342.971
343.037
343.234
343.083
343.084
342.904
342.467
342.092
341.452
340.749
340.054
339.079
338.051
337.238
331.526
332.357
332.951
333.576
334.214
334.67
335.221
335.23
335.384
335.258
335.314
335.119
334.753
334.467
333.978
333.432
332.794
331.997
331.192
330.517
324.573
325.156
325.669
326.114
326.613
327.01
327.422
327.407
327.525
327.445
327.552
327.315
327.053
326.81
326.459
326.078
325.539
324.93
324.282
323.782
317.568
317.973
318.38
318.649
318.994
319.322
319.568
319.613
319.687
319.642
319.693
319.508
319.316
319.161
318.89
318.657
318.296
317.849
317.381
317.02
310.567
310.8
311.074
311.217
311.451
311.62
311.735
311.775
311.819
311.817
311.813
311.682
311.602
311.499
311.318
311.239
311.013
310.729
310.43
310.23
303.546
303.615
303.728
303.751
303.854
303.895
303.923
303.953
303.986
303.963
303.932
303.925
303.886
303.817
303.766
303.77
303.692
303.6
303.48
303.434
352.703
353.91
355.102
356.347
357.331
358.145
358.706
358.923
359.278
358.927
358.793
358.652
358.118
357.606
356.881
355.809
354.554
353.413
351.938
350.657
345.761
346.747
347.784
348.833
349.725
350.465
350.902
351.076
351.424
351.084
351.013
350.876
350.434
349.992
349.325
348.39
347.316
346.334
345.038
343.995
338.792
339.62
340.496
341.344
342.135
342.737
343.066
343.237
343.515
343.241
343.247
343.064
342.668
342.367
341.736
340.997
340.049
339.243
338.132
337.307
331.768
332.41
333.184
333.837
334.529
335.027
335.269
335.402
335.561
335.377
335.468
335.288
334.941
334.738
334.15
333.606
332.759
332.165
331.209
330.615
324.732
325.225
325.789
326.347
326.904
327.27
327.462
327.547
327.625
327.467
327.629
327.511
327.2
327.076
326.593
326.179
325.488
325.041
324.306
323.864
317.655
318.004
318.392
318.84
319.22
319.521
319.631
319.695
319.741
319.573
319.741
319.693
319.445
319.369
319.03
318.715
318.22
317.936
317.372
317.06
310.6
310.797
311.051
311.318
311.574
311.726
311.808
311.825
311.854
311.747
311.835
311.854
311.703
311.653
311.428
311.271
310.927
310.799
310.438
310.245
303.543
303.608
303.708
303.792
303.888
303.946
303.948
303.977
303.965
303.932
303.971
303.998
303.933
303.931
303.832
303.793
303.658
303.627
303.488
303.444
353.009
354.078
355.261
356.369
357.441
358.415
358.805
359.138
359.178
359.337
359.001
359.065
358.678
357.862
357.007
356.044
354.88
353.469
352.158
350.641
346.019
346.881
347.935
348.88
349.834
350.709
351.037
351.277
351.325
351.42
351.195
351.236
350.915
350.214
349.453
348.633
347.614
346.415
345.238
343.954
338.944
339.686
340.608
341.382
342.215
342.928
343.24
343.416
343.451
343.52
343.333
343.373
343.09
342.537
341.909
341.15
340.304
339.341
338.279
337.242
331.863
332.46
333.225
333.868
334.61
335.139
335.421
335.543
335.547
335.579
335.431
335.501
335.246
334.85
334.311
333.687
333.011
332.206
331.329
330.497
324.764
325.277
325.818
326.366
326.96
327.337
327.575
327.668
327.644
327.657
327.553
327.633
327.416
327.117
326.687
326.241
325.689
325.087
324.391
323.727
317.694
318.064
318.474
318.863
319.269
319.55
319.729
319.793
319.744
319.767
319.677
319.767
319.603
319.372
319.055
318.759
318.395
317.947
317.427
316.958
310.615
310.866
311.14
311.357
311.571
311.762
311.872
311.868
311.866
311.88
311.813
311.872
311.776
311.637
311.413
311.271
311.045
310.751
310.443
310.174
303.557
303.642
303.743
303.803
303.858
303.947
303.993
303.974
303.976
303.972
303.972
303.951
303.936
303.871
303.81
303.778
303.706
303.638
303.508
303.425
353.171
354.117
355.338
356.656
357.737
358.421
359.006
359.156
359.332
359.407
359.271
358.966
358.715
358.176
357.078
355.973
354.914
353.586
352.252
350.797
346.101
346.888
347.996
349.163
350.087
350.66
351.197
351.262
351.443
351.552
351.379
351.191
350.961
350.544
349.535
348.594
347.651
346.531
345.373
344.069
339.063
339.647
340.626
341.644
342.362
342.902
343.366
343.344
343.553
343.627
343.503
343.346
343.137
342.858
341.982
341.188
340.354
339.4
338.471
337.324
332.022
332.478
333.278
334.13
334.636
335.116
335.526
335.452
335.677
335.729
335.587
335.486
335.27
335.09
334.403
333.756
333.026
332.273
331.531
330.532
324.921
325.278
325.897
326.59
326.963
327.362
327.633
327.572
327.805
327.78
327.691
327.635
327.426
327.326
326.798
326.346
325.668
325.102
324.551
323.739
317.821
318.075
318.506
319.013
319.252
319.577
319.722
319.681
319.921
319.838
319.787
319.779
319.556
319.533
319.135
318.83
318.369
317.93
317.549
316.967
310.706
310.861
311.106
311.455
311.565
311.769
311.832
311.794
311.977
311.917
311.878
311.905
311.756
311.742
311.497
311.317
311.023
310.756
310.503
310.192
303.564
303.632
303.718
303.844
303.866
303.954
303.963
303.946
304.017
303.991
303.976
304.005
303.942
303.93
303.848
303.797
303.685
303.588
303.503
303.412
353.083
354.105
355.26
356.487
357.386
357.912
358.993
359.066
359.215
359.454
359.528
359.077
358.34
358.074
357.144
356.114
354.843
353.552
352.343
350.983
346.056
346.913
347.935
348.963
349.705
350.177
351.18
351.22
351.387
351.565
351.633
351.238
350.63
350.412
349.576
348.716
347.555
346.442
345.428
344.252
339.008
339.7
340.646
341.45
342.073
342.476
343.336
343.421
343.516
343.666
343.734
343.42
342.941
342.718
341.993
341.273
340.27
339.305
338.505
337.496
331.952
332.504
333.335
333.938
334.41
334.783
335.486
335.578
335.625
335.805
335.775
335.543
335.178
335.002
334.386
333.791
332.966
332.167
331.518
330.717
324.889
325.321
325.935
326.421
326.744
327.069
327.588
327.682
327.756
327.889
327.836
327.655
327.422
327.26
326.767
326.271
325.637
325.005
324.543
323.912
317.801
318.148
318.515
318.873
319.08
319.35
319.7
319.779
319.847
319.948
319.908
319.784
319.618
319.506
319.163
318.761
318.283
317.837
317.552
317.115
310.696
310.929
311.109
311.332
311.474
311.623
311.817
311.879
311.927
311.994
311.962
311.87
311.799
311.705
311.512
311.245
310.971
310.714
310.523
310.296
303.602
303.657
303.712
303.799
303.848
303.894
303.952
303.971
303.977
304.018
304.018
303.966
303.966
303.923
303.856
303.772
303.704
303.594
303.55
303.45
352.926
354.134
355.235
356.405
357.216
358.037
358.673
358.844
359.118
359.449
359.368
358.966
358.461
357.824
356.982
355.916
354.759
353.371
352.2
351.081
345.922
346.96
347.9
348.896
349.593
350.304
350.937
351.054
351.29
351.546
351.53
351.153
350.738
350.158
349.379
348.506
347.55
346.301
345.28
344.385
338.896
339.731
340.518
341.396
341.947
342.587
343.195
343.263
343.448
343.621
343.69
343.297
342.956
342.489
341.817
341.076
340.312
339.223
338.383
337.635
331.854
332.527
333.183
333.891
334.276
334.911
335.421
335.438
335.597
335.688
335.799
335.392
335.125
334.807
334.195
333.631
333.034
332.135
331.456
330.902
324.775
325.352
325.831
326.373
326.643
327.227
327.599
327.597
327.738
327.764
327.906
327.534
327.292
327.115
326.67
326.174
325.675
325.038
324.476
324.098
317.702
318.14
318.439
318.875
319.019
319.476
319.712
319.716
319.811
319.845
319.94
319.687
319.48
319.342
319.074
318.688
318.345
317.919
317.538
317.255
310.622
310.934
311.062
311.35
311.397
311.711
311.817
311.806
311.913
311.93
311.988
311.801
311.669
311.602
311.438
311.189
311.01
310.745
310.546
310.366
303.56
303.664
303.699
303.802
303.816
303.943
303.936
303.95
303.985
303.996
304.019
303.954
303.924
303.891
303.835
303.748
303.683
303.617
303.526
303.466
)
;

boundaryField
{
    hotSide
    {
        type            fixedGradient;
        gradient        nonuniform List<scalar> 
400
(
432.719
445.44
457.757
469.617
480.964
491.746
501.912
511.412
520.198
528.228
535.46
541.857
547.385
552.015
555.722
558.484
560.288
561.121
560.979
559.86
443.855
456.914
469.561
481.739
493.392
504.467
514.909
524.669
533.698
541.952
549.387
555.966
561.654
566.421
570.24
573.091
574.959
575.83
575.701
574.57
453.764
467.125
480.065
492.526
504.452
515.786
526.475
536.467
545.712
554.165
561.782
568.523
574.354
579.242
583.163
586.094
588.018
588.925
588.808
587.666
462.385
476.008
489.202
501.91
514.072
525.632
536.535
546.729
556.162
564.788
572.562
579.445
585.4
590.395
594.404
597.405
599.379
600.317
600.21
599.06
469.667
483.51
496.919
509.833
522.195
533.945
545.029
555.392
564.984
573.755
581.663
588.665
594.724
599.81
603.893
606.952
608.969
609.933
609.836
608.678
475.571
489.592
503.173
516.254
528.775
540.679
551.908
562.408
572.127
581.016
589.03
596.128
602.272
607.43
611.573
614.679
616.731
617.715
617.626
616.462
480.068
494.222
507.933
521.139
533.781
545.8
557.138
567.74
577.555
586.532
594.627
601.796
608.004
613.215
617.404
620.545
622.622
623.621
623.538
622.369
483.14
497.382
511.179
524.469
537.191
549.285
560.696
571.366
581.244
590.279
598.427
605.644
611.892
617.14
621.357
624.521
626.614
627.624
627.543
626.371
484.777
499.063
512.902
526.233
538.994
551.125
562.571
573.274
583.182
592.245
600.418
607.657
613.926
619.19
623.42
626.595
628.695
629.708
629.627
628.452
484.982
499.266
513.103
526.432
539.191
551.32
562.763
573.464
583.37
592.431
600.601
607.838
614.104
619.365
623.593
626.765
628.862
629.873
629.79
628.612
483.761
498
511.792
525.076
537.792
549.88
561.284
571.948
581.818
590.847
598.987
606.196
612.438
617.677
621.887
625.044
627.129
628.131
628.043
626.863
481.134
495.282
508.985
522.184
534.817
546.826
558.154
568.746
578.549
587.515
595.598
602.756
608.951
614.151
618.326
621.455
623.519
624.507
624.41
623.229
477.125
491.139
504.712
517.784
530.295
542.187
553.403
563.89
573.595
582.469
590.468
597.55
603.678
608.819
612.946
616.035
618.069
619.035
618.928
617.747
471.766
485.604
499.005
511.911
524.262
536
547.071
557.419
566.995
575.75
583.64
590.623
596.663
601.728
605.791
608.828
610.823
611.764
611.644
610.462
465.096
478.717
491.908
504.61
516.764
528.314
539.205
549.384
558.801
567.41
575.165
582.027
587.96
592.933
596.917
599.892
601.84
602.75
602.615
601.434
457.162
470.529
483.471
495.932
507.854
519.182
529.862
539.842
549.073
557.509
565.107
571.827
577.634
582.498
586.392
589.293
591.187
592.061
591.909
590.731
448.018
461.093
473.751
485.937
497.594
508.668
519.107
528.859
537.878
546.118
553.536
560.095
565.759
570.499
574.289
577.109
578.941
579.775
579.605
578.43
437.725
450.473
462.814
474.692
486.053
496.843
507.013
516.512
525.294
533.315
540.533
546.912
552.417
557.021
560.696
563.424
565.189
565.979
565.791
564.622
426.349
438.739
450.731
462.272
473.308
483.788
493.663
502.884
511.407
519.187
526.187
532.369
537.702
542.156
545.707
548.336
550.028
550.772
550.564
549.403
413.966
425.969
437.584
448.759
459.444
469.589
479.145
488.067
496.31
503.832
510.596
516.567
521.713
526.007
529.425
531.949
533.563
534.26
534.032
532.88
)
;
    }
    coldSide
    {
        type            mixed;
        refValue        uniform 300;
        refGradient     uniform 0;
        valueFraction   uniform 0.991591;
        source          uniform 0;
        value           nonuniform List<scalar> 
400
(
300.024
300.024
300.025
300.026
300.026
300.027
300.027
300.027
300.028
300.028
300.029
300.029
300.03
300.03
300.03
300.03
300.03
300.03
300.03
300.03
300.024
300.025
300.025
300.026
300.026
300.027
300.028
300.028
300.028
300.029
300.029
300.03
300.03
300.03
300.03
300.03
300.031
300.031
300.031
300.031
300.025
300.025