/*--------------------------------*- C++ -*----------------------------------*\
| =========                 |                                                 |
| \\      /  F ield         | OpenFOAM: The Open Source CFD Toolbox           |
|  \\    /   O peration     | Version:  2212                                  |
|   \\  /    A nd           | Website:  www.openfoam.com                      |
|    \\/     M anipulation  |                                                 |
\*---------------------------------------------------------------------------*/
FoamFile
{
    version     2.0;
    format      ascii;
    arch        "LSB;label=32;scalar=64";
    class       volScalarField;
    location    "0";
    object      Ttrue;
}
// * * * * * * * * * * * * * * * * * * * * * * * * * * * * * * * * * * * * * //

dimensions      [0 0 0 1 0 0 0];

internalField   nonuniform List<scalar> 
3200
(
343.313
344.24
345.423
346.713
348.041
349.345
350.548
351.564
352.304
352.695
352.695
352.304
351.564
350.548
349.345
348.041
346.713
345.423
344.24
343.313
337.566
338.35
339.371
340.487
341.636
342.764
343.804
344.682
345.321
345.658
345.658
345.321
344.682
343.804
342.764
341.636
340.487
339.371
338.35
337.566
331.807
332.458
333.318
334.261
335.232
336.185
337.063
337.804
338.343
338.628
338.628
338.343
337.804
337.063
336.185
335.232
334.261
333.318
332.458
331.807
326.04
326.564
327.265
328.036
328.83
329.608
330.326
330.93
331.37
331.603
331.603
331.37
330.93
330.326
329.608
328.83
328.036
327.265
326.564
326.04
320.266
320.669
321.212
321.811
322.428
323.033
323.59
324.06
324.402
324.582
324.582
324.402
324.06
323.59
323.033
322.428
321.811
321.212
320.669
320.266
314.487
314.772
315.159
315.586
316.027
316.459
316.857
317.192
317.436
317.565
317.565
317.436
317.192
316.857
316.459
316.027
315.586
315.159
314.772
314.487
308.703
308.873
309.106
309.362
309.627
309.886
310.125
310.326
310.473
310.55
310.55
310.473
310.326
310.125
309.886
309.627
309.362
309.106
308.873
308.703
302.918
302.975
303.052
303.138
303.227
303.314
303.394
303.461
303.51
303.536
303.536
303.51
303.461
303.394
303.314
303.227
303.138
303.052
302.975
302.918
343.423
344.342
345.515
346.793
348.107
349.397
350.586
351.589
352.319
352.705
352.705
352.319
351.589
350.586
349.397
348.107
346.793
345.515
344.342
343.423
337.66
338.438
339.45
340.555
341.693
342.809
343.837
344.703
345.334
345.667
345.667
345.334
344.703
343.837
342.809
341.693
340.555
339.45
338.438
337.66
331.887
332.533
333.385
334.319
335.281
336.223
337.091
337.823
338.355
338.636
338.636
338.355
337.823
337.091
336.223
335.281
334.319
333.385
332.533
331.887
326.105
326.625
327.32
328.083
328.869
329.639
330.348
330.946
331.38
331.609
331.609
331.38
330.946
330.348
329.639
328.869
328.083
327.32
326.625
326.105
320.317
320.716
321.255
321.848
322.459
323.057
323.608
324.072
324.409
324.587
324.587
324.409
324.072
323.608
323.057
322.459
321.848
321.255
320.716
320.317
314.523
314.805
315.189
315.613
316.049
316.477
316.87
317.201
317.442
317.569
317.569
317.442
317.201
316.87
316.477
316.049
315.613
315.189
314.805
314.523
308.725
308.894
309.124
309.378
309.64
309.897
310.133
310.331
310.476
310.552
310.552
310.476
310.331
310.133
309.897
309.64
309.378
309.124
308.894
308.725
302.925
302.981
303.058
303.144
303.231
303.317
303.397
303.463
303.512
303.537
303.537
303.512
303.463
303.397
303.317
303.231
303.144
303.058
302.981
302.925
343.642
344.547
345.7
346.954
348.242
349.503
350.665
351.644
352.356
352.731
352.731
352.356
351.644
350.665
349.503
348.242
346.954
345.7
344.547
343.642
337.85
338.616
339.61
340.695
341.81
342.901
343.906
344.751
345.366
345.691
345.691
345.366
344.751
343.906
342.901
341.81
340.695
339.61
338.616
337.85
332.047
332.682
333.52
334.437
335.379
336.301
337.15
337.864
338.382
338.656
338.656
338.382
337.864
337.15
336.301
335.379
334.437
333.52
332.682
332.047
326.236
326.748
327.431
328.18
328.95
329.704
330.397
330.979
331.403
331.626
331.626
331.403
330.979
330.397
329.704
328.95
328.18
327.431
326.748
326.236
320.418
320.811
321.341
321.923
322.522
323.107
323.646
324.098
324.427
324.601
324.601
324.427
324.098
323.646
323.107
322.522
321.923
321.341
320.811
320.418
314.595
314.873
315.251
315.667
316.094
316.512
316.897
317.22
317.454
317.578
317.578
317.454
317.22
316.897
316.512
316.094
315.667
315.251
314.873
314.595
308.768
308.934
309.161
309.41
309.667
309.918
310.149
310.343
310.484
310.558
310.558
310.484
310.343
310.149
309.918
309.667
309.41
309.161
308.934
308.768
302.94
302.995
303.071
303.154
303.241
303.325
303.402
303.467
303.514
303.539
303.539
303.514
303.467
303.402
303.325
303.241
303.154
303.071
302.995
302.94
343.973
344.857
345.981
347.201
348.451
349.672
350.794
351.738
352.423
352.784
352.784
352.423
351.738
350.794
349.672
348.451
347.201
345.981
344.857
343.973
338.136
338.884
339.854
340.909
341.991
343.048
344.018
344.833
345.425
345.737
345.737
345.425
344.833
344.018
343.048
341.991
340.909
339.854
338.884
338.136
332.289
332.909
333.726
334.618
335.532
336.425
337.245
337.933
338.433
338.696
338.696
338.433
337.933
337.245
336.425
335.532
334.618
333.726
332.909
332.289
326.433
326.933
327.599
328.328
329.075
329.805
330.475
331.037
331.445
331.66
331.66
331.445
331.037
330.475
329.805
329.075
328.328
327.599
326.933
326.433
320.571
320.955
321.472
322.038
322.619
323.186
323.707
324.143
324.46
324.627
324.627
324.46
324.143
323.707
323.186
322.619
322.038
321.472
320.955
320.571
314.705
314.976
315.344
315.749
316.164
316.569
316.94
317.252
317.478
317.597
317.597
317.478
317.252
316.94
316.569
316.164
315.749
315.344
314.976
314.705
308.834
308.996
309.217
309.46
309.709
309.952
310.175
310.362
310.498
310.569
310.569
310.498
310.362
310.175
309.952
309.709
309.46
309.217
308.996
308.834
302.962
303.016
303.09
303.171
303.255
303.336
303.411
303.473
303.519
303.543
303.543
303.519
303.473
303.411
303.336
303.255
303.171
303.09
303.016
302.962
344.419
345.276
346.363
347.539
348.741
349.911
350.984
351.883
352.535
352.878
352.878
352.535
351.883
350.984
349.911
348.741
347.539
346.363
345.276
344.419
338.521
339.247
340.184
341.202
342.242
343.255
344.183
344.96
345.523
345.82
345.82
345.523
344.96
344.183
343.255
342.242
341.202
340.184
339.247
338.521
332.614
333.216
334.006
334.866
335.745
336.601
337.385
338.041
338.517
338.767
338.767
338.517
338.041
337.385
336.601
335.745
334.866
334.006
333.216
332.614
326.699
327.183
327.827
328.53
329.249
329.949
330.589
331.125
331.514
331.718
331.718
331.514
331.125
330.589
329.949
329.249
328.53
327.827
327.183
326.699
320.778
321.15
321.649
322.196
322.754
323.298
323.796
324.212
324.514
324.673
324.673
324.514
324.212
323.796
323.298
322.754
322.196
321.649
321.15
320.778
314.852
315.115
315.471
315.861
316.26
316.649
317.004
317.301
317.517
317.63
317.63
317.517
317.301
317.004
316.649
316.26
315.861
315.471
315.115
314.852
308.923
309.08
309.293
309.527
309.767
310
310.214
310.392
310.521
310.589
310.589
310.521
310.392
310.214
310
309.767
309.527
309.293
309.08
308.923
302.991
303.044
303.115
303.194
303.274
303.352
303.424
303.483
303.527
303.549
303.549
303.527
303.483
303.424
303.352
303.274
303.194
303.115
303.044
302.991
344.984
345.808
346.852
347.976
349.122
350.233
351.247
352.096
352.709
353.032
353.032
352.709
352.096
351.247
350.233
349.122
347.976
346.852
345.808
344.984
339.009
339.707
340.607
341.58
342.572
343.534
344.412
345.145
345.675
345.954
345.954
345.675
345.145
344.412
343.534
342.572
341.58
340.607
339.707
339.009
333.026
333.605
334.363
335.186
336.024
336.837
337.579
338.198
338.646
338.881
338.881
338.646
338.198
337.579
336.837
336.024
335.186
334.363
333.605
333.026
327.035
327.501
328.119
328.792
329.477
330.142
330.748
331.254
331.62
331.812
331.812
331.62
331.254
330.748
330.142
329.477
328.792
328.119
327.501
327.035
321.039
321.397
321.876
322.399
322.932
323.448
323.92
324.313
324.597
324.746
324.746
324.597
324.313
323.92
323.448
322.932
322.399
321.876
321.397
321.039
315.038
315.291
315.633
316.007
316.387
316.756
317.093
317.373
317.576
317.683
317.683
317.576
317.373
317.093
316.756
316.387
316.007
315.633
315.291
315.038
309.034
309.185
309.391
309.615
309.843
310.065
310.267
310.435
310.557
310.621
310.621
310.557
310.435
310.267
310.065
309.843
309.615
309.391
309.185
309.034
303.029
303.079
303.148
303.223
303.3
303.374
303.441
303.498
303.539
303.56
303.56
303.539
303.498
303.441
303.374
303.3
303.223
303.148
303.079
303.029
345.67
346.458
347.453
348.52
349.602
350.648
351.6
352.392
352.964
353.264
353.264
352.964
352.392
351.6
350.648
349.602
348.52
347.453
346.458
345.67
339.602
340.27
341.127
342.051
342.988
343.894
344.717
345.403
345.897
346.156
346.156
345.897
345.403
344.717
343.894
342.988
342.051
341.127
340.27
339.602
333.527
334.08
334.803
335.584
336.376
337.142
337.837
338.416
338.834
339.053
339.053
338.834
338.416
337.837
337.142
336.376
335.584
334.803
334.08
333.527
327.444
327.89
328.479
329.117
329.765
330.391
330.96
331.433
331.774
331.953
331.953
331.774
331.433
330.96
330.391
329.765
329.117
328.479
327.89
327.444
321.357
321.699
322.156
322.652
323.156
323.642
324.084
324.452
324.717
324.856
324.856
324.717
324.452
324.084
323.642
323.156
322.652
322.156
321.699
321.357
315.265
315.507
315.833
316.187
316.547
316.895
317.21
317.473
317.662
317.761
317.761
317.662
317.473
317.21
316.895
316.547
316.187
315.833
315.507
315.265
309.17
309.315
309.51
309.723
309.939
310.148
310.337
310.495
310.609
310.668
310.668
310.609
310.495
310.337
310.148
309.939
309.723
309.51
309.315
309.17
303.074
303.123
303.188
303.259
303.332
303.402
303.465
303.518
303.556
303.576
303.576
303.556
303.518
303.465
303.402
303.332
303.259
303.188
303.123
303.074
346.483
347.232
348.173
349.179
350.194
351.171
352.055
352.79
353.318
353.594
353.594
353.318
352.79
352.055
351.171
350.194
349.179
348.173
347.232
346.483
340.305
340.939
341.75
342.621
343.501
344.346
345.112
345.747
346.204
346.443
346.443
346.204
345.747
345.112
344.346
343.501
342.621
341.75
340.939
340.305
334.12
334.645
335.329
336.066
336.809
337.524
338.171
338.708
339.094
339.296
339.296
339.094
338.708
338.171
337.524
336.809
336.066
335.329
334.645
334.12
327.929
328.352
328.91
329.511
330.12
330.704
331.233
331.672
331.988
332.153
332.153
331.988
331.672
331.233
330.704
330.12
329.511
328.91
328.352
327.929
321.733
322.058
322.49
322.958
323.431
323.886
324.297
324.638
324.883
325.012
325.012
324.883
324.638
324.297
323.886
323.431
322.958
322.49
322.058
321.733
315.534
315.763
316.072
316.406
316.744
317.069
317.362
317.606
317.781
317.873
317.873
317.781
317.606
317.362
317.069
316.744
316.406
316.072
315.763
315.534
309.332
309.469
309.654
309.854
310.057
310.252
310.429
310.575
310.68
310.735
310.735
310.68
310.575
310.429
310.252
310.057
309.854
309.654
309.469
309.332
303.128
303.174
303.236
303.303
303.371
303.437
303.496
303.545
303.58
303.598
303.598
303.58
303.545
303.496
303.437
303.371
303.303
303.236
303.174
303.128
347.426
348.134
349.019
349.961
350.907
351.812
352.629
353.304
353.788
354.041
354.041
353.788
353.304
352.629
351.812
350.907
349.961
349.019
348.134
347.426
341.12
341.719
342.483
343.298
344.118
344.902
345.609
346.193
346.612
346.831
346.831
346.612
346.193
345.609
344.902
344.118
343.298
342.483
341.719
341.12
334.808
335.305
335.948
336.638
337.331
337.994
338.592
339.086
339.44
339.625
339.625
339.44
339.086
338.592
337.994
337.331
336.638
335.948
335.305
334.808
328.491
328.891
329.416
329.979
330.546
331.089
331.577
331.981
332.27
332.422
332.422
332.27
331.981
331.577
331.089
330.546
329.979
329.416
328.891
328.491
322.17
322.477
322.884
323.322
323.763
324.185
324.565
324.879
325.103
325.221
325.221
325.103
324.879
324.565
324.185
323.763
323.322
322.884
322.477
322.17
315.845
316.063
316.353
316.666
316.981
317.282
317.554
317.778
317.938
318.022
318.022
317.938
317.778
317.554
317.282
316.981
316.666
316.353
316.063
315.845
309.519
309.648
309.823
310.01
310.2
310.381
310.544
310.678
310.775
310.825
310.825
310.775
310.678
310.544
310.381
310.2
310.01
309.823
309.648
309.519
303.191
303.234
303.293
303.356
303.419
303.48
303.534
303.579
303.612
303.629
303.629
303.612
303.579
303.534
303.48
303.419
303.356
303.293
303.234
303.191
348.505
349.169
349.998
350.875
351.751
352.585
353.334
353.95
354.391
354.621
354.621
354.391
353.95
353.334
352.585
351.751
350.875
349.998
349.169
348.505
342.053
342.615
343.33
344.089
344.848
345.571
346.219
346.753
347.135
347.334
347.334
347.135
346.753
346.219
345.571
344.848
344.089
343.33
342.615
342.053
335.596
336.062
336.664
337.306
337.948
338.56
339.108
339.559
339.882
340.05
340.05
339.882
339.559
339.108
338.56
337.948
337.306
336.664
336.062
335.596
329.134
329.51
330.001
330.526
331.051
331.551
331.999
332.369
332.632
332.77
332.77
332.632
332.369
331.999
331.551
331.051
330.526
330.001
329.51
329.134
322.669
322.958
323.339
323.747
324.155
324.544
324.893
325.18
325.385
325.492
325.492
325.385
325.18
324.893
324.544
324.155
323.747
323.339
322.958
322.669
316.202
316.406
316.678
316.969
317.261
317.539
317.788
317.993
318.139
318.216
318.216
318.139
317.993
317.788
317.539
317.261
316.969
316.678
316.406
316.202
309.733
309.855
310.018
310.193
310.368
310.535
310.684
310.808
310.895
310.941
310.941
310.895
310.808
310.684
310.535
310.368
310.193
310.018
309.855
309.733
303.263
303.303
303.358
303.417
303.475
303.531
303.581
303.623
303.652
303.668
303.668
303.652
303.623
303.581
303.531
303.475
303.417
303.358
303.303
303.263
349.722
350.344
351.115
351.927
352.734
353.499
354.182
354.742
355.141
355.348
355.348
355.141
354.742
354.182
353.499
352.734
351.927
351.115
350.344
349.722
343.106
343.632
344.297
345
345.7
346.362
346.954
347.439
347.784
347.964
347.964
347.784
347.439
346.954
346.362
345.7
345
344.297
343.632
343.106
336.485
336.921
337.482
338.076
338.668
339.229
339.729
340.139
340.431
340.583
340.583
340.431
340.139
339.729
339.229
338.668
338.076
337.482
336.921
336.485
329.861
330.212
330.669
331.155
331.639
332.098
332.507
332.843
333.081
333.206
333.206
333.081
332.843
332.507
332.098
331.639
331.155
330.669
330.212
329.861
323.234
323.503
323.858
324.236
324.613
324.969
325.288
325.549
325.734
325.831
325.831
325.734
325.549
325.288
324.969
324.613
324.236
323.858
323.503
323.234
316.605
316.796
317.049
317.319
317.588
317.843
318.07
318.256
318.389
318.458
318.458
318.389
318.256
318.07
317.843
317.588
317.319
317.049
316.796
316.605
309.975
310.089
310.24
310.403
310.564
310.717
310.854
310.966
311.045
311.087
311.087
311.045
310.966
310.854
310.717
310.564
310.403
310.24
310.089
309.975
303.344
303.382
303.433
303.487
303.541
303.592
303.638
303.676
303.702
303.716
303.716
303.702
303.676
303.638
303.592
303.541
303.487
303.433
303.382
303.344
351.083
351.662
352.377
353.126
353.866
354.563
355.183
355.689
356.049
356.235
356.235
356.049
355.689
355.183
354.563
353.866
353.126
352.377
351.662
351.083
344.282
344.772
345.389
346.037
346.679
347.283
347.82
348.259
348.57
348.732
348.732
348.57
348.259
347.82
347.283
346.679
346.037
345.389
344.772
344.282
337.479
337.885
338.405
338.953
339.496
340.007
340.462
340.833
341.096
341.233
341.233
341.096
340.833
340.462
340.007
339.496
338.953
338.405
337.885
337.479
330.673
330.999
331.423
331.872
332.316
332.735
333.106
333.41
333.625
333.737
333.737
333.625
333.41
333.106
332.735
332.316
331.872
331.423
330.999
330.673
323.865
324.116
324.444
324.793
325.139
325.464
325.753
325.989
326.157
326.244
326.244
326.157
325.989
325.753
325.464
325.139
324.793
324.444
324.116
323.865
317.055
317.233
317.467
317.717
317.964
318.196
318.403
318.571
318.691
318.753
318.753
318.691
318.571
318.403
318.196
317.964
317.717
317.467
317.233
317.055
310.245
310.351
310.492
310.641
310.79
310.929
311.054
311.155
311.227
311.264
311.264
311.227
311.155
311.054
310.929
310.79
310.641
310.492
310.351
310.245
303.434
303.47
303.517
303.567
303.617
303.664
303.705
303.739
303.763
303.776
303.776
303.763
303.739
303.705
303.664
303.617
303.567
303.517
303.47
303.434
352.59
353.127
353.787
354.475
355.151
355.785
356.345
356.801
357.124
357.291
357.291
357.124
356.801
356.345
355.785
355.151
354.475
353.787
353.127
352.59
345.585
346.04
346.609
347.205
347.791
348.341
348.826
349.221
349.501
349.646
349.646
349.501
349.221
348.826
348.341
347.791
347.205
346.609
346.04
345.585
338.579
338.956
339.436
339.94
340.436
340.901
341.312
341.646
341.883
342.005
342.005
341.883
341.646
341.312
340.901
340.436
339.94
339.436
338.956
338.579
331.572
331.875
332.266
332.679
333.085
333.465
333.801
334.075
334.268
334.369
334.369
334.268
334.075
333.801
333.465
333.085
332.679
332.266
331.875
331.572
324.563
324.796
325.1
325.42
325.736
326.032
326.294
326.506
326.657
326.735
326.735
326.657
326.506
326.294
326.032
325.736
325.42
325.1
324.796
324.563
317.554
317.719
317.936
318.164
318.39
318.602
318.789
318.941
319.048
319.104
319.104
319.048
318.941
318.789
318.602
318.39
318.164
317.936
317.719
317.554
310.545
310.643
310.773
310.91
311.046
311.173
311.285
311.377
311.441
311.475
311.475
311.441
311.377
311.285
311.173
311.046
310.91
310.773
310.643
310.545
303.535
303.568
303.611
303.657
303.703
303.745
303.783
303.813
303.835
303.846
303.846
303.835
303.813
303.783
303.745
303.703
303.657
303.611
303.568
303.535
354.245
354.742
355.349
355.979
356.595
357.169
357.674
358.083
358.372
358.522
358.522
358.372
358.083
357.674
357.169
356.595
355.979
355.349
354.742
354.245
347.017
347.437
347.961
348.507
349.04
349.538
349.976
350.331
350.581
350.711
350.711
350.581
350.331
349.976
349.538
349.04
348.507
347.961
347.437
347.017
339.788
340.136
340.578
341.04
341.492
341.913
342.284
342.584
342.796
342.905
342.905
342.796
342.584
342.284
341.913
341.492
341.04
340.578
340.136
339.788
332.559
332.84
333.2
333.578
333.947
334.292
334.595
334.841
335.014
335.104
335.104
335.014
334.841
334.595
334.292
333.947
333.578
333.2
332.84
332.559
325.331
325.546
325.825
326.119
326.407
326.675
326.911
327.102
327.237
327.307
327.307
327.237
327.102
326.911
326.675
326.407
326.119
325.825
325.546
325.331
318.102
318.254
318.454
318.663
318.869
319.061
319.229
319.366
319.462
319.512
319.512
319.462
319.366
319.229
319.061
318.869
318.663
318.454
318.254
318.102
310.873
310.964
311.084
311.21
311.333
311.449
311.55
311.632
311.69
311.72
311.72
311.69
311.632
311.55
311.449
311.333
311.21
311.084
310.964
310.873
303.645
303.675
303.715
303.758
303.799
303.838
303.872
303.899
303.918
303.928
303.928
303.918
303.899
303.872
303.838
303.799
303.758
303.715
303.675
303.645
356.047
356.505
357.063
357.638
358.198
358.717
359.171
359.538
359.796
359.929
359.929
359.796
359.538
359.171
358.717
358.198
357.638
357.063
356.505
356.047
348.575
348.962
349.444
349.942
350.427
350.877
351.271
351.589
351.812
351.928
351.928
351.812
351.589
351.271
350.877
350.427
349.942
349.444
348.962
348.575
341.104
341.425
341.831
342.252
342.663
343.044
343.377
343.646
343.836
343.933
343.933
343.836
343.646
343.377
343.044
342.663
342.252
341.831
341.425
341.104
333.634
333.893
334.223
334.568
334.904
335.216
335.489
335.709
335.864
335.944
335.944
335.864
335.709
335.489
335.216
334.904
334.568
334.223
333.893
333.634
326.166
326.364
326.621
326.889
327.15
327.393
327.605
327.777
327.897
327.96
327.96
327.897
327.777
327.605
327.393
327.15
326.889
326.621
326.364
326.166
318.698
318.838
319.021
319.213
319.4
319.573
319.725
319.848
319.934
319.978
319.978
319.934
319.848
319.725
319.573
319.4
319.213
319.021
318.838
318.698
311.231
311.315
311.425
311.54
311.652
311.756
311.848
311.921
311.973
312
312
311.973
311.921
311.848
311.756
311.652
311.54
311.425
311.315
311.231
303.765
303.793
303.83
303.868
303.906
303.941
303.971
303.996
304.013
304.022
304.022
304.013
303.996
303.971
303.941
303.906
303.868
303.83
303.793
303.765
357.991
358.412
358.923
359.448
359.955
360.423
360.832
361.16
361.39
361.509
361.509
361.39
361.16
360.832
360.423
359.955
359.448
358.923
358.412
357.991
350.254
350.611
351.052
351.506
351.946
352.352
352.706
352.991
353.19
353.293
353.293
353.19
352.991
352.706
352.352
351.946
351.506
351.052
350.611
350.254
342.521
342.816
343.188
343.573
343.945
344.289
344.589
344.83
344.999
345.086
345.086
344.999
344.83
344.589
344.289
343.945
343.573
343.188
342.816
342.521
334.791
335.029
335.332
335.646
335.951
336.233
336.478
336.675
336.814
336.885
336.885
336.814
336.675
336.478
336.233
335.951
335.646
335.332
335.029
334.791
327.064
327.246
327.482
327.726
327.964
328.183
328.374
328.527
328.635
328.69
328.69
328.635
328.527
328.374
328.183
327.964
327.726
327.482
327.246
327.064
319.339
319.468
319.636
319.811
319.98
320.137
320.273
320.383
320.46
320.5
320.5
320.46
320.383
320.273
320.137
319.98
319.811
319.636
319.468
319.339
311.616
311.693
311.794
311.898
312
312.094
312.176
312.242
312.289
312.312
312.312
312.289
312.242
312.176
312.094
312
311.898
311.794
311.693
311.616
303.894
303.919
303.953
303.988
304.022
304.054
304.081
304.104
304.119
304.127
304.127
304.119
304.104
304.081
304.054
304.022
303.988
303.953
303.919
303.894
360.056
360.443
360.911
361.389
361.848
362.271
362.637
362.931
363.137
363.242
363.242
363.137
362.931
362.637
362.271
361.848
361.389
360.911
360.443
360.056
352.035
352.362
352.766
353.18
353.579
353.946
354.264
354.518
354.697
354.788
354.788
354.697
354.518
354.264
353.946
353.579
353.18
352.766
352.362
352.035
344.021
344.293
344.633
344.984
345.321
345.632
345.901
346.117
346.268
346.345
346.345
346.268
346.117
345.901
345.632
345.321
344.984
344.633
344.293
344.021
336.014
336.233
336.51
336.797
337.073
337.328
337.548
337.725
337.848
337.912
337.912
337.848
337.725
337.548
337.328
337.073
336.797
336.51
336.233
336.014
328.012
328.18
328.396
328.619
328.834
329.032
329.203
329.341
329.437
329.487
329.487
329.437
329.341
329.203
329.032
328.834
328.619
328.396
328.18
328.012
320.015
320.134
320.288
320.447
320.601
320.742
320.865
320.963
321.032
321.068
321.068
321.032
320.963
320.865
320.742
320.601
320.447
320.288
320.134
320.015
312.021
312.092
312.184
312.28
312.373
312.458
312.531
312.59
312.632
312.653
312.653
312.632
312.59
312.531
312.458
312.373
312.28
312.184
312.092
312.021
304.029
304.053
304.084
304.116
304.147
304.176
304.2
304.22
304.234
304.241
304.241
304.234
304.22
304.2
304.176
304.147
304.116
304.084
304.053
304.029
362.188
362.545
362.973
363.409
363.827
364.209
364.539
364.802
364.986
365.081
365.081
364.986
364.802
364.539
364.209
363.827
363.409
362.973
362.545
362.188
353.865
354.167
354.537
354.915
355.278
355.609
355.896
356.125
356.284
356.366
356.366
356.284
356.125
355.896
355.609
355.278
354.915
354.537
354.167
353.865
345.557
345.807
346.119
346.439
346.747
347.027
347.27
347.464
347.599
347.669
347.669
347.599
347.464
347.27
347.027
346.747
346.439
346.119
345.807
345.557
337.262
337.463
337.718
337.98
338.231
338.461
338.66
338.819
338.93
338.987
338.987
338.93
338.819
338.66
338.461
338.231
337.98
337.718
337.463
337.262
328.977
329.132
329.329
329.533
329.729
329.908
330.063
330.187
330.273
330.318
330.318
330.273
330.187
330.063
329.908
329.729
329.533
329.329
329.132
328.977
320.701
320.811
320.952
321.098
321.238
321.366
321.477
321.565
321.627
321.658
321.658
321.627
321.565
321.477
321.366
321.238
321.098
320.952
320.811
320.701
312.432
312.497
312.582
312.67
312.754
312.831
312.897
312.951
312.988
313.007
313.007
312.988
312.951
312.897
312.831
312.754
312.67
312.582
312.497
312.432
304.167
304.189
304.217
304.246
304.275
304.301
304.323
304.341
304.353
304.36
304.36
304.353
304.341
304.323
304.301
304.275
304.246
304.217
304.189
304.167
364.251
364.58
364.976
365.376
365.758
366.106
366.406
366.644
366.81
366.896
366.896
366.81
366.644
366.406
366.106
365.758
365.376
364.976
364.58
364.251
355.615
355.894
356.235
356.583
356.915
357.218
357.478
357.686
357.83
357.904
357.904
357.83
357.686
357.478
357.218
356.915
356.583
356.235
355.894
355.615
347.009
347.24
347.529
347.824
348.105
348.362
348.583
348.759
348.882
348.945
348.945
348.882
348.759
348.583
348.362
348.105
347.824
347.529
347.24
347.009
338.43
338.616
338.852
339.093
339.324
339.535
339.716
339.861
339.961
340.013
340.013
339.961
339.861
339.716
339.535
339.324
339.093
338.852
338.616
338.43
329.874
330.017
330.2
330.388
330.568
330.732
330.874
330.986
331.064
331.105
331.105
331.064
330.986
330.874
330.732
330.568
330.388
330.2
330.017
329.874
321.335
321.437
321.568
321.702
321.831
321.948
322.049
322.13
322.186
322.215
322.215
322.186
322.13
322.049
321.948
321.831
321.702
321.568
321.437
321.335
312.81
312.871
312.949
313.03
313.108
313.178
313.239
313.288
313.321
313.339
313.339
313.321
313.288
313.239
313.178
313.108
313.03
312.949
312.871
312.81
304.293
304.314
304.34
304.367
304.393
304.417
304.437
304.453
304.465
304.47
304.47
304.465
304.453
304.437
304.417
304.393
304.367
304.34
304.314
304.293
365.877
366.187
366.559
366.934
367.292
367.616
367.895
368.117
368.271
368.349
368.349
368.271
368.117
367.895
367.616
367.292
366.934
366.559
366.187
365.877
356.941
357.204
357.526
357.854
358.165
358.448
358.692
358.885
359.019
359.088
359.088
359.019
358.885
358.692
358.448
358.165
357.854
357.526
357.204
356.941
348.075
348.294
348.567
348.845
349.11
349.351
349.558
349.723
349.837
349.896
349.896
349.837
349.723
349.558
349.351
349.11
348.845
348.567
348.294
348.075
339.267
339.444
339.667
339.895
340.113
340.311
340.481
340.616
340.71
340.758
340.758
340.71
340.616
340.481
340.311
340.113
339.895
339.667
339.444
339.267
330.504
330.64
330.813
330.991
331.161
331.316
331.449
331.554
331.628
331.665
331.665
331.628
331.554
331.449
331.316
331.161
330.991
330.813
330.64
330.504
321.775
321.871
321.995
322.123
322.245
322.355
322.451
322.526
322.579
322.606
322.606
322.579
322.526
322.451
322.355
322.245
322.123
321.995
321.871
321.775
313.07
313.128
313.202
313.279
313.352
313.419
313.476
313.522
313.553
313.569
313.569
313.553
313.522
313.476
313.419
313.352
313.279
313.202
313.128
313.07
304.38
304.399
304.424
304.45
304.474
304.497
304.516
304.531
304.542
304.547
304.547
304.542
304.531
304.516
304.497
304.474
304.45
304.424
304.399
304.38
)
;

boundaryField
{
    hotSide
    {
        type            fixedGradient;
        gradient        nonuniform List<scalar> 
400
(
458.816
460.017
462.429
466.07
470.969
477.16
484.682
493.578
503.893
515.671
528.956
543.787
560.202
578.235
597.915
619.267
642.312
667.066
693.544
721.756
471.011
472.116
474.338
477.703
482.249
488.02
495.068
503.45
513.223
524.443
537.164
551.436
567.305
584.809
603.982
624.854
647.447
671.778
697.863
725.711
484.209
485.198
487.194
490.232
494.359
499.637
506.132
513.916
523.064
533.645
545.727
559.37
574.628
591.547
610.166
630.516
652.621
676.502
702.17
729.635
498.191
499.046
500.779
503.437
507.082
511.793
517.656
524.765
533.21
543.079
554.455
567.409
582.004
598.294
616.321
636.119
657.715
681.125
706.364
733.438
512.566
513.27
514.709
516.941
520.049
524.131
529.3
535.67
543.353
552.458
563.081
575.307
589.208
604.845
622.263
641.499
662.578
685.517
710.328
737.014
526.735
527.278
528.401
530.18
532.718
536.139
540.579
546.18
553.078
561.399
571.257
582.751
595.96
610.95
627.771
646.459
667.039
689.526
713.929
740.25
539.887
540.268
541.077
542.406
544.38
547.149
550.877
555.731
561.87
569.441
578.574
589.376
601.938
616.329
632.599
650.786
670.913
692.993
717.031
743.025
551.049
551.284
551.811
552.735
554.205
556.393
559.49
563.686
569.162
576.082
584.587
594.798
606.808
620.691
636.499
654.267
674.018
695.761
719.499
745.226
559.218
559.341
559.651
560.267
561.352
563.101
565.722
569.423
574.403
580.837
588.879
598.653
610.26
623.773
639.245
656.711
676.191
697.694
721.217
746.755
563.546
563.609
563.801
564.249
565.126
566.636
568.999
572.434
577.147
583.322
591.117
600.659
612.052
625.369
640.664
657.972
677.311
698.687
722.1
747.539
563.546
563.609
563.801
564.249
565.126
566.636
568.999
572.434
577.147
583.322
591.117
600.659
612.052
625.369
640.664
657.972
677.311
698.687
722.1
747.539
559.218
559.341
559.651
560.267
561.352
563.101
565.722
569.423
574.403
580.837
588.879
598.653
610.26
623.773
639.245
656.711
676.191
697.694
721.217
746.755
551.049
551.284
551.811
552.735
554.205
556.393
559.49
563.686
569.162
576.082
584.587
594.798
606.808
620.691
636.499
654.267
674.018
695.761
719.499
745.226
539.887
540.268
541.077
542.406
544.38
547.149
550.877
555.731
561.87
569.441
578.574
589.376
601.938
616.329
632.599
650.786
670.913
692.993
717.031
743.025
526.735
527.278
528.401
530.18
532.718
536.139
540.579
546.18
553.078
561.399
571.257
582.751
595.96
610.95
627.771
646.459
667.039
689.526
713.929
740.25
512.566
513.27
514.709
516.941
520.049
524.131
529.3
535.67
543.353
552.458
563.081
575.307
589.208
604.845
622.263
641.499
662.578
685.517
710.328
737.014
498.191
499.046
500.779
503.437
507.082
511.793
517.656
524.765
533.21
543.079
554.455
567.409
582.004
598.294
616.321
636.119
657.715
681.125
706.364
733.438
484.209
485.198
487.194
490.232
494.359
499.637
506.132
513.916
523.064
533.645
545.727
559.37
574.628
591.547
610.166
630.516
652.621
676.502
702.17
729.635
471.011
472.116
474.338
477.703
482.249
488.02
495.068
503.45
513.223
524.443
537.164
551.436
567.305
584.809
603.982
624.854
647.447
671.778
697.863
725.711
458.816
460.017
462.429
466.07
470.969
477.16
484.682
493.578
503.893
515.671
528.956
543.787
560.202
578.235
597.915
619.267
642.312
667.066
693.544
721.756
)
;
    }
    coldSide
    {
        type            mixed;
        refValue        uniform 300;
        refGradient     uniform 0;
        valueFraction   uniform 0.991591;
        source          uniform 0;
        value           nonuniform List<scalar> 
400
(
300.025
300.025
300.025
300.025
300.025
300.025
300.026
300.026
300.027
300.027
300.028
300.029
300.03
300.031
300.032
300.033
300.034
300.035
300.036
300.037
300.025
300.025
300.025
300.025
300.026
300.026
300.026
300.027
300.027
300.028
300.028
300.029
300.03
300.031
300.032
300.033