/*--------------------------------*- C++ -*----------------------------------*\
| =========                 |                                                 |
| \\      /  F ield         | OpenFOAM: The Open Source CFD Toolbox           |
|  \\    /   O peration     | Version:  2212                                  |
|   \\  /    A nd           | Website:  www.openfoam.com                      |
|    \\/     M anipulation  |                                                 |
\*---------------------------------------------------------------------------*/
FoamFile
{
    version     2.0;
    format      ascii;
    arch        "LSB;label=32;scalar=64";
    class       volScalarField;
    location    "0";
    object      T;
}
// * * * * * * * * * * * * * * * * * * * * * * * * * * * * * * * * * * * * * //

dimensions      [0 0 0 1 0 0 0];

internalField   nonuniform List<scalar> 
3200
(
389.745
390.198
390.21
390.304
390.435
391.07
391.875
391.524
392.171
392.559
392.687
392.521
391.711
391.083
391.162
391.962
391.151
390.641
389.939
388.617
383.366
383.575
383.524
383.925
383.986
384.467
385.35
384.801
385.219
385.709
385.918
385.632
385.078
384.292
384.52
385.043
384.594
384.146
383.434
382.374
376.133
376.123
376.199
376.711
376.9
377.146
377.98
377.383
377.488
378.083
378.423
377.851
377.63
376.752
376.882
377.264
377.066
376.845
375.875
375.436
367.559
367.65
367.511
368.09
368.712
368.514
369.424
368.814
368.833
369.438
369.586
368.879
368.984
368.163
367.897
368.478
368.645
368.413
367.234
367.567
357.324
357.689
357.521
358.129
358.503
358.387
359.112
358.624
358.698
359.205
359.103
358.499
358.602
357.876
357.388
358.279
358.334
358.124
357.163
357.893
344.96
345.325
345.384
345.907
345.929
346.081
346.65
346.165
346.573
346.701
346.53
346.006
346.125
345.358
345.065
345.905
345.829
345.858
344.894
345.907
330.031
330.372
330.382
330.749
330.536
330.8
331.09
330.921
331.152
331.186
331.074
330.796
330.802
330.2
330.062
330.718
330.535
330.698
330.108
330.717
311.623
311.673
311.72
311.869
311.78
311.818
312.023
311.948
312.15
311.988
311.933
311.857
311.776
311.563
311.661
311.801
311.735
311.869
311.579
311.875
389.814
390.259
389.818
391.104
390.772
391.888
393.039
391.618
392.834
392.496
392.055
392.198
392.908
391.918
391.289
391.385
391.391
391.012
390.254
388.637
383.532
383.821
383.506
384.398
384.03
385.081
386.051
384.894
385.988
385.555
385.174
385.195
386.048
385.014
384.547
384.461
384.842
384.571
384.005
382.626
376.323
376.738
376.342
376.895
376.659
377.51
378.331
377.398
378.366
377.719
377.769
377.613
378.26
377.355
376.913
376.709
377.375
377.349
376.815
375.654
367.745
368.391
367.912
368.276
368.024
368.563
369.662
368.764
369.565
368.863
368.967
368.863
369.267
368.627
368.27
367.957
368.53
368.741
368.283
367.493
357.635
358.241
357.925
357.967
357.711
358.278
359.06
358.552
359.013
358.554
358.64
358.736
358.891
358.228
357.996
357.72
358.21
358.427
358.14
357.376
345.39
345.918
345.55
345.681
345.468
345.812
346.392
346.127
346.438
346.197
346.059
346.37
346.267
345.752
345.512
345.43
345.85
346.097
345.865
345.163
330.291
330.722
330.254
330.767
330.332
330.53
330.835
330.804
330.855
330.852
330.803
331
330.798
330.605
330.451
330.269
330.626
330.6
330.861
330.203
311.66
311.911
311.654
311.938
311.649
311.756
311.956
311.834
311.824
311.971
311.86
311.922
311.944
311.733
311.769
311.681
311.848
311.795
311.922
311.671
389.976
390.138
391.224
391.854
391.694
392.157
392.597
392.611
393.836
393.362
392.691
392.912
393.16
393.547
391.827
391.452
391.786
391.371
391.026
389.841
383.708
383.703
384.389
385.07
385.147
385.161
385.612
385.667
386.759
386.321
385.607
385.999
386.242
386.27
384.935
384.588
385.128
384.65
384.4
383.51
376.634
376.566
376.915
377.403
377.854
377.359
377.981
377.847
378.921
378.604
377.964
378.113
378.479
378.291
377.311
377.174
377.491
377.239
376.861
376.368
368.09
368.351
368.392
368.649
369.387
368.528
369.215
368.975
369.915
369.609
369.384
369.252
369.421
369.033
368.717
368.488
368.625
368.538
368.209
367.951
357.935
358.252
358.045
358.295
359.018
358.089
358.759
358.61
359.199
358.918
359.104
358.853
358.861
358.494
358.515
358.328
358.144
358.219
358.048
357.712
345.82
345.948
345.641
345.776
346.246
345.764
346.251
346.065
346.534
346.428
346.482
346.284
346.122
346.032
346.212
345.971
345.646
345.759
345.789
345.57
330.628
330.563
330.591
330.601
330.81
330.601
330.969
330.74
331.085
331.109
330.915
330.905
330.919
330.754
330.889
330.767
330.418
330.569
330.491
330.382
311.82
311.784
311.793
311.818
311.844
311.785
311.952
311.775
312.022
311.982
311.902
311.843
311.953
311.819
311.847
311.857
311.741
311.749
311.619
311.678
390.549
390.813
391.941
392.533
392.804
393.647
392.607
393.308
393.682
394.67
393.491
393.731
393
393.353
393.03
392.331
392.822
392.172
391.728
389.767
384.053
384.267
385.055
385.424
385.85
386.728
385.752
386.278
386.42
387.404
386.3
386.494
386.021
386.416
386.068
385.414
385.901
385.642
385.102
383.351
376.827
376.925
377.497
377.872
378.056
378.976
378.184
378.326
378.368
379.296
378.375
378.486
378.261
378.658
378.225
377.958
378.07
378.307
377.743
376.035
368.329
368.307
368.722
368.949
369.058
369.975
369.256
369.283
369.171
370.084
369.198
369.54
369.584
369.996
369.084
369.271
369.107
369.499
369.067
367.562
357.962
358.229
358.405
358.502
358.545
359.407
358.847
358.835
358.488
359.115
358.563
358.984
359.298
359.536
358.442
358.982
358.633
359.044
358.725
357.489
345.503
345.86
345.814
345.984
346.111
346.664
346.315
346.341
345.924
346.309
345.989
346.357
346.527
346.671
345.949
346.306
346.133
346.347
346.252
345.182
330.307
330.568
330.587
330.686
330.677
331.177
330.893
330.955
330.68
330.823
330.619
330.925
331.135
331.121
330.694
330.943
330.739
330.96
330.91
330.331
311.748
311.837
311.819
311.836
311.954
312.031
311.915
311.85
311.849
311.821
311.876
311.981
312.039
311.91
311.816
311.901
311.776
311.991
311.904
311.751
390.647
390.983
392.78
392.799
393.04
393.497
394.476
394.032
394.389
395.325
393.45
394.588
394.62
394.194
392.986
393.286
393.036
392.179
392.359
391.475
384.255
384.331
385.794
385.725
385.993
386.302
387.274
386.797
387.042
387.888
386.15
387.307
387.303
386.994
385.683
386.139
386.037
385.374
385.547
384.762
376.861
376.776
378.091
377.985
378.219
378.493
379.222
378.843
378.879
379.738
378.168
379.477
379.488
379.059
377.755
378.271
378.192
377.818
377.958
377.258
368.285
368.24
369.287
369.257
369.411
369.453
370.103
369.852
369.859
370.504
369.17
370.373
370.406
369.964
368.75
369.214
369.211
369.246
369.287
368.546
358.031
358.143
358.903
358.996
358.82
358.826
359.545
358.986
359.085
359.689
358.603
359.429
359.709
359.383
358.475
358.61
358.761
358.954
358.972
358.172
345.622
345.78
346.192
346.503
346.367
346.061
346.689
346.233
346.372
346.669
346.151
346.613
346.894
346.623
345.964
345.955
346.21
346.41
346.567
345.851
330.447
330.616
330.783
331.197
330.97
330.824
331.156
330.784
331.007
330.907
330.936
331.07
331.387
330.96
330.676
330.522
330.885
330.99
331.1
330.702
311.702
311.741
311.925
312.021
311.837
311.911
311.931
311.917
311.943
311.803
311.954
311.886
311.989
311.876
311.765
311.809
311.812
311.986
311.913
311.841
391.322
392.101
393.07
393.104
393.395
394.015
393.801
395.438
394.917
395.363
393.913
394.742
394.299
394.144
393.003
393.365
392.671
392.679
392.242
391.335
384.669
385.164
385.968
386.023
386.158
386.619
386.51
388.139
387.299
387.911
386.527
387.267
386.866
386.893
385.766
386.34
385.703
385.84
385.47
384.703
377.226
377.408
378.32
378.244
378.319
378.67
378.568
379.915
378.977
379.614
378.341
379.344
378.932
379.124
378.036
378.358
378.115
378.254
377.851
377.195
368.518
368.704
369.514
369.351
369.536
369.835
369.44
370.708
369.836
370.416
369.26
370.295
369.96
370.1
369.086
369.371
369.405
369.429
369.285
368.484
358.102
358.488
359.188
358.949
359.168
359.25
358.869
359.859
359.245
359.57
358.768
359.494
359.312
359.513
358.648
358.791
359.143
358.948
359.073
358.208
345.697
346.089
346.55
346.363
346.502
346.538
346.485
346.825
346.574
346.782
346.288
346.404
346.567
346.588
345.987
346.201
346.36
346.422
346.508
345.797
330.513
330.869
331.05
330.938
331.014
331.2
331.174
331.227
331.065
331.369
330.956
330.876
331.131
331.115
330.668
330.778
330.951
331.051
331.009
330.479
311.845
312.001
312.066
311.914
312.014
312.015
312.06
311.895
311.961
312.032
311.929
311.822
312.074
311.901
311.776
311.877
311.899
312.029
311.964
311.709
392.467
393.07
393.237
393.311
394.56
394.832
395.036
395.373
396.196
395.953
395.285
395.021
395.59
394.653
394.799
394.425
393.159
393.491
392.11
391.902
385.664
386.034
386.115
386.269
387.307
387.411
387.559
387.939
388.616
388.49
387.756
387.402
387.978
387.223
387.289
386.904
385.742
386.606
385.184
384.874
378.151
378.372
378.479
378.323
379.227
379.251
379.32
379.799
380.275
380.128
379.473
379.33
379.723
379.232
378.923
378.95
377.677
378.707
377.616
377.138
369.519
369.464
369.622
369.461
370.018
370.08
369.884
370.702
370.813
370.809
370.333
370.145
370.404
370.264
369.725
369.863
368.738
369.567
369.006
368.316
359.019
359.071
359.119
359.186
359.286
359.295
359.222
359.866
359.776
360.013
359.623
359.322
359.642
359.709
359.282
359.26
358.455
358.976
358.641
357.995
346.356
346.603
346.476
346.614
346.565
346.566
346.34
347.109
346.894
347.066
347.01
346.424
346.853
347.09
346.586
346.706
345.813
346.189
346.173
345.424
330.949
331.118
330.829
331.158
331.134
331.246
330.859
331.464
331.36
331.306
331.285
330.958
331.341
331.386
331.033
331.073
330.74
330.793
330.909
330.214
311.9
311.994
311.764
311.978
312.017
311.954
311.86
312.072
312.006
312.123
311.973
311.839
312.113
312.02
311.977
312.035
311.834
311.903
311.992
311.634
394.179
393.799
393.606
393.273
394.213
395.227
395.456
395.69
395.41
396.211
396.666
396.057
396.096
395.035
395.17
393.882
394.304
393.908
392.426
392.827
387.104
386.526
386.648
385.97
386.826
387.81
387.939
388.184
387.668
388.508
388.806
388.402
388.474
387.594
387.493
386.313
386.924
386.842
385.336
385.882
379.264
378.446
378.781
378.094
378.952
379.608
379.813
379.901
379.522
380.061
380.286
380.045
380.225
379.374
379.118
378.414
378.844
378.95
377.473
378.195
370.216
369.322
370.084
369.183
369.824
370.121
370.51
370.676
370.338
370.627
370.674
370.626
370.968
370.276
369.944
369.29
369.746
370.009
368.602
369.092
359.604
358.817
359.831
358.806
359.317
359.038
359.62
359.878
359.542
359.688
359.581
359.543
360.004
359.619
359.226
358.749
359.071
359.509
358.284
358.429
346.883
346.144
347.064
346.369
346.666
346.247
346.799
346.824
346.799
346.635
346.502
346.585
346.98
346.714
346.47
346.202
346.219
346.745
345.829
345.643
331.38
330.865
331.481
331.006
331.147
330.86
331.134
331.187
331.075
331.006
330.902
331.045
331.313
331.036
330.925
330.77
330.737
331.154
330.644
330.336
311.952
311.818
312.068
311.915
312.005
311.793
311.938
311.942
311.894
311.99
311.908
311.852
312.109
311.901
311.883
311.874
311.854
312.133
311.769
311.665
393.862
393.014
394.435
394.328
395.488
395.749
396.203
396.523
395.698
396.183
396.087
395.825
396.376
395.603
394.669
395.724
395.731
395.241
392.506
392.503
386.808
385.944
387.179
387.06
387.78
388.066
388.29
388.653
388.037
388.254
388.304
388.147
388.58
388.123
387.056
387.888
388.287
387.812
385.456
385.633
378.913
378.036
379.028
379.205
379.429
379.787
380.072
380.229
379.909
379.917
380.058
379.89
380.266
380.043
378.919
379.507
380.125
379.739
377.7
377.916
370.114
368.96
369.914
370.172
370.379
370.444
370.735
370.974
370.669
370.659
370.632
370.586
370.854
370.991
369.728
370.304
370.718
370.581
368.891
369.065
359.484
358.503
359.393
359.493
359.751
359.66
359.84
360.205
359.936
359.781
359.864
359.79
359.981
360.08
359.078
359.575
359.835
359.852
358.333
358.671
346.571
345.974
346.616
346.736
346.848
346.905
347.03
347.249
347.153
346.981
346.796
346.882
347.127
347.05
346.352
346.666
346.94
346.814
345.983
346.065
330.891
330.693
330.89
331.108
331.281
331.239
331.338
331.526
331.495
331.381
331.111
331.142
331.531
331.256
330.886
331.112
331.282
331.172
330.775
330.808
311.874
311.849
311.865
311.975
312.09
312.021
311.984
312.222
312.144
312.071
311.928
311.85
312.044
312.016
311.904
311.948
312.01
312.013
311.885
311.857
394.337
393.161
394.64
394.922
396.688
395.927
396.433
397.152
396.561
397.165
395.944
396.859
397.489
396.882
395.632
395.644
395.254
395.27
393.655
392.428
387.138
386.004
387.178
387.46
389.025
388.295
388.623
389.205
388.831
389.168
388.101
388.894
389.448
389.13
387.789
388.129
387.832
387.768
386.355
385.287
379.333
378.205
379.185
379.342
380.646
380.004
380.353
380.653
380.354
380.582
379.944
380.529
380.761
380.516
379.283
379.819
379.848
379.824
378.278
377.276
370.314
369.186
370.241
370.308
371.242
370.89
370.933
371.358
370.989
370.904
370.782
371.184
371.114
371.023
369.983
370.429
370.764
370.692
369.362
368.416
359.597
358.706
359.543
359.473
360.365
360.101
360.129
360.485
360.121
359.721
359.899
360.175
359.964
360.005
359.267
359.729
360.066
359.979
358.938
358.122
346.656
345.986
346.565
346.59
347.36
347.198
347.235
347.563
347.085
346.814
346.987
347.196
346.912
346.918
346.361
346.926
347.171
347.154
346.324
345.678
331.126
330.705
330.895
331.011
331.63
331.481
331.574
331.636
331.239
331.256
331.377
331.349
331.243
331.228
330.895
331.322
331.548
331.589
330.918
330.5
311.945
311.785
311.851
311.853
312.177
312.205
312.161
312.105
311.894
312.031
312.073
312.079
312.004
311.994
311.891
312.087
312.181
312.176
311.919
311.728
393.657
393.656
394.662
395.263
396.218
396.1
396.764
396.85
397.521
396.87
397.012
398.255
397.474
396.761
396.17
396.498
395.775
395.123
393.278
392.581
386.441
386.433
387.259
387.599
388.577
388.242
388.93
388.996
389.681
388.948
388.957
390.105
389.573
388.782
388.527
388.767
388.328
387.574
385.989
385.638
378.771
378.389
379.453
379.305
380.174
379.898
380.357
380.616
381.091
380.507
380.408
381.42
381.101
380.228
380.3
380.397
380.074
379.424
377.998
377.871
369.939
369.223
370.334
370.167
370.916
370.642
370.867
371.043
371.685
371.182
370.902
371.782
371.435
370.9
370.914
371.055
370.844
370.45
369.126
369.203
359.466
358.527
359.579
359.424
359.99
359.969
359.869
360.072
360.755
360.213
359.868
360.664
360.339
359.882
360.162
360.139
359.944
359.667
358.897
358.834
346.679
345.871
346.699
346.553
346.955
347.002
346.779
347.082
347.663
347.27
346.835
347.524
347.249
346.773
347.158
347.295
346.916
346.932
346.594
346.417
331.132
330.666
331.239
331.049
331.193
331.255
331.029
331.282
331.71
331.605
331.178
331.537
331.385
331.011
331.484
331.419
331.328
331.342
331.225
331.001
311.968
311.801
311.92
311.916
311.932
312.059
311.988
311.904
312.234
312.161
312.016
312.112
312.067
311.909
312.157
312.095
312.001
312.037
312.086
312.022
394.009
395.048
394.921
394.247
396.313
396.665
397.653
396.736
398.064
397.356
398.056
398.274
398.367
397.228
397.448
396.59
396.461
394.59
394.304
394.185
386.868
387.643
387.401
386.89
388.563
388.911
389.619
388.841
390.026
389.368
389.864
390.319
390.128
389.382
389.699
388.956
388.739
387.275
386.779
386.98
379.043
379.415
379.36
379.03
380.473
380.481
380.916
380.322
381.415
380.896
381.186
381.611
381.544
380.998
381.182
380.684
380.445
379.201
378.724
379.4
369.802
370.058
370.276
369.951
371.054
371.062
371.189
370.759
371.823
371.474
371.642
371.748
371.933
371.632
371.429
371.205
371.046
370.137
369.758
370.583
359.059
359.275
359.616
359.193
360.071
360.128
360.048
359.842
360.873
360.491
360.539
360.611
360.661
360.82
360.347
360.263
360.296
359.472
359.154
360.085
346.372
346.406
346.551
346.423
346.94
347.04
347.053
346.982
347.644
347.418
347.364
347.331
347.418
347.702
347.186
347.226
347.45
346.645
346.522
347.392
331.094
330.759
331.054
331.052
331.236
331.311
331.391
331.183
331.709
331.466
331.394
331.437
331.413
331.834
331.43
331.407
331.677
331.05
331.035
331.612
311.978
311.826
311.977
311.97
312.039
312.043
312.044
311.891
312.191
311.958
312.036
312.111
312.091
312.122
312.149
312.043
312.263
311.961
312.037
312.131
393.846
395.207
395.006
394.31
396.027
396.172
396.624
397.146
398.168
398.228
398.887
398.264
398.047
397.327
397.378
397.61
397.259
395.677
394.621
394.432
386.707
387.898
387.458
386.809
388.206
388.433
388.773
389.328
390.057
390.05
390.789
390.251
390.006
389.045
389.278
389.673
389.554
388.072
387.289
387.076
378.92
379.743
379.189
378.587
379.841
380.13
380.367
380.837
381.38
381.218
382.134
381.55
381.347
380.248
380.715
381.167
381.114
379.811
379.355
379.118
369.739
370.5
369.927
369.682
370.228
370.646
371.029
371.33
371.567
371.565
372.376
371.987
371.848
370.72
371.25
371.569
371.689
370.587
370.455
370.227
359.027
359.588
359.218
359.012
359.147
359.741
360.198
360.495
360.249
360.516
361.112
360.916
360.747
359.849
360.328
360.623
360.636
359.669
359.778
359.532
346.294
346.774
346.447
346.471
346.206
346.822
347.214
347.427
347.082
347.395
347.812
347.744
347.656
346.848
347.352
347.544
347.503
346.815
347.009
346.597
331.036
331.132
330.95
331.075
330.819
331.139
331.354
331.678
331.283
331.62
331.884
331.762
331.892
331.334
331.586
331.752
331.579
331.214
331.39
331.01
311.859
311.908
311.922
311.897
311.854
311.96
311.905
312.186
311.985
312.157
312.263
312.158
312.388
311.997
312.114
312.195
312.131
312.089
311.985
311.863
393.743
395.027
395.343
395.361
396.017
397.366
397.385
398.316
397.65
398.44
398.296
398.831
398.007
396.514
398.162
397.579
397.51
395.674
395.976
394.231
386.4
387.466
387.813
387.798
388.096
389.387
389.484
390.016
389.499
390.315
390.124
390.713
389.959
388.603
390.126
389.728
389.688
388.01
388.429
386.92
378.527
379.261
379.632
379.532
379.83
380.776
380.963
381.422
380.84
381.671
381.418
382.113
381.272
380.102
381.436
381.276
381.108
379.677
380.212
379.04
369.352
370.053
370.498
370.138
370.364
371.464
371.442
371.753
371.245
372.17
371.651
372.405
371.514
370.618
371.836
371.676
371.597
370.318
371.077
370.292
358.89
359.483
359.735
359.256
359.548
360.528
360.415
360.79
360.034
361.012
360.564
361.081
360.469
359.649
360.613
360.598
360.613
359.437
360.318
359.781
346.338
346.759
346.891
346.417
346.577
347.491
347.296
347.637
346.81
347.889
347.394
347.749
347.323
346.649
347.463
347.5
347.53
346.551
347.339
347.265
330.986
331.226
331.116
331.048
331.181
331.571
331.465
331.619
331.261
331.953
331.475
331.786
331.456
331.042
331.499
331.679
331.658
330.924
331.523
331.597
311.951
312.025
311.911
312.016
311.995
312.183
312.062
312.018
312.066
312.187
311.987
312.24
312.072
311.902
312.065
312.223
312.118
311.876
312.065
312.115
395.277
395.833
396.281
395.944
396.782
397.566
397.712
398.645
397.745
398.461
398.335
397.971
398.509
398.087
397.125
397.558
397.157
395.804
396.018
394.186
387.681
388.214
388.686
388.144
388.944
389.607
389.731
390.333
389.818
390.383
390.154
390.005
390.492
390.049
389.233
389.699
389.169
388.167
388.483
387.109
379.315
379.898
380.393
379.65
380.478
381.204
381.095
381.354
381.294
381.581
381.438
381.571
381.958
381.468
380.85
381.274
380.899
379.848
380.367
379.442
369.876
370.671
370.847
370.209
370.846
371.871
371.446
371.679
371.554
371.825
371.875
372.094
372.356
371.99
371.333
371.695
371.405
370.572
371.039
370.468
359.05
359.787
360.033
359.442
359.789
360.802
360.419
360.558
360.433
360.668
360.654
360.797
361.105
360.653
360.425
360.399
360.491
359.867
360.227
359.914
346.194
346.878
347.36
346.677
346.709
347.682
347.382
347.33
347.319
347.522
347.589
347.388
347.78
347.272
347.367
347.361
347.555
346.94
347.316
347.108
330.501
331.263
331.63
331.171
331.095
331.703
331.48
331.468
331.502
331.587
331.738
331.387
331.663
331.311
331.662
331.495
331.577
331.081
331.498
331.411
311.694
312.041
312.149
311.933
311.936
312.181
312.106
312.118
312.077
312.012
312.221
312.066
312.086
311.96
312.155
312.12
312.028
311.881
312.092
312.043
395.205
395.655
396.183
396.678
396.426
398.479
397.574
398.988
398.207
399.39
398.844
398.745
398.531
398.548
398.213
398.178
397.275
396.762
395.513
394.922
387.831
387.925
388.51
388.824
388.698
390.568
389.403
390.822
390.118
391.142
390.515
390.523
390.298
390.379
390.117
390.209
389.363
389.014
388.006
387.35
379.743
379.658
380.26
380.477
380.314
381.98
380.841
382.037
381.376
382.519
381.768
381.684
381.667
381.457
381.303
381.601
380.824
380.469
379.66
379.149
370.665
370.277
371.023
371.124
370.939
372.152
371.307
372.077
371.66
372.736
372.093
371.972
372.028
371.71
371.768
372.073
371.412
370.865
370.362
370
359.791
359.478
360.114
360.345
360.094
360.926
360.301
361.031
360.648
361.262
360.89
360.913
361.065
360.41
360.596
361.194
360.28
359.866
359.603
359.218
346.818
346.73
347.062
347.273
347.116
347.741
347.19
347.664
347.428
347.901
347.711
347.644
347.943
347.287
347.412
347.857
347.218
346.774
346.763
346.317
331.183
331.211
331.174
331.496
331.302
331.738
331.453
331.609
331.632
331.778
331.717
331.673
331.846
331.499
331.568
331.646
331.444
331.079
331.102
330.807
311.965
312.058
311.947
312.007
311.947
312.239
312.156
312.124
312.169
312.072
312.185
312.146
312.161
312.122
312.113
312.103
312.029
311.867
311.918
311.931
394.53
395.275
395.422
396.648
397.937
398.072
398.1
398.616
398.233
398.493
399.538
399.145
398.623
397.658
397.452
398.36
396.562
396.05
395.909
394.36
387.125
387.733
387.706
388.803
390.228
390.034
390.043
390.464
390.148
390.48
391.126
390.78
390.594
389.546
389.413
390.157
388.647
388.424
388.156
387.145
379.293
379.5
379.52
380.416
381.967
381.374
381.422
381.806
381.284
381.816
382.144
381.97
381.781
380.845
380.781
381.432
380.193
380.238
379.94
379.112
370.323
370.472
370.176
371.173
372.222
371.678
371.86
372.262
371.653
371.994
372.276
372.329
371.996
371.185
371.17
371.652
370.812
370.946
370.525
369.954
359.82
359.767
359.382
360.147
361.092
360.401
360.787
361.086
360.633
360.702
361.252
361.205
360.736
360.082
360.074
360.538
359.939
360.118
359.634
359.314
346.812
346.938
346.473
347.173
347.921
347.286
347.568
347.747
347.691
347.439
347.959
347.961
347.486
346.786
347.173
347.44
347.12
347.118
346.691
346.565
331.158
331.302
330.917
331.512
331.921
331.429
331.605
331.679
331.719
331.329
331.789
332.062
331.475
330.997
331.358
331.513
331.408
331.265
331.109
331.12
311.957
311.99
311.861
312.137
312.262
311.994
312.193
312.105
312.135
311.963
312.236
312.321
312.138
311.901
312.115
312.167
312.122
312.064
311.996
312.022
394.612
395.557
395.884
396.135
397.415
397.969
398.028
398.352
398.69
399.124
398.867
398.31
398.922
398.427
397.409
397.02
397.153
395.877
395.042
395.013
387.149
387.971
388.292
388.289
389.484
389.831
390.029
390.198
390.5
390.848
390.76
390.076
390.783
390.126
389.344
389.081
389.372
388.175
387.521
387.722
379.103
379.845
380.033
379.83
380.991
381.033
381.418
381.638
381.74
382.05
382.067
381.345
382.021
381.355
380.723
380.527
380.885
379.913
379.478
379.417
370.108
370.579
370.752
370.361
371.291
371.535
371.899
372.01
372.006
372.334
372.142
371.705
372.254
371.72
371.201
371.128
371.292
370.585
370.307
370.108
359.466
359.618
360.022
359.635
360.241
360.523
360.457
360.709
360.844
361.086
361.055
360.608
361.098
360.595
360.357
360.269
360.333
359.853
359.598
359.415
346.661
346.632
347.145
346.737
347.172
347.351
347.22
347.321
347.614
347.886
347.828
347.584
347.617
347.456
347.323
347.358
347.394
346.81
346.711
346.727
331.174
330.887
331.384
331.26
331.311
331.447
331.444
331.41
331.636
331.786
331.988
331.682
331.501
331.55
331.468
331.658
331.529
331.125
331.134
331.106
312.02
311.858
312.048
311.988
312.058
312.092
312.076
312.101
312.196
312.161
312.354
312.157
311.974
312.109
312.049
312.149
312.086
311.878
311.962
311.887
395.353
395.543
396.599
396.162
397.309
397.789
397.824
398.095
398.427
398.122
398.671
397.641
398.745
398.408
398.213
397.174
396.719
396.634
395.19
395.17
388.127
387.875
388.751
388.294
389.395
389.701
389.963
390.085
390.074
389.909
390.277
389.504
390.44
390.236
389.968
389.171
388.951
388.9
387.704
387.69
380.284
379.895
380.356
379.805
380.858
381.079
381.339
381.553
381.317
381.249
381.68
380.875
381.534
381.661
381.211
380.528
380.588
380.611
379.594
379.625
371.314
370.724
370.979
370.346
371.293
371.448
371.639
372.028
371.712
371.598
371.977
371.48
371.879
372.002
371.478
371.049
371.392
371.44
370.405
370.261
360.443
359.842
360.225
359.606
360.2
360.431
360.56
360.929
360.698
360.58
360.698
360.549
360.805
360.775
360.529
360.134
360.672
360.47
359.522
359.295
347.395
346.911
347.519
346.814
346.978
347.406
347.435
347.617
347.512
347.488
347.393
347.539
347.607
347.716
347.521
347.127
347.712
347.342
346.527
346.464
331.464
331.28
331.671
331.208
331.152
331.529
331.56
331.715
331.556
331.763
331.593
331.636
331.515
331.797
331.758
331.328
331.808
331.377
330.8
330.985
312.115
311.999
312.127
311.974
311.919
312.096
312.055
312.169
312.095
312.283
312.097
312.113
312.102
312.107
312.208
311.881
312.242
312.01
311.858
311.905
395.748
396.03
396.593
396.202
396.753
397.081
397.304
397.365
398.601
398.509
399.199
398.944
399.103
399.005
397.58
397.996
396.745
396.224
395.563
394.416
388.246
388.394
388.866
388.411
388.833
389.285
389.33
389.237
390.473
390.267
390.825
390.558
390.788
390.841
389.447
389.984
388.963
388.582
388.035
387.19
380.161
380.03
380.409
379.817
380.316
380.783
381.021
380.834
381.712
381.435
382.071
381.665
382.043
382.113
380.953
381.337
380.412
380.316
379.856
379.332
370.858
370.638
370.958
370.386
370.861
371.449
371.439
371.202
371.901
371.946
372.344
371.839
372.349
372.485
371.328
371.722
371.016
370.862
370.649
370.293
359.829
359.996
359.987
359.575
359.957
360.295
360.275
360.318
360.587
360.86
361.097
360.685
361.134
361.362
360.306
360.77
359.986
359.747
359.798
359.67
346.91
347.039
346.927
346.756
347.088
347.226
347.275
347.222
347.197
347.402
347.844
347.516
347.787
348.157
347.258
347.478
346.846
346.737
346.734
346.853
331.251
331.386
331.145
331.195
331.359
331.408
331.491
331.352
331.281
331.349
331.686
331.672
331.874
332.014
331.346
331.492
331.016
331.039
331.095
331.121
312
312.077
311.948
311.997
312.015
312.105
312.093
312.094
311.993
312.007
312.123
312.231
312.161
312.212
312.012
312.134
311.957
311.885
311.929
311.988
)
;

boundaryField
{
    hotSide
    {
        type            fixedGradient;
        gradient        nonuniform List<scalar> 
400
(
446.361
459.023
471.255
483.002
494.21
504.827
514.802
524.088
532.638
540.409
547.362
553.461
558.675
562.974
566.335
568.741
570.177
570.634
570.108
568.601
458.789
471.819
484.408
496.499
508.038
518.97
529.242
538.807
547.616
555.625
562.793
569.083
574.463
578.903
582.38
584.873
586.369
586.859
586.338
584.807
470.021
483.385
496.298
508.701
520.539
531.756
542.299
552.117
561.16
569.385
576.749
583.213
588.745
593.314
596.895
599.469
601.021
601.541
601.025
599.474
479.985
493.645
506.845
519.527
531.631
543.102
553.885
563.927
573.18
581.597
589.135
595.755
601.422
606.106
609.781
612.428
614.03
614.578
614.068
612.5
488.616
502.533
515.983
528.905
541.241
552.932
563.924
574.162
583.597
592.181
599.87
606.625
612.41
617.194
620.952
623.662
625.309
625.882
625.377
623.795
495.862
509.995
523.655
536.779
549.309
561.185
572.352
582.755
592.342
601.067
608.884
615.753
621.637
626.507
630.334
633.097
634.782
635.377
634.877
633.284
501.679
515.985
529.813
543.1
555.785
567.81
579.117
589.652
599.363
608.201
616.12
623.081
629.045
633.983
637.866
640.673
642.388
643.001
642.506
640.904
506.034
520.469
534.422
547.83
560.632
572.768
584.18
594.814
604.616
613.538
621.535
628.564
634.589
639.577
643.502
646.342
648.08
648.706
648.215
646.607
508.902
523.422
537.457
550.944
563.822
576.03
587.512
598.21
608.072
617.049
625.096
632.169
638.234
643.256
647.209
650.07
651.823
652.458
651.969
650.358
510.27
524.829
538.901
552.425
565.338
577.58
589.093
599.821
609.711
618.714
626.783
633.878
639.96
644.998
648.964
651.835
653.596
654.235
653.747
652.134
510.13
524.682
538.749
552.266
565.173
577.409
588.917
599.64
609.525
618.524
626.59
633.681
639.76
644.796
648.759
651.629
653.389
654.027
653.539
651.926
508.486
522.986
537.002
550.471
563.33
575.522
586.987
597.67
607.519
616.483
624.518
631.582
637.637
642.652
646.598
649.455
651.206
651.839
651.35
649.739
505.349
519.752
533.674
547.051
559.823
571.931
583.317
593.926
603.706
612.607
620.584
627.596
633.606
638.583
642.498
645.33
647.063
647.686
647.194
645.588
500.739
515.001
528.785
542.03
554.675
566.661
577.932
588.433
598.112
606.921
614.814
621.751
627.696
632.616
636.485
639.282
640.99
641.598
641.103
639.503
494.686
508.763
522.368
535.439
547.918
559.746
570.867
581.227
590.774
599.462
607.246
614.086
619.945
624.792
628.602
631.352
633.027
633.617
633.116
631.526
487.227
501.077
514.462
527.321
539.596
551.229
562.166
572.353
581.74
590.28
597.93
604.65
610.404
615.163
618.899
621.593
623.228
623.795
623.289
621.71
478.409
491.993
505.118
517.727
529.762
541.167
551.887
561.87
571.069
579.435
586.928
593.507
599.138
603.792
607.443
610.071
611.66
612.2
611.688
610.124
468.288
481.567
494.396
506.72
518.48
529.623
540.096
549.848
558.83
566.999
574.311
580.731
586.222
590.757
594.311
596.864
598.4
598.912
598.393
596.846
456.93
469.868
482.366
494.37
505.824
516.675
526.872
536.365
545.107
553.054
560.167
566.407
571.744
576.147
579.593
582.062
583.541
584.021
583.496
581.969
444.409
456.973
469.108
480.761
491.879
502.41
512.304
521.512
529.991
537.697
544.59
550.636
555.802
560.061
563.389
565.769
567.186
567.631
567.101
565.597
)
;
    }
    coldSide
    {
        type            mixed;
        refValue        uniform 300;
        refGradient     uniform 0;
        valueFraction   uniform 0.991591;
        source          uniform 0;
        value           nonuniform List<scalar> 
400
(
300.098
300.098
300.099
300.099
300.098
300.1
300.1
300.101
300.1
300.1
300.101
300.101
300.1
300.1
300.098
300.101
300.101
300.101
300.102
300.101
300.098
300.1
300.099
300.1
300.099
300.101
300.101
300.099
300.1
300.099
300.099
300.099
300.1
300.101
300.101
300.101
300.101
300.1
300.101
300.102