/*--------------------------------*- C++ -*----------------------------------*\
| =========                 |                                                 |
| \\      /  F ield         | OpenFOAM: The Open Source CFD Toolbox           |
|  \\    /   O peration     | Version:  2212                                  |
|   \\  /    A nd           | Website:  www.openfoam.com                      |
|    \\/     M anipulation  |                                                 |
\*---------------------------------------------------------------------------*/
FoamFile
{
    version     2.0;
    format      ascii;
    arch        "LSB;label=32;scalar=64";
    class       volScalarField;
    location    "./ITHACAoutput/true/18.4";
    object      error;
}
// * * * * * * * * * * * * * * * * * * * * * * * * * * * * * * * * * * * * * //

dimensions      [0 0 0 1 0 0 0];

internalField   nonuniform List<scalar> 
3200
(
1.43087
1.60683
1.74235
2.14817
2.40742
2.78016
3.12587
3.40458
3.79413
4.00093
4.09958
4.19783
4.18417
4.20676
4.10924
3.95935
3.88368
3.79673
3.73534
3.64681
1.25102
1.30478
1.49218
1.85793
2.07783
2.3671
2.74766
2.94765
3.26721
3.36223
3.56247
3.51181
3.55929
3.58816
3.46753
3.35216
3.29465
3.22583
3.2058
3.13497
0.979002
1.19646
1.33193
1.48464
1.83386
1.99935
2.26004
2.47217
2.70685
2.8919
2.99034
3.0633
2.97345
3.0007
2.93455
2.83903
2.77377
2.71818
2.65008
2.64817
0.884868
0.907765
1.09311
1.24518
1.42509
1.56425
1.83223
1.97548
2.21144
2.31911
2.45492
2.48073
2.47358
2.46625
2.31977
2.27777
2.1855
2.24765
2.21791
2.16127
0.705427
0.723076
0.880072
0.920836
1.09903
1.3153
1.42271
1.52582
1.67432
1.73036
1.79721
1.86313
1.85844
1.89848
1.80351
1.75551
1.73103
1.71762
1.68033
1.69856
0.474103
0.561473
0.563637
0.655101
0.746563
0.90986
0.992888
1.03815
1.14804
1.24752
1.24271
1.35363
1.35873
1.35321
1.25384
1.27774
1.25067
1.20961
1.13982
1.24451
0.253825
0.284114
0.342643
0.395995
0.486504
0.486316
0.58099
0.723225
0.676868
0.823825
0.77028
0.82749
0.797438
0.728607
0.75645
0.71462
0.719861
0.6813
0.694451
0.632344
0.106294
0.145051
0.0504964
0.114643
0.192692
0.148335
0.188029
0.259235
0.257044
0.217905
0.209531
0.274668
0.314479
0.299638
0.210009
0.295344
0.199147
0.238029
0.226784
0.183445
0.795564
0.929097
1.07964
1.38811
1.61385
2.0434
2.43375
2.68784
2.99022
3.24679
3.31726
3.39126
3.49424
3.44004
3.34474
3.25649
3.09079
3.10268
3.03272
3.05193
0.723204
0.753969
1.01826
1.28431
1.47427
1.79047
2.03789
2.32521
2.62723
2.76811
2.92113
2.97293
3.00294
2.97298
2.88102
2.83341
2.73293
2.70846
2.64028
2.64617
0.568653
0.685686
0.800108
1.0633
1.21958
1.48209
1.75367
1.94199
2.16136
2.35889
2.43897
2.51873
2.53575
2.50541
2.4185
2.37943
2.32195
2.20896
2.22417
2.21423
0.504275
0.586379
0.760759
0.785812
1.03548
1.26608
1.39148
1.63462
1.7446
1.93384
1.98344
1.99821
2.06076
2.00761
1.96086
1.90888
1.8983
1.82823
1.81444
1.81388
0.42552
0.434774
0.546307
0.660564
0.804487
0.954226
1.14355
1.2398
1.39616
1.46554
1.53034
1.57782
1.54212
1.54477
1.51239
1.55711
1.40599
1.48497
1.42335
1.40121
0.253587
0.312518
0.432786
0.509192
0.573344
0.707042
0.801107
0.923529
1.0067
1.09005
1.0467
1.13377
1.1171
1.09334
1.11179
1.08009
1.07041
0.971754
1.04128
0.980218
0.157035
0.20792
0.269526
0.30186
0.35181
0.412881
0.523023
0.504292
0.538638
0.654758
0.595345
0.65359
0.662378
0.665177
0.67675
0.641078
0.571346
0.638977
0.578148
0.568159
0.0273082
0.0882308
0.0682469
0.0233136
0.149315
0.0728933
0.101071
0.143361
0.25454
0.218042
0.292733
0.213361
0.234196
0.216352
0.253225
0.139013
0.218396
0.235121
0.270211
0.14536
-0.116789
0.0560623
0.265345
0.434971
0.749152
1.06313
1.42571
1.70074
2.00931
2.22111
2.36741
2.46059
2.40825
2.32697
2.38253
2.22555
2.17684
2.09715
2.18202
2.15236
-0.0452875
0.169262
0.26951
0.422108
0.686927
0.922502
1.2199
1.48573
1.70227
1.89463
2.08427
2.16165
2.09715
2.02036
2.08497
1.9793
1.93231
1.87067
1.87394
1.88349
0.059158
0.121653
0.220506
0.361554
0.593784
0.780349
1.07008
1.26634
1.41657
1.61088
1.66605
1.82357
1.84854
1.8319
1.809
1.64281
1.68636
1.64721
1.6235
1.63637
0.0339505
0.114249
0.221998
0.324032
0.535389
0.630931
0.886642
1.02548
1.14627
1.32042
1.39376
1.4506
1.54225
1.50437
1.43873
1.38101
1.35163
1.21428
1.37393
1.31088
0.093045
0.140207
0.177249
0.300708
0.429972
0.502156
0.692419
0.878199
0.855736
1.01261
1.03555
1.11892
1.1539
1.0959
1.10206
1.02805
1.04803
1.04135
1.04488
1.05049
-0.015419
0.0971273
0.093913
0.254529
0.254336
0.379812
0.497077
0.641852
0.689716
0.694347
0.789141
0.823308
0.842664
0.796694
0.799915
0.754159
0.750027
0.749963
0.753697
0.765736
0.00611975
0.034497
0.075348
0.149748
0.205228
0.227302
0.284471
0.349299
0.454459
0.499628
0.421473
0.438156
0.455284
0.489126
0.480325
0.481719
0.422746
0.445118
0.474119
0.456746
-0.0174173
0.0118104
-0.0444002
0.0361139
0.0330998
0.121916
0.055509
0.096067
0.120323
0.131115
0.169629
0.15435
0.141548
0.165972
0.101009
0.102119
0.0907326
0.19517
0.154183
0.143509
-0.910414
-0.775764
-0.684116
-0.447779
-0.190072
0.0615861
0.341494
0.693063
0.805087
1.14445
1.25697
1.2472
1.3839
1.36338
1.30725
1.28398
1.34704
1.216
1.28347
1.28021
-0.699236
-0.685164
-0.610223
-0.437327
-0.132122
0.104446
0.313094
0.62235
0.814114
1.00144
1.07747
1.18642
1.17395
1.19227
1.08147
1.15727
1.16766
1.15136
1.09742
1.12348
-0.561247
-0.548133
-0.408574
-0.285536
-0.10162
0.104162
0.350067
0.507417
0.715123
0.869124
0.954357
0.977043
1.02034
1.0559
1.05169
0.933706
0.936797
0.914366
0.973814
0.943208
-0.441332
-0.425817
-0.290347
-0.247757
-0.111387
0.0807959
0.260505
0.517101
0.608455
0.785858
0.727608
0.815071
0.91644
0.895818
0.78761
0.809196
0.789288
0.771403
0.795894
0.781845
-0.315802
-0.328945
-0.263288
-0.186202
-0.0656418
0.0223027
0.184942
0.353447
0.471346
0.615008
0.618502
0.666853
0.593657
0.624886
0.703314
0.595535
0.553142
0.6009
0.557934
0.57342
-0.267451
-0.187018
-0.153983
-0.172129
-0.0495781
0.0517126
0.220709
0.302336
0.32666
0.401412
0.424599
0.504212
0.487365
0.478766
0.421205
0.466913
0.445422
0.441147
0.474751
0.474802
-0.155663
-0.0978414
-0.148326
-0.0731321
-0.00523373
0.0320786
0.0707159
0.152213
0.214242
0.270994
0.273526
0.262326
0.225451
0.365295
0.224369
0.259183
0.21865
0.224333
0.242053
0.26821
-0.0619216
-0.0594495
-0.0708462
-0.0649782
-0.0469176
0.017518
-0.00208574
0.0782378
-0.0209242
0.0435608
0.113816
0.0699699
0.109782
0.0849549
0.0660899
0.0629024
0.0662206
0.0876649
-0.0157867
0.0829805
-1.74821
-1.67287
-1.59251
-1.38127
-1.18953
-0.88053
-0.633542
-0.395457
-0.139065
0.041767
0.200736
0.262669
0.357578
0.340936
0.250681
0.189699
0.29519
0.261022
0.407814
0.419152
-1.3987
-1.45866
-1.37878
-1.14784
-1.08751
-0.737804
-0.494615
-0.371207
-0.0436446
0.00482694
0.178609
0.240257
0.299365
0.299487
0.296758
0.247608
0.252794
0.332092
0.33867
0.385775
-1.23559
-1.14464
-1.07003
-0.961396
-0.814657
-0.563835
-0.458918
-0.257526
-0.136264
0.0916505
0.194874
0.231487
0.310369
0.241186
0.283555
0.270047
0.265572
0.285225
0.289606
0.3304
-0.930899
-0.878375
-0.856983
-0.7846
-0.66676
-0.472223
-0.401219
-0.169937
-0.0845962
0.0301531
0.144137
0.197717
0.243171
0.179595
0.231751
0.232229
0.247092
0.254017
0.279663
0.286943
-0.780454
-0.721077
-0.655006
-0.556101
-0.498462
-0.437803
-0.220363
-0.143848
-0.0145201
0.0446122
0.0885614
0.0931516
0.137219
0.200877
0.251533
0.192741
0.120893
0.183311
0.226603
0.303009
-0.570986
-0.489083
-0.442375
-0.452851
-0.337489
-0.262347
-0.250828
-0.133097
0.00100473
0.0649602
0.0944775
0.0727717
0.165754
0.197518
0.109176
0.188883
0.102363
0.135572
0.135604
0.200464
-0.277506
-0.293133
-0.268551
-0.289469
-0.177246
-0.174944
-0.108823
-0.0763271
-0.0150705
0.0563286
0.048532
0.0911212
0.136271
0.067289
0.138808
0.0564617
0.0426589
0.0929475
0.040496
0.0927489
-0.0621809
-0.10508
-0.101944
-0.150807
-0.0737942
-0.0534522
-0.0930958
-0.103809
0.0547511
0.0350175
-0.0457624
-0.00530571
0.0173371
0.0653331
0.0661065
0.016794
0.00439084
0.0382094
0.0588291
0.0760728
-2.44256
-2.51662
-2.33715
-2.25898
-2.11261
-1.87518
-1.60783
-1.44034
-1.15177
-0.98279
-0.827924
-0.742892
-0.699708
-0.723881
-0.653651
-0.693759
-0.602175
-0.586464
-0.494967
-0.393997
-2.12912
-2.03652
-2.03788
-1.93589
-1.74177
-1.52345
-1.38054
-1.16368
-0.924459
-0.857734
-0.804967
-0.583095
-0.61733
-0.547858
-0.568373
-0.583699
-0.526795
-0.415928
-0.384168
-0.305382
-1.75282
-1.77269
-1.7025
-1.63403
-1.5166
-1.35266
-1.12104
-0.985583
-0.788365
-0.648318
-0.600545
-0.425252
-0.419794
-0.416103
-0.444919
-0.446459
-0.413421
-0.342062
-0.344332
-0.204427
-1.42545
-1.38137
-1.36657
-1.27874
-1.197
-1.07971
-0.879439
-0.766465
-0.653333
-0.616321
-0.472986
-0.395824
-0.358863
-0.371899
-0.376304
-0.318687
-0.327584
-0.274364
-0.241445
-0.182615
-1.12044
-1.08931
-1.09246
-0.996624
-0.959109
-0.820777
-0.780433
-0.630408
-0.517716
-0.456422
-0.362661
-0.38498
-0.254384
-0.258529
-0.248397
-0.232185
-0.255395
-0.304009
-0.1545
-0.139906
-0.80319
-0.756457
-0.731407
-0.732363
-0.642024
-0.606101
-0.481444
-0.415981
-0.444431
-0.316686
-0.315329
-0.235776
-0.279045
-0.231636
-0.225764
-0.172482
-0.129719
-0.135867
-0.133295
-0.156129
-0.43363
-0.485431
-0.44048
-0.407952
-0.326145
-0.392988
-0.293548
-0.262091
-0.194044
-0.160932
-0.123592
-0.096714
-0.195096
-0.101172
-0.178468
-0.148954
-0.108141
-0.12275
-0.0331922
-0.0381593
-0.116345
-0.138111
-0.158501
-0.185558
-0.165035
-0.128575
-0.0886348
-0.110756
-0.0496286
-0.054178
-0.0519805
-0.028823
-0.0482627
-0.0498184
0.0311181
-0.0174125
0.028786
-0.101202
0.023323
-0.0610661
-3.18738
-3.19184
-3.1638
-3.06129
-3.00407
-2.76766
-2.56776
-2.39004
-2.16236
-1.96896
-1.75964
-1.75201
-1.65262
-1.68632
-1.59119
-1.52908
-1.45197
-1.35036
-1.22682
-1.06126
-2.70047
-2.76465
-2.68872
-2.59891
-2.56276
-2.35554
-2.18108
-2.0936
-1.81616
-1.68691
-1.55011
-1.43288
-1.43177
-1.38451
-1.36368
-1.31456
-1.19817
-1.21123
-0.994117
-0.913156
-2.2616
-2.34448
-2.2371
-2.17338
-2.07185
-2.00933
-1.86213
-1.58745
-1.52585
-1.42936
-1.33212
-1.23202
-1.11902
-1.09478
-1.09591
-1.01172
-1.1079
-0.928918
-0.849845
-0.766625
-1.8603
-1.79797
-1.79038
-1.78932
-1.70493
-1.62306
-1.52173
-1.28524
-1.19652
-1.14202
-1.04267
-0.99212
-0.933144
-0.946361
-0.924126
-0.845915
-0.865541
-0.726588
-0.699683
-0.631098
-1.41588
-1.38375
-1.43497
-1.39493
-1.32113
-1.20517
-1.10881
-1.06851
-0.928588
-0.922707
-0.831118
-0.765915
-0.746531
-0.694353
-0.614559
-0.671149
-0.640822
-0.60564
-0.532674
-0.508915
-1.05239
-0.973922
-1.02339
-1.01097
-0.9557
-0.850664
-0.814498
-0.772276
-0.747198
-0.64491
-0.610332
-0.537773
-0.492868
-0.603029
-0.449163
-0.532365
-0.4996
-0.458561
-0.342626
-0.386203
-0.621959
-0.611652
-0.627058
-0.590267
-0.628094
-0.530977
-0.547229
-0.449054
-0.349069
-0.363177
-0.348646
-0.270705
-0.277588
-0.331424
-0.243525
-0.204597
-0.232766
-0.22095
-0.26195
-0.209434
-0.223123
-0.124841
-0.197904
-0.190958
-0.165958
-0.167048
-0.183737
-0.138643
-0.11907
-0.102347
-0.162444
-0.156715
-0.104501
-0.0950266
-0.12421
-0.0570262
-0.067749
-0.0969254
-0.0758886
-0.0898358
-3.80323
-3.84086
-3.81605
-3.8222
-3.73711
-3.52552
-3.36444
-3.20765
-2.99316
-2.82291
-2.72711
-2.627
-2.50265
-2.4886
-2.3393
-2.29491
-2.22282
-2.02205
-1.91274
-1.73841
-3.28004
-3.28412
-3.24029
-3.19753
-3.221
-3.02469
-2.86737
-2.74088
-2.6652
-2.44218
-2.30638
-2.15614
-2.24614
-2.02169
-2.03828
-1.9885
-1.85035
-1.7673
-1.60089
-1.40075
-2.72767
-2.72536
-2.77493
-2.71647
-2.65231
-2.58457
-2.42085
-2.37141
-2.17884
-2.04621
-1.93252
-1.85975
-1.82325
-1.74556
-1.73671
-1.6583
-1.53952
-1.50132
-1.35718
-1.24898
-2.16135
-2.24073
-2.16166
-2.21953
-2.13343
-2.06381
-1.90149
-1.84647
-1.77763
-1.71126
-1.54299
-1.52634
-1.52358
-1.42425
-1.31132
-1.28697
-1.29474
-1.24401
-1.08006
-0.984229
-1.7082
-1.71789
-1.70828
-1.72126
-1.60582
-1.63201
-1.49418
-1.45683
-1.3762
-1.24221
-1.2176
-1.17561
-1.10618
-1.12966
-1.07388
-0.997941
-1.01064
-0.873318
-0.834718
-0.768585
-1.26907
-1.27333
-1.23379
-1.17824
-1.19596
-1.19003
-1.07871
-1.02301
-0.981899
-0.910306
-0.897494
-0.834758
-0.788728
-0.790863
-0.784486
-0.755818
-0.741711
-0.668812
-0.642267
-0.558355
-0.717388
-0.681788
-0.70155
-0.702401
-0.74032
-0.645835
-0.679069
-0.602576
-0.616434
-0.585009
-0.523375
-0.513851
-0.486253
-0.462138
-0.405917
-0.402957
-0.473798
-0.394879
-0.346735
-0.363979
-0.209183
-0.240613
-0.28224
-0.211622
-0.226932
-0.252456
-0.140357
-0.193879
-0.150756
-0.129538
-0.145631
-0.205179
-0.204039
-0.0391907
-0.123916
-0.149939
-0.240789
-0.153775
-0.128037
-0.157566
-4.30566
-4.36545
-4.4512
-4.41519
-4.38256
-4.23097
-4.17259
-4.01828
-3.84798
-3.63922
-3.50848
-3.41883
-3.31168
-3.26428
-3.06685
-3.01511
-2.84485
-2.64446
-2.50893
-2.38806
-3.68063
-3.70965
-3.81171
-3.75674
-3.69675
-3.64559
-3.56058
-3.35184
-3.3084
-3.19369
-3.02097
-2.89569
-2.83687
-2.71158
-2.65739
-2.52097
-2.47454
-2.25678
-2.12736
-1.93177
-3.03168
-3.12059
-3.18167
-3.16488
-3.10486
-3.06542
-2.92798
-2.90702
-2.69598
-2.62643
-2.49727
-2.50495
-2.36259
-2.33417
-2.22307
-2.1695
-2.09864
-1.98988
-1.75219
-1.65665
-2.4499
-2.54302
-2.57832
-2.56013
-2.53621
-2.43056
-2.42556
-2.24502
-2.30211
-2.16618
-2.0527
-1.93078
-1.91136
-1.83341
-1.80371
-1.71789
-1.67722
-1.5677
-1.44354
-1.34072
-1.91138
-1.93839
-1.94695
-1.97119
-2.06043
-1.93559
-1.81426
-1.81543
-1.71944
-1.6609
-1.653
-1.54646
-1.5399
-1.47468
-1.39227
-1.31077
-1.29789
-1.14507
-1.13173
-0.990137
-1.3265
-1.35584
-1.40807
-1.42354
-1.38566
-1.35562
-1.29138
-1.28063
-1.24296
-1.17791
-1.10596
-1.07857
-1.08029
-1.02125
-1.00167
-0.96677
-0.863609
-0.883298
-0.806602
-0.748666
-0.813718
-0.806389
-0.846862
-0.86396
-0.832315
-0.78587
-0.733075
-0.785344
-0.693318
-0.659146
-0.745066
-0.642593
-0.608121
-0.566445
-0.626986
-0.594965
-0.54441
-0.479568
-0.474628
-0.442158
-0.257224
-0.294361
-0.28912
-0.301612
-0.27526
-0.282945
-0.25858
-0.312282
-0.289598
-0.264789
-0.271933
-0.14219
-0.243096
-0.198744
-0.2266
-0.202914
-0.254166
-0.139259
-0.189088
-0.18345
-4.64317
-4.87538
-4.95512
-4.94311
-4.91049
-4.83452
-4.72688
-4.60236
-4.48545
-4.38343
-4.26404
-4.08748
-3.96931
-3.90162
-3.75291
-3.65265
-3.45894
-3.28483
-2.92229
-2.74907
-4.02579
-4.17831
-4.18651
-4.20361
-4.21134
-4.15571
-4.06531
-3.96624
-3.92488
-3.78222
-3.63091
-3.46747
-3.4448
-3.30896
-3.23855
-3.10563
-2.87965
-2.69363
-2.56799
-2.34797
-3.37696
-3.42783
-3.58442
-3.54494
-3.47615
-3.46182
-3.43268
-3.31711
-3.22806
-3.10817
-3.00776
-3.00299
-2.9479
-2.837
-2.69391
-2.63201
-2.43217
-2.3576
-2.13884
-1.96678
-2.76332
-2.80315
-2.86068
-2.88133
-2.93466
-2.86379
-2.79536
-2.73397
-2.60665
-2.52692
-2.45544
-2.39197
-2.27249
-2.29946
-2.19519
-2.09164
-2.01413
-1.88942
-1.80129
-1.62379
-2.09261
-2.22129
-2.27151
-2.24314
-2.18174
-2.1311
-2.22541
-2.13149
-2.00466
-2.01104
-1.93921
-1.84563
-1.82017
-1.78888
-1.68509
-1.58706
-1.6084
-1.42473
-1.36199
-1.26733
-1.54121
-1.61417
-1.55659
-1.61815
-1.65334
-1.4846
-1.52456
-1.46709
-1.44884
-1.4909
-1.4255
-1.25861
-1.25965
-1.25538
-1.27628
-1.17132
-1.12497
-1.07057
-0.983478
-0.932185
-0.910014
-0.954073
-0.938338
-0.903186
-0.940877
-0.865254
-0.936729
-0.937415
-0.86669
-0.810011
-0.803154
-0.767071
-0.79228
-0.825108
-0.720221
-0.670103
-0.630489
-0.56081
-0.499309
-0.494051
-0.246411
-0.303118
-0.287299
-0.343215
-0.317073
-0.324362
-0.35904
-0.314359
-0.266189
-0.268585
-0.261359
-0.24193
-0.26714
-0.248295
-0.211287
-0.207211
-0.160061
-0.156542
-0.220944
-0.0779791
-5.02922
-5.1779
-5.26127
-5.33833
-5.37881
-5.38166
-5.25734
-5.13379
-5.09587
-5.00034
-4.78312
-4.66274
-4.54977
-4.42244
-4.26674
-4.12892
-3.89042
-3.66199
-3.36778
-3.12223
-4.2707
-4.42109
-4.50267
-4.58321
-4.63579
-4.64324
-4.50942
-4.45766
-4.34999
-4.24996
-4.08153
-4.01701
-3.98843
-3.79592
-3.70094
-3.52033
-3.34572
-3.10783
-2.8774
-2.60008
-3.62878
-3.66676
-3.76976
-3.83321
-3.84408
-3.87422
-3.79012
-3.7067
-3.77167
-3.49633
-3.44948
-3.35306
-3.32848
-3.21357
-3.14617
-3.0425
-2.82184
-2.66534
-2.4368
-2.25827
-2.90091
-3.04176
-3.16042
-3.18142
-3.14489
-3.11503
-3.13713
-3.08324
-2.96752
-2.94667
-2.80057
-2.77146
-2.64773
-2.66038
-2.48312
-2.39837
-2.35611
-2.15272
-1.94001
-1.83052
-2.24789
-2.40089
-2.34226
-2.39272
-2.428
-2.43935
-2.3875
-2.35579
-2.33852
-2.23148
-2.17439
-2.05271
-2.07484
-1.9899
-1.87732
-1.78369
-1.74173
-1.67676
-1.51853
-1.49867
-1.63613
-1.63743
-1.72429
-1.75505
-1.69369
-1.72433
-1.69097
-1.64206
-1.55761
-1.54416
-1.57449
-1.52601
-1.4761
-1.43959
-1.32035
-1.32011
-1.25534
-1.20811
-1.04753
-1.08882
-0.965983
-1.01787
-1.03003
-1.0492
-1.06802
-1.0265
-1.02351
-0.962391
-0.925121
-0.959866
-0.974248
-0.938029
-0.962295
-0.862706
-0.84879
-0.820159
-0.742204
-0.710203
-0.677485
-0.570964
-0.338398
-0.25591
-0.384321
-0.347518
-0.423323
-0.382939
-0.3221
-0.331728
-0.327791
-0.363965
-0.313452
-0.250825
-0.330258
-0.305128
-0.299212
-0.298275
-0.268171
-0.175919
-0.185801
-0.223026
-5.19662
-5.39398
-5.62271
-5.68231
-5.77374
-5.74619
-5.69437
-5.65446
-5.54011
-5.42715
-5.23618
-5.17896
-5.12431
-4.88975
-4.69396
-4.5123
-4.19064
-3.89981
-3.65664
-3.43714
-4.41561
-4.639
-4.78258
-4.91078
-5.00179
-4.93812
-4.87859
-4.85377
-4.69027
-4.64371
-4.51385
-4.44939
-4.3103
-4.17723
-4.03075
-3.87131
-3.62872
-3.35945
-3.12189
-2.85451
-3.77012
-3.901
-4.0024
-4.08363
-4.09254
-4.17203
-4.07636
-4.0548
-3.98526
-3.91697
-3.81202
-3.66506
-3.60169
-3.51236
-3.35061
-3.29515
-3.04867
-2.82179
-2.59075
-2.38414
-3.03092
-3.06642
-3.21527
-3.29405
-3.37671
-3.37486
-3.42204
-3.31287
-3.22852
-3.16007
-3.12239
-3.07057
-2.92303
-2.84869
-2.71125
-2.59765
-2.53066
-2.3314
-2.10992
-1.94393
-2.29048
-2.46947
-2.50674
-2.58637
-2.57909
-2.66366
-2.55419
-2.57172
-2.51415
-2.50086
-2.43116
-2.31789
-2.23342
-2.25187
-2.10085
-2.0619
-1.9709
-1.84134
-1.61065
-1.50854
-1.66736
-1.7588
-1.7284
-1.84351
-1.82023
-1.84
-1.79683
-1.8802
-1.79448
-1.77879
-1.75929
-1.65395
-1.60467
-1.59132
-1.51007
-1.45742
-1.36743
-1.30091
-1.19445
-1.08748
-1.09154
-1.03821
-1.0501
-1.08599
-1.13375
-1.09192
-1.11084
-1.06905
-1.00347
-1.01343
-1.00519
-0.985981
-1.01262
-1.00577
-0.888683
-0.875829
-0.814562
-0.717546
-0.723854
-0.645069
-0.293921
-0.307266
-0.403548
-0.388548
-0.356359
-0.311828
-0.366453
-0.343019
-0.340673
-0.319651
-0.335931
-0.284717
-0.27603
-0.348988
-0.255552
-0.315843
-0.249589
-0.25326
-0.281161
-0.228702
-5.28111
-5.45954
-5.6575
-5.86974
-5.97759
-6.00915
-5.97777
-6.007
-5.90013
-5.82801
-5.61301
-5.54655
-5.39022
-5.23485
-4.98757
-4.75008
-4.41764
-4.22719
-3.797
-3.47759
-4.55576
-4.68427
-4.81467
-5.00826
-5.18815
-5.11179
-5.18867
-5.04588
-5.05576
-4.89512
-4.81627
-4.71806
-4.62939
-4.43732
-4.30986
-4.08542
-3.79522
-3.52519
-3.26174
-3.00462
-3.81293
-3.99925
-4.04591
-4.20844
-4.2769
-4.33064
-4.30296
-4.28018
-4.21957
-4.07125
-4.05204
-3.94154
-3.92929
-3.77786
-3.60334
-3.48644
-3.23007
-3.00082
-2.74228
-2.4905
-3.11177
-3.17383
-3.24981
-3.47356
-3.43297
-3.50352
-3.4323
-3.48531
-3.45129
-3.37159
-3.33508
-3.19083
-3.09878
-2.94518
-2.89116
-2.77576
-2.61671
-2.45302
-2.21908
-1.987
-2.31786
-2.45178
-2.6209
-2.63293
-2.71462
-2.69024
-2.716
-2.60279
-2.69136
-2.6296
-2.56429
-2.49352
-2.40423
-2.32156
-2.25144
-2.15856
-1.98386
-1.92165
-1.77015
-1.59643
-1.70695
-1.70101
-1.835
-1.78657
-1.88511
-1.97374
-1.93949
-1.91063
-1.92043
-1.78343
-1.87141
-1.78919
-1.81636
-1.68903
-1.60911
-1.48367
-1.44215
-1.32147
-1.25102
-1.16704
-1.03959
-1.06067
-1.13951
-1.14387
-1.17779
-1.15092
-1.20811
-1.14188
-1.17154
-1.19411
-1.0849
-1.03162
-0.99485
-1.00528
-0.952189
-0.922738
-0.874096
-0.819873
-0.729559
-0.691398
-0.367904
-0.354414
-0.351315
-0.395284
-0.432052
-0.375158
-0.403022
-0.366658
-0.384835
-0.406823
-0.309029
-0.328873
-0.425868
-0.378764
-0.293957
-0.282211
-0.31134
-0.286439
-0.234355
-0.284731
-5.283
-5.48767
-5.69966
-5.96922
-6.01481
-6.09499
-6.2042
-6.20781
-6.07846
-5.94949
-5.86379
-5.69955
-5.58177
-5.33541
-5.10511
-4.86242
-4.62278
-4.25845
-3.93531
-3.55286
-4.48693
-4.66891
-4.85074
-5.04377
-5.20632
-5.25371
-5.23927
-5.21136
-5.16191
-5.16895
-4.97016
-4.98585
-4.76708
-4.62835
-4.31365
-4.16054
-3.88852
-3.67168
-3.299
-3.00164
-3.6972
-3.90515
-4.13181
-4.22253
-4.39849
-4.37473
-4.43896
-4.44156
-4.42371
-4.32314
-4.18035
-4.10254
-3.9828
-3.86515
-3.65447
-3.44617
-3.27831
-2.9935
-2.77204
-2.51748
-3.00439
-3.20188
-3.29325
-3.4237
-3.49016
-3.57083
-3.63155
-3.55167
-3.55754
-3.407
-3.40146
-3.42164
-3.29429
-3.18387
-2.93948
-2.86222
-2.68673
-2.41235
-2.26779
-2.03557
-2.24436
-2.40244
-2.61233
-2.62991
-2.73889
-2.73378
-2.77887
-2.79442
-2.7777
-2.72459
-2.6645
-2.55661
-2.51347
-2.41893
-2.28615
-2.21755
-2.00347
-1.88232
-1.69181
-1.55758
-1.71828
-1.75979
-1.82679
-1.83787
-1.90973
-1.91598
-2.02624
-2.01725
-1.96985
-1.96253
-1.89406
-1.87669
-1.76625
-1.73352
-1.6281
-1.55195
-1.45974
-1.36075
-1.2197
-1.09656
-0.988601
-0.963795
-1.06294
-1.11003
-1.14034
-1.20417
-1.18619
-1.17591
-1.15317
-1.13402
-1.16579
-1.1042
-1.07675
-1.05823
-0.92878
-0.983227
-0.898505
-0.858841
-0.796374
-0.674754
-0.383501
-0.379627
-0.389122
-0.372696
-0.392546
-0.380149
-0.411721
-0.481655
-0.433954
-0.382343
-0.392345
-0.402225
-0.340481
-0.33308
-0.298209
-0.328222
-0.255205
-0.23034
-0.298635
-0.179028
-4.98
-5.333
-5.6482
-5.85014
-6.0011
-6.06637
-6.18459
-6.21773
-6.12158
-6.10599
-5.93567
-5.8188
-5.60578
-5.51392
-5.19362
-4.83551
-4.63506
-4.22097
-3.81614
-3.38541
-4.27736
-4.57892
-4.75613
-5.0231
-5.16511
-5.22608
-5.37019
-5.28371
-5.24051
-5.25583
-5.09901
-4.98029
-4.71072
-4.65875
-4.51964
-4.15005
-3.86926
-3.58617
-3.22318
-2.86042
-3.60021
-3.77946
-3.94824
-4.21797
-4.26233
-4.42762
-4.47769
-4.38476
-4.40527
-4.2637
-4.25832
-4.17555
-4.0632
-3.94661
-3.68071
-3.52198
-3.23401
-3.00828
-2.68751
-2.41721
-2.92661
-3.07909
-3.27235
-3.36132
-3.53038
-3.59402
-3.56423
-3.54951
-3.58537
-3.48718
-3.43523
-3.40985
-3.2962
-3.13015
-3.01814
-2.88213
-2.62444
-2.42033
-2.10907
-1.94537
-2.26308
-2.27937
-2.46245
-2.49161
-2.63519
-2.73619
-2.77009
-2.78819
-2.7533
-2.77297
-2.63936
-2.61769
-2.49098
-2.39691
-2.29551
-2.23945
-2.06504
-1.96184
-1.66832
-1.4909
-1.60731
-1.62216
-1.76815
-1.88457
-1.92552
-1.96438
-1.99089
-2.01264
-1.92296
-1.98308
-1.92237
-1.89553
-1.86065
-1.71615
-1.66291
-1.54633
-1.44355
-1.35195
-1.21349
-1.01931
-0.918706
-1.01392
-1.09783
-1.02673
-1.09184
-1.17817
-1.20571
-1.2344
-1.12446
-1.15509
-1.10063
-1.09304
-1.13606
-1.06884
-1.01697
-0.918494
-0.851161
-0.80305
-0.731381
-0.64104
-0.311122
-0.374721
-0.349211
-0.339853
-0.407978
-0.439601
-0.419297
-0.412163
-0.416304
-0.435356
-0.352646
-0.316942
-0.349341
-0.3683
-0.363663
-0.323697
-0.319087
-0.271599
-0.203184
-0.282112
-4.67496
-5.0671
-5.31786
-5.66596
-5.88409
-6.01572
-6.02059
-6.1327
-6.10949
-5.91278
-5.87468
-5.77519
-5.6317
-5.32053
-5.06143
-4.83088
-4.37834
-4.00847
-3.57583
-3.16316
-3.98203
-4.30478
-4.67422
-4.80117
-5.00445
-5.15743
-5.23935
-5.22507
-5.20118
-5.18511
-5.0479
-4.89589
-4.82551
-4.55606
-4.35524
-4.07626
-3.72168
-3.43559
-2.97401
-2.65266
-3.31917
-3.54187
-3.83889
-3.96617
-4.15731
-4.28934
-4.40689
-4.34703
-4.34018
-4.34566
-4.26432
-4.19418
-3.92077
-3.83222
-3.57114
-3.34893
-3.10217
-2.86347
-2.44235
-2.23325
-2.71874
-2.8094
-3.08996
-3.22593
-3.34591
-3.47402
-3.53381
-3.50679
-3.49429
-3.46949
-3.42998
-3.41289
-3.24414
-3.15241
-2.91914
-2.73552
-2.57485
-2.29032
-1.95202
-1.8057
-2.07154
-2.21186
-2.4142
-2.51752
-2.63646
-2.71515
-2.75153
-2.7223
-2.74359
-2.65361
-2.60073
-2.62911
-2.49249
-2.41009
-2.2097
-2.15538
-1.91796
-1.86208
-1.55625
-1.37094
-1.49088
-1.55405
-1.67665
-1.80779
-1.87328
-1.92538
-1.9138
-1.97966
-1.89994
-1.91188
-1.88984
-1.85313
-1.80539
-1.73873
-1.61026
-1.56477
-1.34723
-1.23027
-1.07128
-1.00028
-0.850492
-1.01147
-1.01093
-1.02662
-1.12768
-1.13254
-1.13581
-1.19455
-1.14163
-1.09242
-1.12617
-1.07776
-1.08595
-0.972807
-0.943164
-0.8969
-0.834432
-0.721275
-0.609684
-0.568061
-0.337178
-0.298327
-0.345954
-0.371699
-0.388602
-0.344938
-0.41443
-0.430673
-0.38221
-0.377306
-0.29881
-0.392678
-0.294612
-0.322545
-0.306518
-0.248785
-0.317039
-0.230036
-0.200677
-0.192618
-4.34118
-4.61886
-4.98829
-5.35011
-5.50747
-5.70857
-5.77936
-5.85489
-5.88023
-5.81698
-5.67197
-5.55437
-5.41349
-5.1669
-4.80847
-4.5244
-4.14037
-3.68981
-3.16228
-2.81235
-3.64245
-3.93861
-4.28497
-4.57741
-4.75185
-4.8685
-4.92947
-4.97272
-5.01641
-4.96219
-4.89919
-4.73659
-4.54577
-4.33818
-4.13373
-3.85513
-3.44664
-3.16087
-2.76118
-2.3108
-3.02078
-3.24453
-3.55668
-3.77607
-3.93717
-4.06324
-4.11783
-4.19299
-4.17513
-4.10381
-4.06693
-3.97935
-3.77944
-3.69436
-3.44254
-3.23985
-2.89822
-2.60249
-2.22696
-1.94629
-2.45156
-2.67606
-2.86197
-3.00672
-3.19836
-3.29684
-3.39159
-3.33546
-3.33756
-3.40284
-3.31226
-3.24022
-3.11044
-2.96475
-2.81044
-2.63109
-2.36816
-2.13139
-1.9024
-1.54238
-1.91817
-2.07866
-2.12573
-2.43172
-2.52376
-2.55139
-2.58166
-2.59759
-2.62149
-2.58845
-2.55965
-2.49328
-2.39877
-2.25176
-2.11904
-2.05244
-1.81355
-1.62503
-1.38387
-1.16707
-1.41458
-1.40308
-1.54418
-1.64679
-1.75851
-1.84813
-1.90206
-1.81852
-1.88705
-1.80829
-1.81126
-1.76113
-1.70039
-1.58203
-1.54313
-1.36588
-1.23991
-1.16994
-0.979938
-0.88255
-0.742854
-0.949658
-0.899129
-0.966673
-1.0646
-1.06641
-1.06089
-1.13815
-1.1789
-1.05649
-1.06375
-1.08541
-1.03409
-0.979743
-0.94442
-0.915653
-0.732046
-0.690422
-0.61058
-0.443496
-0.325022
-0.225216
-0.243573
-0.323172
-0.318423
-0.31301
-0.409596
-0.384376
-0.39243
-0.365884
-0.407716
-0.395683
-0.296824
-0.302249
-0.267075
-0.300686
-0.22688
-0.279753
-0.249052
-0.244384
-3.75665
-4.08654
-4.4769
-4.82242
-5.14133
-5.33166
-5.48554
-5.52145
-5.53381
-5.52
-5.32844
-5.15889
-5.05841
-4.74921
-4.5019
-4.12204
-3.70131
-3.29481
-2.76002
-2.41101
-3.17648
-3.49798
-3.7699
-4.16806
-4.31646
-4.51046
-4.62186
-4.67715
-4.67264
-4.65016
-4.61647
-4.45379
-4.27799
-4.136
-3.75898
-3.45143
-3.16023
-2.71094
-2.27543
-1.95245
-2.60598
-2.86307
-3.19065
-3.38309
-3.70042
-3.74299
-3.86471
-3.9409
-3.91118
-3.83191
-3.79531
-3.71582
-3.55892
-3.44746
-3.22584
-2.8715
-2.64792
-2.27986
-1.98335
-1.64785
-2.14803
-2.3419
-2.55997
-2.78191
-2.90774
-2.99567
-3.12658
-3.19405
-3.23425
-3.17587
-3.12083
-3.00432
-2.88731
-2.71422
-2.56755
-2.3493
-2.0969
-1.85287
-1.52351
-1.29728
-1.64374
-1.75865
-1.95866
-2.12073
-2.25591
-2.37354
-2.42536
-2.37925
-2.38762
-2.49498
-2.41099
-2.31021
-2.26496
-2.09583
-1.98841
-1.86635
-1.58183
-1.39899
-1.22901
-0.988753
-1.12049
-1.30411
-1.36983
-1.58326
-1.59651
-1.57514
-1.65695
-1.76323
-1.74164
-1.77416
-1.71551
-1.63662
-1.59201
-1.54979
-1.40206
-1.2564
-1.2133
-1.06997
-0.822864
-0.7724
-0.691299
-0.794924
-0.755104
-0.908844
-0.967872
-0.994311
-0.996104
-1.04275
-1.04018
-0.955818
-1.00447
-1.01928
-0.954093
-0.876235
-0.823966
-0.716296
-0.638306
-0.578335
-0.542034
-0.404792
-0.17815
-0.247551
-0.266423
-0.318414
-0.296851
-0.289513
-0.361972
-0.319102
-0.404408
-0.350734
-0.277449
-0.384053
-0.304201
-0.27656
-0.218242
-0.296476
-0.259154
-0.210248
-0.205749
-0.118924
-3.17176
-3.56577
-3.95851
-4.34203
-4.65291
-4.87408
-5.04677
-5.13022
-5.08276
-5.1146
-4.9992
-4.83069
-4.65378
-4.41018
-4.1242
-3.74166
-3.19023
-2.7947
-2.26658
-1.77348
-2.65873
-2.99264
-3.42791
-3.62678
-3.96531
-4.18124
-4.22917
-4.34155
-4.33521
-4.29946
-4.19548
-4.15115
-3.8656
-3.71994
-3.45916
-3.134
-2.80789
-2.36046
-1.90351
-1.53439
-2.18739
-2.48046
-2.76017
-3.04807
-3.26049
-3.46452
-3.59293
-3.67021
-3.59212
-3.61803
-3.52829
-3.4489
-3.30652
-3.09615
-2.93253
-2.63207
-2.32919
-1.88169
-1.52263
-1.12956
-1.80466
-2.02144
-2.24473
-2.42742
-2.65585
-2.76639
-2.97171
-2.86063
-2.9761
-2.89428
-2.85927
-2.75823
-2.72604
-2.52514
-2.37242
-2.17045
-1.81414
-1.44895
-1.2596
-0.947128
-1.37477
-1.53578
-1.73341
-1.91112
-2.07562
-2.16211
-2.22274
-2.27135
-2.31671
-2.29047
-2.18072
-2.11965
-2.06493
-1.97483
-1.76608
-1.62286
-1.42405
-1.18432
-0.92448
-0.718853
-0.991689
-1.09408
-1.23907
-1.40467
-1.49843
-1.5138
-1.6263
-1.63912
-1.63768
-1.60887
-1.58517
-1.48039
-1.49925
-1.34719
-1.2363
-1.16808
-1.00142
-0.790457
-0.702045
-0.488629
-0.563894
-0.603417
-0.70015
-0.801812
-0.808967
-0.967655
-0.944993
-0.890354
-1.02414
-0.899003
-0.955351
-0.868983
-0.895683
-0.842251
-0.728624
-0.69704
-0.686103
-0.517498
-0.410589
-0.328935
-0.155943
-0.219584
-0.222233
-0.266546
-0.285415
-0.288183
-0.311013
-0.293666
-0.344579
-0.314805
-0.342741
-0.377096
-0.361035
-0.294001
-0.288032
-0.220879
-0.22571
-0.16255
-0.115634
-0.151743
-2.59215
-3.04814
-3.47608
-3.92718
-4.20253
-4.42574
-4.64014
-4.76197
-4.71117
-4.72424
-4.54993
-4.50665
-4.20437
-3.98831
-3.66853
-3.27964
-2.86445
-2.30473
-1.81836
-1.3989
-2.2362
-2.60719
-2.88395
-3.30747
-3.61423
-3.78627
-3.94353
-3.99748
-4.07373
-4.04307
-3.94894
-3.80605
-3.67852
-3.38184
-3.09082
-2.78902
-2.42715
-2.019
-1.5665
-1.13175
-1.91099
-2.14373
-2.46068
-2.80677
-3.03018
-3.16801
-3.27036
-3.37341
-3.45991
-3.41425
-3.40593
-3.13876
-3.01922
-2.86148
-2.62635
-2.3414
-2.02929
-1.61678
-1.23804
-0.966002
-1.50859
-1.70111
-2.02478
-2.23504
-2.38014
-2.59749
-2.68366
-2.70622
-2.79776
-2.70187
-2.7051
-2.64147
-2.49795
-2.29248
-2.1287
-1.89868
-1.62221
-1.38216
-1.0114
-0.756752
-1.14344
-1.23861
-1.48161
-1.72796
-1.89903
-1.97662
-2.08195
-2.12794
-2.0564
-2.13898
-2.0664
-2.00109
-1.93862
-1.72035
-1.57782
-1.47388
-1.30171
-0.970019
-0.835648
-0.549871
-0.850353
-0.986235
-1.09463
-1.2252
-1.37157
-1.44038
-1.48264
-1.52506
-1.5598
-1.47955
-1.48413
-1.45222
-1.3289
-1.26414
-1.17954
-1.05789
-0.87946
-0.773055
-0.565707
-0.410744
-0.511559
-0.556675
-0.63905
-0.740331
-0.728839
-0.824164
-0.892226
-0.880648
-0.854067
-0.902241
-0.846053
-0.867441
-0.780523
-0.801298
-0.645726
-0.670021
-0.612269
-0.464052
-0.384758
-0.249083
-0.139049
-0.184754
-0.183948
-0.208419
-0.276341
-0.286863
-0.261263
-0.255379
-0.390859
-0.303202
-0.307964
-0.334771
-0.314374
-0.314802
-0.27333
-0.218471
-0.192327
-0.140685
-0.121713