/*--------------------------------*- C++ -*----------------------------------*\
| =========                 |                                                 |
| \\      /  F ield         | OpenFOAM: The Open Source CFD Toolbox           |
|  \\    /   O peration     | Version:  2212                                  |
|   \\  /    A nd           | Website:  www.openfoam.com                      |
|    \\/     M anipulation  |                                                 |
\*---------------------------------------------------------------------------*/
FoamFile
{
    version     2.0;
    format      ascii;
    arch        "LSB;label=32;scalar=64";
    class       volScalarField;
    location    "0";
    object      stateMean;
}
// * * * * * * * * * * * * * * * * * * * * * * * * * * * * * * * * * * * * * //

dimensions      [0 0 0 1 0 0 0];

internalField   nonuniform List<scalar> 
3200
(
317.066
317.089
317.207
317.078
317.104
317.01
316.922
316.861
316.63
316.507
316.408
316.226
316.082
315.841
315.681
315.552
315.342
315.152
314.961
314.85
314.887
315.001
315.033
314.906
314.932
314.885
314.727
314.715
314.533
314.511
314.311
314.288
314.104
313.887
313.784
313.658
313.469
313.299
313.1
313.003
312.755
312.677
312.726
312.775
312.634
312.673
312.601
312.547
312.428
312.304
312.206
312.072
312.046
311.86
311.737
311.629
311.486
311.34
311.223
311.086
310.407
310.496
310.461
310.474
310.465
310.493
310.378
310.365
310.223
310.165
310.029
309.953
309.866
309.744
309.737
309.612
309.533
309.306
309.186
309.131
308.113
308.181
308.141
308.228
308.183
308.096
308.108
308.105
308.031
308.013
307.946
307.842
307.773
307.633
307.607
307.526
307.418
307.303
307.224
307.119
305.846
305.82
305.9
305.9
305.903
305.832
305.835
305.862
305.804
305.731
305.736
305.598
305.541
305.475
305.488
305.372
305.304
305.254
305.241
305.075
303.549
303.556
303.547
303.549
303.514
303.571
303.527
303.428
303.506
303.375
303.429
303.356
303.354
303.379
303.301
303.286
303.225
303.209
303.146
303.171
301.17
301.143
301.255
301.208
301.149
301.213
301.19
301.134
301.146
301.191
301.199
301.128
301.079
301.078
301.151
301.047
301.124
301.067
301.061
301.093
317.768
317.832
317.933
317.899
317.955
317.802
317.666
317.627
317.482
317.307
317.237
317.081
316.821
316.66
316.5
316.313
316.196
315.91
315.728
315.512
315.473
315.609
315.562
315.533
315.587
315.51
315.483
315.381
315.215
315.145
314.992
314.869
314.703
314.548
314.419
314.228
314.084
313.872
313.723
313.55
313.215
313.236
313.305
313.242
313.291
313.231
313.145
313.114
313.009
312.872
312.792
312.651
312.52
312.394
312.295
312.132
311.983
311.896
311.698
311.57
310.829
310.858
310.832
310.971
310.89
310.824
310.852
310.736
310.719
310.579
310.53
310.466
310.31
310.235
310.129
310.016
309.859
309.765
309.63
309.519
308.424
308.501
308.505
308.517
308.505
308.484
308.412
308.415
308.332
308.3
308.236
308.15
308.113
308.011
307.926
307.752
307.772
307.566
307.513
307.449
306.089
306.09
306.053
306.067
306.097
306.054
306.045
305.993
305.961
305.906
305.949
305.834
305.8
305.753
305.649
305.59
305.506
305.514
305.362
305.363
303.66
303.645
303.633
303.655
303.661
303.655
303.596
303.658
303.653
303.554
303.614
303.538
303.5
303.454
303.391
303.372
303.386
303.264
303.275
303.249
301.254
301.205
301.241
301.305
301.197
301.292
301.281
301.253
301.152
301.194
301.119
301.194
301.162
301.166
301.112
301.207
301.11
301.074
301.023
301.136
318.816
318.837
318.875
318.974
318.936
318.893
318.779
318.714
318.558
318.427
318.281
318.106
318.007
317.878
317.573
317.459
317.232
317.043
316.711
316.547
316.359
316.309
316.422
316.502
316.476
316.474
316.392
316.308
316.224
316.1
315.911
315.764
315.697
315.592
315.312
315.184
314.992
314.821
314.604
314.431
313.825
313.898
313.979
314.034
314.004
314.016
313.908
313.865
313.825
313.69
313.635
313.418
313.282
313.146
312.987
312.955
312.71
312.553
312.397
312.248
311.381
311.411
311.449
311.508
311.462
311.528
311.42
311.407
311.377
311.251
311.177
311.072
310.89
310.803
310.72
310.616
310.48
310.457
310.151
310.104
308.822
308.859
308.935
308.936
308.936
308.989
308.915
308.826
308.918
308.798
308.775
308.655
308.55
308.511
308.389
308.338
308.189
308.071
307.954
307.865
306.404
306.351
306.435
306.363
306.456
306.42
306.385
306.309
306.312
306.334
306.239
306.179
306.108
306.085
306
305.956
305.868
305.779
305.694
305.623
303.839
303.846
303.854
303.833
303.833
303.864
303.857
303.833
303.759
303.729
303.808
303.775
303.727
303.652
303.611
303.556
303.56
303.484
303.406
303.388
301.307
301.29
301.362
301.3
301.322
301.251
301.333
301.307
301.293
301.288
301.249
301.259
301.261
301.223
301.272
301.253
301.245
301.123
301.148
301.146
319.812
319.868
320.017
320.042
320.052
320.062
320.023
319.874
319.909
319.647
319.534
319.467
319.183
319.001
318.817
318.578
318.247
318.117
317.809
317.622
317.19
317.337
317.469
317.523
317.45
317.44
317.439
317.305
317.24
317.12
317.044
316.868
316.753
316.56
316.463
316.161
315.918
315.708
315.555
315.368
314.596
314.716
314.752
314.82
314.832
314.818
314.747
314.738
314.637
314.539
314.454
314.375
314.225
314.041
313.87
313.796
313.597
313.429
313.194
313.092
311.98
312.072
312.079
312.193
312.217
312.181
312.145
312.009
312.006
311.874
311.932
311.799
311.61
311.51
311.474
311.297
311.156
311.018
310.85
310.757
309.327
309.423
309.467
309.512
309.516
309.55
309.498
309.424
309.374
309.266
309.262
309.178
309.183
309.058
308.869
308.854
308.773
308.603
308.536
308.438
306.725
306.703
306.749
306.854
306.821
306.806
306.716
306.702
306.726
306.677
306.653
306.549
306.517
306.458
306.437
306.304
306.237
306.154
306.041
305.983
304.043
304.019
304.117
304.094
304.079
304.094
304.103
304.062
304.029
303.988
303.985
303.981
303.989
303.809
303.902
303.815
303.802
303.745
303.679
303.619
301.366
301.375
301.403
301.414
301.414
301.366
301.402
301.336
301.445
301.385
301.315
301.354
301.304
301.315
301.318
301.304
301.283
301.244
301.332
301.221
320.922
321.03
321.183
321.223
321.29
321.232
321.215
321.169
321.052
320.945
320.786
320.65
320.416
320.24
320.1
319.91
319.547
319.329
318.949
318.755
318.127
318.342
318.464
318.451
318.614
318.481
318.437
318.479
318.273
318.288
318.114
317.989
317.809
317.643
317.446
317.278
317.05
316.753
316.544
316.342
315.472
315.51
315.605
315.68
315.723
315.655
315.718
315.658
315.638
315.463
315.36
315.271
315.09
315.018
314.807
314.638
314.453
314.25
314.075
313.906
312.636
312.687
312.804
312.883
312.919
312.874
312.94
312.824
312.822
312.751
312.637
312.539
312.411
312.359
312.17
312.02
311.851
311.693
311.529
311.418
309.921
309.942
309.983
310.001
310.063
310.119
310.008
310.021
309.957
309.931
309.887
309.849
309.74
309.587
309.429
309.372
309.324
309.145
308.994
308.838
307.122
307.096
307.126
307.22
307.19
307.198
307.263
307.209
307.121
307.082
307.053
307.049
306.91
306.814
306.827
306.664
306.665
306.548
306.471
306.351
304.22
304.269
304.291
304.361
304.301
304.349
304.328
304.334
304.3
304.244
304.251
304.194
304.122
304.152
304.035
304.068
304.029
303.929
303.936
303.849
301.385
301.439
301.451
301.517
301.457
301.453
301.509
301.532
301.383
301.408
301.489
301.443
301.411
301.351
301.334
301.366
301.362
301.311
301.275
301.247
321.957
322.208
322.252
322.415
322.514
322.515
322.465
322.479
322.322
322.223
322.068
321.913
321.739
321.581
321.294
321.095
320.758
320.501
320.186
319.908
319.154
319.212
319.406
319.513
319.531
319.518
319.564
319.505
319.378
319.372
319.319
319.037
318.958
318.731
318.563
318.373
318.104
317.784
317.559
317.33
316.242
316.386
316.479
316.586
316.649
316.659
316.586
316.584
316.482
316.393
316.346
316.119
316.018
315.881
315.751
315.578
315.365
315.118
314.957
314.693
313.338
313.394
313.513
313.569
313.634
313.659
313.588
313.584
313.549
313.553
313.41
313.292
313.177
313.081
312.955
312.756
312.618
312.42
312.254
312.096
310.423
310.469
310.575
310.592
310.668
310.641
310.701
310.635
310.584
310.554
310.461
310.451
310.259
310.18
310.068
309.941
309.85
309.787
309.535
309.443
307.47
307.478
307.526
307.607
307.599
307.642
307.589
307.584
307.656
307.551
307.549
307.448
307.447
307.34
307.262
307.129
307.005
306.931
306.855
306.823
304.447
304.53
304.529
304.545
304.512
304.626
304.571
304.575
304.533
304.514
304.477
304.436
304.508
304.378
304.411
304.335
304.245
304.212
304.078
304.051
301.462
301.495
301.531
301.574
301.569
301.549
301.524
301.558
301.506
301.514
301.512
301.485
301.495
301.485
301.389
301.421
301.359
301.473
301.334
301.407
323.112
323.286
323.471
323.597
323.772
323.76
323.764
323.756
323.651
323.522
323.313
323.241
323.019
322.882
322.583
322.297
321.988
321.657
321.321
320.986
320.084
320.292
320.4
320.508
320.673
320.66
320.661
320.721
320.549
320.476
320.339
320.166
320.059
319.865
319.668
319.425
319.107
318.922
318.521
318.297
317.056
317.257
317.305
317.408
317.477
317.578
317.581
317.43
317.458
317.408
317.311
317.164
316.962
316.814
316.665
316.417
316.343
315.997
315.763
315.561
314.024
314.057
314.176
314.312
314.367
314.419
314.44
314.304
314.289
314.273
314.174
314.084
313.952
313.864
313.72
313.508
313.389
313.113
312.959
312.795
310.915
310.957
311.106
311.172
311.206
311.194
311.193
311.232
311.149
311.173
311.081
310.986
310.91
310.778
310.604
310.556
310.418
310.277
310.106
310.008
307.86
307.834
307.953
308.017
308.039
308.008
308.039
308.053
308.069
307.988
307.953
307.86
307.774
307.828
307.606
307.615
307.506
307.389
307.203
307.194
304.719
304.74
304.797
304.806
304.89
304.838
304.894
304.83
304.754
304.781
304.767
304.676
304.659
304.678
304.551
304.467
304.449
304.391
304.39
304.306
301.598
301.51
301.597
301.605
301.596
301.612
301.643
301.609
301.597
301.584
301.644
301.635
301.575
301.554
301.569
301.487
301.482
301.496
301.461
301.465
324.21
324.408
324.585
324.807
324.94
324.938
324.966
324.967
324.865
324.754
324.658
324.499
324.262
324.091
323.751
323.498
323.208
322.791
322.48
322.145
321.084
321.224
321.354
321.499
321.71
321.696
321.702
321.712
321.734
321.562
321.426
321.225
321.217
320.857
320.709
320.477
320.151
319.881
319.541
319.205
317.88
317.99
318.187
318.285
318.381
318.467
318.442
318.507
318.398
318.308
318.195
318.079
317.959
317.767
317.619
317.387
317.109
316.913
316.622
316.401
314.619
314.79
314.83
315.018
315.061
315.117
315.068
315.107
315.106
315.075
314.907
314.854
314.785
314.591
314.364
314.215
314.093
313.912
313.629
313.442
311.437
311.517
311.6
311.713
311.699
311.823
311.773
311.809
311.781
311.674
311.65
311.581
311.458
311.409
311.265
311.091
311.003
310.765
310.634
310.498
308.242
308.295
308.322
308.338
308.428
308.492
308.444
308.44
308.436
308.384
308.371
308.289
308.206
308.156
308.086
307.988
307.902
307.757
307.664
307.531
304.913
304.908
304.967
305.01
305.092
305.04
305.11
305.066
305.101
305.082
305.02
304.999
304.949
304.893
304.8
304.755
304.782
304.66
304.573
304.56
301.617
301.659
301.713
301.658
301.687
301.726
301.627
301.691
301.656
301.639
301.655
301.71
301.701
301.526
301.598
301.61
301.687
301.585
301.546
301.566
325.267
325.477
325.753
325.919
326.09
326.132
326.249
326.239
326.173
326.018
325.887
325.744
325.533
325.34
324.968
324.722
324.349
323.946
323.621
323.349
321.968
322.126
322.391
322.511
322.627
322.744
322.811
322.727
322.773
322.706
322.533
322.361
322.212
321.962
321.755
321.451
321.229
320.836
320.543
320.219
318.596
318.791
318.99
319.121
319.209
319.312
319.303
319.388
319.252
319.222
319.093
319.061
318.844
318.709
318.47
318.273
318.055
317.798
317.422
317.221
315.246
315.425
315.573
315.675
315.773
315.784
315.884
315.79
315.909
315.805
315.692
315.538
315.456
315.291
315.157
314.955
314.792
314.563
314.326
314.137
311.904
311.997
312.093
312.211
312.395
312.361
312.321
312.389
312.341
312.308
312.3
312.168
312.114
311.982
311.817
311.646
311.538
311.291
311.191
310.983
308.488
308.564
308.679
308.762
308.791
308.826
308.819
308.857
308.854
308.807
308.735
308.69
308.656
308.549
308.472
308.372
308.202
308.154
308.015
307.911
305.124
305.144
305.222
305.28
305.288
305.281
305.263
305.344
305.272
305.249
305.335
305.222
305.167
305.096
305.122
305.051
304.96
304.855
304.813
304.752
301.703
301.749
301.757
301.783
301.77
301.791
301.779
301.841
301.826
301.805
301.812
301.678
301.772
301.719
301.735
301.698
301.735
301.607
301.644
301.629
326.23
326.605
326.862
327.038
327.193
327.297
327.35
327.357
327.334
327.282
327.163
326.936
326.724
326.525
326.215
325.936
325.554
325.192
324.652
324.336
322.86
323.133
323.295
323.475
323.644
323.744
323.792
323.808
323.849
323.748
323.597
323.391
323.287
323.036
322.827
322.539
322.151
321.802
321.523
321.182
319.406
319.557
319.842
319.941
320.009
320.126
320.215
320.196
320.176
320.092
319.992
319.951
319.827
319.619
319.358
319.165
318.828
318.616
318.268
317.996
315.942
316.063
316.226
316.358
316.525
316.561
316.588
316.606
316.536
316.485
316.413
316.321
316.144
316.092
315.892
315.682
315.491
315.254
315.061
314.803
312.385
312.575
312.708
312.766
312.793
312.825
312.994
312.961
312.879
312.908
312.836
312.72
312.65
312.558
312.379
312.198
312.131
311.861
311.716
311.559
308.917
309.034
309.035
309.159
309.256
309.148
309.241
309.227
309.24
309.299
309.233
309.05
309.02
308.971
308.939
308.774
308.666
308.549
308.403
308.308
305.349
305.419
305.438
305.441
305.516
305.476
305.58
305.606
305.555
305.508
305.501
305.455
305.461
305.468
305.331
305.245
305.168
305.061
304.964
304.933
301.735
301.801
301.797
301.865
301.852
301.871
301.917
301.881
301.839
301.845
301.837
301.815
301.834
301.806
301.758
301.742
301.682
301.667
301.719
301.567
327.317
327.599
327.847
328.098
328.312
328.479
328.501
328.498
328.545
328.494
328.277
328.112
327.914
327.666
327.364
327.062
326.65
326.248
325.789
325.41
323.716
323.979
324.204
324.434
324.637
324.786
324.779
324.832
324.798
324.737
324.569
324.465
324.362
324.066
323.844
323.521
323.197
322.809
322.435
322.045
320.178
320.31
320.533
320.723
320.861
321.011
321.035
321.039
321.167
320.924
320.877
320.748
320.66
320.459
320.283
320.059
319.712
319.428
319.08
318.807
316.508
316.724
316.94
317.065
317.133
317.201
317.311
317.329
317.265
317.271
317.125
317.068
316.894
316.834
316.569
316.386
316.24
315.933
315.622
315.438
312.874
313.085
313.102
313.234
313.35
313.437
313.453
313.478
313.501
313.414
313.357
313.215
313.197
313.056
312.875
312.706
312.583
312.437
312.203
312.125
309.251
309.293
309.435
309.523
309.52
309.605
309.62
309.611
309.556
309.557
309.587
309.524
309.445
309.369
309.201
309.146
309.023
308.919
308.704
308.704
305.549
305.626
305.67
305.724
305.777
305.769
305.796
305.758
305.738
305.782
305.796
305.751
305.758
305.635
305.591
305.529
305.417
305.35
305.285
305.154
301.876
301.802
301.941
301.916
302.003
301.974
301.923
301.941
301.943
301.982
301.931
301.866
301.939
301.906
301.89
301.878
301.836
301.733
301.732
301.761
328.259
328.581
328.963
329.182
329.433
329.555
329.635
329.704
329.667
329.594
329.403
329.306
329.174
328.831
328.503
328.171
327.691
327.24
326.844
326.499
324.537
324.865
325.141
325.408
325.637
325.703
325.759
325.828
325.73
325.719
325.589
325.489
325.284
325.057
324.796
324.506
324.126
323.717
323.348
322.976
320.894
321.112
321.325
321.524
321.65
321.838
321.84
321.898
321.885
321.846
321.741
321.565
321.445
321.276
321.017
320.852
320.489
320.145
319.802
319.508
317.111
317.216
317.456
317.631
317.809
317.897
318.023
317.979
317.942
317.897
317.859
317.784
317.589
317.45
317.233
317.03
316.868
316.572
316.26
316.024
313.285
313.518
313.627
313.781
313.848
314.002
313.954
314.023
314.001
314.007
313.937
313.805
313.684
313.652
313.439
313.331
313.166
312.961
312.66
312.504
309.547
309.677
309.696
309.866
309.895
309.965
309.966
310.085
310.025
310.023
310.003
309.885
309.81
309.76
309.635
309.532
309.389
309.269
309.112
308.967
305.834
305.803
305.845
305.913
305.993
305.981
306.027
306.006
305.956
305.974
305.966
305.939
305.95
305.922
305.778
305.735
305.642
305.513
305.489
305.387
301.885
301.906
302.013
302.009
301.986
301.952
302.015
302
302.003
301.984
302
301.947
301.933
301.998
301.896
301.946
301.87
301.862
301.88
301.82
329.193
329.487
329.826
330.186
330.439
330.606
330.695
330.822
330.784
330.748
330.533
330.431
330.205
329.952
329.585
329.211
328.734
328.396
327.824
327.39
325.418
325.644
325.897
326.218
326.523
326.565
326.746
326.688
326.758
326.628
326.549
326.42
326.271
325.994
325.763
325.42
325.005
324.607
324.222
323.867
321.568
321.835
321.985
322.255
322.43
322.584
322.644
322.693
322.683
322.56
322.541
322.405
322.342
322.119
321.856
321.639
321.277
320.94
320.578
320.246
317.71
317.837
317.997
318.31
318.356
318.508
318.508
318.62
318.627
318.57
318.533
318.367
318.234
318.021
317.895
317.699
317.453
317.2
316.882
316.585
313.718
313.902
314.136
314.217
314.367
314.405
314.487
314.42
314.54
314.496
314.43
314.343
314.221
314.093
313.966
313.811
313.568
313.437
313.22
312.996
309.877
309.907
310.087
310.088
310.235
310.369
310.374
310.379
310.411
310.286
310.374
310.28
310.284
310.124
310.004
309.834
309.743
309.573
309.457
309.337
305.957
305.999
306.106
306.14
306.203
306.203
306.284
306.237
306.281
306.31
306.201
306.141
306.09
306.081
306.004
305.948
305.87
305.786
305.668
305.608
302.018
302.011
302.017
302.071
302.118
302.07
302.106
302.077
302.099
302.124
302.026
302.043
302.136
302.082
301.989
301.968
301.987
301.952
301.891
301.935
330.119
330.431
330.773
331.177
331.355
331.558
331.775
331.867
331.799
331.702
331.617
331.421
331.241
330.906
330.568
330.202
329.831
329.331
328.878
328.389
326.155
326.427
326.722
327.032
327.308
327.463
327.542
327.59
327.595
327.629
327.43
327.419
327.146
326.931
326.523
326.263
325.877
325.543
325.057
324.67
322.138
322.421
322.742
322.932
323.204
323.271
323.415
323.482
323.51
323.432
323.289
323.189
323.023
322.841
322.55
322.252
321.987
321.603
321.288
320.958
318.166
318.424
318.592
318.804
318.95
319.104
319.231
319.203
319.246
319.115
319.109
319.11
318.945
318.783
318.472
318.322
318.067
317.711
317.49
317.198
314.085
314.289
314.559
314.64
314.81
314.863
314.958
315.014
315.027
314.989
314.928
314.806
314.733
314.598
314.415
314.289
314.013
313.829
313.579
313.399
310.204
310.278
310.388
310.444
310.56
310.607
310.754
310.774
310.747
310.751
310.682
310.654
310.523
310.462
310.319
310.202
310.066
309.922
309.738
309.583
306.096
306.09
306.215
306.289
306.346
306.434
306.438
306.446
306.435
306.422
306.454
306.386
306.347
306.31
306.159
306.189
306.078
306.011
305.922
305.782
302.098
302.1
302.118
302.111
302.14
302.135
302.174
302.25
302.206
302.156
302.166
302.174
302.108
302.095
302.053
302.075
301.993
301.959
302.019
301.893
330.813
331.264
331.699
332.024
332.295
332.471
332.688
332.799
332.759
332.771
332.601
332.456
332.187
332.017
331.599
331.13
330.809
330.272
329.747
329.218
326.815
327.2
327.48
327.854
328.1
328.257
328.486
328.468
328.473
328.512
328.355
328.212
327.895
327.775
327.551
327.085
326.7
326.31
325.844
325.398
322.78
323.028
323.284
323.644
323.776
324.024
324.146
324.11
324.171
324.051
324.045
323.942
323.788
323.615
323.277
323.036
322.66
322.344
321.937
321.597
318.697
318.904
319.168
319.331
319.572
319.703
319.731
319.765
319.833
319.752
319.7
319.658
319.511
319.297
319.127
318.924
318.594
318.316
317.934
317.715
314.578
314.637
314.875
314.962
315.161
315.314
315.394
315.448
315.439
315.473
315.339
315.304
315.151
315.021
314.874
314.765
314.535
314.375
314.026
313.806
310.433
310.478
310.663
310.821
310.902
310.977
311.037
311.085
311.014
311.083
311.022
310.987
310.933
310.762
310.676
310.522
310.38
310.247
310.069
309.845
306.23
306.343
306.451
306.405
306.494
306.602
306.65
306.693
306.594
306.631
306.577
306.563
306.595
306.513
306.441
306.32
306.229
306.156
306.06
305.952
302.093
302.163
302.145
302.144
302.22
302.26
302.245
302.244
302.251
302.272
302.19
302.152
302.181
302.194
302.184
302.136
302.123
302.068
301.991
302.064
331.573
332.055
332.416
332.876
333.203
333.435
333.528
333.71
333.736
333.565
333.527
333.402
333.209
332.828
332.48
332.15
331.588
331.106
330.564
330.061
327.447
327.847
328.31
328.535
328.832
329.072
329.23
329.277
329.296
329.302
329.165
328.991
328.878
328.547
328.27
327.904
327.456
327.072
326.516
326.118
323.288
323.574
323.951
324.16
324.431
324.637
324.819
324.811
324.84
324.864
324.782
324.694
324.385
324.244
323.919
323.623
323.296
322.975
322.474
322.202
319.136
319.277
319.623
319.827
320.012
320.2
320.313
320.328
320.345
320.335
320.296
320.264
320.065
319.931
319.645
319.402
319.176
318.823
318.42
318.223
314.892
315.071
315.324
315.48
315.649
315.775
315.853
315.856
315.901
315.823
315.77
315.786
315.626
315.511
315.27
315.168
314.88
314.772
314.415
314.191
310.678
310.769
310.928
311.097
311.198
311.284
311.302
311.391
311.328
311.348
311.326
311.281
311.216
311.127
310.969
310.89
310.636
310.481
310.286
310.187
306.379
306.557
306.578
306.617
306.74
306.765
306.785
306.858
306.815
306.77
306.804
306.751
306.749
306.622
306.575
306.509
306.424
306.288
306.156
306.097
302.192
302.159
302.214
302.247
302.272
302.235
302.309
302.331
302.285
302.282
302.204
302.296
302.195
302.218
302.197
302.132
302.192
302.098
302.062
302.048
332.359
332.72
333.189
333.654
333.909
334.202
334.35
334.489
334.558
334.518
334.373
334.232
334.047
333.738
333.301
332.926
332.444
331.891
331.263
330.83
328.081
328.448
328.881
329.262
329.522
329.717
329.846
329.945
330.026
329.991
329.928
329.747
329.518
329.255
328.983
328.625
328.132
327.757
327.27
326.75
323.816
324.098
324.483
324.777
325.011
325.203
325.316
325.437
325.451
325.397
325.36
325.255
325.023
324.892
324.583
324.314
323.899
323.528
323.08
322.741
319.547
319.817
320.063
320.269
320.52
320.673
320.816
320.796
320.826
320.905
320.814
320.728
320.571
320.389
320.186
319.953
319.63
319.332
319.043
318.637
315.266
315.463
315.556
315.91
316.048
316.118
316.185
316.231
316.274
316.252
316.224
316.146
316.032
315.855
315.686
315.576
315.292
315.055
314.768
314.515
310.98
310.994
311.168
311.305
311.45
311.569
311.649
311.587
311.67
311.599
311.602
311.544
311.468
311.329
311.264
311.057
310.898
310.794
310.571
310.448
306.499
306.721
306.69
306.779
306.896
306.916
306.926
307.016
307.066
306.947
306.955
306.972
306.912
306.845
306.794
306.747
306.544
306.481
306.382
306.199
302.256
302.161
302.187
302.273
302.275
302.276
302.378
302.356
302.367
302.343
302.385
302.371
302.269
302.27
302.23
302.258
302.177
302.223
302.185
302.175
332.919
333.325
333.807
334.246
334.654
334.927
335.152
335.243
335.296
335.302
335.11
334.921
334.78
334.415
334.097
333.635
333.125
332.625
331.998
331.573
328.605
328.992
329.343
329.822
330.048
330.313
330.486
330.59
330.621
330.615
330.581
330.402
330.191
330
329.562
329.183
328.814
328.284
327.769
327.381
324.237
324.548
324.943
325.203
325.586
325.689
325.863
325.981
325.98
325.916
325.879
325.785
325.599
325.445
325.172
324.757
324.468
324.032
323.668
323.279
319.926
320.163
320.436
320.714
320.894
321.031
321.205
321.306
321.369
321.324
321.269
321.139
320.999
320.792
320.603
320.335
320.029
319.729
319.345
319.075
315.523
315.671
315.913
316.119
316.296
316.452
316.537
316.517
316.545
316.661
316.577
316.467
316.403
316.208
316.066
315.906
315.58
315.353
315.141
314.868
311.064
311.271
311.368
311.612
311.656
311.661
311.767
311.892
311.884
311.923
311.865
311.779
311.721
311.66
311.488
311.315
311.242
311.068
310.79
310.716
306.675
306.792
306.771
306.943
307.02
307.063
307.079
307.138
307.143
307.063
307.111
307.122
307.049
306.959
306.893
306.768
306.672
306.594
306.539
306.389
302.185
302.26
302.284
302.343
302.328
302.326
302.403
302.364
302.451
302.4
302.326
302.431
302.349
302.318
302.254
302.327
302.284
302.228
302.218
302.126
333.426
333.891
334.368
334.837
335.23
335.526
335.763
335.897
335.886
335.936
335.82
335.634
335.421
335.126
334.776
334.319
333.685
333.204
332.592
332.027
329.021
329.415
329.923
330.197
330.606
330.887
330.991
331.148
331.172
331.152
331.048
330.988
330.672
330.482
330.165
329.775
329.378
328.855
328.326
327.896
324.598
324.941
325.283
325.634
325.906
326.166
326.342
326.456
326.405
326.444
326.354
326.262
326.093
325.845
325.634
325.278
324.915
324.405
323.984
323.541
320.214
320.47
320.745
320.978
321.257
321.412
321.657
321.577
321.713
321.643
321.608
321.495
321.442
321.21
321.018
320.771
320.365
319.949
319.709
319.356
315.741
315.932
316.169
316.387
316.591
316.712
316.803
316.875
316.938
316.92
316.811
316.741
316.669
316.555
316.316
316.138
315.9
315.62
315.32
315.085
311.282
311.405
311.578
311.773
311.894
311.935
312.069
312.099
312.11
312.087
312.063
311.952
311.959
311.79
311.657
311.564
311.369
311.129
311.013
310.779
306.754
306.806
306.92
307.039
307.063
307.237
307.227
307.182
307.324
307.202
307.258
307.169
307.188
307.124
306.998
306.951
306.923
306.737
306.614
306.519
302.233
302.301
302.309
302.359
302.383
302.391
302.418
302.405
302.458
302.43
302.458
302.49
302.472
302.401
302.391
302.319
302.318
302.25
302.197
302.229
333.692
334.215
334.722
335.254
335.606
335.899
336.173
336.342
336.324
336.354
336.18
336.12
335.784
335.521
335.142
334.683
334.191
333.551
332.985
332.499
329.294
329.722
330.068
330.561
330.935
331.168
331.378
331.472
331.578
331.562
331.468
331.31
331.154
330.816
330.473
330.11
329.681
329.203
328.681
328.19
324.886
325.166
325.542
325.947
326.227
326.417
326.563
326.701
326.813
326.779
326.771
326.492
326.347
326.154
325.875
325.538
325.169
324.698
324.26
323.941
320.364
320.594
320.966
321.225
321.416
321.676
321.799
321.85
321.962
321.877
321.88
321.805
321.642
321.407
321.208
320.935
320.612
320.323
319.904
319.612
315.846
315.971
316.251
316.536
316.743
316.854
316.988
317.056
317
317.091
317.018
316.945
316.867
316.626
316.455
316.318
316.11
315.739
315.568
315.253
311.376
311.533
311.668
311.825
311.999
312.09
312.154
312.212
312.258
312.184
312.188
312.15
312.016
311.935
311.83
311.685
311.479
311.346
311.113
310.937
306.842
306.9
306.998
307.115
307.12
307.229
307.309
307.308
307.288
307.339
307.283
307.301
307.208
307.218
307.051
307.061
306.987
306.823
306.728
306.579
302.262
302.312
302.317
302.346
302.42
302.435
302.413
302.411
302.549
302.462
302.467
302.493
302.47
302.467
302.421
302.362
302.33
302.274
302.249
302.132
)
;

boundaryField
{
    hotSide
    {
        type            fixedGradient;
        gradient        nonuniform List<scalar> 
400
(
321.511
322.87
325.591
329.677
335.133
341.965
350.181
359.788
370.794
383.208
397.037
412.289
428.971
447.088
466.647
487.651
510.105
534.011
559.372
586.191
323.738
325.08
327.767
331.802
337.194
343.949
352.078
361.591
372.498
384.81
398.537
413.687
430.268
448.289
467.755
488.672
511.043
534.872
560.161
586.913
326.149
327.47
330.116
334.091
339.406
346.071
354.099
363.503
374.296
386.491
400.101
415.136
431.606
449.52
468.885
489.706
511.988
535.735
560.948
587.63
328.704
330
332.597
336.503
341.73
348.292
356.205
365.485
376.15
388.215
401.695
416.604
432.954
450.753
470.009
490.73
512.919
536.579
561.714
588.325
331.33
332.599
335.142
338.97
344.099
350.546
358.332
367.477
378.003
389.928
403.271
418.047
434.27
451.949
471.095
491.712
513.807
537.382
562.439
588.978
333.918
335.158
337.643
341.389
346.414
352.74
360.392
369.397
379.779
391.562
404.765
419.407
435.503
453.065
472.101
492.618
514.622
538.114
563.096
589.569
336.321
337.531
339.959
343.622
348.544
354.751
362.274
371.142
381.385
393.031
406.101
420.618
436.595
454.047
472.983
493.409
515.33
538.747
563.663
590.076
338.36
339.543
341.92
345.509
350.339
356.44
363.847
372.595
382.718
394.244
407.2
421.608
437.485
454.844
473.695
494.045
515.897
539.253
564.114
590.478
339.852
341.015
343.352
346.885
351.645
357.665
364.985
373.643
383.675
395.113
407.984
422.312
438.116
455.407
474.197
494.491
516.294
539.606
564.428
590.758
340.643
341.795
344.11
347.613
352.334
358.311
365.584
374.193
384.176
395.567
408.393
422.679
438.443
455.699
474.456
494.722
516.498
539.788
564.589
590.901
340.643
341.795
344.11
347.613
352.334
358.311
365.584
374.193
384.176
395.567
408.393
422.679
438.443
455.699
474.456
494.722
516.498
539.788
564.589
590.901
339.852
341.015
343.352
346.885
351.645
357.665
364.985
373.643
383.675
395.113
407.984
422.312
438.116
455.407
474.197
494.491
516.294
539.606
564.428
590.758
338.36
339.543
341.92
345.509
350.339
356.44
363.847
372.595
382.718
394.244
407.2
421.608
437.485
454.844
473.695
494.045
515.897
539.253
564.114
590.478
336.321
337.531
339.959
343.622
348.544
354.751
362.274
371.142
381.385
393.031
406.101
420.618
436.595
454.047
472.983
493.409
515.33
538.747
563.663
590.076
333.918
335.158
337.643
341.389
346.414
352.74
360.392
369.397
379.779
391.562
404.765
419.407
435.503
453.065
472.101
492.618
514.622
538.114
563.096
589.569
331.33
332.599
335.142
338.97
344.099
350.546
358.332
367.477
378.003
389.928
403.271
418.047
434.27
451.949
471.095
491.712
513.807
537.382
562.439
588.978
328.704
330
332.597
336.503
341.73
348.292
356.205
365.485
376.15
388.215
401.695
416.604
432.954
450.753
470.009
490.73
512.919
536.579
561.714
588.325
326.149
327.47
330.116
334.091
339.406
346.071
354.099
363.503
374.296
386.491
400.101
415.136
431.606
449.52
468.885
489.706
511.988
535.735
560.948
587.63
323.738
325.08
327.767
331.802
337.194
343.949
352.078
361.591
372.498
384.81
398.537
413.687
430.268
448.289
467.755
488.672
511.043
534.872
560.161
586.913
321.511
322.87
325.591
329.677
335.133
341.965
350.181
359.788
370.794
383.208
397.037
412.289
428.971
447.088
466.647
487.651
510.105
534.011
559.372
586.191
)
;
    }
    coldSide
    {
        type            mixed;
        refValue        uniform 300;
        refGradient     uniform 0;
        valueFraction   uniform 0.991591;
        source          uniform 0;
        value           nonuniform List<scalar> 
400
(
300.01
300.011
300.011
300.011
300.012
300.012
300.013
300.014
300.014
300.015
300.016
300.016
300.017
300.018
300.018
300.018
300.019
300.018
300.019
300.019
300.01
300.01
300.011
300.012
300.012
300.013
300.013
300.014
300.015
300.015
300.015
300.016
300.017
300.018
300.018
300.018