/*--------------------------------*- C++ -*----------------------------------*\
| =========                 |                                                 |
| \\      /  F ield         | OpenFOAM: The Open Source CFD Toolbox           |
|  \\    /   O peration     | Version:  2212                                  |
|   \\  /    A nd           | Website:  www.openfoam.com                      |
|    \\/     M anipulation  |                                                 |
\*---------------------------------------------------------------------------*/
FoamFile
{
    version     2.0;
    format      ascii;
    arch        "LSB;label=32;scalar=64";
    class       volScalarField;
    location    "./ITHACAoutput/true/18.4";
    object      trueState;
}
// * * * * * * * * * * * * * * * * * * * * * * * * * * * * * * * * * * * * * //

dimensions      [0 0 0 1 0 0 0];

internalField   nonuniform List<scalar> 
3200
(
318.497
318.696
318.949
319.226
319.511
319.79
320.048
320.266
320.424
320.508
320.508
320.424
320.266
320.048
319.79
319.511
319.226
318.949
318.696
318.497
316.138
316.306
316.525
316.764
317.01
317.252
317.475
317.663
317.8
317.873
317.873
317.8
317.663
317.475
317.252
317.01
316.764
316.525
316.306
316.138
313.734
313.873
314.058
314.26
314.468
314.672
314.861
315.019
315.135
315.196
315.196
315.135
315.019
314.861
314.672
314.468
314.26
314.058
313.873
313.734
311.292
311.404
311.554
311.719
311.89
312.057
312.21
312.34
312.434
312.484
312.484
312.434
312.34
312.21
312.057
311.89
311.719
311.554
311.404
311.292
308.818
308.904
309.021
309.149
309.282
309.411
309.531
309.631
309.705
309.743
309.743
309.705
309.631
309.531
309.411
309.282
309.149
309.021
308.904
308.818
306.32
306.381
306.464
306.555
306.65
306.742
306.828
306.9
306.952
306.979
306.979
306.952
306.9
306.828
306.742
306.65
306.555
306.464
306.381
306.32
303.803
303.84
303.89
303.945
304.001
304.057
304.108
304.151
304.183
304.199
304.199
304.183
304.151
304.108
304.057
304.001
303.945
303.89
303.84
303.803
301.276
301.288
301.305
301.323
301.342
301.361
301.378
301.393
301.403
301.409
301.409
301.403
301.393
301.378
301.361
301.342
301.323
301.305
301.288
301.276
318.564
318.761
319.013
319.287
319.569
319.845
320.1
320.315
320.472
320.554
320.554
320.472
320.315
320.1
319.845
319.569
319.287
319.013
318.761
318.564
316.196
316.363
316.58
316.817
317.061
317.3
317.521
317.706
317.842
317.913
317.913
317.842
317.706
317.521
317.3
317.061
316.817
316.58
316.363
316.196
313.784
313.922
314.105
314.305
314.511
314.713
314.899
315.056
315.17
315.231
315.231
315.17
315.056
314.899
314.713
314.511
314.305
314.105
313.922
313.784
311.333
311.444
311.593
311.757
311.925
312.09
312.243
312.371
312.464
312.513
312.513
312.464
312.371
312.243
312.09
311.925
311.757
311.593
311.444
311.333
308.85
308.936
309.051
309.178
309.309
309.438
309.556
309.655
309.728
309.766
309.766
309.728
309.655
309.556
309.438
309.309
309.178
309.051
308.936
308.85
306.343
306.403
306.486
306.576
306.67
306.761
306.846
306.917
306.968
306.996
306.996
306.968
306.917
306.846
306.761
306.67
306.576
306.486
306.403
306.343
303.817
303.853
303.903
303.957
304.013
304.068
304.119
304.162
304.192
304.209
304.209
304.192
304.162
304.119
304.068
304.013
303.957
303.903
303.853
303.817
301.281
301.293
301.309
301.328
301.346
301.365
301.382
301.396
301.407
301.412
301.412
301.407
301.396
301.382
301.365
301.346
301.328
301.309
301.293
301.281
318.699
318.893
319.14
319.409
319.685
319.956
320.205
320.415
320.567
320.648
320.648
320.567
320.415
320.205
319.956
319.685
319.409
319.14
318.893
318.699
316.314
316.478
316.692
316.924
317.163
317.397
317.612
317.794
317.926
317.995
317.995
317.926
317.794
317.612
317.397
317.163
316.924
316.692
316.478
316.314
313.884
314.02
314.2
314.396
314.598
314.796
314.978
315.131
315.242
315.301
315.301
315.242
315.131
314.978
314.796
314.598
314.396
314.2
314.02
313.884
311.415
311.525
311.671
311.832
311.997
312.159
312.307
312.432
312.523
312.571
312.571
312.523
312.432
312.307
312.159
311.997
311.832
311.671
311.525
311.415
308.915
308.999
309.112
309.237
309.366
309.491
309.607
309.704
309.774
309.811
309.811
309.774
309.704
309.607
309.491
309.366
309.237
309.112
308.999
308.915
306.389
306.448
306.529
306.618
306.71
306.8
306.882
306.951
307.002
307.028
307.028
307.002
306.951
306.882
306.8
306.71
306.618
306.529
306.448
306.389
303.845
303.88
303.929
303.983
304.038
304.091
304.141
304.182
304.213
304.229
304.229
304.213
304.182
304.141
304.091
304.038
303.983
303.929
303.88
303.845
301.29
301.302
301.318
301.336
301.355
301.373
301.389
301.403
301.413
301.419
301.419
301.413
301.403
301.389
301.373
301.355
301.336
301.318
301.302
301.29
318.902
319.092
319.333
319.594
319.862
320.124
320.364
320.567
320.714
320.791
320.791
320.714
320.567
320.364
320.124
319.862
319.594
319.333
319.092
318.902
316.491
316.652
316.859
317.086
317.318
317.544
317.752
317.927
318.054
318.121
318.121
318.054
317.927
317.752
317.544
317.318
317.086
316.859
316.652
316.491
314.035
314.168
314.343
314.534
314.73
314.922
315.097
315.245
315.352
315.408
315.408
315.352
315.245
315.097
314.922
314.73
314.534
314.343
314.168
314.035
311.539
311.646
311.789
311.945
312.106
312.262
312.406
312.526
312.614
312.66
312.66
312.614
312.526
312.406
312.262
312.106
311.945
311.789
311.646
311.539
309.011
309.094
309.204
309.326
309.45
309.572
309.683
309.777
309.845
309.881
309.881
309.845
309.777
309.683
309.572
309.45
309.326
309.204
309.094
309.011
306.458
306.516
306.595
306.682
306.771
306.858
306.937
307.004
307.053
307.078
307.078
307.053
307.004
306.937
306.858
306.771
306.682
306.595
306.516
306.458
303.887
303.921
303.969
304.021
304.074
304.126
304.174
304.214
304.243
304.259
304.259
304.243
304.214
304.174
304.126
304.074
304.021
303.969
303.921
303.887
301.304
301.316
301.332
301.349
301.367
301.384
301.4
301.414
301.424
301.429
301.429
301.424
301.414
301.4
301.384
301.367
301.349
301.332
301.316
301.304
319.174
319.357
319.59
319.842
320.1
320.351
320.581
320.774
320.913
320.987
320.987
320.913
320.774
320.581
320.351
320.1
319.842
319.59
319.357
319.174
316.728
316.883
317.085
317.303
317.526
317.743
317.942
318.108
318.229
318.293
318.293
318.229
318.108
317.942
317.743
317.526
317.303
317.085
316.883
316.728
314.236
314.365
314.535
314.719
314.908
315.091
315.259
315.4
315.502
315.555
315.555
315.502
315.4
315.259
315.091
314.908
314.719
314.535
314.365
314.236
311.705
311.809
311.947
312.098
312.252
312.402
312.539
312.654
312.737
312.781
312.781
312.737
312.654
312.539
312.402
312.252
312.098
311.947
311.809
311.705
309.141
309.221
309.328
309.445
309.565
309.681
309.788
309.877
309.942
309.976
309.976
309.942
309.877
309.788
309.681
309.565
309.445
309.328
309.221
309.141
306.551
306.607
306.684
306.767
306.853
306.936
307.012
307.076
307.122
307.147
307.147
307.122
307.076
307.012
306.936
306.853
306.767
306.684
306.607
306.551
303.942
303.976
304.022
304.072
304.124
304.174
304.219
304.258
304.285
304.3
304.3
304.285
304.258
304.219
304.174
304.124
304.072
304.022
303.976
303.942
301.323
301.334
301.349
301.366
301.383
301.4
301.416
301.428
301.438
301.443
301.443
301.438
301.428
301.416
301.4
301.383
301.366
301.349
301.334
301.323
319.514
319.691
319.915
320.156
320.401
320.64
320.857
321.039
321.17
321.24
321.24
321.17
321.039
320.857
320.64
320.401
320.156
319.915
319.691
319.514
317.025
317.175
317.368
317.577
317.789
317.995
318.183
318.341
318.454
318.514
318.514
318.454
318.341
318.183
317.995
317.789
317.577
317.368
317.175
317.025
314.489
314.613
314.776
314.952
315.132
315.306
315.465
315.598
315.694
315.745
315.745
315.694
315.598
315.465
315.306
315.132
314.952
314.776
314.613
314.489
311.913
312.013
312.146
312.29
312.437
312.579
312.709
312.818
312.896
312.937
312.937
312.896
312.818
312.709
312.579
312.437
312.29
312.146
312.013
311.913
309.303
309.38
309.483
309.595
309.709
309.82
309.921
310.005
310.066
310.098
310.098
310.066
310.005
309.921
309.82
309.709
309.595
309.483
309.38
309.303
306.667
306.722
306.795
306.875
306.957
307.036
307.108
307.168
307.212
307.234
307.234
307.212
307.168
307.108
307.036
306.957
306.875
306.795
306.722
306.667
304.013
304.045
304.089
304.137
304.186
304.233
304.277
304.313
304.339
304.353
304.353
304.339
304.313
304.277
304.233
304.186
304.137
304.089
304.045
304.013
301.346
301.357
301.372
301.388
301.404
301.42
301.435
301.447
301.456
301.46
301.46
301.456
301.447
301.435
301.42
301.404
301.388
301.372
301.357
301.346
319.925
320.094
320.307
320.536
320.768
320.992
321.196
321.366
321.489
321.553
321.553
321.489
321.366
321.196
320.992
320.768
320.536
320.307
320.094
319.925
317.384
317.527
317.711
317.909
318.11
318.304
318.48
318.627
318.733
318.789
318.789
318.733
318.627
318.48
318.304
318.11
317.909
317.711
317.527
317.384
314.794
314.913
315.068
315.235
315.405
315.569
315.719
315.843
315.932
315.979
315.979
315.932
315.843
315.719
315.569
315.405
315.235
315.068
314.913
314.794
312.164
312.259
312.386
312.523
312.662
312.796
312.918
313.019
313.092
313.131
313.131
313.092
313.019
312.918
312.796
312.662
312.523
312.386
312.259
312.164
309.499
309.573
309.671
309.777
309.885
309.989
310.084
310.163
310.22
310.25
310.25
310.22
310.163
310.084
309.989
309.885
309.777
309.671
309.573
309.499
306.808
306.86
306.93
307.006
307.083
307.157
307.225
307.281
307.322
307.343
307.343
307.322
307.281
307.225
307.157
307.083
307.006
306.93
306.86
306.808
304.097
304.128
304.17
304.216
304.262
304.307
304.347
304.381
304.405
304.418
304.418
304.405
304.381
304.347
304.307
304.262
304.216
304.17
304.128
304.097
301.375
301.385
301.399
301.414
301.43
301.445
301.459
301.47
301.478
301.482
301.482
301.478
301.47
301.459
301.445
301.43
301.414
301.399
301.385
301.375
320.407
320.567
320.769
320.985
321.203
321.412
321.602
321.759
321.872
321.931
321.931
321.872
321.759
321.602
321.412
321.203
320.985
320.769
320.567
320.407
317.804
317.94
318.114
318.301
318.489
318.671
318.835
318.971
319.069
319.12
319.12
319.069
318.971
318.835
318.671
318.489
318.301
318.114
317.94
317.804
315.152
315.265
315.412
315.569
315.729
315.882
316.021
316.136
316.219
316.262
316.262
316.219
316.136
316.021
315.882
315.729
315.569
315.412
315.265
315.152
312.458
312.549
312.668
312.798
312.928
313.053
313.167
313.261
313.328
313.364
313.364
313.328
313.261
313.167
313.053
312.928
312.798
312.668
312.549
312.458
309.729
309.799
309.892
309.992
310.093
310.191
310.279
310.352
310.405
310.432
310.432
310.405
310.352
310.279
310.191
310.093
309.992
309.892
309.799
309.729
306.973
307.022
307.088
307.16
307.232
307.302
307.365
307.417
307.454
307.474
307.474
307.454
307.417
307.365
307.302
307.232
307.16
307.088
307.022
306.973
304.196
304.226
304.265
304.308
304.352
304.394
304.431
304.463
304.485
304.497
304.497
304.485
304.463
304.431
304.394
304.352
304.308
304.265
304.226
304.196
301.408
301.418
301.431
301.446
301.46
301.474
301.487
301.497
301.505
301.509
301.509
301.505
301.497
301.487
301.474
301.46
301.446
301.431
301.418
301.408
320.961
321.112
321.302
321.504
321.707
321.901
322.076
322.221
322.325
322.379
322.379
322.325
322.221
322.076
321.901
321.707
321.504
321.302
321.112
320.961
318.287
318.416
318.579
318.754
318.93
319.098
319.25
319.375
319.465
319.512
319.512
319.465
319.375
319.25
319.098
318.93
318.754
318.579
318.416
318.287
315.564
315.67
315.808
315.956
316.104
316.247
316.375
316.481
316.556
316.596
316.596
316.556
316.481
316.375
316.247
316.104
315.956
315.808
315.67
315.564
312.796
312.882
312.995
313.115
313.237
313.353
313.458
313.545
313.607
313.639
313.639
313.607
313.545
313.458
313.353
313.237
313.115
312.995
312.882
312.796
309.993
310.059
310.146
310.24
310.335
310.425
310.507
310.574
310.622
310.647
310.647
310.622
310.574
310.507
310.425
310.335
310.24
310.146
310.059
309.993
307.162
307.208
307.271
307.338
307.405
307.47
307.528
307.576
307.611
307.629
307.629
307.611
307.576
307.528
307.47
307.405
307.338
307.271
307.208
307.162
304.31
304.338
304.375
304.416
304.456
304.495
304.53
304.559
304.579
304.59
304.59
304.579
304.559
304.53
304.495
304.456
304.416
304.375
304.338
304.31
301.446
301.455
301.468
301.481
301.495
301.508
301.52
301.529
301.536
301.54
301.54
301.536
301.529
301.52
301.508
301.495
301.481
301.468
301.455
301.446
321.587
321.73
321.907
322.095
322.283
322.462
322.623
322.755
322.849
322.899
322.899
322.849
322.755
322.623
322.462
322.283
322.095
321.907
321.73
321.587
318.834
318.955
319.108
319.271
319.433
319.588
319.727
319.842
319.924
319.966
319.966
319.924
319.842
319.727
319.588
319.433
319.271
319.108
318.955
318.834
316.029
316.129
316.258
316.396
316.533
316.664
316.782
316.879
316.948
316.984
316.984
316.948
316.879
316.782
316.664
316.533
316.396
316.258
316.129
316.029
313.179
313.26
313.365
313.477
313.59
313.697
313.793
313.872
313.929
313.958
313.958
313.929
313.872
313.793
313.697
313.59
313.477
313.365
313.26
313.179
310.292
310.354
310.436
310.523
310.611
310.694
310.769
310.83
310.874
310.897
310.897
310.874
310.83
310.769
310.694
310.611
310.523
310.436
310.354
310.292
307.376
307.42
307.478
307.541
307.603
307.663
307.716
307.76
307.791
307.808
307.808
307.791
307.76
307.716
307.663
307.603
307.541
307.478
307.42
307.376
304.439
304.465
304.5
304.538
304.575
304.611
304.643
304.669
304.688
304.698
304.698
304.688
304.669
304.643
304.611
304.575
304.538
304.5
304.465
304.439
301.489
301.498
301.51
301.522
301.535
301.547
301.558
301.567
301.573
301.576
301.576
301.573
301.567
301.558
301.547
301.535
301.522
301.51
301.498
301.489
322.288
322.421
322.586
322.76
322.933
323.097
323.244
323.364
323.449
323.494
323.494
323.449
323.364
323.244
323.097
322.933
322.76
322.586
322.421
322.288
319.445
319.558
319.701
319.851
320.001
320.143
320.27
320.374
320.448
320.487
320.487
320.448
320.374
320.27
320.143
320.001
319.851
319.701
319.558
319.445
316.549
316.643
316.763
316.89
317.017
317.137
317.245
317.332
317.395
317.428
317.428
317.395
317.332
317.245
317.137
317.017
316.89
316.763
316.643
316.549
313.607
313.682
313.78
313.884
313.988
314.086
314.174
314.246
314.297
314.324
314.324
314.297
314.246
314.174
314.086
313.988
313.884
313.78
313.682
313.607
310.626
310.684
310.76
310.841
310.922
310.998
311.066
311.122
311.162
311.183
311.183
311.162
311.122
311.066
310.998
310.922
310.841
310.76
310.684
310.626
307.615
307.656
307.711
307.768
307.826
307.881
307.929
307.969
307.998
308.013
308.013
307.998
307.969
307.929
307.881
307.826
307.768
307.711
307.656
307.615
304.583
304.608
304.64
304.675
304.709
304.742
304.772
304.796
304.813
304.822
304.822
304.813
304.796
304.772
304.742
304.709
304.675
304.64
304.608
304.583
301.538
301.546
301.557
301.568
301.58
301.591
301.601
301.609
301.615
301.618
301.618
301.615
301.609
301.601
301.591
301.58
301.568
301.557
301.546
301.538
323.062
323.187
323.34
323.5
323.659
323.809
323.941
324.05
324.127
324.167
324.167
324.127
324.05
323.941
323.809
323.659
323.5
323.34
323.187
323.062
320.121
320.226
320.358
320.497
320.635
320.765
320.88
320.974
321.04
321.075
321.075
321.04
320.974
320.88
320.765
320.635
320.497
320.358
320.226
320.121
317.124
317.211
317.323
317.44
317.557
317.666
317.764
317.843
317.9
317.929
317.929
317.9
317.843
317.764
317.666
317.557
317.44
317.323
317.211
317.124
314.08
314.15
314.241
314.337
314.432
314.522
314.601
314.666
314.713
314.737
314.737
314.713
314.666
314.601
314.522
314.432
314.337
314.241
314.15
314.08
310.995
311.049
311.12
311.195
311.269
311.338
311.4
311.451
311.487
311.506
311.506
311.487
311.451
311.4
311.338
311.269
311.195
311.12
311.049
310.995
307.88
307.918
307.968
308.022
308.075
308.125
308.169
308.205
308.231
308.244
308.244
308.231
308.205
308.169
308.125
308.075
308.022
307.968
307.918
307.88
304.742
304.765
304.795
304.827
304.859
304.889
304.916
304.937
304.953
304.961
304.961
304.953
304.937
304.916
304.889
304.859
304.827
304.795
304.765
304.742
301.591
301.599
301.609
301.62
301.63
301.64
301.649
301.657
301.662
301.664
301.664
301.662
301.657
301.649
301.64
301.63
301.62
301.609
301.599
301.591
323.912
324.027
324.169
324.316
324.461
324.597
324.717
324.815
324.884
324.92
324.92
324.884
324.815
324.717
324.597
324.461
324.316
324.169
324.027
323.912
320.862
320.96
321.082
321.21
321.335
321.453
321.557
321.642
321.702
321.733
321.733
321.702
321.642
321.557
321.453
321.335
321.21
321.082
320.96
320.862
317.755
317.836
317.939
318.047
318.153
318.253
318.341
318.413
318.463
318.489
318.489
318.463
318.413
318.341
318.253
318.153
318.047
317.939
317.836
317.755
314.598
314.663
314.747
314.836
314.923
315.004
315.076
315.135
315.176
315.198
315.198
315.176
315.135
315.076
315.004
314.923
314.836
314.747
314.663
314.598
311.4
311.45
311.515
311.584
311.652
311.715
311.771
311.817
311.849
311.866
311.866
311.849
311.817
311.771
311.715
311.652
311.584
311.515
311.45
311.4
308.17
308.206
308.252
308.301
308.35
308.395
308.435
308.468
308.491
308.503
308.503
308.491
308.468
308.435
308.395
308.35
308.301
308.252
308.206
308.17
304.917
304.938
304.966
304.996
305.025
305.052
305.076
305.095
305.109
305.116
305.116
305.109
305.095
305.076
305.052
305.025
304.996
304.966
304.938
304.917
301.65
301.657
301.666
301.676
301.686
301.695
301.703
301.71
301.714
301.717
301.717
301.714
301.71
301.703
301.695
301.686
301.676
301.666
301.657
301.65
324.836
324.943
325.073
325.208
325.34
325.463
325.571
325.659
325.721
325.753
325.753
325.721
325.659
325.571
325.463
325.34
325.208
325.073
324.943
324.836
321.668
321.758
321.871
321.988
322.102
322.209
322.303
322.379
322.433
322.46
322.46
322.433
322.379
322.303
322.209
322.102
321.988
321.871
321.758
321.668
318.441
318.516
318.61
318.709
318.806
318.896
318.976
319.04
319.086
319.109
319.109
319.086
319.04
318.976
318.896
318.806
318.709
318.61
318.516
318.441
315.162
315.222
315.299
315.38
315.46
315.533
315.599
315.651
315.688
315.708
315.708
315.688
315.651
315.599
315.533
315.46
315.38
315.299
315.222
315.162
311.841
311.887
311.947
312.01
312.071
312.129
312.179
312.22
312.249
312.264
312.264
312.249
312.22
312.179
312.129
312.071
312.01
311.947
311.887
311.841
308.486
308.518
308.561
308.606
308.65
308.691
308.728
308.757
308.777
308.788
308.788
308.777
308.757
308.728
308.691
308.65
308.606
308.561
308.518
308.486
305.107
305.126
305.152
305.179
305.206
305.23
305.252
305.27
305.282
305.288
305.288
305.282
305.27
305.252
305.23
305.206
305.179
305.152
305.126
305.107
301.714
301.72
301.729
301.738
301.747
301.755
301.762
301.768
301.772
301.774
301.774
301.772
301.768
301.762
301.755
301.747
301.738
301.729
301.72
301.714
325.833
325.931
326.051
326.174
326.294
326.405
326.503
326.581
326.637
326.665
326.665
326.637
326.581
326.503
326.405
326.294
326.174
326.051
325.931
325.833
322.538
322.621
322.724
322.831
322.935
323.031
323.116
323.184
323.232
323.256
323.256
323.232
323.184
323.116
323.031
322.935
322.831
322.724
322.621
322.538
319.18
319.249
319.336
319.426
319.514
319.596
319.668
319.725
319.766
319.787
319.787
319.766
319.725
319.668
319.596
319.514
319.426
319.336
319.249
319.18
315.77
315.825
315.896
315.97
316.042
316.109
316.167
316.215
316.248
316.265
316.265
316.248
316.215
316.167
316.109
316.042
315.97
315.896
315.825
315.77
312.315
312.358
312.413
312.47
312.526
312.578
312.624
312.66
312.686
312.7
312.7
312.686
312.66
312.624
312.578
312.526
312.47
312.413
312.358
312.315
308.826
308.856
308.895
308.936
308.976
309.013
309.046
309.072
309.091
309.1
309.1
309.091
309.072
309.046
309.013
308.976
308.936
308.895
308.856
308.826
305.311
305.329
305.353
305.378
305.402
305.424
305.444
305.459
305.47
305.476
305.476
305.47
305.459
305.444
305.424
305.402
305.378
305.353
305.329
305.311
301.782
301.788
301.796
301.804
301.812
301.82
301.826
301.832
301.835
301.837
301.837
301.835
301.832
301.826
301.82
301.812
301.804
301.796
301.788
301.782
326.898
326.988
327.098
327.21
327.319
327.419
327.507
327.577
327.627
327.652
327.652
327.627
327.577
327.507
327.419
327.319
327.21
327.098
326.988
326.898
323.465
323.542
323.636
323.734
323.828
323.915
323.991
324.052
324.095
324.117
324.117
324.095
324.052
323.991
323.915
323.828
323.734
323.636
323.542
323.465
319.969
320.032
320.112
320.194
320.274
320.348
320.412
320.464
320.5
320.518
320.518
320.5
320.464
320.412
320.348
320.274
320.194
320.112
320.032
319.969
316.417
316.468
316.533
316.601
316.666
316.726
316.779
316.821
316.851
316.866
316.866
316.851
316.821
316.779
316.726
316.666
316.601
316.533
316.468
316.417
312.82
312.859
312.91
312.962
313.013
313.06
313.101
313.134
313.157
313.169
313.169
313.157
313.134
313.101
313.06
313.013
312.962
312.91
312.859
312.82
309.187
309.215
309.251
309.289
309.325
309.359
309.388
309.411
309.428
309.436
309.436
309.428
309.411
309.388
309.359
309.325
309.289
309.251
309.215
309.187
305.529
305.546
305.567
305.59
305.612
305.632
305.649
305.663
305.673
305.678
305.678
305.673
305.663
305.649
305.632
305.612
305.59
305.567
305.546
305.529
301.855
301.861
301.868
301.875
301.883
301.89
301.895
301.9
301.903
301.905
301.905
301.903
301.9
301.895
301.89
301.883
301.875
301.868
301.861
301.855
328.018
328.101
328.201
328.304
328.402
328.493
328.571
328.634
328.678
328.701
328.701
328.678
328.634
328.571
328.493
328.402
328.304
328.201
328.101
328.018
324.439
324.509
324.596
324.685
324.77
324.849
324.917
324.972
325.01
325.029
325.029
325.01
324.972
324.917
324.849
324.77
324.685
324.596
324.509
324.439
320.795
320.853
320.926
321.001
321.074
321.14
321.198
321.244
321.276
321.293
321.293
321.276
321.244
321.198
321.14
321.074
321.001
320.926
320.853
320.795
317.095
317.141
317.201
317.262
317.322
317.376
317.424
317.461
317.488
317.502
317.502
317.488
317.461
317.424
317.376
317.322
317.262
317.201
317.141
317.095
313.348
313.384
313.43
313.478
313.524
313.567
313.603
313.633
313.653
313.664
313.664
313.653
313.633
313.603
313.567
313.524
313.478
313.43
313.384
313.348
309.565
309.591
309.624
309.658
309.691
309.721
309.747
309.768
309.783
309.791
309.791
309.783
309.768
309.747
309.721
309.691
309.658
309.624
309.591
309.565
305.756
305.771
305.791
305.812
305.831
305.85
305.865
305.878
305.887
305.891
305.891
305.887
305.878
305.865
305.85
305.831
305.812
305.791
305.771
305.756
301.931
301.936
301.943
301.95
301.957
301.963
301.968
301.972
301.975
301.977
301.977
301.975
301.972
301.968
301.963
301.957
301.95
301.943
301.936
301.931
329.162
329.238
329.33
329.424
329.513
329.595
329.666
329.722
329.762
329.782
329.782
329.762
329.722
329.666
329.595
329.513
329.424
329.33
329.238
329.162
325.429
325.494
325.573
325.654
325.732
325.803
325.864
325.913
325.948
325.965
325.965
325.948
325.913
325.864
325.803
325.732
325.654
325.573
325.494
325.429
321.631
321.685
321.752
321.82
321.886
321.946
321.998
322.04
322.069
322.084
322.084
322.069
322.04
321.998
321.946
321.886
321.82
321.752
321.685
321.631
317.778
317.821
317.876
317.932
317.986
318.035
318.078
318.112
318.135
318.148
318.148
318.135
318.112
318.078
318.035
317.986
317.932
317.876
317.821
317.778
313.879
313.912
313.954
313.998
314.04
314.078
314.112
314.138
314.157
314.166
314.166
314.157
314.138
314.112
314.078
314.04
313.998
313.954
313.912
313.879
309.944
309.967
309.998
310.029
310.059
310.086
310.11
310.129
310.142
310.149
310.149
310.142
310.129
310.11
310.086
310.059
310.029
309.998
309.967
309.944
305.984
305.997
306.016
306.034
306.052
306.069
306.083
306.095
306.103
306.107
306.107
306.103
306.095
306.083
306.069
306.052
306.034
306.016
305.997
305.984
302.007
302.012
302.018
302.025
302.031
302.036
302.041
302.045
302.047
302.049
302.049
302.047
302.045
302.041
302.036
302.031
302.025
302.018
302.012
302.007
330.254
330.325
330.409
330.495
330.577
330.652
330.716
330.767
330.803
330.821
330.821
330.803
330.767
330.716
330.652
330.577
330.495
330.409
330.325
330.254
326.362
326.422
326.495
326.57
326.641
326.706
326.762
326.806
326.837
326.853
326.853
326.837
326.806
326.762
326.706
326.641
326.57
326.495
326.422
326.362
322.411
322.461
322.523
322.586
322.646
322.701
322.749
322.786
322.813
322.826
322.826
322.813
322.786
322.749
322.701
322.646
322.586
322.523
322.461
322.411
318.409
318.449
318.5
318.551
318.601
318.646
318.685
318.716
318.737
318.749
318.749
318.737
318.716
318.685
318.646
318.601
318.551
318.5
318.449
318.409
314.366
314.396
314.436
314.476
314.515
314.55
314.58
314.604
314.621
314.63
314.63
314.621
314.604
314.58
314.55
314.515
314.476
314.436
314.396
314.366
310.29
310.311
310.339
310.368
310.396
310.421
310.443
310.46
310.472
310.478
310.478
310.472
310.46
310.443
310.421
310.396
310.368
310.339
310.311
310.29
306.19
306.203
306.22
306.237
306.254
306.269
306.282
306.292
306.3
306.303
306.303
306.3
306.292
306.282
306.269
306.254
306.237
306.22
306.203
306.19
302.077
302.081
302.087
302.092
302.098
302.103
302.107
302.111
302.113
302.115
302.115
302.113
302.111
302.107
302.103
302.098
302.092
302.087
302.081
302.077
331.1
331.167
331.246
331.327
331.403
331.473
331.533
331.58
331.613
331.63
331.63
331.613
331.58
331.533
331.473
331.403
331.327
331.246
331.167
331.1
327.058
327.115
327.184
327.254
327.321
327.382
327.434
327.475
327.504
327.519
327.519
327.504
327.475
327.434
327.382
327.321
327.254
327.184
327.115
327.058
322.975
323.022
323.081
323.14
323.197
323.249
323.293
323.328
323.353
323.365
323.365
323.353
323.328
323.293
323.249
323.197
323.14
323.081
323.022
322.975
318.855
318.893
318.941
318.99
319.036
319.079
319.115
319.144
319.164
319.175
319.175
319.164
319.144
319.115
319.079
319.036
318.99
318.941
318.893
318.855
314.703
314.732
314.769
314.808
314.844
314.877
314.906
314.928
314.944
314.952
314.952
314.944
314.928
314.906
314.877
314.844
314.808
314.769
314.732
314.703
310.526
310.547
310.573
310.6
310.627
310.65
310.671
310.687
310.698
310.704
310.704
310.698
310.687
310.671
310.65
310.627
310.6
310.573
310.547
310.526
306.33
306.343
306.359
306.375
306.391
306.405
306.417
306.427
306.434
306.437
306.437
306.434
306.427
306.417
306.405
306.391
306.375
306.359
306.343
306.33
302.123
302.127
302.133
302.138
302.144
302.148
302.152
302.156
302.158
302.159
302.159
302.158
302.156
302.152
302.148
302.144
302.138
302.133
302.127
302.123
)
;

boundaryField
{
    hotSide
    {
        type            fixedGradient;
        gradient        nonuniform List<scalar> 
400
(
184.711
185.383
186.728
188.752
191.459
194.857
198.955
203.762
209.287
215.54
222.53
230.266
238.756
248.007
258.025
268.816
280.384
292.733
305.866
319.784
187.326
187.976
189.281
191.245
193.877
197.185
201.182
205.878
211.287
217.421
224.29
231.906
240.279
249.416
259.326
270.014
281.485
293.743
306.792
320.632
190.155
190.781
192.038
193.931
196.473
199.676
203.553
208.122
213.397
219.393
226.126
233.607
241.849
250.861
260.652
271.228
282.594
294.756
307.715
321.473
193.152
193.75
194.95
196.762
199.201
202.282
206.024
210.448
215.572
221.416
227.997
235.33
243.43
252.307
261.971
272.429
283.686
295.747
308.614
322.288
196.234
196.799
197.936
199.657
201.98
204.927
208.52
212.785
217.747
223.426
229.846
237.024
244.975
253.712
263.245
273.582
284.729
296.689
309.464
323.055
199.272
199.802
200.872
202.496
204.697
207.501
210.938
215.039
219.831
225.343
231.599
238.619
246.422
255.021
264.426
274.646
285.685
297.548
310.236
323.749
202.091
202.587
203.589
205.117
207.197
209.861
213.146
217.086
221.716
227.067
233.167
240.04
247.704
256.174
265.461
275.573
286.516
298.291
310.901
324.344
204.484
204.949
205.89
207.331
209.303
211.843
214.993
218.792
223.279
228.491
234.457
241.202
248.748
257.109
266.297
276.32
287.181
298.885
311.43
324.816
206.235
206.676
207.571
208.946
210.835
213.281
216.328
220.022
224.403
229.51
235.377
242.029
249.488
257.77
266.886
276.844
287.647
299.299
311.798
325.143
207.163
207.591
208.461
209.799
211.644
214.039
217.031
220.667
224.991
230.043
235.856
242.459
249.872
258.112
267.19
277.114
287.887
299.512
311.987
325.311
207.163
207.591
208.461
209.799
211.644
214.039
217.031
220.667
224.991
230.043
235.856
242.459
249.872
258.112
267.19
277.114
287.887
299.512
311.987
325.311
206.235
206.676
207.571
208.946
210.835
213.281
216.328
220.022
224.403
229.51
235.377
242.029
249.488
257.77
266.886
276.844
287.647
299.299
311.798
325.143
204.484
204.949
205.89
207.331
209.303
211.843
214.993
218.792
223.279
228.491
234.457
241.202
248.748
257.109
266.297
276.32
287.181
298.885
311.43
324.816
202.091
202.587
203.589
205.117
207.197
209.861
213.146
217.086
221.716
227.067
233.167
240.04
247.704
256.174
265.461
275.573
286.516
298.291
310.901
324.344
199.272
199.802
200.872
202.496
204.697
207.501
210.938
215.039
219.831
225.343
231.599
238.619
246.422
255.021
264.426
274.646
285.685
297.548
310.236
323.749
196.234
196.799
197.936
199.657
201.98
204.927
208.52
212.785
217.747
223.426
229.846
237.024
244.975
253.712
263.245
273.582
284.729
296.689
309.464
323.055
193.152
193.75
194.95
196.762
199.201
202.282
206.024
210.448
215.572
221.416
227.997
235.33
243.43
252.307
261.971
272.429
283.686
295.747
308.614
322.288
190.155
190.781
192.038
193.931
196.473
199.676
203.553
208.122
213.397
219.393
226.126
233.607
241.849
250.861
260.652
271.228
282.594
294.756
307.715
321.473
187.326
187.976
189.281
191.245
193.877
197.185
201.182
205.878
211.287
217.421
224.29
231.906
240.279
249.416
259.326
270.014
281.485
293.743
306.792
320.632
184.711
185.383
186.728
188.752
191.459
194.857
198.955
203.762
209.287
215.54
222.53
230.266
238.756
248.007
258.025
268.816
280.384
292.733
305.866
319.784
)
;
    }
    coldSide
    {
        type            mixed;
        refValue        uniform 300;
        refGradient     uniform 0;
        valueFraction   uniform 0.991591;
        source          uniform 0;
        value           nonuniform List<scalar> 
400
(
300.011
300.011
300.011
300.011
300.011
300.011
300.012
300.012
300.012
300.013
300.013
300.013
300.014
300.014
300.015
300.016
300.016
300.017
300.017
300.018
300.011
300.011
300.011
300.011
300.011
300.011
300.012
300.012
300.012
300.013
300.013
300.013
300.014
300.014
300.015