/*--------------------------------*- C++ -*----------------------------------*\
| =========                 |                                                 |
| \\      /  F ield         | OpenFOAM: The Open Source CFD Toolbox           |
|  \\    /   O peration     | Version:  2212                                  |
|   \\  /    A nd           | Website:  www.openfoam.com                      |
|    \\/     M anipulation  |                                                 |
\*---------------------------------------------------------------------------*/
FoamFile
{
    version     2.0;
    format      ascii;
    arch        "LSB;label=32;scalar=64";
    class       volScalarField;
    location    "./ITHACAoutput/true/3.9";
    object      trueState;
}
// * * * * * * * * * * * * * * * * * * * * * * * * * * * * * * * * * * * * * //

dimensions      [0 0 0 1 0 0 0];

internalField   nonuniform List<scalar> 
3200
(
344.826
345.673
346.755
347.933
349.147
350.339
351.438
352.367
353.043
353.4
353.4
353.043
352.367
351.438
350.339
349.147
347.933
346.755
345.673
344.826
338.869
339.586
340.519
341.538
342.589
343.619
344.57
345.372
345.956
346.265
346.265
345.956
345.372
344.57
343.619
342.589
341.538
340.519
339.586
338.869
332.904
333.499
334.285
335.147
336.034
336.905
337.708
338.385
338.877
339.138
339.138
338.877
338.385
337.708
336.905
336.034
335.147
334.285
333.499
332.904
326.934
327.413
328.053
328.757
329.483
330.195
330.85
331.403
331.805
332.018
332.018
331.805
331.403
330.85
330.195
329.483
328.757
328.053
327.413
326.934
320.959
321.327
321.824
322.371
322.935
323.488
323.997
324.426
324.738
324.903
324.903
324.738
324.426
323.997
323.488
322.935
322.371
321.824
321.327
320.959
314.981
315.241
315.595
315.986
316.388
316.783
317.147
317.453
317.676
317.793
317.793
317.676
317.453
317.147
316.783
316.388
315.986
315.595
315.241
314.981
308.999
309.155
309.367
309.602
309.844
310.081
310.299
310.483
310.616
310.687
310.687
310.616
310.483
310.299
310.081
309.844
309.602
309.367
309.155
308.999
303.017
303.069
303.14
303.219
303.3
303.379
303.452
303.514
303.559
303.582
303.582
303.559
303.514
303.452
303.379
303.3
303.219
303.14
303.069
303.017
344.951
345.791
346.863
348.031
349.233
350.411
351.498
352.415
353.082
353.435
353.435
353.082
352.415
351.498
350.411
349.233
348.031
346.863
345.791
344.951
338.977
339.688
340.613
341.623
342.663
343.682
344.622
345.414
345.99
346.295
346.295
345.99
345.414
344.622
343.682
342.663
341.623
340.613
339.688
338.977
332.995
333.586
334.365
335.218
336.097
336.958
337.751
338.42
338.907
339.163
339.163
338.907
338.42
337.751
336.958
336.097
335.218
334.365
333.586
332.995
327.008
327.483
328.119
328.816
329.534
330.238
330.886
331.432
331.829
332.039
332.039
331.829
331.432
330.886
330.238
329.534
328.816
328.119
327.483
327.008
321.017
321.382
321.874
322.416
322.974
323.521
324.025
324.449
324.757
324.92
324.92
324.757
324.449
324.025
323.521
322.974
322.416
321.874
321.382
321.017
315.022
315.28
315.631
316.018
316.417
316.807
317.167
317.469
317.689
317.805
317.805
317.689
317.469
317.167
316.807
316.417
316.018
315.631
315.28
315.022
309.024
309.178
309.389
309.621
309.861
310.095
310.311
310.492
310.624
310.694
310.694
310.624
310.492
310.311
310.095
309.861
309.621
309.389
309.178
309.024
303.025
303.077
303.147
303.225
303.305
303.384
303.456
303.517
303.561
303.585
303.585
303.561
303.517
303.456
303.384
303.305
303.225
303.147
303.077
303.025
345.202
346.028
347.082
348.228
349.406
350.559
351.62
352.515
353.165
353.509
353.509
353.165
352.515
351.62
350.559
349.406
348.228
347.082
346.028
345.202
339.193
339.893
340.802
341.794
342.813
343.81
344.728
345.501
346.063
346.359
346.359
346.063
345.501
344.728
343.81
342.813
341.794
340.802
339.893
339.193
333.178
333.759
334.525
335.363
336.224
337.066
337.842
338.494
338.968
339.218
339.218
338.968
338.494
337.842
337.066
336.224
335.363
334.525
333.759
333.178
327.158
327.625
328.249
328.934
329.638
330.327
330.96
331.493
331.88
332.084
332.084
331.88
331.493
330.96
330.327
329.638
328.934
328.249
327.625
327.158
321.133
321.492
321.976
322.508
323.055
323.59
324.082
324.496
324.797
324.955
324.955
324.797
324.496
324.082
323.59
323.055
322.508
321.976
321.492
321.133
315.104
315.359
315.704
316.084
316.474
316.857
317.208
317.503
317.718
317.831
317.831
317.718
317.503
317.208
316.857
316.474
316.084
315.704
315.359
315.104
309.074
309.225
309.433
309.661
309.895
310.125
310.336
310.513
310.641
310.709
310.709
310.641
310.513
310.336
310.125
309.895
309.661
309.433
309.225
309.074
303.042
303.092
303.162
303.238
303.317
303.394
303.464
303.524
303.567
303.59
303.59
303.567
303.524
303.464
303.394
303.317
303.238
303.162
303.092
303.042
345.58
346.387
347.415
348.529
349.672
350.788
351.813
352.675
353.302
353.632
353.632
353.302
352.675
351.813
350.788
349.672
348.529
347.415
346.387
345.58
339.52
340.204
341.09
342.054
343.043
344.009
344.896
345.641
346.182
346.467
346.467
346.182
345.641
344.896
344.009
343.043
342.054
341.09
340.204
339.52
333.454
334.021
334.768
335.583
336.419
337.235
337.984
338.613
339.069
339.31
339.31
339.069
338.613
337.984
337.235
336.419
335.583
334.768
334.021
333.454
327.383
327.839
328.448
329.114
329.797
330.464
331.076
331.59
331.963
332.159
332.159
331.963
331.59
331.076
330.464
329.797
329.114
328.448
327.839
327.383
321.308
321.658
322.13
322.648
323.179
323.697
324.173
324.572
324.862
325.014
325.014
324.862
324.572
324.173
323.697
323.179
322.648
322.13
321.658
321.308
315.229
315.477
315.814
316.184
316.563
316.933
317.273
317.557
317.764
317.873
317.873
317.764
317.557
317.273
316.933
316.563
316.184
315.814
315.477
315.229
309.149
309.297
309.499
309.721
309.948
310.171
310.374
310.545
310.669
310.735
310.735
310.669
310.545
310.374
310.171
309.948
309.721
309.499
309.297
309.149
303.067
303.116
303.184
303.258
303.335
303.409
303.477
303.535
303.576
303.598
303.598
303.576
303.535
303.477
303.409
303.335
303.258
303.184
303.116
303.067
346.087
346.87
347.864
348.939
350.037
351.107
352.087
352.909
353.504
353.818
353.818
353.504
352.909
352.087
351.107
350.037
348.939
347.864
346.87
346.087
339.959
340.622
341.479
342.409
343.359
344.285
345.133
345.843
346.358
346.629
346.629
346.358
345.843
345.133
344.285
343.359
342.409
341.479
340.622
339.959
333.825
334.374
335.096
335.882
336.686
337.468
338.184
338.785
339.219
339.448
339.448
339.219
338.785
338.184
337.468
336.686
335.882
335.096
334.374
333.825
327.686
328.128
328.717
329.359
330.016
330.656
331.241
331.731
332.086
332.273
332.273
332.086
331.731
331.241
330.656
330.016
329.359
328.717
328.128
327.686
321.543
321.883
322.339
322.838
323.349
323.846
324.301
324.682
324.957
325.102
325.102
324.957
324.682
324.301
323.846
323.349
322.838
322.339
321.883
321.543
315.397
315.638
315.963
316.32
316.685
317.039
317.364
317.636
317.833
317.936
317.936
317.833
317.636
317.364
317.039
316.685
316.32
315.963
315.638
315.397
309.25
309.393
309.588
309.802
310.021
310.234
310.429
310.593
310.711
310.773
310.773
310.711
310.593
310.429
310.234
310.021
309.802
309.588
309.393
309.25
303.101
303.149
303.214
303.286
303.359
303.431
303.496
303.551
303.59
303.611
303.611
303.59
303.551
303.496
303.431
303.359
303.286
303.214
303.149
303.101
346.728
347.482
348.435
349.463
350.51
351.525
352.453
353.228
353.789
354.084
354.084
353.789
353.228
352.453
351.525
350.51
349.463
348.435
347.482
346.728
340.513
341.151
341.973
342.863
343.769
344.648
345.45
346.121
346.605
346.86
346.86
346.605
346.121
345.45
344.648
343.769
342.863
341.973
341.151
340.513
334.292
334.821
335.514
336.266
337.032
337.775
338.453
339.019
339.429
339.644
339.644
339.429
339.019
338.453
337.775
337.032
336.266
335.514
334.821
334.292
328.067
328.493
329.058
329.673
330.299
330.907
331.461
331.923
332.258
332.433
332.433
332.258
331.923
331.461
330.907
330.299
329.673
329.058
328.493
328.067
321.839
322.166
322.605
323.082
323.569
324.042
324.472
324.832
325.091
325.228
325.228
325.091
324.832
324.472
324.042
323.569
323.082
322.605
322.166
321.839
315.609
315.84
316.153
316.494
316.842
317.179
317.486
317.743
317.928
318.026
318.026
317.928
317.743
317.486
317.179
316.842
316.494
316.153
315.84
315.609
309.377
309.515
309.702
309.907
310.116
310.318
310.503
310.657
310.768
310.827
310.827
310.768
310.657
310.503
310.318
310.116
309.907
309.702
309.515
309.377
303.143
303.189
303.252
303.321
303.391
303.459
303.521
303.572
303.609
303.629
303.629
303.609
303.572
303.521
303.459
303.391
303.321
303.252
303.189
303.143
347.506
348.226
349.135
350.11
351.1
352.055
352.925
353.649
354.172
354.446
354.446
354.172
353.649
352.925
352.055
351.1
350.11
349.135
348.226
347.506
341.185
341.795
342.578
343.423
344.279
345.107
345.859
346.486
346.938
347.175
347.175
346.938
346.486
345.859
345.107
344.279
343.423
342.578
341.795
341.185
334.86
335.365
336.026
336.74
337.464
338.164
338.799
339.329
339.71
339.911
339.911
339.71
339.329
338.799
338.164
337.464
336.74
336.026
335.365
334.86
328.531
328.938
329.477
330.06
330.652
331.224
331.744
332.177
332.488
332.652
332.652
332.488
332.177
331.744
331.224
330.652
330.06
329.477
328.938
328.531
322.2
322.512
322.93
323.383
323.844
324.289
324.692
325.029
325.271
325.398
325.398
325.271
325.029
324.692
324.289
323.844
323.383
322.93
322.512
322.2
315.866
316.087
316.385
316.709
317.038
317.355
317.644
317.884
318.057
318.148
318.148
318.057
317.884
317.644
317.355
317.038
316.709
316.385
316.087
315.866
309.531
309.663
309.842
310.036
310.234
310.424
310.597
310.742
310.845
310.9
310.9
310.845
310.742
310.597
310.424
310.234
310.036
309.842
309.663
309.531
303.195
303.239
303.299
303.364
303.43
303.494
303.552
303.601
303.635
303.654
303.654
303.635
303.601
303.552
303.494
303.43
303.364
303.299
303.239
303.195
348.424
349.108
349.968
350.887
351.815
352.708
353.516
354.188
354.67
354.923
354.923
354.67
354.188
353.516
352.708
351.815
350.887
349.968
349.108
348.424
341.978
342.558
343.3
344.096
344.899
345.672
346.372
346.953
347.37
347.589
347.589
347.37
346.953
346.372
345.672
344.899
344.096
343.3
342.558
341.978
335.53
336.01
336.635
337.308
337.988
338.641
339.233
339.724
340.076
340.261
340.261
340.076
339.724
339.233
338.641
337.988
337.308
336.635
336.01
335.53
329.078
329.465
329.975
330.525
331.081
331.615
332.099
332.5
332.788
332.939
332.939
332.788
332.5
332.099
331.615
331.081
330.525
329.975
329.465
329.078
322.625
322.922
323.317
323.745
324.177
324.592
324.968
325.28
325.504
325.621
325.621
325.504
325.28
324.968
324.592
324.177
323.745
323.317
322.922
322.625
316.169
316.38
316.662
316.967
317.276
317.573
317.841
318.064
318.224
318.307
318.307
318.224
318.064
317.841
317.573
317.276
316.967
316.662
316.38
316.169
309.713
309.839
310.008
310.191
310.376
310.555
310.716
310.849
310.945
310.996
310.996
310.945
310.849
310.716
310.555
310.376
310.191
310.008
309.839
309.713
303.256
303.298
303.355
303.416
303.478
303.538
303.592
303.637
303.669
303.686
303.686
303.669
303.637
303.592
303.538
303.478
303.416
303.355
303.298
303.256
349.486
350.133
350.942
351.802
352.667
353.495
354.241
354.858
355.3
355.531
355.531
355.3
354.858
354.241
353.495
352.667
351.802
350.942
350.133
349.486
342.897
343.444
344.142
344.887
345.636
346.353
346.999
347.533
347.916
348.116
348.116
347.916
347.533
346.999
346.353
345.636
344.887
344.142
343.444
342.897
336.305
336.759
337.348
337.978
338.611
339.217
339.763
340.215
340.538
340.707
340.707
340.538
340.215
339.763
339.217
338.611
337.978
337.348
336.759
336.305
329.712
330.077
330.557
331.072
331.59
332.086
332.533
332.902
333.166
333.304
333.304
333.166
332.902
332.533
332.086
331.59
331.072
330.557
330.077
329.712
323.117
323.397
323.77
324.17
324.573
324.958
325.306
325.593
325.798
325.906
325.906
325.798
325.593
325.306
324.958
324.573
324.17
323.77
323.397
323.117
316.521
316.719
316.985
317.271
317.559
317.834
318.082
318.287
318.434
318.51
318.51
318.434
318.287
318.082
317.834
317.559
317.271
316.985
316.719
316.521
309.924
310.042
310.202
310.373
310.546
310.712
310.861
310.984
311.072
311.118
311.118
311.072
310.984
310.861
310.712
310.546
310.373
310.202
310.042
309.924
303.327
303.366
303.42
303.477
303.535
303.591
303.64
303.682
303.711
303.727
303.727
303.711
303.682
303.64
303.591
303.535
303.477
303.42
303.366
303.327
350.697
351.304
352.061
352.863
353.663
354.426
355.11
355.674
356.076
356.287
356.287
356.076
355.674
355.11
354.426
353.663
352.863
352.061
351.304
350.697
343.944
344.458
345.111
345.805
346.499
347.159
347.752
348.24
348.588
348.77
348.77
348.588
348.24
347.752
347.159
346.499
345.805
345.111
344.458
343.944
337.19
337.616
338.166
338.753
339.34
339.899
340.4
340.812
341.107
341.261
341.261
341.107
340.812
340.4
339.899
339.34
338.753
338.166
337.616
337.19
330.434
330.778
331.226
331.706
332.186
332.643
333.053
333.39
333.631
333.757
333.757
333.631
333.39
333.053
332.643
332.186
331.706
331.226
330.778
330.434
323.678
323.942
324.29
324.663
325.036
325.392
325.71
325.973
326.16
326.258
326.258
326.16
325.973
325.71
325.392
325.036
324.663
324.29
323.942
323.678
316.922
317.108
317.356
317.623
317.889
318.143
318.371
318.558
318.692
318.762
318.762
318.692
318.558
318.371
318.143
317.889
317.623
317.356
317.108
316.922
310.165
310.276
310.425
310.585
310.745
310.897
311.034
311.147
311.227
311.269
311.269
311.227
311.147
311.034
310.897
310.745
310.585
310.425
310.276
310.165
303.407
303.444
303.494
303.548
303.602
303.653
303.699
303.736
303.763
303.777
303.777
303.763
303.736
303.699
303.653
303.602
303.548
303.494
303.444
303.407
352.06
352.628
353.333
354.075
354.813
355.512
356.136
356.647
357.012
357.202
357.202
357.012
356.647
356.136
355.512
354.813
354.075
353.333
352.628
352.06
345.123
345.603
346.211
346.854
347.494
348.099
348.64
349.083
349.398
349.563
349.563
349.398
349.083
348.64
348.099
347.494
346.854
346.211
345.603
345.123
338.185
338.584
339.096
339.64
340.181
340.693
341.15
341.525
341.792
341.931
341.931
341.792
341.525
341.15
340.693
340.181
339.64
339.096
338.584
338.185
331.248
331.569
331.986
332.431
332.873
333.292
333.666
333.973
334.191
334.305
334.305
334.191
333.973
333.666
333.292
332.873
332.431
331.986
331.569
331.248
324.31
324.557
324.881
325.226
325.57
325.896
326.187
326.426
326.595
326.684
326.684
326.595
326.426
326.187
325.896
325.57
325.226
324.881
324.557
324.31
317.373
317.547
317.778
318.025
318.271
318.504
318.712
318.882
319.003
319.066
319.066
319.003
318.882
318.712
318.504
318.271
318.025
317.778
317.547
317.373
310.435
310.539
310.678
310.826
310.974
311.114
311.239
311.341
311.414
311.452
311.452
311.414
311.341
311.239
311.114
310.974
310.826
310.678
310.539
310.435
303.498
303.533
303.579
303.629
303.678
303.725
303.767
303.801
303.826
303.839
303.839
303.826
303.801
303.767
303.725
303.678
303.629
303.579
303.533
303.498
353.579
354.108
354.761
355.445
356.122
356.759
357.326
357.788
358.117
358.288
358.288
358.117
357.788
357.326
356.759
356.122
355.445
354.761
354.108
353.579
346.436
346.884
347.447
348.04
348.627
349.179
349.67
350.07
350.355
350.503
350.503
350.355
350.07
349.67
349.179
348.627
348.04
347.447
346.884
346.436
339.295
339.666
340.141
340.642
341.138
341.606
342.021
342.36
342.601
342.726
342.726
342.601
342.36
342.021
341.606
341.138
340.642
340.141
339.666
339.295
332.154
332.453
332.84
333.25
333.656
334.039
334.378
334.656
334.852
334.955
334.955
334.852
334.656
334.378
334.039
333.656
333.25
332.84
332.453
332.154
325.015
325.244
325.544
325.863
326.179
326.476
326.741
326.956
327.109
327.189
327.189
327.109
326.956
326.741
326.476
326.179
325.863
325.544
325.244
325.015
317.876
318.038
318.252
318.48
318.706
318.918
319.107
319.261
319.37
319.427
319.427
319.37
319.261
319.107
318.918
318.706
318.48
318.252
318.038
317.876
310.737
310.834
310.963
311.099
311.235
311.363
311.476
311.569
311.634
311.668
311.668
311.634
311.569
311.476
311.363
311.235
311.099
310.963
310.834
310.737
303.599
303.632
303.675
303.72
303.766
303.809
303.847
303.878
303.9
303.911
303.911
303.9
303.878
303.847
303.809
303.766
303.72
303.675
303.632
303.599
355.256
355.747
356.35
356.979
357.597
358.176
358.688
359.105
359.399
359.552
359.552
359.399
359.105
358.688
358.176
357.597
356.979
356.35
355.747
355.256
347.887
348.302
348.822
349.367
349.903
350.405
350.849
351.21
351.465
351.598
351.598
351.465
351.21
350.849
350.405
349.903
349.367
348.822
348.302
347.887
340.52
340.864
341.303
341.764
342.217
342.642
343.017
343.323
343.539
343.651
343.651
343.539
343.323
343.017
342.642
342.217
341.764
341.303
340.864
340.52
333.155
333.432
333.79
334.167
334.538
334.885
335.193
335.443
335.62
335.711
335.711
335.62
335.443
335.193
334.885
334.538
334.167
333.79
333.432
333.155
325.792
326.005
326.283
326.576
326.864
327.135
327.374
327.568
327.706
327.777
327.777
327.706
327.568
327.374
327.135
326.864
326.576
326.283
326.005
325.792
318.431
318.581
318.779
318.989
319.195
319.388
319.559
319.698
319.796
319.847
319.847
319.796
319.698
319.559
319.388
319.195
318.989
318.779
318.581
318.431
311.071
311.16
311.279
311.405
311.529
311.645
311.747
311.831
311.89
311.921
311.921
311.89
311.831
311.747
311.645
311.529
311.405
311.279
311.16
311.071
303.711
303.741
303.781
303.823
303.864
303.903
303.938
303.966
303.985
303.996
303.996
303.985
303.966
303.938
303.903
303.864
303.823
303.781
303.741
303.711
357.093
357.547
358.102
358.678
359.241
359.765
360.227
360.601
360.865
361.002
361.002
360.865
360.601
360.227
359.765
359.241
358.678
358.102
357.547
357.093
349.475
349.859
350.339
350.837
351.325
351.78
352.18
352.505
352.733
352.852
352.852
352.733
352.505
352.18
351.78
351.325
350.837
350.339
349.859
349.475
341.862
342.18
342.584
343.006
343.419
343.804
344.143
344.417
344.61
344.711
344.711
344.61
344.417
344.143
343.804
343.419
343.006
342.584
342.18
341.862
334.252
334.508
334.837
335.182
335.52
335.835
336.112
336.337
336.495
336.577
336.577
336.495
336.337
336.112
335.835
335.52
335.182
334.837
334.508
334.252
326.644
326.841
327.096
327.365
327.628
327.873
328.089
328.263
328.386
328.45
328.45
328.386
328.263
328.089
327.873
327.628
327.365
327.096
326.841
326.644
319.039
319.178
319.36
319.552
319.74
319.915
320.069
320.194
320.282
320.328
320.328
320.282
320.194
320.069
319.915
319.74
319.552
319.36
319.178
319.039
311.436
311.519
311.628
311.743
311.856
311.961
312.054
312.129
312.182
312.209
312.209
312.182
312.129
312.054
311.961
311.856
311.743
311.628
311.519
311.436
303.833
303.861
303.898
303.936
303.974
304.009
304.04
304.066
304.083
304.092
304.092
304.083
304.066
304.04
304.009
303.974
303.936
303.898
303.861
303.833
359.089
359.507
360.017
360.543
361.054
361.528
361.944
362.279
362.515
362.636
362.636
362.515
362.279
361.944
361.528
361.054
360.543
360.017
359.507
359.089
351.201
351.555
351.995
352.451
352.894
353.305
353.665
353.956
354.16
354.266
354.266
354.16
353.956
353.665
353.305
352.894
352.451
351.995
351.555
351.201
343.319
343.613
343.983
344.369
344.744
345.092
345.397
345.643
345.816
345.905
345.905
345.816
345.643
345.397
345.092
344.744
344.369
343.983
343.613
343.319
335.442
335.678
335.98
336.296
336.603
336.888
337.137
337.338
337.48
337.553
337.553
337.48
337.338
337.137
336.888
336.603
336.296
335.98
335.678
335.442
327.569
327.75
327.985
328.23
328.469
328.691
328.885
329.041
329.152
329.208
329.208
329.152
329.041
328.885
328.691
328.469
328.23
327.985
327.75
327.569
319.699
319.827
319.995
320.17
320.341
320.499
320.638
320.75
320.829
320.869
320.869
320.829
320.75
320.638
320.499
320.341
320.17
319.995
319.827
319.699
311.832
311.908
312.009
312.114
312.217
312.312
312.395
312.462
312.51
312.534
312.534
312.51
312.462
312.395
312.312
312.217
312.114
312.009
311.908
311.832
303.966
303.992
304.025
304.06
304.095
304.127
304.155
304.177
304.193
304.201
304.201
304.193
304.177
304.155
304.127
304.095
304.06
304.025
303.992
303.966
361.236
361.621
362.088
362.568
363.031
363.459
363.832
364.132
364.343
364.451
364.451
364.343
364.132
363.832
363.459
363.031
362.568
362.088
361.621
361.236
353.056
353.382
353.785
354.201
354.603
354.974
355.297
355.557
355.74
355.834
355.834
355.74
355.557
355.297
354.974
354.603
354.201
353.785
353.382
353.056
344.884
345.155
345.494
345.846
346.186
346.5
346.774
346.995
347.149
347.229
347.229
347.149
346.995
346.774
346.5
346.186
345.846
345.494
345.155
344.884
336.72
336.937
337.214
337.502
337.78
338.038
338.262
338.442
338.569
338.634
338.634
338.569
338.442
338.262
338.038
337.78
337.502
337.214
336.937
336.72
328.561
328.728
328.943
329.167
329.384
329.584
329.758
329.899
329.997
330.048
330.048
329.997
329.899
329.758
329.584
329.384
329.167
328.943
328.728
328.561
320.407
320.525
320.679
320.838
320.993
321.137
321.261
321.362
321.432
321.468
321.468
321.432
321.362
321.261
321.137
320.993
320.838
320.679
320.525
320.407
312.257
312.327
312.419
312.515
312.608
312.694
312.769
312.829
312.872
312.893
312.893
312.872
312.829
312.769
312.694
312.608
312.515
312.419
312.327
312.257
304.108
304.132
304.163
304.195
304.226
304.255
304.28
304.3
304.314
304.322
304.322
304.314
304.3
304.28
304.255
304.226
304.195
304.163
304.132
304.108
363.513
363.867
364.294
364.731
365.151
365.537
365.872
366.141
366.329
366.425
366.425
366.329
366.141
365.872
365.537
365.151
364.731
364.294
363.867
363.513
355.02
355.319
355.688
356.067
356.431
356.766
357.057
357.29
357.452
357.536
357.536
357.452
357.29
357.057
356.766
356.431
356.067
355.688
355.319
355.02
346.539
346.787
347.098
347.418
347.727
348.011
348.257
348.454
348.592
348.663
348.663
348.592
348.454
348.257
348.011
347.727
347.418
347.098
346.787
346.539
338.068
338.268
338.522
338.784
339.037
339.269
339.471
339.632
339.745
339.803
339.803
339.745
339.632
339.471
339.269
339.037
338.784
338.522
338.268
338.068
329.607
329.76
329.957
330.161
330.358
330.539
330.696
330.821
330.909
330.955
330.955
330.909
330.821
330.696
330.539
330.358
330.161
329.957
329.76
329.607
321.153
321.261
321.402
321.548
321.688
321.817
321.93
322.019
322.082
322.115
322.115
322.082
322.019
321.93
321.817
321.688
321.548
321.402
321.261
321.153
312.704
312.769
312.853
312.94
313.025
313.103
313.17
313.224
313.262
313.281
313.281
313.262
313.224
313.17
313.103
313.025
312.94
312.853
312.769
312.704
304.258
304.28
304.308
304.337
304.366
304.392
304.414
304.432
304.445
304.452
304.452
304.445
304.432
304.414
304.392
304.366
304.337
304.308
304.28
304.258
365.86
366.186
366.577
366.976
367.357
367.706
368.008
368.249
368.417
368.503
368.503
368.417
368.249
368.008
367.706
367.357
366.976
366.577
366.186
365.86
357.035
357.31
357.649
357.994
358.325
358.628
358.89
359.099
359.245
359.32
359.32
359.245
359.099
358.89
358.628
358.325
357.994
357.649
357.31
357.035
348.229
348.458
348.743
349.036
349.316
349.573
349.795
349.972
350.096
350.159
350.159
350.096
349.972
349.795
349.573
349.316
349.036
348.743
348.458
348.229
339.442
339.626
339.858
340.098
340.328
340.538
340.72
340.865
340.966
341.018
341.018
340.966
340.865
340.72
340.538
340.328
340.098
339.858
339.626
339.442
330.669
330.81
330.991
331.177
331.356
331.52
331.662
331.775
331.853
331.894
331.894
331.853
331.775
331.662
331.52
331.356
331.177
330.991
330.81
330.669
321.908
322.008
322.137
322.27
322.398
322.515
322.617
322.697
322.754
322.783
322.783
322.754
322.697
322.617
322.515
322.398
322.27
322.137
322.008
321.908
313.156
313.216
313.293
313.373
313.45
313.521
313.581
313.63
313.664
313.681
313.681
313.664
313.63
313.581
313.521
313.45
313.373
313.293
313.216
313.156
304.41
304.429
304.455
304.482
304.508
304.532
304.552
304.568
304.58
304.585
304.585
304.58
304.568
304.552
304.532
304.508
304.482
304.455
304.429
304.41
368.126
368.428
368.789
369.155
369.504
369.822
370.096
370.314
370.466
370.544
370.544
370.466
370.314
370.096
369.822
369.504
369.155
368.789
368.428
368.126
358.957
359.212
359.524
359.842
360.145
360.422
360.66
360.85
360.982
361.049
361.049
360.982
360.85
360.66
360.422
360.145
359.842
359.524
359.212
358.957
349.825
350.036
350.3
350.569
350.827
351.061
351.264
351.424
351.536
351.594
351.594
351.536
351.424
351.264
351.061
350.827
350.569
350.3
350.036
349.825
340.725
340.896
341.111
341.332
341.543
341.736
341.901
342.033
342.125
342.172
342.172
342.125
342.033
341.901
341.736
341.543
341.332
341.111
340.896
340.725
331.654
331.785
331.953
332.124
332.289
332.439
332.568
332.671
332.743
332.779
332.779
332.743
332.671
332.568
332.439
332.289
332.124
331.953
331.785
331.654
322.605
322.698
322.817
322.94
323.058
323.165
323.258
323.331
323.382
323.409
323.409
323.382
323.331
323.258
323.165
323.058
322.94
322.817
322.698
322.605
313.572
313.627
313.699
313.773
313.844
313.908
313.964
314.008
314.039
314.055
314.055
314.039
314.008
313.964
313.908
313.844
313.773
313.699
313.627
313.572
304.548
304.567
304.591
304.616
304.639
304.661
304.68
304.695
304.705
304.71
304.71
304.705
304.695
304.68
304.661
304.639
304.616
304.591
304.567
304.548
369.911
370.194
370.534
370.878
371.204
371.501
371.756
371.958
372.099
372.171
372.171
372.099
371.958
371.756
371.501
371.204
370.878
370.534
370.194
369.911
360.412
360.653
360.948
361.247
361.532
361.79
362.013
362.189
362.312
362.375
362.375
362.312
362.189
362.013
361.79
361.532
361.247
360.948
360.653
360.412
350.995
351.196
351.445
351.699
351.941
352.161
352.351
352.501
352.605
352.659
352.659
352.605
352.501
352.351
352.161
351.941
351.699
351.445
351.196
350.995
341.644
341.806
342.01
342.219
342.418
342.599
342.754
342.878
342.964
343.008
343.008
342.964
342.878
342.754
342.599
342.418
342.219
342.01
341.806
341.644
332.346
332.47
332.629
332.792
332.947
333.088
333.21
333.306
333.373
333.408
333.408
333.373
333.306
333.21
333.088
332.947
332.792
332.629
332.47
332.346
323.088
323.176
323.289
323.406
323.517
323.618
323.705
323.774
323.822
323.847
323.847
323.822
323.774
323.705
323.618
323.517
323.406
323.289
323.176
323.088
313.857
313.91
313.978
314.048
314.115
314.176
314.228
314.27
314.299
314.313
314.313
314.299
314.27
314.228
314.176
314.115
314.048
313.978
313.91
313.857
304.643
304.661
304.684
304.707
304.73
304.75
304.768
304.782
304.791
304.796
304.796
304.791
304.782
304.768
304.75
304.73
304.707
304.684
304.661
304.643
)
;

boundaryField
{
    hotSide
    {
        type            fixedGradient;
        gradient        nonuniform List<scalar> 
400
(
475.913
477.282
480.029
484.171
489.734
496.75
505.253
515.284
526.882
540.09
554.945
571.486
589.746
609.756
631.543
655.128
680.533
707.771
736.856
767.798
487.059
488.339
490.913
494.803
500.043
506.675
514.745
524.306
535.41
548.107
562.448
578.477
596.237
615.764
637.087
660.234
685.226
712.078
740.804
771.413
499.12
500.296
502.663
506.253
511.111
517.292
524.857
533.871
544.403
556.517
570.274
585.728
602.93
621.922
642.739
665.409
689.955
716.395
744.74
774.999
511.899
512.952
515.079
518.322
522.739
528.402
535.389
543.786
553.676
565.139
578.25
593.075
609.672
628.088
648.364
670.53
694.61
720.621
748.573
778.474
525.037
525.952
527.809
530.664
534.59
539.678
546.031
553.752
562.946
573.71
586.133
600.293
616.256
634.075
653.795
675.447
699.055
724.634
752.196
781.743
537.986
538.753
540.323
542.764
546.169
550.652
556.339
563.358
571.834
581.882
593.606
607.097
622.426
639.655
658.828
679.98
703.132
728.298
755.487
784.7
550.006
550.626
551.908
553.937
556.827
560.715
565.751
572.087
579.869
589.232
600.293
613.152
627.89
644.571
663.241
683.934
706.672
731.467
758.322
787.236
560.207
560.694
561.718
563.377
565.806
569.164
573.623
579.358
586.534
595.301
605.789
618.107
632.341
648.558
666.805
687.116
709.51
733.997
760.578
789.248
567.673
568.058
568.884
570.261
572.338
575.294
579.318
584.601
591.323
599.647
609.711
621.631
635.495
651.374
669.315
689.349
711.496
735.763
762.148
790.645
571.629
571.958
572.676
573.9
575.787
578.525
582.313
587.353
593.832
601.918
611.756
623.464
637.133
652.833
670.612
690.502
712.519
736.671
762.954
791.362
571.629
571.958
572.676
573.9
575.787
578.525
582.313
587.353
593.832
601.918
611.756
623.464
637.133
652.833
670.612
690.502
712.519
736.671
762.954
791.362
567.673
568.058
568.884
570.261
572.338
575.294
579.318
584.601
591.323
599.647
609.711
621.631
635.495
651.374
669.315
689.349
711.496
735.763
762.148
790.645
560.207
560.694
561.718
563.377
565.806
569.164
573.623
579.358
586.534
595.301
605.789
618.107
632.341
648.558
666.805
687.116
709.51
733.997
760.578
789.248
550.006
550.626
551.908
553.937
556.827
560.715
565.751
572.087
579.869
589.232
600.293
613.152
627.89
644.571
663.241
683.934
706.672
731.467
758.322
787.236
537.986
538.753
540.323
542.764
546.169
550.652
556.339
563.358
571.834
581.882
593.606
607.097
622.426
639.655
658.828
679.98
703.132
728.298
755.487
784.7
525.037
525.952
527.809
530.664
534.59
539.678
546.031
553.752
562.946
573.71
586.133
600.293
616.256
634.075
653.795
675.447
699.055
724.634
752.196
781.743
511.899
512.952
515.079
518.322
522.739
528.402
535.389
543.786
553.676
565.139
578.25
593.075
609.672
628.088
648.364
670.53
694.61
720.621
748.573
778.474
499.12
500.296
502.663
506.253
511.111
517.292
524.857
533.871
544.403
556.517
570.274
585.728
602.93
621.922
642.739
665.409
689.955
716.395
744.74
774.999
487.059
488.339
490.913
494.803
500.043
506.675
514.745
524.306
535.41
548.107
562.448
578.477
596.237
615.764
637.087
660.234
685.226
712.078
740.804
771.413
475.913
477.282
480.029
484.171
489.734
496.75
505.253
515.284
526.882
540.09
554.945
571.486
589.746
609.756
631.543
655.128
680.533
707.771
736.856
767.798
)
;
    }
    coldSide
    {
        type            mixed;
        refValue        uniform 300;
        refGradient     uniform 0;
        valueFraction   uniform 0.991591;
        source          uniform 0;
        value           nonuniform List<scalar> 
400
(
300.025
300.025
300.026
300.026
300.026
300.026
300.027
300.027
300.028
300.029
300.029
300.03
300.031
300.032
300.033
300.035
300.036
300.037
300.038
300.039
300.026
300.026
300.026
300.026
300.026
300.027
300.027
300.028