/*--------------------------------*- C++ -*----------------------------------*\
| =========                 |                                                 |
| \\      /  F ield         | OpenFOAM: The Open Source CFD Toolbox           |
|  \\    /   O peration     | Version:  2212                                  |
|   \\  /    A nd           | Website:  www.openfoam.com                      |
|    \\/     M anipulation  |                                                 |
\*---------------------------------------------------------------------------*/
FoamFile
{
    version     2.0;
    format      ascii;
    arch        "LSB;label=32;scalar=64";
    class       volScalarField;
    location    "./ITHACAoutput/true/18.3";
    object      error;
}
// * * * * * * * * * * * * * * * * * * * * * * * * * * * * * * * * * * * * * //

dimensions      [0 0 0 1 0 0 0];

internalField   nonuniform List<scalar> 
3200
(
1.79498
2.01608
2.22471
2.47231
2.79767
3.12261
3.45687
3.81378
4.03158
4.31742
4.44281
4.49842
4.47002
4.41158
4.32178
4.29004
4.14675
4.02721
4.01173
3.92267
1.52643
1.64755
1.82471
2.1114
2.42091
2.62963
2.94704
3.22351
3.47513
3.58322
3.80261
3.79842
3.78224
3.73356
3.67572
3.62502
3.46868
3.46116
3.40697
3.35149
1.29467
1.4413
1.50986
1.76478
1.98761
2.19948
2.4894
2.65152
2.82206
2.99543
3.1596
3.16621
3.12252
3.11685
3.0608
2.96582
2.94946
2.86251
2.76704
2.8184
1.10609
1.14375
1.23085
1.40741
1.56572
1.79114
1.9735
2.11724
2.34343
2.43315
2.48168
2.55415
2.57617
2.50474
2.3926
2.39808
2.33294
2.29294
2.28278
2.34653
0.729012
0.848835
0.95274
1.03121
1.21062
1.39218
1.5022
1.64901
1.75221
1.89767
1.93318
1.96252
1.92225
1.94334
1.91186
1.8812
1.77373
1.81358
1.7329
1.75979
0.547532
0.548019
0.70708
0.806659
0.867056
0.955935
1.0651
1.18393
1.24614
1.37196
1.31226
1.42104
1.30871
1.3833
1.31465
1.348
1.19502
1.22946
1.25715
1.1606
0.380961
0.363817
0.362677
0.445175
0.52677
0.590277
0.558995
0.719763
0.818265
0.717468
0.808789
0.867307
0.79286
0.811163
0.746197
0.761065
0.788867
0.72412
0.707365
0.690427
0.161479
0.148814
0.145348
0.150959
0.12626
0.192404
0.188847
0.308305
0.313411
0.31804
0.24721
0.328892
0.256793
0.257497
0.289181
0.311601
0.231921
0.297254
0.265264
0.217504
1.26616
1.29975
1.50183
1.8097
2.01395
2.37017
2.73448
3.08947
3.26586
3.51946
3.61969
3.652
3.68496
3.61912
3.54366
3.46267
3.40816
3.44159
3.38405
3.28741
1.04973
1.18189
1.22687
1.49759
1.75367
2.06987
2.37886
2.58917
2.78547
2.98131
3.12811
3.16279
3.20636
3.12166
3.14679
3.00045
2.91962
2.88337
2.81486
2.87852
0.933113
1.00046
1.11345
1.25211
1.41375
1.72737
1.89405
2.14876
2.34293
2.5088
2.58824
2.61694
2.66733
2.62884
2.59141
2.4594
2.40751
2.41798
2.39551
2.33461
0.749667
0.79329
0.923399
1.0186
1.23717
1.37058
1.58732
1.73387
1.88713
2.07261
2.09338
2.18985
2.06644
2.04441
2.07891
2.0382
2.01737
1.90084
1.95778
1.92206
0.534836
0.589015
0.680833
0.723036
0.937056
1.05743
1.17231
1.35171
1.5512
1.61063
1.658
1.62478
1.70124
1.63414
1.63217
1.49119
1.52739
1.47733
1.51986
1.45541
0.440353
0.442213
0.440444
0.567863
0.689264
0.772546
0.861237
0.936292
0.985637
1.1366
1.14564
1.16811
1.16986
1.12697
1.12019
1.08171
1.05663
1.0601
1.03931
1.04448
0.332584
0.280432
0.295877
0.333197
0.464627
0.447749
0.543453
0.556116
0.657161
0.655404
0.745769
0.73314
0.673646
0.661354
0.655263
0.680494
0.609056
0.590747
0.706159
0.562041
0.0458946
0.0824424
0.154728
0.0993148
0.159419
0.19615
0.172108
0.24607
0.21585
0.189993
0.206108
0.22916
0.225474
0.249743
0.17586
0.17225
0.217894
0.205577
0.177547
0.257308
0.352439
0.436113
0.641097
0.802064
1.08577
1.4174
1.71289
2.00809
2.31235
2.46528
2.59876
2.65164
2.72956
2.63807
2.61738
2.5916
2.4249
2.44029
2.42396
2.45201
0.355955
0.432436
0.522559
0.711227
0.957115
1.21794
1.48021
1.77543
1.99928
2.15416
2.20582
2.2707
2.36422
2.24694
2.24315
2.19577
2.12654
2.05246
2.10911
2.14696
0.274191
0.370122
0.509201
0.661281
0.791968
1.0283
1.22894
1.45371
1.67802
1.83312
1.89889
1.95568
1.94976
1.91837
1.84353
1.80324
1.8034
1.79988
1.75969
1.75872
0.18661
0.313186
0.363623
0.509589
0.620064
0.81699
0.997389
1.13563
1.31746
1.48109
1.52067
1.54392
1.58621
1.59045
1.55428
1.44706
1.45901
1.39408
1.3965
1.38351
0.222664
0.305443
0.246552
0.368554
0.503193
0.543429
0.768041
0.904901
1.02321
1.11232
1.16943
1.19284
1.29895
1.19509
1.1783
1.14344
1.13464
1.10431
1.13733
1.12669
0.12511
0.13276
0.194269
0.247236
0.323807
0.484828
0.65806
0.678125
0.689817
0.812553
0.80702
0.803628
0.875271
0.855031
0.832019
0.773121
0.72735
0.781025
0.798191
0.79393
0.0689719
0.100861
0.0501865
0.241815
0.199445
0.259359
0.301891
0.354242
0.436242
0.441757
0.42467
0.51547
0.547728
0.529735
0.472779
0.401517
0.465548
0.443942
0.49484
0.495307
-0.033622
0.0432997
0.0584146
-0.00822545
0.126012
0.112528
0.165327
0.138656
0.162478
0.0553982
0.199128
0.116402
0.191336
0.176009
0.203772
0.148425
0.145525
0.159381
0.153346
0.148056
-0.461351
-0.468302
-0.22596
-0.104644
0.0812996
0.386256
0.642311
0.944517
1.15029
1.37411
1.48413
1.57233
1.63072
1.61036
1.59271
1.56235
1.56269
1.47248
1.54127
1.57358
-0.39736
-0.231498
-0.240745
-0.105718
0.160264
0.395425
0.597183
0.852486
0.988123
1.23435
1.2911
1.43259
1.40594
1.35539
1.38489
1.27028
1.37239
1.2759
1.30162
1.3326
-0.357198
-0.271734
-0.198734
-0.104823
0.127448
0.30566
0.5739
0.710276
0.836825
1.01895
1.15096
1.20185
1.08738
1.14993
1.13755
1.09288
1.02752
1.02382
1.10367
1.06386
-0.264871
-0.222721
-0.128465
-0.0884354
0.0609569
0.161921
0.426019
0.56193
0.668874
0.780977
0.893835
0.908991
0.936307
0.909882
0.911972
0.981592
0.889849
0.854806
0.881083
0.933678
-0.176527
-0.161599
-0.0783624
-0.0491559
0.0912644
0.128474
0.320529
0.453074
0.470967
0.633304
0.664477
0.659993
0.721657
0.727222
0.596679
0.694562
0.630587
0.658032
0.656445
0.691709
-0.18686
-0.0782479
-0.0218522
-0.0224329
0.039728
0.143106
0.188733
0.297216
0.478862
0.502225
0.472751
0.542523
0.503099
0.413393
0.473087
0.558056
0.43966
0.452111
0.452184
0.449762
-0.0714017
-0.0222988
-0.0349245
-0.035517
0.0174838
0.0998534
0.122157
0.11028
0.192379
0.323053
0.268526
0.27198
0.366845
0.349066
0.280085
0.27647
0.293763
0.258907
0.295602
0.349761
-0.0389422
-0.0900028
-0.0239912
-0.0151347
0.036236
0.0199014
0.0685523
0.0803772
0.00219033
0.0258213
0.0565245
0.110751
0.110774
0.0858382
0.108221
0.0830689
0.0675389
0.0950842
0.108834
0.156282
-1.25998
-1.26022
-1.18209
-1.06088
-0.825008
-0.543222
-0.313081
-0.128248
0.224038
0.334022
0.50045
0.533922
0.597674
0.552786
0.631507
0.597775
0.55436
0.609689
0.626942
0.713559
-1.13099
-1.096
-0.962041
-0.801904
-0.705051
-0.494516
-0.300748
-0.0573576
0.114157
0.299967
0.473979
0.482053
0.523406
0.464759
0.502186
0.409628
0.496717
0.46538
0.644343
0.574671
-0.941823
-0.903844
-0.829888
-0.740671
-0.585417
-0.482388
-0.293793
-0.0463898
0.0961926
0.243502
0.305295
0.343037
0.446586
0.348352
0.368012
0.341448
0.358056
0.440668
0.445358
0.475525
-0.690534
-0.768757
-0.72054
-0.590821
-0.484521
-0.30485
-0.252092
-0.0213084
0.0375243
0.168896
0.311537
0.279652
0.26338
0.341949
0.349622
0.365233
0.216096
0.332542
0.413777
0.322316
-0.580101
-0.579378
-0.521017
-0.489438
-0.325571
-0.27746
-0.128127
-0.0949037
-0.0164554
0.162483
0.130895
0.243948
0.227238
0.232182
0.291084
0.252546
0.192436
0.270841
0.350377
0.260536
-0.423726
-0.36402
-0.38507
-0.358955
-0.23899
-0.261078
-0.081045
-0.0462828
-0.0356054
0.0685205
0.0987371
0.181393
0.171274
0.171061
0.216596
0.148586
0.12767
0.173679
0.188159
0.189176
-0.224292
-0.236335
-0.226773
-0.164711
-0.20462
-0.148029
-0.0977793
-0.0983867
-0.00095862
0.0511411
0.105924
0.0575927
0.07949
0.104854
0.143741
0.0792701
0.126506
0.121428
0.146137
0.0845444
-0.109771
-0.0923545
-0.0527526
-0.0194918
-0.064737
-0.0602506
-0.0460775
0.00736028
-0.0266263
-0.0545536
0.0261148
0.0283602
0.0180389
0.0353645
0.078686
-0.0118018
0.00593986
0.0225662
0.047616
0.0231506
-2.09502
-2.04477
-1.95243
-1.88057
-1.68098
-1.5743
-1.3153
-1.09361
-0.873086
-0.688475
-0.547512
-0.417215
-0.458872
-0.390421
-0.375353
-0.339376
-0.319565
-0.240688
-0.267721
-0.0156842
-1.75456
-1.71402
-1.67696
-1.62684
-1.45954
-1.2085
-1.13285
-0.948574
-0.714123
-0.60728
-0.496959
-0.349011
-0.416009
-0.32048
-0.396903
-0.352452
-0.305043
-0.210911
-0.218297
-0.0971376
-1.46268
-1.47973
-1.48913
-1.36972
-1.24351
-1.12784
-0.939186
-0.807982
-0.652675
-0.614818
-0.426873
-0.28306
-0.342306
-0.323324
-0.322254
-0.368507
-0.263672
-0.209289
-0.14616
-0.0464704
-1.19984
-1.17798
-1.19059
-1.13935
-1.01703
-0.932095
-0.827687
-0.680571
-0.493986
-0.414436
-0.311469
-0.311232
-0.271954
-0.230258
-0.303917
-0.260027
-0.313007
-0.209574
-0.145737
-0.0951359
-0.907801
-0.984426
-0.883815
-0.861549
-0.826344
-0.745639
-0.64734
-0.45839
-0.409897
-0.35656
-0.268489
-0.312604
-0.203511
-0.250674
-0.226261
-0.222838
-0.195673
-0.145246
-0.136183
-0.0908718
-0.60971
-0.645737
-0.67562
-0.691497
-0.63522
-0.533918
-0.423935
-0.302183
-0.311119
-0.202411
-0.170763
-0.241623
-0.157817
-0.133917
-0.119114
-0.147363
-0.226944
-0.156898
-0.140372
-0.107461
-0.353178
-0.369338
-0.455729
-0.379857
-0.323275
-0.237354
-0.269906
-0.228715
-0.150682
-0.11879
-0.117586
-0.081358
-0.140842
-0.0374306
-0.0870096
-0.085918
-0.0795628
-0.125511
-0.0174788
0.016878
-0.136126
-0.185312
-0.204815
-0.107623
-0.136062
-0.129681
-0.136494
-0.0510705
-0.0917147
-0.0251507
-0.111936
0.0272658
-0.00629695
-0.0277066
0.0193868
-0.0842403
-0.073868
0.0149184
-0.0286442
0.0189797
-2.79156
-2.77432
-2.74167
-2.68495
-2.51729
-2.3667
-2.18661
-2.00052
-1.84867
-1.65988
-1.49302
-1.42384
-1.35518
-1.32595
-1.26507
-1.19989
-1.23885
-1.08467
-0.938133
-0.810243
-2.41618
-2.36214
-2.44509
-2.29149
-2.18989
-1.98553
-1.94416
-1.75214
-1.55213
-1.4084
-1.37001
-1.24239
-1.20411
-1.19304
-1.12108
-1.07152
-1.04088
-0.917441
-0.77444
-0.736674
-2.02364
-2.04775
-1.98986
-2.05168
-1.78351
-1.81346
-1.65906
-1.44394
-1.3316
-1.21754
-1.18075
-1.00989
-1.03888
-0.958788
-0.974148
-0.922945
-0.920521
-0.778202
-0.719415
-0.641154
-1.64345
-1.6685
-1.62416
-1.54901
-1.51667
-1.48779
-1.30367
-1.24538
-1.09044
-0.990259
-0.963331
-0.861757
-0.807607
-0.794245
-0.859538
-0.769086
-0.778432
-0.652856
-0.628667
-0.485834
-1.22581
-1.24842
-1.28054
-1.24292
-1.20954
-1.13346
-1.0181
-0.900577
-0.862692
-0.826704
-0.715513
-0.713137
-0.715724
-0.618398
-0.613834
-0.586724
-0.58303
-0.522812
-0.485939
-0.450212
-0.856472
-0.94392
-0.90869
-0.913141
-0.839099
-0.825975
-0.736766
-0.671123
-0.607453
-0.549587
-0.54839
-0.492713
-0.431619
-0.454284
-0.519334
-0.480101
-0.454765
-0.405651
-0.316244
-0.249123
-0.490996
-0.561528
-0.520379
-0.544899
-0.505356
-0.460394
-0.512321
-0.465175
-0.354829
-0.363402
-0.305319
-0.283961
-0.320528
-0.244408
-0.293793
-0.238137
-0.217326
-0.227997
-0.218318
-0.151655
-0.188541
-0.134162
-0.17111
-0.143529
-0.222095
-0.132161
-0.16056
-0.136242
-0.174051
-0.156953
-0.0799693
-0.125651
-0.125526
-0.137181
-0.152338
-0.0548599
-0.139013
-0.022967
-0.109785
0.00778985
-3.23988
-3.38651
-3.47641
-3.38676
-3.34116
-3.17789
-3.02405
-2.92624
-2.70256
-2.53432
-2.38007
-2.31014
-2.23418
-2.1244
-2.0832
-1.94275
-1.92021
-1.76821
-1.57981
-1.43698
-2.87169
-2.95527
-2.95781
-2.82338
-2.84033
-2.75067
-2.62235
-2.47566
-2.33854
-2.19273
-2.14949
-1.98088
-1.96203
-1.85199
-1.80342
-1.77763
-1.64453
-1.52357
-1.37184
-1.24979
-2.43761
-2.41203
-2.38286
-2.47196
-2.40626
-2.31886
-2.20837
-2.09336
-2.00268
-1.83411
-1.79599
-1.70046
-1.66021
-1.59665
-1.55727
-1.4895
-1.45476
-1.40202
-1.21039
-1.06992
-2.00752
-2.04844
-1.94068
-2.03762
-1.97536
-1.921
-1.82811
-1.69918
-1.70165
-1.55568
-1.41525
-1.38046
-1.34231
-1.35586
-1.29214
-1.326
-1.19506
-1.08276
-0.995128
-0.928683
-1.5042
-1.54497
-1.58201
-1.49758
-1.53725
-1.49275
-1.37552
-1.37228
-1.2782
-1.11862
-1.15853
-1.13218
-1.04142
-1.03589
-0.974539
-0.978465
-0.945457
-0.891025
-0.805169
-0.708365
-1.03458
-1.04618
-1.09475
-1.12308
-1.1023
-1.05799
-1.03022
-0.965304
-0.931768
-0.928568
-0.891866
-0.790417
-0.769209
-0.757726
-0.681153
-0.69804
-0.609001
-0.56063
-0.571656
-0.598533
-0.644255
-0.748087
-0.663621
-0.6924
-0.670339
-0.683434
-0.656194
-0.635874
-0.483822
-0.510533
-0.528895
-0.48463
-0.396454
-0.452785
-0.426535
-0.414882
-0.413009
-0.343109
-0.348103
-0.319507
-0.166873
-0.197496
-0.299911
-0.237092
-0.282292
-0.219149
-0.224148
-0.150544
-0.145452
-0.165514
-0.165158
-0.118317
-0.203955
-0.199434
-0.143294
-0.169514
-0.150316
-0.192408
-0.114763
-0.11535
-3.79748
-3.90297
-4.00846
-4.07812
-3.93227
-3.92463
-3.81555
-3.64923
-3.549
-3.32078
-3.14219
-3.05543
-3.04348
-2.92975
-2.79336
-2.65334
-2.51527
-2.33565
-2.23431
-1.97329
-3.3455
-3.38219
-3.40261
-3.45251
-3.38942
-3.32041
-3.29781
-3.0783
-2.93162
-2.82319
-2.73151
-2.64392
-2.60166
-2.55029
-2.52243
-2.33278
-2.23108
-2.05151
-1.95546
-1.738
-2.83089
-2.84409
-2.88073
-2.90457
-2.85554
-2.8164
-2.71237
-2.7066
-2.49261
-2.41256
-2.36216
-2.23392
-2.20838
-2.17807
-2.109
-1.98378
-1.8493
-1.71266
-1.55177
-1.48953
-2.25048
-2.36846
-2.35361
-2.34257
-2.34481
-2.30274
-2.21437
-2.15845
-2.06621
-1.98767
-1.94781
-1.87735
-1.84102
-1.81602
-1.72339
-1.60936
-1.59543
-1.39926
-1.33845
-1.19273
-1.70309
-1.80017
-1.85245
-1.83676
-1.90158
-1.73104
-1.75712
-1.69465
-1.5828
-1.54867
-1.47538
-1.42462
-1.45149
-1.36831
-1.29931
-1.22981
-1.21419
-1.11967
-1.01789
-0.9619
-1.22018
-1.29412
-1.31357
-1.33899
-1.2818
-1.25118
-1.21787
-1.23349
-1.14829
-1.14073
-1.04474
-1.03397
-1.01629
-1.04826
-0.933107
-0.909995
-0.828272
-0.861456
-0.769345
-0.754893
-0.693238
-0.752933
-0.777716
-0.793161
-0.820918
-0.786497
-0.728372
-0.718635
-0.683873
-0.661996
-0.6268
-0.590117
-0.622221
-0.585665
-0.628553
-0.555584
-0.493511
-0.493137
-0.512324
-0.381346
-0.21754
-0.228938
-0.282429
-0.28716
-0.279431
-0.266485
-0.24229
-0.262379
-0.257115
-0.192585
-0.205604
-0.213939
-0.233819
-0.253394
-0.252167
-0.176459
-0.198173
-0.185216
-0.0928908
-0.172081
-4.15982
-4.42201
-4.52112
-4.43711
-4.46038
-4.40755
-4.35174
-4.26712
-4.11733
-3.94827
-3.86411
-3.72476
-3.66227
-3.57705
-3.3999
-3.23188
-3.09268
-2.94373
-2.70047
-2.37518
-3.66569
-3.72161
-3.81779
-3.86951
-3.87817
-3.82233
-3.72168
-3.6926
-3.60684
-3.4674
-3.35905
-3.27084
-3.22693
-3.10495
-2.92841
-2.81188
-2.67842
-2.52118
-2.25039
-2.08821
-2.98202
-3.08915
-3.23904
-3.22887
-3.31299
-3.23773
-3.17529
-3.14535
-3.03485
-2.98512
-2.85167
-2.79001
-2.58172
-2.63679
-2.49623
-2.45714
-2.2586
-2.13429
-1.97654
-1.75456
-2.43519
-2.57658
-2.59435
-2.64289
-2.61834
-2.6283
-2.60753
-2.53277
-2.49155
-2.38561
-2.25392
-2.28942
-2.19846
-2.20281
-2.04055
-1.95498
-1.87703
-1.70799
-1.56157
-1.48097
-1.9479
-1.99145
-2.02905
-2.11036
-2.05345
-2.11282
-2.04731
-1.97085
-1.86136
-1.85783
-1.80872
-1.81737
-1.72577
-1.60106
-1.64197
-1.49178
-1.48407
-1.37626
-1.2161
-1.136
-1.33571
-1.48057
-1.49219
-1.48994
-1.5073
-1.4147
-1.44117
-1.40832
-1.32033
-1.38019
-1.25929
-1.26986
-1.24822
-1.24678
-1.15307
-1.03601
-1.04082
-0.926695
-0.915747
-0.763178
-0.828495
-0.90589
-0.836029
-0.889204
-0.914913
-0.812664
-0.873909
-0.85252
-0.766924
-0.77106
-0.811699
-0.755674
-0.761454
-0.741609
-0.66783
-0.616515
-0.657241
-0.599541
-0.489851
-0.505781
-0.306112
-0.263723
-0.267008
-0.231341
-0.280807
-0.238039
-0.273463
-0.360959
-0.297588
-0.294102
-0.259931
-0.291289
-0.249502
-0.236925
-0.229433
-0.234423
-0.208176
-0.20543
-0.194641
-0.212025
-4.44078
-4.65465
-4.8614
-4.87203
-4.98185
-4.89874
-4.78381
-4.72536
-4.6721
-4.51491
-4.45902
-4.21608
-4.16761
-4.0928
-3.90143
-3.71083
-3.52953
-3.29596
-2.99173
-2.77381
-3.88748
-4.02731
-4.14396
-4.21513
-4.21946
-4.27708
-4.19231
-4.07938
-4.03209
-3.95924
-3.85808
-3.67892
-3.7007
-3.58661
-3.40826
-3.22971
-3.07141
-2.85888
-2.56994
-2.38308
-3.25353
-3.34902
-3.54023
-3.50956
-3.56968
-3.60036
-3.5117
-3.46579
-3.48957
-3.39155
-3.25225
-3.21803
-3.14092
-3.02171
-2.90604
-2.80852
-2.60292
-2.41124
-2.21537
-2.04383
-2.65902
-2.80577
-2.81006
-2.84735
-2.93426
-2.91467
-2.92795
-2.79468
-2.82172
-2.74118
-2.69454
-2.56258
-2.52628
-2.44847
-2.36997
-2.29222
-2.11182
-1.9928
-1.85496
-1.70426
-1.97658
-2.11433
-2.2469
-2.25101
-2.24027
-2.29859
-2.26423
-2.25328
-2.22217
-2.02652
-2.06572
-1.99583
-1.93368
-1.94034
-1.82051
-1.774
-1.59041
-1.56201
-1.33106
-1.29989
-1.43076
-1.50974
-1.59623
-1.62111
-1.65579
-1.58372
-1.55123
-1.57774
-1.55888
-1.52714
-1.49309
-1.41365
-1.36818
-1.38943
-1.3199
-1.25456
-1.15073
-1.14109
-1.06225
-0.884518
-0.82242
-0.926623
-0.955633
-0.993633
-0.996462
-0.996355
-0.854278
-0.926253
-0.968449
-0.872792
-0.904034
-0.868646
-0.845149
-0.797619
-0.807603
-0.717337
-0.725053
-0.678318
-0.578229
-0.575718
-0.347749
-0.324942
-0.320593
-0.340242
-0.327632
-0.36016
-0.348948
-0.275675
-0.255023
-0.329886
-0.318299
-0.322291
-0.273894
-0.307729
-0.308748
-0.258334
-0.183998
-0.168949
-0.255244
-0.129626
-4.6609
-4.79625
-5.0452
-5.14346
-5.2335
-5.25274
-5.28679
-5.1098
-5.12787
-4.96456
-4.90103
-4.67054
-4.59442
-4.51802
-4.28506
-4.01385
-3.85221
-3.52729
-3.21206
-2.9725
-3.88747
-4.1179
-4.38785
-4.46116
-4.50707
-4.54391
-4.5218
-4.41478
-4.42524
-4.3419
-4.24685
-4.08484
-4.0574
-3.86553
-3.72288
-3.56335
-3.30159
-3.05808
-2.86111
-2.54921
-3.34127
-3.5588
-3.59995
-3.70411
-3.80625
-3.85716
-3.7308
-3.79392
-3.75367
-3.73518
-3.60022
-3.47817
-3.33999
-3.31466
-3.17868
-3.02767
-2.8697
-2.65604
-2.3446
-2.17193
-2.71902
-2.82625
-2.88702
-3.08312
-3.12951
-3.09804
-3.16886
-3.03651
-3.03867
-2.96008
-2.87281
-2.85513
-2.8054
-2.71696
-2.54326
-2.4984
-2.35225
-2.19351
-1.92865
-1.8267
-2.14957
-2.17534
-2.33042
-2.3926
-2.46014
-2.39269
-2.42776
-2.41283
-2.39959
-2.33036
-2.21447
-2.20041
-2.24511
-2.08898
-2.12468
-1.86572
-1.84448
-1.62587
-1.44649
-1.41908
-1.55916
-1.52812
-1.64039
-1.7067
-1.73329
-1.67296
-1.68399
-1.68539
-1.71021
-1.6877
-1.63573
-1.58494
-1.54466
-1.54158
-1.46897
-1.33283
-1.34109
-1.13151
-1.07252
-0.991408
-0.853104
-0.949019
-1.00822
-0.945372
-0.995859
-0.961998
-1.03019
-1.01264
-1.00406
-0.964671
-1.00071
-0.923512
-0.845579
-0.860562
-0.864083
-0.853679
-0.711771
-0.712418
-0.690085
-0.606579
-0.21765
-0.259972
-0.296487
-0.379111
-0.346834
-0.33136
-0.390636
-0.311471
-0.311089
-0.388524
-0.358982
-0.353825
-0.326799
-0.274642
-0.295089
-0.266493
-0.219764
-0.35075
-0.203637
-0.240747
-4.6635
-4.94371
-5.07929
-5.29551
-5.42604
-5.41112
-5.44481
-5.40524
-5.4111
-5.30949
-5.13142
-5.02327
-4.94763
-4.83268
-4.58137
-4.29059
-4.03101
-3.76784
-3.32468
-3.05507
-3.98546
-4.19304
-4.32553
-4.55129
-4.64325
-4.68609
-4.68723
-4.75292
-4.6309
-4.55074
-4.49126
-4.3255
-4.23177
-4.07121
-3.88032
-3.76643
-3.48317
-3.19516
-2.91675
-2.58375
-3.40074
-3.51532
-3.68931
-3.8077
-3.95687
-3.97606
-4.03535
-4.01216
-3.95021
-3.88272
-3.83994
-3.68487
-3.60197
-3.46987
-3.31091
-3.19754
-2.9697
-2.83688
-2.41417
-2.2159
-2.79011
-2.93934
-3.03001
-3.08424
-3.15129
-3.26447
-3.22293
-3.2603
-3.26771
-3.19091
-3.0333
-3.00126
-2.94814
-2.86264
-2.72575
-2.62204
-2.4369
-2.28506
-2.0451
-1.82384
-2.12042
-2.28105
-2.27559
-2.42802
-2.45202
-2.54423
-2.50655
-2.50397
-2.51638
-2.48183
-2.43219
-2.34983
-2.36241
-2.15686
-2.08266
-2.05277
-1.89415
-1.73918
-1.63373
-1.40046
-1.49689
-1.52906
-1.63707
-1.72354
-1.82873
-1.81199
-1.85979
-1.78674
-1.73847
-1.77855
-1.81506
-1.76984
-1.67388
-1.60951
-1.51538
-1.49633
-1.28786
-1.32261
-1.12579
-1.07815
-0.937823
-0.993663
-0.989347
-1.12133
-1.04513
-1.13589
-1.10499
-1.02176
-1.06195
-1.05046
-1.06888
-1.04604
-1.09084
-0.946001
-0.879267
-0.876494
-0.796835
-0.737696
-0.63084
-0.64968
-0.287684
-0.370653
-0.321323
-0.37908
-0.361629
-0.364174
-0.385131
-0.363656
-0.360253
-0.330925
-0.296724
-0.311213
-0.314196
-0.352532
-0.26454
-0.237869
-0.260944
-0.285204
-0.189402
-0.166142
-4.51635
-4.81066
-5.14397
-5.41067
-5.52136
-5.54604
-5.57907
-5.53785
-5.58572
-5.44578
-5.27403
-5.20223
-5.07783
-4.85407
-4.62988
-4.4475
-4.07875
-3.7688
-3.3723
-2.95731
-3.91775
-4.14349
-4.36197
-4.52713
-4.71234
-4.83585
-4.83475
-4.81869
-4.80957
-4.68381
-4.63461
-4.49153
-4.37357
-4.23085
-4.00567
-3.78194
-3.55388
-3.137
-2.91673
-2.60855
-3.2719
-3.39268
-3.67582
-3.82583
-3.92498
-4.00846
-4.06646
-4.06451
-4.12511
-3.99162
-3.9636
-3.8866
-3.72388
-3.55041
-3.46572
-3.14147
-2.96703
-2.71799
-2.45078
-2.18016
-2.70244
-2.80883
-2.93202
-3.14005
-3.2342
-3.23637
-3.34864
-3.3101
-3.26015
-3.26319
-3.17606
-3.09558
-3.0559
-2.91372
-2.82556
-2.59863
-2.51631
-2.2405
-1.98279
-1.77789
-2.01803
-2.22315
-2.32439
-2.33917
-2.51501
-2.57949
-2.53715
-2.55302
-2.63907
-2.55361
-2.50949
-2.47798
-2.31142
-2.24852
-2.10188
-2.12993
-1.87727
-1.77378
-1.57286
-1.41117
-1.5093
-1.50641
-1.63311
-1.83249
-1.7914
-1.81002
-1.84255
-1.84928
-1.83442
-1.80175
-1.73117
-1.75606
-1.68743
-1.65364
-1.54434
-1.42594
-1.41634
-1.28361
-1.10907
-0.960946
-0.892723
-0.921613
-0.988787
-1.02404
-1.07027
-1.04046
-1.13168
-1.13083
-1.13027
-1.086
-1.05324
-0.998968
-1.07115
-0.93824
-0.887725
-0.9541
-0.760017
-0.670685
-0.667203
-0.613103
-0.339879
-0.338367
-0.35721
-0.384176
-0.304042
-0.324473
-0.418066
-0.361796
-0.428936
-0.301486
-0.296688
-0.363064
-0.269155
-0.349959
-0.303955
-0.319489
-0.293006
-0.256963
-0.268092
-0.198672
-4.34266
-4.56883
-4.89265
-5.13795
-5.36831
-5.51957
-5.51436
-5.54758
-5.52683
-5.51189
-5.44301
-5.19537
-5.08664
-4.85712
-4.66918
-4.2975
-3.96814
-3.60175
-3.23871
-2.85991
-3.68395
-3.9192
-4.2331
-4.50631
-4.63334
-4.68885
-4.72801
-4.83689
-4.76593
-4.75459
-4.66468
-4.48255
-4.39679
-4.2741
-4.00845
-3.80882
-3.46883
-3.14528
-2.76607
-2.41552
-3.01907
-3.29467
-3.60323
-3.74902
-3.882
-3.95482
-4.01523
-4.09796
-3.95442
-3.91312
-3.84322
-3.83565
-3.6953
-3.53826
-3.40064
-3.18331
-2.91999
-2.68211
-2.3
-2.01579
-2.53488
-2.68452
-2.84981
-3.01955
-3.13317
-3.25989
-3.25521
-3.30845
-3.31439
-3.29911
-3.22195
-3.16254
-3.0483
-2.91452
-2.7683
-2.60367
-2.43188
-2.16119
-1.85483
-1.65294
-1.89575
-2.06446
-2.18
-2.32805
-2.42241
-2.56674
-2.60712
-2.60217
-2.53024
-2.53577
-2.45146
-2.45618
-2.33547
-2.2465
-2.19134
-2.02604
-1.83308
-1.72208
-1.47506
-1.35312
-1.40766
-1.52143
-1.53218
-1.67254
-1.74229
-1.85742
-1.79655
-1.79458
-1.771
-1.83895
-1.83349
-1.77036
-1.6753
-1.55184
-1.50583
-1.48916
-1.33195
-1.21264
-1.0844
-0.978069
-0.827354
-0.824234
-0.876005
-1.00248
-1.04447
-1.09593
-1.08696
-1.08114
-1.10018
-1.08418
-0.997223
-1.02255
-1.05255
-0.95227
-0.868733
-0.864537
-0.854159
-0.787101
-0.636169
-0.536243
-0.216618
-0.2591
-0.312474
-0.331442
-0.394162
-0.345921
-0.319337
-0.34455
-0.346001
-0.367368
-0.347039
-0.367827
-0.317021
-0.390958
-0.270187
-0.253886
-0.24499
-0.244365
-0.242905
-0.216378
-3.88179
-4.28349
-4.68235
-4.92423
-5.24024
-5.35515
-5.38179
-5.45255
-5.44521
-5.33364
-5.27646
-5.14872
-4.945
-4.72967
-4.51367
-4.20459
-3.78799
-3.40263
-2.90795
-2.54975
-3.34683
-3.59998
-4.0033
-4.17179
-4.40339
-4.56732
-4.6197
-4.71754
-4.71214
-4.64037
-4.55107
-4.43851
-4.39528
-4.07827
-3.90834
-3.53615
-3.31488
-2.91995
-2.48108
-2.23947
-2.84397
-3.04242
-3.31905
-3.56124
-3.74326
-3.86088
-3.9551
-3.98066
-3.91951
-3.90239
-3.88424
-3.7237
-3.63831
-3.40115
-3.2897
-3.05279
-2.81762
-2.42927
-2.08798
-1.8297
-2.29965
-2.49719
-2.67942
-2.79151
-3.01253
-3.13084
-3.17327
-3.21212
-3.20217
-3.17092
-3.12156
-3.05073
-2.8661
-2.84934
-2.64096
-2.47135
-2.25139
-2.00036
-1.66068
-1.47744
-1.84679
-1.88093
-2.10211
-2.24098
-2.29686
-2.41358
-2.49559
-2.52331
-2.42849
-2.5001
-2.45443
-2.38327
-2.28672
-2.18684
-2.05514
-1.93403
-1.73832
-1.53201
-1.41653
-1.19534
-1.22971
-1.39198
-1.568
-1.58874
-1.58894
-1.68121
-1.78759
-1.75425
-1.78536
-1.72869
-1.74319
-1.66034
-1.61141
-1.53454
-1.48089
-1.38553
-1.22806
-1.17583
-0.892472
-0.787329
-0.835303
-0.849575
-0.900799
-0.923864
-1.11959
-1.05052
-1.11819
-1.04489
-0.99366
-1.13767
-1.02805
-1.01416
-1.0142
-0.971678
-0.887279
-0.808512
-0.76954
-0.69628
-0.581496
-0.524427
-0.222193
-0.306893
-0.307914
-0.41282
-0.354842
-0.334703
-0.309755
-0.348067
-0.332806
-0.327486
-0.310097
-0.292419
-0.361612
-0.303266
-0.302925
-0.256487
-0.212032
-0.273452
-0.213793
-0.129972
-3.49738
-3.7647
-4.31244
-4.52516
-4.80964
-4.88403
-5.08798
-5.12001
-5.13517
-5.11366
-5.02977
-4.84398
-4.73503
-4.51846
-4.14077
-3.84
-3.42756
-3.03927
-2.58853
-2.17936
-2.96685
-3.27017
-3.60207
-3.81862
-4.11691
-4.24629
-4.39359
-4.45813
-4.43937
-4.40007
-4.33874
-4.22998
-4.01713
-3.86141
-3.63551
-3.3618
-3.00582
-2.55762
-2.11281
-1.80665
-2.47239
-2.65036
-3.04075
-3.24534
-3.47801
-3.64144
-3.6869
-3.69605
-3.68922
-3.70418
-3.65837
-3.52107
-3.35928
-3.29876
-2.98226
-2.76337
-2.45721
-2.18784
-1.84222
-1.58196
-1.9826
-2.12812
-2.41884
-2.61716
-2.80398
-2.90913
-3.00974
-3.07279
-3.04823
-3.03976
-2.91232
-2.85984
-2.80842
-2.61522
-2.43376
-2.29434
-2.04653
-1.74895
-1.44545
-1.23723
-1.5259
-1.7191
-1.84887
-1.95545
-2.13585
-2.27918
-2.23633
-2.38679
-2.31601
-2.36441
-2.31478
-2.1808
-2.15323
-2.00069
-1.87744
-1.8182
-1.57237
-1.31964
-1.17268
-1.0082
-1.11351
-1.22219
-1.28361
-1.43861
-1.62415
-1.59873
-1.62394
-1.64405
-1.82249
-1.67032
-1.70969
-1.59226
-1.53286
-1.49403
-1.42473
-1.21772
-1.13137
-0.972687
-0.781398
-0.723366
-0.655872
-0.740579
-0.776187
-0.825744
-0.901288
-0.922847
-0.987823
-0.990915
-0.991721
-0.96851
-0.99564
-0.983383
-0.983229
-0.825592
-0.851298
-0.760159
-0.679212
-0.58516
-0.456637
-0.42924
-0.164451
-0.288529
-0.234283
-0.340122
-0.246196
-0.29591
-0.334745
-0.351727
-0.323027
-0.335088
-0.303377
-0.313087
-0.325573
-0.288497
-0.265671
-0.26135
-0.177785
-0.187649
-0.13975
-0.161763
-2.93344
-3.22687
-3.64088
-4.07594
-4.23292
-4.52699
-4.7086
-4.7186
-4.74444
-4.7182
-4.74683
-4.50727
-4.3552
-4.01445
-3.80557
-3.39792
-2.9972
-2.58407
-2.08133
-1.59516
-2.34795
-2.70751
-3.06603
-3.47462
-3.70889
-3.89021
-4.00584
-4.04211
-4.07756
-4.07481
-3.99878
-3.88462
-3.68243
-3.47625
-3.28558
-2.91846
-2.58515
-2.16525
-1.72251
-1.35066
-1.94718
-2.2376
-2.57463
-2.85987
-3.11239
-3.32962
-3.31425
-3.4047
-3.409
-3.47553
-3.28521
-3.28889
-3.10036
-2.93848
-2.77893
-2.51509
-2.17706
-1.83052
-1.48029
-1.16579
-1.63649
-1.78859
-2.06917
-2.23706
-2.44162
-2.67234
-2.70773
-2.82298
-2.85607
-2.79264
-2.79199
-2.63198
-2.53252
-2.36876
-2.22956
-1.96888
-1.7954
-1.51227
-1.16981
-0.968152
-1.26875
-1.39143
-1.64704
-1.78062
-1.96228
-2.02495
-2.12862
-2.17214
-2.18188
-2.15652
-2.14666
-2.03716
-1.9323
-1.88074
-1.73892
-1.53698
-1.3581
-1.07226
-0.951984
-0.80481
-0.903361
-0.981295
-1.10446
-1.26005
-1.34939
-1.4577
-1.49537
-1.52109
-1.50691
-1.51101
-1.56337
-1.50027
-1.40782
-1.36278
-1.19093
-0.996098
-0.909458
-0.862442
-0.628199
-0.611848
-0.507941
-0.640263
-0.572856
-0.765139
-0.81371
-0.852935
-0.928565
-0.929691
-0.912836
-0.901508
-0.861599
-0.977396
-0.855704
-0.77251
-0.729846
-0.661877
-0.579637
-0.482921
-0.342551
-0.320487
-0.165345
-0.162641
-0.225456
-0.275176
-0.291786
-0.302596
-0.280783
-0.241938
-0.318238
-0.323068
-0.26835
-0.28738
-0.295329
-0.256843
-0.206039
-0.216887
-0.190173
-0.114091
-0.153057
-0.148078
-2.25772
-2.57427
-3.06189
-3.45477
-3.79084
-3.9975
-4.21282
-4.26833
-4.19159
-4.25193
-4.2107
-4.07018
-3.92541
-3.60555
-3.31716
-2.93221
-2.47427
-2.02894
-1.45629
-1.0276
-1.86205
-2.24613
-2.62155
-2.93076
-3.2016
-3.42568
-3.61823
-3.6837
-3.74615
-3.60924
-3.63613
-3.53946
-3.27878
-3.15414
-2.83672
-2.47442
-2.11294
-1.70945
-1.22725
-0.895866
-1.56009
-1.86064
-2.14208
-2.40871
-2.64606
-2.86153
-3.01395
-3.01512
-3.11808
-3.07847
-3.0475
-2.93329
-2.78822
-2.60342
-2.38367
-2.14997
-1.79406
-1.39966
-1.06174
-0.733119
-1.21546
-1.42283
-1.68553
-1.97897
-2.17402
-2.3844
-2.42303
-2.58134
-2.47361
-2.47217
-2.45939
-2.394
-2.23788
-2.13442
-1.95587
-1.71436
-1.48697
-1.16661
-0.839806
-0.569153
-0.899469
-1.189
-1.44186
-1.50441
-1.67741
-1.7556
-1.89182
-1.90881
-1.96741
-1.94242
-1.90539
-1.8314
-1.73054
-1.62926
-1.46417
-1.32191
-1.14318
-0.897718
-0.610174
-0.440599
-0.676806
-0.829487
-1.00195
-1.09722
-1.17857
-1.28656
-1.35525
-1.43155
-1.34825
-1.40612
-1.29421
-1.34953
-1.27841
-1.1605
-1.08262
-0.92361
-0.79716
-0.577929
-0.471495
-0.283636
-0.463793
-0.452654
-0.635515
-0.5545
-0.73324
-0.78511
-0.802469
-0.825288
-0.841874
-0.744382
-0.787488
-0.77269
-0.784225
-0.70922
-0.613791
-0.518418
-0.416604
-0.357236
-0.303628
-0.172176
-0.0995889
-0.12892
-0.173214
-0.246306
-0.175816
-0.216332
-0.269993
-0.261338
-0.288678
-0.304074
-0.251023
-0.283744
-0.25803
-0.263332
-0.218976
-0.154674
-0.20425
-0.124509
-0.0763519
0.00357642
-1.65995
-2.06939
-2.52122
-2.98216
-3.33839
-3.61595
-3.6962
-3.84373
-3.83105
-3.91719
-3.77987
-3.62823
-3.43643
-3.19968
-2.9341
-2.50472
-2.03432
-1.55716
-0.948847
-0.519326
-1.38908
-1.78559
-2.19163
-2.5217
-2.76742
-3.09516
-3.26748
-3.30537
-3.31444
-3.30897
-3.23915
-3.15242
-2.9331
-2.77634
-2.48434
-2.15661
-1.78658
-1.31666
-0.843649
-0.430526
-1.15042
-1.41503
-1.79915
-2.12206
-2.39983
-2.62552
-2.63603
-2.80468
-2.84879
-2.82949
-2.74052
-2.64748
-2.52417
-2.35466
-2.12257
-1.76156
-1.51887
-1.11779
-0.709534
-0.320813
-0.96978
-1.15469
-1.48149
-1.68627
-1.93685
-2.10531
-2.18193
-2.27021
-2.3419
-2.30887
-2.25904
-2.1666
-2.14406
-1.90218
-1.73983
-1.50709
-1.22081
-0.947615
-0.574594
-0.369093
-0.707887
-0.886203
-1.12633
-1.40011
-1.4798
-1.59811
-1.6941
-1.75679
-1.76097
-1.80133
-1.73559
-1.65975
-1.58414
-1.4101
-1.31944
-1.18965
-1.00834
-0.703126
-0.494894
-0.222141
-0.526611
-0.669058
-0.829799
-1.0739
-1.05063
-1.17675
-1.19383
-1.26639
-1.24394
-1.32114
-1.281
-1.20107
-1.13594
-1.01185
-0.957064
-0.778353
-0.683977
-0.547255
-0.31117
-0.23204
-0.335111
-0.392441
-0.468972
-0.529561
-0.655875
-0.707997
-0.75841
-0.742825
-0.763093
-0.74706
-0.75337
-0.696621
-0.643384
-0.630941
-0.56717
-0.477172
-0.351578
-0.279205
-0.182842
-0.194815
-0.0930208
-0.185016
-0.177461
-0.154648
-0.243962
-0.303743
-0.212123
-0.236995
-0.26715
-0.255135
-0.24894
-0.316496
-0.314336
-0.206826
-0.135356
-0.187273