/*--------------------------------*- C++ -*----------------------------------*\
| =========                 |                                                 |
| \\      /  F ield         | OpenFOAM: The Open Source CFD Toolbox           |
|  \\    /   O peration     | Version:  2212                                  |
|   \\  /    A nd           | Website:  www.openfoam.com                      |
|    \\/     M anipulation  |                                                 |
\*---------------------------------------------------------------------------*/
FoamFile
{
    version     2.0;
    format      ascii;
    arch        "LSB;label=32;scalar=64";
    class       volScalarField;
    location    "0";
    object      stateMean;
}
// * * * * * * * * * * * * * * * * * * * * * * * * * * * * * * * * * * * * * //

dimensions      [0 0 0 1 0 0 0];

internalField   nonuniform List<scalar> 
3200
(
317.555
317.535
317.582
317.614
317.576
317.533
317.46
317.323
317.265
317.065
316.939
316.799
316.667
316.505
316.334
316.084
315.939
315.78
315.539
315.427
315.366
315.414
315.458
315.414
315.353
315.388
315.296
315.209
315.097
315.062
314.842
314.774
314.651
314.509
314.342
314.149
314.056
313.822
313.655
313.541
313.089
313.084
313.201
313.15
313.137
313.132
313.033
313.03
312.977
312.865
312.7
312.633
312.559
312.405
312.27
312.159
311.966
311.848
311.758
311.566
310.725
310.8
310.865
310.856
310.869
310.812
310.786
310.773
310.642
310.602
310.553
310.431
310.314
310.254
310.21
310.037
309.93
309.803
309.661
309.484
308.513
308.48
308.494
308.546
308.499
308.449
308.46
308.415
308.386
308.279
308.244
308.175
308.142
308.019
307.929
307.829
307.803
307.633
307.596
307.482
306.077
306.139
306.064
306.056
306.092
306.096
306.073
306.027
306.018
305.92
305.98
305.843
305.902
305.755
305.737
305.611
305.668
305.542
305.43
305.464
303.607
303.661
303.712
303.685
303.661
303.654
303.737
303.619
303.553
303.671
303.579
303.504
303.546
303.485
303.498
303.427
303.341
303.351
303.318
303.298
301.177
301.201
301.222
301.235
301.279
301.232
301.252
301.148
301.153
301.154
301.225
301.137
301.199
301.184
301.135
301.093
301.154
301.07
301.085
301.12
318.155
318.321
318.373
318.341
318.422
318.345
318.239
318.101
318.082
317.912
317.811
317.696
317.505
317.354
317.171
316.973
316.743
316.433
316.237
316.134
315.905
315.941
316.115
316.084
316.074
315.999
315.913
315.891
315.831
315.708
315.561
315.453
315.274
315.17
314.922
314.828
314.662
314.459
314.308
314.076
313.504
313.576
313.648
313.711
313.757
313.648
313.669
313.573
313.494
313.389
313.31
313.22
313.055
312.934
312.784
312.712
312.555
312.343
312.18
312.102
311.125
311.194
311.215
311.284
311.236
311.269
311.206
311.189
311.13
310.993
310.973
310.827
310.857
310.749
310.561
310.435
310.286
310.237
310.029
309.953
308.741
308.774
308.798
308.885
308.803
308.813
308.817
308.737
308.611
308.59
308.543
308.537
308.388
308.355
308.238
308.249
308.081
308.002
307.843
307.821
306.21
306.269
306.354
306.318
306.291
306.3
306.297
306.293
306.296
306.172
306.163
306.114
306.059
306.031
305.953
305.898
305.829
305.734
305.672
305.606
303.669
303.759
303.793
303.811
303.736
303.808
303.764
303.794
303.725
303.743
303.652
303.649
303.676
303.646
303.601
303.521
303.535
303.498
303.333
303.44
301.297
301.273
301.217
301.291
301.25
301.232
301.273
301.214
301.254
301.286
301.27
301.241
301.235
301.195
301.252
301.237
301.172
301.166
301.177
301.086
319.212
319.324
319.369
319.479
319.474
319.416
319.372
319.289
319.139
319.067
318.933
318.799
318.567
318.447
318.216
317.968
317.856
317.57
317.336
317.112
316.723
316.813
316.937
316.984
316.98
316.955
316.911
316.799
316.708
316.623
316.571
316.436
316.21
316.144
315.93
315.741
315.568
315.408
315.136
314.932
314.269
314.31
314.353
314.399
314.472
314.436
314.419
314.348
314.236
314.141
314.075
313.958
313.852
313.73
313.62
313.461
313.257
313.062
312.92
312.784
311.775
311.76
311.856
311.873
311.93
311.896
311.866
311.853
311.764
311.648
311.608
311.537
311.403
311.273
311.159
311.103
310.924
310.826
310.676
310.578
309.121
309.125
309.297
309.301
309.297
309.384
309.275
309.236
309.19
309.138
309.081
309.02
308.842
308.848
308.749
308.657
308.535
308.44
308.293
308.217
306.573
306.626
306.646
306.683
306.699
306.629
306.539
306.589
306.628
306.531
306.537
306.514
306.392
306.342
306.282
306.25
306.203
306.059
305.961
305.904
303.963
303.967
304.067
303.929
304.028
304.022
304.029
304.019
303.967
303.977
303.994
303.888
303.825
303.801
303.808
303.825
303.705
303.673
303.573
303.537
301.387
301.322
301.323
301.407
301.292
301.323
301.288
301.328
301.315
301.428
301.284
301.361
301.276
301.277
301.232
301.27
301.253
301.222
301.212
301.205
320.24
320.438
320.439
320.582
320.667
320.627
320.614
320.515
320.458
320.312
320.202
320.036
319.829
319.646
319.42
319.186
318.914
318.741
318.429
318.205
317.664
317.659
317.879
317.973
317.941
317.935
317.943
317.865
317.857
317.678
317.621
317.412
317.311
317.185
316.945
316.831
316.495
316.362
316.126
315.934
315.059
315.109
315.212
315.312
315.278
315.292
315.201
315.214
315.196
315.071
314.939
314.831
314.837
314.625
314.46
314.312
314.179
313.989
313.733
313.638
312.358
312.424
312.473
312.591
312.604
312.661
312.542
312.528
312.509
312.444
312.331
312.269
312.154
312.058
311.911
311.683
311.613
311.49
311.32
311.159
309.624
309.692
309.72
309.814
309.799
309.885
309.805
309.767
309.818
309.692
309.661
309.629
309.498
309.399
309.416
309.195
309.134
308.984
308.874
308.755
306.959
306.909
306.933
307.02
307.048
307.033
307.067
307.027
306.894
306.896
306.925
306.83
306.821
306.843
306.703
306.53
306.558
306.459
306.379
306.322
304.147
304.133
304.194
304.248
304.249
304.218
304.245
304.297
304.244
304.129
304.183
304.164
304.04
304.018
304.038
303.99
303.918
303.9
303.815
303.726
301.407
301.47
301.42
301.428
301.395
301.429
301.396
301.399
301.486
301.468
301.437
301.377
301.368
301.379
301.341
301.348
301.345
301.301
301.271
301.212
321.325
321.511
321.668
321.802
321.826
321.798
321.8
321.81
321.599
321.563
321.397
321.289
321.084
320.934
320.623
320.403
320.187
319.876
319.624
319.351
318.648
318.77
318.839
318.899
319.028
319.037
319.044
318.968
318.919
318.797
318.623
318.551
318.388
318.278
318.04
317.913
317.6
317.412
317.03
316.942
315.858
315.95
316.047
316.144
316.179
316.261
316.243
316.137
316.098
316.004
315.943
315.851
315.644
315.601
315.411
315.253
315.045
314.776
314.601
314.44
312.96
313.142
313.234
313.256
313.306
313.277
313.363
313.248
313.273
313.186
313.043
313.031
312.964
312.769
312.622
312.456
312.449
312.18
311.959
311.947
310.164
310.244
310.294
310.38
310.338
310.407
310.366
310.423
310.409
310.266
310.297
310.149
310.101
310.006
309.839
309.759
309.699
309.502
309.315
309.323
307.294
307.291
307.389
307.448
307.414
307.52
307.417
307.447
307.483
307.403
307.373
307.266
307.23
307.165
307.042
307.026
306.961
306.83
306.739
306.681
304.359
304.405
304.443
304.431
304.523
304.517
304.513
304.552
304.483
304.445
304.39
304.424
304.375
304.31
304.225
304.239
304.139
304.095
304.023
304.05
301.498
301.491
301.468
301.451
301.514
301.526
301.527
301.487
301.531
301.564
301.483
301.476
301.476
301.446
301.387
301.461
301.426
301.392
301.351
301.365
322.521
322.649
322.782
322.954
323.002
323.136
323.097
323.06
322.971
322.856
322.716
322.515
322.425
322.172
321.937
321.66
321.393
321.071
320.872
320.442
319.586
319.697
319.854
320.015
320.063
320.019
320.134
320.109
319.989
319.942
319.832
319.624
319.576
319.321
319.208
318.955
318.693
318.388
318.201
317.928
316.646
316.789
316.962
317.021
317.077
317.137
317.108
317.111
317.053
317.066
316.878
316.683
316.645
316.492
316.331
316.202
315.915
315.682
315.455
315.229
313.689
313.768
313.915
314.008
314.035
314.094
314.121
314.083
313.976
313.937
313.834
313.793
313.674
313.523
313.466
313.278
313.182
312.934
312.736
312.584
310.664
310.818
310.822
310.913
310.992
311.024
311.027
310.923
310.937
310.916
310.827
310.84
310.669
310.631
310.504
310.389
310.247
310.083
309.97
309.847
307.604
307.695
307.799
307.894
307.921
307.9
307.863
307.801
307.854
307.768
307.737
307.785
307.657
307.573
307.485
307.433
307.43
307.28
307.189
307.101
304.563
304.611
304.743
304.715
304.708
304.67
304.746
304.742
304.69
304.672
304.671
304.62
304.654
304.513
304.52
304.471
304.415
304.413
304.259
304.193
301.549
301.609
301.643
301.563
301.607
301.617
301.638
301.565
301.615
301.553
301.64
301.496
301.52
301.53
301.468
301.555
301.529
301.423
301.453
301.394
323.652
323.804
323.987
324.162
324.228
324.304
324.33
324.316
324.288
324.164
323.997
323.863
323.67
323.469
323.202
322.911
322.716
322.33
321.968
321.67
320.626
320.717
320.986
321.032
321.134
321.126
321.262
321.218
321.125
321.038
321
320.815
320.67
320.511
320.261
320.016
319.782
319.458
319.129
318.947
317.53
317.674
317.772
318.004
317.907
318.102
318.099
318.009
317.987
317.921
317.884
317.665
317.604
317.399
317.263
317.046
316.873
316.56
316.345
316.147
314.397
314.52
314.603
314.666
314.774
314.881
314.82
314.863
314.782
314.721
314.694
314.554
314.426
314.31
314.253
314.026
313.895
313.632
313.48
313.24
311.19
311.286
311.418
311.487
311.563
311.592
311.572
311.535
311.554
311.549
311.438
311.404
311.35
311.172
311.073
310.94
310.827
310.66
310.524
310.414
307.998
308.139
308.174
308.255
308.259
308.321
308.301
308.292
308.269
308.233
308.231
308.155
308.053
308.018
308.014
307.9
307.797
307.671
307.511
307.391
304.79
304.892
304.893
304.964
304.971
304.971
305.064
305.051
304.966
304.987
304.929
304.895
304.907
304.796
304.805
304.704
304.636
304.601
304.548
304.451
301.632
301.587
301.638
301.627
301.72
301.646
301.688
301.675
301.721
301.708
301.631
301.673
301.665
301.664
301.666
301.553
301.622
301.49
301.563
301.435
324.608
324.918
325.21
325.339
325.513
325.562
325.599
325.66
325.551
325.442
325.288
325.158
324.968
324.699
324.467
324.115
323.872
323.502
323.111
322.805
321.527
321.747
321.926
321.979
322.187
322.281
322.318
322.309
322.271
322.177
322.133
321.913
321.795
321.548
321.333
321.125
320.801
320.492
320.164
319.905
318.323
318.41
318.53
318.778
318.873
318.941
318.97
318.971
318.965
318.84
318.802
318.662
318.538
318.359
318.179
317.956
317.761
317.549
317.208
316.955
315.074
315.206
315.219
315.447
315.515
315.588
315.609
315.576
315.647
315.537
315.396
315.325
315.219
315.137
314.959
314.866
314.604
314.361
314.153
313.995
311.711
311.822
311.953
311.97
312.112
312.166
312.138
312.208
312.167
312.036
312.076
312.021
311.877
311.798
311.648
311.553
311.417
311.262
311.082
310.915
308.352
308.413
308.529
308.629
308.681
308.707
308.743
308.731
308.736
308.752
308.715
308.594
308.535
308.471
308.33
308.277
308.115
307.995
307.939
307.916
305.048
305.182
305.138
305.209
305.231
305.287
305.298
305.309
305.18
305.219
305.237
305.181
305.069
305.095
305.031
304.976
304.93
304.817
304.782
304.724
301.645
301.685
301.801
301.753
301.813
301.764
301.781
301.719
301.721
301.746
301.745
301.694
301.772
301.756
301.688
301.701
301.666
301.693
301.603
301.593
325.75
326.009
326.306
326.58
326.639
326.828
326.896
326.875
326.88
326.707
326.528
326.386
326.269
326.01
325.696
325.36
325.017
324.634
324.34
323.926
322.512
322.677
322.864
323.09
323.204
323.304
323.435
323.342
323.287
323.225
323.134
322.999
322.866
322.687
322.506
322.148
321.868
321.513
321.25
320.904
319.151
319.271
319.447
319.621
319.722
319.825
319.851
319.953
319.815
319.775
319.724
319.556
319.454
319.317
319.118
318.85
318.565
318.279
317.979
317.81
315.674
315.878
315.978
316.089
316.214
316.289
316.306
316.337
316.308
316.263
316.223
316.119
316.02
315.908
315.709
315.478
315.341
315.023
314.848
314.617
312.19
312.353
312.493
312.573
312.734
312.654
312.762
312.768
312.705
312.696
312.622
312.547
312.524
312.373
312.222
312.062
311.95
311.761
311.571
311.449
308.737
308.858
308.941
309.034
309.045
309.079
309.105
309.169
309.119
309.13
309.034
309.005
308.952
308.935
308.761
308.673
308.523
308.488
308.333
308.272
305.218
305.306
305.369
305.424
305.493
305.497
305.475
305.495
305.481
305.47
305.435
305.387
305.398
305.333
305.34
305.228
305.125
305.084
305.065
304.906
301.736
301.757
301.822
301.841
301.847
301.847
301.835
301.864
301.866
301.806
301.819
301.823
301.836
301.846
301.833
301.744
301.752
301.725
301.621
301.69
326.775
327.181
327.459
327.565
327.778
327.906
328.013
328.061
328.006
327.887
327.803
327.614
327.456
327.238
326.898
326.55
326.221
325.882
325.459
324.99
323.409
323.587
323.838
324.054
324.227
324.327
324.367
324.454
324.451
324.354
324.246
324.115
323.988
323.75
323.433
323.161
322.862
322.541
322.115
321.831
319.793
320.002
320.282
320.411
320.634
320.691
320.747
320.815
320.775
320.761
320.628
320.53
320.252
320.209
319.949
319.778
319.441
319.177
318.89
318.566
316.263
316.487
316.61
316.773
316.861
316.98
317.057
317.062
317.078
317.002
316.87
316.875
316.727
316.652
316.393
316.198
316.007
315.724
315.472
315.309
312.751
312.856
312.977
313.146
313.178
313.322
313.331
313.317
313.252
313.272
313.223
313.208
313.072
312.885
312.851
312.617
312.52
312.324
312.081
311.939
309.08
309.269
309.339
309.4
309.48
309.449
309.528
309.54
309.484
309.56
309.439
309.434
309.38
309.334
309.187
309.009
308.951
308.774
308.704
308.507
305.489
305.594
305.559
305.65
305.714
305.648
305.741
305.747
305.68
305.694
305.735
305.669
305.655
305.609
305.503
305.416
305.418
305.323
305.178
305.167
301.87
301.837
301.852
301.828
301.891
301.86
301.906
302.003
301.946
301.946
301.912
301.939
301.892
301.87
301.851
301.844
301.805
301.79
301.768
301.776
327.795
328.144
328.517
328.704
328.988
329.071
329.104
329.166
329.199
329.087
329.031
328.743
328.609
328.413
328.073
327.717
327.362
326.952
326.481
326.128
324.276
324.53
324.791
325.014
325.169
325.371
325.414
325.406
325.434
325.4
325.299
325.081
325.028
324.809
324.502
324.18
323.87
323.506
323.073
322.772
320.615
320.805
321.117
321.216
321.404
321.555
321.576
321.618
321.706
321.641
321.501
321.434
321.293
321.086
320.861
320.643
320.309
319.988
319.671
319.405
316.94
317.163
317.266
317.408
317.6
317.68
317.782
317.721
317.8
317.746
317.7
317.541
317.452
317.302
317.135
316.958
316.673
316.449
316.212
315.985
313.133
313.329
313.538
313.624
313.695
313.831
313.865
313.91
313.92
313.746
313.785
313.694
313.591
313.541
313.353
313.229
312.963
312.853
312.546
312.456
309.428
309.549
309.689
309.773
309.866
309.849
309.866
309.933
309.943
309.926
309.892
309.798
309.723
309.704
309.585
309.465
309.303
309.234
309.101
308.882
305.636
305.765
305.827
305.9
305.937
305.971
305.858
305.954
306.014
305.928
305.959
305.915
305.873
305.802
305.783
305.658
305.631
305.549
305.416
305.39
301.963
301.949
301.956
301.986
301.986
302.029
302.028
301.963
301.948
302.026
302.014
302.015
301.961
301.987
301.978
301.916
301.83
301.804
301.879
301.745
328.833
329.093
329.497
329.757
330.008
330.178
330.346
330.279
330.375
330.252
330.188
329.918
329.763
329.577
329.21
328.788
328.466
327.979
327.509
327.145
324.989
325.326
325.73
325.943
326.128
326.296
326.391
326.379
326.456
326.408
326.313
326.116
326.021
325.735
325.475
325.184
324.784
324.4
324.069
323.651
321.31
321.616
321.77
321.992
322.212
322.374
322.346
322.489
322.506
322.517
322.382
322.23
322.035
321.93
321.696
321.434
321.158
320.826
320.402
320.141
317.5
317.677
317.83
318.123
318.267
318.325
318.477
318.41
318.459
318.404
318.317
318.275
318.178
318.025
317.77
317.635
317.392
317.137
316.78
316.608
313.697
313.776
314.002
314.141
314.283
314.286
314.384
314.42
314.443
314.392
314.276
314.243
314.252
314.045
314.018
313.689
313.592
313.298
313.047
312.966
309.836
309.844
310.007
310.128
310.207
310.197
310.253
310.291
310.342
310.333
310.281
310.217
310.151
310.111
309.993
309.807
309.762
309.499
309.389
309.268
305.835
305.954
306.044
306.013
306.096
306.093
306.187
306.192
306.199
306.168
306.204
306.119
306.025
306.018
305.995
305.954
305.78
305.748
305.695
305.589
301.89
301.94
301.986
302.08
302.058
302.053
302.122
302.049
302.054
302.135
302.105
302.097
302.065
302.006
302.017
301.977
301.921
302.041
301.884
301.913
329.732
330.128
330.406
330.772
331.048
331.171
331.326
331.385
331.461
331.395
331.217
331.073
330.928
330.714
330.341
329.913
329.507
329.095
328.509
328.123
325.87
326.176
326.433
326.787
327.006
327.167
327.274
327.425
327.364
327.315
327.255
327.058
326.904
326.658
326.361
326.129
325.719
325.302
324.9
324.469
322.036
322.232
322.51
322.738
322.994
323.114
323.262
323.311
323.301
323.26
323.217
323.036
322.901
322.697
322.449
322.235
321.9
321.658
321.131
320.851
318.119
318.333
318.509
318.652
318.807
319.003
319.034
319.131
319.181
319.125
318.967
318.914
318.819
318.674
318.465
318.278
318.005
317.764
317.439
317.153
314.095
314.306
314.367
314.589
314.681
314.837
314.857
314.9
314.944
314.927
314.877
314.778
314.758
314.507
314.376
314.282
314.055
313.83
313.659
313.375
310.081
310.149
310.304
310.44
310.594
310.623
310.712
310.672
310.646
310.699
310.735
310.678
310.559
310.462
310.326
310.261
310.004
309.99
309.746
309.662
306.105
306.182
306.206
306.367
306.321
306.439
306.432
306.369
306.423
306.418
306.437
306.407
306.438
306.273
306.182
306.152
306.043
305.955
305.819
305.817
302.022
302.112
302.071
302.139
302.132
302.143
302.173
302.158
302.159
302.132
302.098
302.11
302.108
302.141
302.044
302.008
302.021
302.035
301.93
301.9
330.558
330.961
331.425
331.829
332.072
332.222
332.364
332.412
332.522
332.414
332.242
332.138
331.952
331.639
331.306
330.998
330.497
330.05
329.522
328.999
326.654
326.97
327.302
327.585
327.886
328.118
328.211
328.272
328.317
328.219
328.17
327.999
327.827
327.607
327.288
326.956
326.612
326.077
325.744
325.345
322.632
322.828
323.207
323.457
323.653
323.828
323.966
324.03
324.136
324.027
323.999
323.898
323.689
323.45
323.286
322.869
322.598
322.249
321.886
321.54
318.626
318.794
318.995
319.285
319.459
319.536
319.714
319.729
319.716
319.738
319.651
319.552
319.475
319.279
319.126
318.824
318.661
318.304
317.968
317.702
314.458
314.71
314.871
314.95
315.188
315.31
315.32
315.377
315.492
315.422
315.377
315.331
315.135
315.032
314.833
314.803
314.488
314.321
314.06
313.851
310.427
310.457
310.627
310.871
310.875
310.935
311.005
311.041
311.046
311.025
310.954
310.968
310.879
310.816
310.669
310.51
310.455
310.278
310.06
309.879
306.261
306.31
306.402
306.465
306.537
306.532
306.646
306.663
306.675
306.637
306.604
306.544
306.603
306.452
306.38
306.421
306.201
306.084
306.055
305.981
302.141
302.146
302.173
302.21
302.139
302.167
302.268
302.218
302.289
302.164
302.16
302.223
302.125
302.2
302.147
302.154
302.119
302.073
302.076
302
331.437
331.762
332.207
332.576
332.927
333.192
333.284
333.397
333.432
333.446
333.377
333.1
332.936
332.627
332.341
331.857
331.406
330.916
330.432
329.954
327.337
327.656
328.074
328.455
328.687
328.84
328.965
329.142
329.12
329.134
329.044
328.837
328.702
328.511
328.159
327.863
327.418
326.986
326.503
326.069
323.159
323.505
323.901
324.138
324.36
324.515
324.647
324.789
324.686
324.666
324.596
324.568
324.386
324.17
323.961
323.661
323.309
322.98
322.51
322.156
319.101
319.307
319.544
319.789
319.974
320.169
320.223
320.324
320.363
320.365
320.288
320.212
320.064
319.883
319.677
319.445
319.201
318.855
318.477
318.219
314.838
315.049
315.22
315.426
315.577
315.774
315.86
315.892
315.847
315.866
315.781
315.773
315.625
315.499
315.398
315.181
314.931
314.762
314.46
314.295
310.685
310.828
310.879
311.062
311.171
311.324
311.297
311.321
311.316
311.393
311.387
311.315
311.201
311.052
310.973
310.918
310.721
310.56
310.391
310.255
306.411
306.426
306.502
306.653
306.719
306.794
306.805
306.814
306.845
306.834
306.747
306.768
306.786
306.67
306.567
306.54
306.505
306.413
306.238
306.12
302.091
302.139
302.2
302.227
302.298
302.258
302.237
302.269
302.274
302.297
302.277
302.296
302.241
302.309
302.182
302.158
302.141
302.132
302.123
302.09
332.098
332.59
333.1
333.456
333.881
334.098
334.213
334.355
334.397
334.312
334.254
334.101
333.847
333.561
333.257
332.846
332.32
331.821
331.215
330.766
327.978
328.308
328.807
329.074
329.401
329.653
329.782
329.942
329.979
329.929
329.84
329.706
329.619
329.24
328.994
328.534
328.217
327.724
327.189
326.87
323.816
324.078
324.436
324.761
325.024
325.216
325.375
325.453
325.429
325.43
325.412
325.233
325.11
324.821
324.645
324.334
324.018
323.546
323.124
322.802
319.55
319.799
320.046
320.227
320.514
320.693
320.788
320.87
320.89
320.874
320.825
320.739
320.524
320.464
320.203
319.972
319.686
319.367
318.963
318.727
315.322
315.396
315.668
315.86
315.967
316.131
316.255
316.315
316.243
316.327
316.281
316.198
316.079
315.946
315.772
315.604
315.357
315.098
314.932
314.67
310.889
311.079
311.292
311.351
311.387
311.513
311.65
311.639
311.687
311.64
311.654
311.562
311.496
311.397
311.313
311.184
310.99
310.9
310.579
310.446
306.649
306.681
306.754
306.799
307.017
306.969
307.053
306.995
306.954
307.103
306.993
306.974
306.964
306.907
306.805
306.706
306.645
306.549
306.412
306.338
302.173
302.264
302.272
302.384
302.334
302.321
302.302
302.344
302.333
302.328
302.311
302.292
302.358
302.295
302.289
302.235
302.183
302.237
302.171
302.081
332.893
333.245
333.893
334.21
334.594
334.76
335.043
335.139
335.198
335.2
335.116
334.907
334.754
334.473
334.017
333.624
333.113
332.62
332.069
331.575
328.625
328.999
329.419
329.725
330.11
330.318
330.535
330.654
330.674
330.654
330.593
330.465
330.213
330.002
329.708
329.355
328.912
328.375
327.842
327.465
324.316
324.553
325.018
325.297
325.604
325.834
325.938
325.994
326.02
326.051
326.005
325.852
325.657
325.55
325.175
324.889
324.509
324.165
323.745
323.426
319.948
320.14
320.492
320.752
320.999
321.159
321.307
321.409
321.41
321.416
321.288
321.222
321.144
320.912
320.684
320.489
320.182
319.822
319.457
319.202
315.559
315.788
315.965
316.119
316.347
316.532
316.527
316.707
316.657
316.716
316.667
316.522
316.473
316.292
316.13
316.029
315.736
315.436
315.242
315.041
311.172
311.306
311.401
311.591
311.809
311.815
311.866
311.908
312.101
311.956
311.996
311.871
311.797
311.736
311.641
311.403
311.283
311.09
310.865
310.781
306.71
306.81
306.865
306.936
307.031
307.071
307.152
307.168
307.178
307.16
307.187
307.169
307.16
306.99
306.999
306.89
306.789
306.674
306.526
306.483
302.195
302.326
302.277
302.39
302.303
302.359
302.403
302.425
302.399
302.412
302.38
302.389
302.399
302.356
302.329
302.318
302.228
302.231
302.177
302.193
333.534
333.905
334.412
334.942
335.189
335.566
335.819
335.886
335.951
335.946
335.975
335.714
335.522
335.124
334.845
334.354
333.863
333.355
332.759
332.196
329.049
329.475
329.913
330.404
330.716
330.969
331.147
331.233
331.303
331.318
331.242
331.11
330.873
330.617
330.365
329.925
329.514
329.012
328.49
328.052
324.673
325.018
325.423
325.777
326.096
326.374
326.411
326.544
326.577
326.659
326.468
326.457
326.239
326.035
325.823
325.499
325.094
324.679
324.26
323.892
320.322
320.519
320.854
321.079
321.338
321.618
321.697
321.846
321.903
321.853
321.852
321.679
321.556
321.358
321.176
320.865
320.637
320.297
319.9
319.654
315.862
316.017
316.316
316.494
316.718
316.82
316.957
317.027
317.056
317.04
317.03
316.911
316.787
316.709
316.534
316.293
316.071
315.741
315.578
315.398
311.361
311.463
311.617
311.804
311.924
312.06
312.121
312.166
312.166
312.177
312.229
312.159
312.053
311.989
311.793
311.571
311.453
311.375
311.11
311.07
306.802
306.948
306.9
307.111
307.178
307.233
307.324
307.336
307.327
307.32
307.28
307.391
307.262
307.168
307.11
307.026
306.926
306.81
306.651
306.614
302.277
302.28
302.348
302.404
302.427
302.444
302.427
302.391
302.47
302.477
302.422
302.439
302.444
302.403
302.347
302.352
302.319
302.237
302.27
302.26
334.008
334.396
334.969
335.449
335.868
336.149
336.43
336.537
336.497
336.575
336.534
336.375
336.194
335.823
335.469
335.009
334.468
333.936
333.278
332.778
329.546
329.991
330.441
330.825
331.168
331.457
331.706
331.817
331.91
331.789
331.816
331.703
331.412
331.242
330.868
330.44
330.007
329.528
328.972
328.58
325.108
325.459
325.803
326.133
326.431
326.703
326.903
326.942
327.071
327.045
327.015
326.886
326.715
326.492
326.225
325.935
325.518
325.061
324.66
324.281
320.567
320.815
321.129
321.474
321.719
321.975
322.053
322.243
322.157
322.167
322.154
322.077
321.9
321.764
321.547
321.259
320.982
320.61
320.232
319.921
316.006
316.327
316.619
316.722
316.934
317.048
317.215
317.256
317.331
317.315
317.278
317.195
317.078
316.952
316.756
316.579
316.361
316.075
315.748
315.548
311.5
311.674
311.875
311.999
312.109
312.243
312.333
312.427
312.355
312.419
312.307
312.357
312.273
312.138
312.039
311.854
311.699
311.451
311.316
311.107
306.976
306.978
307.178
307.114
307.31
307.377
307.407
307.44
307.465
307.371
307.414
307.396
307.399
307.314
307.206
307.095
306.977
306.899
306.829
306.684
302.285
302.318
302.368
302.447
302.382
302.428
302.486
302.48
302.511
302.527
302.474
302.506
302.477
302.479
302.431
302.361
302.405
302.32
302.265
302.181
334.3
334.776
335.308
335.851
336.284
336.632
336.773
336.969
336.989
337.092
336.955
336.786
336.561
336.277
335.95
335.451
334.903
334.344
333.656
333.159
329.806
330.26
330.735
331.136
331.449
331.838
332.063
332.143
332.181
332.191
332.121
332.019
331.771
331.572
331.227
330.839
330.401
329.86
329.318
328.848
325.292
325.604
326.047
326.431
326.766
327.044
327.099
327.303
327.372
327.365
327.277
327.17
327.022
326.818
326.541
326.128
325.828
325.366
324.899
324.463
320.791
321.015
321.389
321.643
321.941
322.152
322.266
322.383
322.476
322.453
322.403
322.301
322.257
321.986
321.787
321.511
321.178
320.856
320.435
320.19
316.17
316.378
316.655
316.968
317.084
317.236
317.361
317.447
317.466
317.515
317.45
317.365
317.274
317.077
316.957
316.794
316.576
316.232
315.987
315.684
311.599
311.762
311.95
312.221
312.225
312.375
312.412
312.501
312.49
312.573
312.533
312.447
312.371
312.23
312.155
311.952
311.831
311.667
311.404
311.304
306.995
307.064
307.157
307.235
307.377
307.443
307.506
307.501
307.527
307.515
307.521
307.461
307.401
307.379
307.302
307.198
307.057
306.967
306.855
306.855
302.327
302.423
302.421
302.404
302.498
302.563
302.475
302.504
302.536
302.525
302.519
302.585
302.581
302.47
302.394
302.441
302.404
302.331
302.377
302.261
)
;

boundaryField
{
    hotSide
    {
        type            fixedGradient;
        gradient        nonuniform List<scalar> 
400
(
321.511
322.87
325.591
329.677
335.133
341.965
350.181
359.788
370.794
383.208
397.037
412.289
428.971
447.088
466.647
487.651
510.105
534.011
559.372
586.191
323.738
325.08
327.767
331.802
337.194
343.949
352.078
361.591
372.498
384.81
398.537
413.687
430.268
448.289
467.755
488.672
511.043
534.872
560.161
586.913
326.149
327.47
330.116
334.091
339.406
346.071
354.099
363.503
374.296
386.491
400.101
415.136
431.606
449.52
468.885
489.706
511.988
535.735
560.948
587.63
328.704
330
332.597
336.503
341.73
348.292
356.205
365.485
376.15
388.215
401.695
416.604
432.954
450.753
470.009
490.73
512.919
536.579
561.714
588.325
331.33
332.599
335.142
338.97
344.099
350.546
358.332
367.477
378.003
389.928
403.271
418.047
434.27
451.949
471.095
491.712
513.807
537.382
562.439
588.978
333.918
335.158
337.643
341.389
346.414
352.74
360.392
369.397
379.779
391.562
404.765
419.407
435.503
453.065
472.101
492.618
514.622
538.114
563.096
589.569
336.321
337.531
339.959
343.622
348.544
354.751
362.274
371.142
381.385
393.031
406.101
420.618
436.595
454.047
472.983
493.409
515.33
538.747
563.663
590.076
338.36
339.543
341.92
345.509
350.339
356.44
363.847
372.595
382.718
394.244
407.2
421.608
437.485
454.844
473.695
494.045
515.897
539.253
564.114
590.478
339.852
341.015
343.352
346.885
351.645
357.665
364.985
373.643
383.675
395.113
407.984
422.312
438.116
455.407
474.197
494.491
516.294
539.606
564.428
590.758
340.643
341.795
344.11
347.613
352.334
358.311
365.584
374.193
384.176
395.567
408.393
422.679
438.443
455.699
474.456
494.722
516.498
539.788
564.589
590.901
340.643
341.795
344.11
347.613
352.334
358.311
365.584
374.193
384.176
395.567
408.393
422.679
438.443
455.699
474.456
494.722
516.498
539.788
564.589
590.901
339.852
341.015
343.352
346.885
351.645
357.665
364.985
373.643
383.675
395.113
407.984
422.312
438.116
455.407
474.197
494.491
516.294
539.606
564.428
590.758
338.36
339.543
341.92
345.509
350.339
356.44
363.847
372.595
382.718
394.244
407.2
421.608
437.485
454.844
473.695
494.045
515.897
539.253
564.114
590.478
336.321
337.531
339.959
343.622
348.544
354.751
362.274
371.142
381.385
393.031
406.101
420.618
436.595
454.047
472.983
493.409
515.33
538.747
563.663
590.076
333.918
335.158
337.643
341.389
346.414
352.74
360.392
369.397
379.779
391.562
404.765
419.407
435.503
453.065
472.101
492.618
514.622
538.114
563.096
589.569
331.33
332.599
335.142
338.97
344.099
350.546
358.332
367.477
378.003
389.928
403.271
418.047
434.27
451.949
471.095
491.712
513.807
537.382
562.439
588.978
328.704
330
332.597
336.503
341.73
348.292
356.205
365.485
376.15
388.215
401.695
416.604
432.954
450.753
470.009
490.73
512.919
536.579
561.714
588.325
326.149
327.47
330.116
334.091
339.406
346.071
354.099
363.503
374.296
386.491
400.101
415.136
431.606
449.52
468.885
489.706
511.988
535.735
560.948
587.63
323.738
325.08
327.767
331.802
337.194
343.949
352.078
361.591
372.498
384.81
398.537
413.687
430.268
448.289
467.755
488.672
511.043
534.872
560.161
586.913
321.511
322.87
325.591
329.677
335.133
341.965
350.181
359.788
370.794
383.208
397.037
412.289
428.971
447.088
466.647
487.651
510.105
534.011
559.372
586.191
)
;
    }
    coldSide
    {
        type            mixed;
        refValue        uniform 300;
        refGradient     uniform 0;
        valueFraction   uniform 0.991591;
        source          uniform 0;
        value           nonuniform List<scalar> 
400
(
300.01
300.011
300.012
300.012
300.013
300.013
300.014
300.014
300.015
300.016
300.017
300.016
300.017
300.018
300.018
300.018
300.018
300.019
300.019
300.02
300.01
300.011
300.011
300.012
300.013
300.014
300.013
300.014
300.015
300.015
300.016
300.016
300.018
300.018
300.018
300.019
300.02