/*--------------------------------*- C++ -*----------------------------------*\
| =========                 |                                                 |
| \\      /  F ield         | OpenFOAM: The Open Source CFD Toolbox           |
|  \\    /   O peration     | Version:  2212                                  |
|   \\  /    A nd           | Website:  www.openfoam.com                      |
|    \\/     M anipulation  |                                                 |
\*---------------------------------------------------------------------------*/
FoamFile
{
    version     2.0;
    format      ascii;
    arch        "LSB;label=32;scalar=64";
    class       volScalarField;
    location    "0";
    object      Ttrue;
}
// * * * * * * * * * * * * * * * * * * * * * * * * * * * * * * * * * * * * * //

dimensions      [0 0 0 1 0 0 0];

internalField   nonuniform List<scalar> 
3200
(
349.299
349.884
350.631
351.445
352.284
353.107
353.867
354.508
354.975
355.222
355.222
354.975
354.508
353.867
353.107
352.284
351.445
350.631
349.884
349.299
342.779
343.275
343.919
344.623
345.349
346.061
346.718
347.272
347.675
347.888
347.888
347.675
347.272
346.718
346.061
345.349
344.623
343.919
343.275
342.779
336.238
336.649
337.192
337.787
338.4
339.002
339.556
340.024
340.364
340.544
340.544
340.364
340.024
339.556
339.002
338.4
337.787
337.192
336.649
336.238
329.679
330.009
330.452
330.938
331.44
331.931
332.384
332.766
333.044
333.19
333.19
333.044
332.766
332.384
331.931
331.44
330.938
330.452
330.009
329.679
323.105
323.359
323.702
324.08
324.469
324.851
325.203
325.5
325.715
325.829
325.829
325.715
325.5
325.203
324.851
324.469
324.08
323.702
323.359
323.105
316.519
316.699
316.944
317.214
317.492
317.765
318.016
318.227
318.381
318.462
318.462
318.381
318.227
318.016
317.765
317.492
317.214
316.944
316.699
316.519
309.926
310.033
310.18
310.342
310.509
310.673
310.824
310.951
311.043
311.092
311.092
311.043
310.951
310.824
310.673
310.509
310.342
310.18
310.033
309.926
303.328
303.364
303.413
303.467
303.523
303.578
303.629
303.671
303.702
303.718
303.718
303.702
303.671
303.629
303.578
303.523
303.467
303.413
303.364
303.328
349.473
350.053
350.794
351.6
352.43
353.244
353.995
354.628
355.09
355.333
355.333
355.09
354.628
353.995
353.244
352.43
351.6
350.794
350.053
349.473
342.93
343.421
344.06
344.758
345.476
346.18
346.829
347.377
347.775
347.985
347.985
347.775
347.377
346.829
346.18
345.476
344.758
344.06
343.421
342.93
336.365
336.773
337.311
337.901
338.508
339.103
339.651
340.113
340.449
340.626
340.626
340.449
340.113
339.651
339.103
338.508
337.901
337.311
336.773
336.365
329.783
330.111
330.55
331.032
331.528
332.014
332.462
332.839
333.113
333.258
333.258
333.113
332.839
332.462
332.014
331.528
331.032
330.55
330.111
329.783
323.186
323.438
323.778
324.152
324.538
324.916
325.264
325.557
325.769
325.882
325.882
325.769
325.557
325.264
324.916
324.538
324.152
323.778
323.438
323.186
316.577
316.756
316.998
317.265
317.541
317.811
318.059
318.268
318.42
318.5
318.5
318.42
318.268
318.059
317.811
317.541
317.265
316.998
316.756
316.577
309.961
310.067
310.213
310.373
310.539
310.7
310.85
310.975
311.066
311.114
311.114
311.066
310.975
310.85
310.7
310.539
310.373
310.213
310.067
309.961
303.34
303.375
303.424
303.478
303.533
303.587
303.637
303.679
303.71
303.726
303.726
303.71
303.679
303.637
303.587
303.533
303.478
303.424
303.375
303.34
349.821
350.392
351.12
351.912
352.725
353.521
354.255
354.873
355.322
355.559
355.559
355.322
354.873
354.255
353.521
352.725
351.912
351.12
350.392
349.821
343.232
343.715
344.343
345.028
345.732
346.421
347.055
347.589
347.977
348.182
348.182
347.977
347.589
347.055
346.421
345.732
345.028
344.343
343.715
343.232
336.621
337.022
337.551
338.129
338.724
339.306
339.842
340.293
340.62
340.793
340.793
340.62
340.293
339.842
339.306
338.724
338.129
337.551
337.022
336.621
329.992
330.315
330.746
331.219
331.705
332.181
332.618
332.986
333.254
333.395
333.395
333.254
332.986
332.618
332.181
331.705
331.219
330.746
330.315
329.992
323.348
323.596
323.93
324.298
324.676
325.046
325.386
325.671
325.879
325.989
325.989
325.879
325.671
325.386
325.046
324.676
324.298
323.93
323.596
323.348
316.693
316.869
317.107
317.37
317.64
317.904
318.146
318.35
318.498
318.576
318.576
318.498
318.35
318.146
317.904
317.64
317.37
317.107
316.869
316.693
310.03
310.135
310.278
310.436
310.598
310.756
310.902
311.024
311.113
311.16
311.16
311.113
311.024
310.902
310.756
310.598
310.436
310.278
310.135
310.03
303.363
303.398
303.446
303.499
303.553
303.606
303.655
303.696
303.726
303.741
303.741
303.726
303.696
303.655
303.606
303.553
303.499
303.446
303.398
303.363
350.345
350.902
351.612
352.382
353.171
353.942
354.651
355.246
355.679
355.907
355.907
355.679
355.246
354.651
353.942
353.171
352.382
351.612
350.902
350.345
343.685
344.157
344.77
345.436
346.119
346.786
347.399
347.913
348.287
348.484
348.484
348.287
347.913
347.399
346.786
346.119
345.436
344.77
344.157
343.685
337.004
337.396
337.912
338.475
339.052
339.616
340.133
340.568
340.883
341.05
341.05
340.883
340.568
340.133
339.616
339.052
338.475
337.912
337.396
337.004
330.306
330.621
331.041
331.501
331.973
332.434
332.857
333.212
333.469
333.605
333.605
333.469
333.212
332.857
332.434
331.973
331.501
331.041
330.621
330.306
323.592
323.834
324.16
324.518
324.885
325.243
325.572
325.847
326.047
326.153
326.153
326.047
325.847
325.572
325.243
324.885
324.518
324.16
323.834
323.592
316.868
317.039
317.272
317.527
317.789
318.045
318.279
318.476
318.619
318.694
318.694
318.619
318.476
318.279
318.045
317.789
317.527
317.272
317.039
316.868
310.135
310.237
310.377
310.53
310.688
310.841
310.982
311.1
311.186
311.231
311.231
311.186
311.1
310.982
310.841
310.688
310.53
310.377
310.237
310.135
303.398
303.432
303.479
303.53
303.583
303.634
303.682
303.721
303.75
303.765
303.765
303.75
303.721
303.682
303.634
303.583
303.53
303.479
303.432
303.398
351.046
351.586
352.273
353.015
353.774
354.513
355.19
355.757
356.169
356.386
356.386
356.169
355.757
355.19
354.513
353.774
353.015
352.273
351.586
351.046
344.292
344.75
345.342
345.985
346.642
347.281
347.867
348.357
348.713
348.9
348.9
348.713
348.357
347.867
347.281
346.642
345.985
345.342
344.75
344.292
337.518
337.898
338.397
338.94
339.495
340.035
340.53
340.944
341.244
341.402
341.402
341.244
340.944
340.53
340.035
339.495
338.94
338.397
337.898
337.518
330.726
331.031
331.438
331.882
332.336
332.778
333.182
333.52
333.765
333.894
333.894
333.765
333.52
333.182
332.778
332.336
331.882
331.438
331.031
330.726
323.919
324.154
324.469
324.814
325.167
325.51
325.824
326.087
326.278
326.378
326.378
326.278
326.087
325.824
325.51
325.167
324.814
324.469
324.154
323.919
317.101
317.267
317.492
317.739
317.991
318.236
318.46
318.648
318.784
318.855
318.855
318.784
318.648
318.46
318.236
317.991
317.739
317.492
317.267
317.101
310.275
310.375
310.509
310.657
310.809
310.956
311.091
311.203
311.285
311.328
311.328
311.285
311.203
311.091
310.956
310.809
310.657
310.509
310.375
310.275
303.445
303.478
303.523
303.573
303.624
303.673
303.718
303.756
303.783
303.797
303.797
303.783
303.756
303.718
303.673
303.624
303.573
303.523
303.478
303.445
351.926
352.446
353.105
353.815
354.538
355.24
355.88
356.416
356.803
357.007
357.007
356.803
356.416
355.88
355.24
354.538
353.815
353.105
352.446
351.926
345.055
345.496
346.064
346.679
347.304
347.912
348.466
348.929
349.264
349.44
349.44
349.264
348.929
348.466
347.912
347.304
346.679
346.064
345.496
345.055
338.163
338.529
339.008
339.527
340.056
340.569
341.038
341.429
341.711
341.86
341.86
341.711
341.429
341.038
340.569
340.056
339.527
339.008
338.529
338.163
331.254
331.548
331.938
332.363
332.795
333.215
333.598
333.917
334.148
334.269
334.269
334.148
333.917
333.598
333.215
332.795
332.363
331.938
331.548
331.254
324.33
324.556
324.858
325.188
325.525
325.851
326.148
326.397
326.576
326.67
326.67
326.576
326.397
326.148
325.851
325.525
325.188
324.858
324.556
324.33
317.395
317.554
317.77
318.006
318.246
318.479
318.692
318.869
318.997
319.064
319.064
318.997
318.869
318.692
318.479
318.246
318.006
317.77
317.554
317.395
310.452
310.547
310.677
310.818
310.962
311.102
311.23
311.336
311.413
311.453
311.453
311.413
311.336
311.23
311.102
310.962
310.818
310.677
310.547
310.452
303.504
303.536
303.579
303.627
303.675
303.722
303.765
303.8
303.826
303.84
303.84
303.826
303.8
303.765
303.722
303.675
303.627
303.579
303.536
303.504
352.988
353.486
354.113
354.787
355.471
356.131
356.731
357.232
357.593
357.782
357.782
357.593
357.232
356.731
356.131
355.471
354.787
354.113
353.486
352.988
345.976
346.397
346.938
347.521
348.113
348.685
349.205
349.637
349.95
350.113
350.113
349.95
349.637
349.205
348.685
348.113
347.521
346.938
346.397
345.976
338.942
339.291
339.747
340.241
340.741
341.224
341.663
342.029
342.293
342.431
342.431
342.293
342.029
341.663
341.224
340.741
340.241
339.747
339.291
338.942
331.891
332.172
332.544
332.947
333.356
333.751
334.11
334.409
334.624
334.737
334.737
334.624
334.409
334.11
333.751
333.356
332.947
332.544
332.172
331.891
324.825
325.041
325.33
325.643
325.961
326.268
326.547
326.779
326.947
327.035
327.035
326.947
326.779
326.547
326.268
325.961
325.643
325.33
325.041
324.825
317.749
317.901
318.107
318.331
318.558
318.778
318.977
319.143
319.262
319.325
319.325
319.262
319.143
318.977
318.778
318.558
318.331
318.107
317.901
317.749
310.664
310.755
310.879
311.013
311.15
311.281
311.401
311.501
311.572
311.61
311.61
311.572
311.501
311.401
311.281
311.15
311.013
310.879
310.755
310.664
303.575
303.606
303.647
303.692
303.738
303.782
303.822
303.855
303.88
303.892
303.892
303.88
303.855
303.822
303.782
303.738
303.692
303.647
303.606
303.575
354.235
354.708
355.302
355.937
356.578
357.194
357.753
358.216
358.55
358.724
358.724
358.55
358.216
357.753
357.194
356.578
355.937
355.302
354.708
354.235
347.056
347.456
347.968
348.518
349.073
349.607
350.091
350.492
350.78
350.931
350.931
350.78
350.492
350.091
349.607
349.073
348.518
347.968
347.456
347.056
339.856
340.188
340.62
341.084
341.554
342.005
342.414
342.753
342.996
343.124
343.124
342.996
342.753
342.414
342.005
341.554
341.084
340.62
340.188
339.856
332.638
332.905
333.258
333.638
334.021
334.391
334.725
335.002
335.201
335.305
335.305
335.201
335.002
334.725
334.391
334.021
333.638
333.258
332.905
332.638
325.407
325.612
325.885
326.18
326.479
326.766
327.026
327.241
327.396
327.477
327.477
327.396
327.241
327.026
326.766
326.479
326.18
325.885
325.612
325.407
318.164
318.309
318.504
318.715
318.928
319.133
319.319
319.473
319.583
319.641
319.641
319.583
319.473
319.319
319.133
318.928
318.715
318.504
318.309
318.164
310.914
311.001
311.117
311.244
311.372
311.495
311.607
311.699
311.765
311.8
311.8
311.765
311.699
311.607
311.495
311.372
311.244
311.117
311.001
310.914
303.659
303.688
303.727
303.77
303.812
303.854
303.891
303.922
303.944
303.956
303.956
303.944
303.922
303.891
303.854
303.812
303.77
303.727
303.688
303.659
355.669
356.116
356.674
357.269
357.866
358.438
358.953
359.38
359.685
359.845
359.845
359.685
359.38
358.953
358.438
357.866
357.269
356.674
356.116
355.669
348.298
348.676
349.158
349.673
350.191
350.686
351.132
351.501
351.765
351.904
351.904
351.765
351.501
351.132
350.686
350.191
349.673
349.158
348.676
348.298
340.907
341.221
341.627
342.062
342.5
342.918
343.296
343.608
343.831
343.948
343.948
343.831
343.608
343.296
342.918
342.5
342.062
341.627
341.221
340.907
333.498
333.751
334.082
334.438
334.796
335.138
335.447
335.702
335.884
335.98
335.98
335.884
335.702
335.447
335.138
334.796
334.438
334.082
333.751
333.498
326.076
326.269
326.526
326.803
327.081
327.348
327.588
327.786
327.928
328.002
328.002
327.928
327.786
327.588
327.348
327.081
326.803
326.526
326.269
326.076
318.642
318.779
318.963
319.16
319.359
319.549
319.721
319.862
319.963
320.016
320.016
319.963
319.862
319.721
319.549
319.359
319.16
318.963
318.779
318.642
311.201
311.283
311.393
311.511
311.631
311.745
311.848
311.933
311.994
312.026
312.026
311.994
311.933
311.848
311.745
311.631
311.511
311.393
311.283
311.201
303.755
303.783
303.819
303.859
303.899
303.937
303.972
304
304.021
304.031
304.031
304.021
304
303.972
303.937
303.899
303.859
303.819
303.783
303.755
357.293
357.713
358.236
358.789
359.342
359.869
360.342
360.731
361.009
361.154
361.154
361.009
360.731
360.342
359.869
359.342
358.789
358.236
357.713
357.293
349.706
350.061
350.512
350.991
351.471
351.927
352.336
352.673
352.914
353.04
353.04
352.914
352.673
352.336
351.927
351.471
350.991
350.512
350.061
349.706
342.098
342.392
342.772
343.178
343.583
343.969
344.315
344.6
344.804
344.91
344.91
344.804
344.6
344.315
343.969
343.583
343.178
342.772
342.392
342.098
334.472
334.71
335.02
335.351
335.683
335.998
336.281
336.514
336.681
336.768
336.768
336.681
336.514
336.281
335.998
335.683
335.351
335.02
334.71
334.472
326.833
327.015
327.256
327.514
327.771
328.017
328.237
328.418
328.548
328.615
328.615
328.548
328.418
328.237
328.017
327.771
327.514
327.256
327.015
326.833
319.184
319.312
319.484
319.668
319.852
320.028
320.185
320.314
320.407
320.455
320.455
320.407
320.314
320.185
320.028
319.852
319.668
319.484
319.312
319.184
311.526
311.603
311.706
311.816
311.927
312.032
312.127
312.205
312.26
312.289
312.289
312.26
312.205
312.127
312.032
311.927
311.816
311.706
311.603
311.526
303.864
303.89
303.924
303.961
303.999
304.034
304.065
304.092
304.11
304.12
304.12
304.11
304.092
304.065
304.034
303.999
303.961
303.924
303.89
303.864
359.11
359.502
359.989
360.502
361.011
361.494
361.925
362.279
362.53
362.662
362.662
362.53
362.279
361.925
361.494
361.011
360.502
359.989
359.502
359.11
351.28
351.612
352.032
352.476
352.918
353.336
353.709
354.015
354.233
354.347
354.347
354.233
354.015
353.709
353.336
352.918
352.476
352.032
351.612
351.28
343.43
343.705
344.059
344.434
344.808
345.162
345.478
345.737
345.921
346.017
346.017
345.921
345.737
345.478
345.162
344.808
344.434
344.059
343.705
343.43
335.562
335.784
336.072
336.38
336.685
336.975
337.233
337.445
337.596
337.674
337.674
337.596
337.445
337.233
336.975
336.685
336.38
336.072
335.784
335.562
327.681
327.851
328.075
328.314
328.552
328.777
328.978
329.142
329.26
329.321
329.321
329.26
329.142
328.978
328.777
328.552
328.314
328.075
327.851
327.681
319.789
319.91
320.069
320.24
320.41
320.571
320.714
320.832
320.916
320.959
320.959
320.916
320.832
320.714
320.571
320.41
320.24
320.069
319.91
319.789
311.89
311.962
312.058
312.16
312.262
312.359
312.445
312.516
312.566
312.592
312.592
312.566
312.516
312.445
312.359
312.262
312.16
312.058
311.962
311.89
303.986
304.01
304.042
304.077
304.111
304.143
304.172
304.196
304.213
304.221
304.221
304.213
304.196
304.172
304.143
304.111
304.077
304.042
304.01
303.986
361.121
361.487
361.938
362.411
362.878
363.318
363.71
364.029
364.256
364.374
364.374
364.256
364.029
363.71
363.318
362.878
362.411
361.938
361.487
361.121
353.023
353.332
353.721
354.131
354.536
354.918
355.257
355.533
355.73
355.832
355.832
355.73
355.533
355.257
354.918
354.536
354.131
353.721
353.332
353.023
344.904
345.161
345.489
345.835
346.178
346.501
346.788
347.022
347.188
347.274
347.274
347.188
347.022
346.788
346.501
346.178
345.835
345.489
345.161
344.904
336.769
336.975
337.243
337.526
337.806
338.071
338.305
338.497
338.633
338.703
338.703
338.633
338.497
338.305
338.071
337.806
337.526
337.243
336.975
336.769
328.62
328.778
328.986
329.206
329.424
329.63
329.812
329.961
330.067
330.122
330.122
330.067
329.961
329.812
329.63
329.424
329.206
328.986
328.778
328.62
320.46
320.572
320.72
320.877
321.033
321.18
321.311
321.417
321.493
321.532
321.532
321.493
321.417
321.311
321.18
321.033
320.877
320.72
320.572
320.46
312.293
312.36
312.448
312.543
312.637
312.725
312.803
312.867
312.912
312.936
312.936
312.912
312.867
312.803
312.725
312.637
312.543
312.448
312.36
312.293
304.121
304.144
304.173
304.205
304.236
304.266
304.292
304.314
304.329
304.337
304.337
304.329
304.314
304.292
304.266
304.236
304.205
304.173
304.144
304.121
363.329
363.668
364.085
364.519
364.946
365.346
365.7
365.988
366.191
366.297
366.297
366.191
365.988
365.7
365.346
364.946
364.519
364.085
363.668
363.329
354.936
355.223
355.582
355.959
356.329
356.675
356.982
357.231
357.408
357.499
357.499
357.408
357.231
356.982
356.675
356.329
355.959
355.582
355.223
354.936
346.523
346.761
347.064
347.382
347.695
347.989
348.248
348.459
348.608
348.686
348.686
348.608
348.459
348.248
347.989
347.695
347.382
347.064
346.761
346.523
338.093
338.284
338.532
338.792
339.048
339.288
339.501
339.673
339.795
339.859
339.859
339.795
339.673
339.501
339.288
339.048
338.792
338.532
338.284
338.093
329.65
329.797
329.988
330.191
330.39
330.577
330.742
330.876
330.971
331.021
331.021
330.971
330.876
330.742
330.577
330.39
330.191
329.988
329.797
329.65
321.196
321.3
321.437
321.581
321.724
321.857
321.975
322.071
322.139
322.174
322.174
322.139
322.071
321.975
321.857
321.724
321.581
321.437
321.3
321.196
312.735
312.797
312.879
312.966
313.051
313.132
313.202
313.26
313.301
313.322
313.322
313.301
313.26
313.202
313.132
313.051
312.966
312.879
312.797
312.735
304.269
304.29
304.318
304.347
304.375
304.402
304.426
304.445
304.459
304.466
304.466
304.459
304.445
304.426
304.402
304.375
304.347
304.318
304.29
304.269
365.733
366.047
366.43
366.828
367.217
367.579
367.898
368.157
368.339
368.433
368.433
368.339
368.157
367.898
367.579
367.217
366.828
366.43
366.047
365.733
357.019
357.284
357.615
357.96
358.297
358.611
358.887
359.111
359.269
359.351
359.351
359.269
359.111
358.887
358.611
358.297
357.96
357.615
357.284
357.019
348.285
348.505
348.784
349.075
349.361
349.626
349.861
350.05
350.184
350.253
350.253
350.184
350.05
349.861
349.626
349.361
349.075
348.784
348.505
348.285
339.535
339.712
339.939
340.177
340.411
340.629
340.82
340.975
341.085
341.141
341.141
341.085
340.975
340.82
340.629
340.411
340.177
339.939
339.712
339.535
330.771
330.907
331.083
331.269
331.45
331.62
331.769
331.889
331.974
332.019
332.019
331.974
331.889
331.769
331.62
331.45
331.269
331.083
330.907
330.771
321.997
322.093
322.219
322.351
322.481
322.602
322.709
322.795
322.856
322.887
322.887
322.856
322.795
322.709
322.602
322.481
322.351
322.219
322.093
321.997
313.216
313.273
313.349
313.428
313.506
313.579
313.643
313.695
313.731
313.75
313.75
313.731
313.695
313.643
313.579
313.506
313.428
313.349
313.273
313.216
304.431
304.45
304.475
304.502
304.528
304.552
304.574
304.591
304.603
304.61
304.61
304.603
304.591
304.574
304.552
304.528
304.502
304.475
304.45
304.431
368.331
368.62
368.972
369.335
369.688
370.016
370.303
370.534
370.697
370.781
370.781
370.697
370.534
370.303
370.016
369.688
369.335
368.972
368.62
368.331
359.269
359.513
359.817
360.132
360.438
360.722
360.971
361.171
361.313
361.386
361.386
361.313
361.171
360.971
360.722
360.438
360.132
359.817
359.513
359.269
350.188
350.39
350.647
350.913
351.172
351.412
351.623
351.793
351.912
351.974
351.974
351.912
351.793
351.623
351.412
351.172
350.913
350.647
350.39
350.188
341.091
341.254
341.463
341.681
341.893
342.089
342.262
342.401
342.499
342.549
342.549
342.499
342.401
342.262
342.089
341.893
341.681
341.463
341.254
341.091
331.981
332.106
332.268
332.438
332.603
332.756
332.89
332.998
333.074
333.114
333.114
333.074
332.998
332.89
332.756
332.603
332.438
332.268
332.106
331.981
322.862
322.95
323.066
323.187
323.305
323.414
323.51
323.587
323.642
323.67
323.67
323.642
323.587
323.51
323.414
323.305
323.187
323.066
322.95
322.862
313.735
313.788
313.857
313.93
314.001
314.067
314.124
314.171
314.203
314.22
314.22
314.203
314.171
314.124
314.067
314.001
313.93
313.857
313.788
313.735
304.605
304.622
304.646
304.67
304.694
304.716
304.735
304.751
304.762
304.767
304.767
304.762
304.751
304.735
304.716
304.694
304.67
304.646
304.622
304.605
371.11
371.376
371.699
372.03
372.35
372.646
372.904
373.111
373.256
373.331
373.331
373.256
373.111
372.904
372.646
372.35
372.03
371.699
371.376
371.11
361.674
361.9
362.178
362.465
362.743
362.999
363.222
363.402
363.528
363.593
363.593
363.528
363.402
363.222
362.999
362.743
362.465
362.178
361.9
361.674
352.221
352.407
352.642
352.885
353.12
353.337
353.526
353.678
353.785
353.84
353.84
353.785
353.678
353.526
353.337
353.12
352.885
352.642
352.407
352.221
342.753
342.903
343.094
343.293
343.485
343.663
343.818
343.942
344.03
344.075
344.075
344.03
343.942
343.818
343.663
343.485
343.293
343.094
342.903
342.753
333.273
333.388
333.537
333.691
333.841
333.979
334.1
334.197
334.265
334.3
334.3
334.265
334.197
334.1
333.979
333.841
333.691
333.537
333.388
333.273
323.784
323.866
323.972
324.082
324.189
324.288
324.374
324.443
324.492
324.517
324.517
324.492
324.443
324.374
324.288
324.189
324.082
323.972
323.866
323.784
314.289
314.338
314.401
314.467
314.532
314.591
314.643
314.685
314.714
314.729
314.729
314.714
314.685
314.643
314.591
314.532
314.467
314.401
314.338
314.289
304.79
304.807
304.828
304.85
304.872
304.892
304.909
304.923
304.933
304.938
304.938
304.933
304.923
304.909
304.892
304.872
304.85
304.828
304.807
304.79
374.042
374.287
374.582
374.884
375.174
375.441
375.672
375.858
375.987
376.054
376.054
375.987
375.858
375.672
375.441
375.174
374.884
374.582
374.287
374.042
364.207
364.414
364.669
364.931
365.182
365.414
365.615
365.775
365.888
365.946
365.946
365.888
365.775
365.615
365.414
365.182
364.931
364.669
364.414
364.207
354.358
354.53
354.745
354.966
355.179
355.375
355.545
355.681
355.777
355.826
355.826
355.777
355.681
355.545
355.375
355.179
354.966
354.745
354.53
354.358
344.497
344.635
344.81
344.991
345.166
345.326
345.466
345.577
345.655
345.695
345.695
345.655
345.577
345.466
345.326
345.166
344.991
344.81
344.635
344.497
334.627
334.733
334.869
335.01
335.146
335.271
335.379
335.466
335.527
335.558
335.558
335.527
335.466
335.379
335.271
335.146
335.01
334.869
334.733
334.627
324.75
324.825
324.922
325.023
325.12
325.209
325.287
325.349
325.392
325.415
325.415
325.392
325.349
325.287
325.209
325.12
325.023
324.922
324.825
324.75
314.869
314.913
314.972
315.032
315.09
315.144
315.191
315.228
315.254
315.268
315.268
315.254
315.228
315.191
315.144
315.09
315.032
314.972
314.913
314.869
304.984
304.999
305.019
305.039
305.059
305.077
305.092
305.105
305.114
305.118
305.118
305.114
305.105
305.092
305.077
305.059
305.039
305.019
304.999
304.984
377.05
377.275
377.546
377.821
378.085
378.326
378.534
378.701
378.817
378.876
378.876
378.817
378.701
378.534
378.326
378.085
377.821
377.546
377.275
377.05
366.794
366.985
367.218
367.457
367.686
367.895
368.076
368.22
368.321
368.373
368.373
368.321
368.22
368.076
367.895
367.686
367.457
367.218
366.985
366.794
356.532
356.69
356.887
357.089
357.283
357.46
357.613
357.736
357.821
357.865
357.865
357.821
357.736
357.613
357.46
357.283
357.089
356.887
356.69
356.532
346.265
346.392
346.553
346.718
346.877
347.022
347.148
347.248
347.318
347.354
347.354
347.318
347.248
347.148
347.022
346.877
346.718
346.553
346.392
346.265
335.995
336.093
336.218
336.346
336.47
336.583
336.681
336.759
336.814
336.842
336.842
336.814
336.759
336.681
336.583
336.47
336.346
336.218
336.093
335.995
325.724
325.793
325.882
325.974
326.063
326.144
326.214
326.269
326.308
326.328
326.328
326.308
326.269
326.214
326.144
326.063
325.974
325.882
325.793
325.724
315.452
315.493
315.547
315.602
315.655
315.704
315.746
315.779
315.803
315.815
315.815
315.803
315.779
315.746
315.704
315.655
315.602
315.547
315.493
315.452
305.18
305.194
305.211
305.23
305.248
305.264
305.278
305.289
305.297
305.301
305.301
305.297
305.289
305.278
305.264
305.248
305.23
305.211
305.194
305.18
379.941
380.149
380.398
380.651
380.892
381.112
381.301
381.452
381.557
381.611
381.611
381.557
381.452
381.301
381.112
380.892
380.651
380.398
380.149
379.941
369.25
369.426
369.642
369.861
370.071
370.262
370.426
370.557
370.649
370.695
370.695
370.649
370.557
370.426
370.262
370.071
369.861
369.642
369.426
369.25
358.573
358.719
358.901
359.087
359.265
359.427
359.567
359.678
359.755
359.795
359.795
359.755
359.678
359.567
359.427
359.265
359.087
358.901
358.719
358.573
347.91
348.027
348.176
348.329
348.474
348.607
348.722
348.813
348.877
348.909
348.909
348.877
348.813
348.722
348.607
348.474
348.329
348.176
348.027
347.91
337.259
337.349
337.465
337.584
337.697
337.801
337.89
337.961
338.011
338.036
338.036
338.011
337.961
337.89
337.801
337.697
337.584
337.465
337.349
337.259
326.619
326.683
326.765
326.85
326.931
327.006
327.069
327.12
327.156
327.174
327.174
327.156
327.12
327.069
327.006
326.931
326.85
326.765
326.683
326.619
315.986
316.024
316.074
316.125
316.174
316.218
316.257
316.287
316.309
316.319
316.319
316.309
316.287
316.257
316.218
316.174
316.125
316.074
316.024
315.986
305.358
305.371
305.388
305.405
305.421
305.436
305.449
305.459
305.466
305.47
305.47
305.466
305.459
305.449
305.436
305.421
305.405
305.388
305.371
305.358
382.205
382.4
382.635
382.872
383.098
383.303
383.479
383.618
383.716
383.766
383.766
383.716
383.618
383.479
383.303
383.098
382.872
382.635
382.4
382.205
371.1
371.266
371.47
371.676
371.873
372.052
372.205
372.327
372.412
372.456
372.456
372.412
372.327
372.205
372.052
371.873
371.676
371.47
371.266
371.1
360.063
360.202
360.374
360.549
360.717
360.869
361
361.103
361.176
361.213
361.213
361.176
361.103
361
360.869
360.717
360.549
360.374
360.202
360.063
349.081
349.193
349.334
349.478
349.616
349.741
349.848
349.933
349.993
350.023
350.023
349.993
349.933
349.848
349.741
349.616
349.478
349.334
349.193
349.081
338.142
338.228
338.338
338.45
338.557
338.655
338.739
338.806
338.852
338.876
338.876
338.852
338.806
338.739
338.655
338.557
338.45
338.338
338.228
338.142
327.235
327.296
327.375
327.455
327.532
327.602
327.662
327.71
327.743
327.76
327.76
327.743
327.71
327.662
327.602
327.532
327.455
327.375
327.296
327.235
316.351
316.387
316.434
316.483
316.529
316.571
316.607
316.636
316.656
316.666
316.666
316.656
316.636
316.607
316.571
316.529
316.483
316.434
316.387
316.351
305.48
305.492
305.507
305.524
305.539
305.553
305.565
305.575
305.582
305.585
305.585
305.582
305.575
305.565
305.553
305.539
305.524
305.507
305.492
305.48
)
;

boundaryField
{
    hotSide
    {
        type            fixedGradient;
        gradient        nonuniform List<scalar> 
400
(
519.542
521.403
525.131
530.739
538.243
547.665
559.031
572.367
587.701
605.062
624.477
645.971
669.568
695.289
723.153
753.175
785.368
819.743
856.31
895.074
527.241
529.041
532.649
538.082
545.363
554.521
565.587
578.599
593.591
610.6
629.659
650.8
674.052
699.439
726.983
756.701
788.609
822.718
859.037
897.571
535.572
537.3
540.765
545.991
553.008
561.854
572.571
585.206
599.803
616.409
635.065
655.809
678.675
703.693
730.886
760.276
791.876
825.7
861.755
900.048
544.399
546.041
549.341
554.328
561.04
569.528
579.847
592.054
606.208
622.365
640.574
660.883
683.331
707.952
734.772
763.813
795.092
828.619
864.403
902.448
553.473
555.021
558.135
562.852
569.226
577.317
587.197
598.938
612.612
628.285
646.02
665.869
687.879
712.087
738.523
767.209
798.161
831.391
866.905
904.706
562.418
563.864
566.779
571.21
577.224
584.897
594.318
605.573
618.751
633.929
651.181
670.568
692.141
715.941
742
770.34
800.978
833.922
869.179
906.749
570.721
572.064
574.781
578.928
584.586
591.848
600.819
611.603
624.301
639.006
655.8
674.751
695.915
719.337
745.048
773.072
803.423
836.111
871.137
908.501
577.767
579.019
581.557
585.449
590.788
597.684
606.256
616.625
628.904
643.198
659.596
678.174
698.99
722.091
747.51
775.269
805.383
837.858
872.695
909.89
582.924
584.105
586.506
590.204
595.3
601.918
610.19
620.246
632.213
646.2
662.306
680.607
701.169
724.036
749.243
776.812
806.755
839.078
873.78
910.855
585.656
586.799
589.126
592.717
597.682
604.15
612.259
622.147
633.945
647.769
663.718
681.874
702.3
725.044
750.14
777.608
807.462
839.705
874.337
911.35
585.656
586.799
589.126
592.717
597.682
604.15
612.259
622.147
633.945
647.769
663.718
681.874
702.3
725.044
750.14
777.608
807.462
839.705
874.337
911.35
582.924
584.105
586.506
590.204
595.3
601.918
610.19
620.246
632.213
646.2
662.306
680.607
701.169
724.036
749.243
776.812
806.755
839.078
873.78
910.855
577.767
579.019
581.557
585.449
590.788
597.684
606.256
616.625
628.904
643.198
659.596
678.174
698.99
722.091
747.51
775.269
805.383
837.858
872.695
909.89
570.721
572.064
574.781
578.928
584.586
591.848
600.819
611.603
624.301
639.006
655.8
674.751
695.915
719.337
745.048
773.072
803.423
836.111
871.137
908.501
562.418
563.864
566.779
571.21
577.224
584.897
594.318
605.573
618.751
633.929
651.181
670.568
692.141
715.941
742
770.34
800.978
833.922
869.179
906.749
553.473
555.021
558.135
562.852
569.226
577.317
587.197
598.938
612.612
628.285
646.02
665.869
687.879
712.087
738.523
767.209
798.161
831.391
866.905
904.706
544.399
546.041
549.341
554.328
561.04
569.528
579.847
592.054
606.208
622.365
640.574
660.883
683.331
707.952
734.772
763.813
795.092
828.619
864.403
902.448
535.572
537.3
540.765
545.991
553.008
561.854
572.571
585.206
599.803
616.409
635.065
655.809
678.675
703.693
730.886
760.276
791.876
825.7
861.755
900.048
527.241
529.041
532.649
538.082
545.363
554.521
565.587
578.599
593.591
610.6
629.659
650.8
674.052
699.439
726.983
756.701
788.609
822.718
859.037
897.571
519.542
521.403
525.131
530.739
538.243
547.665
559.031
572.367
587.701
605.062
624.477
645.971
669.568
695.289
723.153
753.175
785.368
819.743
856.31
895.074
)
;
    }
    coldSide
    {
        type            mixed;
        refValue        uniform 300;
        refGradient     uniform 0;
        valueFraction   uniform 0.991591;
        source          uniform 0;
        value           nonuniform List<scalar> 
400
(
300.028
300.028
300.028
300.029
300.029
300.029
300.03
300.031
300.032
300.032
300.034
300.035
300.036
300.037
300.039
300.04
300.042
300.044
300.045
300.046
300.028
300.028
300.029
300.029
300.029
300.03
300.03
300.031
300.032
300.033
300.034
300.035
300.036
300.037
300.039
300.04
300.042
300.044
300.045
300.046
300.029
300.029
300.029