/*--------------------------------*- C++ -*----------------------------------*\
| =========                 |                                                 |
| \\      /  F ield         | OpenFOAM: The Open Source CFD Toolbox           |
|  \\    /   O peration     | Version:  2212                                  |
|   \\  /    A nd           | Website:  www.openfoam.com                      |
|    \\/     M anipulation  |                                                 |
\*---------------------------------------------------------------------------*/
FoamFile
{
    version     2.0;
    format      ascii;
    arch        "LSB;label=32;scalar=64";
    class       volScalarField;
    location    "0";
    object      T;
}
// * * * * * * * * * * * * * * * * * * * * * * * * * * * * * * * * * * * * * //

dimensions      [0 0 0 1 0 0 0];

internalField   nonuniform List<scalar> 
3200
(
315.617
315.71
315.904
316.221
316.564
316.679
316.792
317.167
317.119
317.318
317.465
317.779
317.866
317.518
317.492
317.275
317.368
317.514
317.028
317.052
313.559
313.632
313.85
314.1
314.364
314.447
314.582
314.973
314.829
315.048
315.176
315.462
315.532
315.196
315.179
314.988
315.037
315.132
314.734
314.765
311.457
311.502
311.719
311.991
312.17
312.214
312.319
312.677
312.527
312.702
312.847
313.061
313.2
312.816
312.798
312.704
312.661
312.81
312.477
312.487
309.36
309.421
309.629
309.797
310
309.997
310.086
310.375
310.265
310.381
310.489
310.664
310.814
310.434
310.457
310.398
310.337
310.502
310.161
310.188
307.321
307.333
307.516
307.582
307.782
307.772
307.855
308.076
307.994
308.041
308.113
308.279
308.409
308.104
308.136
308.068
308.022
308.167
307.877
307.925
305.228
305.278
305.407
305.386
305.549
305.567
305.585
305.777
305.723
305.768
305.787
305.902
306.032
305.778
305.81
305.81
305.7
305.821
305.591
305.692
303.159
303.182
303.253
303.221
303.324
303.377
303.382
303.481
303.41
303.445
303.46
303.514
303.623
303.474
303.49
303.506
303.412
303.49
303.335
303.441
301.044
301.083
301.084
301.092
301.116
301.137
301.118
301.154
301.132
301.152
301.161
301.152
301.211
301.167
301.155
301.17
301.131
301.181
301.104
301.149
316.149
316.064
316.581
316.764
317.144
317.385
317.57
317.845
317.806
318.091
318.107
318.23
318.071
318.077
318.061
317.972
318.058
318.048
317.731
317.779
314.03
313.907
314.345
314.496
314.849
315.08
315.204
315.488
315.39
315.672
315.687
315.793
315.635
315.592
315.63
315.573
315.642
315.608
315.314
315.345
311.882
311.752
312.106
312.264
312.542
312.766
312.842
313.109
312.996
313.226
313.218
313.32
313.221
313.117
313.211
313.189
313.202
313.167
312.894
312.922
309.697
309.592
309.894
310.038
310.247
310.448
310.52
310.694
310.617
310.799
310.756
310.836
310.783
310.704
310.798
310.775
310.813
310.778
310.495
310.556
307.527
307.464
307.72
307.838
307.936
308.099
308.2
308.317
308.247
308.389
308.317
308.365
308.354
308.281
308.34
308.33
308.403
308.353
308.138
308.176
305.378
305.34
305.502
305.591
305.69
305.754
305.855
305.953
305.883
306.016
305.959
305.983
305.948
305.89
305.942
305.934
306.014
305.952
305.828
305.855
303.2
303.208
303.278
303.338
303.395
303.431
303.526
303.565
303.536
303.584
303.589
303.575
303.592
303.509
303.578
303.591
303.607
303.57
303.504
303.523
301.059
301.082
301.102
301.116
301.149
301.142
301.177
301.202
301.185
301.22
301.191
301.191
301.215
301.168
301.182
301.214
301.207
301.202
301.176
301.178
316.891
317.054
317.388
317.726
318.043
318.239
318.438
318.772
318.562
318.801
318.807
319.068
319.041
319.092
318.879
319.039
319.033
318.887
318.611
318.481
314.668
314.804
315.026
315.341
315.627
315.811
315.935
316.26
316.061
316.249
316.284
316.474
316.486
316.487
316.294
316.462
316.441
316.339
316.061
315.925
312.425
312.543
312.649
312.948
313.23
313.334
313.406
313.727
313.546
313.738
313.768
313.911
313.933
313.872
313.706
313.905
313.872
313.796
313.514
313.44
310.16
310.266
310.265
310.596
310.819
310.859
310.903
311.199
311.076
311.198
311.237
311.327
311.407
311.356
311.17
311.337
311.292
311.244
310.996
310.97
307.869
308.034
307.939
308.239
308.414
308.454
308.454
308.686
308.635
308.682
308.714
308.795
308.891
308.823
308.705
308.803
308.704
308.707
308.481
308.502
305.595
305.725
305.643
305.892
305.98
306.05
306.021
306.211
306.161
306.203
306.239
306.276
306.362
306.27
306.206
306.291
306.188
306.145
306.028
306.039
303.33
303.434
303.374
303.509
303.555
303.666
303.604
303.734
303.685
303.723
303.757
303.748
303.791
303.728
303.726
303.763
303.719
303.663
303.589
303.6
301.108
301.156
301.124
301.177
301.18
301.226
301.208
301.238
301.221
301.245
301.264
301.238
301.254
301.258
301.258
301.254
301.252
301.247
301.177
301.219
317.595
317.901
318.12
318.555
318.981
319.222
319.301
319.654
319.627
319.863
319.851
319.983
319.993
319.96
319.741
319.783
319.855
319.719
319.599
319.324
315.252
315.473
315.7
316.042
316.412
316.596
316.703
316.993
316.941
317.11
317.154
317.296
317.301
317.202
317
317.089
317.167
317.054
316.952
316.708
312.866
313.087
313.301
313.499
313.84
313.977
314.132
314.364
314.304
314.433
314.493
314.634
314.589
314.51
314.29
314.395
314.474
314.412
314.304
314.144
310.503
310.683
310.895
311.024
311.268
311.362
311.557
311.727
311.721
311.768
311.849
311.952
311.892
311.835
311.619
311.783
311.817
311.801
311.693
311.542
308.188
308.296
308.462
308.537
308.761
308.804
308.968
309.088
309.145
309.118
309.217
309.265
309.203
309.152
309.021
309.12
309.179
309.21
309.04
308.957
305.876
305.939
306.065
306.106
306.272
306.27
306.422
306.494
306.574
306.494
306.571
306.626
306.572
306.487
306.43
306.483
306.547
306.634
306.397
306.38
303.523
303.578
303.641
303.659
303.755
303.743
303.841
303.928
303.946
303.903
303.913
303.964
303.973
303.892
303.835
303.87
303.919
304.026
303.805
303.828
301.2
301.197
301.224
301.203
301.271
301.237
301.285
301.324
301.323
301.32
301.309
301.339
301.325
301.298
301.292
301.28
301.304
301.353
301.271
301.292
318.345
318.885
319.113
319.467
319.867
320.168
320.34
320.509
320.761
321.042
320.964
321.003
320.999
320.845
320.88
320.88
320.734
320.601
320.634
320.483
315.897
316.322
316.555
316.818
317.184
317.44
317.606
317.746
317.986
318.175
318.111
318.168
318.155
318.022
318.025
317.97
317.883
317.785
317.85
317.71
313.441
313.748
313.977
314.186
314.55
314.72
314.875
315.022
315.166
315.336
315.317
315.328
315.327
315.178
315.23
315.119
315.07
314.996
315.027
314.928
310.944
311.181
311.439
311.57
311.926
312.001
312.143
312.293
312.392
312.473
312.532
312.469
312.518
312.352
312.494
312.32
312.295
312.2
312.244
312.181
308.476
308.693
308.902
308.986
309.276
309.29
309.408
309.559
309.621
309.638
309.741
309.661
309.702
309.548
309.721
309.58
309.57
309.413
309.485
309.428
306.054
306.238
306.368
306.405
306.603
306.592
306.718
306.84
306.87
306.839
306.918
306.896
306.923
306.78
306.952
306.844
306.836
306.676
306.679
306.707
303.643
303.742
303.838
303.847
303.955
303.941
304.008
304.111
304.115
304.096
304.173
304.156
304.13
304.043
304.127
304.096
304.109
303.965
303.972
304.009
301.215
301.262
301.292
301.297
301.33
301.31
301.332
301.388
301.396
301.363
301.421
301.4
301.371
301.336
301.371
301.38
301.377
301.323
301.307
301.344
319.288
319.598
320.113
320.413
320.884
321.059
321.087
321.376
321.606
321.783
321.973
321.968
321.971
321.86
322.143
321.903
321.858
321.831
321.44
321.429
316.719
316.954
317.426
317.658
318.093
318.262
318.284
318.514
318.68
318.838
319.011
318.965
318.953
318.897
319.124
318.956
318.91
318.856
318.535
318.544
314.14
314.318
314.69
314.91
315.269
315.43
315.439
315.678
315.77
315.84
316.046
315.973
315.955
315.896
316.152
315.974
315.917
315.886
315.704
315.669
311.592
311.682
311.967
312.183
312.494
312.579
312.623
312.764
312.84
312.929
313.067
313.071
313.033
312.869
313.176
313.044
312.973
312.948
312.868
312.825
309.026
309.072
309.273
309.443
309.721
309.744
309.795
309.902
309.932
310.032
310.112
310.153
310.105
309.938
310.214
310.149
310.083
309.982
309.999
310
306.446
306.475
306.594
306.714
306.926
306.917
306.97
307.04
307.059
307.173
307.218
307.273
307.209
307.073
307.283
307.22
307.25
307.088
307.199
307.171
303.91
303.868
303.935
304.004
304.194
304.131
304.177
304.182
304.197
304.335
304.316
304.383
304.344
304.254
304.368
304.312
304.372
304.25
304.346
304.306
301.312
301.316
301.323
301.33
301.413
301.363
301.381
301.395
301.397
301.471
301.444
301.461
301.453
301.432
301.455
301.452
301.455
301.416
301.485
301.457
319.981
320.574
320.803
321.32
321.765
321.965
322.067
322.312
322.5
322.789
322.799
322.93
323.061
323.08
323.017
323.16
322.683
322.632
322.516
322.104
317.292
317.831
317.982
318.422
318.847
319.022
319.089
319.281
319.429
319.725
319.698
319.794
319.921
319.93
319.887
320.032
319.619
319.63
319.522
319.053
314.665
315.152
315.216
315.525
315.938
316.118
316.116
316.276
316.405
316.687
316.582
316.702
316.838
316.862
316.795
316.903
316.545
316.544
316.509
316.039
311.997
312.416
312.438
312.662
313.06
313.185
313.131
313.302
313.393
313.638
313.541
313.661
313.728
313.782
313.711
313.799
313.478
313.496
313.516
313.067
309.351
309.629
309.67
309.801
310.157
310.24
310.173
310.329
310.397
310.531
310.516
310.621
310.679
310.724
310.666
310.712
310.443
310.533
310.491
310.137
306.735
306.885
306.877
306.999
307.269
307.324
307.256
307.361
307.385
307.523
307.465
307.544
307.611
307.674
307.634
307.657
307.44
307.524
307.468
307.241
304.074
304.114
304.095
304.201
304.374
304.411
304.332
304.429
304.407
304.536
304.457
304.523
304.569
304.61
304.593
304.601
304.462
304.495
304.509
304.342
301.355
301.392
301.362
301.427
301.473
301.488
301.43
301.491
301.456
301.535
301.485
301.519
301.518
301.557
301.544
301.551
301.502
301.506
301.523
301.456
320.862
321.295
321.708
322.171
322.525
322.983
323.346
323.407
323.419
323.836
323.91
324.134
324.143
323.957
324.047
323.834
323.627
323.399
323.115
322.857
318.078
318.463
318.808
319.192
319.457
319.899
320.221
320.224
320.265
320.563
320.648
320.839
320.864
320.725
320.783
320.606
320.433
320.217
319.932
319.786
315.305
315.654
315.942
316.243
316.472
316.802
317.011
317.057
317.09
317.341
317.428
317.565
317.586
317.469
317.546
317.409
317.298
317.064
316.821
316.683
312.548
312.773
313.021
313.235
313.472
313.714
313.854
313.929
313.941
314.152
314.229
314.348
314.335
314.219
314.335
314.254
314.15
313.941
313.718
313.583
309.755
309.882
310.09
310.258
310.421
310.659
310.724
310.854
310.783
310.989
311.002
311.189
311.149
311.008
311.174
311.105
311.023
310.851
310.632
310.526
306.988
307.028
307.203
307.296
307.43
307.63
307.639
307.739
307.688
307.829
307.807
308.052
307.949
307.854
308.009
307.946
307.826
307.754
307.584
307.512
304.187
304.208
304.362
304.363
304.441
304.569
304.614
304.637
304.613
304.672
304.681
304.848
304.778
304.751
304.817
304.759
304.689
304.624
304.542
304.533
301.399
301.397
301.467
301.452
301.47
301.532
301.544
301.544
301.561
301.55
301.551
301.619
301.61
301.591
301.621
301.597
301.565
301.547
301.53
301.525
321.712
322.149
322.486
323.074
323.381
323.72
324.074
324.11
324.433
324.724
324.947
325.072
324.987
324.796
324.868
324.848
324.752
324.455
324.018
323.821
318.845
319.189
319.503
319.931
320.191
320.507
320.86
320.844
321.127
321.357
321.573
321.644
321.583
321.455
321.513
321.443
321.388
321.136
320.751
320.593
315.979
316.22
316.521
316.818
317.056
317.338
317.629
317.603
317.809
317.992
318.235
318.257
318.199
318.095
318.163
318.063
318.057
317.873
317.519
317.398
313.082
313.253
313.508
313.721
313.943
314.171
314.401
314.416
314.494
314.653
314.909
314.907
314.842
314.793
314.854
314.784
314.741
314.607
314.307
314.199
310.183
310.283
310.554
310.635
310.822
311.023
311.166
311.208
311.239
311.338
311.555
311.591
311.503
311.494
311.563
311.505
311.443
311.362
311.1
311.052
307.251
307.366
307.558
307.585
307.711
307.844
307.939
308.017
308.004
308.118
308.228
308.314
308.237
308.183
308.305
308.233
308.124
308.134
307.913
307.901
304.327
304.435
304.569
304.554
304.589
304.701
304.743
304.813
304.823
304.875
304.899
304.985
304.942
304.903
305.015
304.963
304.854
304.893
304.752
304.763
301.454
301.472
301.537
301.516
301.539
301.574
301.587
301.603
301.621
301.624
301.636
301.662
301.661
301.62
301.685
301.674
301.618
301.646
301.599
301.607
322.679
322.774
323.35
323.722
324.106
324.532
324.881
325.087
325.259
325.528
325.679
325.959
325.719
325.73
325.66
325.641
325.527
325.282
324.87
324.481
319.652
319.707
320.229
320.515
320.851
321.249
321.518
321.707
321.866
322.075
322.227
322.468
322.226
322.234
322.176
322.151
322.073
321.865
321.491
321.163
316.626
316.685
317.127
317.357
317.661
317.957
318.183
318.295
318.499
318.623
318.767
318.956
318.798
318.743
318.697
318.694
318.627
318.461
318.202
317.877
313.595
313.661
313.978
314.188
314.446
314.68
314.875
314.931
315.098
315.107
315.332
315.48
315.371
315.298
315.24
315.257
315.207
315.08
314.864
314.572
310.56
310.605
310.839
311.006
311.232
311.369
311.527
311.58
311.728
311.66
311.891
312.019
311.928
311.884
311.843
311.819
311.814
311.724
311.502
311.29
307.53
307.6
307.705
307.815
307.998
308.092
308.199
308.305
308.362
308.262
308.525
308.597
308.549
308.459
308.46
308.426
308.41
308.36
308.218
307.985
304.486
304.589
304.614
304.656
304.768
304.846
304.924
304.947
305.03
304.965
305.15
305.218
305.132
305.087
305.074
305.044
305.061
305.036
304.926
304.756
301.513
301.551
301.567
301.57
301.596
301.607
301.611
301.644
301.689
301.675
301.716
301.753
301.73
301.677
301.707
301.668
301.711
301.691
301.673
301.588
323.339
323.675
324.094
324.736
325.116
325.422
325.613
326.051
326.215
326.345
326.177
326.791
326.616
326.635
326.538
326.592
326.271
325.981
325.787
325.411
320.218
320.541
320.852
321.429
321.745
322.02
322.164
322.499
322.67
322.762
322.657
323.179
323.043
323.001
322.924
323.01
322.716
322.455
322.282
321.964
317.079
317.379
317.598
318.127
318.421
318.57
318.678
318.965
319.134
319.211
319.169
319.576
319.453
319.407
319.322
319.447
319.157
318.967
318.8
318.529
313.994
314.203
314.327
314.778
315.036
315.153
315.209
315.451
315.608
315.708
315.671
316.029
315.922
315.842
315.748
315.872
315.642
315.48
315.308
315.102
310.907
310.99
311.113
311.448
311.66
311.779
311.776
311.948
312.108
312.19
312.191
312.479
312.384
312.284
312.194
312.35
312.134
312.057
311.877
311.67
307.813
307.837
307.941
308.138
308.28
308.415
308.412
308.514
308.622
308.69
308.719
308.878
308.894
308.71
308.693
308.803
308.598
308.632
308.484
308.322
304.711
304.669
304.782
304.863
304.954
305.075
305.017
305.075
305.173
305.201
305.251
305.312
305.345
305.159
305.214
305.309
305.156
305.189
305.096
304.966
301.58
301.546
301.603
301.618
301.654
301.707
301.673
301.71
301.722
301.728
301.758
301.79
301.799
301.729
301.739
301.782
301.726
301.734
301.732
301.663
324.051
324.284
324.709
325.428
325.756
326.299
326.639
327.057
327.177
327.375
327.186
327.568
327.37
327.438
327.226
327.304
326.959
326.687
326.197
326.119
320.854
321.015
321.369
321.983
322.273
322.751
323.067
323.407
323.54
323.701
323.491
323.847
323.679
323.682
323.53
323.631
323.293
323.007
322.612
322.561
317.653
317.744
318.084
318.546
318.823
319.261
319.544
319.755
319.886
319.999
319.819
320.101
320.006
319.999
319.843
319.955
319.667
319.448
319.064
319.06
314.46
314.505
314.804
315.113
315.359
315.797
315.992
316.125
316.252
316.331
316.189
316.38
316.365
316.367
316.119
316.293
316.106
315.9
315.543
315.602
311.281
311.267
311.543
311.721
311.934
312.308
312.419
312.497
312.621
312.669
312.59
312.719
312.674
312.705
312.46
312.654
312.521
312.355
312.087
312.106
308.092
308.07
308.283
308.328
308.485
308.79
308.865
308.914
309.044
309.017
309.031
309.081
309.029
309.066
308.872
309.031
308.941
308.863
308.608
308.634
304.878
304.863
305.002
305.004
305.116
305.272
305.313
305.374
305.451
305.439
305.438
305.474
305.4
305.406
305.34
305.422
305.393
305.302
305.156
305.194
301.626
301.646
301.683
301.673
301.725
301.769
301.791
301.812
301.824
301.818
301.8
301.832
301.804
301.796
301.791
301.808
301.804
301.782
301.723
301.748
324.703
325.126
325.413
325.977
326.316
326.928
327.361
327.777
327.967
328.237
328.362
328.419
328.206
328.348
328.182
328.041
327.655
327.398
326.998
326.847
321.421
321.789
321.989
322.435
322.772
323.309
323.631
324.056
324.226
324.352
324.485
324.583
324.333
324.465
324.334
324.249
323.884
323.663
323.322
323.189
318.131
318.399
318.547
318.938
319.254
319.657
319.923
320.332
320.455
320.509
320.649
320.774
320.508
320.638
320.528
320.473
320.176
320.01
319.639
319.611
314.848
315.048
315.108
315.478
315.784
316.055
316.238
316.604
316.718
316.789
316.849
316.951
316.717
316.843
316.76
316.703
316.504
316.363
316.017
316.037
311.554
311.724
311.728
312.011
312.29
312.469
312.622
312.898
312.972
313.019
313.093
313.171
312.966
313.077
313.012
312.936
312.855
312.737
312.428
312.481
308.272
308.404
308.378
308.54
308.768
308.912
309
309.184
309.213
309.297
309.331
309.389
309.261
309.332
309.269
309.217
309.186
309.064
308.844
308.911
304.956
305.038
305.038
305.139
305.266
305.352
305.407
305.493
305.504
305.565
305.584
305.62
305.577
305.595
305.559
305.546
305.528
305.437
305.299
305.382
301.67
301.684
301.699
301.729
301.76
301.804
301.816
301.826
301.851
301.861
301.86
301.872
301.867
301.875
301.85
301.854
301.85
301.822
301.765
301.83
325.12
325.582
326.068
326.512
327.018
327.536
328.061
328.492
328.516
328.654
328.993
328.98
328.959
329.104
329.056
328.661
328.44
328.08
327.471
327.599
321.752
322.116
322.567
322.915
323.38
323.811
324.294
324.638
324.653
324.819
325.085
325.033
324.977
325.142
325.109
324.747
324.569
324.26
323.692
323.874
318.394
318.696
319.055
319.344
319.748
320.126
320.582
320.807
320.767
321.008
321.204
321.123
321.026
321.218
321.208
320.873
320.726
320.501
319.949
320.165
315.02
315.277
315.588
315.833
316.139
316.496
316.836
317.022
316.966
317.215
317.317
317.253
317.141
317.316
317.308
317.045
316.904
316.76
316.242
316.472
311.648
311.832
312.127
312.312
312.54
312.862
313.051
313.224
313.154
313.413
313.473
313.358
313.314
313.467
313.422
313.242
313.106
313.037
312.587
312.785
308.321
308.458
308.649
308.789
308.929
309.182
309.297
309.443
309.344
309.604
309.613
309.539
309.491
309.617
309.583
309.471
309.309
309.332
308.991
309.116
305.003
305.083
305.198
305.251
305.375
305.535
305.609
305.683
305.61
305.77
305.751
305.714
305.67
305.777
305.747
305.695
305.579
305.612
305.424
305.49
301.649
301.693
301.702
301.761
301.83
301.877
301.883
301.914
301.884
301.94
301.934
301.885
301.886
301.93
301.919
301.905
301.882
301.865
301.832
301.836
325.681
326.055
326.691
327.238
327.885
328.48
328.558
329.128
329.178
329.424
329.772
329.711
329.87
329.716
329.561
329.338
328.997
328.806
328.143
328.103
322.199
322.519
323.09
323.58
324.104
324.593
324.715
325.184
325.226
325.408
325.703
325.644
325.833
325.703
325.528
325.313
325.032
324.894
324.261
324.281
318.777
318.988
319.507
319.957
320.376
320.717
320.863
321.259
321.298
321.434
321.682
321.619
321.777
321.747
321.567
321.357
321.099
321.041
320.441
320.508
315.357
315.5
315.929
316.341
316.674
316.913
317.071
317.396
317.391
317.501
317.723
317.653
317.783
317.775
317.586
317.438
317.21
317.175
316.682
316.75
311.913
312.025
312.347
312.751
312.936
313.109
313.306
313.524
313.485
313.601
313.789
313.712
313.78
313.767
313.652
313.567
313.362
313.32
312.927
313.013
308.503
308.558
308.818
309.095
309.202
309.367
309.53
309.675
309.632
309.745
309.819
309.795
309.848
309.785
309.739
309.671
309.542
309.477
309.254
309.353
305.122
305.125
305.272
305.465
305.491
305.631
305.752
305.833
305.764
305.881
305.891
305.903
305.905
305.887
305.827
305.779
305.747
305.662
305.551
305.614
301.726
301.736
301.769
301.844
301.824
301.879
301.921
301.959
301.92
301.985
301.971
301.979
301.965
301.985
301.961
301.944
301.938
301.893
301.867
301.884
326.24
326.717
327.174
327.853
328.424
328.879
329.155
329.778
329.779
330.064
330.347
330.383
330.333
330.309
330.183
329.848
329.627
329.222
328.801
328.74
322.689
323.093
323.498
324.134
324.585
324.993
325.218
325.761
325.786
325.985
326.251
326.282
326.202
326.188
326.086
325.785
325.603
325.232
324.865
324.809
319.138
319.447
319.848
320.385
320.746
321.089
321.266
321.716
321.748
321.941
322.176
322.203
322.125
322.104
322.016
321.787
321.619
321.299
321.007
320.937
315.58
315.828
316.193
316.659
316.934
317.216
317.342
317.726
317.784
317.941
318.113
318.139
318.039
318.059
317.954
317.766
317.663
317.336
317.19
317.102
312.092
312.261
312.583
312.938
313.122
313.359
313.502
313.769
313.833
313.944
314.073
314.07
313.973
314.062
313.962
313.779
313.719
313.436
313.364
313.305
308.617
308.745
308.966
309.249
309.34
309.524
309.647
309.846
309.873
309.99
310.046
310.043
309.953
310.037
309.978
309.815
309.787
309.576
309.542
309.518
305.19
305.27
305.341
305.527
305.601
305.697
305.802
305.913
305.923
306.053
306.008
306.07
305.97
306.003
305.975
305.89
305.891
305.696
305.741
305.711
301.738
301.763
301.778
301.844
301.867
301.897
301.962
301.973
301.979
302.027
302.029
302.053
301.984
302.008
302.002
301.967
301.982
301.902
301.912
301.906
326.696
327.221
327.722
328.377
328.806
329.279
329.864
330.091
330.488
330.66
330.818
330.913
330.843
330.896
330.86
330.554
330.226
329.777
329.507
329.346
323.083
323.526
323.974
324.519
324.869
325.285
325.835
326.038
326.381
326.468
326.671
326.748
326.668
326.682
326.69
326.386
326.092
325.76
325.524
325.377
319.497
319.834
320.258
320.709
320.96
321.329
321.829
321.961
322.3
322.391
322.538
322.579
322.525
322.491
322.53
322.207
322.038
321.807
321.551
321.428
315.925
316.181
316.552
316.904
317.094
317.418
317.818
317.926
318.199
318.319
318.406
318.453
318.391
318.327
318.376
318.114
317.971
317.838
317.607
317.517
312.4
312.592
312.847
313.114
313.263
313.541
313.817
313.932
314.133
314.216
314.349
314.355
314.233
314.224
314.255
314.059
313.932
313.902
313.715
313.614
308.884
309.012
309.167
309.298
309.471
309.667
309.833
309.944
310.103
310.164
310.288
310.23
310.093
310.132
310.145
310.005
309.952
309.923
309.808
309.696
305.333
305.428
305.542
305.564
305.701
305.782
305.908
305.944
306.081
306.108
306.192
306.14
306.05
306.077
306.088
305.972
305.958
305.953
305.898
305.825
301.815
301.829
301.875
301.862
301.909
301.935
301.974
301.976
302.049
302.058
302.089
302.053
302.054
302.027
302.032
301.989
302.006
301.994
301.972
301.976
327.311
327.648
328.377
328.857
329.242
329.837
330.178
330.568
330.98
331.384
331.28
331.413
331.352
331.504
331.382
331.198
330.628
330.414
330.12
329.616
323.656
323.956
324.617
324.957
325.271
325.832
326.054
326.378
326.81
327.148
327.026
327.158
327.121
327.256
327.073
326.959
326.448
326.299
326.036
325.619
319.955
320.259
320.791
321.056
321.4
321.881
322.025
322.256
322.667
322.903
322.816
322.985
322.891
323.005
322.857
322.697
322.297
322.175
321.979
321.647
316.332
316.565
316.982
317.155
317.531
317.885
318.008
318.12
318.528
318.733
318.638
318.788
318.698
318.764
318.669
318.518
318.207
318.091
317.937
317.652
312.684
312.882
313.223
313.302
313.643
313.946
314.029
314.027
314.373
314.544
314.47
314.604
314.486
314.59
314.541
314.387
314.159
314.014
313.944
313.723
309.051
309.212
309.449
309.45
309.758
309.953
310.009
309.98
310.247
310.39
310.344
310.429
310.311
310.429
310.379
310.296
310.12
310.049
309.949
309.799
305.438
305.524
305.681
305.668
305.868
306
306.006
305.989
306.152
306.228
306.215
306.267
306.187
306.274
306.22
306.168
306.112
306.074
305.987
305.874
301.835
301.845
301.908
301.89
301.965
302.005
301.993
301.99
302.063
302.08
302.076
302.109
302.073
302.099
302.093
302.052
302.056
302.045
302.012
301.976
327.658
328.161
328.557
329.172
329.739
330.335
330.603
331.092
331.36
331.624
331.669
331.811
331.852
332.105
331.838
331.56
331.259
330.986
330.658
330.096
323.96
324.331
324.691
325.193
325.709
326.258
326.466
326.876
327.16
327.371
327.341
327.481
327.552
327.788
327.549
327.28
327.011
326.768
326.493
326.001
320.262
320.534
320.85
321.268
321.688
322.157
322.345
322.672
322.992
323.124
323.015
323.192
323.212
323.481
323.28
323.001
322.794
322.547
322.364
321.914
316.557
316.773
316.974
317.363
317.699
318.112
318.239
318.47
318.797
318.899
318.776
318.942
318.952
319.184
319.003
318.77
318.598
318.351
318.239
317.863
312.85
313.044
313.176
313.459
313.725
314.077
314.152
314.342
314.596
314.641
314.583
314.733
314.743
314.886
314.736
314.584
314.48
314.252
314.144
313.865
309.178
309.353
309.452
309.588
309.775
310.058
310.097
310.203
310.396
310.471
310.422
310.536
310.534
310.618
310.496
310.422
310.323
310.17
310.119
309.904
305.509
305.614
305.696
305.761
305.818
306.067
306.051
306.131
306.231
306.284
306.244
306.331
306.33
306.374
306.287
306.261
306.185
306.092
306.057
305.942
301.829
301.881
301.909
301.92
301.952
302.061
302.014
302.057
302.085
302.114
302.111
302.109
302.137
302.128
302.097
302.122
302.052
302.025
302.016
301.986
327.851
328.178
328.487
329.298
330.049
330.686
330.836
331.344
331.802
331.807
332.092
332.338
332.191
332.292
331.881
331.753
331.689
331.208
330.825
330.268
324.145
324.375
324.611
325.321
325.995
326.57
326.622
327.101
327.477
327.492
327.756
327.923
327.825
327.948
327.569
327.444
327.406
326.946
326.612
326.142
320.404
320.601
320.769
321.357
321.949
322.446
322.431
322.884
323.18
323.214
323.426
323.57
323.412
323.613
323.313
323.216
323.11
322.712
322.432
322.091
316.639
316.832
316.983
317.456
317.922
318.325
318.295
318.702
318.93
318.939
319.081
319.206
319.035
319.284
319.028
318.989
318.83
318.541
318.278
318.045
312.942
313.066
313.234
313.558
313.921
314.163
314.189
314.561
314.692
314.645
314.786
314.934
314.778
314.971
314.804
314.744
314.612
314.417
314.189
314.023
309.265
309.306
309.448
309.692
309.99
310.049
310.117
310.396
310.476
310.448
310.507
310.682
310.524
310.672
310.602
310.521
310.434
310.283
310.135
310.007
305.554
305.546
305.682
305.865
306.004
306.015
306.056
306.264
306.268
306.244
306.293
306.432
306.307
306.385
306.372
306.309
306.28
306.176
306.057
306.002
301.873
301.815
301.917
301.976
302.022
302.029
302.047
302.099
302.089
302.075
302.108
302.161
302.125
302.136
302.153
302.122
302.103
302.075
302.018
302.009
)
;

boundaryField
{
    hotSide
    {
        type            fixedGradient;
        gradient        nonuniform List<scalar> 
400
(
160.373
169.519
178.678
187.811
196.876
205.83
214.632
223.239
231.608
239.697
247.464
254.869
261.874
268.441
274.536
280.127
285.184
289.681
293.595
296.906
163.752
173.19
182.645
192.077
201.443
210.698
219.801
228.705
237.368
245.745
253.794
261.472
268.74
275.559
281.894
287.711
292.979
297.671
301.762
305.233
166.87
176.579
186.31
196.021
205.667
215.204
224.586
233.768
242.705
251.351
259.663
267.596
275.11
282.165
288.724
294.752
300.218
305.092
309.35
312.971
169.738
179.698
189.683
199.65
209.554
219.349
228.989
238.427
247.617
256.511
265.064
273.232
280.973
288.245
295.011
301.233
306.881
311.923
316.335
320.094
172.371
182.557
192.772
202.972
213.11
223.139
233.013
242.683
252.101
261.219
269.992
278.372
286.318
293.786
300.738
307.137
312.949
318.143
322.693
326.576
174.779
185.167
195.587
205.994
216.34
226.578
236.659
246.534
256.155
265.472
274.439
283.008
291.135
298.777
305.894
312.447
318.404
323.732
328.404
332.396
176.971
187.536
198.134
208.72
219.247
229.666
239.926
249.98
259.776
269.265
278.399
287.13
295.413
303.204
310.462
317.148
323.228
328.67
333.445
337.53
178.953
189.666
200.415
211.153
221.831
232.401
242.813
253.015
262.957
272.589
281.862
290.727
299.139
307.053
314.427
321.223
327.404
332.938
337.797
341.956
180.726
191.559
202.429
213.289
224.089
234.78
245.311
255.631
265.689
275.434
284.816
293.787
302.299
310.309
317.772
324.652
330.91
336.514
341.436
345.65
182.285
193.209
204.169
215.12
226.01
236.791
247.41
257.816
267.958
277.785
287.245
296.291
304.874
312.951
320.477
327.414
333.724
339.375
344.338
348.587
183.619
194.603
205.624
216.633
227.582
238.419
249.093
259.553
269.747
279.623
289.13
298.219
306.844
314.958
322.518
329.485
335.822
341.496
346.478
350.741
184.713
195.726
206.774
217.81
228.784
239.645
250.341
260.822
271.033
280.925
290.447
299.549
308.183
316.305
323.871
330.841
337.179
342.851
347.829
352.086
185.545
196.555
207.599
218.628
229.594
240.445
251.129
261.596
271.792
281.667
291.17
300.252
308.865
316.965
324.507
331.453
337.766
343.412
348.363
352.594
186.089
197.064
208.071
219.06
229.983
240.79
251.428
261.847
271.994
281.819
291.271
300.301
308.862
316.909
324.4
331.294
337.556
343.152
348.055
352.239
186.316
197.224
208.159
219.075
229.922
240.65
251.209
261.545
271.61
281.351
290.719
299.666
308.144
316.109
323.52
330.336
336.521
342.045
346.877
350.994
186.192
197
207.832
218.641
229.378
239.994
250.438
260.66
270.608
280.233
289.486
298.318
306.683
314.538
321.84
328.552
334.638
340.065
344.807
348.839
185.685
196.361
207.056
217.724
228.318
238.789
249.086
259.159
268.959
278.436
287.542
296.229
304.453
312.169
319.338
325.92
331.882
337.193
341.824
345.753
184.761
195.272
205.798
216.294
226.713
237.005
247.122
257.015
266.635
275.934
284.863
293.377
301.431
308.982
315.992
322.422
328.239
333.412
337.915
341.725
183.388
193.704
204.03
214.322
224.533
234.615
244.522
254.204
263.614
272.705
281.429
289.742
297.6
304.962
311.789
318.045
323.696
328.714
333.073
336.75
181.539
191.63
201.725
211.782
221.756
231.599
241.265
250.708
259.879
268.734
277.227
285.314
292.952
300.101
306.724
312.785
318.253
323.099
327.298
330.829
)
;
    }
    coldSide
    {
        type            mixed;
        refValue        uniform 300;
        refGradient     uniform 0;
        valueFraction   uniform 0.991591;
        source          uniform 0;
        value           nonuniform List<scalar> 
400
(
300.009
300.009
300.009
300.01
300.01
300.011
300.011
300.012
300.012
300.013
300.013
300.014
300.014
300.014
300.015
300.015
300.015
300.015
300.015
300.016
300.009
300.009
300.01
300.01
300.011
300.011
300.012
300.012
300.012
300.013
300.013
300.014
300.014
300.014
300.015