/*--------------------------------*- C++ -*----------------------------------*\
| =========                 |                                                 |
| \\      /  F ield         | OpenFOAM: The Open Source CFD Toolbox           |
|  \\    /   O peration     | Version:  2212                                  |
|   \\  /    A nd           | Website:  www.openfoam.com                      |
|    \\/     M anipulation  |                                                 |
\*---------------------------------------------------------------------------*/
FoamFile
{
    version     2.0;
    format      ascii;
    arch        "LSB;label=32;scalar=64";
    class       volScalarField;
    location    "0";
    object      relativeErrorField;
}
// * * * * * * * * * * * * * * * * * * * * * * * * * * * * * * * * * * * * * //

dimensions      [0 0 0 1 0 0 0];

internalField   nonuniform List<scalar> 
3200
(
0.0091476
0.00958093
0.0103774
0.0110511
0.0122972
0.0134351
0.0146698
0.0155
0.0164014
0.0165709
0.0164672
0.0161355
0.0153611
0.0144081
0.0130704
0.0117884
0.0108084
0.00949278
0.00884827
0.00812746
0.00780143
0.0082424
0.00884582
0.0097279
0.0106989
0.0117541
0.0125923
0.0132973
0.0140419
0.0144278
0.0146094
0.0138703
0.0133071
0.0124687
0.0113516
0.0103844
0.00912779
0.00830708
0.00747293
0.00705832
0.0064008
0.00677519
0.0072471
0.00817431
0.00866239
0.00975114
0.0105153
0.0112423
0.011764
0.0121475
0.0120446
0.0118335
0.0109982
0.010279
0.00956885
0.00849608
0.00786308
0.00701089
0.00609435
0.00579595
0.0051026
0.00551195
0.00598876
0.00661429
0.00727529
0.00803839
0.00875849
0.00909818
0.00958158
0.00978329
0.00972485
0.00953416
0.00900369
0.00829841
0.00758924
0.00678595
0.00604204
0.00561097
0.00505587
0.00461193
0.00411015
0.00430596
0.00486302
0.00513004
0.00560407
0.00611222
0.00694563
0.00711061
0.00736347
0.00770027
0.00754779
0.00747553
0.00709189
0.00655725
0.00596964
0.00554699
0.00471346
0.00409806
0.00403808
0.00349651
0.00288343
0.00300379
0.00343893
0.00371348
0.00425929
0.0042436
0.00486164
0.00502142
0.00531681
0.00532532
0.00568084
0.00550328
0.00505544
0.00464227
0.00414899
0.00370532
0.00346429
0.00304637
0.00277051
0.00268515
0.0018674
0.00194093
0.00209618
0.00235305
0.00248588
0.00246332
0.00282108
0.00302031
0.00316752
0.00317245
0.00335474
0.00356238
0.00302826
0.00297135
0.00252813
0.00228404
0.00188226
0.00182795
0.00180176
0.00164212
0.000881832
0.00058872
0.000851955
0.000633113
0.000737255
0.00114157
0.00105145
0.000928579
0.00101351
0.00118509
0.000997828
0.00120037
0.00119616
0.000910636
0.0010326
0.000688561
0.000777593
0.0007362
0.000455039
0.000465592
0.00735762
0.00795426
0.00838665
0.00948268
0.0103374
0.0114755
0.0128198
0.0137383
0.0143602
0.01457
0.0147694
0.0142939
0.0135819
0.0122028
0.011189
0.010058
0.00898115
0.00795064
0.00706817
0.00649671
0.00617485
0.00678552
0.00748989
0.00836602
0.00920102
0.0101453
0.0109457
0.0118758
0.0123826
0.0126648
0.0125594
0.0123658
0.011662
0.0107579
0.0097635
0.00855213
0.0073829
0.00660205
0.00597128
0.00548755
0.00543278
0.00548656
0.00637818
0.00681087
0.00786799
0.00854398
0.00926478
0.00986785
0.0105768
0.0107591
0.0107241
0.0103148
0.00964806
0.00907131
0.00807386
0.00725326
0.00639382
0.00536176
0.00527556
0.00447442
0.00411289
0.00465074
0.00512174
0.00565206
0.00629373
0.00695902
0.00768584
0.00839695
0.00849391
0.00884985
0.00877165
0.00850597
0.00810104
0.00735693
0.00671813
0.00571524
0.00507363
0.00442627
0.00408527
0.00379112
0.0033938
0.00345679
0.00371536
0.00426976
0.00494678
0.00527166
0.00593926
0.0065094
0.00692725
0.00698435
0.00680842
0.0065858
0.00599591
0.00588153
0.00509761
0.00459509
0.00404388
0.00346099
0.00315386
0.00286489
0.00265315
0.00250701
0.00285383
0.00305165
0.00362063
0.00393696
0.0041941
0.00436203
0.00480277
0.00514907
0.00486158
0.00477296
0.00442112
0.0041667
0.00364641
0.00322268
0.00292901
0.00254195
0.00241033
0.0020359
0.00151487
0.00163151
0.00163535
0.0019967
0.00198417
0.00241292
0.00280624
0.00268545
0.00307039
0.00297372
0.00306507
0.0030342
0.00282305
0.00250395
0.00212443
0.00207887
0.00177676
0.00154605
0.0011392
0.00130775
0.000423076
0.000568572
0.000903327
0.000457434
0.00063013
0.000666576
0.00093447
0.000792783
0.00107138
0.000949941
0.000859795
0.000864624
0.000925122
0.00087663
0.00102345
0.000685171
0.000736428
0.000507445
0.000488342
0.00050561
0.00538917
0.0056223
0.0064778
0.00722379
0.00821588
0.00915792
0.0102967
0.0110214
0.0116307
0.0119155
0.0120505
0.011327
0.0109283
0.00976526
0.00873675
0.00762626
0.00655516
0.00556475
0.00492407
0.00431798
0.00460792
0.0048623
0.00565876
0.00606792
0.0070241
0.00783308
0.00879875
0.00934276
0.0100416
0.0103618
0.0103993
0.00992961
0.00928248
0.00855161
0.00753571
0.00659816
0.00569974
0.00493487
0.00411582
0.00369354
0.00388595
0.00416607
0.00458776
0.00525332
0.0060276
0.00684862
0.00746784
0.00794156
0.00845553
0.00886271
0.00893799
0.00858542
0.0077542
0.00720133
0.00624962
0.00552254
0.00479617
0.00386025
0.003372
0.00327226
0.00328788
0.00345798
0.00377208
0.00443184
0.0050018
0.00545223
0.00610989
0.00672108
0.00701949
0.00722796
0.00706711
0.00696229
0.0063082
0.00591711
0.00502032
0.00445591
0.0040847
0.0031331
0.00287605
0.0025733
0.00254631
0.00269898
0.00298873
0.00351969
0.00388131
0.00431905
0.00494513
0.00516813
0.00559022
0.0055527
0.00566223
0.00538524
0.00505384
0.00449042
0.00378401
0.00368811
0.00300632
0.00262768
0.00201841
0.00200033
0.00184927
0.0016527
0.00207854
0.00248844
0.00275509
0.00302121
0.003379
0.00378279
0.00386065
0.00422394
0.00408369
0.00381876
0.00346678
0.00329841
0.00282281
0.00254106
0.00225054
0.00185596
0.00162808
0.00118858
0.00118639
0.000960421
0.00121841
0.00146925
0.00163015
0.00191721
0.0021209
0.00234259
0.00228759
0.00238015
0.00238289
0.00239287
0.00228553
0.00185999
0.00201582
0.00146244
0.00146789
0.000962677
0.000818412
0.000955042
0.000224461
0.000107222
0.000419618
0.000439849
0.000593857
0.000408127
0.000909074
0.000750681
0.000664288
0.000704645
0.000845671
0.000844014
0.00064827
0.000528792
0.000644313
0.000336629
0.000505578
0.000224935
0.000210218
9.08101e-05
0.00322114
0.0036819
0.0042624
0.00486887
0.00573053
0.00681971
0.00773088
0.0083545
0.00884531
0.00929003
0.00910251
0.0088504
0.00794666
0.00708881
0.00619055
0.0050108
0.00392873
0.003192
0.00263476
0.00229261
0.00273698
0.003082
0.00366318
0.00409793
0.00492084
0.00560809
0.00664258
0.00692512
0.00785977
0.00795526
0.00782772
0.00763649
0.00672634
0.00598069
0.00529141
0.00433385
0.00347089
0.00278896
0.00217799
0.00191652
0.00249628
0.00252301
0.00303187
0.00358031
0.00408835
0.00490747
0.00576371
0.00604376
0.00655641
0.00653557
0.00663394
0.00645638
0.00581608
0.00523881
0.00447227
0.00349274
0.00303351
0.00230024
0.00191912
0.00171353
0.00170402
0.00208196
0.00251271
0.00280581
0.00344442
0.00383147
0.00445387
0.00495379
0.0054196
0.00558773
0.00557056
0.0053447
0.00472585
0.00398883
0.00352725
0.00293625
0.00246271
0.00176596
0.0012713
0.00153648
0.0015237
0.00165291
0.00177163
0.00216939
0.00251602
0.00283063
0.00352158
0.00402355
0.00415907
0.004349
0.00419794
0.00401721
0.00353855
0.0034143
0.0026979
0.00212361
0.00191043
0.0013347
0.00119539
0.000915097
0.0011949
0.00130053
0.00118284
0.00151442
0.00186247
0.00214338
0.00256496
0.00283397
0.00308962
0.00297891
0.00313887
0.00277867
0.00237668
0.00235424
0.00201762
0.00168553
0.00125736
0.00096504
0.000790281
0.000645186
0.000551685
0.000683532
0.000670391
0.00091708
0.00114919
0.00130055
0.0014738
0.00169717
0.0019362
0.00192625
0.00194165
0.00158351
0.00160562
0.00138263
0.00103602
0.000602284
0.000889561
0.000671004
0.000464134
0.000491497
0.000278322
0.000348018
0.000560019
0.000358031
0.000101698
0.000512467
0.000331551
0.000768593
0.000618725
0.00064092
0.000779815
0.000433349
0.000484376
0.000394542
0.000469011
0.00022881
0.000189811
0.000326802
0.000257289
0.000251986
0.00106407
0.00138217
0.00173624
0.00257172
0.00323006
0.00401331
0.00487173
0.00568391
0.00634778
0.0060849
0.0062049
0.00602599
0.00522005
0.00428363
0.00328268
0.00252664
0.00172066
0.000848225
0.000436118
4.96081e-05
0.00097632
0.00113605
0.00181274
0.0021153
0.00281459
0.00360592
0.00414597
0.00464506
0.00534505
0.00525799
0.00549853
0.00520909
0.00453558
0.00368444
0.00304388
0.00205426
0.00128287
0.000540535
0.000223814
5.01167e-06
0.000697272
0.00106598
0.00110337
0.00191135
0.00225184
0.00286022
0.00350641
0.00401827
0.00447145
0.00459233
0.00462838
0.00435013
0.00374881
0.00298651
0.00244831
0.00176067
0.0010187
0.000572356
0.000189205
5.46426e-05
0.000526769
0.000680655
0.00101979
0.00138206
0.00203103
0.00227859
0.00274125
0.00330286
0.00376682
0.00389072
0.00358477
0.00365346
0.00297911
0.00238029
0.00204003
0.00131309
0.000917596
0.000405318
5.46084e-05
0.000138132
0.000371179
0.000639954
0.000657077
0.000990234
0.00153218
0.00189045
0.00218961
0.00252649
0.00287469
0.00303646
0.00271386
0.00278118
0.00232216
0.00210829
0.00144285
0.00101134
0.00056179
8.95847e-05
5.07205e-05
0.000275671
0.000149588
0.000493247
0.000643675
0.000803907
0.000896057
0.00111805
0.00148952
0.0016709
0.00206634
0.00193979
0.00217334
0.00197992
0.00158522
0.00125888
0.00132718
0.000725333
0.000347083
0.000164223
0.000121817
0.000255872
0.000104974
0.000347541
0.000590697
0.00040394
0.00060084
0.000767515
0.000928293
0.00107661
0.00110638
0.00131816
0.001295
0.0011204
0.00110677
0.000818437
0.000582262
0.000568962
0.000231385
0.000104381
0.000114377
0.000106717
0.000146881
6.19973e-05
0.000167781
0.000268301
0.000291911
0.000255283
0.000362618
0.000408451
0.000525381
0.000464374
0.000365779
0.000460351
0.000330789
0.000146962
0.000391113
0.000342946
0.000197763
7.45229e-05
1.20368e-05
3.67128e-05
0.000623378
0.00056923
0.000123734
0.000198928
0.000948013
0.00154354
0.00240317
0.00306485
0.00336794
0.00363643
0.00347144
0.0030939
0.00253754
0.00181773
0.00101186
0.000186209
0.000711243
0.00138118
0.00170156
0.00204264
0.000642099
0.000382196
0.000302928
3.9585e-06
0.00064694
0.00128209
0.00205502
0.00254536
0.00306517
0.00316558
0.003013
0.00292419
0.00208017
0.0014716
0.000730304
0.000141874
0.000598413
0.00136434
0.00149078
0.00171684
0.000500531
0.000672388
0.000262078
0.000186109
0.000574732
0.00130539
0.00160694
0.00201604
0.00244506
0.0024902
0.00246991
0.00202022
0.0017492
0.00118223
0.000560547
0.000118613
0.000590534
0.00115505
0.00129588
0.0015537
0.000496914
0.00033916
0.00022323
9.51909e-05
0.000209737
0.00101364
0.00136449
0.00165553
0.00204148
0.00185658
0.00203911
0.0018812
0.00155406
0.000943691
0.000446831
0.000170066
0.000464466
0.000904639
0.00124633
0.00141983
0.000493277
0.000234362
0.000275062
1.08683e-05
0.000186853
0.000696203
0.000914413
0.0011565
0.0016455
0.00162672
0.00168396
0.00144988
0.00110713
0.00061417
0.000434463
5.02228e-05
0.000516862
0.00067293
0.00100836
0.00117826
0.000394293
0.000147734
0.000316654
2.2526e-05
4.29777e-07
0.000490969
0.000717728
0.000895543
0.00116644
0.00120977
0.00126193
0.00113667
0.000753007
0.00028864
0.000337117
1.92119e-05
0.000263156
0.00046332
0.000826152
0.000610807
0.000244742
6.37249e-05
0.000122778
0.000102179
0.000358363
0.000388303
0.000344791
0.000479881
0.000797337
0.0006733
0.000593166
0.000686025
0.000263907
0.000411324
0.000120168
0.000129036
0.000238026
0.00029674
0.000493509
0.000527093
0.000200893
0.000259575
9.2524e-05
0.000139428
5.38443e-05
0.000156407
7.67605e-05
0.000140138
0.000190467
0.000237707
0.000300411
0.000175374
0.000247541
0.000141773
0.00020666
6.29442e-05
0.000174381
0.000239179
0.000107536
6.25204e-05
0.0023921
0.00220918
0.00207024
0.00169573
0.00126871
0.000673054
8.28594e-05
0.000452703
0.000821223
0.00133695
0.000896884
0.000424959
1.578e-05
0.000567578
0.00147618
0.00215664
0.00277741
0.00344164
0.00356315
0.00368829
0.00200941
0.00189748
0.00189744
0.00131903
0.00109319
0.000736865
0.000198716
0.000347346
0.000529383
0.000970004
0.000628384
0.000650738
0.000206069
0.000475408
0.00139756
0.00188456
0.00252367
0.00285116
0.00326555
0.00323765
0.0019072
0.00177477
0.00169622
0.00130959
0.00112614
0.000802329
0.000265074
0.000154659
0.00050625
0.000356378
0.000574694
0.000347654
1.01547e-05
0.00071981
0.00120874
0.00174714
0.00221497
0.0025416
0.00273326
0.00283532
0.00140917
0.00136255
0.00126611
0.00108705
0.000833718
0.000501998
1.38196e-05
0.000339229
0.000477108
0.000433809
0.000473539
0.000122254
0.0001182
0.00047541
0.00116561
0.0015366
0.00188065
0.00191081
0.00237927
0.00243796
0.00120365
0.00114015
0.000870349
0.000831069
0.000599129
0.000358246
0.000415706
5.57552e-05
0.00034198
0.000275312
0.000396377
4.17353e-05
0.000437824
0.000470284
0.000981767
0.00103053
0.00135557
0.00154654
0.00179365
0.00187192
0.000782363
0.000678275
0.000924526
0.000567371
0.000734262
0.000219937
1.23555e-05
0.000222525
0.000103193
0.00049801
0.000224136
9.95708e-05
1.15206e-05
0.000404585
0.000784642
0.000832357
0.00115581
0.0012272
0.00135655
0.00123052
0.000230931
0.000474597
0.000631634
0.000524653
0.000328383
0.000285334
0.000409821
0.00011908
0.000146259
2.25313e-05
5.26979e-05
4.67448e-05
3.36875e-05
0.000311758
0.00030501
0.000421418
0.000727846
0.000919172
0.000707687
0.00075756
0.000155964
7.3149e-05
6.15647e-05
8.90438e-05
0.0001162
0.000126197
6.23419e-05
0.000125149
0.000157511
3.84651e-05
0.000135011
1.98819e-05
7.24667e-05
2.6555e-05
0.000213359
4.6878e-06
0.00025933
0.000136424
0.000312773
0.000367817
0.0037548
0.00367699
0.00364131
0.003619
0.00318369
0.0024778
0.00226306
0.00209406
0.0014735
0.00138552
0.00154964
0.00187373
0.00235934
0.00280269
0.00360645
0.00427587
0.00479891
0.00500019
0.00516097
0.00527488
0.00357018
0.00327422
0.00321626
0.0031232
0.00306016
0.00255569
0.0021557
0.00150063
0.00131602
0.00130601
0.00162496
0.00161102
0.00218269
0.00260735
0.00305597
0.0036194
0.00412165
0.00473712
0.00472023
0.00461234
0.00273285
0.00285561
0.00268432
0.00261341
0.00256352
0.00212675
0.00148858
0.00154987
0.00126434
0.0012536
0.00119467
0.0014489
0.00187218
0.00240475
0.00269738
0.00334156
0.00353527
0.00394914
0.00389229
0.00393886
0.00245513
0.00244642
0.00241261
0.0021999
0.00215685
0.00200786
0.00155503
0.00127441
0.000966049
0.00127624
0.00101401
0.0013345
0.00152957
0.00197444
0.00240895
0.00249188
0.00294415
0.00324524
0.00321921
0.00335855
0.00175659
0.00182053
0.00187401
0.00155804
0.00179839
0.0014697
0.00108942
0.0010987
0.000879811
0.000823815
0.000780562
0.00114058
0.00105123
0.00163773
0.00202453
0.00216989
0.00251621
0.00254887
0.00274005
0.0026037
0.00127781
0.00125211
0.00143235
0.00124185
0.00097695
0.000796754
0.000894261
0.000828369
0.000696127
0.000462727
0.00059732
0.000916957
0.000992634
0.001177
0.00138747
0.00137504
0.0017683
0.00201952
0.00199022
0.00192109
0.0010995
0.000916754
0.000947945
0.000933971
0.00065287
0.000603031
0.000548033
0.000505284
0.000407616
0.000539449
0.000320841
0.0004512
0.000399834
0.000788625
0.000793856
0.00117029
0.00111508
0.00113043
0.000767715
0.00126612
0.000297879
0.000373152
0.00033999
0.000102036
0.000553876
0.000282942
0.00019767
0.000211798
0.000145731
6.80247e-05
6.56931e-05
0.000273655
0.000173164
8.20473e-05
0.000130256
0.000822544
0.000510256
0.000412753
0.000504071
0.00048217
0.00488252
0.00493472
0.00505261
0.00506917
0.00479503
0.00456911
0.00430453
0.00379375
0.00366951
0.00369534
0.00381576
0.00405325
0.00431844
0.00481933
0.00544101
0.00594785
0.00640072
0.00655082
0.0066255
0.006596
0.00408789
0.00429029
0.00452344
0.00447039
0.00411697
0.00423988
0.00378265
0.0037076
0.00335049
0.00321867
0.00356017
0.00376357
0.00380997
0.00446591
0.00460076
0.00519259
0.00557645
0.00570925
0.00581823
0.00578777
0.00386692
0.00394574
0.00373858
0.00363542
0.00389447
0.0035124
0.003209
0.00318527
0.00278977
0.00279619
0.00289158
0.00313261
0.00334258
0.00376737
0.00428808
0.00455838
0.00472149
0.00494523
0.00485838
0.00501989
0.00310372
0.00318619
0.00326785
0.00305439
0.00302474
0.00302979
0.00278
0.00256048
0.00241131
0.00236963
0.00261638
0.00249463
0.00287406
0.00300011
0.00344362
0.00355687
0.00425057
0.0040782
0.00433275
0.00412646
0.0023937
0.00251415
0.00248215
0.00260564
0.00245588
0.00216284
0.00219723
0.00212919
0.00201279
0.00190449
0.00197409
0.00241246
0.00220917
0.00255422
0.0025651
0.00318935
0.00324119
0.0033798
0.00342273
0.00320207
0.00187817
0.00184513
0.00188842
0.0017855
0.00178479
0.00161402
0.00159589
0.00145546
0.00139215
0.0014577
0.00148429
0.00164328
0.00149101
0.00206226
0.00219616
0.00220763
0.00241183
0.00222447
0.00233223
0.00244316
0.000951353
0.00125626
0.00101718
0.00114674
0.00117563
0.00109503
0.00102153
0.000992733
0.000850421
0.00085174
0.000917608
0.000989201
0.000903661
0.00137145
0.00132491
0.00128663
0.00141712
0.0014273
0.00144086
0.00133758
0.000483128
0.000394572
0.000398314
0.000460612
0.000414896
0.000454877
0.000247344
0.000197234
0.000137466
0.000340958
0.000320577
0.000391828
0.000311249
0.000140556
0.000517225
0.000316367
0.000413521
0.000478873
0.000583555
0.000174452
0.00549129
0.00607179
0.00609742
0.0062496
0.00609016
0.00628119
0.0055849
0.00556698
0.00558525
0.00546828
0.00564302
0.00568307
0.00615309
0.00669897
0.00701807
0.00734956
0.00763449
0.00768681
0.00756004
0.00732254
0.00501008
0.00533814
0.00543581
0.00546481
0.00562166
0.00535599
0.00506439
0.00490361
0.00478466
0.00483175
0.00500966
0.00507039
0.00537313
0.0058986
0.00628631
0.00654579
0.00682712
0.00689311
0.00664109
0.00641686
0.00419436
0.00458232
0.00474218
0.00484158
0.00482166
0.00441233
0.00437731
0.0046096
0.00423798
0.00452571
0.00424847
0.00451987
0.00487751
0.00507721
0.0051741
0.00548866
0.00574062
0.00617049
0.0057722
0.00573996
0.0034076
0.00376425
0.00406043
0.00402083
0.00369181
0.00407689
0.00364791
0.0035917
0.00391252
0.00342568
0.00360031
0.00397499
0.00364876
0.00431236
0.00452157
0.0046925
0.00474826
0.00492462
0.00459579
0.00482188
0.00278311
0.00313628
0.00306396
0.00330562
0.00317184
0.00335173
0.00316757
0.00279529
0.00286389
0.00279763
0.00295948
0.00285008
0.00324745
0.00335678
0.00364942
0.00386462
0.00386041
0.00380095
0.00388758
0.0037013
0.00199666
0.00216085
0.00201938
0.00228571
0.00222479
0.00220211
0.00202243
0.00216356
0.00201171
0.00198788
0.00214993
0.00200104
0.00224558
0.00257643
0.00259767
0.00255604
0.00274
0.00288915
0.00273309
0.00265498
0.00141013
0.00128218
0.0014568
0.00146667
0.00133658
0.00129995
0.0011729
0.00132002
0.00128633
0.00123908
0.00119915
0.00127175
0.00152546
0.0014427
0.00147414
0.00172708
0.00175997
0.0017018
0.00165891
0.00168765
0.000615756
0.000378466
0.000656245
0.000449196
0.000667735
0.000497692
0.000376805
0.000423248
0.000469148
0.000574249
0.000507686
0.000571878
0.000245502
0.00063779
0.000650125
0.00056834
0.000640638
0.000507203
0.000504729
0.000571435
0.00628451
0.00676214
0.00697935
0.00745604
0.00743383
0.00721883
0.00741685
0.00718231
0.00695027
0.00719304
0.00730342
0.00762201
0.00763695
0.00801293
0.00834986
0.00889748
0.00860425
0.00871596
0.00837525
0.00815058
0.00545254
0.00570334
0.00625344
0.00647762
0.00656613
0.00682045
0.00637388
0.00620928
0.00631253
0.00631513
0.00638753
0.0066373
0.0067473
0.00714997
0.0073793
0.0076516
0.00763366
0.00757888
0.00749712
0.00713919
0.00483324
0.00505449
0.00537154
0.00535141
0.00551328
0.00566585
0.0056438
0.00554997
0.00543295
0.00559113
0.00556224
0.00560728
0.00575922
0.00616065
0.00621312
0.00638767
0.00661204
0.00657535
0.00635269
0.00612971
0.00391019
0.00413591
0.00433078
0.00459651
0.00460389
0.00474158
0.00470459
0.00458538
0.00433671
0.00456025
0.00451576
0.00468896
0.00480642
0.00510147
0.00543564
0.00546387
0.00561059
0.00553825
0.00558671
0.0049688
0.00315479
0.00340404
0.00332329
0.00373013
0.0037494
0.00374548
0.00370758
0.00364425
0.00356678
0.00355499
0.00359245
0.00347175
0.0037923
0.00395485
0.00416087
0.00435388
0.00438214
0.00426179
0.00398355
0.00410758
0.00243576
0.00249126
0.00251637
0.00285273
0.00250863
0.00267028
0.00272614
0.00258979
0.00269374
0.00270167
0.00263297
0.00289116
0.00300003
0.00302491
0.00284598
0.00337064
0.00320757
0.00315696
0.00299043
0.00312251
0.0014498
0.00128819
0.00157683
0.00161923
0.00156082
0.00135831
0.00144488
0.0015858
0.00154864
0.00160432
0.00165105
0.00171853
0.00185967
0.00183772
0.00160469
0.00196012
0.00202364
0.00193447
0.00189702
0.0017198
0.000472651
0.000600096
0.000592828
0.000402681
0.000519461
0.000502253
0.000362962
0.000558396
0.000780294
0.000550769
0.000610909
0.000447736
0.00080755
0.000520353
0.00071567
0.000631703
0.000882982
0.000385122
0.000559964
0.000722436
0.00655015
0.0068614
0.00772511
0.00780656
0.00794144
0.00814851
0.00818554
0.0081213
0.00817848
0.00837724
0.00851746
0.00848833
0.00900942
0.00923816
0.00927504
0.00959266
0.0093017
0.00906872
0.0089525
0.00827666
0.00585311
0.00620988
0.0067051
0.00699101
0.00718981
0.00709562
0.00746663
0.00733573
0.0074421
0.00761064
0.00730976
0.00766992
0.00786158
0.00793245
0.00835252
0.00821748
0.00826553
0.00809937
0.00776517
0.00734636
0.00497842
0.00519008
0.00571086
0.00585612
0.006136
0.00641231
0.00607751
0.00630792
0.00618413
0.00632656
0.00647483
0.00652597
0.00671738
0.00702047
0.00699134
0.0072056
0.0072171
0.0071249
0.0068319
0.00650668
0.00407239
0.00447696
0.00477636
0.00498662
0.00482531
0.00530052
0.00523806
0.00507958
0.00521756
0.00517333
0.00532563
0.00541685
0.00542603
0.00569408
0.00586931
0.0061438
0.0058347
0.00582182
0.00550222
0.00534468
0.00331004
0.00346924
0.00368099
0.00387432
0.00412375
0.00410868
0.00418864
0.00399235
0.00408897
0.00452643
0.00421149
0.00451716
0.00472847
0.00449026
0.00463408
0.00466922
0.00486935
0.00467594
0.00458954
0.00429985
0.00248165
0.00248185
0.00255539
0.00297318
0.0030329
0.00287553
0.00302619
0.00310134
0.00307102
0.00312982
0.00301242
0.0030503
0.0031477
0.00316857
0.00349425
0.00353288
0.00342758
0.00339573
0.00305486
0.00306764
0.00149445
0.00150025
0.00154407
0.00174407
0.00165771
0.00171823
0.0017794
0.00214068
0.00181126
0.00181303
0.0019913
0.00209107
0.00205866
0.00205371
0.00177425
0.0020752
0.00188749
0.00209415
0.0018163
0.00178746
0.000693356
0.000505861
0.000507751
0.000445859
0.000645249
0.000534045
0.000357546
0.000657521
0.00069101
0.000973831
0.000650155
0.000411333
0.000778158
0.000695834
0.00068477
0.000589781
0.000711762
0.000798172
0.000736239
0.000856494
0.0063926
0.00718227
0.00751388
0.00809505
0.00861709
0.00878936
0.00894172
0.00905946
0.00912763
0.00924021
0.00928597
0.00943564
0.00996601
0.00979674
0.00990652
0.00972221
0.00985613
0.0094543
0.00911015
0.0085792
0.00578895
0.0061879
0.00680801
0.00722434
0.007402
0.0077784
0.00775964
0.00796872
0.00785623
0.00812666
0.00858692
0.00831877
0.00854234
0.00866385
0.00874818
0.0087268
0.00870054
0.00851136
0.00818369
0.00768501
0.00475563
0.00535246
0.00576083
0.00654224
0.00630743
0.00675294
0.00678346
0.00664935
0.00682643
0.00701372
0.00717833
0.00733513
0.00734775
0.00740819
0.00773308
0.00756226
0.00730542
0.00721322
0.00692632
0.00672344
0.00391185
0.00461535
0.00481729
0.00513412
0.00522893
0.00556109
0.00558052
0.00566035
0.00582914
0.00598202
0.00585179
0.00575538
0.00609875
0.0062439
0.0063417
0.00631177
0.00627669
0.00590263
0.00569003
0.00543416
0.00309994
0.00351886
0.0037541
0.00427312
0.00419961
0.0044201
0.00428573
0.00451921
0.00439848
0.00459811
0.00448339
0.0047445
0.00497338
0.00483513
0.00505196
0.00480638
0.004959
0.00478848
0.00454185
0.00431344
0.00250503
0.00251961
0.00290171
0.00280123
0.0031567
0.00316106
0.00338254
0.00336367
0.00334776
0.00328769
0.0033728
0.00329806
0.00362637
0.00352059
0.00378715
0.00369251
0.00353345
0.00349234
0.00306898
0.00313948
0.00154918
0.00172709
0.00164833
0.00166493
0.00181394
0.00190112
0.00193103
0.00198197
0.00208443
0.0022677
0.00199416
0.00216189
0.00213053
0.00201185
0.00216717
0.00209548
0.00218605
0.00209956
0.00180707
0.00199511
0.000286915
0.000302434
0.000433571
0.000592149
0.000511517
0.000734082
0.000660447
0.000801468
0.0010346
0.000772137
0.000602571
0.000559677
0.000819118
0.000950188
0.000738324
0.000587833
0.000640494
0.000749143
0.000633909
0.000600841
0.00616164
0.00681401
0.00773056
0.00813704
0.00868722
0.00901502
0.00908141
0.00931581
0.00949956
0.00977223
0.00984935
0.0100176
0.00997677
0.00994381
0.0101413
0.0100093
0.00980698
0.00968628
0.00888417
0.00825306
0.00525578
0.00612194
0.00672559
0.00717032
0.00756365
0.00792669
0.00808183
0.00820003
0.0082578
0.00879015
0.00855053
0.00887353
0.00897398
0.00895355
0.0087833
0.00886039
0.00876149
0.00839999
0.00781489
0.0072481
0.00478561
0.00507288
0.00582151
0.00623024
0.00643965
0.00691447
0.0070383
0.00716637
0.00713028
0.00726634
0.00736722
0.00751374
0.00748328
0.00782683
0.00788844
0.00777185
0.00752732
0.00721373
0.00692926
0.00645962
0.00378222
0.00409018
0.0046455
0.00512955
0.00542999
0.00596761
0.0058163
0.0059396
0.00611035
0.00616306
0.00612047
0.00636768
0.00627573
0.00640522
0.00645998
0.0065575
0.00632119
0.00602758
0.00550968
0.00526577
0.00311591
0.00362858
0.00366432
0.0039543
0.00417751
0.00452611
0.0046182
0.0047168
0.00495081
0.00456134
0.00499558
0.00509259
0.00500919
0.00521668
0.0051403
0.00511141
0.00485462
0.00459599
0.00427707
0.00420856
0.00214696
0.00246086
0.00261287
0.00269753
0.00311592
0.00339619
0.00335312
0.00353601
0.00337539
0.0035153
0.00352353
0.0035197
0.00361609
0.00342609
0.00380749
0.00363027
0.0035691
0.00353307
0.00336463
0.00296364
0.00140322
0.00137142
0.0016651
0.00193628
0.00194486
0.00222844
0.00199674
0.00202814
0.00204001
0.00193011
0.00218527
0.00207468
0.00211758
0.00225302
0.00225888
0.00224012
0.00222801
0.0021148
0.00193159
0.00191874
0.000372729
6.65383e-05
0.000588721
0.000525661
0.00065628
0.000646755
0.00053975
0.000551012
0.000745141
0.000647682
0.00104128
0.000705727
0.000548502
0.00101631
0.000939603
0.0006534
0.000792761
0.000456713
0.000743571
0.000821939
0.00519084
0.00588427
0.00704225
0.0078808
0.00827253
0.00882219
0.00917208
0.00931375
0.00968562
0.0096586
0.00995567
0.00998141
0.0100849
0.0102834
0.0099827
0.00994374
0.00935156
0.00896885
0.00828206
0.0075416
0.00468385
0.00528819
0.00638333
0.00698212
0.00728298
0.00789162
0.00792119
0.00838796
0.00866336
0.00859439
0.00873104
0.00883213
0.0089364
0.0089441
0.00873694
0.00867996
0.00833593
0.00790509
0.00753312
0.00685547
0.00393605
0.00459892
0.00542375
0.00597761
0.00630543
0.00692094
0.00681182
0.00701349
0.00734511
0.0074025
0.00771118
0.00768414
0.00763418
0.00758116
0.00759767
0.00750294
0.00721509
0.00682342
0.0063141
0.00578733
0.00327933
0.00392196
0.00448932
0.00493602
0.00526442
0.00539087
0.0058918
0.00593762
0.00601766
0.00629766
0.00631439
0.00644782
0.00640565
0.00637632
0.00640082
0.00591181
0.0060809
0.00582114
0.00526153
0.00478541
0.00271549
0.00316258
0.00348932
0.0040505
0.00420883
0.00458328
0.00465597
0.00478424
0.00485288
0.00510823
0.00509881
0.00514856
0.00497526
0.00495965
0.00517794
0.00510659
0.00492495
0.00454961
0.00422563
0.00402997
0.00196628
0.00237527
0.00248118
0.0028912
0.00302986
0.0031084
0.00328669
0.00337407
0.00340013
0.00356063
0.00402316
0.00359408
0.00380875
0.0036266
0.00369774
0.00351865
0.00347412
0.00347736
0.00294022
0.00284068
0.00124715
0.00136955
0.00148901
0.00167288
0.00194458
0.00164963
0.00200837
0.00198813
0.00203912
0.00220906
0.00209992
0.0024568
0.00219224
0.00197815
0.00225953
0.00216758
0.00219452
0.00201116
0.00187066
0.00166068
0.000406128
0.000826447
0.000725907
0.000298274
0.000532871
0.000797304
0.000842621
0.000587166
0.000718727
0.000691371
0.000734282
0.000712219
0.0008461
0.000832331
0.000746856
0.000642398
0.000739862
0.000669055
0.000815506
0.000351653
0.00411262
0.00527308
0.00616191
0.00697616
0.00777532
0.00828029
0.00875835
0.00907632
0.00943735
0.00950858
0.0097083
0.00966732
0.00989515
0.00961972
0.00962976
0.00935856
0.0087585
0.00792798
0.00724302
0.00630113
0.00383714
0.00462212
0.00543214
0.00598495
0.00680917
0.00741017
0.00769832
0.00821201
0.00814099
0.0084118
0.00846578
0.0084821
0.00881681
0.00855362
0.00860724
0.0080783
0.00768708
0.00727187
0.00650801
0.00572892
0.00321335
0.0039225
0.00462169
0.00532826
0.00592371
0.00622539
0.00644117
0.0070185
0.0069217
0.00719961
0.00733685
0.00761061
0.00744555
0.00744342
0.00724792
0.00681104
0.00691298
0.00614321
0.00567124
0.00510948
0.00284328
0.00329212
0.00413644
0.00412305
0.00472928
0.00522418
0.00550952
0.00581301
0.00606869
0.00593521
0.00588555
0.00615593
0.00620091
0.00605089
0.00595633
0.00604096
0.00566007
0.00530273
0.00489415
0.00443231
0.00232834
0.00263771
0.00292434
0.00341324
0.00377771
0.00399049
0.00444186
0.00432006
0.00468922
0.00465803
0.00500647
0.00489838
0.00470708
0.00491854
0.00494711
0.00464026
0.00449462
0.0040645
0.00401816
0.00341964
0.00125953
0.00171829
0.00222495
0.00254215
0.00290391
0.00278559
0.00302457
0.00337423
0.00330915
0.00352689
0.0036609
0.00354677
0.00357922
0.00340589
0.00340388
0.00349368
0.00331552
0.00307554
0.00274557
0.00253137
0.000946107
0.00109218
0.00146436
0.00158563
0.00184966
0.00187167
0.00197535
0.00181173
0.00212882
0.00220922
0.00221959
0.00237005
0.00199736
0.00225937
0.0021655
0.00222223
0.00183807
0.00169798
0.00170946
0.00143895
0.000429396
0.000288106
0.000413508
0.000646441
0.000659564
0.000676525
0.000769357
0.00065316
0.000627077
0.000593214
0.000817214
0.000927444
0.000556669
0.000667387
0.000686752
0.000739861
0.000863075
0.00062583
0.000340552
0.00045194
0.00262125
0.00376202
0.0048941
0.00577569
0.00663716
0.00719299
0.00777514
0.00821139
0.00860278
0.00890132
0.00878531
0.00922458
0.00886777
0.00897632
0.00866561
0.00818038
0.00749587
0.00683431
0.00616289
0.0051821
0.00252231
0.00322156
0.00444199
0.0052862
0.00582863
0.00662158
0.00693964
0.00729887
0.00751728
0.00809313
0.00778663
0.00816927
0.00776722
0.00793093
0.00767641
0.0072423
0.00703732
0.00622533
0.00543444
0.00466349
0.00217976
0.00295708
0.00377661
0.0045141
0.00518775
0.00537715
0.00623648
0.00619578
0.00651891
0.00680066
0.00684763
0.00696585
0.00689175
0.00668844
0.00673058
0.00639472
0.00599651
0.00534046
0.00471132
0.00408516
0.00179103
0.00253089
0.00317247
0.00374148
0.00413867
0.00448624
0.00513784