/*--------------------------------*- C++ -*----------------------------------*\
| =========                 |                                                 |
| \\      /  F ield         | OpenFOAM: The Open Source CFD Toolbox           |
|  \\    /   O peration     | Version:  2212                                  |
|   \\  /    A nd           | Website:  www.openfoam.com                      |
|    \\/     M anipulation  |                                                 |
\*---------------------------------------------------------------------------*/
FoamFile
{
    version     2.0;
    format      ascii;
    arch        "LSB;label=32;scalar=64";
    class       volScalarField;
    location    "0";
    object      T;
}
// * * * * * * * * * * * * * * * * * * * * * * * * * * * * * * * * * * * * * //

dimensions      [0 0 0 1 0 0 0];

internalField   nonuniform List<scalar> 
3200
(
351.791
350.049
348.947
348.48
348.739
349.278
350.024
350.594
351.338
351.606
351.754
351.644
351.241
350.558
349.782
349.105
348.894
349.125
350.023
351.405
344.747
343.292
342.385
342.001
342.198
342.669
343.329
343.831
344.495
344.728
344.866
344.748
344.382
343.812
343.105
342.518
342.348
342.536
343.298
344.436
337.764
336.57
335.842
335.55
335.695
336.079
336.642
337.075
337.63
337.861
337.972
337.88
337.524
337.047
336.45
335.952
335.785
335.968
336.596
337.511
330.828
329.867
329.31
329.068
329.2
329.492
329.962
330.295
330.767
330.997
331.049
331.009
330.678
330.294
329.815
329.394
329.261
329.388
329.895
330.624
323.945
323.191
322.781
322.605
322.705
322.916
323.305
323.531
323.915
324.126
324.146
324.118
323.855
323.571
323.187
322.844
322.729
322.847
323.217
323.775
317.091
316.547
316.284
316.15
316.203
316.347
316.655
316.792
317.075
317.248
317.252
317.233
317.052
316.822
316.577
316.31
316.221
316.314
316.58
316.966
310.258
309.932
309.784
309.702
309.717
309.806
310.007
310.095
310.251
310.371
310.369
310.355
310.258
310.104
309.962
309.796
309.752
309.781
309.954
310.168
303.445
303.325
303.28
303.249
303.258
303.286
303.339
303.38
303.427
303.476
303.478
303.465
303.437
303.374
303.34
303.286
303.273
303.286
303.329
303.406
351.996
350.407
349.298
348.868
349.144
349.66
350.369
351.233
351.958
352.313
352.456
352.231
351.834
351.097
350.184
349.489
349.158
349.393
350.452
351.801
344.916
343.616
342.666
342.316
342.584
343.013
343.64
344.384
345.01
345.299
345.421
345.206
344.904
344.26
343.453
342.86
342.556
342.784
343.672
344.76
337.898
336.862
336.062
335.768
336.017
336.385
336.92
337.54
338.075
338.3
338.397
338.214
337.979
337.421
336.748
336.248
335.983
336.186
336.901
337.787
330.956
330.12
329.47
329.261
329.448
329.751
330.2
330.719
331.142
331.304
331.399
331.232
331.039
330.594
330.043
329.647
329.423
329.61
330.15
330.853
324.032
323.404
322.911
322.763
322.888
323.119
323.47
323.893
324.203
324.333
324.41
324.289
324.127
323.777
323.366
323.034
322.865
323.038
323.423
323.972
317.143
316.721
316.371
316.26
316.354
316.511
316.766
317.061
317.287
317.38
317.447
317.351
317.234
316.983
316.677
316.446
316.321
316.475
316.712
317.123
310.289
310.046
309.838
309.763
309.829
309.914
310.073
310.25
310.373
310.441
310.48
310.425
310.34
310.205
309.998
309.867
309.793
309.903
310.036
310.275
303.456
303.369
303.29
303.268
303.294
303.327
303.381
303.45
303.486
303.512
303.51
303.495
303.464
303.432
303.351
303.312
303.283
303.315
303.372
303.435
352.505
351.054
349.86
349.482
349.722
350.475
351.202
352.139
352.936
353.44
353.47
353.19
352.743
351.98
351.031
350.25
349.913
350.105
351.087
352.446
345.367
344.151
343.183
342.85
343.041
343.701
344.347
345.152
345.843
346.277
346.297
346.029
345.674
345.01
344.197
343.516
343.222
343.391
344.223
345.358
338.291
337.294
336.538
336.218
336.395
336.954
337.519
338.183
338.748
339.131
339.138
338.905
338.635
338.066
337.38
336.802
336.548
336.686
337.373
338.31
331.259
330.489
329.887
329.613
329.764
330.213
330.687
331.224
331.693
331.99
331.985
331.815
331.581
331.139
330.56
330.102
329.876
330.014
330.54
331.31
324.275
323.709
323.232
323.026
323.145
323.475
323.874
324.283
324.619
324.868
324.848
324.731
324.543
324.212
323.758
323.415
323.208
323.359
323.718
324.341
317.342
316.946
316.595
316.463
316.52
316.756
317.061
317.357
317.558
317.772
317.744
317.662
317.519
317.279
316.966
316.714
316.575
316.685
316.906
317.38
310.405
310.187
309.983
309.89
309.919
310.06
310.247
310.423
310.522
310.663
310.641
310.604
310.505
310.367
310.173
310.042
309.949
310.029
310.154
310.443
303.48
303.42
303.348
303.32
303.318
303.369
303.43
303.498
303.525
303.569
303.558
303.545
303.52
303.47
303.401
303.372
303.344
303.365
303.396
303.498
353.251
351.883
350.83
350.442
350.749
351.5
352.299
353.284
354.04
354.665
354.845
354.512
354.038
353.199
352.287
351.474
350.926
351.156
352.099
353.376
346.004
344.91
343.999
343.671
343.933
344.601
345.283
346.135
346.792
347.354
347.478
347.169
346.777
346.054
345.264
344.567
344.106
344.3
345.11
346.169
338.821
337.952
337.201
336.923
337.14
337.691
338.289
339.004
339.561
340.054
340.126
339.879
339.528
338.926
338.262
337.695
337.29
337.432
338.123
338.98
331.67
331.023
330.432
330.203
330.379
330.798
331.33
331.878
332.327
332.753
332.805
332.62
332.297
331.833
331.287
330.841
330.48
330.601
331.168
331.832
324.578
324.127
323.654
323.461
323.643
323.954
324.381
324.767
325.146
325.467
325.502
325.357
325.107
324.747
324.316
323.975
323.709
323.791
324.22
324.738
317.541
317.226
316.887
316.757
316.906
317.118
317.435
317.674
317.964
318.209
318.236
318.1
317.939
317.671
317.344
317.121
316.943
316.997
317.286
317.673
310.523
310.36
310.13
310.056
310.16
310.272
310.479
310.617
310.768
310.95
310.96
310.867
310.784
310.621
310.413
310.277
310.182
310.214
310.368
310.604
303.527
303.466
303.394
303.362
303.397
303.45
303.514
303.552
303.603
303.678
303.671
303.646
303.613
303.557
303.493
303.433
303.414
303.418
303.476
303.554
354.291
352.963
351.954
351.796
352.048
352.613
353.685
354.556
355.374
356.011
356.356
356.046
355.535
354.605
353.637
352.926
352.33
352.37
353.235
354.476
346.909
345.827
344.99
344.845
345.072
345.553
346.486
347.215
347.948
348.498
348.803
348.523
348.087
347.261
346.451
345.819
345.302
345.343
346.075
347.114
339.575
338.742
338.051
337.896
338.115
338.525
339.29
339.92
340.547
341.008
341.277
341.025
340.652
339.974
339.292
338.738
338.281
338.346
338.928
339.786
332.288
331.686
331.109
330.981
331.166
331.518
332.141
332.652
333.154
333.543
333.771
333.55
333.226
332.707
332.147
331.673
331.31
331.352
331.847
332.498
325.081
324.647
324.175
324.107
324.236
324.522
325.005
325.385
325.758
326.086
326.263
326.081
325.813
325.421
324.998
324.622
324.357
324.365
324.765
325.241
317.902
317.593
317.249
317.236
317.32
317.531
317.869
318.14
318.387
318.635
318.762
318.624
318.43
318.153
317.865
317.58
317.415
317.376
317.679
318.017
310.754
310.582
310.358
310.357
310.413
310.534
310.734
310.917
311.007
311.182
311.258
311.193
311.066
310.899
310.748
310.551
310.444
310.415
310.61
310.845
303.602
303.552
303.471
303.472
303.487
303.529
303.6
303.667
303.684
303.749
303.774
303.753
303.712
303.651
303.598
303.546
303.501
303.485
303.559
303.63
355.717
354.435
353.485
353.221
353.523
354.123
355.089
356.11
356.885
357.632
357.989
357.685
357.094
356.204
355.323
354.485
353.89
353.938
354.754
355.828
348.156
347.096
346.299
346.078
346.322
346.871
347.693
348.612
349.253
349.911
350.228
349.95
349.419
348.651
347.919
347.182
346.687
346.681
347.404
348.277
340.664
339.806
339.164
338.982
339.15
339.631
340.337
341.127
341.645
342.208
342.495
342.247
341.75
341.13
340.532
339.921
339.474
339.453
340.069
340.773
333.216
332.547
332.019
331.895
332.017
332.413
332.991
333.624
334.066
334.531
334.771
334.574
334.132
333.646
333.164
332.656
332.264
332.252
332.753
333.297
325.796
325.318
324.882
324.799
324.913
325.2
325.645
326.158
326.516
326.867
327.055
326.895
326.523
326.188
325.801
325.395
325.116
325.07
325.44
325.861
318.43
318.092
317.771
317.717
317.784
318.022
318.327
318.702
318.967
319.206
319.344
319.219
318.948
318.705
318.413
318.148
317.937
317.889
318.17
318.47
311.084
310.864
310.665
310.643
310.687
310.837
310.992
311.238
311.406
311.524
311.61
311.534
311.38
311.224
311.067
310.895
310.765
310.74
310.923
311.067
303.706
303.638
303.567
303.577
303.585
303.633
303.681
303.763
303.825
303.859
303.887
303.861
303.816
303.75
303.722
303.654
303.614
303.603
303.657
303.703
357.372
356.124
355.197
354.902
355.09
355.756
356.643
357.635
358.46
359.314
359.609
359.422
358.808
357.943
356.983
356.118
355.609
355.668
356.555
357.564
349.59
348.56
347.785
347.535
347.701
348.276
349.03
349.896
350.605
351.365
351.612
351.454
350.907
350.176
349.367
348.577
348.164
348.216
348.975
349.792
341.878
341.042
340.396
340.207
340.329
340.832
341.441
342.201
342.786
343.454
343.633
343.513
343.03
342.412
341.756
341.082
340.731
340.778
341.396
342.06
334.198
333.558
333.001
332.897
332.979
333.409
333.882
334.525
334.98
335.549
335.704
335.589
335.183
334.695
334.16
333.603
333.292
333.344
333.854
334.361
326.56
326.088
325.63
325.59
325.639
325.982
326.338
326.849
327.169
327.64
327.776
327.689
327.34
326.996
326.563
326.121
325.866
325.925
326.329
326.703
318.966
318.638
318.305
318.269
318.318
318.555
318.832
319.198
319.392
319.74
319.843
319.799
319.517
319.277
318.984
318.65
318.467
318.507
318.81
319.06
311.379
311.179
310.998
310.953
311.006
311.136
311.323
311.538
311.629
311.861
311.922
311.904
311.716
311.561
311.401
311.205
311.086
311.126
311.306
311.443
303.808
303.736
303.695
303.674
303.696
303.733
303.803
303.865
303.9
303.981
303.995
304.003
303.923
303.874
303.824
303.765
303.705
303.728
303.786
303.837
359.141
357.936
357.018
356.681
356.914
357.478
358.342
359.326
360.212
360.991
361.219
361.072
360.558
359.74
358.732
357.877
357.461
357.506
358.268
359.34
351.143
350.12
349.347
349.073
349.277
349.746
350.494
351.37
352.121
352.796
352.966
352.875
352.455
351.729
350.839
350.096
349.767
349.782
350.44
351.309
343.202
342.357
341.706
341.494
341.659
342.062
342.692
343.427
344.071
344.615
344.765
344.709
344.354
343.739
342.982
342.35
342.072
342.083
342.632
343.33
335.295
334.637
334.059
333.938
334.064
334.385
334.915
335.517
336.047
336.458
336.596
336.573
336.277
335.767
335.141
334.62
334.39
334.403
334.866
335.378
327.425
326.932
326.449
326.39
326.473
326.722
327.162
327.629
328.038
328.351
328.441
328.449
328.204
327.821
327.309
326.919
326.744
326.749
327.115
327.489
319.588
319.228
318.867
318.859
318.895
319.09
319.415
319.743
320.02
320.248
320.311
320.33
320.141
319.886
319.515
319.224
319.103
319.101
319.381
319.625
311.773
311.542
311.321
311.331
311.336
311.481
311.675
311.856
312.019
312.155
312.165
312.221
312.08
311.933
311.718
311.552
311.458
311.475
311.645
311.781
303.939
303.868
303.795
303.797
303.804
303.859
303.919
303.977
304.032
304.067
304.066
304.098
304.046
303.997
303.929
303.877
303.847
303.858
303.899
303.938
361.078
359.887
359.037
358.522
358.854
359.23
360.16
361.062
361.942
362.716
363.177
362.879
362.39
361.565
360.622
359.807
359.467
359.446
360.197
361.208
352.786
351.812
351.086
350.67
350.968
351.302
352.073
352.841
353.627
354.299
354.647
354.421
354.024
353.319
352.494
351.785
351.488
351.466
352.112
352.918
344.568
343.781
343.175
342.851
343.084
343.391
344.003
344.661
345.328
345.892
346.17
345.992
345.681
345.111
344.363
343.783
343.515
343.5
344.033
344.686
336.38
335.794
335.301
335.029
335.243
335.506
335.975
336.537
337.054
337.519
337.742
337.587
337.341
336.909
336.253
335.785
335.579
335.567
335.991
336.512
328.242
327.847
327.425
327.255
327.41
327.622
327.977
328.423
328.81
329.168
329.34
329.201
329.042
328.702
328.2
327.808
327.65
327.658
327.976
328.362
320.155
319.903
319.58
319.488
319.592
319.742
319.986
320.299
320.581
320.838
320.949
320.838
320.752
320.519
320.157
319.842
319.752
319.761
319.985
320.231
312.11
311.965
311.755
311.71
311.773
311.876
311.989
312.183
312.373
312.49
312.584
312.505
312.456
312.32
312.107
311.917
311.879
311.894
311.983
312.137
304.068
304.006
303.944
303.931
303.945
303.997
304.023
304.078
304.16
304.169
304.212
304.194
304.17
304.138
304.063
304.001
303.988
303.99
304.011
304.072
363.135
361.956
361.009
360.503
360.715
361.148
361.905
362.808
363.643
364.463
364.911
364.781
364.277
363.448
362.472
361.759
361.379
361.514
362.148
363.148
354.565
353.599
352.781
352.37
352.557
352.933
353.581
354.354
355.084
355.805
356.174
356.087
355.638
354.948
354.081
353.473
353.132
353.26
353.795
354.626
346.068
345.304
344.601
344.277
344.455
344.733
345.286
345.954
346.57
347.153
347.494
347.438
347.019
346.447
345.72
345.223
344.902
345.012
345.474
346.138
337.622
337.018
336.47
336.199
336.381
336.557
337.036
337.589
338.053
338.559
338.839
338.801
338.447
337.961
337.352
336.981
336.704
336.808
337.182
337.711
329.21
328.773
328.343
328.145
328.298
328.413
328.791
329.234
329.589
329.948
330.214
330.19
329.901
329.518
329.022
328.749
328.522
328.602
328.898
329.3
320.833
320.555
320.249
320.107
320.227
320.286
320.557
320.903
321.133
321.386
321.588
321.559
321.352
321.075
320.731
320.518
320.369
320.413
320.632
320.913
312.501
312.351
312.167
312.073
312.15
312.186
312.331
312.561
312.684
312.834
312.966
312.952
312.81
312.66
312.436
312.32
312.249
312.259
312.384
312.556
304.183
304.137
304.078
304.041
304.081
304.089
304.134
304.205
304.247
304.3
304.355
304.338
304.298
304.246
304.169
304.13
304.104
304.121
304.153
304.221
365.177
364.007
363.163
362.6
362.688
363.048
363.685
364.668
365.459
366.092
366.567
366.418
365.941
365.224
364.341
363.724
363.405
363.407
364.076
365.07
356.336
355.377
354.64
354.189
354.292
354.567
355.12
355.985
356.658
357.188
357.616
357.506
357.078
356.464
355.722
355.176
354.891
354.875
355.455
356.25
347.541
346.812
346.174
345.787
345.912
346.14
346.592
347.294
347.875
348.337
348.715
348.618
348.258
347.726
347.124
346.666
346.399
346.384
346.887
347.494
338.801
338.262
337.739
337.395
337.563
337.705
338.096
338.657
339.131
339.509
339.84
339.763
339.461
339.014
338.525
338.155
337.932
337.948
338.34
338.784
330.118
329.719
329.337
329.059
329.215
329.29
329.618
330.046
330.426
330.722
330.987
330.919
330.709
330.324
329.961
329.677
329.477
329.509
329.823
330.14
321.481
321.19
320.959
320.781
320.883
320.918
321.158
321.444
321.73
321.936
322.135
322.094
321.926
321.658
321.412
321.197
321.043
321.078
321.318
321.525
312.874
312.724
312.581
312.499
312.549
312.558
312.716
312.874
313.048
313.166
313.28
313.252
313.175
313.014
312.877
312.728
312.636
312.66
312.813
312.935
304.315
304.258
304.207
304.197
304.21
304.199
304.259
304.314
304.378
304.415
304.448
304.44
304.42
304.364
304.324
304.261
304.245
304.248
304.302
304.335
367.085
366.06
365.322
364.72
364.722
365.094
365.591
366.397
367.183
367.773
368.244
368.014
367.678
366.845
366.175
365.628
365.502
365.572
366.214
367.166
357.974
357.135
356.529
356.019
356.044
356.33
356.774
357.463
358.155
358.665
359.072
358.884
358.575
357.888
357.305
356.838
356.719
356.775
357.271
358.076
348.935
348.283
347.773
347.358
347.395
347.603
347.996
348.556
349.147
349.589
349.92
349.77
349.509
348.943
348.449
348.051
347.952
347.983
348.391
349.038
339.966
339.463
339.054
338.694
338.771
338.926
339.242
339.658
340.187
340.527
340.804
340.675
340.48
340.014
339.62
339.284
339.209
339.236
339.546
340.065
331.019
330.683
330.36
330.072
330.15
330.268
330.496
330.804
331.246
331.508
331.719
331.608
331.482
331.119
330.814
330.527
330.488
330.501
330.732
331.133
322.14
321.916
321.667
321.487
321.529
321.612
321.782
321.991
322.328
322.526
322.653
322.589
322.486
322.243
322.015
321.812
321.761
321.785
321.954
322.232
313.292
313.151
312.982
312.917
312.919
312.978
313.073
313.206
313.408
313.532
313.604
313.569
313.49
313.354
313.225
313.104
313.053
313.071
313.174
313.328
304.451
304.4
304.344
304.337
304.325
304.349
304.37
304.418
304.498
304.538
304.564
304.551
304.521
304.468
304.425
304.399
304.371
304.393
304.417
304.458
369.224
368.202
367.487
366.795
366.724
366.98
367.498
367.958
368.819
369.503
369.698
369.55
369.274
368.673
368.11
367.611
367.402
367.611
368.183
369.154
359.832
359.006
358.404
357.783
357.742
357.988
358.404
358.795
359.571
360.165
360.323
360.194
359.99
359.439
358.964
358.52
358.347
358.521
358.987
359.824
350.533
349.876
349.332
348.827
348.811
349.027
349.335
349.678
350.375
350.877
350.969
350.889
350.706
350.245
349.854
349.484
349.326
349.474
349.84
350.537
341.252
340.792
340.3
339.892
339.908
340.088
340.333
340.632
341.192
341.597
341.64
341.602
341.438
341.091
340.771
340.455
340.339
340.457
340.755
341.317
332.038
331.719
331.325
330.997
331.023
331.188
331.364
331.584
332.021
332.353
332.374
332.335
332.217
331.968
331.706
331.463
331.362
331.452
331.703
332.123
322.85
322.662
322.354
322.14
322.156
322.263
322.414
322.551
322.857
323.091
323.104
323.109
323.001
322.824
322.63
322.479
322.408
322.472
322.674
322.976
313.706
313.604
313.414
313.289
313.318
313.358
313.46
313.545
313.723
313.852
313.877
313.905
313.815
313.722
313.594
313.5
313.447
313.497
313.64
313.819
304.596
304.569
304.492
304.455
304.468
304.474
304.509
304.541
304.613
304.639
304.651
304.655
304.634
304.593
304.565
304.528
304.506
304.531
304.576
304.639
371.324
370.319
369.452
368.865
368.782
368.869
369.409
369.864
370.483
371.065
371.257
371.165
370.945
370.463
369.895
369.624
369.501
369.706
370.34
371.371
361.642
360.834
360.076
359.599
359.525
359.611
360.075
360.453
360.994
361.52
361.664
361.579
361.428
360.993
360.52
360.251
360.178
360.345
360.869
361.748
352.043
351.401
350.749
350.369
350.301
350.398
350.766
351.072
351.556
352
352.127
352.041
351.948
351.551
351.171
350.926
350.889
351.013
351.439
352.17
342.496
342.024
341.479
341.158
341.128
341.214
341.505
341.736
342.156
342.51
342.619
342.552
342.452
342.134
341.837
341.653
341.615
341.699
342.061
342.63
333.008
332.669
332.241
331.991
331.977
332.057
332.295
332.441
332.779
333.056
333.131
333.066
333.007
332.726
332.529
332.395
332.333
332.413
332.706
333.12
323.553
323.329
323.029
322.843
322.824
322.921
323.074
323.164
323.411
323.601
323.672
323.595
323.58
323.348
323.221
323.128
323.088
323.158
323.344
323.649
314.138
313.997
313.829
313.715
313.685
313.765
313.857
313.895
314.061
314.161
314.225
314.157
314.139
314.004
313.936
313.876
313.845
313.911
314.013
314.202
304.727
304.696
304.635
304.594
304.581
304.606
304.652
304.651
304.712
304.747
304.771
304.737
304.737
304.689
304.666
304.651
304.646
304.666
304.698
304.763
373.553
372.448
371.524
370.879
370.721
370.854
371.276
371.653
372.16
372.585
372.749
372.839
372.572
372.13
371.698
371.398
371.442
371.718
372.334
373.339
363.584
362.672
361.871
361.304
361.203
361.316
361.678
362.012
362.452
362.851
362.968
363.04
362.823
362.432
362.06
361.828
361.857
362.089
362.577
363.427
353.687
352.942
352.281
351.81
351.724
351.83
352.102
352.412
352.778
353.129
353.219
353.276
353.112
352.746
352.44
352.285
352.29
352.477
352.898
353.582
343.832
343.275
342.73
342.343
342.291
342.362
342.567
342.835
343.128
343.426
343.514
343.568
343.428
343.096
342.866
342.762
342.761
342.905
343.285
343.773
334.037
333.623
333.203
332.912
332.874
332.943
333.085
333.291
333.522
333.756
333.846
333.859
333.756
333.492
333.322
333.252
333.243
333.37
333.69
333.999
324.288
324.004
323.711
323.497
323.487
323.524
323.623
323.788
323.947
324.112
324.188
324.172
324.132
323.918
323.797
323.739
323.73
323.838
324.084
324.264
314.584
314.414
314.243
314.094
314.101
314.11
314.19
314.281
314.362
314.479
314.512
314.506
314.502
314.346
314.301
314.254
314.219
314.302
314.465
314.578
304.895
304.831
304.779
304.71
304.727
304.723
304.761
304.794
304.808
304.855
304.87
304.855
304.856
304.805
304.794
304.778
304.756
304.795
304.853
304.888
375.758
374.559
373.602
372.934
372.762
372.834
373.176
373.415
373.864
374.151
374.328
374.349
374.082
373.764
373.508
373.257
373.374
373.769
374.475
375.457
365.498
364.462
363.654
363.083
362.963
363.024
363.326
363.513
363.902
364.177
364.339
364.355
364.124
363.826
363.628
363.412
363.523
363.858
364.464
365.282
355.298
354.432
353.775
353.301
353.205
353.277
353.504
353.658
353.979
354.234
354.382
354.399
354.194
353.911
353.778
353.626
353.719
353.985
354.487
355.162
345.169
344.476
343.969
343.558
343.486
343.54
343.732
343.852
344.094
344.32
344.445
344.461
344.3
344.059
343.947
343.851
343.919
344.134
344.543
345.053
335.095
334.554
334.167
333.834
333.811
333.845
334.006
334.079
334.254
334.447
334.557
334.553
334.451
334.243
334.153
334.093
334.148
334.309
334.621
334.991
325.047
324.655
324.418
324.144
324.153
324.171
324.288
324.348
324.454
324.605
324.697
324.683
324.609
324.46
324.397
324.34
324.395
324.519
324.708
324.977
315.044
314.791
314.65
314.476
314.51
314.508
314.598
314.62
314.66
314.785
314.835
314.83
314.793
314.695
314.638
314.613
314.656
314.715
314.83
314.989
305.049
304.958
304.91
304.846
304.853
304.868
304.891
304.89
304.915
304.959
304.98
304.976
304.957
304.912
304.897
304.898
304.91
304.939
304.967
305.023
378.014
376.884
375.808
375.14
374.902
374.849
374.911
375.263
375.607
375.743
375.886
375.953
375.73
375.447
375.346
375.169
375.358
375.693
376.486
377.442
367.443
366.508
365.552
364.993
364.804
364.771
364.827
365.124
365.443
365.563
365.69
365.742
365.513
365.305
365.216
365.051
365.218
365.498
366.182
366.974
356.961
356.199
355.387
354.889
354.761
354.729
354.805
355.041
355.311
355.427
355.534
355.558
355.349
355.188
355.142
354.963
355.104
355.372
355.92
356.581
346.549
345.931
345.265
344.848
344.744
344.729
344.814
345
345.223
345.309
345.398
345.394
345.231
345.105
345.086
344.938
345.049
345.274
345.723
346.233
336.191
335.714
335.201
334.845
334.779
334.76
334.853
334.964
335.173
335.194
335.293
335.295
335.17
335.066
335.055
334.951
335.025
335.179
335.551
335.919
325.843
325.509
325.143
324.873
324.825
324.82
324.891
324.959
325.131
325.124
325.203
325.196
325.121
325.052
325.052
324.973
325.03
325.113
325.394
325.651
315.517
315.299
315.095
314.924
314.903
314.891
314.951
314.987
315.089
315.086
315.138
315.116
315.089
315.042
315.052
315.013
315.027
315.077
315.266
315.405
305.198
305.122
305.049
305.003
304.996
304.987
305.012
305.024
305.052
305.054
305.074
305.065
305.05
305.045
305.037
305.031
305.035
305.057
305.119
305.162
380.149
378.955
377.932
377.297
376.845
376.854
376.81
376.932
377.126
377.281
377.492
377.486
377.329
377.176
377.114
377.074
377.362
377.677
378.518
379.486
369.304
368.299
367.393
366.874
366.472
366.491
366.442
366.551
366.726
366.857
367.079
367.046
366.915
366.767
366.745
366.721
366.92
367.224
367.913
368.732
358.544
357.698
356.919
356.495
356.132
356.191
356.127
356.235
356.387
356.475
356.696
356.663
356.528
356.413
356.392
356.394
356.54
356.819
357.364
358.05
347.814
347.139
346.489
346.14
345.869
345.919
345.855
345.972
346.1
346.172
346.351
346.322
346.213
346.079
346.105
346.113
346.213
346.445
346.873
347.431
337.117
336.636
336.123
335.83
335.656
335.684
335.636
335.747
335.84
335.911
336.025
336
335.896
335.779
335.855
335.866
335.892
336.088
336.419
336.874
326.482
326.161
325.785
325.576
325.46
325.486
325.434
325.541
325.602
325.648
325.724
325.706
325.598
325.533
325.611
325.628
325.605
325.794
326.021
326.341
315.901
315.704
315.47
315.339
315.28
315.312
315.26
315.334
315.367
315.4
315.445
315.424
315.348
315.317
315.383
315.396
315.35
315.473
315.624
315.8
305.33
305.268
305.186
305.142
305.121
305.134
305.115
305.131
305.14
305.152
305.17
305.167
305.142
305.138
305.154
305.163
305.141
305.186
305.236
305.285
381.99
380.859
379.809
379.098
378.705
378.59
378.446
378.373
378.803
378.819
378.953
379.026
378.803
378.741
378.747
378.829
379.122
379.518
380.357
381.43
370.841
369.894
369
368.399
368.016
367.965
367.833
367.764
368.172
368.193
368.306
368.35
368.147
368.103
368.114
368.178
368.424
368.772
369.479
370.392
359.771
359.018
358.262
357.775
357.436
357.397
357.285
357.24
357.609
357.598
357.689
357.737
357.525
357.521
357.537
357.589
357.786
358.086
358.664
359.453
348.774
348.187
347.588
347.197
346.907
346.882
346.795
346.765
347.092
347.059
347.127
347.175
346.994
346.968
347.022
347.043
347.197
347.445
347.925
348.566
337.869
337.418
336.979
336.67
336.428
336.414
336.341
336.344
336.614
336.565
336.621
336.634
336.512
336.479
336.549
336.552
336.677
336.857
337.247
337.729
327.025
326.712
326.429
326.195
325.996
325.975
325.925
325.947
326.171
326.103
326.131
326.141
326.052
326.043
326.082
326.105
326.164
326.296
326.6
326.936
316.208
316.034
315.864
315.723
315.596
315.586
315.551
315.575
315.704
315.674
315.672
315.691
315.637
315.62
315.646
315.668
315.696
315.789
315.969
316.171
305.423
305.374
305.31
305.258
305.224
305.223
305.211
305.215
305.259
305.253
305.246
305.253
305.23
305.237
305.236
305.246
305.263
305.3
305.356
305.412
383.276
382.202
381.277
380.491
380.079
379.922
379.741
379.663
379.93
379.891
380.095
380.1
380
380.074
380.113
380.099
380.438
380.989
381.803
382.793
371.867
370.99
370.203
369.541
369.168
369.05
368.909
368.836
369.071
369.06
369.22
369.252
369.121
369.219
369.251
369.234
369.527
369.964
370.658
371.514
360.587
359.881
359.226
358.665
358.362
358.257
358.174
358.109
358.307
358.297
358.43
358.47
358.359
358.428
358.47
358.452
358.694
359.045
359.63
360.344
349.445
348.862
348.31
347.865
347.645
347.569
347.515
347.439
347.639
347.608
347.716
347.748
347.679
347.694
347.767
347.743
347.934
348.185
348.697
349.258
338.377
337.919
337.519
337.159
337.003
336.938
336.916
336.842
336.997
336.977
337.071
337.092
337.043
337.017
337.101
337.09
337.254
337.397
337.827
338.246
327.412
327.053
326.774
326.508
326.399
326.359
326.376
326.294
326.412
326.398
326.472
326.472
326.441
326.415
326.479
326.481
326.601
326.684
327.003
327.296
316.454
316.233
316.081
315.914
315.817
315.821
315.817
315.789
315.855
315.844
315.884
315.909
315.879
315.852
315.905
315.902
315.967
316.012
316.212
316.382
305.512
305.429
305.392
305.327
305.289
305.298
305.305
305.293
305.315
305.305
305.322
305.332
305.32
305.314
305.327
305.336
305.355
305.367
305.422
305.484
)
;

boundaryField
{
    hotSide
    {
        type            fixedGradient;
        gradient        nonuniform List<scalar> 
400
(
568.554
570.235
575.652
584.715
597.068
612.196
629.544
648.604
668.954
690.26
712.269
734.794
757.699
780.892
804.309
827.917
851.698
875.647
899.764
924.051
543.574
545.503
551.428
561.239
574.507
590.622
608.95
628.93
650.109
672.14
694.767
717.806
741.13
764.653
788.326
812.125
836.047
860.099
884.294
908.641
528.457
530.958
537.413
547.701
561.397
577.896
596.567
616.849
638.282
660.516
683.289
706.417
729.775
753.282
776.896
800.601
824.403
848.317
872.363
896.558
522.607
525.982
533.005
543.554
557.267
573.628
592.082
612.109
633.27
655.217
677.686
700.49
723.502
746.646
769.883
793.203
816.618
840.149
863.82
887.653
523.595
528.008
535.673
546.465
560.087
576.125
594.114
613.599
634.175
655.511
677.347
699.5
721.847
744.318
766.885
789.547
812.323
835.24
858.327
881.61
528.667
534.172
542.576
553.743
567.414
583.24
600.825
619.766
639.693
660.294
681.325
702.617
724.065
745.621
767.275
789.047
810.968
833.076
855.408
877.995
535.589
542.182
551.415
563.136
577.097
592.973
610.395
628.982
648.376
668.28
688.468
708.798
729.202
749.672
770.237
790.947
811.858
833.024
854.49
876.29
542.691
550.317
560.43
572.859
587.348
603.566
621.128
639.637
658.716
678.06
697.458
716.809
736.104
755.397
774.778
794.342
814.176
834.352
854.923
875.922
548.698
557.225
568.181
581.383
596.556
613.345
631.322
650.033
669.045
688.015
706.739
725.17
743.382
761.517
779.74
798.199
817.013
836.268
856.02
876.301
552.619
561.807
573.437
587.319
603.167
620.595
639.125
658.223
677.371
696.166
714.403
732.092
749.403
766.579
783.857
801.432
819.447
837.996
857.133
876.884
553.77
563.259
575.238
589.519
605.806
623.695
642.668
662.132
681.498
700.307
718.346
735.667
752.511
769.185
785.973
803.098
820.713
838.915
857.757
877.261
551.869
561.219
573.121
587.385
603.71
621.682
640.774
660.383
679.916
698.908
717.138
734.649
751.673
768.51
785.443
802.694
820.421
838.722
857.655
877.243
547.137
555.915
567.325
581.177
597.165
614.873
633.789
653.349
673.011
692.35
711.137
729.362
747.173
764.8
782.475
800.398
818.719
837.543
856.934
876.926
540.336
548.193
558.818
572.025
587.502
604.834
623.526
643.058
662.943
682.794
702.373
721.604
740.54
759.316
778.096
797.039
816.281
835.924
856.042
876.679
532.755
539.463
549.17
561.694
576.713
593.793
612.434
632.126
652.407
672.905
693.369
713.671
733.792
753.789
773.763
793.832
814.112
834.7
855.673
877.082
526.24
531.693
540.473
552.411
567.151
584.204
603.021
623.067
643.873
665.066
686.38
707.658
728.836
749.922
770.974
792.079
813.334
834.833
856.651
878.843
523.294
527.499
535.417
546.887
561.493
578.653
597.742
618.178
639.473
661.249
683.236
705.265
727.249
749.17
771.06
792.986
815.033
837.29
859.835
882.72
526.97
530.088
537.224
548.227
562.618
579.736
598.89
619.465
640.963
663.009
685.338
707.777
730.229
752.662
775.089
797.563
820.157
842.958
866.04
889.449
539.989
542.343
548.76
559.102
572.894
589.474
608.156
628.335
649.526
671.362
693.582
716.013
738.548
761.141
783.789
806.526
829.413
852.521
875.912
899.625
563.144
565.099
570.847
580.276
592.997
608.448
626.033
645.208
665.523
686.63
708.272
730.268
752.502
774.909
797.47
820.195
843.121
866.295
889.76
913.539
)
;
    }
    coldSide
    {
        type            mixed;
        refValue        uniform 300;
        refGradient     uniform 0;
        valueFraction   uniform 0.991591;
        source          uniform 0;
        value           nonuniform List<scalar> 
400
(
300.029
300.029
300.029
300.03
300.03
300.031
300.032
300.033
300.034
300.035
300.036
300.037
300.039
300.04
300.041
300.042
300.044
300.045
300.046
300.046
300.028
300.028
300.029
300.029
300.03
300.031
300.031
300.033
300.034
300.035
300.036
300.037
300.038
300.039
300.041
300.042
300.043
300.044
300.045