/*--------------------------------*- C++ -*----------------------------------*\
| =========                 |                                                 |
| \\      /  F ield         | OpenFOAM: The Open Source CFD Toolbox           |
|  \\    /   O peration     | Version:  2212                                  |
|   \\  /    A nd           | Website:  www.openfoam.com                      |
|    \\/     M anipulation  |                                                 |
\*---------------------------------------------------------------------------*/
FoamFile
{
    version     2.0;
    format      ascii;
    arch        "LSB;label=32;scalar=64";
    class       volScalarField;
    location    "0";
    object      relativeErrorField;
}
// * * * * * * * * * * * * * * * * * * * * * * * * * * * * * * * * * * * * * //

dimensions      [0 0 0 1 0 0 0];

internalField   nonuniform List<scalar> 
3200
(
0.0109714
0.00972902
0.0079686
0.00671805
0.00605811
0.00552495
0.00522782
0.00483169
0.00478358
0.00502389
0.00505041
0.00516004
0.00542166
0.00570507
0.0059997
0.00699066
0.00801381
0.00952337
0.0109793
0.0125777
0.00993461
0.00876914
0.00725499
0.00618138
0.00535728
0.00476347
0.00459065
0.00448786
0.0043606
0.00441184
0.00452382
0.0046755
0.00468022
0.00497432
0.00548407
0.00590352
0.00723838
0.0085702
0.00954085
0.0109596
0.00876015
0.00749633
0.00618917
0.00546264
0.00474433
0.00445515
0.00378389
0.00394524
0.00407021
0.00374221
0.00390898
0.00399136
0.00411267
0.00430729
0.00480751
0.00543256
0.00602253
0.00716869
0.00811056
0.00946623
0.00739559
0.00625164
0.00526829
0.00459781
0.00393857
0.00369068
0.00343889
0.00319705
0.0034386
0.00340979
0.00341045
0.00338102
0.00363882
0.00360337
0.00379273
0.00425751
0.0052066
0.0058184
0.0067584
0.00788984
0.00595202
0.00522067
0.00424728
0.00367453
0.00337785
0.00300685
0.0027749
0.00271865
0.00262627
0.00253884
0.00263973
0.00247268
0.00276808
0.00291758
0.0030242
0.00344649
0.00406024
0.00471759
0.00564331
0.00623485
0.00432979
0.00368658
0.00335753
0.0026316
0.00232984
0.00197706
0.00191507
0.00181146
0.00180961
0.00197562
0.00213123
0.00213356
0.00189745
0.00221535
0.00230862
0.00238371
0.00310594
0.003469
0.00380781
0.0045473
0.00258405
0.00224238
0.00200871
0.00194197
0.00137353
0.00163266
0.000977615
0.000932461
0.00128719
0.00119614
0.00114754
0.00103323
0.00133478
0.00124134
0.0014944
0.0016849
0.00176858
0.00200655
0.00242919
0.0026369
0.001033
0.000633089
0.000551117
0.000570373
0.000621585
0.000433422
0.000478435
0.000307304
0.000489039
0.000617695
0.000456731
0.000433929
0.000289673
0.000449968
0.000460507
0.000444549
0.000566408
0.000583963
0.000645865
0.00111446
0.00875754
0.00680636
0.00523879
0.00397882
0.00300829
0.00245952
0.00202561
0.00185456
0.00164601
0.00190208
0.00211378
0.00206952
0.00211178
0.00287014
0.00285372
0.00399825
0.00509506
0.00663269
0.00836627
0.00983706
0.00789451
0.00638164
0.00505934
0.00376046
0.00296018
0.00237554
0.0020692
0.00157569
0.0019075
0.00178298
0.00183257
0.00207807
0.00224617
0.00275028
0.00296171
0.00387658
0.00468263
0.0059373
0.00736866
0.0087715
0.00693211
0.00564648
0.0045504
0.00356518
0.00277244
0.00235713
0.00188772
0.00196702
0.00161386
0.00176038
0.00180733
0.00191761
0.0020255
0.00230312
0.00290113
0.00329432
0.00432985
0.00539926
0.00670471
0.00761912
0.00585872
0.00491658
0.00378408
0.00319532
0.00233023
0.00211542
0.00169108
0.00167639
0.00176738
0.00159069
0.00156909
0.00164527
0.00172169
0.00200315
0.00231679
0.00275264
0.00360137
0.00442774
0.00535454
0.00631468
0.00472894
0.0040424
0.00330238
0.00258114
0.00221721
0.00174273
0.00138476
0.00135569
0.00146201
0.00135488
0.0014469
0.00142693
0.00160336
0.0018437
0.00187908
0.00217802
0.0029689
0.0035727
0.00439172
0.00526929
0.00367924
0.00295076
0.00237954
0.00173901
0.0015432
0.00138489
0.00119865
0.00125638
0.000963724
0.00113468
0.00110753
0.00112892
0.00130516
0.0012629
0.00153586
0.00172035
0.0021892
0.00268802
0.00327754
0.00379391
0.00232736
0.00173603
0.00149921
0.00132016
0.000991346
0.000803163
0.000500897
0.000748693
0.000722179
0.000589045
0.000573748
0.000821708
0.000888604
0.000673766
0.00100607
0.00099352
0.00149253
0.00161649
0.00195086
0.00224248
0.000945441
0.000784425
0.000811454
0.000353197
0.000395168
0.000269297
0.000138019
6.39777e-06
0.000161154
0.000152985
0.000342788
0.000369831
0.000233903
0.000214404
0.000575299
0.000486602
0.00050972
0.000646665
0.00060681
0.000739989
0.00567806
0.00378
0.0023092
0.000579386
0.000616282
0.00120116
0.00147053
0.00171073
0.00191287
0.00181181
0.00187748
0.00163273
0.00121829
0.000814876
0.000409083
0.000359082
0.00177754
0.00317755
0.00513725
0.0066204
0.00522331
0.00392709
0.00222357
0.000913159
0.000192922
0.000639065
0.00118548
0.00122291
0.00144671
0.00127983
0.00118955
0.0010079
0.00114222
0.000616498
0.000130887
0.00070856
0.00162873
0.00296529
0.00460884
0.00619962
0.00464266
0.00357507
0.00226815
0.00103865
0.00037959
0.000224051
0.000529884
0.000659259
0.00103053
0.000975785
0.000886105
0.000684511
0.000690847
0.000196826
0.000290815
0.000974295
0.00163192
0.002749
0.00404227
0.00537361
0.00397776
0.00304191
0.0020586
0.00116784
0.000456439
8.41277e-05
0.000538066
0.000523124
0.000580843
0.000643135
0.000717373
0.000457251
0.000415476
4.73753e-05
0.000219621
0.000778681
0.00146876
0.00242054
0.00368009
0.00470785
0.00328067
0.00262671
0.00155906
0.000987708
0.000507538
0.000141926
9.40656e-05
0.000308378
0.000304788
0.000223232
0.000337622
0.000373968
0.000176632
9.71378e-05
0.000452858
0.000653268
0.00129556
0.00215836
0.00279195
0.00355174
0.00245602
0.00175289
0.00119314
0.000875606
0.000413602
0.000301601
3.08183e-05
0.000129294
5.53743e-06
0.000272904
0.000227424
5.42996e-05
0.000250293
2.19174e-05
0.000174036
0.000555211
0.00102841
0.00175653
0.00216409
0.00278576
0.00165165
0.00113714
0.0009832
0.000703805
0.000298817
0.000119286
1.82375e-07
0.000165029
7.90252e-05
5.85243e-06
1.19179e-05
1.51295e-05
3.77129e-05
0.000166466
6.53066e-05
0.000469883
0.000741794
0.000856268
0.00140993
0.00165219
0.000769288
0.000297249
0.000201021
1.19689e-05
1.4313e-05
0.000137933
0.000119614
8.72514e-05
4.98837e-05
9.84239e-06
7.42424e-05
0.000102111
0.000166288
0.000125057
8.49876e-05
7.52304e-05
0.000333276
0.000298753
0.000368618
0.000657747
0.00262965
0.0010074
0.000910304
0.00237326
0.00372973
0.00437799
0.00487175
0.00538694
0.00540922
0.0055702
0.00520903
0.00502815
0.00487512
0.00435801
0.00387854
0.00277073
0.00141249
0.000214912
0.00225288
0.0041508
0.00289276
0.00129356
0.000433612
0.00183528
0.00271398
0.00340454
0.00408185
0.00424794
0.00436533
0.00440491
0.00427887
0.00421083
0.00385981
0.00367813
0.00312958
0.00203681
0.000968084
0.000518149
0.00228937
0.00370786
0.00279238
0.00131779
1.48183e-06
0.00116973
0.00207404
0.00271324
0.00329014
0.00348386
0.00370233
0.00352982
0.00357838
0.00347891
0.00341936
0.00284812
0.00225056
0.00167394
0.000571298
0.000652674
0.00202933
0.00326453
0.00249285
0.00143151
0.000189476
0.000529773
0.00138531
0.00209374
0.00225124
0.00251742
0.00297468
0.00293245
0.00265373
0.00273809
0.002456
0.00221593
0.0017254
0.00118362
0.000378117
0.000882035
0.00182212
0.00279813
0.002186
0.00112607
0.000324236
0.000444689
0.00105618
0.00151493
0.00184997
0.00188816
0.00200835
0.00211188
0.00203009
0.00182702
0.0017637
0.0014611
0.00127661
0.000576186
0.000322064
0.000396036
0.00131655
0.00241654
0.0018492
0.000946145
0.000224448
0.000340382
0.000538071
0.000896516
0.00105512
0.00142712
0.00147963
0.00142336
0.00148701
0.00133065
0.00122511
0.00124149
0.000765519
0.000636614
0.000314299
0.000633068
0.00124614
0.00164357
0.000863561
0.000605504
0.000303678
0.000146802
0.000383182
0.000544515
0.000810085
0.000841618
0.000862845
0.000803753
0.000941279
0.000738329
0.00061731
0.000536739
0.000490636
0.000401578
0.000235885
0.0003616
0.000654993
0.000897596
0.000353423
0.000151202
7.04568e-05
3.5513e-05
2.09973e-05
0.000328502
0.000311885
0.000295881
0.000101725
9.06425e-05
4.23356e-05
0.000214695
0.000387543
0.000283375
0.000236648
0.000341253
5.53648e-05
0.00027603
0.000237822
0.000365595
0.000498464
0.00138333
0.00341113
0.00515303
0.00654445
0.00756271
0.00793673
0.00846474
0.00876201
0.00867757
0.0084462
0.0085284
0.00790418
0.0075629
0.00662324
0.00569829
0.0041674
0.00252542
0.000285008
0.00169225
0.000719075
0.000703081
0.00258664
0.00374978
0.00507677
0.00608265
0.00661166
0.00699887
0.00727
0.0073531
0.00700827
0.00718738
0.00671442
0.00620911
0.0055214
0.00469874
0.00343929
0.00193757
2.28578e-05
0.00147621
0.000999587
0.000425205
0.00185598
0.00317983
0.00408045
0.00486197
0.00555467
0.00587134
0.00592273
0.00581307
0.00604411
0.00585182
0.00553062
0.00524968
0.00465971
0.00377505
0.00273631
0.00125365
7.83529e-05
0.00168755
0.00116087
5.69189e-05
0.00130464
0.00241886
0.00340109
0.00398631
0.00423823
0.00448621
0.00449619
0.00478509
0.00502674
0.00466001
0.00462412
0.00405702
0.00355326
0.00302724
0.00238471
0.00111502
0.000146125
0.00144172
0.00090647
0.000219363
0.000844362
0.00162979
0.00222709
0.00298576
0.00311385
0.00342764
0.00358589
0.00356218
0.00367798
0.00352405
0.00329437
0.00318727
0.00267027
0.00231126
0.00160443
0.000880923
0.000247222
0.0011546
0.000850819
0.000110538
0.000625244
0.00123538
0.0014129
0.00208051
0.00244276
0.0024414
0.00239937
0.00253079
0.00242556
0.00260175
0.00224765
0.00232796
0.0021637
0.00168427
0.0011389
0.000358878
0.000437318
0.000861363
0.000434582
0.000368077
0.000484811
0.00069331
0.000892352
0.00103251
0.00146116
0.00150717
0.00156093
0.00146188
0.00157753
0.00157411
0.00139748
0.00139009
0.00120518
0.000986521
0.000752889
0.000211143
0.000190219
0.000426259
0.000247754
0.000106726
4.72755e-05
0.000225621
0.000420984
0.00041454
0.000453921
0.000540657
0.000591137
0.000154308
0.000594341
0.000604989
0.000506622
0.000291625
0.000348189
0.000289634
0.000120348
0.000255051
0.000130955
0.000239011
0.00113916
0.00324976
0.0053311
0.00714538
0.00864231
0.00972692
0.0104066
0.0108604
0.0111866
0.0112335
0.0112903
0.011009
0.0105656
0.0100521
0.00920415
0.007888
0.00623527
0.00438381
0.00227139
5.8268e-05
0.000477491
0.00230953
0.00419119
0.00583444
0.00722518
0.00806011
0.00885457
0.00922479
0.00942664
0.00942879
0.00942149
0.00927078
0.00896036
0.00839572
0.00774416
0.0065969
0.00531025
0.00360612
0.00160722
0.000154827
0.000154808
0.00163806
0.003112
0.00460452
0.0056655
0.00658323
0.00706956
0.00779189
0.00783276
0.0078172
0.00802848
0.00767536
0.00746253
0.00707241
0.00633745
0.00528102
0.00426752
0.00268263
0.00131552
0.000151978
0.00016748
0.00112221
0.00245345
0.00369359
0.00460697
0.00538822
0.00574221
0.0062021
0.00641862
0.00643135
0.00653858
0.0062128
0.00596693
0.00554388
0.00508871
0.00444317
0.00344716
0.00226348
0.000885097
0.000384475
0.000251775
0.000796108
0.00194648
0.00275153
0.00349044
0.00403482
0.00453441
0.00477135
0.00486895
0.00503644
0.00512669
0.00491592
0.00478416
0.00455888
0.00363429
0.00342734
0.00250423
0.00180485
0.000614836
0.000312187
0.000183817
0.000250026
0.00132891
0.00189208
0.00233368
0.00304233
0.00315333
0.00344482
0.00342203
0.00344684
0.00361902
0.00361873
0.00329865
0.00316155
0.00285284
0.00236753
0.00191137
0.00110929
0.000359362
0.000212993
0.000253093
0.00048204
0.000873215
0.00124205
0.00148385
0.00156042
0.00188428
0.00203315
0.00214833
0.00212429
0.0023325
0.00216074
0.00197459
0.00169079
0.00142018
0.00154721
0.00102446
0.000679787
0.000191998
0.000100572
0.000120055
0.000210785
0.000325857
0.000249806
0.000605399
0.000440172
0.000640705
0.000599067
0.000840618
0.000715966
0.000766252
0.000687775
0.00082456
0.000812448
0.000468216
0.000460218
0.000290058
0.000374705
0.000229998
0.000228084
0.00197065
0.00428153
0.00663918
0.00840917
0.0099932
0.0112799
0.0122623
0.012893
0.0131028
0.0133569
0.0132544
0.0129292
0.0124009
0.0118005
0.0107586
0.00928694
0.00762124
0.00567564
0.00324237
0.00106639
0.00133685
0.00306126
0.00536828
0.0067734
0.00835381
0.00947524
0.0102577
0.0109155
0.0110915
0.0113027
0.0111415
0.0110069
0.0107361
0.00989368
0.00927524
0.00804357
0.00647253
0.00459057
0.00257124
0.000804826
0.000899877
0.00234453
0.00403684
0.00557894
0.00669212
0.00762006
0.00848179
0.00912386
0.00943272
0.00944448
0.00922717
0.00913265
0.00889131
0.00843068
0.00767224
0.00669714
0.00543821
0.00369508
0.00196433
0.000366285
0.000626321
0.00185537
0.00333224
0.00461471
0.00549466
0.00641294
0.00686869
0.00710715
0.0075235
0.00770587
0.00773271
0.00735226
0.00707769
0.00688512
0.00629836
0.00540473
0.00434147
0.00294702
0.00160088
0.000140774
6.11999e-05
0.0014654
0.00233837
0.00355543
0.00424683
0.00493307
0.00544825
0.00561983
0.00575549
0.00608066
0.00607584
0.00572706
0.0054707
0.00525983
0.00462216
0.00405424
0.0032354
0.00240556
0.00127329
9.43425e-05
0.00026376
0.000695189
0.00186326
0.00238425
0.0029275
0.00332601
0.00379783
0.00385061
0.00420772
0.00412671
0.00411398
0.00453692
0.00398322
0.00365428
0.00342545
0.00288092
0.00224456
0.00177234
0.000706345
7.53172e-05
0.000106329
0.000273691
0.0010604
0.00155209
0.00176618
0.00192719
0.00232315
0.00230583
0.00254588
0.00251221
0.00259237
0.00251609
0.00248588
0.00207818
0.00209259
0.00174229
0.00142286
0.000935004
0.000502569
0.000203559
6.26209e-05
4.76059e-05
0.000422097
0.000562275
0.000512449
0.000755495
0.000746454
0.000794388
0.000660986
0.000688106
0.000926734
0.000641491
0.000799247
0.000750256
0.000657136
0.000828498
0.000374193
0.000569241
0.000258459
0.000257994
0.00210265
0.00473089
0.00698222
0.00914602
0.0107149
0.0120148
0.0131422
0.013883
0.014218
0.0146126
0.0142819
0.0141809
0.0136441
0.0126859
0.0114544
0.0102778
0.00837563
0.00619002
0.00392899
0.00152344
0.00140132
0.00365179
0.00550828
0.00746139
0.00902144
0.0103698
0.0110749
0.0118719
0.0121558
0.0125092
0.0122931
0.0119458
0.0116681
0.0108644
0.00998235
0.008522
0.0070858
0.00518936
0.00318478
0.00109767
0.00119619
0.00260401
0.00435835
0.0061965
0.00750121
0.00844998
0.00903658
0.00981452
0.0103119
0.0101753
0.0102795
0.0101495
0.00970694
0.00937072
0.0083626
0.00716418
0.0059756
0.00424713
0.00250512
0.000744614
0.000400702
0.00196524
0.00341998
0.00482176
0.00610224
0.00688704
0.00752483
0.00798609
0.00821841
0.0086717
0.00857241
0.00811006
0.00767972
0.00747956
0.00681622
0.00593509
0.00463389
0.00348815
0.00193547
0.000566032
0.000395735
0.00153737
0.00254794
0.00371516
0.0048639
0.00539669
0.00576053
0.00629025
0.00646295
0.00628624
0.0066902
0.00644959
0.00628595
0.00578348
0.00520261
0.00443987
0.00369359
0.00249777
0.00140622
0.00032764
0.000156547
0.00101658
0.00186945
0.00274353
0.00325578
0.00373687
0.00423349
0.00439286
0.00453123
0.00466191
0.00462786
0.00463461
0.00435027
0.00412243
0.00367662
0.0032709
0.00248831
0.00215699
0.0010487
0.000202024
0.000181329
0.000717336
0.0011705
0.00140992
0.0018895
0.00228839
0.00236796
0.00282383
0.00266362
0.00283923
0.00293853
0.00275147
0.00299227
0.00245993
0.00237333
0.00194853
0.00150614
0.0011441
0.000752129
8.02849e-05
0.000108873
0.000217823
0.000400408
0.000447977
0.000675114
0.000513174
0.000835998
0.000774858
0.00100828
0.00109809
0.000948913
0.000544173
0.000994177
0.000691631
0.000835175
0.000708347
0.000583255
0.00053373
0.000179305
1.5227e-05
0.00171065
0.00408869
0.00665324
0.00904396
0.0107092
0.0122749
0.0133491
0.0141579
0.0146739
0.0148819
0.014893
0.0146113
0.0141457
0.0131298
0.0118464
0.0102435
0.00853174
0.00607066
0.00347374
0.00114466
0.000979051
0.00297604
0.00525513
0.00726994
0.00902533
0.0102974
0.0114872
0.0120288
0.0123487
0.0127012
0.0126744
0.0125998
0.0119387
0.0110751
0.010217
0.00892167
0.00711453
0.00507235
0.00281771
0.000700857
0.000630384
0.00247262
0.00431769
0.00603933
0.00742389
0.00849315
0.00941079
0.010043
0.0102925
0.0106208
0.0108071
0.0105964
0.0101229
0.00928587
0.00843642
0.00727021
0.00580625
0.00420284
0.00235762
0.000393954
0.000210012
0.00171337
0.0033528
0.00487488
0.00596194
0.00694247
0.00759657
0.00820552
0.00839922
0.00859633
0.00891339
0.00854672
0.00830281
0.00748769
0.00680303
0.00569838
0.00479306
0.00308173
0.00169091
0.000184198
0.000161172
0.00106562
0.00244751
0.00367092
0.00439141
0.00529723
0.0058305
0.00633388
0.00670142
0.00684432
0.00680076
0.00654017
0.00656026
0.00603028
0.00520212
0.00453801
0.00373409
0.00241548
0.00124131
8.85724e-05
0.000183476
0.000662917
0.00164691
0.00278707
0.00310136
0.00370538
0.00428894
0.00451789
0.00468057
0.00489113
0.00473688
0.00469482
0.00470475
0.00425654
0.00372718
0.00323122
0.00260655
0.00156917
0.00107573
4.00252e-05
7.65048e-05
0.000473955
0.00106317
0.00170748
0.00217967
0.00235744
0.00249081
0.00262542
0.00325279
0.00308183
0.00285038
0.00308624
0.00259599
0.00276035
0.00225091
0.00169342
0.00137511
0.0011156
0.000345673
6.21479e-05
0.000100973
2.18407e-05
0.000525159
0.00055428
0.000532956
0.000871646
0.00087263
0.00100156
0.000933028
0.00112993
0.000938569
0.000933011
0.000988027
0.000972264
0.0006195
0.000717348
0.000661458
0.0004546
0.000185731
0.000181258
0.000210963
0.00301712
0.0054534
0.00805529
0.00997697
0.0116081
0.0130009
0.0135818
0.0143441
0.0144792
0.0145555
0.0141527
0.0136591
0.0125286
0.011363
0.00949755
0.00763848
0.00530419
0.00247219
0.000174409
4.14182e-05
0.00222552
0.00421174
0.00652044
0.00850032
0.0098664
0.0106686
0.0116689
0.0123304
0.0123905
0.0125269
0.0122114
0.0117324
0.0110126
0.00953322
0.00826024
0.0064
0.00415248
0.002029
0.000291292
9.2777e-05
0.00162915
0.00335641
0.00529128
0.00684736
0.00812365
0.0091684
0.00995204
0.0103095
0.0105216
0.0105215
0.0103876
0.00966966
0.00892632
0.00807006
0.00696353
0.0052175
0.00342996
0.00154438
0.000307317
0.000652865
0.000996548
0.00269206
0.00419452
0.00547844
0.00645172
0.00710075
0.00761151
0.00817182
0.00862075
0.00834087
0.00829166
0.0079939
0.00740439
0.00649002
0.00540866
0.00415666
0.00275419
0.00085336
0.000670406
0.000903251
0.000681921
0.00217863
0.00318936
0.00413107
0.00498426
0.00568992
0.00601559
0.00634173
0.00649582
0.00668954
0.0065139
0.00612478
0.00572933
0.00517764
0.00418054
0.00326859
0.00194855
0.000760024
0.000515549
0.000268332
0.000477248
0.00127817
0.002126
0.00286512
0.00355687
0.00406883
0.00442311
0.00469607
0.00471467
0.00469734
0.00473194
0.00435032
0.00407157
0.00375731
0.00293702
0.00207715
0.00142012
0.000391839
0.000572264
0.000315526
0.000127634
0.000729565
0.00135409
0.00173678
0.00212206
0.00236521
0.00286873
0.00272737
0.00278522
0.00271214
0.00286277
0.0026275
0.00242966
0.00219243
0.00179677
0.00136619
0.000871528
0.000245238
0.000239227
4.37827e-05
8.12405e-05
0.00027693
0.000292273
0.000530971
0.0007363
0.000877268
0.000850294
0.00093235
0.000924342
0.000805419
0.000981012
0.00121548
0.000896778
0.000754674
0.000702118
0.000601594
0.000436107
0.000208515
0.000181025
0.00182086
0.00100813
0.00372804
0.00634375
0.00831779
0.0103381
0.0114744
0.0125343
0.0130395
0.0134114
0.0135781
0.0130962
0.0125495
0.0113882
0.0099401
0.00827293
0.00595186
0.00363859
0.000654749
0.00196195
0.00176234
0.000330518
0.00279062
0.00519741
0.00697772
0.00830534
0.00957222
0.0106279
0.0112802
0.0113919
0.0115221
0.0112649
0.0105628
0.00980449
0.00852173
0.00699393
0.00513722
0.00287026
0.000222865
0.00202162
0.00195763
7.23175e-05
0.00205242
0.00378284
0.0058
0.00713831
0.00794741
0.00864133
0.00927855
0.00966499
0.00956197
0.0092806
0.00888188
0.00811301
0.00715702
0.0056636
0.00405906
0.00203545
0.000135948
0.00191694
0.0021141
0.000175969
0.00150741
0.00306243
0.00452859
0.00574771
0.00642034
0.00732729
0.00741198
0.00781565
0.00775812
0.00742207
0.00706672
0.00653203
0.00554298
0.00451071
0.00315406
0.00164193
8.6411e-05
0.00181188
0.00182647
0.000438819
0.00124683
0.00234095
0.0033835
0.00430314
0.00494367
0.00526493
0.0056845
0.00609305
0.006033
0.00586001
0.00556048
0.00498228
0.00435225
0.00369571
0.00245653
0.00132857
9.26482e-05
0.00144958
0.0012039
0.000254311
0.00055383
0.00161288
0.00228535
0.00306116
0.00360434
0.00401052
0.00403139
0.00437394
0.00439882
0.00429526
0.00410941
0.00351403
0.00299621
0.00256147
0.00170696
0.000714031
0.000112964
0.000994744
0.000507696
9.12925e-05
0.000510034
0.00095515
0.00148895
0.00179203
0.00194407
0.00249109
0.00243652
0.00264246
0.00266996
0.00255552
0.00254172
0.0022098
0.00201208
0.00157879
0.000948177
0.000636649
5.29613e-07
0.00101457
0.000322224
5.87133e-05
0.000161381
0.000422426
0.000556995
0.000700247
0.00063
0.000713184
0.000725928
0.000524377
0.000995945
0.000815571
0.000817486
0.000722924
0.00079298
0.00058428
0.000260451
9.46206e-05
4.45333e-05
0.00025743
0.00455332
0.00172194
0.00120877
0.00421036
0.00625113
0.00777796
0.00948462
0.0103152
0.0111683
0.0111647
0.0115308
0.0110627
0.0102883
0.00944246
0.00784167
0.00586242
0.0038696
0.00101066
0.00185315
0.00492019
0.004396
0.00208437
0.000513716
0.00287269
0.00510985
0.00652991
0.00784001
0.00876463
0.0093064
0.00965999
0.00979017
0.00954885
0.00869816
0.00788339
0.00645949
0.00491376
0.00280897
0.000718766
0.00196026
0.00457201
0.00423336
0.00198638
0.000285526
0.00234905
0.0038936
0.00530642
0.00634027
0.00727916
0.00771752
0.00816133
0.00793944
0.00775086
0.00727043
0.00651032
0.00526921
0.00397175
0.00212368
8.87385e-05
0.00195339
0.00405875
0.00368508
0.00221538
0.00019315
0.00148075
0.00291864
0.00409689
0.00495476
0.00575776
0.00644979
0.00638349
0.0064484
0.00604138
0.00578373
0.00517562
0.00435636
0.00308446
0.00181233
0.000130343
0.00176982
0.0034032
0.00300965
0.00189105
0.000334944
0.00119933
0.002172
0.00331204
0.00392778
0.00441685
0.00469517
0.00494559
0.00506715
0.0047114
0.00451633
0.00397625
0.00327843
0.00241396
0.00132229
0.000152183
0.00154982
0.00267047
0.00219167
0.0015443
0.000351478
0.000730011
0.00137305
0.00222481
0.0026995
0.0031756
0.00346478
0.00393801
0.00353602
0.00353166
0.00320142
0.00294008
0.00231228
0.00157924
0.000591945
4.67153e-05
0.00102394
0.00202462
0.00123712
0.00114235
0.000109314
0.00018607
0.000873346
0.00148651
0.00146882
0.00179961
0.00219137
0.00213488
0.00205941
0.0019467
0.00188258
0.00171399
0.00137737
0.00114561
0.00025247
0.000127259
0.000931358
0.00143248
0.000430106
0.000374177
0.000120815
0.00017812
0.000360955
0.000611222
0.000509364
0.000634198
0.000827261
0.000756255
0.000968655
0.000766585
0.000534285
0.000563658
0.000337215
0.000335359
0.000254334
0.000175859
4.9397e-05
0.000449684
0.00788773
0.00517999
0.00214184
0.000558797
0.00298451
0.00491469
0.00638835
0.00766099
0.008318
0.00870627
0.00867473
0.00814696
0.0077735
0.00610798
0.00494221
0.0028529
0.000518279
0.0023378
0.00546334
0.00829865
0.00759862
0.0049672
0.00253909
7.72307e-05
0.00216323
0.00380185
0.00506203
0.00627149
0.00706994
0.00728534
0.00733654
0.00694591
0.00620808
0.00524617
0.00383215
0.0021466
0.000122757
0.00243297
0.00501423
0.00771053
0.00676305
0.00500768
0.00239265
0.000407982
0.00130809
0.00288235
0.00406532
0.00512588
0.0055799
0.00578667
0.00579388
0.00583248
0.00498869
0.00422818
0.00298542
0.00167271
8.34831e-05
0.00231159
0.00466148
0.00657992
0.00594442
0.00448298
0.00247713
0.000628915
0.00103499
0.00221942
0.00325749
0.00371402
0.00456227
0.00445013
0.00484345
0.00448063
0.00409166
0.00336338
0.00230492
0.0012111
0.00052091
0.00211413
0.00396383
0.00570379
0.00491036
0.00372581
0.00203154
0.000402792
0.000528756
0.00176484
0.00242262
0.00283091
0.00342664
0.00353919
0.00356339
0.00361785
0.00305273
0.00242715
0.00147624
0.000827245
0.000318043
0.00194468
0.00321662
0.00456597
0.00363139
0.00260376
0.00149002
0.000452969
0.000268337
0.00124004
0.00178983
0.00192249
0.00236597
0.00237699
0.00267191
0.00239215
0.0018848
0.00170583
0.00116811
0.000569024
0.000543816
0.00146497
0.0026844
0.00337895
0.00239029
0.00162098
0.000936344
2.46786e-05
0.000175157
0.000750871
0.000993854
0.0011033
0.00122278
0.00138268
0.00148826
0.00126883
0.00133784
0.000961361
0.000594411
0.000395902
0.000365479
0.000787864
0.00152757
0.00224108
0.000772477
0.000517354
0.000425428
2.19205e-05
5.39079e-05
0.000197708
0.000459254
0.000439979
0.000449845
0.00067218
0.000360781
0.000594001
0.000424909
0.000282524
6.27684e-05
0.000108587
3.5647e-05
0.00037106
0.000510162
0.000796667
0.0124559
0.00935644
0.00627159
0.00344721
0.00103211
0.00109702
0.00265914
0.00367853
0.00459044
0.00504112
0.00483656
0.0045513
0.00382968
0.00277948
0.000967456
0.00106957
0.00357398
0.00633801
0.00933669
0.0121968
0.0112477
0.00899679
0.00615815
0.00356142
0.00136504
0.00051799
0.00175222
0.0029429
0.00344151
0.0039175
0.0041282
0.00382071
0.00305248
0.0019466
0.000499413
0.00149631
0.00340104
0.00594695
0.0087123
0.0111175
0.0101473
0.0082042
0.00568122
0.00343487
0.00164038
5.40197e-05
0.00110233
0.00216162
0.00257897
0.00289413
0.00308815
0.00284261
0.00225591
0.00131003
0.000121501
0.001279
0.00336682
0.00549264
0.00771508
0.00987139
0.00875325
0.00709853
0.00498818
0.00330219
0.0015869
0.000241001
0.00099656
0.00156951
0.00203037
0.00240164
0.00246159
0.00211016
0.00188367
0.000878774
0.00013493
0.00141039
0.00293192
0.00473619
0.00668916
0.00843178
0.00721108
0.00562142
0.00412631
0.00283085
0.00165131
0.000379357
0.000432903
0.00115458
0.00150687
0.00176938
0.00156692
0.001605
0.00113133
0.000334086
0.000208107
0.00146248
0.00269985
0.00380237
0.00546107
0.00683832
0.0053412
0.00445513
0.00317934
0.00219127
0.000994272
0.00039472
0.000277951
0.000708955
0.000972235
0.00111682
0.00116959
0.00109172
0.000720796
0.000171487
0.00039133
0.000996317
0.00194936
0.00300159
0.00418841
0.00484531
0.00330957
0.00280057
0.00175205
0.00138664
0.000567876
0.000192576
7.28016e-05
0.000334814
0.000524492
0.000468844
0.000856582
0.000408757
0.000245688
0.000207426
3.92667e-05
0.000638846
0.00112497
0.00182169
0.00252745
0.00313533
0.00123492
0.000624795
0.000549763
0.00049048
8.44575e-05
7.41728e-05
0.000119469
0.00014984
0.000335429
0.000388371
0.000133189
0.000323797
0.000125087
4.61224e-05
1.08509e-05
0.000135355
0.000226889
0.000490365
0.000821378
0.000985089
0.0173507
0.0145466
0.0113464
0.00830375
0.00568694
0.00371206
0.00195373
0.000696154
0.000190251
0.000556016
0.000513707
5.08328e-05
0.000656028
0.00185237
0.00354292
0.00581667
0.00807872
0.0109745
0.0143297
0.0172657
0.0160169
0.0133586
0.010316
0.0077214
0.00552569
0.00355067
0.00218628
0.000881933
0.000382434
4.62444e-05
0.000109592
0.00011864
0.00103769
0.00208722
0.00358529
0.00533379
0.00766459
0.0102251
0.012861
0.0156515
0.0140235
0.0119862
0.00956463
0.00715324
0.00525191
0.00372225
0.00224078
0.00120045
0.000421164
0.000295001
0.00027113
0.000519169
0.00126989
0.00218794
0.00344087
0.00521417
0.00703336
0.00916335
0.011587
0.0136569
0.0122153
0.0103131
0.00817944
0.00632768
0.00466399
0.00332832
0.00239811
0.00137735
0.000801236
0.000436897
0.000450891
0.000625615
0.00139207
0.0022709
0.00306185
0.00434053
0.00615799
0.00769921
0.00980948
0.0116453
0.00981879
0.00832345
0.00678132
0.0052326
0.00387632
0.00275279
0.0020236
0.00127519
0.000955675
0.000593329
0.000524005
0.000795515
0.00115377
0.00178557
0.00276661
0.00366819
0.00507279
0.00637846
0.0079832
0.00930126
0.00727188
0.00624913
0.00488152
0.00403714
0.00293714
0.00216252
0.00143767
0.00108736
0.0008802
0.000510421
0.000668536
0.00068664
0.000892982
0.00137223
0.00197121
0.00273869
0.00365943
0.00466641
0.0059243
0.00707356
0.00437984
0.00384423
0.00300744
0.0024371
0.00189968
0.00132868
0.000983988
0.000722496
0.000432166
0.000413603
0.000320777
0.000343685
0.000441496
0.000715419
0.00119869
0.00179789
0.00234314
0.00305634
0.00392943
0.00441022
0.0013931
0.00143185
0.000860561
0.00091569
0.000550479
0.000428968
0.000357178
0.000266467
0.000269701
0.000113538
0.000113845
0.000243429
0.000449469
0.000297889
4.00491e-05
0.000453603
0.000800914
0.000945988
0.00119769
0.00150285
0.023326
0.0199248
0.0170285
0.0137878
0.0112047
0.00914081
0.00737581
0.0059739
0.00512194
0.00461092
0.00469861
0.00502671
0.00593445
0.0071818
0.00909721
0.0111519
0.0137396
0.0167033
0.0198192
0.022985
0.021172
0.01826
0.0154742
0.0129473
0.0104667
0.00845081
0.00703292
0.00583347
0.00512264
0.00468547
0.00458441
0.00495717
0.00570879
0.00674802
0.00844383
0.0103114
0.012482
0.0152064
0.0181687
0.0204469
0.0186307
0.0162511
0.0138157
0.0116061
0.00955013
0.00763757
0.00639682
0.00540439
0.00466357
0.00446974
0.00447094
0.00476211
0.00535241
0.00625217
0.00776549
0.00922645
0.0112919
0.0132521
0.0159081
0.0181032
0.0157379
0.0141808
0.0119458
0.0101448
0.00830538
0.00679574
0.00564104
0.00478205
0.00424621
0.00393842
0.00395485
0.00417284
0.00462092
0.00543831
0.0066104
0.00773537
0.00969211
0.0113834
0.013448
0.0153332
0.0129823
0.0113186
0.00963169
0.00809371
0.00679148
0.00564053
0.00477578
0.00393964
0.00367318
0.00328508
0.00332071
0.00344659
0.003977
0.00451819
0.00542706
0.00637673
0.00776802
0.00936102
0.0110889
0.0122244
0.00946744
0.0085573
0.00733474
0.00595514
0.0051002
0.00417089
0.0037262
0.00287158
0.00271859
0.00231931
0.00247984
0.00261497
0.00309492
0.0035244
0.00400415
0.00484919
0.00587281
0.00705808
0.00813103
0.00920433
0.00588576
0.00526406
0.00431481
0.0039054
0.00327388
0.00257759
0.00209929
0.0019274
0.0017426
0.00148641
0.00177052
0.00161954
0.00184363
0.00234247
0.00246177
0.00310445
0.0037005
0.00412267
0.00503592
0.00557345
0.00208479
0.00190744
0.00172669
0.00128176
0.000947319
0.001051
0.000610613
0.000658278
0.000606184
0.000581936
0.000585409
0.000471358
0.000776558
0.000973232
0.000797154
0.00109996
0.00116588
0.00148329
0.00161132
0.00198547
0.029806
0.0266364
0.0232969
0.0200951
0.0174249
0.0152152
0.0133745
0.0118818
0.0111128
0.0104981
0.010643
0.0110253
0.0120269
0.0131627
0.014934
0.016935
0.0197577
0.0228003
0.0260421
0.0292272
0.0268145
0.0241365
0.0213289
0.0183465
0.0159569
0.0139437
0.0123496
0.011032
0.0102364
0.00997398
0.00993591
0.0100102
0.0110813
0.0120321
0.0135403
0.0154977
0.0180414
0.0205388
0.0233517
0.0260015
0.0235044
0.0212825
0.0187847
0.0163229
0.0141006
0.012552
0.0110867
0.0101316
0.00933516
0.00895863
0.00890487
0.00920956
0.00989613
0.0107973
0.0121821
0.0138059
0.0159005
0.0181401
0.0206987
0.0230104
0.0197978
0.0179785
0.0162506
0.013983
0.0122621
0.0110472
0.00947308
0.00865807
0.00789299
0.00755396