/*--------------------------------*- C++ -*----------------------------------*\
| =========                 |                                                 |
| \\      /  F ield         | OpenFOAM: The Open Source CFD Toolbox           |
|  \\    /   O peration     | Version:  2212                                  |
|   \\  /    A nd           | Website:  www.openfoam.com                      |
|    \\/     M anipulation  |                                                 |
\*---------------------------------------------------------------------------*/
FoamFile
{
    version     2.0;
    format      ascii;
    arch        "LSB;label=32;scalar=64";
    class       volScalarField;
    location    "0";
    object      relativeErrorField;
}
// * * * * * * * * * * * * * * * * * * * * * * * * * * * * * * * * * * * * * //

dimensions      [0 0 0 1 0 0 0];

internalField   nonuniform List<scalar> 
3200
(
0.00206428
0.00438963
0.00053106
0.00315213
0.00398344
0.00565044
0.00603534
0.00750921
0.00495581
0.00426696
0.00348126
0.00800081
0.00532078
0.00380542
0.00300534
0.00745796
0.00477862
0.000369109
0.00294471
0.00414289
0.00100155
0.00132572
0.000495058
0.00420141
0.00388135
0.00514135
0.00539839
0.00478111
0.0036592
0.00572181
0.00359453
0.00380067
0.00560423
0.00523908
0.00142958
0.00363482
5.81003e-06
0.00159251
0.00376091
0.0032609
0.00139202
0.00221614
0.00348094
0.000805545
0.00637966
0.00310372
0.00485569
0.00221006
0.006702
0.00570954
0.00178914
0.00167335
0.00286755
0.00518693
0.00414346
0.00207168
0.00231456
0.00341097
0.00103734
0.00219827
0.00771256
0.000997244
0.000897098
0.00197888
0.00299115
0.0033762
0.00452641
0.00159318
0.00261978
0.00426761
0.00402151
0.00443718
0.00308028
0.00492038
0.00213542
0.00245249
0.00454328
0.000240552
0.00223434
0.00371062
0.00177628
0.000826156
0.00418247
0.00118054
0.000322079
0.00377492
0.00208959
0.00497183
0.00192748
0.00181081
0.00130297
0.000385978
0.00236316
0.00199217
0.00015744
0.00112196
0.00381582
0.000421136
0.00190623
0.00192985
0.0013437
0.00236237
0.00012609
0.00266024
0.00180836
0.00342606
0.000178028
0.00512683
0.00460491
0.00310062
0.00184608
7.81813e-05
0.00333478
0.000970628
0.00367263
0.000784755
0.000557856
0.00245387
0.00191712
0.00203112
0.000899737
0.00231536
0.00213508
0.00301548
0.00079665
0.00201166
5.32304e-05
0.00390917
0.000791962
0.00279115
0.00413074
7.36506e-06
0.00146888
0.00153381
0.00204612
0.00173148
0.00172718
0.00109337
0.000684547
0.00410294
0.000582249
0.000144641
0.000475838
0.00301269
0.0022319
0.000298058
0.00190347
7.06662e-05
0.00149249
0.00183424
0.00292717
0.00118661
0.00255642
0.000633782
6.28947e-05
0.00017659
0.00180638
0.000172481
0.000839071
0.00222083
0.00548426
0.00436186
0.00307867
0.0030293
0.00221555
0.00181577
0.00467068
0.00290024
0.00445723
0.00729948
0.00334709
0.00367213
0.0063313
0.000427463
0.00481698
0.00641948
0.00490293
0.00250342
0.000720979
0.000315288
0.00144023
6.39794e-05
3.60312e-05
0.00144691
0.00527703
0.00112647
0.00515262
0.00153745
0.00280368
0.00109113
0.00052141
0.00543532
0.00110545
0.00362693
0.000997967
0.00237458
0.00119442
0.00101808
0.000507726
0.00201346
0.00310284
0.000488443
0.00569173
0.00291434
0.00280165
0.00390316
0.0012796
0.00516791
0.0029776
0.00463849
0.00201678
0.00207671
0.00717191
0.000562055
0.00213559
0.00235374
0.0017888
0.00244132
0.00144444
0.00387918
0.00137876
0.00064698
0.00158843
0.000819886
0.00129821
0.0026002
0.0019967
0.00584467
0.00222898
0.0038967
0.000858108
0.0003264
0.00153055
0.00168377
0.00124375
0.00289334
0.00204304
0.00198155
0.00097576
0.000247392
0.00180339
0.00255171
0.0027927
0.00222004
0.000506474
0.00171952
0.00215052
0.00383223
0.00130956
0.00501384
0.00322231
0.00247034
0.000228113
0.00125789
0.00254402
0.00238694
0.00234668
0.00217871
0.00189006
0.00125667
0.00115483
0.0029504
0.000109232
0.000479577
0.000742037
0.000306876
0.00248036
0.00344326
0.0021758
0.00130537
0.00250792
0.00100447
0.00345457
0.000486774
0.00141105
0.00225688
0.00043513
0.00297651
0.00159761
0.00070262
6.16528e-05
0.000809846
0.0027252
0.000820094
0.00433779
0.00297641
0.00363621
0.0039303
0.00329705
0.000545821
0.000485783
0.00272391
0.00353222
0.00043405
0.00110612
0.00196797
0.000409686
0.00111383
0.00177857
0.000797133
0.00160552
0.000581167
0.000259089
2.91915e-05
0.000587517
0.000519829
0.00217726
0.00102062
0.00317913
0.000204081
0.0019828
0.000622776
0.00177395
0.000765262
0.00118046
9.75047e-05
0.000885109
0.00439858
0.00112689
0.000100862
0.00285884
0.000709314
0.000433146
0.00127712
0.00161441
0.00402349
0.00176421
0.00594048
0.00486732
0.00277518
0.00430658
0.00166297
0.00371797
0.00482897
0.00180491
0.00293509
0.00129918
0.000955421
0.00132209
0.00442648
0.000951452
0.00128172
0.0013043
0.00417478
0.000254796
0.00163878
0.00429672
0.00282253
0.00204411
0.00184999
0.00216994
0.00384903
0.00232266
0.0039669
0.0061626
0.00277152
0.00127163
0.0020454
0.000852329
0.00282069
0.00149436
0.00146615
0.00146498
0.00273217
0.00238327
0.00319471
0.00184934
0.00700405
2.74318e-05
0.00312766
0.00343413
0.000677109
0.00380356
0.00024836
0.00196818
0.00313401
0.00200978
0.000415007
0.00196655
0.00090321
7.21912e-05
0.00170846
0.000775591
0.00171925
0.00379142
0.00567013
0.00409254
0.00018646
0.00195497
0.00542597
0.00122641
0.00273101
0.00101278
0.00115409
0.00115277
0.00122293
0.00101719
0.00211908
0.000376754
0.000744662
0.000640015
0.00121311
0.00277321
0.000766653
0.000264141
0.00139213
0.00209614
0.000143381
0.00112987
0.000832483
0.00197614
0.00204391
0.00239789
0.000923631
0.00128203
0.00284522
0.00106497
0.00124201
6.47465e-05
0.00263764
0.00208246
0.00144536
0.00010515
0.0030268
0.00304064
0.000508925
0.00249797
0.00261994
0.00129541
0.000787684
0.00330594
1.65057e-05
0.0053828
0.00122495
0.00160074
0.000965622
0.0017915
0.00213941
0.00110762
1.58923e-05
7.59227e-05
0.00169161
0.000266187
0.000467612
0.00105588
0.000357369
0.00028278
0.00136959
0.00175057
0.0025143
0.00199913
0.00368461
0.00117021
0.00121276
0.0027741
0.00375749
0.000230349
0.00118909
0.00203451
0.00478541
0.0015058
0.000750721
0.00260916
0.00140173
0.00250011
0.00402493
0.000349268
0.0023422
0.00106337
0.00238279
9.29119e-05
0.00149427
0.000253062
2.42453e-05
0.00108341
0.00126354
0.00157138
0.000635266
0.00126004
0.00216443
0.00147495
0.000710217
0.00143032
0.00246382
0.00388971
0.00322198
0.00490965
0.00434375
0.00030346
0.00303508
0.00114744
0.00103107
0.00341514
0.00360859
0.00551404
0.00400918
0.00135343
0.000258422
0.00049081
0.000905373
0.00115481
0.000106402
0.000978109
0.000108939
0.000848709
0.000806887
0.0025345
0.00107754
0.00238755
0.000232298
0.00134614
0.00398829
0.00154577
0.000818092
4.61317e-05
0.00154432
0.00059917
0.00315436
0.000279107
0.00168264
0.00341358
0.00116374
0.000880549
0.000578644
0.000175592
0.00460575
0.00331372
0.00256858
0.0032608
5.76649e-05
0.00101104
0.00373762
0.00185936
0.00179105
0.00437785
0.000726452
0.00416688
0.00242146
0.000697722
0.00391802
0.00017981
0.0012736
0.00075314
0.00208706
0.0030321
0.00268699
0.000843973
0.00352932
0.0043703
0.000353369
0.00268795
0.00149624
0.00155983
0.00379121
0.00203431
0.00192322
0.00366371
0.000884199
0.000580186
0.00068434
0.00124877
0.000126471
0.000842761
0.000353086
0.00295704
0.000489755
0.00116426
0.00326322
0.00102453
0.000826222
0.00282795
0.00421829
0.000152284
0.00100866
0.000129655
9.86125e-05
0.00124626
0.000942238
0.000595683
0.000890999
0.00282253
9.67458e-05
0.000999886
0.000740055
0.00221173
0.000381787
0.00416397
4.88714e-05
0.000898091
0.00223189
0.00093238
7.20094e-05
0.000301511
0.0031147
0.000236548
0.000876066
0.00120701
1.00701e-05
0.000953631
0.00221276
0.00113556
0.00147122
0.000381269
0.000116972
0.00128913
0.000641146
0.00270294
0.00566904
0.00078412
0.000544541
0.00236195
0.00148315
0.000709346
0.00325126
0.00177956
0.0012469
0.00449693
0.00420902
0.000213225
0.000430944
0.00171584
0.00199907
0.00177077
0.00252351
0.00316695
0.00215824
0.00201742
0.00236039
0.000470135
0.00186251
0.00102597
0.00360745
0.00227126
0.00184391
0.00108376
0.00105255
0.000362483
0.000505919
0.00143111
0.00169989
0.00789812
0.000589527
0.000484074
0.00075739
0.000788113
0.000272221
0.00265699
0.000732535
0.00221349
0.00095074
0.000412483
0.00044378
0.00346761
0.00220756
0.00094478
0.00113541
0.00177049
0.000695904
0.00155864
0.00347287
0.0016549
0.0030586
0.00080404
0.00416437
5.16497e-05
0.00232388
0.00513354
0.0038268
0.00126362
0.00221485
0.000575498
0.0014242
1.01707e-05
0.00186454
0.000921906
0.00318892
0.00178935
0.00177247
0.00226284
0.00695543
0.00348947
0.000484018
0.0023125
0.000330124
0.00347378
0.00251726
0.00388861
0.00101505
0.00285228
0.00243447
0.00189558
1.38244e-06
0.00024051
0.00322804
0.00357805
5.61844e-05
0.00174702
0.00166937
0.000881507
0.00452874
0.000887606
0.000454267
0.00026587
0.00103767
0.00500389
0.00202055
0.000717973
0.00149028
0.00252744
0.00012386
0.0012037
0.00142132
0.0016389
0.00155605
0.00102841
0.000648233
0.00220834
0.00109627
0.00369849
0.00602402
0.00177237
5.7782e-05
0.0019957
0.00145493
0.000116319
0.000952007
0.00193377
0.00153058
0.00136678
0.00267568
0.00134582
0.000321305
0.000656282
0.00123991
0.00205895
0.000414243
0.000501715
0.000886171
0.000446315
0.00127626
4.63007e-05
0.00125147
0.00271329
0.000434378
0.000446199
0.000303532
0.000240246
0.00324431
0.00336703
0.0001242
0.00354443
0.00154493
5.53067e-06
0.004156
0.000124227
0.000565856
0.0044606
0.000978964
0.00223712
0.00153386
0.00349647
0.000990173
0.00130642
7.78783e-05
0.00132856
7.81748e-05
0.00102407
0.00286387
0.000342083
0.00226729
0.00042307
0.000283201
0.00256369
0.000620396
0.00237151
0.00353857
0.00260447
0.000319827
0.00143836
0.004882
0.0039363
0.00272437
6.69425e-05
0.000312009
0.000231718
7.42085e-05
0.0035204
0.00165949
0.000261597
5.46539e-05
0.00184297
0.00229688
0.00136438
0.00103482
6.48073e-05
0.00158117
0.00204069
0.000745076
0.000120969
0.00187962
0.00525943
0.00677746
0.00236433
0.00256714
0.000740314
0.00313699
0.0030762
0.00102758
0.00335946
0.00180278
0.00320249
0.00263824
0.00239856
0.00175538
0.000507949
0.00100427
0.000348122
0.00188672
0.00220612
0.00382473
0.00305627
0.000111101
0.0014684
9.25176e-06
0.00217643
0.000525418
0.00217741
0.00124264
0.00114791
0.000296312
0.00111061
0.000789863
0.000489152
0.000414743
0.000591023
0.000657339
0.000741941
0.00217964
0.000145298
0.00271591
0.00242583
0.000637721
0.00162793
0.00159881
0.000422971
0.00209701
0.00225639
0.0002952
0.000829241
0.00109085
0.000760883
0.00109211
0.00287859
0.00193112
0.00255718
0.00163334
0.00201443
0.000497154
0.00103405
0.00474154
0.00247341
0.00237384
0.00113816
0.00196737
0.00159793
0.00144648
0.000604526
0.00205015
8.71108e-05
0.0035114
0.00119953
8.47652e-05
0.000591992
0.000985738
5.20751e-06
0.00166461
0.000861297
0.001775
0.00453131
0.00256259
0.00398641
0.000813341
0.000694688
0.0011461
0.000972135
0.0026119
0.0019697
0.00194159
0.00081578
0.000369862
0.00244164
0.00365986
0.000968949
0.00210925
0.00207471
0.00104761
0.000663904
0.00336689
0.00240399
0.00525229
0.00165448
0.00290594
0.000667251
0.00015241
0.000963066
0.000862997
0.00182074
0.000990465
0.00124292
0.000643496
0.00176075
0.000745784
0.00158165
0.000365446
9.09965e-05
0.00427551
0.00529797
0.00205105
5.219e-05
0.000182188
0.00298945
0.00146447
0.00102272
0.000465843
0.00079806
0.00122945
0.00190299
0.00156217
0.00268169
0.000191292
0.00117592
0.000136377
0.000613712
0.00244133
0.000398
0.00130069
0.00245928
0.00140596
0.00260803
0.000453078
0.000945279
0.000691337
0.00217608
0.0026443
0.000503546
0.000575094
0.000538471
0.001136
0.00295226
0.00254468
0.00404774
0.00163339
0.0009017
0.000400796
0.000525828
0.00066328
0.00088058
0.000957526
0.000897692
0.00140634
0.00721224
0.00207922
0.000873436
0.00180393
0.00051732
0.00357557
0.00233886
0.00151684
0.00132897
0.00165626
0.0018188
0.00118022
0.00404067
0.00267311
0.000562802
0.00124209
0.00056277
0.00105467
0.00153354
0.00258469
0.00437659
3.95841e-05
0.00115737
0.000713463
0.00107939
0.000556147
0.000852259
4.3922e-05
0.00252752
0.000674566
0.00290104
0.00419324
0.00011948
0.0049338
0.000222517
0.00194958
3.37756e-05
0.0012303
0.00197845
0.00260008
0.00287532
0.00139119
0.000496322
0.00181139
0.00156793
0.00178157
0.00206606
0.0043605
0.000723784
0.00214626
0.00130203
0.00187432
0.00131159
3.26927e-05
0.000257421
0.000441756
0.000428712
0.00120362
0.00158937
0.000559862
0.000643368
5.26485e-05
0.0030614
0.00276823
0.000910226
0.00216393
0.000928961
0.000424257
0.0024492
0.000595098
0.00024381
0.00290021
0.0024239
0.00105406
0.000129779
0.00175407
0.000309017
0.00061993
0.00348498
0.000901878
0.000403801
0.000564445
0.000354837
0.00165944
0.00145282
0.00321556
0.00144261
0.00143203
0.00160967
0.00143391
0.00110449
0.00143566
0.00182814
0.00170307
0.00380089
0.00156651
0.00093656
0.000569853
0.00226679
0.00534577
0.00396364
0.0027388
6.00325e-05
0.00120034
0.00132642
0.000777736
0.00136952
0.000155033
4.15284e-05
0.000977011
0.000328781
0.0011894
0.00150029
0.00160359
0.00159442
0.000362101
0.00402712
0.000499227
0.00163308
0.00157388
0.00210662
0.00274311
0.00313442
0.00109631
0.00125573
0.00490606
0.00224168
0.00369033
0.000808696
0.000671329
0.00132843
0.000211186
0.000321582
0.00131795
0.00090623
0.00283685
0.00178483
0.000654285
0.00375212
7.93823e-05
0.00140424
0.000973814
0.00152364
0.0021664
0.00235946
0.00510899
0.000591474
0.00245068
0.00112492
0.000243883
0.00279036
0.00149592
0.00434713
0.000751639
0.00047004
0.000864246
0.00127244
0.00215002
0.000767582
0.000737261
0.00686789
0.00379372
0.00227935
0.00454742
0.0044417
0.00136276
0.000632621
0.00137572
0.00294314
0.0032423
0.00211351
0.000407341
0.00280507
0.00207749
0.00154274
0.00134812
2.79038e-06
0.000466233
0.00281808
0.00324396
0.00385632
0.00126121
0.0023075
0.000418649
0.0020252
0.00130573
0.000628538
0.00015002
0.00153714
0.000196798
0.000182445
0.00498542
0.000565284
0.000255116
0.00105259
0.0017309
0.000712128
0.0014572
0.00139033
0.00178835
0.0038748
0.00113745
0.00234615
0.00110732
0.000263319
0.000227875
0.00107822
0.00256232
0.00270385
0.00307468
0.00244975
0.00027672
0.000447724
0.000665785
0.00267939
0.00378178
0.00183156
0.00019239
0.000834512
0.000413622
0.00538612
0.00353709
0.000309096
0.00545622
0.00137134
0.00341552
0.00109441
0.00138657
0.000746492
0.000911626
8.91831e-05
0.000577889
0.00230795
0.0011166
0.00131404
0.00145529
0.00172844
0.000865807
0.00195462
0.00450155
0.00353673
0.0015497
0.00164582
0.00197662
0.00021989
0.00143057
0.00166765
0.000836021
0.000859965
0.001285
0.000213308
0.00053271
0.000292298
0.00373112
0.000804152
0.00292472
0.00146305
0.00490067
0.00202564
0.000111959
0.00456684
0.00112991
0.000539933
0.000646153
0.000576199
0.00101796
0.000865629
0.00139062
0.00222445
0.00225782
0.00161085
0.00153816
0.00220283
0.00298922
0.00172263
0.00165893
0.00379958
0.00194466
0.00162595
0.000795938
0.0027987
0.000511625
0.000235668
0.00269072
0.00112114
0.000505417
0.00146958
0.000959763
0.00083977
0.000831561
0.00139727
0.0020376
0.00371617
0.00159038
0.00164708
0.000900244
0.00511528
0.0048113
0.000527129
0.00171365
0.0024584
0.0016901
0.00326117
0.000206475
0.000248715
0.00427682
0.002105
0.00182522
0.0029941
0.000940903
0.00197557
0.00201191
0.0023426
0.000628489
0.0014714
0.00255583
0.00257329
0.000371099
0.00468489
0.00246114
0.00667748
0.00202972
0.00515862
0.00498154
0.00017011
0.00535772
0.00320291
0.00249873
0.000748887
0.00378334
0.0039081
0.00250927
0.00249468
0.00275501
0.00195978
0.00509784
0.00306735
0.00215169
0.00271855
0.00573661
0.00554468
0.00371143
0.00206905
0.000780865
0.00250021
0.00123372
0.00223193
0.00234212
0.000889549
0.00191174
0.00112155
0.00525596
0.00164683
0.000372324
0.000215795
0.00134793
0.000996259
0.000901537
0.00237339
0.00263423
0.00484532
0.00524981
0.000745949
0.000808745
0.00283056
0.000613714
0.00241272
0.00234088
0.000582174
0.00508394
0.0025536
0.00225453
0.0034668
0.00214863
0.0019999
0.00431581
0.000929962
0.00160012
0.00190448
0.00322607
0.000222197
0.0037958
0.00119139
0.0061675
0.000843711
0.00217406
0.00261681
0.00123942
0.0010088
0.00328866
0.000366736
0.00422573
0.00287613
0.00356871
0.00156173
0.000473078
0.0030141
0.000443995
0.000476098
0.00434356
0.00434624
1.31492e-05
0.00111831
0.00247497
0.00071241
0.00161393
0.00322839
0.000597411
0.00316898
0.000977009
0.000132956
0.000600816
0.00405532
0.00115001
0.000433034
0.00164138
0.000637262
0.00132648
0.00242643
0.00306897
0.00185635
0.000398677
0.00132965
9.05796e-05
0.000790847
0.00396639
0.000712661
0.000966599
0.000858209
0.00503996
0.003797
0.00335739
0.00394204
0.00170979
0.00142901
0.00334074
0.00091598
0.00215343
0.0033915
0.00134656
0.00142319
0.000554441
0.000994371
0.00247009
9.83193e-05
0.000111414
0.00254313
0.00329996
0.00171704
0.000263272
2.09127e-05
0.000574168
0.000573787
0.000582796
0.00241699
0.000122465
0.00142417
0.000411687
0.00024774
0.00120347
0.0014951
2.72968e-06
0.000362245
0.000131233
0.000615671
0.000517358
0.000702949
0.00337668
0.001146
0.00176044
0.00129015
0.00230486
0.00177355
0.003618
0.00226015
0.00077411
1.81892e-05
6.01778e-05
0.00313844
0.000368304
0.00761184
0.00232384
0.00174914
0.00416053
0.000523032
0.000510069
0.00313901
0.00139353
0.00177256
0.00477978
0.00301485
0.00231613
0.00542253
0.00140707
0.001855
0.000224028
0.00135776
0.000662533
0.000681121
0.00492667
0.00790201
0.000355771
0.00415771
0.00025178
0.001879
1.86511e-05
0.00138486
0.000106792
0.0042998
0.000279605
0.000439333
0.000107363
0.00037243
0.00314933
0.000410563
0.00249723
0.000112172
0.00104667
0.000845258
0.00428925
0.00270548
0.00342497
0.00329319
0.000133583
0.00334251
0.0021679
0.00289167
0.00153563
0.000763324
0.00148831
0.00308009
0.00235595
0.00320209
0.00426943
0.000612945
0.001775
0.0042265
0.00267416
0.000908257
0.00101721
0.00602569
0.00355374
0.004274
0.00206873
0.00299101
0.00267071
0.00119388
0.000179332
0.00129911
0.000452009
0.00374086
0.00428665
0.00115597
0.0022378
0.00338752
0.00249937
0.00061324
0.00230151
0.000854375
0.00114598
0.00470099
0.00102902
0.00257176
0.000842883
0.00164042
0.00210019
0.000914557
0.000743758
0.00128656
0.00301444
0.00211997
0.00395613
0.00168566
0.00178984
0.00328455
0.000451338
0.00391523
0.000302022
0.00334033
0.00230183
6.59382e-05
0.00316192
0.00321873
0.000627843
7.61807e-05
0.000947536
0.00119199
0.0016583
0.000323533
0.00210856
0.00384001
0.00477539
0.00213759
0.000359288
0.00123768
0.00179979
0.000300695
0.000263212
0.000335703
0.000805827
0.00533905
0.000602952
0.00144251
0.00136567
0.000378588
0.00123872
0.00210583
0.00351546
0.00247694
0.000506929
0.000254847
0.00257539
0.0039823
0.00263238
0.00206448
0.00175377
0.000934675
0.00111898
0.000305463
0.0026573
0.00351958
0.00212276
0.00356757
0.00208103
0.00184695
0.000915784
0.00390684
0.000105931
0.00111655
0.00220448
0.000396788
0.00200339
0.00151137
0.00268393
0.000282001
0.00439389
0.000388595
0.00167032
0.000463542
7.0079e-05
0.00746852
0.00264919
0.00252577
0.000219865
0.000184132
0.00131091
0.00346245
0.00339636
0.00289783
0.00400004
0.00519081
0.00303385
0.00278718
0.00242844
0.00250965
0.00098277
1.45768e-05
0.00217905
0.000941048
0.00540091
0.00758277
0.00132667
0.00216293
0.000396722
0.00267092
0.000467163
0.00333789
0.00224324
0.00199599
0.000120772
0.000135304
0.00373023
0.000635585
0.00439359
0.000553791
0.00262831
8.99486e-05
0.000768539
0.000544346
0.00494958
0.00585801
0.0020809
0.00236188
0.00191586
0.000283712
0.000306837
0.00255156
0.000392719
0.00186303
0.00578525
7.6937e-06
0.00547683
0.00363304
0.00214806
0.0036538
0.00407228
0.00177285
0.00287219
0.00226904
0.00638063
0.00168888
0.000511644
0.00156416
0.00103902
0.00258519
0.000163232
0.0047421
0.00277123
0.0030692
0.0022365
0.00212693
0.00270378
0.00189883
0.00481889
0.000628914
0.00204993
0.00269614
0.000939325
0.00156178
0.00221167
0.00359958
0.00368505
0.00182899
0.00367964
0.00287207
0.000789885
0.000531895
0.00169227
0.00350548
8.1521e-05
0.00243365
0.00458466
0.0030272
0.000891765
0.00299773
0.000529199
0.00226474
0.000625043
0.000500382
0.00381044
0.00255798
0.000165411
0.000300911
0.00198441
0.00152932
0.000183017
0.00197028
0.00145372
0.000968343
0.00406572
0.000364107
0.00241352
0.00363498
0.000229004
0.00641166
0.00261423
0.00084599
0.00284682
0.00383845
0.00394964
0.00434712
0.000624446
0.00071939
0.000583591
0.00170648
0.00189645
0.0014494
0.00012367
0.00114823
0.00141756
0.00131628
0.00212842
0.000321698
0.00310129
0.0018822
0.000436547
1.52689e-05
0.000818937
0.00394639
0.00236444
0.00213137
0.00274223
0.00171943
0.000184537
0.00134119
0.00283938
0.00131588
0.0024829
0.0035962
0.000279832
0.00482874
0.00067442
0.00117043
0.000125467
0.00105985
0.00172443
0.0010491
0.000221438
0.000781711
0.000487061
0.00677772
0.00741592
0.00330919
0.00109029
0.00126012
0.000144619
0.0027075
0.0029215
0.00458545
0.00436583
0.00514195
0.00464051
0.000203469
0.00240916
0.0015648
0.00104165
0.000733646
0.00187144
0.00344826
0.00453959
0.00672449
0.00425667
0.00693221
0.00302751
0.00419589
0.00196934
0.00482933
0.00534784
0.00412147
0.00378188
0.00304512
0.00504964
0.004405
0.00559689
0.00172596
0.0026187
0.000450271
0.000272261
0.00351383
0.00322436
0.00518717
0.00360378
0.00275589
0.00272085
0.00152926
0.000128074
0.00366135
0.000349475
0.00100298
0.00225408
0.00268586
0.00473145
0.00273306
0.000205949
0.00457556
0.00239452
0.00393972
0.00102101
0.00144802
0.0021511
0.00630336
0.00144254
0.00377491
0.00180858
0.001954
0.00158515
0.00106682
0.00334885
0.00209449
0.00271089
0.00323157
0.00323694
0.00526084
0.00262952
0.000528035
0.000949012
0.000663576
0.00199444
0.00188632
0.00417667
0.00402811
0.00424156
0.000121902
0.00233165
8.77169e-05
0.00228162
0.00168558
0.0028994
0.00280195
0.00264712
0.00526533
0.00636798
0.00196691
0.00385196
0.0012987
0.00324824
0.00052233
0.000295894
0.0015244
0.000601035
0.00278209
0.00309562
0.000665668
0.00123453
0.000666502
0.000911721
0.000551124
2.11393e-06
0.00133477
0.00125971
0.00244963
0.00372617
0.00291703
0.000606315
0.00191052
0.000614964
0.00243659
0.000351958
0.00186113
6.82994e-05
0.0051423
6.212e-05
0.000653759
0.000438707
0.0025695
0.0019041
0.000765387
0.00142907
0.00171742
0.000154078
0.00243924
0.00148562
0.000762518
0.00162906
1.75219e-05
0.000142836
0.00225501
0.000326403
0.00339886
0.000392375
0.00163929
0.00204509
0.000595966
0.000747386
0.00191075
0.000112903
0.00374696
0.00251889
0.00180276
0.00489015
0.000810646
0.00239646
0.000395596
0.00180031
0.00133981
0.00156442
0.00150691
0.001138
0.0012086
0.00243616
0.00855913
0.00388304
0.00289514
0.00132009
2.72985e-07
0.00115759
0.000692617
0.00301921
0.00277791
0.00303139
0.00189724
0.00232245
0.00244146
0.00240552
0.00154336
0.000655253
0.000983471
0.00231936
0.000159391
0.00294833
0.00390456
0.000155653
0.00287113
0.00107275
0.00155407
0.000544847
0.000234076
0.000116543
0.00541214
8.47427e-05
0.000699798
0.00296843
8.3444e-05
0.00159811
0.000817686
0.00102501
0.000957384
0.00111
0.000262196
0.000718437
0.00710313
0.00532735
0.00417302
0.00203633
0.00140644
0.000705885
0.00196056
0.00271317
0.00201603
0.00243264
0.00559973
0.00439132
0.00169774
0.00312999
0.00110073
0.00219616
0.00207461
0.00157916
0.000503624
0.00164907
0.00776939
0.00316144
0.00243402
0.00479792
0.00407143
0.000511775
0.00205359
0.00283645
0.00348849
0.0026923
0.00561126
0.00259874
0.00249516
0.00237889
0.00365127
0.00107761
0.002455
0.0025487
0.00271311
0.00324232
0.00422515
0.00253937
0.00171642
0.000404871
0.000560155
0.000971392
0.001418
0.00105465
4.00619e-06
0.000131492
0.00265074
0.00284281
0.00476719
0.00282646
0.00402532
0.00185348
0.00076752
0.000639907
0.000820651
0.00158142
0.00171022
0.00339143
0.000921879
0.000135554
0.000904752
0.00035498
0.00255265
0.00110574
0.000746226
0.00591001
0.000595309
0.00274166
0.000517429
0.0023325
0.00183731
0.00129661
0.00133075
0.000377446
0.000490929
0.000907757
0.00282856
0.000520881
0.00136574
0.000157539
0.00233843
0.00153034
0.000265869
0.000216592
0.000438978
0.00231139
0.00167234
0.000892138
0.00305807
0.00130634
0.00132394
0.000239343
0.00039717
0.000118577
0.000354305
0.00312734
0.00121748
0.00114502
0.000616303
0.000660265
0.000766024
0.000910429
0.00084371
0.00211967
0.00319786
0.00112583
0.000252677
0.00119187
0.0010686
0.000765931
0.00350139
0.00350251
0.00224872
0.0015647
0.00184286
0.00127576
0.00386868
0.00613319
0.000980847
0.00311318
0.000315356
0.00173384
0.00141474
0.000935919
0.0038575
0.0029364
0.00413656
0.00326967
0.00324449
0.00105591
0.00151075
0.00242365
0.00221146
0.00332177
5.80517e-05
0.000841799
0.00197234
0.000378341
0.00370989
0.000856402
0.00379129
0.00378705
0.00586598
0.00116191
0.00259044
0.0030054
0.00547606
0.00214166
0.00194825
0.00146476
0.000237931
0.00386801
0.00122025
0.00166755
0.00170465
0.00508793
0.00160875
0.00376329
0.00156584
0.000182571
0.0042409
0.000659306
0.00142089
0.00153983
0.00115932
0.0023728
0.00223681
0.00319138
0.00023229
0.00273409
0.00247045
3.96063e-06
0.0040587
0.000919429
0.00426356
0.000562534
0.00214882
0.00287801
0.00406775
0.00102668
0.00438964
0.00220841
0.0025316
0.00194758
0.000662058
0.00312007
0.00228849
0.00461028
0.00361477
0.00426922
0.000222308
0.00106174
0.00277383
3.37611e-05
0.000885312
0.000991103
0.00277273
0.00124232
0.00164454
0.00137808
0.000278199
0.00131904
0.00170842
0.000777416
0.00177339
0.00225641
0.000147465
0.00357879
0.00081441
0.000118942
0.000384275
0.000991493
0.00382175
0.00340248
4.43656e-05
0.00260409
0.00207982
0.00169809
0.00132822
0.000587027
0.00117168
0.00269551
0.00120791
1.60661e-05
0.00324589
0.00219869
3.25592e-05
0.000649268
0.00011185
0.00195353
6.96357e-05
0.00147499
0.00109007
0.000583026
0.000531725
0.001046
0.000804939
0.00040974
2.1096e-05
0.000990098
0.00151651
0.000217317
0.00201111
6.17223e-05
0.000821803
0.000130228
0.00336747
0.000576637
0.000239463
8.44607e-05
0.00163456
0.00147728
0.00442409
0.00316816
0.00240761
0.00359502
5.05063e-05
0.00224953
0.00359317
0.00129771
0.00280323
0.000909253
0.000355839
0.00141559
0.00129098
0.00164606
0.000569348
0.00063191
0.00232569
0.000180294
0.00164752
0.000222868
0.000817799
0.00363455
0.00108777
0.000602709
0.00663
0.00449422
0.000302794
0.000905642
0.00193834
0.00145412
2.89007e-05
0.00304443
0.00227343
0.000640499
0.00244112
0.0069618
0.00417015
0.00237251
0.000617962
4.41136e-05
0.00346407
1.40389e-05
0.00151026
0.000464617
0.00492546
0.000563254
0.000730401
0.00108214
0.000408014
0.00125231
0.000624351
0.000817222
0.00521527
0.000250576
0.000333881
0.00211469
0.000326111
0.00274981
0.000742159
0.00265437
6.64149e-05
0.00139198
0.000357157
0.00442927
0.00176613
0.00208799
0.00113294
0.00111582
0.00117799
0.000841152
0.00201121
0.00287007
0.00154623
0.00210114
0.00435846
0.00102903
0.00139093
0.00193847
0.000870058
0.00160845
0.00139374
0.000327266
0.00190886
0.00378384
0.0041962
0.00296523
0.000930014
0.00117601
0.00359128
0.000824261
0.000683276
0.00329626
0.00013707
0.000607163
0.0012459
0.000288158
0.000543085
0.00123655
0.00359941
0.00131908
0.00256476
0.000530742
0.000624416
0.0013365
0.00331371
0.00353831
0.00194506
0.00205607
0.00161109
0.000100663
0.0032521
0.00116555
0.00144756
0.00444426
0.000363347
0.000360282
0.00317163
0.0017734
0.00292187
0.000208624
0.00279973
0.000911968
0.000496824
0.000808112
0.00374282
0.00129835
0.00262607
0.000853806
0.00156744
0.00169565
0.00141258
0.000703993
0.00217885
0.000564005
0.00105971
0.00434642
0.00113223
0.000778708
0.000390572
0.00114593
0.00235083
0.00137379
0.00261879
0.0011416
0.000995549
0.00225804
0.0016391
0.000681009
0.00373981
0.00318627
0.00473099
0.000109876
0.000628188
0.00310609
0.00218435
0.000833976
0.000680404
0.00216038
0.000553812
0.00211651
0.00215531
0.00060791
0.00240067
0.00399278
0.000939796
0.00247687
0.000380956
0.00389599
0.00110142
5.73752e-05
0.00033224
0.000903091
0.00348365
0.000436209
0.00142757
0.00165494
0.00236437
0.00232533
0.000850443
0.000943201
0.000448654
0.00223048
0.00292409
0.00295624
0.00264725
0.00406612
0.00215232
0.00229284
0.00120535
0.000530174
0.00266151
0.00334164
6.72257e-05
0.00201723
0.00141811
0.00590267
0.00025952
0.00369476
0.000936804
0.000902197
0.000120379
0.00305629
0.00134287
0.0015879
0.00256347
0.0052345
0.00337214
0.00342451
0.00170988
6.3787e-05
0.00143494
0.000990127
0.00178859
0.00215798
0.00281483
0.000364709
0.000165554
0.000618921
0.00356442
0.00045393
0.00146229
0.00158759
0.000323914
0.00219954
0.00170939
0.00421287
0.000708532
6.87969e-05
0.00219019
0.000565018
0.00125428
0.00020602
0.00163879
0.000568267
0.000355992
6.83498e-06
0.000607015
0.000878959
0.00436001
0.00100345
0.00220166
0.00115547
0.000368248
0.0020596
0.00422882
0.00110996
0.00421151
0.00107793
5.89348e-05
0.000981275
0.000838292
0.00252199
0.000418087
0.00184243
0.00374209
0.00171543
0.000686071
1.49472e-05
0.000959222
0.00219857
0.000271545
3.00927e-05
0.000551141
0.00190069
0.00373116
0.00478861
0.00304544
0.000456261
0.00253874
0.000414269
0.00207408
0.00226229
0.00108985
0.00116915
0.00140507
0.00512584
0.00111956
0.00362804
0.004875
0.000462363
0.000150498
0.00100135
0.000426812
0.000920325
0.000281724
0.00074811
0.00119069
0.00116537
0.00148067
0.000673006
0.000645354
0.00112167
0.00224666
0.000337404
0.000424163
0.00166387
0.00030241
6.33735e-05
0.000234806
0.00186647
0.00242037
0.00135802
0.00109119
0.00183637
0.000880021
0.000608678
0.00131307
0.000956205
0.00140628
0.0028357
0.0010237
0.000891202
0.00255291
0.000429189
0.000130456
0.00116645
0.00145096
0.00236339
0.000895683
0.00114084
0.00276649
0.00237501
0.00275969
0.0017467
0.00146655
0.00101021
0.00189365
0.00124793
0.00347932
0.00112624
2.38521e-05
3.2e-05
0.000571514
0.00261699
0.000814797
0.00258552
0.000812802
0.00123814
0.00198752
0.00277501
0.00422284
0.0014613
4.29895e-05
0.000169384
0.00113755
0.00258694
0.00233111
3.3084e-05
0.000876459
0.0020436
0.000110804
0.00246945
0.00279932
0.000972417
0.000181032
0.000661072
0.000818639
0.00132228
0.000890228
0.00238371
0.000876103
0.00129977
0.000242348
0.00223878
0.00426842
7.21054e-05
0.000158603
0.000116059
0.000737383
0.00038258
0.00349985
9.40649e-05
0.000823382
0.000851456
0.00130806
0.000336335
0.000800118