/*--------------------------------*- C++ -*----------------------------------*\
| =========                 |                                                 |
| \\      /  F ield         | OpenFOAM: The Open Source CFD Toolbox           |
|  \\    /   O peration     | Version:  2212                                  |
|   \\  /    A nd           | Website:  www.openfoam.com                      |
|    \\/     M anipulation  |                                                 |
\*---------------------------------------------------------------------------*/
FoamFile
{
    version     2.0;
    format      ascii;
    arch        "LSB;label=32;scalar=64";
    class       volScalarField;
    location    "0";
    object      T;
}
// * * * * * * * * * * * * * * * * * * * * * * * * * * * * * * * * * * * * * //

dimensions      [0 0 0 1 0 0 0];

internalField   nonuniform List<scalar> 
3200
(
364.343
363.378
362.618
362.422
362.826
363.545
364.172
364.723
365.237
365.617
365.606
365.312
364.823
363.918
362.971
361.925
361.129
360.698
361.014
361.682
356.992
356.193
355.549
355.364
355.735
356.356
356.908
357.374
357.817
358.139
358.134
357.915
357.521
356.706
355.918
355.013
354.363
353.957
354.234
354.783
349.259
348.554
348.049
347.905
348.181
348.755
349.202
349.616
349.961
350.21
350.246
350.074
349.733
349.052
348.403
347.643
347.133
346.736
347.012
347.46
341.076
340.516
340.123
340.024
340.234
340.713
341.082
341.396
341.691
341.853
341.939
341.804
341.517
340.963
340.423
339.831
339.456
339.083
339.329
339.684
332.505
332.082
331.771
331.714
331.879
332.251
332.533
332.763
332.994
333.11
333.226
333.105
332.892
332.445
332.022
331.573
331.291
331
331.194
331.499
323.577
323.267
323.05
323.023
323.114
323.395
323.595
323.736
323.915
324.015
324.115
324.013
323.88
323.524
323.238
322.925
322.707
322.528
322.646
322.863
314.317
314.134
314.008
314
314.048
314.211
314.335
314.418
314.512
314.592
314.65
314.59
314.522
314.291
314.115
313.945
313.809
313.71
313.762
313.899
304.839
304.761
304.728
304.725
304.743
304.794
304.841
304.869
304.898
304.924
304.951
304.919
304.917
304.826
304.762
304.701
304.656
304.628
304.65
304.689
364.068
363.152
362.575
362.569
362.925
363.63
364.399
365.032
365.677
365.947
366.019
365.615
365.02
364.099
363.184
361.912
361.126
360.647
360.911
361.53
356.769
356.031
355.553
355.543
355.832
356.433
357.101
357.648
358.193
358.418
358.495
358.147
357.648
356.869
356.083
354.997
354.34
353.924
354.148
354.641
349.067
348.477
348.089
348.07
348.285
348.816
349.369
349.835
350.267
350.474
350.545
350.244
349.826
349.184
348.556
347.651
347.097
346.764
346.935
347.31
340.938
340.49
340.187
340.17
340.324
340.749
341.22
341.592
341.905
342.089
342.19
341.944
341.589
341.073
340.575
339.837
339.396
339.114
339.25
339.547
332.394
332.079
331.844
331.843
331.956
332.279
332.638
332.93
333.146
333.287
333.402
333.207
332.935
332.539
332.152
331.582
331.241
331.025
331.136
331.356
323.489
323.28
323.121
323.093
323.183
323.421
323.671
323.878
324.017
324.141
324.228
324.092
323.875
323.601
323.336
322.922
322.683
322.508
322.629
322.778
314.261
314.134
314.043
314.028
314.093
314.228
314.383
314.5
314.585
314.648
314.734
314.634
314.494
314.332
314.172
313.931
313.781
313.678
313.771
313.861
304.822
304.763
304.732
304.746
304.757
304.803
304.862
304.891
304.917
304.941
304.981
304.945
304.887
304.837
304.781
304.703
304.647
304.608
304.641
304.693
363.905
363.12
362.626
362.656
363.123
363.769
364.568
365.387
366.14
366.463
366.676
366.239
365.471
364.612
363.425
362.08
361.295
360.895
361.058
361.433
356.615
355.983
355.576
355.609
355.976
356.548
357.234
357.966
358.563
358.846
359.051
358.687
358.009
357.276
356.288
355.147
354.479
354.127
354.293
354.547
348.944
348.44
348.095
348.131
348.407
348.9
349.473
350.122
350.57
350.82
350.989
350.708
350.118
349.497
348.724
347.75
347.191
346.913
347.071
347.23
340.865
340.484
340.184
340.223
340.429
340.81
341.278
341.807
342.17
342.376
342.523
342.293
341.824
341.301
340.704
339.92
339.459
339.237
339.388
339.483
332.371
332.089
331.876
331.856
332.034
332.3
332.67
333.09
333.375
333.53
333.649
333.458
333.098
332.704
332.261
331.663
331.283
331.126
331.251
331.293
323.48
323.29
323.136
323.108
323.237
323.408
323.686
323.984
324.192
324.286
324.387
324.251
323.99
323.726
323.403
322.99
322.715
322.618
322.695
322.718
314.259
314.153
314.077
314.042
314.115
314.22
314.379
314.57
314.68
314.739
314.827
314.731
314.551
314.415
314.219
313.981
313.814
313.767
313.808
313.811
304.808
304.786
304.742
304.746
304.768
304.805
304.851
304.922
304.952
304.977
305.001
304.975
304.914
304.864
304.804
304.718
304.658
304.657
304.658
304.658
364.01
363.271
362.892
362.968
363.456
364.157
365.019
365.902
366.755
367.072
367.358
366.915
366.144
365.14
363.886
362.603
361.673
361.116
361.156
361.457
356.702
356.094
355.804
355.882
356.289
356.882
357.595
358.365
359.092
359.373
359.638
359.238
358.583
357.74
356.672
355.574
354.791
354.318
354.37
354.569
348.976
348.518
348.296
348.373
348.669
349.186
349.767
350.421
351.034
351.256
351.501
351.145
350.619
349.906
349.03
348.093
347.453
347.064
347.128
347.238
340.866
340.518
340.328
340.406
340.617
341.049
341.52
342.051
342.571
342.736
342.955
342.621
342.232
341.644
340.905
340.185
339.655
339.339
339.427
339.492
332.354
332.087
331.941
331.988
332.162
332.496
332.87
333.274
333.678
333.783
333.985
333.713
333.414
332.976
332.408
331.84
331.436
331.2
331.254
331.316
323.434
323.275
323.157
323.19
323.336
323.571
323.851
324.132
324.408
324.476
324.644
324.417
324.225
323.891
323.518
323.125
322.811
322.653
322.677
322.745
314.222
314.129
314.044
314.091
314.189
314.318
314.485
314.643
314.818
314.863
314.966
314.825
314.726
314.511
314.28
314.071
313.866
313.774
313.787
313.84
304.79
304.763
304.752
304.761
304.789
304.839
304.884
304.948
305.006
305.01
305.06
305.003
304.968
304.898
304.816
304.754
304.674
304.656
304.657
304.67
364.246
363.748
363.382
363.49
363.939
364.627
365.668
366.507
367.389
367.918
368.213
367.7
366.808
365.794
364.48
363.232
362.136
361.519
361.668
361.902
356.892
356.535
356.222
356.344
356.697
357.276
358.168
358.886
359.638
360.086
360.343
359.925
359.138
358.28
357.171
356.106
355.196
354.655
354.803
354.936
349.14
348.895
348.64
348.754
349.048
349.523
350.241
350.86
351.473
351.851
352.081
351.723
351.06
350.35
349.451
348.544
347.791
347.349
347.467
347.562
340.999
340.815
340.64
340.708
340.948
341.316
341.898
342.42
342.904
343.196
343.371
343.1
342.562
342.03
341.296
340.531
339.941
339.579
339.674
339.744
332.441
332.329
332.188
332.243
332.415
332.723
333.169
333.573
333.944
334.157
334.283
334.078
333.689
333.296
332.69
332.101
331.657
331.388
331.458
331.508
323.489
323.456
323.343
323.401
323.505
323.721
324.061
324.34
324.602
324.754
324.845
324.698
324.409
324.149
323.721
323.306
322.994
322.789
322.846
322.874
314.261
314.252
314.174
314.241
314.283
314.408
314.619
314.792
314.943
315.02
315.083
314.985
314.821
314.67
314.414
314.158
313.985
313.866
313.888
313.904
304.803
304.807
304.775
304.816
304.824
304.863
304.93
305.001
305.041
305.073
305.093
305.055
304.998
304.942
304.86
304.778
304.73
304.685
304.692
304.696
364.738
364.192
363.93
363.933
364.467
365.16
366.214
367.291
368.172
368.795
368.947
368.531
367.523
366.489
365.259
363.979
362.764
362.131
362.243
362.532
357.329
356.899
356.708
356.708
357.136
357.757
358.62
359.545
360.301
360.828
360.954
360.622
359.75
358.884
357.849
356.774
355.718
355.175
355.306
355.512
349.513
349.204
349.046
349.039
349.35
349.909
350.608
351.406
352.041
352.454
352.566
352.322
351.562
350.837
349.995
349.115
348.225
347.776
347.893
348.051
341.313
341.108
340.954
340.928
341.16
341.653
342.193
342.834
343.368
343.69
343.787
343.61
342.967
342.414
341.723
341.024
340.284
339.923
340.011
340.128
332.689
332.587
332.44
332.402
332.568
332.971
333.385
333.891
334.308
334.521
334.623
334.485
333.994
333.583
333.027
332.514
331.929
331.649
331.7
331.762
323.706
323.674
323.521
323.504
323.614
323.919
324.187
324.555
324.881
325.009
325.098
325.007
324.655
324.347
323.974
323.621
323.175
322.973
323.002
323.036
314.391
314.392
314.284
314.295
314.347
314.527
314.687
314.901
315.115
315.177
315.236
315.193
314.983
314.783
314.58
314.357
314.068
313.96
313.982
314.001
304.851
304.858
304.822
304.823
304.847
304.907
304.949
305.024
305.105
305.121
305.135
305.134
305.061
304.991
304.928
304.851
304.754
304.706
304.726
304.731
365.352
364.901
364.527
364.672
365.122
365.937
366.826
367.912
368.854
369.611
369.753
369.418
368.383
367.221
365.886
364.71
363.475
362.856
362.925
363.212
357.857
357.523
357.191
357.326
357.703
358.401
359.126
360.08
360.876
361.497
361.639
361.36
360.468
359.505
358.359
357.397
356.325
355.785
355.869
356.076
349.968
349.724
349.459
349.55
349.855
350.432
351.028
351.808
352.497
353.017
353.15
352.916
352.183
351.373
350.422
349.641
348.718
348.261
348.407
348.506
341.66
341.495
341.306
341.339
341.585
342.045
342.54
343.116
343.723
344.171
344.242
344.073
343.477
342.833
342.066
341.437
340.683
340.29
340.49
340.503
332.968
332.851
332.71
332.727
332.92
333.262
333.684
334.073
334.578
334.914
334.956
334.831
334.388
333.87
333.306
332.815
332.219
331.907
332.105
332.083
323.9
323.819
323.709
323.736
323.861
324.103
324.435
324.674
325.072
325.291
325.318
325.22
324.914
324.545
324.172
323.802
323.393
323.156
323.297
323.295
314.507
314.469
314.389
314.412
314.493
314.643
314.851
314.965
315.229
315.353
315.365
315.316
315.119
314.903
314.684
314.471
314.242
314.076
314.158
314.176
304.896
304.884
304.853
304.867
304.898
304.937
305.015
305.045
305.141
305.185
305.186
305.176
305.114
305.033
304.957
304.875
304.811
304.745
304.78
304.785
366.051
365.6
365.297
365.379
365.812
366.575
367.472
368.434
369.676
370.358
370.589
370.302
369.269
368.019
366.641
365.348
364.382
363.694
363.63
363.803
358.442
358.13
357.866
357.922
358.285
358.954
359.693
360.508
361.577
362.152
362.338
362.104
361.234
360.152
359.007
357.915
357.113
356.514
356.497
356.587
350.438
350.227
350.025
350.041
350.354
350.895
351.519
352.174
353.094
353.583
353.717
353.52
352.826
351.891
350.964
350.049
349.404
348.884
348.894
348.932
342.035
341.904
341.763
341.736
341.995
342.4
342.938
343.434
344.191
344.603
344.709
344.568
343.999
343.229
342.498
341.766
341.233
340.816
340.836
340.834
333.246
333.185
333.078
333.036
333.245
333.53
333.966
334.322
334.909
335.252
335.334
335.208
334.774
334.201
333.619
333.072
332.639
332.316
332.35
332.341
324.088
324.053
323.991
323.946
324.102
324.274
324.619
324.854
325.29
325.533
325.565
325.475
325.193
324.787
324.347
323.992
323.648
323.443
323.477
323.47
314.615
314.603
314.553
314.543
314.651
314.724
314.943
315.081
315.356
315.488
315.505
315.452
315.292
315.046
314.767
314.591
314.348
314.247
314.278
314.259
304.929
304.94
304.917
304.907
304.949
304.958
305.046
305.097
305.172
305.226
305.23
305.211
305.149
305.07
304.98
304.925
304.839
304.807
304.821
304.808
366.953
366.272
365.949
366.006
366.401
367.214
368.192
369.267
370.285
370.887
371.34
371.07
370.09
368.793
367.384
366.121
365.292
364.457
364.297
364.564
359.23
358.673
358.437
358.441
358.787
359.477
360.306
361.214
362.082
362.609
362.971
362.755
361.936
360.833
359.627
358.598
357.904
357.171
357.026
357.26
351.107
350.668
350.496
350.482
350.764
351.328
352.058
352.787
353.494
353.962
354.228
354.054
353.388
352.451
351.453
350.63
350.085
349.453
349.318
349.51
342.577
342.25
342.124
342.103
342.335
342.765
343.387
343.956
344.504
344.928
345.121
344.975
344.445
343.689
342.883
342.237
341.84
341.273
341.155
341.333
333.663
333.416
333.337
333.316
333.493
333.81
334.317
334.724
335.143
335.516
335.65
335.528
335.112
334.533
333.906
333.423
333.145
332.675
332.588
332.728
324.39
324.236
324.143
324.166
324.268
324.486
324.882
325.136
325.444
325.724
325.81
325.745
325.418
325.018
324.575
324.234
324.035
323.682
323.63
323.749
314.792
314.71
314.637
314.67
314.718
314.862
315.116
315.246
315.44
315.606
315.65
315.631
315.412
315.192
314.927
314.722
314.599
314.375
314.336
314.426
304.988
304.966
304.932
304.942
304.967
305.021
305.107
305.143
305.212
305.259
305.272
305.275
305.209
305.123
305.035
304.968
304.922
304.838
304.83
304.866
367.657
366.986
366.621
366.627
367.089
367.895
368.888
370.106
370.864
371.487
371.961
371.646
370.784
369.356
368.132
366.875
366.094
365.322
365.168
365.241
359.842
359.284
358.955
358.979
359.36
360.081
360.921
361.931
362.564
363.098
363.511
363.25
362.53
361.286
360.263
359.229
358.588
357.914
357.77
357.806
351.627
351.175
350.888
350.915
351.254
351.855
352.534
353.363
353.875
354.351
354.652
354.477
353.869
352.831
351.978
351.154
350.641
350.07
349.919
349.957
343.001
342.652
342.413
342.439
342.726
343.22
343.743
344.4
344.812
345.239
345.423
345.32
344.814
343.985
343.3
342.641
342.243
341.792
341.626
341.66
333.998
333.715
333.548
333.585
333.806
334.156
334.58
335.078
335.383
335.726
335.853
335.779
335.398
334.777
334.226
333.74
333.428
333.085
332.96
332.978
324.643
324.416
324.312
324.341
324.506
324.747
325.068
325.395
325.612
325.852
325.93
325.876
325.639
325.209
324.803
324.452
324.234
323.992
323.907
323.919
314.954
314.823
314.772
314.783
314.879
315.018
315.215
315.412
315.545
315.67
315.724
315.673
315.553
315.288
315.063
314.856
314.713
314.574
314.517
314.533
305.045
305.004
304.98
304.988
305.024
305.064
305.136
305.196
305.248
305.28
305.298
305.286
305.231
305.153
305.082
305.014
304.967
304.923
304.892
304.891
368.335
367.806
367.354
367.288
367.767
368.715
369.685
370.818
371.574
372.109
372.569
372.19
371.185
369.903
368.751
367.601
366.789
366.077
365.919
366.003
360.384
359.975
359.6
359.527
359.931
360.772
361.599
362.569
363.206
363.625
364.026
363.727
362.877
361.769
360.814
359.832
359.17
358.536
358.405
358.465
352.083
351.747
351.427
351.385
351.709
352.428
353.12
353.93
354.46
354.781
355.107
354.887
354.18
353.251
352.468
351.656
351.103
350.566
350.467
350.51
343.395
343.137
342.838
342.844
343.099
343.668
344.253
344.912
345.323
345.552
345.79
345.658
345.092
344.344
343.69
343.072
342.603
342.19
342.104
342.127
334.307
334.136
333.869
333.908
334.096
334.506
334.998
335.495
335.8
335.968
336.128
336.048
335.612
335.062
334.528
334.081
333.708
333.393
333.333
333.349
324.865
324.749
324.534
324.584
324.704
324.985
325.367
325.73
325.897
326.024
326.126
326.072
325.788
325.401
325.02
324.698
324.433
324.213
324.169
324.173
315.104
315.008
314.897
314.916
314.989
315.165
315.392
315.63
315.699
315.788
315.835
315.799
315.657
315.4
315.193
314.996
314.847
314.697
314.692
314.669
305.099
305.065
305.032
305.03
305.049
305.127
305.194
305.277
305.291
305.325
305.339
305.322
305.262
305.189
305.126
305.067
305.01
304.968
304.96
304.951
368.989
368.528
368.114
368.051
368.455
369.409
370.161
371.16
372.073
372.594
372.857
372.517
371.676
370.546
369.332
368.208
367.464
366.811
366.614
366.802
360.97
360.605
360.225
360.157
360.535
361.352
362.006
362.86
363.614
364.078
364.287
364.001
363.291
362.318
361.292
360.346
359.757
359.177
358.992
359.144
352.569
352.283
351.948
351.894
352.231
352.905
353.441
354.177
354.775
355.196
355.359
355.119
354.526
353.716
352.851
352.082
351.627
351.089
350.96
351.071
343.764
343.567
343.28
343.243
343.508
344.083
344.498
345.113
345.567
345.924
346.07
345.828
345.359
344.728
344.022
343.428
343.053
342.593
342.512
342.59
334.558
334.456
334.22
334.226
334.375
334.853
335.168
335.645
335.975
336.274
336.384
336.179
335.815
335.339
334.785
334.356
334.069
333.699
333.669
333.707
325.013
324.963
324.79
324.827
324.898
325.263
325.47
325.794
326.03
326.252
326.341
326.176
325.93
325.584
325.182
324.9
324.693
324.432
324.404
324.432
315.173
315.158
315.06
315.079
315.105
315.356
315.466
315.644
315.811
315.906
315.974
315.884
315.733
315.525
315.262
315.122
314.994
314.835
314.815
314.837
305.126
305.113
305.086
305.092
305.089
305.177
305.223
305.274
305.34
305.364
305.385
305.362
305.306
305.228
305.15
305.105
305.05
305.006
305
305.003
369.562
369.286
368.875
368.694
369.151
369.994
370.732
371.649
372.496
373.031
373.236
372.784
372.104
371.065
369.888
368.773
368.107
367.471
367.219
367.494
361.414
361.227
360.876
360.731
361.12
361.854
362.463
363.229
364.01
364.453
364.615
364.218
363.641
362.785
361.752
360.804
360.286
359.729
359.504
359.727
352.905
352.778
352.477
352.385
352.706
353.342
353.814
354.466
355.139
355.514
355.618
355.274
354.794
354.116
353.218
352.431
352.033
351.568
351.364
351.565
344.029
343.934
343.698
343.639
343.906
344.406
344.791
345.317
345.864
346.185
346.253
345.989
345.58
345.061
344.315
343.659
343.37
342.994
342.839
342.974
334.796
334.699
334.519
334.497
334.714
335.087
335.377
335.798
336.225
336.483
336.506
336.315
335.988
335.596
335.015
334.517
334.302
334.001
333.896
334.01
325.205
325.138
324.976
324.994
325.135
325.417
325.605
325.909
326.225
326.393
326.421
326.282
326.051
325.772
325.345
324.994
324.853
324.648
324.571
324.661
315.305
315.249
315.139
315.177
315.258
315.419
315.527
315.714
315.917
315.999
316.025
315.933
315.785
315.642
315.364
315.168
315.091
314.954
314.936
314.962
305.168
305.151
305.099
305.125
305.145
305.201
305.238
305.305
305.366
305.391
305.4
305.372
305.322
305.274
305.19
305.121
305.077
305.045
305.052
305.053
370.337
369.938
369.468
369.538
369.88
370.654
371.292
372.071
372.805
373.308
373.448
373.099
372.407
371.537
370.393
369.387
368.709
368.122
367.927
368.128
362.075
361.787
361.392
361.456
361.743
362.382
362.966
363.6
364.25
364.703
364.802
364.491
363.901
363.178
362.197
361.347
360.794
360.284
360.108
360.277
353.468
353.248
352.923
352.98
353.211
353.748
354.242
354.767
355.314
355.73
355.781
355.516
355.01
354.428
353.589
352.91
352.463
352.012
351.844
352.004
344.491
344.326
344.05
344.097
344.281
344.725
345.118
345.557
346.013
346.368
346.395
346.173
345.765
345.315
344.623
344.068
343.72
343.325
343.194
343.319
335.138
335.021
334.805
334.848
334.978
335.335
335.615
335.976
336.338
336.604
336.618
336.464
336.143
335.819
335.284
334.83
334.561
334.236
334.133
334.247
325.427
325.365
325.194
325.228
325.33
325.581
325.76
326.047
326.286
326.501
326.503
326.387
326.178
325.932
325.569
325.235
325.036
324.792
324.728
324.808
315.444
315.405
315.282
315.305
315.369
315.512
315.608
315.801
315.923
316.072
316.086
316.001
315.888
315.735
315.536
315.317
315.188
315.046
315.025
315.054
305.205
305.195
305.166
305.159
305.192
305.23
305.267
305.327
305.379
305.421
305.415
305.394
305.356
305.305
305.24
305.165
305.115
305.081
305.08
305.079
371.314
370.69
370.258
370.318
370.551
371.119
371.748
372.519
373.159
373.681
373.647
373.341
372.822
371.842
370.787
369.962
369.431
368.827
368.828
368.77
362.925
362.413
362.053
362.112
362.321
362.794
363.334
363.984
364.543
365.007
364.945
364.7
364.283
363.455
362.505
361.851
361.419
360.867
360.894
360.802
354.19
353.773
353.475
353.511
353.711
354.1
354.542
355.088
355.554
355.933
355.884
355.713
355.335
354.667
353.846
353.359
352.975
352.509
352.535
352.437
345.089
344.721
344.494
344.522
344.712
345.027
345.372
345.831
346.185
346.489
346.475
346.327
346.01
345.488
344.817
344.448
344.133
343.753
343.753
343.684
335.613
335.313
335.148
335.179
335.324
335.567
335.841
336.197
336.452
336.693
336.682
336.575
336.325
335.916
335.409
335.129
334.906
334.597
334.597
334.527
325.797
325.573
325.442
325.475
325.586
325.75
325.947
326.186
326.371
326.54
326.551
326.472
326.268
325.994
325.627
325.426
325.29
325.082
325.083
325.011
315.652
315.503
315.445
315.455
315.531
315.601
315.742
315.886
315.998
316.082
316.102
316.065
315.924
315.769
315.535
315.429
315.343
315.237
315.233
315.185
305.285
305.221
305.205
305.22
305.245
305.254
305.316
305.349
305.401
305.421
305.426
305.417
305.364
305.319
305.245
305.207
305.18
305.151
305.143
305.112
372.215
371.474
371.149
371.012
371.269
371.708
372.344
373.091
373.655
374.022
374.028
373.636
373.11
372.262
371.293
370.663
369.93
369.651
369.606
369.755
363.7
363.083
362.809
362.722
362.92
363.268
363.855
364.475
364.991
365.299
365.295
364.976
364.507
363.777
362.954
362.459
361.835
361.603
361.541
361.611
354.832
354.338
354.102
354.045
354.201
354.488
354.983
355.476
355.929
356.195
356.184
355.922
355.541
354.924
354.244
353.841
353.33
353.134
353.079
353.088
345.598
345.202
345.023
344.981
345.083
345.34
345.733
346.109
346.499
346.712
346.703
346.483
346.191
345.697
345.142
344.826
344.419
344.242
344.225
344.179
335.982
335.685
335.571
335.518
335.612
335.79
336.087
336.366
336.686
336.887
336.872
336.692
336.48
336.085
335.639
335.417
335.106
334.961
334.961
334.883
326.036
325.82
325.761
325.714
325.768
325.901
326.113
326.27
326.562
326.697
326.681
326.574
326.39
326.117
325.795
325.656
325.429
325.304
325.32
325.255
315.796
315.653
315.635
315.609
315.621
315.717
315.84
315.922
316.106
316.187
316.177
316.126
315.992
315.829
315.652
315.573
315.442
315.354
315.365
315.306
305.328
305.281
305.273
305.265
305.266
305.293
305.346
305.366
305.437
305.453
305.456
305.437
305.393
305.336
305.292
305.255
305.207
305.18
305.184
305.16
373.066
372.467
371.871
371.902
372.082
372.318
372.922
373.494
374.093
374.254
374.309
374.09
373.503
372.605
371.867
371.283
370.648
370.36
370.351
370.482
364.401
363.916
363.42
363.436
363.617
363.811
364.345
364.821
365.342
365.474
365.525
365.345
364.853
364.061
363.425
362.952
362.436
362.187
362.151
362.252
355.391
355.002
354.624
354.602
354.797
354.937
355.368
355.776
356.226
356.325
356.387
356.233
355.829
355.154
354.619
354.259
353.827
353.62
353.561
353.636
346.026
345.717
345.439
345.416
345.582
345.697
346.031
346.354
346.735
346.829
346.89
346.748
346.42
345.88
345.436
345.154
344.819
344.652
344.587
344.619
336.325
336.069
335.878
335.873
335.995
336.076
336.319
336.578
336.879
336.942
337.012
336.897
336.64
336.222
335.886
335.661
335.414
335.283
335.233
335.236
326.277
326.104
325.967
325.977
326.078
326.109
326.277
326.45
326.675
326.714
326.775
326.701
326.5
326.205
325.965
325.839
325.64
325.577
325.503
325.491
315.943
315.826
315.764
315.742
315.836
315.82
315.94
316.035
316.175
316.181
316.226
316.196
316.063
315.889
315.749
315.699
315.548
315.526
315.475
315.468
305.371
305.333
305.32
305.314
305.341
305.325
305.367
305.405
305.453
305.452
305.476
305.459
305.41
305.362
305.318
305.304
305.249
305.238
305.219
305.225
373.909
373.368
372.762
372.715
372.903
373.127
373.533
374.06
374.592
374.536
374.501
374.404
373.865
373.086
372.411
371.74
371.251
371.105
371.107
371.499
365.114
364.693
364.171
364.152
364.32
364.499
364.846
365.318
365.757
365.705
365.671
365.608
365.155
364.484
363.905
363.345
362.943
362.817
362.797
363.113
355.975
355.658
355.21
355.214
355.369
355.497
355.816
356.22
356.567
356.514
356.513
356.45
356.048
355.511
355.016
354.577
354.252
354.125
354.116
354.356
346.5
346.265
345.908
345.9
346.061
346.128
346.417
346.75
347
346.973
346.993
346.907
346.58
346.159
345.749
345.405
345.157
345.044
345.056
345.224
336.692
336.501
336.242
336.21
336.374
336.373
336.641
336.897
337.07
337.049
337.068
336.983
336.762
336.423
336.107
335.859
335.663
335.577
335.567
335.702
326.545
326.39
326.215
326.177
326.337
326.287
326.495
326.699
326.802
326.799
326.819
326.773
326.591
326.345
326.117
325.943
325.792
325.766
325.741
325.835
316.094
316.002
315.891
315.868
315.977
315.936
316.057
316.194
316.248
316.261
316.246
316.235
316.128
315.974
315.832
315.74
315.632
315.656
315.621
315.672
305.427
305.399
305.353
305.357
305.394
305.361
305.429
305.469
305.483
305.479
305.478
305.472
305.438
305.384
305.336
305.307
305.277
305.287
305.27
305.293
374.704
374.21
373.599
373.639
373.718
373.737
374.212
374.649
375.007
374.961
374.941
374.707
374.234
373.706
372.989
372.302
371.962
371.928
372.014
372.519
365.772
365.409
364.883
364.943
364.998
365.012
365.442
365.813
366.138
366.06
366.06
365.82
365.462
365.008
364.382
363.789
363.509
363.494
363.538
363.986
356.511
356.258
355.788
355.883
355.916
355.926
356.317
356.614
356.882
356.815
356.816
356.585
356.313
355.953
355.406
354.905
354.681
354.679
354.715
355.098
346.939
346.732
346.344
346.47
346.484
346.484
346.832
347.047
347.273
347.222
347.196
346.996
346.808
346.53
346.059
345.686
345.485
345.475
345.507
345.817
337.014
336.849
336.55
336.694
336.697
336.686
336.959
337.123
337.282
337.272
337.212
337.085
336.925
336.727
336.343
336.078
335.904
335.899
335.906
336.15
326.76
326.641
326.449
326.558
326.564
326.552
326.735
326.847
326.962
326.958
326.92
326.828
326.713
326.578
326.291
326.094
325.966
325.975
325.951
326.146
316.226
316.154
316.038
316.126
316.109
316.099
316.186
316.278
316.347
316.347
316.329
316.278
316.18
316.116
315.968
315.825
315.742
315.758
315.726
315.865
305.473
305.45
305.402
305.438
305.439
305.426
305.461
305.488
305.508
305.518
305.508
305.492
305.448
305.431
305.391
305.332
305.307
305.327
305.3
305.359
375.379
374.833
374.362
374.273
374.279
374.416
374.757
375.117
375.477
375.436
375.476
375.052
374.63
374.266
373.503
372.884
372.683
372.421
372.791
373.243
366.317
365.909
365.481
365.445
365.436
365.568
365.861
366.196
366.494
366.467
366.489
366.118
365.768
365.498
364.815
364.256
364.105
363.884
364.184
364.581
356.959
356.638
356.289
356.28
356.261
356.395
356.64
356.924
357.199
357.154
357.167
356.852
356.577
356.356
355.764
355.252
355.139
355.006
355.216
355.545
347.277
347.049
346.77
346.762
346.75
346.839
347.08
347.293
347.511
347.483
347.487
347.243
347.03
346.852
346.346
345.894
345.826
345.749
345.891
346.155
337.268
337.107
336.873
336.877
336.886
336.93
337.156
337.309
337.457
337.437
337.454
337.283
337.113
336.966
336.582
336.169
336.161
336.107
336.195
336.407
326.935
326.822
326.653
326.683
326.685
326.692
326.878
326.972
327.085
327.074
327.093
326.973
326.856
326.753
326.46
326.152
326.145
326.115
326.188
326.32
316.324
316.268
316.145
316.18
316.189
316.191
316.304
316.351
316.431
316.428
316.43
316.371
316.289
316.234
316.034
315.862
315.85
315.835
315.876
315.938
305.5
305.482
305.44
305.457
305.453
305.466
305.498
305.516
305.545
305.54
305.537
305.519
305.498
305.471
305.393
305.341
305.347
305.345
305.354
305.36
)
;

boundaryField
{
    hotSide
    {
        type            fixedGradient;
        gradient        nonuniform List<scalar> 
400
(
554.549
551.764
551.338
553.198
557.09
562.654
569.509
577.313
585.787
594.726
603.991
613.501
623.229
633.197
643.469
654.151
665.374
677.272
689.952
703.461
539.325
536.854
536.903
539.379
543.97
550.249
557.773
566.159
575.104
584.393
593.881
603.493
613.209
623.062
633.135
643.557
654.488
666.097
678.52
691.82
531.338
529.477
530.093
533.079
538.122
544.789
552.635
561.271
570.387
579.762
589.251
598.779
608.333
617.955
627.738
637.823
648.379
659.585
671.584
684.449
530.089
529.117
530.407
533.844
539.147
545.939
553.817
562.415
571.433
580.651
589.924
599.178
608.407
617.661
627.04
636.685
646.76
657.431
668.832
681.041
533.769
533.874
535.97
539.932
545.516
552.398
560.23
568.68
577.466
586.373
595.264
604.071
612.798
621.507
630.307
639.338
648.76
658.722
669.351
680.727
540.298
541.581
544.625
549.286
555.333
562.474
570.388
578.764
587.332
595.884
604.292
612.506
620.55
628.509
636.512
644.714
653.275
662.345
672.047
682.467
547.889
550.393
554.507
560.061
566.817
574.477
582.715
591.211
599.682
607.917
615.797
623.3
630.489
637.495
644.488
651.653
659.171
667.2
675.87
685.272
555.083
558.785
564.03
570.627
578.311
586.754
595.589
604.445
612.993
620.996
628.34
635.044
641.236
647.124
652.942
658.929
665.295
672.219
679.835
688.239
560.649
565.42
571.745
579.416
588.14
597.544
607.192
616.626
625.428
633.304
640.136
646.002
651.13
655.831
660.431
665.228
670.471
676.352
683.011
690.542
563.546
569.112
576.293
584.873
594.54
604.88
615.381
625.479
634.644
642.493
648.903
654.019
658.189
661.841
665.396
669.205
673.547
678.621
684.565
691.466
563.006
568.938
576.554
585.639
595.872
606.811
617.896
628.485
637.956
645.861
652.059
656.752
660.373
663.435
666.413
669.696
673.574
678.252
683.864
690.493
558.688
564.455
571.957
580.976
591.186
602.138
613.265
623.921
633.481
641.496
647.82
652.647
656.4
659.588
662.685
666.083
670.077
674.878
680.624
687.4
550.803
555.887
562.742
571.149
580.781
591.199
601.868
612.202
621.657
629.839
636.608
642.091
646.617
650.606
654.478
658.598
663.258
668.675
675.003
682.334
540.138
544.135
549.969
557.425
566.181
575.816
585.841
595.748
605.081
613.512
620.897
627.293
632.911
638.062
643.084
648.299
653.986
660.368
667.61
675.816
527.994
530.662
535.305
541.721
549.591
558.505
567.997
577.61
586.942
595.704
603.745
611.064
617.787
624.131
630.363
636.763
643.597
651.089
659.416
668.688
516.128
517.379
520.831
526.3
533.457
541.866
551.056
560.575
570.041
579.177
587.826
595.949
603.619
610.991
618.286
625.756
633.658
642.23
651.656
662.054
506.773
506.654
509.017
513.697
520.33
528.429
537.482
547.019
556.659
566.128
575.265
584.013
592.411
600.581
608.712
617.043
625.836
635.345
645.772
657.235
502.53
501.228
502.643
506.625
512.776
520.559
529.426
538.894
548.583
558.227
567.664
576.828
585.738
594.494
603.262
612.268
621.777
632.056
643.322
655.685
505.68
503.52
504.124
507.36
512.842
520.045
528.432
537.537
546.996
556.554
566.05
575.413
584.648
593.832
603.111
612.687
622.807
633.725
645.643
658.662
516.974
514.314
514.234
516.63
521.186
527.465
535.005
543.394
552.302
561.489
570.799
580.155
589.548
599.034
608.73
618.802
629.453
640.888
653.268
666.671
)
;
    }
    coldSide
    {
        type            mixed;
        refValue        uniform 300;
        refGradient     uniform 0;
        valueFraction   uniform 0.991591;
        source          uniform 0;
        value           nonuniform List<scalar> 
400
(
300.041
300.041
300.04
300.04
300.04
300.041
300.041
300.041
300.042
300.042
300.043
300.043
300.043
300.044
300.044
300.045
300.045
300.046
300.046
300.046
300.04
300.04
300.04
300.04
300.04
300.041
300.041
300.042
300.042
300.042
300.043
300.043
300.043
300.044
300.044
300.044
300.045