/*--------------------------------*- C++ -*----------------------------------*\
| =========                 |                                                 |
| \\      /  F ield         | OpenFOAM: The Open Source CFD Toolbox           |
|  \\    /   O peration     | Version:  2212                                  |
|   \\  /    A nd           | Website:  www.openfoam.com                      |
|    \\/     M anipulation  |                                                 |
\*---------------------------------------------------------------------------*/
FoamFile
{
    version     2.0;
    format      ascii;
    arch        "LSB;label=32;scalar=64";
    class       volScalarField;
    location    "0";
    object      T;
}
// * * * * * * * * * * * * * * * * * * * * * * * * * * * * * * * * * * * * * //

dimensions      [0 0 0 1 0 0 0];

internalField   nonuniform List<scalar> 
3200
(
329.68
328.858
328.549
328.631
328.994
329.778
330.482
331.32
331.997
332.702
332.95
332.837
332.687
332.219
331.732
331.277
330.954
330.89
331.179
332.033
326.093
325.37
325.105
325.2
325.516
326.187
326.818
327.535
328.134
328.759
329.015
328.918
328.797
328.402
327.983
327.609
327.366
327.32
327.562
328.281
322.349
321.717
321.505
321.609
321.865
322.417
322.979
323.568
324.072
324.629
324.867
324.819
324.702
324.384
324.027
323.706
323.518
323.517
323.697
324.29
318.463
317.919
317.746
317.877
318.054
318.505
318.982
319.447
319.88
320.339
320.55
320.534
320.433
320.186
319.875
319.607
319.465
319.5
319.644
320.113
314.463
314.034
313.903
314.039
314.153
314.502
314.882
315.262
315.601
315.923
316.102
316.097
316.044
315.848
315.588
315.376
315.277
315.328
315.422
315.79
310.395
310.084
309.99
310.105
310.163
310.402
310.688
310.96
311.202
311.438
311.572
311.575
311.538
311.382
311.197
311.047
310.99
311.052
311.102
311.37
306.28
306.071
306.019
306.083
306.123
306.266
306.426
306.588
306.749
306.889
306.972
306.976
306.95
306.873
306.743
306.641
306.644
306.692
306.698
306.87
302.104
302.036
302.019
302.036
302.048
302.101
302.16
302.208
302.26
302.304
302.339
302.328
302.334
302.304
302.259
302.228
302.23
302.252
302.256
302.314
330.005
329.213
328.806
328.951
329.432
330.156
330.943
331.837
332.53
333.169
333.402
333.387
333.208
332.697
332.148
331.716
331.228
331.224
331.494
332.202
326.345
325.702
325.318
325.463
325.867
326.522
327.2
327.972
328.604
329.145
329.362
329.36
329.228
328.772
328.344
327.983
327.584
327.592
327.824
328.445
322.536
322.006
321.693
321.8
322.141
322.711
323.285
323.964
324.475
324.943
325.175
325.153
325.049
324.659
324.318
323.997
323.687
323.718
323.904
324.455
318.607
318.187
317.93
318.008
318.297
318.76
319.245
319.809
320.229
320.589
320.819
320.793
320.72
320.372
320.119
319.846
319.608
319.647
319.791
320.256
314.592
314.238
314.043
314.107
314.358
314.7
315.11
315.529
315.854
316.127
316.321
316.332
316.25
315.963
315.78
315.541
315.408
315.417
315.548
315.898
310.513
310.208
310.084
310.14
310.311
310.553
310.871
311.159
311.359
311.565
311.717
311.745
311.695
311.454
311.337
311.172
311.089
311.094
311.182
311.424
306.342
306.146
306.073
306.117
306.208
306.374
306.553
306.737
306.84
306.963
307.064
307.091
307.054
306.901
306.829
306.732
306.691
306.703
306.739
306.869
302.129
302.067
302.031
302.047
302.08
302.143
302.204
302.271
302.295
302.333
302.371
302.389
302.37
302.321
302.297
302.256
302.236
302.259
302.263
302.301
330.398
329.66
329.229
329.49
330.078
330.839
331.668
332.513
333.316
333.99
334.222
334.247
333.979
333.395
332.757
332.244
331.743
331.812
332.098
332.661
326.721
326.105
325.685
325.96
326.427
327.099
327.814
328.552
329.25
329.852
330.072
330.105
329.866
329.355
328.852
328.441
328.003
328.096
328.354
328.822
322.863
322.368
321.992
322.243
322.627
323.197
323.815
324.44
325.023
325.538
325.743
325.767
325.591
325.151
324.737
324.4
324.056
324.131
324.353
324.751
318.882
318.481
318.18
318.369
318.691
319.157
319.693
320.161
320.657
321.059
321.268
321.299
321.152
320.777
320.432
320.171
319.929
319.99
320.155
320.51
314.826
314.493
314.245
314.379
314.651
315.027
315.435
315.782
316.164
316.474
316.671
316.713
316.581
316.302
316.008
315.808
315.645
315.688
315.823
316.094
310.639
310.423
310.231
310.321
310.502
310.797
311.082
311.331
311.605
311.823
311.961
312.011
311.899
311.721
311.503
311.355
311.24
311.293
311.386
311.566
306.411
306.282
306.145
306.208
306.325
306.501
306.685
306.826
306.995
307.118
307.2
307.231
307.178
307.061
306.927
306.849
306.776
306.805
306.87
306.968
302.16
302.104
302.061
302.081
302.128
302.181
302.253
302.29
302.343
302.39
302.411
302.43
302.415
302.378
302.319
302.306
302.273
302.277
302.302
302.331
331.089
330.448
330.144
330.366
330.845
331.619
332.484
333.381
334.237
334.923
335.257
335.238
334.951
334.357
333.546
333.006
332.558
332.517
332.785
333.305
327.291
326.756
326.506
326.694
327.095
327.783
328.518
329.307
330.025
330.654
330.966
330.935
330.696
330.211
329.53
329.083
328.718
328.725
328.949
329.375
323.346
322.906
322.698
322.835
323.168
323.771
324.392
325.073
325.677
326.216
326.46
326.481
326.251
325.869
325.333
324.95
324.667
324.679
324.871
325.208
319.254
318.922
318.757
318.869
319.109
319.613
320.145
320.692
321.194
321.639
321.84
321.873
321.688
321.361
320.946
320.656
320.426
320.452
320.6
320.86
315.072
314.831
314.691
314.791
314.968
315.353
315.785
316.209
316.594
316.951
317.098
317.115
316.982
316.753
316.431
316.234
316.057
316.059
316.191
316.384
310.844
310.664
310.547
310.611
310.75
311.039
311.328
311.643
311.919
312.172
312.289
312.297
312.192
312.034
311.827
311.682
311.57
311.553
311.641
311.793
306.529
306.428
306.346
306.383
306.489
306.646
306.827
307.011
307.18
307.341
307.408
307.401
307.338
307.249
307.145
307.05
306.972
306.979
307.016
307.104
302.188
302.164
302.127
302.139
302.179
302.228
302.292
302.351
302.418
302.472
302.496
302.475
302.456
302.434
302.422
302.364
302.347
302.35
302.353
302.39
332.103
331.52
331.117
331.254
331.859
332.568
333.54
334.499
335.303
335.969
336.437
336.3
335.927
335.297
334.563
333.998
333.549
333.371
333.576
334.154
328.194
327.715
327.36
327.474
327.97
328.589
329.439
330.266
330.971
331.559
331.981
331.831
331.552
331.021
330.418
329.936
329.57
329.443
329.615
330.117
324.115
323.701
323.443
323.526
323.921
324.458
325.14
325.852
326.463
326.982
327.347
327.178
327.006
326.55
326.067
325.693
325.368
325.283
325.432
325.86
319.9
319.565
319.371
319.441
319.759
320.186
320.718
321.328
321.816
322.232
322.566
322.407
322.283
321.906
321.563
321.27
321.008
320.943
321.072
321.434
315.586
315.326
315.174
315.238
315.489
315.786
316.218
316.693
317.06
317.397
317.663
317.517
317.435
317.162
316.892
316.67
316.498
316.447
316.547
316.85
311.206
310.996
310.894
310.955
311.114
311.348
311.632
311.984
312.25
312.483
312.683
312.574
312.502
312.32
312.125
311.996
311.877
311.841
311.895
312.119
306.751
306.624
306.571
306.601
306.701
306.841
307.003
307.207
307.372
307.506
307.646
307.582
307.534
307.414
307.293
307.234
307.167
307.158
307.158
307.302
302.267
302.228
302.202
302.219
302.247
302.303
302.349
302.411
302.469
302.515
302.572
302.534
302.528
302.482
302.446
302.425
302.408
302.403
302.413
302.454
333.142
332.509
332.126
332.293
332.939
333.626
334.608
335.592
336.51
337.254
337.651
337.6
337.162
336.448
335.673
335.091
334.569
334.435
334.69
335.192
329.083
328.555
328.229
328.354
328.923
329.501
330.349
331.21
332.019
332.656
333.037
332.985
332.61
332.007
331.343
330.878
330.449
330.343
330.581
331.012
324.844
324.444
324.162
324.266
324.739
325.22
325.917
326.67
327.343
327.888
328.226
328.178
327.887
327.377
326.819
326.452
326.118
326.017
326.237
326.578
320.488
320.198
319.943
320.032
320.414
320.789
321.338
322.003
322.526
322.99
323.29
323.235
322.999
322.599
322.139
321.854
321.595
321.498
321.693
321.972
316.03
315.826
315.616
315.7
315.96
316.265
316.698
317.226
317.629
317.977
318.228
318.203
317.995
317.702
317.327
317.123
316.921
316.851
317.021
317.222
311.498
311.365
311.209
311.291
311.453
311.672
311.986
312.369
312.636
312.905
313.108
313.049
312.921
312.721
312.437
312.305
312.172
312.129
312.243
312.378
306.924
306.852
306.753
306.816
306.899
307.015
307.22
307.469
307.602
307.786
307.908
307.864
307.784
307.655
307.494
307.42
307.359
307.336
307.402
307.469
302.326
302.299
302.268
302.29
302.311
302.346
302.421
302.522
302.545
302.601
302.648
302.636
302.612
302.561
302.527
302.491
302.472
302.47
302.493
302.507
334.229
333.754
333.431
333.47
334.02
334.8
335.771
336.798
337.597
338.506
338.837
338.875
338.364
337.687
336.807
336.158
335.687
335.532
335.671
336.193
330.007
329.641
329.327
329.382
329.876
330.51
331.384
332.265
332.932
333.763
334.076
334.089
333.682
333.09
332.329
331.811
331.425
331.279
331.428
331.861
325.635
325.359
325.051
325.111
325.533
326.054
326.829
327.571
328.099
328.848
329.147
329.136
328.796
328.293
327.641
327.243
326.931
326.809
326.938
327.292
321.144
320.96
320.651
320.719
321.077
321.489
322.126
322.734
323.133
323.794
324.047
324.034
323.777
323.339
322.822
322.508
322.283
322.181
322.259
322.558
316.561
316.418
316.164
316.22
316.489
316.805
317.327
317.797
318.112
318.626
318.817
318.8
318.626
318.279
317.885
317.648
317.483
317.412
317.439
317.684
311.9
311.809
311.621
311.649
311.836
312.074
312.44
312.765
313.009
313.354
313.496
313.489
313.376
313.107
312.843
312.665
312.57
312.519
312.515
312.71
307.165
307.12
307.015
307.019
307.136
307.28
307.507
307.684
307.821
308.034
308.145
308.128
308.05
307.889
307.751
307.624
307.581
307.554
307.523
307.651
302.409
302.393
302.354
302.359
302.395
302.447
302.51
302.59
302.62
302.683
302.736
302.737
302.702
302.654
302.592
302.548
302.545
302.555
302.519
302.563
335.503
334.984
334.691
334.818
335.263
336.118
337.096
337.98
338.902
339.726
340.071
339.994
339.719
338.987
338.192
337.481
336.946
336.701
336.932
337.379
331.12
330.706
330.416
330.54
330.91
331.665
332.506
333.294
334.086
334.81
335.116
335.058
334.843
334.197
333.546
332.948
332.478
332.315
332.512
332.902
326.564
326.261
325.998
326.091
326.416
327.03
327.77
328.427
329.091
329.737
329.99
329.928
329.787
329.256
328.693
328.212
327.819
327.702
327.869
328.182
321.88
321.659
321.458
321.507
321.783
322.315
322.88
323.432
323.976
324.516
324.728
324.662
324.567
324.149
323.672
323.296
322.979
322.903
323.046
323.285
317.1
316.939
316.813
316.845
317.044
317.489
317.881
318.347
318.759
319.171
319.371
319.279
319.224
318.926
318.547
318.262
318.014
317.962
318.079
318.241
312.252
312.15
312.072
312.101
312.227
312.572
312.834
313.191
313.471
313.734
313.893
313.827
313.795
313.614
313.317
313.134
312.95
312.902
313.008
313.102
307.386
307.32
307.282
307.296
307.364
307.586
307.722
307.963
308.107
308.263
308.358
308.325
308.306
308.209
308.033
307.918
307.802
307.79
307.853
307.885
302.473
302.463
302.446
302.443
302.485
302.541
302.595
302.686
302.721
302.77
302.794
302.801
302.8
302.754
302.697
302.664
302.62
302.63
302.633
302.635
336.807
336.345
336.015
336.149
336.626
337.364
338.242
339.138
340.118
340.974
341.432
341.215
340.954
340.298
339.498
338.812
338.131
337.94
338.187
338.66
332.284
331.883
331.548
331.711
332.109
332.761
333.49
334.294
335.15
335.915
336.304
336.124
335.919
335.355
334.679
334.105
333.525
333.397
333.609
334.015
327.593
327.246
326.935
327.107
327.442
328.018
328.6
329.298
330.004
330.651
331
330.81
330.701
330.238
329.645
329.187
328.681
328.621
328.786
329.129
322.746
322.469
322.183
322.347
322.632
323.14
323.581
324.163
324.727
325.264
325.576
325.36
325.313
324.961
324.459
324.112
323.679
323.655
323.777
324.04
317.8
317.566
317.365
317.502
317.727
318.127
318.454
318.9
319.325
319.774
320.023
319.833
319.801
319.551
319.14
318.896
318.557
318.55
318.643
318.817
312.761
312.601
312.468
312.56
312.736
313.027
313.238
313.555
313.866
314.173
314.367
314.231
314.22
314.03
313.735
313.572
313.335
313.334
313.427
313.502
307.674
307.59
307.511
307.561
307.678
307.86
307.964
308.161
308.346
308.539
308.667
308.572
308.586
308.454
308.275
308.179
308.047
308.035
308.101
308.133
302.573
302.548
302.52
302.543
302.573
302.64
302.674
302.743
302.805
302.868
302.916
302.873
302.886
302.831
302.768
302.743
302.69
302.707
302.73
302.731
338.262
337.789
337.47
337.652
338.044
338.682
339.455
340.39
341.345
342.249
342.684
342.493
342.19
341.496
340.654
340.059
339.528
339.364
339.534
339.879
333.551
333.143
332.843
332.992
333.345
333.892
334.575
335.355
336.194
336.984
337.361
337.223
336.986
336.413
335.686
335.209
334.747
334.6
334.77
335.063
328.652
328.318
328.044
328.172
328.47
328.92
329.542
330.164
330.909
331.537
331.882
331.793
331.597
331.131
330.512
330.146
329.749
329.596
329.769
330.037
323.604
323.334
323.105
323.221
323.474
323.826
324.355
324.847
325.456
325.991
326.269
326.213
326.051
325.67
325.182
324.907
324.578
324.435
324.583
324.817
318.437
318.252
318.061
318.158
318.35
318.642
319.041
319.426
319.892
320.345
320.558
320.496
320.399
320.083
319.715
319.515
319.252
319.143
319.265
319.433
313.216
313.074
312.954
313.024
313.153
313.387
313.657
313.945
314.244
314.602
314.756
314.706
314.65
314.397
314.155
314.014
313.84
313.754
313.834
313.955
307.948
307.867
307.798
307.833
307.927
308.053
308.216
308.406
308.576
308.778
308.906
308.862
308.836
308.669
308.532
308.436
308.34
308.302
308.333
308.427
302.667
302.643
302.609
302.615
302.654
302.692
302.754
302.822
302.878
302.947
302.991
302.976
302.958
302.911
302.87
302.825
302.802
302.796
302.801
302.833
339.781
339.079
338.955
339.042
339.368
340.007
340.734
341.575
342.664
343.401
343.777
343.662
343.302
342.588
341.883
341.288
340.868
340.703
340.859
341.243
334.873
334.247
334.137
334.22
334.496
335.055
335.693
336.418
337.372
337.998
338.334
338.251
337.959
337.351
336.759
336.256
335.917
335.762
335.919
336.289
329.784
329.256
329.148
329.234
329.446
329.915
330.479
331.073
331.917
332.439
332.706
332.678
332.435
331.919
331.415
331.027
330.74
330.622
330.74
331.092
324.535
324.115
324.013
324.106
324.268
324.632
325.116
325.563
326.328
326.727
326.919
326.934
326.728
326.326
325.904
325.623
325.359
325.303
325.409
325.681
319.19
318.864
318.788
318.856
318.979
319.256
319.637
319.973
320.605
320.918
321.054
321.075
320.898
320.599
320.286
320.071
319.86
319.833
319.936
320.132
313.756
313.521
313.491
313.52
313.619
313.812
314.086
314.345
314.763
315.026
315.107
315.123
314.997
314.778
314.573
314.423
314.245
314.243
314.346
314.45
308.271
308.144
308.139
308.14
308.214
308.321
308.476
308.651
308.876
309.051
309.09
309.104
309.031
308.891
308.779
308.681
308.598
308.578
308.653
308.687
302.772
302.734
302.737
302.729
302.753
302.798
302.844
302.903
302.976
303.033
303.055
303.059
303.02
302.98
302.947
302.919
302.889
302.882
302.909
302.921
341.14
340.585
340.38
340.425
340.701
341.282
341.93
342.843
343.661
344.355
344.738
344.714
344.411
343.781
343.002
342.436
342.099
341.949
342.12
342.378
336.056
335.562
335.378
335.423
335.673
336.139
336.717
337.516
338.214
338.854
339.195
339.156
338.937
338.374
337.695
337.254
336.966
336.881
337.011
337.241
330.795
330.36
330.182
330.249
330.463
330.845
331.362
332.025
332.6
333.171
333.471
333.417
333.266
332.788
332.193
331.856
331.618
331.566
331.662
331.862
325.377
325.022
324.874
324.933
325.089
325.415
325.854
326.379
326.849
327.336
327.593
327.534
327.448
327.025
326.548
326.291
326.091
326.05
326.142
326.275
319.854
319.568
319.473
319.49
319.629
319.89
320.237
320.632
321.008
321.373
321.591
321.552
321.486
321.148
320.787
320.586
320.426
320.407
320.487
320.571
314.259
314.043
313.972
313.98
314.097
314.27
314.525
314.792
315.076
315.315
315.512
315.464
315.432
315.169
314.941
314.77
314.675
314.662
314.697
314.784
308.587
308.461
308.411
308.406
308.499
308.579
308.748
308.906
309.097
309.22
309.348
309.294
309.309
309.111
309.007
308.89
308.849
308.837
308.839
308.909
302.872
302.836
302.824
302.821
302.86
302.879
302.939
302.989
303.062
303.09
303.132
303.115
303.117
303.044
303.033
302.985
302.971
302.964
302.961
302.988
342.568
342.147
341.963
341.847
342.157
342.67
343.223
344.067
344.684
345.306
345.653
345.609
345.336
344.802
344.106
343.6
343.184
343.191
343.382
343.634
337.281
336.909
336.764
336.654
336.93
337.371
337.833
338.596
339.116
339.659
339.983
339.948
339.73
339.267
338.675
338.254
337.914
337.938
338.141
338.331
331.82
331.505
331.383
331.283
331.522
331.885
332.279
332.96
333.383
333.842
334.141
334.087
333.936
333.549
333.06
332.722
332.458
332.453
332.647
332.787
326.237
325.949
325.867
325.797
325.98
326.248
326.595
327.173
327.52
327.898
328.14
328.089
327.988
327.638
327.285
326.992
326.799
326.805
326.96
327.048
320.539
320.28
320.228
320.163
320.301
320.508
320.81
321.281
321.543
321.817
322.01
321.99
321.916
321.625
321.384
321.123
320.976
321.004
321.124
321.166
314.738
314.56
314.522
314.467
314.571
314.708
314.95
315.276
315.451
315.65
315.781
315.805
315.752
315.519
315.354
315.135
315.057
315.081
315.175
315.191
308.883
308.764
308.743
308.706
308.784
308.854
309.002
309.201
309.309
309.419
309.481
309.532
309.519
309.341
309.241
309.127
309.085
309.078
309.137
309.155
302.982
302.943
302.943
302.932
302.955
302.967
303.019
303.088
303.129
303.16
303.172
303.194
303.209
303.133
303.104
303.064
303.058
303.056
303.073
303.074
344.002
343.632
343.345
343.259
343.526
344.065
344.586
345.07
345.87
346.327
346.659
346.585
346.291
345.829
345.258
344.747
344.48
344.471
344.695
344.911
338.55
338.235
337.961
337.872
338.115
338.591
339.034
339.484
340.167
340.562
340.865
340.806
340.59
340.182
339.678
339.249
339.034
339.052
339.286
339.435
332.914
332.651
332.418
332.299
332.529
332.935
333.306
333.732
334.275
334.607
334.882
334.824
334.702
334.332
333.894
333.537
333.394
333.413
333.601
333.72
327.141
326.912
326.72
326.62
326.795
327.134
327.442
327.818
328.246
328.516
328.754
328.698
328.638
328.305
327.954
327.671
327.575
327.589
327.73
327.824
321.234
321.072
320.901
320.819
320.951
321.222
321.479
321.771
322.099
322.31
322.491
322.468
322.413
322.164
321.877
321.673
321.596
321.607
321.714
321.78
315.243
315.126
315.009
314.942
315.054
315.224
315.419
315.624
315.88
316.012
316.13
316.126
316.085
315.911
315.718
315.562
315.524
315.528
315.594
315.635
309.17
309.12
309.056
308.994
309.086
309.17
309.299
309.397
309.568
309.654
309.72
309.713
309.703
309.568
309.473
309.373
309.37
309.357
309.411
309.412
303.08
303.065
303.04
303.019
303.044
303.082
303.129
303.158
303.218
303.236
303.271
303.258
303.25
303.219
303.177
303.147
303.143
303.137
303.161
303.158
345.382
345.076
344.769
344.759
344.904
345.291
345.774
346.317
346.799
347.294
347.474
347.497
347.229
346.836
346.412
345.925
345.745
345.575
345.941
346.22
339.757
339.476
339.218
339.187
339.323
339.677
340.087
340.57
340.96
341.417
341.559
341.609
341.384
341.04
340.706
340.276
340.167
340.021
340.357
340.569
333.935
333.691
333.472
333.427
333.568
333.862
334.204
334.634
334.937
335.366
335.468
335.519
335.328
335.041
334.79
334.406
334.341
334.247
334.54
334.665
327.96
327.763
327.566
327.526
327.663
327.903
328.17
328.515
328.78
329.134
329.241
329.281
329.121
328.882
328.696
328.372
328.309
328.291
328.506
328.579
321.866
321.704
321.551
321.539
321.624
321.819
322.009
322.282
322.514
322.783
322.892
322.917
322.754
322.623
322.469
322.195
322.138
322.172
322.325
322.36
315.664
315.552
315.471
315.451
315.511
315.661
315.779
315.981
316.176
316.35
316.431
316.459
316.346
316.244
316.107
315.934
315.895
315.939
316.032
316.04
309.425
309.363
309.327
309.305
309.332
309.431
309.495
309.631
309.754
309.84
309.889
309.907
309.854
309.783
309.69
309.6
309.547
309.597
309.667
309.663
303.164
303.136
303.134
303.128
303.133
303.17
303.187
303.229
303.275
303.304
303.324
303.315
303.309
303.274
303.253
303.222
303.2
303.233
303.247
303.247
346.929
346.62
346.194
346.141
346.091
346.515
346.983
347.496
347.81
348.095
348.42
348.259
348.232
347.808
347.454
347.118
346.913
346.893
347.11
347.376
341.11
340.833
340.452
340.406
340.348
340.729
341.152
341.591
341.86
342.148
342.385
342.264
342.264
341.903
341.607
341.33
341.179
341.149
341.378
341.575
335.111
334.854
334.54
334.466
334.435
334.753
335.117
335.482
335.711
335.991
336.154
336.073
336.099
335.798
335.566
335.346
335.207
335.171
335.406
335.536
328.937
328.724
328.457
328.402
328.397
328.643
328.942
329.213
329.406
329.676
329.797
329.736
329.757
329.497
329.327
329.181
329.043
329.041
329.219
329.332
322.633
322.452
322.259
322.211
322.23
322.392
322.642
322.829
322.986
323.203
323.283
323.258
323.271
323.07
322.953
322.862
322.728
322.747
322.88
322.973
316.201
316.13
315.954
315.925
315.953
316.07
316.26
316.357
316.461
316.639
316.707
316.682
316.711
316.556
316.466
316.427
316.299
316.351
316.433
316.521
309.747
309.721
309.62
309.596
309.587
309.69
309.807
309.844
309.902
309.999
310.074
310.05
310.081
309.973
309.926
309.901
309.798
309.86
309.9
309.959
303.268
303.257
303.234
303.213
303.211
303.257
303.298
303.307
303.326
303.357
303.374
303.377
303.397
303.335
303.341
303.32
303.28
303.317
303.329
303.342
348.338
347.941
347.692
347.493
347.531
347.754
348.053
348.575
348.837
349.091
349.238
349.307
349.098
348.838
348.646
348.23
348.038
348.11
348.427
348.538
342.32
342
341.768
341.584
341.615
341.814
342.097
342.535
342.755
342.996
343.118
343.187
343.014
342.811
342.643
342.301
342.123
342.221
342.507
342.605
336.11
335.851
335.659
335.486
335.492
335.691
335.955
336.279
336.481
336.689
336.783
336.881
336.733
336.566
336.413
336.172
335.988
336.126
336.351
336.431
329.732
329.552
329.384
329.218
329.262
329.407
329.641
329.872
330.045
330.234
330.294
330.401
330.275
330.135
330.024
329.842
329.686
329.832
329.994
330.051
323.25
323.135
322.991
322.821
322.882
322.987
323.193
323.353
323.503
323.659
323.699
323.785
323.681
323.578
323.473
323.384
323.247
323.375
323.485
323.533
316.675
316.618
316.508
316.351
316.393
316.511
316.649
316.755
316.862
316.974
317.003
317.084
317.001
316.906
316.828
316.795
316.668
316.794
316.876
316.905
310.047
310.01
309.952
309.847
309.873
309.96
310.023
310.1
310.146
310.225
310.234
310.298
310.252
310.173
310.137
310.111
310.02
310.142
310.178
310.192
303.377
303.362
303.342
303.307
303.319
303.345
303.369
303.393
303.407
303.435
303.429
303.453
303.428
303.409
303.399
303.4
303.362
303.406
303.406
303.429
349.647
349.278
348.956
348.818
348.872
349.1
349.123
349.594
349.761
350.067
350.185
350.184
350.063
349.779
349.588
349.321
349.29
349.269
349.598
349.781
343.473
343.174
342.898
342.745
342.781
343.004
343.015
343.411
343.563
343.817
343.945
343.955
343.837
343.608
343.469
343.23
343.22
343.222
343.524
343.671
337.111
336.871
336.628
336.489
336.51
336.703
336.729
337.02
337.184
337.376
337.499
337.508
337.419
337.221
337.131
336.919
336.92
336.929
337.218
337.329
330.581
330.401
330.182
330.062
330.065
330.25
330.28
330.467
330.639
330.774
330.866
330.905
330.859
330.69
330.613
330.435
330.455
330.457
330.704
330.8
323.919
323.792
323.589
323.502
323.48
323.682
323.674
323.816
323.968
324.056
324.113
324.197
324.143
323.997
323.953
323.813
323.817
323.871
324.035
324.14
317.144
317.089
316.93
316.843
316.824
316.983
316.98
317.088
317.182
317.238
317.287
317.357
317.32
317.201
317.182
317.086
317.082
317.158
317.271
317.348
310.32
310.297
310.2
310.138
310.121
310.225
310.229
310.302
310.326
310.373
310.391
310.462
310.425
310.35
310.346
310.282
310.283
310.357
310.391
310.458
303.466
303.458
303.415
303.398
303.398
303.437
303.436
303.459
303.457
303.473
303.489
303.514
303.485
303.468
303.465
303.449
303.45
303.482
303.481
303.519
350.907
350.496
350.213
349.915
349.903
350.124
350.157
350.471
350.692
350.863
350.943
351.079
350.828
350.625
350.397
350.2
350.204
350.38
350.595
350.941
344.559
344.183
343.95
343.687
343.682
343.885
343.896
344.166
344.362
344.508
344.612
344.746
344.509
344.353
344.186
343.982
344.03
344.181
344.393
344.668
338.003
337.695
337.462
337.286
337.248
337.444
337.446
337.658
337.843
337.962
338.067
338.197
337.995
337.858
337.721
337.555
337.63
337.757
337.941
338.152
331.298
331.056
330.81
330.699
330.674
330.844
330.856
331.006
331.159
331.246
331.374
331.469
331.315
331.199
331.074
330.948
331.029
331.144
331.295
331.483
324.484
324.291
324.076
324
323.982
324.128
324.148
324.236
324.352
324.413
324.536
324.607
324.485
324.381
324.305
324.206
324.274
324.401
324.489
324.648
317.539
317.427
317.271
317.187
317.183
317.323
317.344
317.376
317.467
317.518
317.608
317.641
317.57
317.467
317.438
317.362
317.405
317.538
317.577
317.696
310.557
310.502
310.402
310.342
310.341
310.438
310.463
310.459
310.525
310.541
310.599
310.625
310.568
310.513
310.527
310.465
310.483
310.555
310.606
310.666
303.552
303.527
303.488
303.467
303.47
303.498
303.527
303.509
303.534
303.535
303.559
303.555
303.538
303.523
303.533
303.514
303.523
303.543
303.568
303.586
351.872
351.453
350.978
350.767
350.778
350.839
350.869
350.94
351.364
351.431
351.477
351.694
351.467
351.367
351.025
350.9
350.929
351.109
351.527
351.956
345.351
344.987
344.575
344.417
344.395
344.456
344.488
344.537
344.929
344.975
345.032
345.246
345.055
344.975
344.692
344.593
344.615
344.787
345.146
345.528
338.653
338.351
338.002
337.848
337.817
337.895
337.933
337.944
338.294
338.357
338.409
338.595
338.436
338.358
338.148
338.046
338.094
338.266
338.521
338.878
331.822
331.551
331.285
331.148
331.103
331.208
331.21
331.236
331.51
331.569
331.621
331.797
331.679
331.568
331.449
331.348
331.411
331.555
331.738
332.054
324.862
324.656
324.45
324.321
324.288
324.409
324.38
324.403
324.61
324.672
324.708
324.862
324.778
324.635
324.612
324.518
324.553
324.686
324.812
325.073
317.802
317.668
317.532
317.432
317.413
317.53
317.474
317.476
317.659
317.691
317.71
317.836
317.806
317.658
317.652
317.586
317.601
317.722
317.779
317.982
310.711
310.65
310.564
310.477
310.5
310.558
310.521
310.514
310.641
310.659
310.657
310.728
310.737
310.633
310.625
310.587
310.619
310.685
310.694
310.818
303.599
303.564
303.551
303.521
303.523
303.546
303.524
303.537
303.568
303.576
303.586
303.6
303.606
303.577
303.566
303.547
303.557
303.589
303.591
303.627
)
;

boundaryField
{
    hotSide
    {
        type            fixedGradient;
        gradient        nonuniform List<scalar> 
400
(
272.442
275.423
280.632
288.005
297.307
308.205
320.339
333.382
347.057
361.15
375.493
389.964
404.469
418.943
433.336
447.615
461.754
475.74
489.567
503.238
261.572
264.802
270.42
278.345
288.298
299.88
312.683
326.342
340.564
355.123
369.852
384.628
399.367
414.007
428.509
442.844
456.998
470.962
484.735
498.33
256.717
260.407
266.451
274.76
285.053
296.936
309.998
323.873
338.263
352.939
367.729
382.514
397.209
411.758
426.129
440.301
454.267
468.026
481.587
494.966
257.467
261.815
268.314
276.874
287.251
299.103
312.065
325.796
340.008
354.472
369.016
383.518
397.894
412.095
426.093
439.877
453.45
466.822
480.009
493.036
262.239
267.356
274.366
283.173
293.571
305.28
317.987
331.388
345.215
359.248
373.317
387.303
401.13
414.755
428.163
441.357
454.351
467.168
479.835
492.381
269.236
275.164
282.755
291.903
302.421
314.066
326.563
339.637
353.036
366.55
380.021
393.339
406.445
419.317
431.958
444.394
456.655
468.781
480.806
492.768
276.977
283.717
291.955
301.569
312.374
324.135
336.587
349.461
362.509
375.525
388.361
400.932
413.207
425.197
436.943
448.497
459.917
471.256
482.562
493.876
284.324
291.841
300.761
310.946
322.199
334.274
346.889
359.752
372.592
385.196
397.425
409.223
420.608
431.644
442.421
453.033
463.564
474.085
484.653
495.311
290.375
298.574
308.143
318.934
330.736
343.277
356.238
369.277
382.075
394.385
406.074
417.127
427.629
437.717
447.541
457.24
466.926
476.685
486.577
496.644
294.408
303.106
313.186
324.497
336.818
349.85
363.232
376.559
389.442
401.586
412.853
423.279
433.025
442.307
451.337
460.293
469.306
478.469
487.844
497.467
295.907
304.824
315.157
326.752
339.382
352.736
366.419
379.981
392.978
405.071
416.118
426.189
435.501
444.325
452.91
461.456
470.105
478.954
488.061
497.461
294.648
303.443
313.686
325.222
337.82
351.165
364.857
378.443
391.478
403.621
414.726
424.859
434.231
443.108
451.74
460.325
469.011
477.894
487.037
496.476
290.774
299.113
308.934
320.083
332.328
345.356
358.788
372.206
385.212
397.502
408.928
419.515
429.411
438.825
447.967
457.019
466.121
475.372
484.843
494.574
284.821
292.438
301.602
312.164
323.892
336.482
349.578
362.807
375.824
388.362
400.271
411.526
422.2
432.428
442.366
452.16
461.936
471.795
481.809
492.028
277.683
284.411
292.809
302.737
313.963
326.18
339.042
352.2
365.339
378.212
390.664
402.63
414.126
425.226
436.032
446.659
457.212
467.786
478.455
489.271
270.607
276.371
283.996
293.353
304.194
316.189
328.976
342.2
355.554
368.797
381.767
394.376
406.605
418.486
430.086
441.489
452.787
464.066
475.397
486.834
265.226
270.039
276.942
285.815
296.381
308.263
321.058
334.393
347.956
361.509
374.886
387.991
400.784
413.275
425.506
437.543
449.465
461.352
473.274
485.281
263.493
267.465
273.714
282.127
292.395
304.1
316.803
330.119
343.733
357.413
370.995
384.381
397.521
410.409
423.073
435.563
447.949
460.304
472.693
485.161
267.137
270.483
276.135
283.994
293.756
305.006
317.316
330.307
343.677
357.2
370.717
384.126
397.37
410.431
423.323
436.082
448.765
461.432
474.14
486.926
276.703
279.661
284.768
291.941
300.933
311.392
322.947
335.261
348.055
361.114
374.283
387.454
400.564
413.581
426.505
439.356
452.171
464.994
477.866
490.812
)
;
    }
    coldSide
    {
        type            mixed;
        refValue        uniform 300;
        refGradient     uniform 0;
        valueFraction   uniform 0.991591;
        source          uniform 0;
        value           nonuniform List<scalar> 
400
(
300.018
300.018
300.018
300.018
300.019
300.02
300.02
300.021
300.022
300.022
300.023
300.024
300.025
300.026
300.027
300.027
300.028
300.029
300.03
300.03
300.017
300.017
300.018
300.018
300.019
300.019
300.02
300.021
300.021
300.022
300.023
300.024
300.025
300.026
300.026
300.027
300.028
300.029
300.03