/*--------------------------------*- C++ -*----------------------------------*\
| =========                 |                                                 |
| \\      /  F ield         | OpenFOAM: The Open Source CFD Toolbox           |
|  \\    /   O peration     | Version:  2212                                  |
|   \\  /    A nd           | Website:  www.openfoam.com                      |
|    \\/     M anipulation  |                                                 |
\*---------------------------------------------------------------------------*/
FoamFile
{
    version     2.0;
    format      ascii;
    arch        "LSB;label=32;scalar=64";
    class       volScalarField;
    location    "0";
    object      stateMean;
}
// * * * * * * * * * * * * * * * * * * * * * * * * * * * * * * * * * * * * * //

dimensions      [0 0 0 1 0 0 0];

internalField   nonuniform List<scalar> 
3200
(
315.798
316.068
316.257
316.524
316.803
317.017
317.225
317.366
317.538
317.55
317.718
317.828
317.858
317.859
317.895
317.833
317.735
317.619
317.51
317.361
313.721
313.795
314.122
314.264
314.489
314.754
314.886
315.036
315.091
315.299
315.326
315.418
315.416
315.463
315.42
315.39
315.404
315.287
315.068
315.022
311.554
311.758
311.965
312.125
312.187
312.48
312.534
312.633
312.796
312.884
312.93
312.968
313.029
313.072
313.036
313.072
312.962
312.893
312.766
312.7
309.429
309.548
309.74
309.87
310.048
310.182
310.295
310.39
310.473
310.517
310.584
310.641
310.654
310.641
310.679
310.668
310.686
310.571
310.413
310.323
307.346
307.495
307.612
307.662
307.771
307.902
307.944
308.033
308.126
308.149
308.194
308.298
308.266
308.279
308.307
308.206
308.217
308.195
308.135
308.087
305.274
305.345
305.521
305.467
305.575
305.658
305.654
305.746
305.731
305.911
305.87
305.856
305.87
305.866
305.935
305.861
305.841
305.774
305.76
305.743
303.136
303.222
303.199
303.264
303.42
303.346
303.441
303.474
303.497
303.534
303.512
303.514
303.504
303.53
303.532
303.534
303.507
303.534
303.421
303.472
301.06
301.054
301.084
301.083
301.108
301.133
301.103
301.083
301.099
301.118
301.17
301.209
301.213
301.219
301.22
301.161
301.158
301.173
301.099
301.152
316.288
316.61
316.863
317.178
317.467
317.637
317.852
317.948
318.158
318.261
318.4
318.466
318.59
318.608
318.574
318.54
318.426
318.338
318.126
317.992
314.11
314.352
314.606
314.83
315.025
315.255
315.396
315.544
315.638
315.679
315.848
315.945
315.975
316.043
315.997
316.064
315.86
315.787
315.611
315.498
311.954
312.184
312.293
312.49
312.657
312.794
313.013
313.144
313.225
313.303
313.397
313.409
313.457
313.491
313.491
313.376
313.418
313.306
313.118
312.996
309.747
309.832
310.022
310.149
310.365
310.473
310.558
310.626
310.779
310.881
310.935
310.942
310.966
311.025
311.034
310.911
310.906
310.891
310.667
310.74
307.6
307.681
307.804
307.902
308.06
308.126
308.21
308.296
308.388
308.409
308.449
308.452
308.46
308.487
308.494
308.489
308.512
308.421
308.332
308.241
305.37
305.458
305.556
305.66
305.743
305.781
305.877
305.984
305.882
306.054
306.008
306.099
306.061
306.099
306.147
306.054
306.05
305.995
305.894
305.964
303.239
303.33
303.365
303.411
303.427
303.401
303.55
303.525
303.57
303.634
303.581
303.706
303.705
303.608
303.675
303.605
303.62
303.597
303.568
303.51
301.073
301.139
301.166
301.139
301.187
301.171
301.183
301.224
301.21
301.187
301.2
301.217
301.255
301.234
301.202
301.135
301.221
301.234
301.265
301.19
317.056
317.346
317.639
317.969
318.318
318.496
318.644
318.857
319.022
319.099
319.21
319.371
319.41
319.407
319.433
319.283
319.284
319.09
318.935
318.76
314.741
315.001
315.199
315.475
315.751
315.949
316.095
316.287
316.408
316.472
316.596
316.668
316.759
316.78
316.694
316.681
316.651
316.534
316.343
316.157
312.461
312.638
312.837
313.06
313.27
313.465
313.54
313.684
313.816
313.955
313.964
314.012
314.048
314.114
314.036
314.055
313.944
313.904
313.797
313.699
310.111
310.332
310.542
310.725
310.778
310.976
311.075
311.265
311.307
311.332
311.395
311.49
311.508
311.519
311.487
311.503
311.426
311.3
311.273
311.142
307.886
308.069
308.078
308.258
308.391
308.525
308.552
308.704
308.767
308.745
308.837
308.876
308.956
308.979
308.984
308.905
308.816
308.807
308.707
308.594
305.577
305.736
305.827
305.884
305.938
306.089
306.138
306.178
306.25
306.21
306.279
306.35
306.385
306.353
306.406
306.257
306.298
306.237
306.163
306.149
303.379
303.478
303.468
303.531
303.622
303.665
303.612
303.693
303.688
303.764
303.797
303.751
303.788
303.789
303.844
303.824
303.87
303.766
303.709
303.606
301.118
301.186
301.215
301.204
301.203
301.26
301.228
301.264
301.273
301.31
301.297
301.254
301.221
301.326
301.263
301.329
301.287
301.277
301.236
301.257
317.955
318.105
318.487
318.797
319.115
319.354
319.595
319.848
319.98
320.15
320.246
320.275
320.336
320.379
320.369
320.293
320.142
320.048
319.868
319.633
315.461
315.702
315.976
316.235
316.554
316.667
316.869
317.096
317.231
317.319
317.416
317.496
317.587
317.527
317.505
317.486
317.342
317.28
317.136
316.898
312.98
313.184
313.441
313.653
313.957
314.129
314.242
314.406
314.572
314.605
314.708
314.767
314.819
314.819
314.815
314.71
314.679
314.505
314.459
314.293
310.649
310.77
310.97
311.164
311.346
311.498
311.569
311.801
311.792
311.928
311.869
311.97
312.012
312.065
312.046
312.006
311.97
311.864
311.695
311.592
308.226
308.37
308.479
308.666
308.782
308.961
308.933
309.07
309.186
309.259
309.25
309.328
309.352
309.401
309.372
309.283
309.282
309.222
309.099
309.008
305.942
305.934
306.102
306.159
306.313
306.301
306.505
306.471
306.553
306.573
306.677
306.633
306.651
306.661
306.716
306.602
306.518
306.523
306.501
306.45
303.499
303.607
303.556
303.708
303.835
303.833
303.769
303.924
303.92
303.947
303.947
304.004
304.04
304.092
304.014
303.952
303.977
303.975
303.889
303.908
301.166
301.219
301.205
301.261
301.19
301.27
301.348
301.308
301.333
301.304
301.327
301.346
301.303
301.38
301.341
301.318
301.321
301.329
301.321
301.374
318.719
318.974
319.334
319.686
320.095
320.43
320.583
320.714
320.997
321.12
321.183
321.278
321.377
321.322
321.334
321.248
321.213
320.973
320.719
320.525
316.191
316.46
316.711
317.021
317.307
317.448
317.676
317.879
318.015
318.224
318.24
318.396
318.339
318.466
318.388
318.29
318.277
318.069
317.889
317.704
313.631
313.803
314.14
314.33
314.526
314.768
314.907
315.104
315.232
315.308
315.42
315.403
315.512
315.546
315.514
315.477
315.363
315.188
315.034
314.918
311.124
311.259
311.439
311.696
311.827
312.044
312.145
312.258
312.393
312.524
312.542
312.593
312.611
312.613
312.579
312.579
312.494
312.411
312.305
312.167
308.664
308.772
308.962
309.057
309.24
309.37
309.468
309.503
309.621
309.686
309.756
309.735
309.822
309.795
309.861
309.725
309.72
309.603
309.475
309.438
306.186
306.235
306.361
306.512
306.513
306.628
306.726
306.868
306.852
306.894
306.997
306.991
306.993
307.033
306.959
307
306.95
306.872
306.811
306.763
303.724
303.74
303.794
303.874
303.933
303.976
304.006
304.009
304.159
304.143
304.158
304.143
304.139
304.186
304.156
304.18
304.161
304.156
304.066
304.078
301.171
301.263
301.257
301.3
301.354
301.386
301.346
301.426
301.393
301.376
301.436
301.348
301.381
301.448
301.434
301.437
301.478
301.331
301.371
301.351
319.573
319.95
320.207
320.583
320.938
321.239
321.479
321.756
321.859
322.103
322.276
322.303
322.314
322.369
322.315
322.272
322.084
321.945
321.681
321.456
316.916
317.146
317.493
317.769
318.091
318.276
318.525
318.679
318.875
319.076
319.122
319.226
319.226
319.257
319.233
319.166
319.012
318.906
318.666
318.583
314.206
314.463
314.673
314.988
315.242
315.397
315.614
315.77
315.975
316.05
316.125
316.218
316.224
316.207
316.225
316.148
316.11
315.861
315.746
315.543
311.629
311.821
312.042
312.209
312.353
312.642
312.699
312.87
313.008
313.068
313.191
313.268
313.222
313.152
313.146
313.195
313.06
313.026
312.809
312.689
309.04
309.118
309.258
309.471
309.611
309.786
309.857
310.032
310.054
310.063
310.165
310.188
310.224
310.285
310.246
310.217
310.146
310.072
309.95
309.851
306.491
306.548
306.663
306.823
306.806
307.004
307.022
307.053
307.222
307.227
307.269
307.267
307.284
307.31
307.306
307.253
307.229
307.213
307.098
307.024
303.863
303.952
303.986
304.071
304.058
304.125
304.106
304.2
304.279
304.289
304.326
304.354
304.411
304.382
304.361
304.308
304.245
304.277
304.228
304.146
301.308
301.325
301.42
301.317
301.397
301.47
301.451
301.348
301.381
301.426
301.49
301.41
301.474
301.454
301.447
301.449
301.498
301.395
301.412
301.493
320.426
320.702
321.153
321.514
321.888
322.209
322.449
322.643
322.858
323.083
323.269
323.25
323.263
323.354
323.303
323.177
323.057
322.84
322.611
322.318
317.584
317.878
318.205
318.527
318.842
319.175
319.303
319.531
319.718
319.908
319.979
320.027
320.067
320.124
320.095
320.042
319.848
319.727
319.438
319.222
314.883
315.077
315.366
315.645
315.871
316.104
316.287
316.507
316.654
316.719
316.868
316.919
316.895
316.983
316.906
316.843
316.663
316.629
316.374
316.267
312.14
312.346
312.515
312.757
312.964
313.126
313.347
313.493
313.588
313.683
313.736
313.844
313.811
313.825
313.765
313.789
313.578
313.554
313.414
313.243
309.42
309.559
309.627
309.964
310.079
310.206
310.314
310.425
310.52
310.535
310.666
310.699
310.811
310.682
310.618
310.699
310.563
310.511
310.345
310.205
306.707
306.809
306.952
307.017
307.195
307.284
307.393
307.41
307.478
307.563
307.667
307.625
307.591
307.645
307.677
307.632
307.531
307.493
307.416
307.27
303.973
304.099
304.202
304.174
304.405
304.454
304.36
304.443
304.497
304.489
304.577
304.557
304.607
304.546
304.565
304.517
304.565
304.489
304.431
304.402
301.356
301.396
301.403
301.412
301.434
301.462
301.42
301.471
301.492
301.506
301.59
301.552
301.572
301.487
301.483
301.541
301.475
301.55
301.421
301.523
321.13
321.524
322.017
322.379
322.814
323.086
323.335
323.627
323.858
323.953
324.168
324.19
324.189
324.23
324.27
324.247
323.948
323.767
323.486
323.301
318.338
318.559
318.998
319.342
319.642
319.885
320.171
320.361
320.53
320.679
320.803
320.918
320.952
320.922
320.918
320.823
320.649
320.483
320.208
319.99
315.425
315.653
315.97
316.243
316.553
316.813
316.971
317.185
317.303
317.52
317.491
317.601
317.663
317.647
317.594
317.51
317.409
317.321
317.046
316.923
312.622
312.758
313.026
313.329
313.485
313.689
313.794
314.016
314.154
314.264
314.262
314.295
314.341
314.375
314.311
314.249
314.238
314.066
313.918
313.781
309.76
309.948
310.115
310.331
310.481
310.568
310.722
310.877
310.94
310.947
311.09
311.161
311.055
311.11
311.161
311.086
311.041
310.918
310.757
310.706
306.889
307.076
307.236
307.4
307.45
307.542
307.614
307.78
307.841
307.837
307.979
307.914
308.004
307.865
307.884
307.908
307.809
307.793
307.72
307.624
304.076
304.229
304.322
304.402
304.424
304.626
304.638
304.66
304.651
304.74
304.718
304.784
304.73
304.742
304.771
304.821
304.708
304.684
304.663
304.569
301.405
301.413
301.479
301.478
301.498
301.536
301.532
301.512
301.608
301.574
301.569
301.586
301.639
301.577
301.574
301.571
301.54
301.617
301.546
301.571
321.932
322.451
322.801
323.258
323.591
323.945
324.342
324.551
324.743
324.938
325.102
325.202
325.156
325.195
325.178
325.081
324.866
324.64
324.38
324.054
318.986
319.296
319.647
320.068
320.397
320.716
320.967
321.214
321.408
321.531
321.622
321.719
321.76
321.798
321.738
321.591
321.433
321.242
321.062
320.737
315.999
316.252
316.579
316.938
317.175
317.405
317.624
317.861
317.958
318.126
318.237
318.323
318.291
318.353
318.302
318.143
318.05
317.916
317.712
317.541
313.046
313.309
313.516
313.76
313.961
314.171
314.397
314.547
314.661
314.811
314.798
314.94
314.976
314.935
314.875
314.869
314.755
314.631
314.339
314.237
310.083
310.349
310.558
310.657
310.853
311.005
311.131
311.302
311.414
311.384
311.556
311.561
311.627
311.596
311.584
311.508
311.416
311.27
311.231
311.041
307.184
307.358
307.522
307.682
307.794
307.854
308.01
308.022
308.185
308.161
308.141
308.254
308.295
308.308
308.227
308.184
308.158
308.108
307.959
307.86
304.317
304.363
304.523
304.617
304.586
304.728
304.778
304.873
304.915
304.884
304.879
304.893
304.902
304.92
304.905
304.886
304.91
304.859
304.782
304.702
301.462
301.462
301.522
301.498
301.622
301.584
301.666
301.507
301.63
301.642
301.676
301.603
301.686
301.666
301.626
301.624
301.589
301.664
301.641
301.606
322.763
323.138
323.584
324.062
324.447
324.83
325.227
325.421
325.668
325.822
325.989
326.016
326.092
326.1
326.064
325.895
325.77
325.517
325.199
324.92
319.587
319.936
320.388
320.7
321.151
321.445
321.703
321.986
322.123
322.271
322.46
322.497
322.567
322.541
322.435
322.337
322.149
321.985
321.643
321.464
316.502
316.842
317.143
317.494
317.804
318.083
318.313
318.444
318.65
318.784
318.864
318.881
318.996
318.961
318.943
318.813
318.625
318.464
318.304
318.094
313.513
313.739
314.016
314.295
314.439
314.759
314.925
315.034
315.201
315.349
315.444
315.465
315.52
315.477
315.424
315.438
315.265
315.1
314.894
314.731
310.527
310.662
310.853
311.043
311.321
311.376
311.522
311.737
311.792
311.892
311.937
312.031
312.034
311.949
312.001
311.857
311.806
311.749
311.535
311.453
307.482
307.622
307.778
307.878
308.01
308.132
308.284
308.314
308.488
308.491
308.563
308.555
308.595
308.537
308.565
308.502
308.405
308.358
308.221
308.101
304.465
304.561
304.716
304.726
304.818
304.93
304.916
304.989
305.034
305.06
305.139
305.085
305.124
305.08
305.158
305.127
305.079
305.009
304.928
304.887
301.587
301.473
301.516
301.597
301.622
301.649
301.592
301.686
301.693
301.729
301.685
301.717
301.681
301.72
301.703
301.723
301.756
301.657
301.651
301.601
323.507
323.872
324.336
324.835
325.274
325.64
325.972
326.284
326.541
326.774
326.861
326.998
327.007
326.999
326.897
326.8
326.59
326.279
325.931
325.683
320.199
320.605
321.057
321.441
321.853
322.216
322.47
322.661
322.917
323.079
323.197
323.217
323.331
323.285
323.187
323.078
323
322.671
322.431
322.191
317.036
317.333
317.776
318.078
318.345
318.698
318.898
319.049
319.325
319.486
319.452
319.576
319.571
319.61
319.563
319.499
319.264
319.083
318.832
318.597
313.966
314.164
314.526
314.671
314.995
315.309
315.401
315.613
315.656
315.839
315.871
315.987
315.997
315.944
315.954
315.827
315.724
315.606
315.429
315.19
310.848
310.977
311.229
311.482
311.633
311.811
311.965
312.107
312.137
312.363
312.344
312.406
312.497
312.425
312.366
312.302
312.174
312.048
311.921
311.838
307.725
307.908
307.924
308.141
308.3
308.406
308.539
308.623
308.601
308.797
308.835
308.88
308.852
308.786
308.778
308.73
308.713
308.649
308.504
308.466
304.622
304.697
304.82
304.944
304.916
305.095
305.057
305.138
305.251
305.267
305.278
305.326
305.327
305.334
305.282
305.236
305.285
305.13
305.096
305.051
301.531
301.608
301.624
301.656
301.653
301.727
301.704
301.782
301.681
301.626
301.75
301.816
301.766
301.829
301.72
301.799
301.739
301.781
301.678
301.685
324.109
324.612
325.08
325.585
325.997
326.432
326.846
327.09
327.369
327.582
327.702
327.795
327.837
327.827
327.777
327.547
327.327
327.046
326.763
326.394
320.838
321.228
321.623
322.045
322.456
322.758
323.106
323.354
323.6
323.798
323.895
323.996
324.066
323.912
323.998
323.822
323.548
323.412
323.079
322.86
317.564
317.948
318.264
318.594
318.967
319.251
319.488
319.749
319.903
320.048
320.181
320.237
320.197
320.135
320.165
320.098
319.859
319.604
319.456
319.19
314.347
314.6
314.922
315.206
315.438
315.66
315.902
316.138
316.266
316.332
316.394
316.499
316.49
316.425
316.411
316.413
316.183
316.043
315.855
315.633
311.211
311.342
311.639
311.739
311.97
312.239
312.338
312.568
312.614
312.664
312.741
312.805
312.818
312.761
312.799
312.68
312.567
312.492
312.374
312.105
307.917
308.058
308.268
308.423
308.557
308.708
308.794
308.905
308.988
309.036
309.046
309.188
309.132
309.16
309.068
309.004
309.028
308.892
308.856
308.636
304.751
304.816
304.916
305.022
305.114
305.237
305.288
305.36
305.349
305.357
305.463
305.487
305.475
305.465
305.444
305.366
305.39
305.317
305.25
305.238
301.557
301.703
301.585
301.614
301.669
301.735
301.733
301.762
301.81
301.833
301.813
301.84
301.833
301.868
301.843
301.812
301.776
301.834
301.79
301.736
324.704
325.211
325.795
326.34
326.799
327.1
327.552
327.871
328.14
328.331
328.403
328.646
328.633
328.631
328.461
328.394
328.206
327.877
327.467
327.157
321.363
321.814
322.32
322.669
323.098
323.442
323.771
324.099
324.329
324.467
324.621
324.737
324.794
324.591
324.556
324.46
324.255
323.993
323.72
323.374
317.986
318.435
318.781
319.154
319.508
319.758
320.037
320.235
320.475
320.628
320.735
320.763
320.794
320.814
320.718
320.608
320.394
320.305
319.995
319.772
314.734
315.003
315.297
315.661
315.893
316.08
316.337
316.589
316.671
316.827
316.87
316.988
316.988
316.945
316.937
316.761
316.687
316.457
316.339
316.024
311.48
311.66
311.881
312.071
312.369
312.538
312.683
312.865
312.898
313.056
313.088
313.145
313.232
313.187
313.098
313.08
312.92
312.825
312.635
312.521
308.189
308.344
308.484
308.632
308.768
308.906
309.096
309.161
309.215
309.311
309.39
309.352
309.394
309.356
309.391
309.3
309.19
309.078
308.997
308.91
304.905
304.909
305.065
305.195
305.314
305.326
305.477
305.483
305.499
305.554
305.586
305.616
305.6
305.686
305.67
305.527
305.531
305.448
305.378
305.338
301.632
301.674
301.654
301.699
301.717
301.702
301.879
301.861
301.829
301.888
301.823
301.886
301.89
301.936
301.9
301.85
301.908
301.874
301.831
301.775
325.408
325.832
326.437
327.051
327.414
327.887
328.264
328.615
328.848
329.095
329.259
329.315
329.472
329.336
329.242
329.148
328.846
328.562
328.2
327.846
321.944
322.394
322.812
323.305
323.699
324.077
324.351
324.69
324.863
325.103
325.18
325.253
325.352
325.294
325.267
325.145
324.895
324.612
324.273
324.011
318.577
318.845
319.238
319.626
320.016
320.235
320.572
320.795
320.998
321.114
321.312
321.334
321.386
321.362
321.281
321.183
320.921
320.696
320.501
320.242
315.112
315.379
315.611
315.995
316.361
316.534
316.757
316.882
317.142
317.22
317.364
317.422
317.406
317.379
317.393
317.255
317.031
316.914
316.662
316.467
311.747
311.908
312.268
312.431
312.713
312.899
312.979
313.122
313.288
313.483
313.457
313.465
313.521
313.472
313.465
313.423
313.244
313.137
312.944
312.824
308.319
308.566
308.648
308.897
308.983
309.142
309.287
309.365
309.427
309.543
309.644
309.642
309.641
309.562
309.613
309.552
309.425
309.343
309.227
309.093
305.02
305.085
305.285
305.403
305.419
305.52
305.654
305.612
305.607
305.664
305.78
305.759
305.763
305.752
305.8
305.774
305.62
305.63
305.571
305.431
301.756
301.74
301.692
301.798
301.791
301.877
301.81
301.895
301.886
301.909
301.948
301.932
301.914
301.953
301.929
301.965
301.898
301.82
301.863
301.887
325.959
326.52
327.021
327.579
328.122
328.492
328.918
329.26
329.521
329.795
329.959
330.04
330.057
330.002
329.951
329.728
329.531
329.198
328.857
328.411
322.422
322.872
323.38
323.841
324.24
324.613
324.973
325.277
325.508
325.746
325.856
325.856
325.955
325.962
325.802
325.654
325.481
325.121
324.828
324.525
318.964
319.34
319.674
320.108
320.404
320.799
321.107
321.357
321.472
321.709
321.793
321.809
321.912
321.842
321.783
321.631
321.46
321.149
320.989
320.645
315.433
315.686
316.056
316.343
316.626
316.929
317.136
317.377
317.502
317.684
317.757
317.746
317.887
317.796
317.722
317.576
317.475
317.3
317.09
316.863
311.961
312.161
312.482
312.784
312.997
313.213
313.396
313.413
313.629
313.607
313.783
313.817
313.853
313.825
313.774
313.731
313.612
313.489
313.264
313.083
308.605
308.676
308.889
309.054
309.238
309.343
309.44
309.605
309.742
309.73
309.837
309.864
309.803
309.834
309.884
309.805
309.707
309.562
309.401
309.318
305.124
305.265
305.362
305.427
305.517
305.656
305.701
305.752
305.871
305.886
305.938
305.837
305.9
305.943
305.887
305.815
305.768
305.653
305.687
305.566
301.681
301.754
301.775
301.831
301.852
301.93
301.994
301.988
301.987
301.978
301.967
301.972
302.009
301.973
301.943
301.948
301.931
301.905
301.863
301.822
326.397
326.961
327.614
328.18
328.677
329.134
329.502
329.862
330.267
330.377
330.53
330.734
330.681
330.655
330.517
330.332
330.115
329.709
329.385
328.987
322.914
323.33
323.832
324.333
324.747
325.181
325.534
325.825
326.128
326.254
326.367
326.495
326.494
326.411
326.304
326.239
325.972
325.707
325.323
325.032
319.327
319.693
320.095
320.532
320.865
321.238
321.504
321.733
322.075
322.117
322.241
322.346
322.296
322.324
322.23
322.006
321.823
321.64
321.324
321.045
315.703
316.036
316.354
316.767
317.108
317.268
317.608
317.74
317.949
318.062
318.119
318.168
318.253
318.143
318.099
317.997
317.823
317.677
317.38
317.251
312.22
312.47
312.759
312.972
313.168
313.386
313.623
313.694
313.957
313.988
314.089
314.163
314.016
314.094
314.036
313.989
313.846
313.697
313.487
313.337
308.736
308.855
309.016
309.315
309.391
309.514
309.672
309.802
309.989
309.972
310.117
310.025
310.126
310.065
310.032
309.906
309.901
309.766
309.647
309.581
305.221
305.378
305.471
305.511
305.724
305.812
305.825
305.956
306.007
305.946
306.032
306.083
306.07
306.017
305.967
306.04
305.958
305.829
305.774
305.716
301.735
301.799
301.848
301.887
301.967
302.006
302.003
301.957
302.032
301.963
302.026
302.067
302.018
302.02
302.009
301.984
302.031
301.913
301.972
301.876
326.956
327.479
328.158
328.699
329.192
329.687
330.148
330.487
330.716
330.976
331.16
331.252
331.27
331.279
331.063
330.919
330.644
330.266
329.919
329.423
323.277
323.759
324.271
324.654
325.23
325.628
326.08
326.299
326.546
326.721
326.907
326.986
327.015
326.985
326.819
326.722
326.349
326.155
325.829
325.514
319.643
320.017
320.424
320.879
321.276
321.647
321.896
322.186
322.434
322.478
322.616
322.675
322.721
322.688
322.625
322.518
322.202
321.967
321.684
321.455
316.046
316.368
316.691
317.054
317.348
317.637
317.853
318.072
318.303
318.424
318.464
318.491
318.521
318.527
318.501
318.368
318.166
317.918
317.677
317.445
312.408
312.686
312.886
313.22
313.416
313.689
313.832
314.026
314.158
314.276
314.337
314.435
314.419
314.365
314.279
314.246
314.129
313.958
313.798
313.579
308.895
309.025
309.238
309.481
309.568
309.831
309.842
310.002
310.088
310.213
310.243
310.237
310.197
310.308
310.165
310.126
310.111
309.939
309.774
309.63
305.369
305.441
305.53
305.668
305.774
305.895
305.924
305.949
306.083
306.135
306.125
306.12
306.116
306.175
306.141
306.1
306.002
305.954
305.878
305.809
301.768
301.867
301.942
301.959
301.963
301.99
301.958
302.03
302.076
302.076
302.098
302.014
302.086
302.068
302.11
302.023
302.014
301.976
301.99
301.961
327.246
327.873
328.561
329.075
329.683
330.149
330.577
330.897
331.301
331.499
331.687
331.781
331.812
331.715
331.587
331.356
331.076
330.664
330.299
329.896
323.622
324
324.59
325.197
325.705
326.051
326.405
326.73
327.038
327.144
327.36
327.371
327.363
327.321
327.223
327.024
326.832
326.474
326.153
325.831
319.948
320.369
320.807
321.218
321.627
321.901
322.209
322.6
322.692
322.925
322.941
323.163
323.173
323.134
322.991
322.848
322.615
322.365
322.053
321.804
316.303
316.585
316.929
317.309
317.635
317.866
318.127
318.354
318.565
318.702
318.815
318.847
318.81
318.866
318.732
318.603
318.411
318.261
317.922
317.729
312.668
312.898
313.165
313.385
313.611
313.882
314.024
314.214
314.366
314.547
314.628
314.607
314.584
314.587
314.489
314.393
314.239
314.137
313.924
313.78
309.047
309.128
309.328
309.591
309.711
309.844
310.048
310.186
310.272
310.345
310.413
310.409
310.402
310.342
310.386
310.203
310.13
310.044
310.007
309.818
305.437
305.553
305.662
305.739
305.868
305.932
306.004
306.08
306.151
306.182
306.251
306.229
306.203
306.195
306.19
306.191
306.118
306.076
306.083
305.84
301.817
301.887
301.869
301.836
301.983
302.013
301.984
302.021
302.134
302.079
302.083
302.06
302.143
302.032
302.121
302.112
302.045
302.006
302.036
301.906
327.638
328.172
328.825
329.5
330.024
330.531
331.042
331.349
331.711
331.899
332.057
332.126
332.188
332.074
331.944
331.779
331.441
331.059
330.632
330.332
323.875
324.351
324.937
325.4
325.93
326.407
326.71
327.08
327.288
327.545
327.732
327.738
327.845
327.732
327.579
327.464
327.176
326.813
326.512
326.118
320.178
320.518
321.007
321.494
321.923
322.268
322.57
322.758
323.035
323.156
323.299
323.407
323.386
323.309
323.241
323.095
322.895
322.636
322.299
322.04
316.391
316.728
317.225
317.418
317.831
318.164
318.441
318.583
318.834
318.865
319.017
319.043
319.048
319.059
318.996
318.866
318.691
318.44
318.223
317.984
312.771
313.026
313.359
313.644
313.804
314.063
314.266
314.451
314.575
314.636
314.701
314.78
314.797
314.818
314.676
314.674
314.49
314.342
314.117
313.844
309.141
309.373
309.482
309.663
309.87
310.053
310.167
310.302
310.42
310.46
310.549
310.533
310.549
310.502
310.45
310.362
310.308
310.151
310.093
309.982
305.463
305.549
305.735
305.786
305.934
305.991
306.132
306.216
306.256
306.267
306.293
306.298
306.429
306.375
306.296
306.274
306.108
306.206
306.045
305.901
301.846
301.908
301.868
301.956
301.989
301.962
302.016
302.013
302.143
302.151
302.134
302.144
302.188
302.123
302.115
302.054
302.08
302.06
302.023
302.072
327.829
328.448
329.115
329.722
330.35
330.833
331.278
331.64
331.935
332.177
332.356
332.468
332.486
332.422
332.331
332.017
331.807
331.409
330.92
330.46
324.055
324.574
325.095
325.728
326.175
326.566
326.976
327.278
327.539
327.682
327.948
327.943
327.966
327.959
327.774
327.593
327.402
327.076
326.692
326.266
320.288
320.708
321.166
321.625
322.085
322.412
322.727
323.025
323.205
323.433
323.478
323.522
323.568
323.598
323.477
323.261
323.088
322.758
322.458
322.229
316.546
316.892
317.255
317.599
318.027
318.275
318.559
318.768
318.995
319.086
319.18
319.172
319.248
319.232
319.03
319.016
318.77
318.531
318.361
318.076
312.849
313.117
313.391
313.738
313.94
314.165
314.346
314.552
314.695
314.794
314.873
314.885
314.897
314.902
314.901
314.733
314.555
314.416
314.197
314.031
309.179
309.348
309.561
309.749
309.92
310.106
310.229
310.33
310.446
310.56
310.598
310.664
310.613
310.678
310.536
310.515
310.377
310.305
310.155
310.019
305.507
305.671
305.705
305.886
305.934
306.059
306.202
306.237
306.275
306.321
306.362
306.295
306.424
306.411
306.384
306.299
306.216
306.112
306.114
306.053
301.815
301.932
301.922
301.977
302.022
302.014
302.061
302.082
302.024
302.112
302.086
302.085
302.131
302.145
302.135
302.13
302.075
302.039
302.048
302.043
)
;

boundaryField
{
    hotSide
    {
        type            fixedGradient;
        gradient        nonuniform List<scalar> 
400
(
321.511
322.87
325.591
329.677
335.133
341.965
350.181
359.788
370.794
383.208
397.037
412.289
428.971
447.088
466.647
487.651
510.105
534.011
559.372
586.191
323.738
325.08
327.767
331.802
337.194
343.949
352.078
361.591
372.498
384.81
398.537
413.687
430.268
448.289
467.755
488.672
511.043
534.872
560.161
586.913
326.149
327.47
330.116
334.091
339.406
346.071
354.099
363.503
374.296
386.491
400.101
415.136
431.606
449.52
468.885
489.706
511.988
535.735
560.948
587.63
328.704
330
332.597
336.503
341.73
348.292
356.205
365.485
376.15
388.215
401.695
416.604
432.954
450.753
470.009
490.73
512.919
536.579
561.714
588.325
331.33
332.599
335.142
338.97
344.099
350.546
358.332
367.477
378.003
389.928
403.271
418.047
434.27
451.949
471.095
491.712
513.807
537.382
562.439
588.978
333.918
335.158
337.643
341.389
346.414
352.74
360.392
369.397
379.779
391.562
404.765
419.407
435.503
453.065
472.101
492.618
514.622
538.114
563.096
589.569
336.321
337.531
339.959
343.622
348.544
354.751
362.274
371.142
381.385
393.031
406.101
420.618
436.595
454.047
472.983
493.409
515.33
538.747
563.663
590.076
338.36
339.543
341.92
345.509
350.339
356.44
363.847
372.595
382.718
394.244
407.2
421.608
437.485
454.844
473.695
494.045
515.897
539.253
564.114
590.478
339.852
341.015
343.352
346.885
351.645
357.665
364.985
373.643
383.675
395.113
407.984
422.312
438.116
455.407
474.197
494.491
516.294
539.606
564.428
590.758
340.643
341.795
344.11
347.613
352.334
358.311
365.584
374.193
384.176
395.567
408.393
422.679
438.443
455.699
474.456
494.722
516.498
539.788
564.589
590.901
340.643
341.795
344.11
347.613
352.334
358.311
365.584
374.193
384.176
395.567
408.393
422.679
438.443
455.699
474.456
494.722
516.498
539.788
564.589
590.901
339.852
341.015
343.352
346.885
351.645
357.665
364.985
373.643
383.675
395.113
407.984
422.312
438.116
455.407
474.197
494.491
516.294
539.606
564.428
590.758
338.36
339.543
341.92
345.509
350.339
356.44
363.847
372.595
382.718
394.244
407.2
421.608
437.485
454.844
473.695
494.045
515.897
539.253
564.114
590.478
336.321
337.531
339.959
343.622
348.544
354.751
362.274
371.142
381.385
393.031
406.101
420.618
436.595
454.047
472.983
493.409
515.33
538.747
563.663
590.076
333.918
335.158
337.643
341.389
346.414
352.74
360.392
369.397
379.779
391.562
404.765
419.407
435.503
453.065
472.101
492.618
514.622
538.114
563.096
589.569
331.33
332.599
335.142
338.97
344.099
350.546
358.332
367.477
378.003
389.928
403.271
418.047
434.27
451.949
471.095
491.712
513.807
537.382
562.439
588.978
328.704
330
332.597
336.503
341.73
348.292
356.205
365.485
376.15
388.215
401.695
416.604
432.954
450.753
470.009
490.73
512.919
536.579
561.714
588.325
326.149
327.47
330.116
334.091
339.406
346.071
354.099
363.503
374.296
386.491
400.101
415.136
431.606
449.52
468.885
489.706
511.988
535.735
560.948
587.63
323.738
325.08
327.767
331.802
337.194
343.949
352.078
361.591
372.498
384.81
398.537
413.687
430.268
448.289
467.755
488.672
511.043
534.872
560.161
586.913
321.511
322.87
325.591
329.677
335.133
341.965
350.181
359.788
370.794
383.208
397.037
412.289
428.971
447.088
466.647
487.651
510.105
534.011
559.372
586.191
)
;
    }
    coldSide
    {
        type            mixed;
        refValue        uniform 300;
        refGradient     uniform 0;
        valueFraction   uniform 0.991591;
        source          uniform 0;
        value           nonuniform List<scalar> 
400
(
300.009
300.009
300.009
300.01
300.01
300.011
300.011
300.012
300.012
300.013
300.013
300.013
300.014
300.015
300.014
300.015
300.015
300.015
300.016
300.015
300.009
300.01
300.01
300.01
300.011
300.011
300.012
300.012
300.012
300.012
300.014
300.014
300.014
300.015
300.015
300.015
300.016