/*--------------------------------*- C++ -*----------------------------------*\
| =========                 |                                                 |
| \\      /  F ield         | OpenFOAM: The Open Source CFD Toolbox           |
|  \\    /   O peration     | Version:  2212                                  |
|   \\  /    A nd           | Website:  www.openfoam.com                      |
|    \\/     M anipulation  |                                                 |
\*---------------------------------------------------------------------------*/
FoamFile
{
    version     2.0;
    format      ascii;
    arch        "LSB;label=32;scalar=64";
    class       volScalarField;
    location    "./ITHACAoutput/true/19.9";
    object      error;
}
// * * * * * * * * * * * * * * * * * * * * * * * * * * * * * * * * * * * * * //

dimensions      [0 0 0 1 0 0 0];

internalField   nonuniform List<scalar> 
3200
(
6.52164
6.44459
6.3913
6.379
6.3746
6.47964
6.52801
6.57337
6.61367
6.63491
6.63798
6.56521
6.49264
6.39859
6.2476
6.11297
6.10021
6.01178
6.10379
6.18038
5.63696
5.63901
5.5369
5.59197
5.63447
5.70489
5.6275
5.77113
5.75458
5.77326
5.81489
5.74387
5.60708
5.56415
5.43204
5.37869
5.30687
5.2565
5.35351
5.36183
4.83615
4.76293
4.76341
4.67956
4.70432
4.78614
4.81602
4.9073
4.96937
4.88804
4.94327
4.91691
4.81752
4.71958
4.57882
4.67607
4.54124
4.53045
4.52299
4.64958
3.95962
3.91705
3.85195
3.88674
3.92869
3.96166
3.93297
4.02434
4.10875
4.05013
4.16712
4.09779
3.95544
3.84713
3.75328
3.78075
3.72859
3.74047
3.72861
3.77476
3.12349
3.08677
3.04987
3.10996
3.03545
3.08933
3.09756
3.16087
3.18916
3.16394
3.24261
3.16388
3.10404
3.1029
2.9534
2.95775
2.97417
2.91699
2.9445
2.94815
2.3037
2.204
2.1614
2.09218
2.13232
2.18065
2.14498
2.31342
2.298
2.28064
2.31657
2.34777
2.22099
2.23905
2.16975
2.07306
2.12911
2.13006
2.12934
2.14976
1.37033
1.30112
1.29518
1.31656
1.34317
1.3901
1.26483
1.37134
1.3766
1.30847
1.36396
1.36359
1.35625
1.31118
1.35784
1.31153
1.28366
1.317
1.31506
1.19662
0.504259
0.454972
0.419642
0.438452
0.526548
0.453539
0.442399
0.432077
0.453543
0.394493
0.466289
0.414675
0.489976
0.513479
0.393526
0.427809
0.443803
0.456384
0.405918
0.391313
5.94293
5.80143
5.69413
5.68647
5.62861
5.78664
5.75745
5.89735
5.89257
5.85797
5.82879
5.79425
5.70758
5.53529
5.49447
5.45269
5.40064
5.40411
5.41647
5.51587
5.26499
5.05595
5.01909
4.93922
5.02333
5.05747
5.11434
5.15882
5.16044
5.17565
5.16289
5.08219
5.00499
4.91622
4.82659
4.82147
4.65556
4.73343
4.78436
4.88709
4.4399
4.33175
4.31453
4.25327
4.33325
4.33405
4.38053
4.3912
4.45835
4.46111
4.41183
4.37917
4.34529
4.25042
4.22292
4.13179
4.10159
4.08474
4.08819
4.15793
3.6836
3.55323
3.54581
3.58392
3.58621
3.59055
3.59331
3.67036
3.65343
3.70608
3.66376
3.70917
3.62915
3.49339
3.42955
3.43335
3.41454
3.36194
3.44507
3.45336
2.82253
2.78466
2.79513
2.80154
2.80139
2.82882
2.83301
2.85511
2.93317
2.85662
2.91039
2.91142
2.8412
2.81116
2.71892
2.65235
2.60556
2.67384
2.64795
2.72914
1.99949
1.98485
1.93152
2.032
1.98112
2.06242
2.04691
2.04385
2.0797
2.07661
2.12725
2.03407
2.06331
2.07797
1.9589
1.91578
1.95144
1.86163
1.90139
1.86329
1.2798
1.23898
1.23215
1.24609
1.16822
1.15321
1.21058
1.18839
1.25452
1.25453
1.25194
1.2651
1.31406
1.25453
1.17724
1.15636
1.09606
1.1167
1.13266
1.12777
0.419326
0.397477
0.338231
0.437886
0.399905
0.380133
0.470772
0.362456
0.408655
0.390177
0.393777
0.379774
0.399564
0.435506
0.399747
0.390835
0.440653
0.363211
0.38802
0.408073
5.17993
4.95451
4.91997
4.84762
4.82281
4.83154
4.82731
4.96086
4.95122
4.90579
4.88947
4.83856
4.72691
4.67542
4.57827
4.47722
4.53741
4.50007
4.5564
4.75124
4.59379
4.52795
4.33722
4.34193
4.20154
4.27891
4.31002
4.3504
4.43293
4.43506
4.39313
4.34302
4.2202
4.14742
4.08941
4.01524
3.98526
3.99864
4.01477
4.18014
3.93471
3.77295
3.72407
3.67016
3.6725
3.75155
3.70594
3.72422
3.77273
3.85271
3.71637
3.73103
3.60944
3.62803
3.5606
3.45378
3.4503
3.4325
3.5097
3.59958
3.22606
3.16558
3.14249
3.04082
3.07202
3.06287
3.14733
3.09732
3.12002
3.20246
3.20604
3.14822
2.99567
2.93168
2.9345
2.84822
2.90628
2.91755
2.90256
3.02194
2.57061
2.47432
2.42754
2.38974
2.49785
2.40324
2.47309
2.4916
2.50196
2.47257
2.50055
2.45066
2.42911
2.39572
2.32658
2.26819
2.2529
2.31573
2.28941
2.36222
1.77298
1.84411
1.86981
1.75645
1.74925
1.74673
1.75616
1.82692
1.76354
1.78482
1.77919
1.79899
1.74157
1.69429
1.71503
1.62615
1.71184
1.70975
1.70164
1.71178
1.05755
1.07768
1.07214
1.09963
1.11522
1.07929
1.07635
1.08253
1.06279
1.12012
1.10473
1.08626
1.03932
1.04235
0.967283
1.00869
0.981512
0.995936
0.983072
1.02963
0.344473
0.334011
0.319973
0.397614
0.333848
0.318147
0.369947
0.36182
0.35461
0.463743
0.293585
0.370803
0.329392
0.370062
0.315719
0.310404
0.299271
0.301885
0.385239
0.389005
4.50172
4.26498
4.17367
4.07181
4.00704
3.97475
3.94461
3.90101
3.95518
3.93905
3.9212
3.91483
3.76394
3.66534
3.66855
3.59981
3.52189
3.57978
3.71928
3.88907
3.99416
3.94916
3.71245
3.52408
3.50241
3.51587
3.50839
3.57843
3.5646
3.53753
3.49435
3.48848
3.37178
3.37238
3.21605
3.23543
3.2198
3.28677
3.42688
3.45236
3.35681
3.27468
3.19271
3.11305
3.0784
3.07665
3.12069
3.11894
3.14075
3.15397
3.03664
3.01288
2.96061
2.91561
2.83192
2.81874
2.77727
2.8515
2.94597
3.0039
2.83729
2.77461
2.69745
2.61955
2.57127
2.56943
2.59871
2.65838
2.57468
2.60808
2.59007
2.56098
2.51254
2.46833
2.4025
2.36007
2.38973
2.36851
2.43985
2.43975
2.22256
2.1578
2.12818
2.07051
2.05484
2.03869
2.10128
2.1412
2.08935
2.00181
2.01374
2.07067
2.03728
1.9326
1.98734
1.81067
1.88761
2.00634
1.90476
1.96153
1.62145
1.52768
1.52946
1.48714
1.49392
1.45433
1.48102
1.48824
1.50672
1.51089
1.53954
1.42983
1.51112
1.39572
1.35538
1.45975
1.32862
1.31811
1.38258
1.42182
0.973653
0.987265
0.847475
0.851626
0.911048
0.914584
0.87047
0.910968
0.939533
0.903425
0.86228
0.887426
0.87999
0.849312
0.855549
0.807259
0.858406
0.839195
0.905754
0.897952
0.393105
0.253967
0.282381
0.286654
0.296468
0.313921
0.332029
0.326078
0.305543
0.283478
0.33147
0.220757
0.271386
0.314519
0.228819
0.28137
0.32535
0.275669
0.306482
0.263991
3.9478
3.66769
3.47883
3.28143
3.26023
3.10257
3.15529
3.10312
3.13297
3.14453
3.01229
2.97686
2.8343
2.90456
2.80941
2.72857
2.85958
2.80147
2.99147
3.0951
3.476
3.27042
3.07642
2.96029
2.85604
2.75844
2.82095
2.90499
2.84142
2.82662
2.81827
2.67364
2.56153
2.6295
2.54769
2.43422
2.46413
2.55274
2.67838
2.84797
2.96554
2.84626
2.67111
2.56215
2.52491
2.54786
2.53929
2.44333
2.49862
2.47486
2.39875
2.4179
2.36041
2.24602
2.25983
2.1982
2.2555
2.21724
2.37882
2.44112
2.45076
2.36714
2.14795
2.1907
2.09388
2.13337
2.15026
2.12708
2.14191
2.0265
2.03938
2.11174
1.97296
1.97192
1.9848
1.84179
1.88216
1.98937
2.03319
2.08227
1.9521
1.84504
1.79703
1.68357
1.67807
1.68403
1.66936
1.6789
1.63316
1.68891
1.60008
1.68248
1.56034
1.56818
1.49766
1.4555
1.54911
1.60606
1.608
1.61859
1.37773
1.34318
1.27127
1.25251
1.22145
1.15265
1.22351
1.22346
1.18557
1.11864
1.148
1.17707
1.14514
1.14688
1.13501
1.09858
1.1071
1.10035
1.18685
1.2099
0.875193
0.874492
0.731512
0.716538
0.696878
0.756894
0.749752
0.715849
0.664618
0.74805
0.686989
0.684603
0.754232
0.653779
0.738445
0.691291
0.687235
0.655836
0.744632
0.801987
0.240909
0.318516
0.295022
0.309525
0.202115
0.223881
0.208676
0.271643
0.240845
0.290278
0.293601
0.267205
0.231997
0.257239
0.250172
0.162754
0.173825
0.258322
0.19873
0.179175
3.4097
3.20139
2.86677
2.71726
2.6407
2.48646
2.37728
2.33586
2.308
2.23581
2.2051
2.1546
2.12348
1.99226
1.99464
2.02661
2.05446
2.1595
2.34067
2.56383
3.02919
2.83368
2.54923
2.46582
2.2783
2.20978
2.19393
2.19771
2.09108
2.08038
1.99708
2.02413
1.95105
1.83214
1.90241
1.85615
1.90087
2.00312
2.0927
2.30116
2.66248
2.40421
2.26997
2.10486
2.00422
1.93529
1.94429
1.98429
1.88085
1.87728
1.82384
1.79215
1.73901
1.73908
1.68496
1.67489
1.67134
1.69528
1.85173
2.02979
2.12852
1.98418
1.85345
1.79086
1.69986
1.6696
1.65308
1.66166
1.68011
1.56815
1.507
1.55362
1.51073
1.45523
1.43945
1.4472
1.45603
1.51756
1.5735
1.66685
1.6772
1.66073
1.46788
1.43263
1.33708
1.37055
1.28663
1.28644
1.20606
1.32652
1.34512
1.16702
1.24328
1.16305
1.16124
1.21685
1.19617
1.21707
1.25576
1.38502
1.25934
1.17169
1.12713
1.01067
0.923313
1.01275
1.00973
1.03733
0.964364
0.945925
0.949972
0.926524
0.825234
0.79291
0.837077
0.833461
0.879602
0.909217
0.958382
0.979519
0.698579
0.712804
0.677389
0.578833
0.610713
0.628017
0.524363
0.58964
0.628393
0.653773
0.507828
0.556925
0.580779
0.476115
0.532621
0.514696
0.528662
0.557974
0.566485
0.666571
0.207533
0.229174
0.245656
0.215617
0.20098
0.146937
0.224921
0.191648
0.28262
0.175121
0.184292
0.157891
0.185542
0.164932
0.244833
0.237998
0.200172
0.198176
0.18589
0.222648
3.03755
2.69979
2.46056
2.19508
1.97998
1.83663
1.77537
1.76672
1.64174
1.57878
1.51606
1.4675
1.38019
1.40707
1.37377
1.35473
1.41337
1.6285
1.84155
2.04814
2.60877
2.42218
2.15503
1.99396
1.84564
1.73852
1.70251
1.61643
1.5804
1.54292
1.46009
1.36669
1.38046
1.30104
1.30547
1.28966
1.43922
1.55706
1.62112
1.9039
2.31107
2.09689
1.87019
1.79642
1.58854
1.61334
1.57663
1.43052
1.36931
1.4175
1.39181
1.30598
1.28049
1.17783
1.26337
1.2595
1.24192
1.35012
1.50416
1.65556
2.00065
1.72302
1.6247
1.43091
1.42521
1.40211
1.25765
1.33789
1.21913
1.22674
1.15363
1.094
1.07384
1.03551
1.07223
1.06813
1.08107
1.16597
1.26481
1.44451
1.51002
1.37429
1.27059
1.19368
1.11301
1.09332
1.03808
1.08109
1.10232
0.958163
0.944027
0.959572
0.937055
0.859627
0.870344
0.874521
0.930696
0.98594
1.02794
1.12894
1.18605
0.995536
0.922921
0.891356
0.802983
0.829484
0.736939
0.763308
0.740501
0.704598
0.715578
0.68538
0.641891
0.723389
0.673559
0.670817
0.688002
0.702795
0.732821
0.783864
0.640742
0.652091
0.609117
0.573261
0.518377
0.493799
0.494524
0.512138
0.525189
0.517497
0.470078
0.481913
0.383034
0.381341
0.37936
0.380703
0.407141
0.408237
0.456694
0.547829
0.177541
0.231003
0.203153
0.2094
0.166924
0.14407
0.154015
0.197147
0.163738
0.169649
0.185408
0.115783
0.110471
0.121802
0.151163
0.226835
0.113694
0.112647
0.168879
0.188427
2.75005
2.42736
2.03985
1.79696
1.56546
1.41745
1.31819
1.16633
1.10029
1.0458
0.994342
0.917462
0.895473
0.808937
0.867309
0.895755
0.92688
1.16029
1.48835
1.66461
2.45946
2.21021
1.92172
1.70329
1.46796
1.33067
1.2442
1.22335
1.12478
1.08747
0.903641
0.98581
0.886066
0.832951
0.842005
0.94295
0.969281
1.08227
1.38725
1.52689
2.10095
1.89966
1.70917
1.52903
1.33807
1.25922
1.1598
1.056
1.01849
1.05995
0.891573
0.891919
0.834373
0.812069
0.856839
0.861411
0.947197
1.088
1.23888
1.39104
1.79884
1.57859
1.39528
1.24105
1.10246
1.07459
1.0231
0.954346
0.906695
0.85791
0.803271
0.814819
0.810103
0.76349
0.734341
0.825888
0.855845
0.920984
0.995074
1.21585
1.35223
1.31974
1.13756
1.07367
0.945627
0.820695
0.769392
0.777287
0.720431
0.772228
0.678185
0.708952
0.660239
0.595702
0.645899
0.691898
0.720873
0.719664
0.867822
1.0473
1.05215
0.979289
0.843249
0.724568
0.736275
0.685001
0.610024
0.57891
0.582985
0.541945
0.516684
0.500532
0.523574
0.510321
0.465585
0.531842
0.574279
0.60915
0.593602
0.627404
0.665989
0.569833
0.497211
0.44827
0.424616
0.412655
0.383924
0.365092
0.317333
0.341419
0.282094
0.2373
0.300204
0.260928
0.307947
0.330014
0.308057
0.324297
0.363272
0.461393
0.146513
0.198536
0.209865
0.14927
0.123734
0.1296
0.13361
0.157225
0.119895
0.11757
0.0524373
0.085862
0.0903521
0.0489296
0.0735571
0.111556
0.17313
0.089484
0.15062
0.166328
2.647
2.2357
1.91551
1.5052
1.3332
1.04892
0.966297
0.799143
0.711436
0.660245
0.527917
0.494989
0.436167
0.410469
0.48354
0.544176
0.698956
0.938165
1.16594
1.43947
2.32731
2.01889
1.77703
1.49598
1.21073
1.10019
0.921574
0.823349
0.777951
0.630202
0.643372
0.550892
0.538618
0.531463
0.49795
0.55927
0.727212
0.894455
1.17495
1.3396
2.05965
1.77076
1.46641
1.27625
1.07386
0.925688
0.858678
0.806436
0.740836
0.70871
0.642637
0.577079
0.527563
0.566314
0.567938
0.572181
0.681103
0.868202
1.05883
1.23136
1.67696
1.48922
1.30827
1.14266
1.03042
0.883406
0.755639
0.706978
0.690572
0.581973
0.550512
0.574099
0.547497
0.496355
0.58829
0.547706
0.658338
0.780954
0.891518
1.014
1.31961
1.24518
1.06665
0.911757
0.834759
0.715013
0.619476
0.60959
0.464155
0.501906
0.452359
0.458364
0.442394
0.413477
0.478512
0.423443
0.467982
0.607834
0.799563
0.833967
0.978149
0.89942
0.741839
0.576986
0.60626
0.532089
0.42994
0.40747
0.476912
0.405545
0.395233
0.351433
0.412407
0.353978
0.450811
0.398785
0.430076
0.512308
0.578219
0.634648
0.593076
0.581044
0.499264
0.508575
0.379503
0.315764
0.262461
0.291111
0.298735
0.252334
0.282911
0.208082
0.283492
0.251454
0.177922
0.246652
0.263295
0.325398
0.349857
0.375947
0.207561
0.140452
0.175236
0.117189
0.0885491
0.108229
0.0984722
0.0930489
0.119087
0.0610007
0.112951
0.118552
0.0949598
0.0399973
0.0148001
0.0995216
0.0583921
0.125781
0.0681907
0.135568
2.64091
2.23322
1.8712
1.50287
1.20254
0.98716
0.770308
0.573256
0.454452
0.39744
0.318885
0.215852
0.16975
0.178426
0.224644
0.41818
0.471014
0.802091
1.08892
1.35414
2.39007
1.99716
1.77406
1.37964
1.15283
0.93844
0.720077
0.695206
0.557694
0.466181
0.342854
0.327249
0.257
0.281876
0.355397
0.451085
0.56821
0.81749
0.982192
1.32176
1.98836
1.81438
1.48426
1.29818
0.995429
0.908326
0.678636
0.638022
0.599206
0.46818
0.369749
0.446861
0.337066
0.288096
0.364503
0.4215
0.530036
0.737744
0.968321
1.15355
1.70233
1.44629
1.32251
1.07351
0.941781
0.776987
0.705012
0.61162
0.523526
0.419902
0.402507
0.363103
0.326009
0.372329
0.409772
0.454608
0.473042
0.662015
0.859292
0.96399
1.32603
1.1802
1.01408
0.888948
0.784252
0.507011
0.521629
0.519421
0.476
0.450174
0.404788
0.321008
0.343684
0.284347
0.370234
0.464924
0.4962
0.566898
0.703082
0.881285
0.986436
0.903522
0.756068
0.632913
0.565861
0.533464
0.414138
0.324096
0.318148
0.271079
0.207542
0.247281
0.227749
0.264031
0.287089
0.297974
0.368625
0.467445
0.510438
0.642885
0.590135
0.537279
0.4358
0.447009
0.389717
0.34578
0.218197
0.180414
0.213803
0.221411
0.197013
0.141984
0.176442
0.219895
0.182244
0.131307
0.202748
0.30671
0.327733
0.433492
0.238941
0.183385
0.17451
0.0689157
0.126786
0.103591
0.0649227
0.0893298
0.0729677
0.0190815
0.129503
0.0656222
0.0353205
0.0451851
0.115685
0.0480798
0.101996
0.120455
0.066815
0.0952449
2.86568
2.39427
1.96081
1.55094
1.24835
0.908699
0.711868
0.541476
0.439949
0.324378
0.24466
0.0713564
0.0989344
0.112797
0.169019
0.37512
0.536936
0.79474
1.11445
1.56699
2.49603
2.13704
1.80355
1.50357
1.13644
0.972648
0.72329
0.576599
0.486093
0.364232
0.223736
0.208057
0.244374
0.136362
0.30019
0.380689
0.590165
0.77086
1.06878
1.3841
2.18186
1.86634
1.6069
1.29438
1.07008
0.843901
0.714185
0.625311
0.472776
0.335701
0.364868
0.306547
0.254733
0.390798
0.347301
0.476543
0.579831
0.697169
1.00522
1.23641
1.77641
1.5698
1.29679
1.07729
0.9598
0.770024
0.631581
0.537016
0.48002
0.296602
0.387716
0.336685
0.264954
0.263129
0.343538
0.369824
0.508058
0.724618
0.920161
1.01908
1.47916
1.19698
1.09616
0.908637
0.767825
0.640673
0.501138
0.437361
0.382243
0.403619
0.341624
0.257083
0.259766
0.231773
0.293455
0.401535
0.483117
0.552458
0.71225
0.826405
0.967971
0.958751
0.770168
0.722189
0.59267
0.481332
0.332032
0.350488
0.320109
0.354547
0.227137
0.235237
0.208053
0.186201
0.283394
0.304944
0.323088
0.465838
0.582586
0.56166
0.665499
0.580038
0.518848
0.452423
0.277757
0.315898
0.210308
0.19204
0.273949
0.171985
0.223352
0.0835156
0.137439
0.147763
0.112082
0.166394
0.275053
0.264493
0.291385
0.367692
0.150182
0.216953
0.182261
0.0879937
0.102491
0.106957
0.0898597
0.0716546
0.0710856
0.0564767
0.0452596
0.0277541
0.0528124
0.0305063
0.057613
0.0442258
-0.0137258
0.056331
0.0857033
0.12857
3.25678
2.69253
2.25435
1.81158
1.41701
1.10152
0.835234
0.60583
0.491345
0.346995
0.263809
0.192122
0.11581
0.149502
0.304302
0.476673
0.707686
0.991933
1.36672
1.72371
2.78349
2.39535
1.97443
1.6517
1.31331
1.06231
0.861064
0.640661
0.534153
0.391007
0.357235
0.24873
0.321532
0.272261
0.375942
0.50344
0.707194
0.97176
1.23989
1.6094
2.42241
2.10047
1.7641
1.40159
1.21002
0.947085
0.758963
0.69141
0.495921
0.417353
0.414814
0.393796
0.275225
0.375784
0.361521
0.551912
0.6244
0.867361
1.11716
1.35712
2.02182
1.81776
1.48328
1.26386
1.06491
0.801927
0.736757
0.531039
0.49652
0.411106
0.364901
0.39786
0.294646
0.315009
0.412338
0.471842
0.559993
0.82899
1.04029
1.16082
1.53172
1.5148
1.2006
1.00769
0.879766
0.685359
0.54202
0.522355
0.433415
0.396665
0.340702
0.25632
0.280741
0.321817
0.357055
0.393359
0.510365
0.681199
0.758442
0.933164
1.07033
1.03524
0.915228
0.701853
0.612086
0.552609
0.378026
0.388532
0.287584
0.257006
0.245201
0.295724
0.208544
0.280068
0.312094
0.269542
0.354278
0.495449
0.566898
0.655292
0.631348
0.630412
0.457652
0.428564
0.406469
0.297951
0.293958
0.21747
0.180758
0.105516
0.166139
0.209809
0.204428
0.0804632
0.11751
0.158239
0.21037
0.287349
0.391107
0.430929
0.242698
0.224651
0.171774
0.183891
0.102762
0.114648
0.104661
0.0594504
0.0434529
0.0355502
0.0373801
0.0946104
0.0421035
0.0363881
0.069059
0.0958974
0.0668565
0.077163
0.106183
0.103869
3.71505
3.2425
2.69533
2.11921
1.85637
1.43876
1.15538
0.868741
0.687155
0.568161
0.441942
0.493089
0.436389
0.407964
0.614929
0.773877
0.993499
1.3376
1.70065
2.1608
3.26883
2.78236
2.39585
1.89335
1.64784
1.35686
1.08942
0.880527
0.670956
0.633821
0.529953
0.488304
0.481344
0.490826
0.558881
0.72097
0.955217
1.23059
1.54496
1.85453
2.69023
2.46271
2.08756
1.74519
1.42036
1.2228
0.962387
0.842436
0.752367
0.581664
0.531281
0.490313
0.460534
0.505507
0.610737
0.744552
0.868351
1.11107
1.35796
1.65925
2.28045
2.02657
1.70675
1.47398
1.16917
1.00063
0.865534
0.711387
0.601017
0.56786
0.506556
0.448679
0.467761
0.495682
0.585737
0.666851
0.799068
1.02369
1.18057
1.4291
1.79009
1.63915
1.42773
1.13404
0.9549
0.851434
0.726759
0.543455
0.578636
0.455367
0.408607
0.413102
0.361792
0.397313
0.486398
0.536351
0.665007
0.810688
0.95842
1.19957
1.33288
1.13354
0.958815
0.907409
0.72713
0.582118
0.531281
0.409328
0.465778
0.306317
0.312317
0.25549
0.278685
0.30541
0.33291
0.415063
0.488164
0.557478
0.751279
0.790841
0.72391
0.720944
0.616361
0.535598
0.470968
0.391325
0.362427
0.281335
0.196798
0.216422
0.150401
0.216348
0.222306
0.225264
0.266617
0.277493
0.324072
0.320263
0.430702
0.45008
0.307016
0.262079
0.180653
0.153799
0.150085
0.156218
0.0982102
0.111509
0.0605306
0.0894242
0.0336964
0.104745
0.0609463
0.0669798
0.0345109
0.0863951
0.0996917
0.0931798
0.122017
0.175483
4.48569
3.90818
3.32939
2.7974
2.37082
1.88452
1.57789
1.35501
1.09386
0.984987
0.939358
0.905382
0.862418
0.876677
1.06149
1.20509
1.50046
1.80944
2.32014
2.72882
3.85414
3.41838
2.98695
2.4476
2.05259
1.77259
1.54322
1.2071
1.07836
1.0167
0.899362
0.860444
0.895324
0.898654
0.936467
1.13715
1.41226
1.68387
2.03811
2.38353
3.26239
2.94902
2.5019
2.16672
1.83104
1.59119
1.38588
1.067
1.04538
0.887759
0.823251
0.827101
0.785092
0.890602
0.87761
1.01427
1.18931
1.48646
1.78731
2.05701
2.71173
2.39865
2.08561
1.77986
1.51152
1.32832
1.14229
0.954237
0.898339
0.773531
0.734706
0.698153
0.667205
0.778867
0.802841
1.01456
1.06977
1.20957
1.56929
1.8096
2.09752
1.90164
1.68028
1.40979
1.18423
1.01501
0.942494
0.812323
0.693411
0.647864
0.613517
0.577342
0.59929
0.648912
0.685966
0.74578
0.903913
1.06315
1.23974
1.36269
1.61737
1.38363
1.22769
1.03081
0.888848
0.791424
0.622816
0.598995
0.548978
0.436715
0.444366
0.395572
0.360969
0.399026
0.517861
0.588313
0.624314
0.746756
0.859581
1.00514
0.957622
0.745985
0.740026
0.655608
0.460188
0.421303
0.396114
0.362441
0.31988
0.262278
0.257603
0.283437
0.267841
0.294803
0.288078
0.323963
0.397419
0.46212
0.56925
0.613038
0.319035
0.280831
0.246357
0.178875
0.173377
0.130011
0.104015
0.2004
0.131454
0.127316
0.0674167
0.0905366
0.136918
0.0481951
0.109412
0.0639214
0.128731
0.196593
0.232152
0.195299
5.23257
4.70807
4.02246
3.56784
3.09413
2.6
2.32878
2.00579
1.80239
1.64758
1.40007
1.42168
1.46467
1.49486
1.66956
1.90889
2.16128
2.57793
3.036
3.51704
4.5659
4.05296
3.5395
3.08554
2.71549
2.33585
2.04214
1.7999
1.64788
1.43184
1.4259
1.4273
1.3899
1.40767
1.47612
1.68306
1.99927
2.28025
2.6482
3.03437
3.92902
3.54574
3.07343
2.62679
2.28067
2.05649
1.79057
1.6034
1.41493
1.35414
1.222
1.19713
1.19551
1.28908
1.36039
1.58853
1.78554
1.93691
2.29293
2.65222
3.18815
2.88022
2.53938
2.25154
1.98263
1.75851
1.48054
1.26929
1.19497
1.1876
1.07429
1.01655
1.0933
1.06349
1.15563
1.32488
1.45481
1.75004
1.93729
2.14813
2.44987
2.23579
2.02876
1.81232
1.52085
1.41719
1.22559
1.11188
1.06139
0.969776
0.809277
0.849857
0.867442
0.919777
0.981778
1.02634
1.16272
1.33498
1.48569
1.71076
1.71839
1.61182
1.43718
1.25253
1.14596
1.03713
0.86532
0.767921
0.70122
0.690381
0.625389
0.622619
0.617045
0.644118
0.646163
0.751015
0.871235
1.01789
1.07391
1.21824
1.04762
1.02389
0.964839
0.812167
0.678726
0.61535
0.571465
0.51541
0.397447
0.435189
0.353531
0.349558
0.463511
0.46819
0.4584
0.389222
0.502349
0.528407
0.674012
0.780663
0.390333
0.354387
0.320157
0.233666
0.27818
0.121501
0.109489
0.0791676
0.147376
0.116859
0.171112
0.0630178
0.113646
0.127125
0.117917
0.237336
0.145397
0.247687
0.214905
0.138934
6.32155
5.65282
5.01446
4.4644
3.92729
3.55778
3.14503
2.82086
2.5827
2.40897
2.21974
2.21853
2.20584
2.29903
2.53128
2.75367
3.03802
3.44497
3.95138
4.40254
5.48645
4.97491
4.45765
3.91916
3.4911
3.13724
2.85999
2.45227
2.28527
2.18535
2.05632
2.01768
2.05693
2.0815
2.23741
2.43697
2.70434
3.0232
3.43788
3.86477
4.62086
4.2215
3.75776
3.40007
2.98585
2.66287
2.38021
2.1956
2.01069
1.92098
1.75061
1.70039
1.77054
1.79687
1.95172
2.14118
2.40364
2.66287
2.91791
3.29085
3.81754
3.43573
3.06088
2.75973
2.46925
2.23458
1.95335
1.9101
1.75433
1.59593
1.50786
1.33236
1.51868
1.53626
1.68198
1.75657
1.97501
2.21817
2.42424
2.72702
2.9277
2.67713
2.41398
2.12692
1.93267
1.72248
1.5874
1.4616
1.38078
1.2899
1.2519
1.18422
1.16881
1.18392
1.33075
1.34857
1.55302
1.75233
1.91739
2.13194
2.10062
1.91206
1.76419
1.56736
1.365
1.23016
1.15752
1.03004
0.971085
0.943424
0.866846
0.847098
0.894267
0.887855
0.896204
0.978616
1.13227
1.18446
1.32335
1.52811
1.25573
1.14528
0.999467
0.963379
0.803872
0.791599
0.722535
0.671283
0.594059
0.523632
0.534427
0.534551
0.540639
0.539067
0.538855
0.650397
0.704795
0.716489
0.804489
0.867376
0.430274
0.391346
0.352313
0.289721
0.311323
0.185459
0.22515
0.194808
0.152398
0.250894
0.202611
0.242773
0.185764
0.185032
0.19752
0.241914
0.192024
0.225837
0.302482
0.302527
7.47788
6.84812
6.17393
5.57666
5.00181
4.50142
4.16507
3.82799
3.51836
3.36124
3.20681
3.19457
3.22587
3.30897
3.51438
3.74255
4.06869
4.51366
4.97476
5.50387
6.39512
5.99678
5.317
4.83836
4.35773
3.9925
3.5834
3.37229
3.16417
2.95158
2.92551
2.84686
2.89688
2.87737
3.11079
3.25343
3.57893
3.95114
4.41654
4.74397
5.36227
5.03157
4.52115
4.06453
3.74043
3.36139
3.14834
2.91787
2.73003
2.53173
2.48832
2.40959
2.47182
2.56332
2.70061
2.74587
3.10801
3.41347
3.68572
4.14207
4.47671
4.15964
3.71402
3.33719
3.119
2.86817
2.58744
2.38036
2.24935
2.18053
2.11229
2.11649
2.03005
2.14099
2.2036
2.37732
2.52765
2.82376
3.08499
3.38768
3.47336
3.27359
2.89125
2.63033
2.39102
2.22029
2.09096
1.88334
1.75435
1.65148
1.64729
1.62417
1.62249
1.57336
1.74902
1.78047
2.00656
2.16556
2.43627
2.62454
2.52268
2.31419
2.16094
1.85383
1.72905
1.53798
1.4264
1.38321
1.2593
1.22899
1.19941
1.14855
1.2032
1.16782
1.33589
1.37746
1.48548
1.54504
1.73857
1.87576
1.45861
1.37118
1.31552
1.1925
1.06555
0.944742
0.906896
0.827092
0.746917
0.738475
0.709387
0.718012
0.610935
0.72895
0.730684
0.814912
0.930159
0.893017
1.06966
1.14543
0.509793
0.427691
0.420761
0.416577
0.320725
0.300155
0.348298
0.268363
0.287782
0.262485
0.301058
0.258135
0.258599
0.254515
0.255893
0.323028
0.229026
0.237152
0.327679
0.372994
8.82919
8.17771
7.39551
6.79346
6.20077
5.7429
5.24299
5.03954
4.63698
4.44499
4.36002
4.27126
4.26235
4.42758
4.61951
4.92321
5.24277
5.69103
6.19515
6.78312
7.56114
7.00649
6.48549
5.92475
5.35558
4.93724
4.60873
4.3326
4.11958
3.99258
3.80207
3.76378
3.77511
3.86531
3.93838
4.2914
4.54386
4.95799
5.39218
5.85894
6.31238
5.90839
5.45556
4.95745
4.5176
4.24287
4.03604
3.7313
3.45003
3.37936
3.27538
3.2333
3.22721
3.36285
3.51909
3.59965
3.87995
4.20175
4.62702
4.91582
5.22304
4.90359
4.43078
4.12106
3.77279
3.45751
3.25145
3.0507
2.96047
2.79058
2.69098
2.68113
2.69453
2.70997
2.86809
3.03707
3.24965
3.52018
3.76954
4.00866
4.03381
3.80133
3.40993
3.14121
2.98704
2.69659
2.49674
2.43594
2.22789
2.18042
2.1335
2.09365
2.08721
2.1372
2.28494
2.31904
2.41256
2.74802
2.98609
3.25195
2.85079
2.70012
2.45858
2.2744
2.06249
2.02026
1.83918
1.713
1.62411
1.59258
1.52092
1.45807
1.57276
1.53555
1.49934
1.62829
1.75436
1.89144
2.10921
2.21562
1.73336
1.63467
1.47348
1.42924
1.21616
1.15017
1.1641
1.06703
0.963581
0.90974
0.852173
0.893941
0.940541
0.939046
0.924123
1.02363
1.04768
1.20989
1.23307
1.28886
0.526252
0.494254
0.50555
0.48169
0.385786
0.354979
0.366302
0.406369
0.339146
0.361614
0.31549
0.299819
0.324275
0.392694
0.358621
0.294888
0.397854
0.403703
0.420254
0.426803
10.1768
9.51488
8.7781
8.12064
7.54815
6.9625
6.5043
6.16158
5.90885
5.66115
5.51971
5.45302
5.55556
5.57702
5.84188
6.09279
6.50886
7.08283
7.53317
8.03996
8.71824
8.15839
7.51054
7.04073
6.47309
6.04496
5.6791
5.2539
5.11216
4.89321
4.84229
4.78299
4.82564
4.82062
5.04124
5.30089
5.62407
6.00817
6.44192
6.88786
7.30759
6.91055
6.31264
5.84378
5.44874
5.0613
4.79956
4.48536
4.36483
4.12097
4.06632
4.01255
4.03607
4.1714
4.32818
4.45742
4.75847
5.06545
5.46391
5.83799
5.90649
5.63353
5.11471
4.85118
4.39579
4.23017
3.93084
3.71354
3.54305
3.38688
3.33317
3.29152
3.36387
3.43774
3.51706
3.66831
3.8803
4.10481
4.44029
4.71015
4.57468
4.34605
4.07802
3.69202
3.42979
3.25712
3.10057
2.87345
2.80504
2.62766
2.56454
2.62575
2.59268
2.66591
2.7308
2.91964
3.00543
3.24211
3.37021
3.73086
3.3563
3.05665
2.88477
2.66138
2.46473
2.29805
2.23679
1.99469
1.97182
1.87591
1.99535
1.84609
1.8265
1.819
2.01218
2.06497
2.16993
2.26938
2.42534
2.66269
1.98116
1.89564
1.65566
1.64602
1.46682
1.40203
1.29129
1.27807
1.15945
1.18861
1.11192
1.12795
1.15244
1.12798
1.19703
1.16822
1.33432
1.33996
1.48023
1.5598
0.647396
0.591151
0.535371
0.531903
0.512011
0.539591
0.499063
0.415058
0.418517
0.358093
0.413679
0.351648
0.405129
0.41127
0.402317
0.407535
0.439653
0.401452
0.500938
0.420489
11.2145
10.5968
9.82958
9.17868
8.58816
7.95896
7.58249
7.21162
6.95459
6.69117
6.46884
6.51091
6.53135
6.6776
6.84003
7.13882
7.47037
8.00708
8.55992
9.16768
9.61146
8.99492
8.39751
7.78489
7.27167
6.86101
6.50182
6.1346
5.95785
5.67905
5.64297
5.56437
5.57967
5.62603
5.88213
6.13809
6.43991
6.78817
7.35057
7.82432
8.01966
7.55103
7.05171
6.58017
6.12264
5.75352
5.45073
5.15133
4.91828
4.77482
4.75261
4.73784
4.69418
4.78722
4.91363
5.09614
5.36965
5.68997
6.2059
6.56897
6.47907
6.19823
5.75931
5.39559
4.94579
4.67639
4.44707
4.20028
4.04064
3.86388
3.78517
3.81848
3.90457
3.83716
3.96266
4.20108
4.39572
4.62172
5.00541
5.3171
5.0323
4.71424
4.48617
4.15099
3.85274
3.63955
3.36759
3.35558
3.09476
2.9855
3.00233
2.98244
2.98466
2.99489
3.08871
3.29389
3.4363
3.62294
3.93499
4.07197
3.59377
3.38091
3.10074
2.8998
2.78202
2.5546
2.43674
2.31769
2.21945
2.13313
2.07598
2.04868
2.07775
2.12817
2.22003
2.27775
2.43544
2.52124
2.78038
2.87186
2.1693
1.99965
1.89812
1.74955
1.64436
1.57122
1.47167
1.38283
1.38142
1.24288
1.20146
1.26769
1.26395
1.3575
1.30508
1.40514
1.48569
1.56502
1.68351
1.68312
0.683174
0.651281
0.609083
0.660972
0.555587
0.570975
0.456935
0.41828
0.489903
0.380903
0.407858
0.390602
0.458333
0.419859
0.419515
0.520956
0.466494
0.59035
0.565049
0.524137
)
;

boundaryField
{
    hotSide
    {
        type            calculated;
        value           nonuniform List<scalar> 
400
(
6.4057
5.82643
5.0623
4.38238
3.82619
3.28524
2.9097
2.61824
2.51065
2.49946
2.71857
3.10344
3.55492
4.31822
5.05717
6.13769
7.28497
8.62669
9.96411
10.9911
6.32879
5.68507
4.837
4.14577
3.5462
3.07707
2.57206
2.29565
2.09945
2.09186
2.24725
2.53929
3.08246
3.74078
4.53275
5.46901
6.65527
7.97525
9.30226
10.3734
6.27565
5.57792
4.80261
4.05461
3.35749
2.74258
2.33296
1.90826
1.77937
1.72995
1.8139
2.1012
2.53537
3.16207
3.84721
4.83072
5.98114
7.19311
8.56553
9.60628
6.26351
5.57041
4.73041
3.95289
3.16023
2.59321
2.06761
1.66549
1.36919
1.36174
1.40412
1.65851
1.95934
2.63015
3.39266
4.28072
5.38394
6.59111
7.90812
8.95543
6.25928
5.51271
4.70577
3.88828
3.13918
2.51679
1.85264
1.43412
1.19731
1.06152
1.10163
1.26403
1.69658
2.20365
2.91902
3.74368
4.80914
5.99848
7.33567
8.36495
6.36448
5.6709
4.71465
3.85614
2.98166
2.36269
1.70942
1.28624
0.913133
0.846232
0.762075
0.94863
1.27904
1.71742
2.42495
3.37423
4.3088
5.54065
6.75007
7.73578
6.413
5.64186
4.71058
3.82614
3.03453
2.25364
1.64828
1.18709
0.830607
0.629472
0.565327
0.682418
0.995736
1.41085
2.15378
2.96152
3.97249
5.04078
6.2919
7.35934
6.45849
5.78189
4.84424
3.78266
2.98247
2.21232
1.63973
1.03532
0.663539
0.432502
0.395001
0.45308
0.709148
1.18802
1.83085
2.63739
3.63545
4.83736
5.94921
6.9885
6.49888
5.77721
4.8347
3.83691
3.01239
2.18453
1.51482
0.969346
0.575893
0.313748
0.293524
0.338636
0.527602
0.926902
1.62747
2.39926
3.32584
4.43483
5.6965
6.73148
6.52017
5.74266
4.78931
3.82084
3.024
2.11238
1.45189
0.914881
0.52473
0.256768
0.177979
0.194309
0.408631
0.81805
1.47268
2.22555
3.16874
4.24285
5.44881
6.46808
6.52324
5.71347
4.77299
3.80298
2.89176
2.08167
1.38917
0.863427
0.392403
0.178212
0.0982613
0.111123
0.282412
0.772421
1.22516
2.03631
3.01431
4.15788
5.30737
6.24575
6.45042
5.67888
4.72203
3.79657
2.85628
2.03114
1.34058
0.786516
0.359446
0.0751487
-0.0750689
0.0394138
0.333536
0.738425
1.24676
2.03509
3.00205
4.0691
5.24067
6.28781
6.37776
5.59212
4.61029
3.64559
2.71364
1.99995
1.2532
0.764458
0.300564
0.0289955
-0.0475409
-0.0369397
0.276796
0.695429
1.28973
2.02237
3.03332
4.06017
5.34319
6.30823
6.28358
5.4197
4.55868
3.54688
2.78379
1.86862
1.27998
0.677831
0.274779
0.0375906
-0.0337435
-0.0033137
0.248319
0.709638
1.31987
2.11552
3.11639
4.22537
5.36462
6.45446
6.13245
5.37873
4.46139
3.54995
2.68851
1.87086
1.24656