/*--------------------------------*- C++ -*----------------------------------*\
| =========                 |                                                 |
| \\      /  F ield         | OpenFOAM: The Open Source CFD Toolbox           |
|  \\    /   O peration     | Version:  2212                                  |
|   \\  /    A nd           | Website:  www.openfoam.com                      |
|    \\/     M anipulation  |                                                 |
\*---------------------------------------------------------------------------*/
FoamFile
{
    version     2.0;
    format      ascii;
    arch        "LSB;label=32;scalar=64";
    class       volScalarField;
    location    "0";
    object      relativeErrorField;
}
// * * * * * * * * * * * * * * * * * * * * * * * * * * * * * * * * * * * * * //

dimensions      [0 0 0 1 0 0 0];

internalField   nonuniform List<scalar> 
3200
(
0.0199617
0.0197156
0.0195395
0.0194877
0.0194597
0.0197658
0.0198999
0.0200267
0.0201411
0.0202014
0.0202107
0.0199936
0.0197808
0.0195054
0.019058
0.018661
0.018636
0.0183792
0.018673
0.0189172
0.0174521
0.0174506
0.0171246
0.017284
0.0174039
0.0176101
0.0173609
0.0177951
0.0177377
0.0177918
0.0179201
0.0177047
0.0172893
0.0171654
0.0167678
0.0166138
0.0164028
0.0162574
0.0165671
0.0166002
0.0151437
0.0149088
0.0149029
0.0146326
0.0147018
0.0149492
0.015035
0.0153134
0.0155023
0.0152461
0.0154184
0.0153386
0.0150333
0.0147339
0.0143017
0.0146135
0.0142001
0.014174
0.0141578
0.0145595
0.0125399
0.0124014
0.0121902
0.0122948
0.0124218
0.0125203
0.0124244
0.0127086
0.0129718
0.012785
0.0131543
0.0129372
0.012491
0.0121533
0.0118617
0.011954
0.0117945
0.0118374
0.0118047
0.0119545
0.0100043
0.00988433
0.00976302
0.00995186
0.0097099
0.00987872
0.00990175
0.0101014
0.0101897
0.0101081
0.0103594
0.0101089
0.00991975
0.00991885
0.00944405
0.00946135
0.00951733
0.00933766
0.00942878
0.00944269
0.00746248
0.00713831
0.0069987
0.00677284
0.00690097
0.00705556
0.00693849
0.00748185
0.00743092
0.00737423
0.00749041
0.00759184
0.00718294
0.00724279
0.00702029
0.00670916
0.0068924
0.00689721
0.0068965
0.00696382
0.00448966
0.00426247
0.00424241
0.00431178
0.00439824
0.00455118
0.00414045
0.00448858
0.00450538
0.00428222
0.00446382
0.00446283
0.00443917
0.00429217
0.00444556
0.00429463
0.00420403
0.0043139
0.00430813
0.00392053
0.00167113
0.00150774
0.00139059
0.00145285
0.00174466
0.00150268
0.00146569
0.00143144
0.00150251
0.00130687
0.00154471
0.00137375
0.00162325
0.00170118
0.00130384
0.0014175
0.00147058
0.00151234
0.00134518
0.00129682
0.0181843
0.0177421
0.0174024
0.0173665
0.0171771
0.0176465
0.0175458
0.017962
0.0179401
0.0178309
0.017742
0.0176407
0.017384
0.0168687
0.0167556
0.0166402
0.0164936
0.0165161
0.0165648
0.0168775
0.0162957
0.0156418
0.0155188
0.0152622
0.015512
0.0156075
0.0157738
0.0159031
0.0159024
0.0159463
0.015907
0.0156613
0.0154289
0.0151628
0.014895
0.0148887
0.0143857
0.0146355
0.0148015
0.0151261
0.0138994
0.0135558
0.0134953
0.0132965
0.013539
0.0135342
0.0136725
0.0137
0.0139053
0.0139116
0.0137579
0.0136583
0.0135568
0.0132664
0.0131871
0.0129096
0.0128223
0.0127766
0.0127936
0.0130167
0.0116634
0.0112472
0.0112192
0.0113347
0.0113367
0.0113454
0.0113494
0.0115887
0.0115324
0.011697
0.0115634
0.0117083
0.0114586
0.0110338
0.0108367
0.0108535
0.010799
0.0106374
0.0109048
0.0109344
0.00903888
0.00891551
0.00894618
0.00896359
0.00895985
0.00904437
0.00905485
0.00912298
0.00937056
0.00912503
0.0092968
0.00930107
0.00907853
0.008985
0.00869301
0.00848319
0.00833653
0.00855798
0.00847782
0.00873983
0.0064763
0.0064278
0.00625366
0.00657732
0.00641093
0.00667235
0.00662059
0.00660938
0.00672436
0.00671386
0.00687758
0.00657682
0.00667234
0.00672107
0.00633744
0.00619951
0.00631656
0.00602735
0.00615752
0.00603513
0.00419277
0.00405863
0.00403568
0.00408073
0.00382511
0.00377538
0.00396263
0.00388953
0.00410559
0.00410545
0.00409697
0.00414024
0.00430085
0.00410648
0.00385404
0.00378626
0.00358939
0.00365755
0.00371034
0.00369469
0.00138963
0.00131717
0.00112079
0.00145094
0.00132502
0.00125944
0.00155966
0.00120077
0.00135378
0.00129254
0.00130447
0.0012581
0.0013237
0.00144283
0.00132443
0.00129497
0.00146011
0.00120357
0.00128583
0.00135233
0.015839
0.015142
0.0150267
0.0147952
0.0147089
0.014725
0.0147025
0.0151009
0.0150656
0.0149242
0.0148746
0.0147228
0.0143888
0.0142399
0.0139531
0.0136549
0.0138485
0.0137442
0.0139253
0.0145282
0.01421
0.0140002
0.0134029
0.0134091
0.0129673
0.0131979
0.0132863
0.0134043
0.0136538
0.0136579
0.0135287
0.0133769
0.0130031
0.012785
0.0126134
0.0123923
0.0123076
0.0123566
0.0124135
0.0129304
0.0123118
0.0118013
0.0116428
0.0114682
0.0114693
0.0117099
0.0115619
0.0116142
0.011762
0.0120094
0.0115844
0.011632
0.0112562
0.0113189
0.0111139
0.0107862
0.0107812
0.0107312
0.0109779
0.0112632
0.0102105
0.0100161
0.00993911
0.00961336
0.00970764
0.00967448
0.00993724
0.00977601
0.00984521
0.0101041
0.0101153
0.00993422
0.00945517
0.00925635
0.00926899
0.00900042
0.00918801
0.00922768
0.00918391
0.00956448
0.00822954
0.00791943
0.00776725
0.0076437
0.00798665
0.00768151
0.00790225
0.00795925
0.00799082
0.00789616
0.00798552
0.00782698
0.00775964
0.00765505
0.00743646
0.00725234
0.00720602
0.00740949
0.00732759
0.00756238
0.00574131
0.00597067
0.00605251
0.00568417
0.00565941
0.00564982
0.00567904
0.00590673
0.00570102
0.00576936
0.00575117
0.00581562
0.00563076
0.00547896
0.00554729
0.00526114
0.00553979
0.00553438
0.00550937
0.00554314
0.00346417
0.00352975
0.00351111
0.0036006
0.00365108
0.00353292
0.00352281
0.00354261
0.00347772
0.00366515
0.0036148
0.00355453
0.00340122
0.00341154
0.00316628
0.00330233
0.00321385
0.00326157
0.00321988
0.00337271
0.00114151
0.00110681
0.00106024
0.00131744
0.0011061
0.00105403
0.00122558
0.00119861
0.00117469
0.00153618
0.000972522
0.00122833
0.00109119
0.00122597
0.00104598
0.00102843
0.000991591
0.00100031
0.00127656
0.00128908
0.0137513
0.0130217
0.0127349
0.0124155
0.0122094
0.0121028
0.0120034
0.0118644
0.0120246
0.0119731
0.0119189
0.0119019
0.0114476
0.0111536
0.0111704
0.0109686
0.0107387
0.0109227
0.0113556
0.0118799
0.0123443
0.0122
0.0114625
0.0108743
0.0108008
0.0108358
0.0108068
0.0110174
0.0109711
0.0108859
0.010753
0.0107369
0.0103812
0.0103878
0.00991175
0.00997748
0.00993537
0.0101481
0.0105866
0.0106698
0.0104957
0.0102353
0.00997438
0.0097205
0.00960728
0.00959686
0.00972966
0.00972035
0.0097855
0.0098252
0.0094597
0.00938708
0.0092269
0.00909025
0.00883348
0.00879691
0.00867204
0.0089084
0.00920789
0.00939231
0.00897458
0.00877379
0.00852646
0.00827672
0.00812064
0.00811136
0.00820061
0.00838615
0.00812019
0.00822449
0.00816772
0.00807701
0.00792611
0.0077892
0.00758438
0.00745362
0.00755057
0.00748669
0.00771522
0.00771714
0.00711187
0.00690309
0.00680626
0.0066196
0.00656725
0.00651345
0.00671135
0.00683712
0.0066703
0.00639022
0.00642829
0.00661064
0.00650528
0.0061726
0.0063494
0.0057869
0.00603486
0.00641658
0.00609356
0.0062766
0.00524883
0.00494447
0.00494914
0.00481102
0.00483177
0.0047026
0.00478782
0.00481029
0.00486936
0.00488249
0.00497507
0.00462088
0.00488425
0.00451209
0.00438264
0.00472126
0.0042982
0.00426526
0.00447486
0.00460259
0.00318869
0.00323295
0.00277481
0.00278799
0.00298207
0.00299322
0.00284845
0.00298064
0.00307386
0.00295559
0.00282099
0.00290338
0.00287928
0.00277922
0.00280001
0.00264235
0.00281019
0.0027477
0.00296603
0.00294077
0.00130258
0.000841506
0.000935612
0.000949724
0.000982191
0.00103996
0.0010999
0.00108014
0.00101209
0.000938985
0.00109795
0.000731244
0.000898971
0.00104189
0.000758032
0.000932171
0.00107793
0.000913375
0.00101551
0.000874751
0.0120431
0.0111832
0.0106009
0.00999275
0.00992149
0.00943549
0.00959006
0.00942674
0.00951393
0.00954722
0.00914571
0.00903987
0.00861009
0.008828
0.00854395
0.00830354
0.00870811
0.00853681
0.00912134
0.00944187
0.0107304
0.0100916
0.00948789
0.00912445
0.00879791
0.00849239
0.00868024
0.00893491
0.00873659
0.00868961
0.00866396
0.00822073
0.00787853
0.00809116
0.00784355
0.00749851
0.00759513
0.00787282
0.00826472
0.00879166
0.00926318
0.0088875
0.0083368
0.00799274
0.00787259
0.00794025
0.00790998
0.00760819
0.00777825
0.00770316
0.00746627
0.00752695
0.00734998
0.00699642
0.00704263
0.00685392
0.00703616
0.00692023
0.0074279
0.00762508
0.00774565
0.00747924
0.00678415
0.00691635
0.00660792
0.00672978
0.00678052
0.00670535
0.00675059
0.00638607
0.00642668
0.00665548
0.00621948
0.00621815
0.0062611
0.00581236
0.00594223
0.00628328
0.0064241
0.00658103
0.00624243
0.00589882
0.00574362
0.00537924
0.0053599
0.00537722
0.0053288
0.00535795
0.00521106
0.00538841
0.00510501
0.00536844
0.00497956
0.00500584
0.00478213
0.00464898
0.00494964
0.00513324
0.00514096
0.00517595
0.00445782
0.00434535
0.00411183
0.00405021
0.00394883
0.00372554
0.00395372
0.00395288
0.00382998
0.00361349
0.00370833
0.0038025
0.00369984
0.00370611
0.00366853
0.00355161
0.00357998
0.003559
0.00383959
0.00391476
0.00286544
0.00286287
0.00239447
0.00234513
0.00228046
0.0024765
0.00245281
0.00234165
0.0021739
0.00244669
0.00224698
0.00223927
0.0024672
0.00213884
0.00241614
0.00226217
0.00224923
0.00214676
0.00243774
0.00262576
0.000798189
0.00105529
0.000977407
0.00102541
0.00066954
0.000741607
0.000691211
0.000899749
0.000797715
0.000961433
0.000972439
0.000885024
0.000768431
0.000852068
0.000828697
0.000539152
0.000575854
0.000855819
0.00065842
0.000593651
0.0103841
0.00974522
0.0087215
0.00826143
0.00802351
0.00755018
0.00721453
0.00708546
0.00699856
0.00677843
0.00668531
0.00653341
0.00644126
0.00604607
0.00605674
0.00615766
0.00624629
0.00656981
0.00712514
0.00780806
0.00933746
0.00873131
0.00785084
0.00758975
0.00700862
0.00679413
0.00674205
0.00675083
0.00642136
0.00638751
0.00613174
0.00621578
0.00599317
0.00563026
0.00584909
0.00570998
0.00585084
0.006169
0.00644815
0.0070933
0.00830621
0.00749796
0.00707622
0.00655843
0.00624184
0.00602437
0.0060498
0.00617207
0.00584883
0.00583694
0.00567079
0.005573
0.00540913
0.00541128
0.00524512
0.00521621
0.00520765
0.00528473
0.00577497
0.00633238
0.00672034
0.0062629
0.00584817
0.00564848
0.00535931
0.00526188
0.00520797
0.00523346
0.00529046
0.00493735
0.00474481
0.00489214
0.00475809
0.00458465
0.00453652
0.00456272
0.00459241
0.00478834
0.00496665
0.00526273
0.00535907
0.00530533
0.00468794
0.00457395
0.00426755
0.00437305
0.00410412
0.00410259
0.00384559
0.00422933
0.00428864
0.00372113
0.00396496
0.00370995
0.00370519
0.00388382
0.00381902
0.00388692
0.00401162
0.00442551
0.0040724
0.00378839
0.00364357
0.00326639
0.00298337
0.00327164
0.00326121
0.00334981
0.00311381
0.00305407
0.00306714
0.00299162
0.00266489
0.00256094
0.00270413
0.00269304
0.00284278
0.00293914
0.00309871
0.00316752
0.00228639
0.00233273
0.00221656
0.00189381
0.00199784
0.00205417
0.00171492
0.00192821
0.00205479
0.00213769
0.00166049
0.00182109
0.00189923
0.00155712
0.00174214
0.00168374
0.00172966
0.00182581
0.00185389
0.00218163
0.000687526
0.000759196
0.000813762
0.000714223
0.000665708
0.000486679
0.000744941
0.000634719
0.000935985
0.000579963
0.000610333
0.000522908
0.000614498
0.000546257
0.000810926
0.00078832
0.000663064
0.00065648
0.000615808
0.0007376
0.0092321
0.00820193
0.00747098
0.00666092
0.00600458
0.00556659
0.00537807
0.00534948
0.00496946
0.00477808
0.00458825
0.00444204
0.0041791
0.00426239
0.00416372
0.00410843
0.00428885
0.00494462
0.00559462
0.00622498
0.00802742
0.00745043
0.00662545
0.00612705
0.00566829
0.00533656
0.00522359
0.00495756
0.0048457
0.00473008
0.00447614
0.00419043
0.00423387
0.00399181
0.00400728
0.00396077
0.00442244
0.00478705
0.00498643
0.00585846
0.00719915
0.00652987
0.00582153
0.00558938
0.00494033
0.00501526
0.00489919
0.00444367
0.00425254
0.00440164
0.00432187
0.00405585
0.00397763
0.00365995
0.00392731
0.00391703
0.00386411
0.00420263
0.00468409
0.0051572
0.00630886
0.00543198
0.00512027
0.00450785
0.0044882
0.00441385
0.00395779
0.00420914
0.00383475
0.00385831
0.00362833
0.00344116
0.00337842
0.00325871
0.00337538
0.00336369
0.00340572
0.00367457
0.00398742
0.00455513
0.00482027
0.00438611
0.00405403
0.00380755
0.00354918
0.0034854
0.00330841
0.00344474
0.00351184
0.00305234
0.00300731
0.00305708
0.0029858
0.00273968
0.00277456
0.00278868
0.00296869
0.00314582
0.00328071
0.00360378
0.00383275
0.00321663
0.00298142
0.00287885
0.00259287
0.00267789
0.00237867
0.00246339
0.00238953
0.00227354
0.00230896
0.00221166
0.00207155
0.00233494
0.0021745
0.0021661
0.00222207
0.00227032
0.00236778
0.00253307
0.00209621
0.00213316
0.00199234
0.00187482
0.00169511
0.00161453
0.00161672
0.00167414
0.00171669
0.00169148
0.00153649
0.00157523
0.00125211
0.00124669
0.00124036
0.00124491
0.00133153
0.00133529
0.00149396
0.00179224
0.000588081
0.000765147
0.000672874
0.000693535
0.000552829
0.000477121
0.000510033
0.000652849
0.000542201
0.000561771
0.000613953
0.000383403
0.000365823
0.000403359
0.000500608
0.000751247
0.000376554
0.000373105
0.000559376
0.00062414
0.00833865
0.00735711
0.00617935
0.00544049
0.00473692
0.00428672
0.00398457
0.0035241
0.00332357
0.00315847
0.00300308
0.00277131
0.00270569
0.00244522
0.00262296
0.00271047
0.00280624
0.00351489
0.00451104
0.0050474
0.00755247
0.00678464
0.00589637
0.00522358
0.00449966
0.00407687
0.00381029
0.0037451
0.00344246
0.00332781
0.00276527
0.00301713
0.00271255
0.00255086
0.00257971
0.00289037
0.00297255
0.00332069
0.0042584
0.00468873
0.00653324
0.00590549
0.00531122
0.00474947
0.00415451
0.00390808
0.00359822
0.00327518
0.00315815
0.00328632
0.00276427
0.00276567
0.0025878
0.00251939
0.00265927
0.00267456
0.00294217
0.00338096
0.00385133
0.00432565
0.00566433
0.00496957
0.00439107
0.00390433
0.00346712
0.00337831
0.00321546
0.00299861
0.00284836
0.00269485
0.00252322
0.00255973
0.00254539
0.00239954
0.00230863
0.00259732
0.00269248
0.00289842
0.0031326
0.00382858
0.00431171
0.0042073
0.00362561
0.00342104
0.00301221
0.00261355
0.00244958
0.00247422
0.00229291
0.00245758
0.00215829
0.00225638
0.00210164
0.00189659
0.0020569
0.00220398
0.00229692
0.00229369
0.0027666
0.00333943
0.0033973
0.0031616
0.0027219
0.00233834
0.00237565
0.00220978
0.00196756
0.00186694
0.00187988
0.00174745
0.001666
0.00161401
0.00168848
0.00164598
0.00150195
0.00171603
0.00185332
0.00196626
0.00191642
0.00202582
0.00217774
0.00186316
0.00162553
0.00146535
0.00138786
0.0013486
0.00125458
0.00119293
0.00103681
0.00111547
0.000921647
0.000775321
0.00098091
0.000852654
0.0010064
0.00107865
0.00100701
0.00106022
0.00118778
0.00150872
0.000485225
0.0006575
0.000694991
0.000494303
0.000409724
0.000429133
0.000442395
0.00052057
0.000396961
0.00038926
0.000173613
0.000284282
0.000299155
0.00016201
0.000243562
0.000369399
0.000573318
0.000296336
0.000498813
0.000550848
0.00800458
0.00675815
0.00578739
0.00454535
0.00402383
0.00316423
0.00291365
0.00240872
0.00214379
0.00198925
0.00159056
0.00149156
0.00131467
0.00123768
0.00145867
0.00164241
0.00211067
0.00283452
0.00352445
0.00435301
0.00712993
0.00618299
0.00543992
0.00457742
0.0037029
0.00336335
0.00281619
0.00251519
0.00237595
0.00192447
0.00196469
0.00168249
0.00164539
0.00162407
0.00152226
0.00171048
0.00222514
0.00273814
0.00359836
0.00410398
0.00639203
0.0054939
0.00454796
0.00395665
0.00332788
0.0028676
0.00265911
0.00249663
0.00229307
0.0021934
0.00198891
0.0017862
0.00163327
0.00175373
0.00175936
0.00177318
0.00211156
0.00269267
0.0032851
0.00382147
0.00527189
0.00468061
0.00411063
0.00358911
0.00323548
0.002773
0.00237127
0.00221805
0.00216622
0.0018254
0.00172672
0.00180086
0.0017177
0.00155761
0.00184664
0.00171978
0.00206785
0.00245378
0.00280204
0.00318773
0.00420228
0.00396454
0.00339532
0.00290152
0.00265579
0.00227426
0.00196994
0.00193815
0.00147556
0.00159546
0.00143796
0.00145715
0.00140656
0.00131486
0.00152201
0.00134719
0.00148928
0.00193483
0.00254575
0.00265576
0.00315541
0.00290107
0.00239238
0.00186039
0.00195442
0.001715
0.00138553
0.00131295
0.00153656
0.00130656
0.00127334
0.00113228
0.00132886
0.00114074
0.00145303
0.00128557
0.00138671
0.00165216
0.00186504
0.00204731
0.00193823
0.00189876
0.00163134
0.00166158
0.00123974
0.00103141
0.000857217
0.000950714
0.000975553
0.000824001
0.000923853
0.000679515
0.000925829
0.000821268
0.000581163
0.00080575
0.000860215
0.00106324
0.00114327
0.00122863
0.000687275
0.000465053
0.000580206
0.000387998
0.000293162
0.000358304
0.000325992
0.00030803
0.000394218
0.000201932
0.000373902
0.000392449
0.000314356
0.000132411
4.89975e-05
0.000329489
0.000193328
0.00041646
0.000225786
0.000448893
0.00796202
0.00673039
0.00563675
0.00452501
0.00361898
0.00296943
0.00231616
0.00172308
0.00136564
0.00119417
0.000958138
0.000648643
0.000510232
0.000536491
0.000675741
0.00125849
0.00141818
0.0024162
0.00328175
0.00408257
0.00730293
0.00610042
0.00541678
0.0042107
0.00351696
0.00286175
0.00219505
0.0021186
0.00169918
0.0014202
0.00104449
0.000997059
0.000783193
0.000859261
0.00108377
0.00137613
0.00173419
0.00249606
0.00300016
0.00403867
0.00615695
0.00561672
0.00459319
0.00401589
0.0030782
0.00280787
0.00209718
0.00197117
0.00185091
0.00144603
0.00114202
0.00138033
0.00104137
0.0008903
0.00112677
0.00130342
0.00163965
0.00228303
0.0029976
0.00357196
0.00534175
0.00453735
0.00414783
0.00336586
0.00295195
0.0024347
0.0022086
0.00191562
0.00163946
0.00131484
0.00126038
0.00113708
0.00102107
0.0011664
0.00128403
0.00142494
0.00148317
0.0020763
0.00269579
0.00302491
0.0042166
0.00375226
0.0032234
0.00282496
0.00249165
0.00161046
0.00165655
0.00164926
0.00151121
0.00142913
0.00128504
0.00101914
0.00109126
0.000903008
0.001176
0.00147711
0.00157686
0.00180196
0.00223534
0.00280237
0.00317882
0.00291127
0.00243576
0.00203865
0.00182235
0.00171774
0.00133331
0.0010433
0.00102406
0.000872515
0.00066801
0.000795954
0.000733145
0.000850044
0.000924419
0.000959623
0.00118736
0.00150593
0.0016447
0.00207172
0.00192739
0.00175463
0.00142309
0.00145953
0.00127233
0.00112878
0.000712226
0.000588852
0.000697795
0.000722603
0.00064298
0.000463399
0.000575889
0.00071777
0.000594922
0.000428687
0.000661994
0.00100155
0.0010703
0.00141579
0.00079101
0.000607079
0.00057768
0.000228123
0.000419668
0.000342881
0.000214883
0.00029566
0.000241501
6.31533e-05
0.000428612
0.000217189
0.000116902
0.000149555
0.000382911
0.000159147
0.000337623
0.000398741
0.000221184
0.000315306
0.00861063
0.00719167
0.0058872
0.00465449
0.00374472
0.0027247
0.0021337
0.00162248
0.00131798
0.000971644
0.000732856
0.000213765
0.000296448
0.00033809
0.000506798
0.00112526
0.00161139
0.00238615
0.00334747
0.00470841
0.00760435
0.00650873
0.00549096
0.00457588
0.00345722
0.00295783
0.0021988
0.00175238
0.00147703
0.00110664
0.000679773
0.000632199
0.000742693
0.000414539
0.000912882
0.00115811
0.00179607
0.00234691
0.00325516
0.00421678
0.00673929
0.00576325
0.00496053
0.00399442
0.00330113
0.00260255
0.00220188
0.00192743
0.00145702
0.00103449
0.00112437
0.000944731
0.000785178
0.00120486
0.00107106
0.0014701
0.00178934
0.00215218
0.00310413
0.003819
0.00556274
0.00491475
0.00405892
0.00337097
0.00300248
0.00240818
0.00197475
0.00167875
0.00150037
0.000927003
0.00121177
0.00105235
0.000828265
0.000822719
0.00107439
0.0011569
0.00158977
0.00226805
0.00288086
0.00319121
0.00469596
0.00379951
0.00347876
0.002883
0.00243568
0.00203191
0.00158907
0.00138663
0.00121175
0.00127944
0.00108292
0.000814976
0.000823573
0.000734935
0.000930698
0.00127374
0.00153287
0.00175327
0.00226085
0.00262362
0.00311568
0.00308566
0.00247835
0.00232358
0.00190656
0.00154816
0.00106781
0.00112704
0.00102927
0.00113995
0.000730301
0.000756375
0.000669018
0.000598816
0.000911511
0.000980973
0.00103951
0.00149903
0.001875
0.00180786
0.00217199
0.00189294
0.00169309
0.00147619
0.000906195
0.00103054
0.000686019
0.000626385
0.000893511
0.000560932
0.000728464
0.000272394
0.000448292
0.000482
0.000365638
0.00054287
0.000897459
0.000863085
0.000950927
0.00120004
0.000497056
0.000718032
0.000603193
0.000291206
0.000339171
0.000353942
0.000297354
0.000237106
0.000235219
0.000186878
0.000149761
9.18372e-05
0.000174757
0.000100948
0.000190652
0.000146356
4.54241e-05
0.000186428
0.000283645
0.000425526
0.00974964
0.0080579
0.0067439
0.0054171
0.0042355
0.00329122
0.00249474
0.00180903
0.00146688
0.00103583
0.000787509
0.000573571
0.000345815
0.000446545
0.000909223
0.0014248
0.00211617
0.00296737
0.00409018
0.00516018
0.00845279
0.00727212
0.00599215
0.00501089
0.00398285
0.00322058
0.00260967
0.00194121
0.00161821
0.00118444
0.00108214
0.000753524
0.000974246
0.000825155
0.00113973
0.00152678
0.00214547
0.00294918
0.00376424
0.00488738
0.00746174
0.00646858
0.0054311
0.00431371
0.00372294
0.00291311
0.00233388
0.00212569
0.00152445
0.00128283
0.00127503
0.00121052
0.000846161
0.00115557
0.00111199
0.00169811
0.00192173
0.00267032
0.00344039
0.00418034
0.00631691
0.00567828
0.0046323
0.00394604
0.00332401
0.00250254
0.00229867
0.00165655
0.00154867
0.00128218
0.00113808
0.00124095
0.000919131
0.000982824
0.00128677
0.00147281
0.00174842
0.00258894
0.00324965
0.00362684
0.00485417
0.00479984
0.00380354
0.00319176
0.00278599
0.00216994
0.00171582
0.00165334
0.0013717
0.00125532
0.00107822
0.000811217
0.000888593
0.00101874
0.00113049
0.00124567
0.00161652
0.00215805
0.00240323
0.00295729
0.00344072
0.00332759
0.00294141
0.00225532
0.00196658
0.00177524
0.00121425
0.00124787
0.000923584
0.00082535
0.000787439
0.000949727
0.000669792
0.000899599
0.00100259
0.000866016
0.00113843
0.0015923
0.00182219
0.00210653
0.00205892
0.00205574
0.00149225
0.00139728
0.00132513
0.000971265
0.000958177
0.000708815
0.000589132
0.000343892
0.000541472
0.000683814
0.000666306
0.000262275
0.00038306
0.000515872
0.000685885
0.000936951
0.00127538
0.00140533
0.00080304
0.000743311
0.000568339
0.000608411
0.000339983
0.000379296
0.000346246
0.000196673
0.000143749
0.000117604
0.000123658
0.000312985
0.000139286
0.000120381
0.000228471
0.000317271
0.000221197
0.000255305
0.000351332
0.000343683
0.0110767
0.00966494
0.00803107
0.00631208
0.00552715
0.00428225
0.00343777
0.00258424
0.00204372
0.00168965
0.00131429
0.00146653
0.00129812
0.00121387
0.00183025
0.00230414
0.00295914
0.00398553
0.00506913
0.00644262
0.00989181
0.00841758
0.00724594
0.00572431
0.00498041
0.00409969
0.00329075
0.00265917
0.00202595
0.00191366
0.00160006
0.00147443
0.00145364
0.00148261
0.00168863
0.00217905
0.00288797
0.00372175
0.00467401
0.00561199
0.00826189
0.00756157
0.00640793
0.00535548
0.00435746
0.00375039
0.00295099
0.00258269
0.00230626
0.00178287
0.00162844
0.00150298
0.00141188
0.00155005
0.00187316
0.00228417
0.00266472
0.00341052
0.0041695
0.00509568
0.00710735
0.00631501
0.00531722
0.00459094
0.00364071
0.00311522
0.00269411
0.00221396
0.00187026
0.00176698
0.00157622
0.00139621
0.00145575
0.00154289
0.00182355
0.00207653
0.00248883
0.00318919
0.00367879
0.004454
0.00566194
0.00518385
0.00451441
0.0035851
0.00301823
0.00269073
0.00229638
0.00171698
0.00182796
0.00143848
0.00129077
0.00130502
0.00114303
0.00125541
0.00153713
0.00169529
0.00210233
0.00256336
0.00303102
0.00379417
0.00427872
0.00363847
0.00307723
0.00291185
0.00233303
0.00186752
0.00170424
0.00131292
0.00149389
0.000982419
0.00100166
0.000819431
0.000893884
0.000979693
0.00106802
0.00133175
0.0015665
0.00178917
0.00241147
0.0025387
0.00235877
0.00234896
0.00200806
0.00174479
0.00153413
0.0012746
0.0011804
0.000916235
0.000640897
0.000704789
0.000489789
0.000704562
0.000723994
0.000733667
0.00086841
0.000903903
0.00105572
0.00104339
0.0014033
0.00146653
0.00101556
0.000866902
0.000597544
0.000508706
0.000496408
0.000516681
0.000324815
0.000368792
0.000200189
0.000295745
0.000111441
0.000346416
0.000201567
0.000221526
0.000114142
0.000285753
0.00032974
0.000308211
0.000403605
0.000580472
0.0133163
0.0115987
0.00987772
0.00829652
0.007029
0.00558548
0.00467537
0.00401405
0.00323992
0.00291721
0.00278207
0.00268167
0.00255481
0.00259764
0.00314613
0.00357286
0.00445006
0.00536829
0.00688573
0.00810082
0.0116187
0.0103027
0.00899975
0.00737243
0.00618082
0.0053362
0.00464457
0.00363225
0.00324439
0.00305867
0.00270567
0.00258877
0.00269409
0.00270464
0.00281913
0.00342421
0.00425387
0.00507354
0.00614268
0.00718541
0.0099866
0.00902556
0.00765524
0.00662792
0.00559965
0.00486501
0.00423638
0.00326109
0.00319462
0.00271277
0.00251565
0.00252758
0.00239948
0.00272241
0.00268326
0.00310183
0.00363807
0.00454822
0.0054701
0.00629678
0.0084289
0.00745456
0.00648036
0.00552915
0.00469455
0.00412473
0.00354644
0.00296219
0.00278839
0.00240087
0.00228037
0.00216702
0.00207117
0.00241814
0.002493
0.00315108
0.00332322
0.00375833
0.00487707
0.00562481
0.00662041
0.0060014
0.00530194
0.00444767
0.00373546
0.00320117
0.00297206
0.00256129
0.00218619
0.00204251
0.00193422
0.00182025
0.00188959
0.00204628
0.00216342
0.00235243
0.00285171
0.00335465
0.00391252
0.00430105
0.00518408
0.00443447
0.00393424
0.00330291
0.00284769
0.00253527
0.00199495
0.0019185
0.0017582
0.00139862
0.00142312
0.00126689
0.00115613
0.00127813
0.00165893
0.00188484
0.00200042
0.00239304
0.00275493
0.00322172
0.0031174
0.00242831
0.00240874
0.00213381
0.00149766
0.00137102
0.00128897
0.00117934
0.00104082
0.000853375
0.000838165
0.000922238
0.000871522
0.000959299
0.000937473
0.00105432
0.00129348
0.00150418
0.00185301
0.00199566
0.00105499
0.000928638
0.000814621
0.000591466
0.00057327
0.000429872
0.000343909
0.000662583
0.000434621
0.000420936
0.000222895
0.000299337
0.000452692
0.00015935
0.000361763
0.000211356
0.000425661
0.000650068
0.000767669
0.000645817
0.015461
0.0139078
0.0118788
0.010533
0.00913171
0.00767123
0.00686928
0.00591538
0.00531478
0.00485793
0.00412812
0.00419215
0.00431953
0.00440945
0.004926
0.00563371
0.00638053
0.00761294
0.00896841
0.010392
0.0137083
0.0121657
0.0106216
0.00925679
0.00814446
0.00700407
0.00612204
0.00539487
0.00493861
0.00429089
0.00427309
0.00427756
0.00416599
0.00422
0.00442616
0.00504791
0.00599793
0.00684276
0.00794907
0.00911016
0.0119854
0.0108143
0.00937163
0.00800783
0.00695105
0.00626645
0.00545515
0.00488417
0.00430961
0.00412423
0.00372178
0.00364622
0.0036417
0.00392731
0.00414534
0.00484154
0.00544326
0.00590611
0.0069933
0.00809057
0.00988131
0.0089256
0.00786788
0.00697467
0.00614049
0.00544539
0.00458388
0.00392937
0.00369896
0.00367597
0.00332523
0.00314666
0.00338454
0.00329267
0.00357852
0.00410333
0.00450662
0.00542223
0.00600353
0.0066579
0.00771505
0.00704008
0.00638722
0.0057049
0.00478669
0.00445981
0.00385636
0.00349822
0.00333914
0.00305081
0.0025459
0.00267366
0.00272917
0.00289412
0.00308959
0.00323028
0.00366008
0.00420296
0.00467816
0.00538748
0.0054989
0.00515743
0.00459813
0.00400691
0.00366559
0.0033171
0.00276736
0.0024557
0.00224228
0.00220757
0.00199975
0.00199094
0.00197322
0.00205994
0.00206666
0.00240226
0.00278712
0.00325665
0.00343625
0.00389839
0.00340699
0.00332966
0.00313741
0.00264077
0.00220674
0.00200057
0.00185779
0.00167548
0.00129197
0.00141464
0.0011492
0.0011363
0.00150677
0.00152205
0.0014903
0.00126548
0.0016334
0.00171825
0.00219186
0.00253881
0.00129032
0.00117147
0.0010583
0.00077238
0.000919496
0.000401603
0.000361891
0.000261667
0.000487106
0.00038624
0.000565556
0.000208286
0.000375626
0.000420182
0.000389756
0.000784492
0.000480606
0.000818742
0.000710398
0.000459273
0.018586
0.0166161
0.0147356
0.0131154
0.0115344
0.0104465
0.00923249
0.0082794
0.00757943
0.00706914
0.00651383
0.00651071
0.00647428
0.00674898
0.00743241
0.00808748
0.00892502
0.0101234
0.0116148
0.0129439
0.0164008
0.0148687
0.0133195
0.0117076
0.0104263
0.00936743
0.00853791
0.00731959
0.00682039
0.00652181
0.00613672
0.00602174
0.00613957
0.00621391
0.00668064
0.00727811
0.00807858
0.00903338
0.0102749
0.0115531
0.0140439
0.012828
0.0114164
0.0103275
0.00906743
0.00808504
0.00722562
0.00666431
0.00610247
0.0058299
0.00531285
0.00516072
0.00537412
0.00545475
0.00592583
0.00650234
0.0073009
0.00809005
0.00886672
0.0100016
0.0117959
0.0106147
0.00945497
0.00852321
0.00762478
0.00689903
0.00602991
0.00589574
0.00541452
0.00492545
0.00465362
0.00411216
0.00468756
0.00474239
0.00519293
0.00542409
0.00609965
0.00685186
0.00748972
0.0084263
0.00919769
0.00840962
0.00758196
0.00667939
0.00606853
0.00540785
0.00498321
0.0045879
0.00433394
0.00404856
0.00392927
0.00371697
0.00366884
0.00371661
0.00417798
0.00423448
0.00487711
0.0055038
0.00602307
0.00669773
0.00671036
0.00610752
0.00563466
0.00500549
0.00435878
0.00392787
0.00369561
0.00328839
0.00310004
0.00301167
0.00276721
0.00270423
0.00285495
0.00283466
0.00286155
0.00312497
0.003616
0.00378307
0.00422705
0.0048815
0.00407945
0.00372048
0.0032466
0.00312918
0.00261092
0.00257091
0.00234649
0.00217996
0.00192913
0.0017004
0.00173546
0.00173589
0.0017557
0.00175067
0.00175006
0.00211245
0.00228927
0.0023274
0.00261341
0.00281783
0.00142184
0.00129319
0.00116418
0.000957327
0.00102869
0.000612788
0.000743923
0.000643661
0.000503532
0.00082896
0.000669432
0.000802132
0.00061378
0.000611369
0.000652642
0.000799342
0.000634508
0.000746251
0.000999537
0.0009997
0.0218714
0.0200253
0.0180492
0.016299
0.0146152
0.0131501
0.0121651
0.0111788
0.0102734
0.00981412
0.00936323
0.00932799
0.00942043
0.00966464
0.0102666
0.0109357
0.0118916
0.0131955
0.0145472
0.0160978
0.0190304
0.0178419
0.0158158
0.0143888
0.0129566
0.0118683
0.0106504
0.0100215
0.00940211
0.00876999
0.00869253
0.00845927
0.00860872
0.00855193
0.00924729
0.00967327
0.0106434
0.011753
0.0131403
0.014117
0.0162341
0.0152306
0.013683
0.0122987
0.0113158
0.0101674
0.00952154
0.00882346
0.00825474
0.00765482
0.00752357
0.00728584
0.00747461
0.00775225
0.00816865
0.00830703
0.00940437
0.0103307
0.0111567
0.01254
0.0137886
0.0128104
0.0114362
0.0102742
0.00960093
0.00882754
0.00796255
0.00732455
0.00692092
0.00670894
0.00649898
0.00651215
0.00624663
0.00658864
0.00678216
0.0073179
0.00778186
0.00869491
0.00950078
0.0104343
0.0108846
0.0102575
0.00905841
0.00823986
0.00748926
0.00695368
0.00654802
0.00589733
0.00549314
0.00517087
0.00515777
0.00508552
0.00508054
0.00492709
0.00547772
0.00557686
0.00628582
0.00678478
0.00763387
0.00822459
0.00804399
0.00737864
0.00688941
0.00590974
0.00551147
0.004902
0.00454604