/*--------------------------------*- C++ -*----------------------------------*\
| =========                 |                                                 |
| \\      /  F ield         | OpenFOAM: The Open Source CFD Toolbox           |
|  \\    /   O peration     | Version:  2212                                  |
|   \\  /    A nd           | Website:  www.openfoam.com                      |
|    \\/     M anipulation  |                                                 |
\*---------------------------------------------------------------------------*/
FoamFile
{
    version     2.0;
    format      ascii;
    arch        "LSB;label=32;scalar=64";
    class       volScalarField;
    location    "./ITHACAoutput/true/19.9";
    object      trueState;
}
// * * * * * * * * * * * * * * * * * * * * * * * * * * * * * * * * * * * * * //

dimensions      [0 0 0 1 0 0 0];

internalField   nonuniform List<scalar> 
3200
(
326.708
326.878
327.097
327.335
327.58
327.82
328.042
328.23
328.366
328.439
328.439
328.366
328.23
328.042
327.82
327.58
327.335
327.097
326.878
326.708
322.997
323.141
323.33
323.535
323.748
323.956
324.148
324.31
324.427
324.49
324.49
324.427
324.31
324.148
323.956
323.748
323.535
323.33
323.141
322.997
319.351
319.471
319.63
319.804
319.983
320.159
320.321
320.457
320.557
320.609
320.609
320.557
320.457
320.321
320.159
319.983
319.804
319.63
319.471
319.351
315.761
315.857
315.987
316.129
316.275
316.419
316.551
316.663
316.744
316.787
316.787
316.744
316.663
316.551
316.419
316.275
316.129
315.987
315.857
315.761
312.215
312.289
312.39
312.5
312.614
312.726
312.829
312.915
312.978
313.011
313.011
312.978
312.915
312.829
312.726
312.614
312.5
312.39
312.289
312.215
308.705
308.757
308.829
308.907
308.989
309.068
309.142
309.204
309.249
309.272
309.272
309.249
309.204
309.142
309.068
308.989
308.907
308.829
308.757
308.705
305.219
305.25
305.293
305.34
305.389
305.437
305.481
305.518
305.545
305.559
305.559
305.545
305.518
305.481
305.437
305.389
305.34
305.293
305.25
305.219
301.748
301.758
301.773
301.788
301.805
301.821
301.836
301.848
301.857
301.862
301.862
301.857
301.848
301.836
301.821
301.805
301.788
301.773
301.758
301.748
326.817
326.987
327.203
327.439
327.681
327.919
328.139
328.324
328.459
328.53
328.53
328.459
328.324
328.139
327.919
327.681
327.439
327.203
326.987
326.817
323.091
323.234
323.421
323.625
323.835
324.041
324.23
324.39
324.507
324.568
324.568
324.507
324.39
324.23
324.041
323.835
323.625
323.421
323.234
323.091
319.43
319.549
319.706
319.879
320.056
320.23
320.39
320.525
320.623
320.675
320.675
320.623
320.525
320.39
320.23
320.056
319.879
319.706
319.549
319.43
315.825
315.921
316.049
316.19
316.335
316.477
316.608
316.718
316.798
316.84
316.84
316.798
316.718
316.608
316.477
316.335
316.19
316.049
315.921
315.825
312.265
312.339
312.438
312.547
312.66
312.771
312.872
312.958
313.02
313.053
313.053
313.02
312.958
312.872
312.771
312.66
312.547
312.438
312.339
312.265
308.74
308.792
308.863
308.941
309.022
309.1
309.173
309.234
309.278
309.302
309.302
309.278
309.234
309.173
309.1
309.022
308.941
308.863
308.792
308.74
305.24
305.271
305.314
305.36
305.409
305.456
305.5
305.536
305.563
305.577
305.577
305.563
305.536
305.5
305.456
305.409
305.36
305.314
305.271
305.24
301.755
301.765
301.779
301.795
301.811
301.827
301.842
301.854
301.863
301.868
301.868
301.863
301.854
301.842
301.827
301.811
301.795
301.779
301.765
301.755
327.036
327.203
327.416
327.647
327.885
328.118
328.332
328.513
328.644
328.713
328.713
328.644
328.513
328.332
328.118
327.885
327.647
327.416
327.203
327.036
323.279
323.42
323.604
323.804
324.01
324.211
324.396
324.553
324.666
324.726
324.726
324.666
324.553
324.396
324.211
324.01
323.804
323.604
323.42
323.279
319.588
319.705
319.86
320.029
320.203
320.373
320.53
320.662
320.757
320.808
320.808
320.757
320.662
320.53
320.373
320.203
320.029
319.86
319.705
319.588
315.954
316.048
316.174
316.312
316.454
316.593
316.721
316.829
316.907
316.948
316.948
316.907
316.829
316.721
316.593
316.454
316.312
316.174
316.048
315.954
312.364
312.437
312.535
312.642
312.753
312.861
312.96
313.044
313.104
313.136
313.136
313.104
313.044
312.96
312.861
312.753
312.642
312.535
312.437
312.364
308.811
308.862
308.932
309.008
309.087
309.165
309.235
309.295
309.338
309.361
309.361
309.338
309.295
309.235
309.165
309.087
309.008
308.932
308.862
308.811
305.282
305.313
305.355
305.401
305.448
305.495
305.537
305.573
305.599
305.613
305.613
305.599
305.573
305.537
305.495
305.448
305.401
305.355
305.313
305.282
301.769
301.779
301.793
301.809
301.825
301.84
301.854
301.866
301.875
301.88
301.88
301.875
301.866
301.854
301.84
301.825
301.809
301.793
301.779
301.769
327.366
327.529
327.736
327.961
328.192
328.417
328.624
328.798
328.925
328.991
328.991
328.925
328.798
328.624
328.417
328.192
327.961
327.736
327.529
327.366
323.562
323.7
323.879
324.074
324.273
324.468
324.647
324.798
324.907
324.965
324.965
324.907
324.798
324.647
324.468
324.273
324.074
323.879
323.7
323.562
319.826
319.94
320.091
320.256
320.424
320.589
320.74
320.867
320.96
321.008
321.008
320.96
320.867
320.74
320.589
320.424
320.256
320.091
319.94
319.826
316.147
316.239
316.362
316.496
316.634
316.769
316.892
316.996
317.071
317.111
317.111
317.071
316.996
316.892
316.769
316.634
316.496
316.362
316.239
316.147
312.514
312.585
312.68
312.785
312.892
312.997
313.093
313.173
313.232
313.262
313.262
313.232
313.173
313.093
312.997
312.892
312.785
312.68
312.585
312.514
308.917
308.967
309.035
309.11
309.187
309.261
309.33
309.387
309.429
309.451
309.451
309.429
309.387
309.33
309.261
309.187
309.11
309.035
308.967
308.917
305.346
305.376
305.417
305.462
305.508
305.552
305.594
305.628
305.653
305.666
305.666
305.653
305.628
305.594
305.552
305.508
305.462
305.417
305.376
305.346
301.79
301.8
301.814
301.829
301.844
301.859
301.873
301.885
301.893
301.898
301.898
301.893
301.885
301.873
301.859
301.844
301.829
301.814
301.8
301.79
327.806
327.964
328.164
328.381
328.603
328.819
329.017
329.183
329.303
329.366
329.366
329.303
329.183
329.017
328.819
328.603
328.381
328.164
327.964
327.806
323.94
324.074
324.247
324.435
324.627
324.813
324.985
325.128
325.232
325.287
325.287
325.232
325.128
324.985
324.813
324.627
324.435
324.247
324.074
323.94
320.143
320.254
320.4
320.559
320.721
320.879
321.024
321.145
321.232
321.279
321.279
321.232
321.145
321.024
320.879
320.721
320.559
320.4
320.254
320.143
316.405
316.494
316.613
316.743
316.875
317.005
317.123
317.222
317.293
317.331
317.331
317.293
317.222
317.123
317.005
316.875
316.743
316.613
316.494
316.405
312.714
312.782
312.875
312.975
313.079
313.179
313.271
313.348
313.403
313.433
313.433
313.403
313.348
313.271
313.179
313.079
312.975
312.875
312.782
312.714
309.06
309.108
309.174
309.246
309.319
309.391
309.457
309.512
309.551
309.572
309.572
309.551
309.512
309.457
309.391
309.319
309.246
309.174
309.108
309.06
305.431
305.46
305.5
305.543
305.587
305.63
305.67
305.703
305.726
305.739
305.739
305.726
305.703
305.67
305.63
305.587
305.543
305.5
305.46
305.431
301.819
301.829
301.842
301.856
301.871
301.886
301.899
301.91
301.918
301.922
301.922
301.918
301.91
301.899
301.886
301.871
301.856
301.842
301.829
301.819
328.357
328.509
328.701
328.909
329.12
329.325
329.513
329.669
329.782
329.842
329.842
329.782
329.669
329.513
329.325
329.12
328.909
328.701
328.509
328.357
324.413
324.542
324.708
324.888
325.071
325.248
325.41
325.546
325.644
325.695
325.695
325.644
325.546
325.41
325.248
325.071
324.888
324.708
324.542
324.413
320.541
320.648
320.788
320.94
321.094
321.244
321.381
321.495
321.578
321.621
321.621
321.578
321.495
321.381
321.244
321.094
320.94
320.788
320.648
320.541
316.728
316.814
316.928
317.052
317.179
317.302
317.413
317.507
317.574
317.61
317.61
317.574
317.507
317.413
317.302
317.179
317.052
316.928
316.814
316.728
312.964
313.03
313.119
313.215
313.313
313.409
313.496
313.568
313.621
313.648
313.648
313.621
313.568
313.496
313.409
313.313
313.215
313.119
313.03
312.964
309.238
309.284
309.348
309.416
309.487
309.555
309.617
309.669
309.706
309.726
309.726
309.706
309.669
309.617
309.555
309.487
309.416
309.348
309.284
309.238
305.538
305.566
305.604
305.645
305.687
305.728
305.766
305.797
305.819
305.831
305.831
305.819
305.797
305.766
305.728
305.687
305.645
305.604
305.566
305.538
301.855
301.864
301.877
301.89
301.905
301.918
301.931
301.941
301.949
301.953
301.953
301.949
301.941
301.931
301.918
301.905
301.89
301.877
301.864
301.855
329.02
329.165
329.349
329.546
329.745
329.938
330.114
330.26
330.366
330.421
330.421
330.366
330.26
330.114
329.938
329.745
329.546
329.349
329.165
329.02
324.983
325.106
325.265
325.435
325.608
325.775
325.927
326.053
326.145
326.193
326.193
326.145
326.053
325.927
325.775
325.608
325.435
325.265
325.106
324.983
321.02
321.122
321.255
321.399
321.545
321.687
321.815
321.922
321.999
322.039
322.039
321.999
321.922
321.815
321.687
321.545
321.399
321.255
321.122
321.02
317.117
317.2
317.308
317.426
317.546
317.661
317.766
317.853
317.916
317.949
317.949
317.916
317.853
317.766
317.661
317.546
317.426
317.308
317.2
317.117
313.265
313.328
313.413
313.504
313.597
313.687
313.769
313.837
313.885
313.911
313.911
313.885
313.837
313.769
313.687
313.597
313.504
313.413
313.328
313.265
309.452
309.497
309.557
309.622
309.689
309.753
309.811
309.86
309.894
309.913
309.913
309.894
309.86
309.811
309.753
309.689
309.622
309.557
309.497
309.452
305.667
305.693
305.729
305.769
305.808
305.847
305.882
305.911
305.932
305.943
305.943
305.932
305.911
305.882
305.847
305.808
305.769
305.729
305.693
305.667
301.898
301.907
301.919
301.932
301.945
301.958
301.97
301.98
301.987
301.99
301.99
301.987
301.98
301.97
301.958
301.945
301.932
301.919
301.907
301.898
329.796
329.934
330.107
330.293
330.48
330.661
330.824
330.959
331.057
331.108
331.108
331.057
330.959
330.824
330.661
330.48
330.293
330.107
329.934
329.796
325.65
325.767
325.916
326.077
326.239
326.395
326.537
326.654
326.738
326.782
326.782
326.738
326.654
326.537
326.395
326.239
326.077
325.916
325.767
325.65
321.579
321.676
321.803
321.938
322.076
322.208
322.327
322.426
322.497
322.535
322.535
322.497
322.426
322.327
322.208
322.076
321.938
321.803
321.676
321.579
317.573
317.651
317.754
317.865
317.977
318.085
318.182
318.263
318.322
318.352
318.352
318.322
318.263
318.182
318.085
317.977
317.865
317.754
317.651
317.573
313.618
313.678
313.758
313.844
313.931
314.015
314.091
314.154
314.199
314.223
314.223
314.199
314.154
314.091
314.015
313.931
313.844
313.758
313.678
313.618
309.703
309.745
309.802
309.864
309.926
309.986
310.041
310.085
310.118
310.135
310.135
310.118
310.085
310.041
309.986
309.926
309.864
309.802
309.745
309.703
305.817
305.842
305.876
305.913
305.951
305.987
306.019
306.046
306.066
306.076
306.076
306.066
306.046
306.019
305.987
305.951
305.913
305.876
305.842
305.817
301.948
301.956
301.968
301.98
301.993
302.005
302.016
302.025
302.031
302.035
302.035
302.031
302.025
302.016
302.005
301.993
301.98
301.968
301.956
301.948
330.685
330.815
330.979
331.153
331.327
331.494
331.645
331.77
331.859
331.906
331.906
331.859
331.77
331.645
331.494
331.327
331.153
330.979
330.815
330.685
326.414
326.524
326.665
326.816
326.967
327.112
327.242
327.35
327.427
327.468
327.468
327.427
327.35
327.242
327.112
326.967
326.816
326.665
326.524
326.414
322.221
322.313
322.432
322.559
322.687
322.809
322.919
323.01
323.076
323.11
323.11
323.076
323.01
322.919
322.809
322.687
322.559
322.432
322.313
322.221
318.095
318.168
318.265
318.369
318.474
318.574
318.664
318.739
318.792
318.82
318.82
318.792
318.739
318.664
318.574
318.474
318.369
318.265
318.168
318.095
314.022
314.078
314.154
314.234
314.316
314.394
314.464
314.522
314.563
314.585
314.585
314.563
314.522
314.464
314.394
314.316
314.234
314.154
314.078
314.022
309.991
310.031
310.084
310.142
310.2
310.256
310.306
310.347
310.377
310.392
310.392
310.377
310.347
310.306
310.256
310.2
310.142
310.084
310.031
309.991
305.989
306.013
306.045
306.08
306.115
306.148
306.178
306.203
306.221
306.23
306.23
306.221
306.203
306.178
306.148
306.115
306.08
306.045
306.013
305.989
302.006
302.014
302.024
302.036
302.048
302.059
302.069
302.077
302.083
302.086
302.086
302.083
302.077
302.069
302.059
302.048
302.036
302.024
302.014
302.006
331.689
331.811
331.964
332.126
332.288
332.441
332.58
332.693
332.775
332.817
332.817
332.775
332.693
332.58
332.441
332.288
332.126
331.964
331.811
331.689
327.276
327.38
327.512
327.652
327.792
327.925
328.045
328.144
328.214
328.251
328.251
328.214
328.144
328.045
327.925
327.792
327.652
327.512
327.38
327.276
322.946
323.032
323.143
323.261
323.38
323.493
323.594
323.677
323.736
323.768
323.768
323.736
323.677
323.594
323.493
323.38
323.261
323.143
323.032
322.946
318.684
318.753
318.844
318.94
319.037
319.13
319.212
319.281
319.329
319.355
319.355
319.329
319.281
319.212
319.13
319.037
318.94
318.844
318.753
318.684
314.478
314.531
314.601
314.677
314.752
314.824
314.888
314.941
314.979
314.999
314.999
314.979
314.941
314.888
314.824
314.752
314.677
314.601
314.531
314.478
310.315
310.353
310.403
310.457
310.511
310.562
310.608
310.646
310.673
310.687
310.687
310.673
310.646
310.608
310.562
310.511
310.457
310.403
310.353
310.315
306.184
306.206
306.236
306.269
306.301
306.332
306.359
306.382
306.398
306.407
306.407
306.398
306.382
306.359
306.332
306.301
306.269
306.236
306.206
306.184
302.071
302.078
302.088
302.099
302.11
302.12
302.13
302.137
302.143
302.146
302.146
302.143
302.137
302.13
302.12
302.11
302.099
302.088
302.078
302.071
332.807
332.922
333.064
333.214
333.363
333.504
333.63
333.733
333.807
333.845
333.845
333.807
333.733
333.63
333.504
333.363
333.214
333.064
332.922
332.807
328.237
328.335
328.457
328.587
328.716
328.838
328.948
329.037
329.101
329.134
329.134
329.101
329.037
328.948
328.838
328.716
328.587
328.457
328.335
328.237
323.753
323.834
323.937
324.047
324.156
324.259
324.352
324.427
324.481
324.509
324.509
324.481
324.427
324.352
324.259
324.156
324.047
323.937
323.834
323.753
319.34
319.405
319.49
319.579
319.669
319.753
319.829
319.891
319.935
319.958
319.958
319.935
319.891
319.829
319.753
319.669
319.579
319.49
319.405
319.34
314.986
315.036
315.101
315.171
315.241
315.306
315.365
315.413
315.448
315.465
315.465
315.448
315.413
315.365
315.306
315.241
315.171
315.101
315.036
314.986
310.677
310.712
310.759
310.809
310.859
310.906
310.948
310.982
311.006
311.019
311.019
311.006
310.982
310.948
310.906
310.859
310.809
310.759
310.712
310.677
306.401
306.422
306.45
306.48
306.509
306.538
306.563
306.584
306.598
306.606
306.606
306.598
306.584
306.563
306.538
306.509
306.48
306.45
306.422
306.401
302.143
302.15
302.16
302.17
302.18
302.189
302.198
302.205
302.21
302.212
302.212
302.21
302.205
302.198
302.189
302.18
302.17
302.16
302.15
302.143
334.041
334.148
334.28
334.418
334.555
334.684
334.798
334.891
334.958
334.992
334.992
334.958
334.891
334.798
334.684
334.555
334.418
334.28
334.148
334.041
329.298
329.388
329.502
329.622
329.74
329.852
329.951
330.032
330.089
330.119
330.119
330.089
330.032
329.951
329.852
329.74
329.622
329.502
329.388
329.298
324.644
324.719
324.815
324.916
325.016
325.111
325.194
325.263
325.311
325.337
325.337
325.311
325.263
325.194
325.111
325.016
324.916
324.815
324.719
324.644
320.065
320.125
320.204
320.286
320.368
320.445
320.514
320.57
320.61
320.63
320.63
320.61
320.57
320.514
320.445
320.368
320.286
320.204
320.125
320.065
315.547
315.593
315.654
315.718
315.782
315.842
315.896
315.939
315.97
315.986
315.986
315.97
315.939
315.896
315.842
315.782
315.718
315.654
315.593
315.547
311.077
311.109
311.153
311.199
311.244
311.287
311.325
311.356
311.378
311.39
311.39
311.378
311.356
311.325
311.287
311.244
311.199
311.153
311.109
311.077
306.64
306.66
306.685
306.713
306.74
306.766
306.789
306.808
306.821
306.828
306.828
306.821
306.808
306.789
306.766
306.74
306.713
306.685
306.66
306.64
302.224
302.23
302.239
302.248
302.257
302.266
302.274
302.28
302.284
302.287
302.287
302.284
302.28
302.274
302.266
302.257
302.248
302.239
302.23
302.224
335.392
335.491
335.613
335.739
335.864
335.981
336.085
336.169
336.228
336.259
336.259
336.228
336.169
336.085
335.981
335.864
335.739
335.613
335.491
335.392
330.458
330.542
330.647
330.757
330.865
330.967
331.056
331.129
331.181
331.208
331.208
331.181
331.129
331.056
330.967
330.865
330.757
330.647
330.542
330.458
325.619
325.688
325.777
325.87
325.961
326.047
326.123
326.185
326.228
326.251
326.251
326.228
326.185
326.123
326.047
325.961
325.87
325.777
325.688
325.619
320.858
320.914
320.986
321.062
321.137
321.207
321.269
321.319
321.355
321.374
321.374
321.355
321.319
321.269
321.207
321.137
321.062
320.986
320.914
320.858
316.161
316.204
316.26
316.319
316.377
316.432
316.48
316.519
316.547
316.561
316.561
316.547
316.519
316.48
316.432
316.377
316.319
316.26
316.204
316.161
311.514
311.544
311.584
311.626
311.668
311.707
311.741
311.769
311.789
311.799
311.799
311.789
311.769
311.741
311.707
311.668
311.626
311.584
311.544
311.514
306.902
306.92
306.944
306.969
306.994
307.018
307.038
307.055
307.067
307.073
307.073
307.067
307.055
307.038
307.018
306.994
306.969
306.944
306.92
306.902
302.311
302.317
302.325
302.334
302.342
302.35
302.357
302.363
302.367
302.369
302.369
302.367
302.363
302.357
302.35
302.342
302.334
302.325
302.317
302.311
336.857
336.949
337.061
337.177
337.291
337.397
337.49
337.566
337.619
337.647
337.647
337.619
337.566
337.49
337.397
337.291
337.177
337.061
336.949
336.857
331.718
331.795
331.892
331.993
332.091
332.183
332.264
332.329
332.376
332.399
332.399
332.376
332.329
332.264
332.183
332.091
331.993
331.892
331.795
331.718
326.677
326.741
326.822
326.908
326.991
327.069
327.137
327.192
327.231
327.252
327.252
327.231
327.192
327.137
327.069
326.991
326.908
326.822
326.741
326.677
321.718
321.77
321.836
321.906
321.974
322.038
322.094
322.139
322.171
322.187
322.187
322.171
322.139
322.094
322.038
321.974
321.906
321.836
321.77
321.718
316.827
316.866
316.918
316.972
317.025
317.075
317.118
317.154
317.178
317.191
317.191
317.178
317.154
317.118
317.075
317.025
316.972
316.918
316.866
316.827
311.988
312.016
312.053
312.091
312.129
312.165
312.196
312.221
312.239
312.248
312.248
312.239
312.221
312.196
312.165
312.129
312.091
312.053
312.016
311.988
307.186
307.203
307.225
307.248
307.271
307.292
307.311
307.326
307.336
307.342
307.342
307.336
307.326
307.311
307.292
307.271
307.248
307.225
307.203
307.186
302.406
302.412
302.419
302.427
302.435
302.442
302.448
302.453
302.457
302.459
302.459
302.457
302.453
302.448
302.442
302.435
302.427
302.419
302.412
302.406
338.437
338.521
338.624
338.73
338.834
338.929
339.013
339.081
339.128
339.153
339.153
339.128
339.081
339.013
338.929
338.834
338.73
338.624
338.521
338.437
333.075
333.146
333.235
333.327
333.416
333.499
333.572
333.631
333.672
333.693
333.693
333.672
333.631
333.572
333.499
333.416
333.327
333.235
333.146
333.075
327.816
327.875
327.95
328.028
328.104
328.174
328.235
328.285
328.32
328.338
328.338
328.32
328.285
328.235
328.174
328.104
328.028
327.95
327.875
327.816
322.644
322.692
322.753
322.817
322.879
322.936
322.987
323.027
323.056
323.071
323.071
323.056
323.027
322.987
322.936
322.879
322.817
322.753
322.692
322.644
317.544
317.58
317.628
317.677
317.725
317.77
317.809
317.841
317.863
317.875
317.875
317.863
317.841
317.809
317.77
317.725
317.677
317.628
317.58
317.544
312.498
312.524
312.558
312.593
312.628
312.66
312.688
312.71
312.726
312.734
312.734
312.726
312.71
312.688
312.66
312.628
312.593
312.558
312.524
312.498
307.492
307.507
307.527
307.549
307.569
307.588
307.605
307.619
307.628
307.633
307.633
307.628
307.619
307.605
307.588
307.569
307.549
307.527
307.507
307.492
302.509
302.514
302.521
302.528
302.535
302.541
302.547
302.551
302.554
302.556
302.556
302.554
302.551
302.547
302.541
302.535
302.528
302.521
302.514
302.509
340.124
340.202
340.296
340.393
340.486
340.573
340.648
340.708
340.751
340.773
340.773
340.751
340.708
340.648
340.573
340.486
340.393
340.296
340.202
340.124
334.523
334.589
334.67
334.754
334.835
334.91
334.975
335.028
335.065
335.084
335.084
335.065
335.028
334.975
334.91
334.835
334.754
334.67
334.589
334.523
329.031
329.086
329.154
329.225
329.294
329.358
329.413
329.457
329.488
329.505
329.505
329.488
329.457
329.413
329.358
329.294
329.225
329.154
329.086
329.031
323.632
323.676
323.732
323.79
323.846
323.898
323.943
323.98
324.005
324.018
324.018
324.005
323.98
323.943
323.898
323.846
323.79
323.732
323.676
323.632
318.308
318.341
318.385
318.43
318.474
318.514
318.549
318.578
318.598
318.608
318.608
318.598
318.578
318.549
318.514
318.474
318.43
318.385
318.341
318.308
313.042
313.066
313.096
313.129
313.16
313.189
313.214
313.234
313.249
313.256
313.256
313.249
313.234
313.214
313.189
313.16
313.129
313.096
313.066
313.042
307.817
307.831
307.85
307.869
307.888
307.906
307.921
307.933
307.941
307.946
307.946
307.941
307.933
307.921
307.906
307.888
307.869
307.85
307.831
307.817
302.618
302.622
302.629
302.635
302.641
302.647
302.652
302.656
302.659
302.661
302.661
302.659
302.656
302.652
302.647
302.641
302.635
302.629
302.622
302.618
341.902
341.974
342.06
342.148
342.233
342.311
342.379
342.433
342.471
342.49
342.49
342.471
342.433
342.379
342.311
342.233
342.148
342.06
341.974
341.902
336.047
336.107
336.182
336.258
336.332
336.4
336.458
336.505
336.538
336.555
336.555
336.538
336.505
336.458
336.4
336.332
336.258
336.182
336.107
336.047
330.308
330.359
330.421
330.486
330.548
330.606
330.655
330.695
330.723
330.737
330.737
330.723
330.695
330.655
330.606
330.548
330.486
330.421
330.359
330.308
324.668
324.709
324.76
324.813
324.864
324.911
324.951
324.984
325.007
325.019
325.019
325.007
324.984
324.951
324.911
324.864
324.813
324.76
324.709
324.668
319.109
319.14
319.179
319.22
319.26
319.297
319.328
319.354
319.371
319.381
319.381
319.371
319.354
319.328
319.297
319.26
319.22
319.179
319.14
319.109
313.611
313.633
313.661
313.691
313.719
313.745
313.768
313.786
313.799
313.805
313.805
313.799
313.786
313.768
313.745
313.719
313.691
313.661
313.633
313.611
308.158
308.171
308.188
308.206
308.223
308.239
308.252
308.263
308.271
308.275
308.275
308.271
308.263
308.252
308.239
308.223
308.206
308.188
308.171
308.158
302.732
302.736
302.742
302.748
302.753
302.759
302.763
302.767
302.769
302.771
302.771
302.769
302.767
302.763
302.759
302.753
302.748
302.742
302.736
302.732
343.73
343.795
343.874
343.955
344.032
344.102
344.163
344.212
344.246
344.263
344.263
344.246
344.212
344.163
344.102
344.032
343.955
343.874
343.795
343.73
337.606
337.662
337.73
337.8
337.867
337.928
337.981
338.023
338.052
338.068
338.068
338.052
338.023
337.981
337.928
337.867
337.8
337.73
337.662
337.606
331.61
331.656
331.713
331.772
331.829
331.881
331.926
331.962
331.987
331.999
331.999
331.987
331.962
331.926
331.881
331.829
331.772
331.713
331.656
331.61
325.721
325.758
325.805
325.853
325.899
325.942
325.979
326.008
326.028
326.039
326.039
326.028
326.008
325.979
325.942
325.899
325.853
325.805
325.758
325.721
319.919
319.948
319.984
320.022
320.058
320.091
320.12
320.142
320.158
320.167
320.167
320.158
320.142
320.12
320.091
320.058
320.022
319.984
319.948
319.919
314.186
314.206
314.232
314.259
314.285
314.309
314.329
314.346
314.357
314.363
314.363
314.357
314.346
314.329
314.309
314.285
314.259
314.232
314.206
314.186
308.502
308.514
308.529
308.546
308.561
308.575
308.588
308.597
308.604
308.608
308.608
308.604
308.597
308.588
308.575
308.561
308.546
308.529
308.514
308.502
302.847
302.851
302.856
302.861
302.866
302.871
302.875
302.879
302.881
302.882
302.882
302.881
302.879
302.875
302.871
302.866
302.861
302.856
302.851
302.847
345.494
345.555
345.628
345.702
345.772
345.836
345.892
345.936
345.966
345.982
345.982
345.966
345.936
345.892
345.836
345.772
345.702
345.628
345.555
345.494
339.093
339.145
339.208
339.272
339.333
339.389
339.437
339.476
339.502
339.516
339.516
339.502
339.476
339.437
339.389
339.333
339.272
339.208
339.145
339.093
332.838
332.88
332.934
332.988
333.04
333.087
333.128
333.161
333.183
333.195
333.195
333.183
333.161
333.128
333.087
333.04
332.988
332.934
332.88
332.838
326.704
326.739
326.782
326.827
326.87
326.908
326.942
326.969
326.987
326.997
326.997
326.987
326.969
326.942
326.908
326.87
326.827
326.782
326.739
326.704
320.672
320.698
320.732
320.767
320.8
320.83
320.856
320.877
320.891
320.899
320.899
320.891
320.877
320.856
320.83
320.8
320.767
320.732
320.698
320.672
314.717
314.736
314.76
314.784
314.808
314.83
314.849
314.863
314.874
314.879
314.879
314.874
314.863
314.849
314.83
314.808
314.784
314.76
314.736
314.717
308.818
308.829
308.843
308.858
308.873
308.886
308.897
308.906
308.912
308.915
308.915
308.912
308.906
308.897
308.886
308.873
308.858
308.843
308.829
308.818
302.952
302.956
302.961
302.966
302.97
302.975
302.979
302.982
302.984
302.985
302.985
302.984
302.982
302.979
302.975
302.97
302.966
302.961
302.956
302.952
346.89
346.947
347.016
347.085
347.151
347.211
347.262
347.303
347.331
347.346
347.346
347.331
347.303
347.262
347.211
347.151
347.085
347.016
346.947
346.89
340.225
340.274
340.333
340.393
340.451
340.503
340.548
340.584
340.609
340.621
340.621
340.609
340.584
340.548
340.503
340.451
340.393
340.333
340.274
340.225
333.743
333.783
333.833
333.885
333.934
333.978
334.016
334.047
334.068
334.079
334.079
334.068
334.047
334.016
333.978
333.934
333.885
333.833
333.783
333.743
327.411
327.444
327.485
327.527
327.568
327.604
327.636
327.66
327.678
327.687
327.687
327.678
327.66
327.636
327.604
327.568
327.527
327.485
327.444
327.411
321.202
321.227
321.259
321.292
321.323
321.352
321.376
321.396
321.409
321.416
321.416
321.409
321.396
321.376
321.352
321.323
321.292
321.259
321.227
321.202
315.085
315.103
315.126
315.15
315.172
315.193
315.21
315.224
315.234
315.239
315.239
315.234
315.224
315.21
315.193
315.172
315.15
315.126
315.103
315.085
309.035
309.046
309.06
309.074
309.087
309.1
309.11
309.118
309.124
309.127
309.127
309.124
309.118
309.11
309.1
309.087
309.074
309.06
309.046
309.035
303.024
303.028
303.032
303.037
303.042
303.046
303.049
303.052
303.054
303.055
303.055
303.054
303.052
303.049
303.046
303.042
303.037
303.032
303.028
303.024
)
;

boundaryField
{
    hotSide
    {
        type            fixedGradient;
        gradient        nonuniform List<scalar> 
400
(
302.96
304.229
306.769
310.582
315.675
322.053
329.725
338.697
348.978
360.576
373.499
387.755
403.351
420.292
438.584
458.232
479.24
501.61
525.345
550.448
305.211
306.462
308.966
312.729
317.756
324.057
331.641
340.518
350.699
362.194
375.014
389.167
404.661
421.505
439.704
459.263
480.187
502.479
526.142
551.178
307.646
308.876
311.338
315.041
319.991
326.201
333.683
342.449
352.515
363.892
376.594
390.631
406.012
422.748
440.845
460.308
481.142
503.351
526.937
551.902
310.226
311.431
313.845
317.477
322.339
328.444
335.809
344.451
354.387
365.633
378.204
392.114
407.374
423.993
441.98
461.342
482.082
504.204
527.711
552.604
312.878
314.055
316.415
319.969
324.731
330.721
337.958
346.463
356.259
367.364
379.796
393.571
408.703
425.202
443.077
462.334
482.979
505.015
528.442
553.264
315.493
316.64
318.942
322.412
327.069
332.936
340.039
348.403
358.053
369.013
381.305
394.945
409.949
426.328
444.093
463.25
483.802
505.754
529.107
553.861
317.92
319.037
321.281
324.668
329.221
334.968
341.939
350.165
359.675
370.497
382.655
396.167
411.052
427.321
444.984
464.048
484.517
506.394
529.679
554.373
319.979
321.07
323.261
326.574
331.034
336.674
343.528
351.633
361.021
371.723
383.764
397.168
411.95
428.126
445.704
464.69
485.09
506.905
530.135
554.779
321.486
322.557
324.708
327.963
332.352
337.911
344.678
352.692
361.988
372.6
384.556
397.879
412.587
428.694
446.21
465.141
485.491
507.261
530.452
555.061
322.285
323.344
325.474
328.698
333.049
338.563
345.283
353.247
362.494
373.059
384.969
398.249
412.918
428.989
446.472
465.374
485.698
507.445
530.615
555.206
322.285
323.344
325.474
328.698
333.049
338.563
345.283
353.247
362.494
373.059
384.969
398.249
412.918
428.989
446.472
465.374
485.698
507.445
530.615
555.206
321.486
322.557
324.708
327.963
332.352
337.911
344.678
352.692
361.988
372.6
384.556
397.879
412.587
428.694
446.21
465.141
485.491
507.261
530.452
555.061
319.979
321.07
323.261
326.574
331.034
336.674
343.528
351.633
361.021
371.723
383.764
397.168
411.95
428.126
445.704
464.69
485.09
506.905
530.135
554.779
317.92
319.037
321.281
324.668
329.221
334.968
341.939
350.165
359.675
370.497
382.655
396.167
411.052
427.321
444.984
464.048
484.517
506.394
529.679
554.373
315.493
316.64
318.942
322.412
327.069
332.936
340.039
348.403
358.053
369.013
381.305
394.945
409.949
426.328
444.093
463.25
483.802
505.754
529.107
553.861
312.878
314.055
316.415
319.969
324.731
330.721
337.958
346.463
356.259
367.364
379.796
393.571
408.703
425.202
443.077
462.334
482.979
505.015
528.442
553.264
310.226
311.431
313.845
317.477
322.339
328.444
335.809
344.451
354.387
365.633
378.204
392.114
407.374
423.993
441.98
461.342
482.082
504.204
527.711
552.604
307.646
308.876
311.338
315.041
319.991
326.201
333.683
342.449
352.515
363.892
376.594
390.631
406.012
422.748
440.845
460.308
481.142
503.351
526.937
551.902
305.211
306.462
308.966
312.729
317.756
324.057
331.641
340.518
350.699
362.194
375.014
389.167
404.661
421.505
439.704
459.263
480.187
502.479
526.142
551.178
302.96
304.229
306.769
310.582
315.675
322.053
329.725
338.697
348.978
360.576
373.499
387.755
403.351
420.292
438.584
458.232
479.24
501.61
525.345
550.448
)
;
    }
    coldSide
    {
        type            mixed;
        refValue        uniform 300;
        refGradient     uniform 0;
        valueFraction   uniform 0.991591;
        source          uniform 0;
        value           nonuniform List<scalar> 
400
(
300.015
300.015
300.015
300.015
300.015
300.016
300.016
300.016
300.017
300.017
300.018
300.019
300.019
300.02
300.021
300.022
300.023
300.024
300.025
300.025
300.015
300.015
300.015
300.015
300.015
300.016
300.016
300.016
300.017