/*--------------------------------*- C++ -*----------------------------------*\
| =========                 |                                                 |
| \\      /  F ield         | OpenFOAM: The Open Source CFD Toolbox           |
|  \\    /   O peration     | Version:  2212                                  |
|   \\  /    A nd           | Website:  www.openfoam.com                      |
|    \\/     M anipulation  |                                                 |
\*---------------------------------------------------------------------------*/
FoamFile
{
    version     2.0;
    format      ascii;
    arch        "LSB;label=32;scalar=64";
    class       volScalarField;
    location    "0";
    object      Ttrue;
}
// * * * * * * * * * * * * * * * * * * * * * * * * * * * * * * * * * * * * * //

dimensions      [0 0 0 1 0 0 0];

internalField   nonuniform List<scalar> 
3200
(
341.94
342.178
342.482
342.813
343.154
343.489
343.797
344.058
344.248
344.348
344.348
344.248
344.058
343.797
343.489
343.154
342.813
342.482
342.178
341.94
336.457
336.658
336.92
337.207
337.502
337.791
338.058
338.283
338.447
338.534
338.534
338.447
338.283
338.058
337.791
337.502
337.207
336.92
336.658
336.457
330.927
331.094
331.315
331.557
331.806
332.051
332.276
332.467
332.605
332.678
332.678
332.605
332.467
332.276
332.051
331.806
331.557
331.315
331.094
330.927
325.36
325.494
325.674
325.872
326.076
326.275
326.46
326.615
326.728
326.787
326.787
326.728
326.615
326.46
326.275
326.076
325.872
325.674
325.494
325.36
319.761
319.864
320.004
320.158
320.316
320.471
320.614
320.735
320.823
320.869
320.869
320.823
320.735
320.614
320.471
320.316
320.158
320.004
319.864
319.761
314.139
314.212
314.311
314.421
314.534
314.645
314.747
314.833
314.896
314.929
314.929
314.896
314.833
314.747
314.645
314.534
314.421
314.311
314.212
314.139
308.5
308.543
308.603
308.669
308.737
308.803
308.865
308.916
308.954
308.974
308.974
308.954
308.916
308.865
308.803
308.737
308.669
308.603
308.543
308.5
302.85
302.865
302.885
302.907
302.93
302.952
302.973
302.99
303.002
303.009
303.009
303.002
302.99
302.973
302.952
302.93
302.907
302.885
302.865
302.85
342.116
342.352
342.653
342.981
343.318
343.649
343.954
344.212
344.399
344.498
344.498
344.399
344.212
343.954
343.649
343.318
342.981
342.653
342.352
342.116
336.609
336.809
337.068
337.352
337.644
337.93
338.194
338.417
338.579
338.664
338.664
338.579
338.417
338.194
337.93
337.644
337.352
337.068
336.809
336.609
331.056
331.222
331.441
331.681
331.927
332.169
332.392
332.58
332.716
332.789
332.789
332.716
332.58
332.392
332.169
331.927
331.681
331.441
331.222
331.056
325.465
325.599
325.777
325.973
326.175
326.372
326.554
326.708
326.819
326.878
326.878
326.819
326.708
326.554
326.372
326.175
325.973
325.777
325.599
325.465
319.844
319.946
320.084
320.237
320.393
320.547
320.688
320.807
320.894
320.94
320.94
320.894
320.807
320.688
320.547
320.393
320.237
320.084
319.946
319.844
314.198
314.27
314.369
314.478
314.59
314.699
314.8
314.885
314.947
314.979
314.979
314.947
314.885
314.8
314.699
314.59
314.478
314.369
314.27
314.198
308.535
308.578
308.637
308.703
308.77
308.836
308.896
308.947
308.984
309.004
309.004
308.984
308.947
308.896
308.836
308.77
308.703
308.637
308.578
308.535
302.862
302.877
302.896
302.918
302.941
302.963
302.983
303
303.013
303.019
303.019
303.013
303
302.983
302.963
302.941
302.918
302.896
302.877
302.862
342.466
342.698
342.994
343.316
343.647
343.971
344.269
344.52
344.703
344.799
344.799
344.703
344.52
344.269
343.971
343.647
343.316
342.994
342.698
342.466
336.914
337.11
337.365
337.644
337.93
338.21
338.468
338.685
338.843
338.926
338.926
338.843
338.685
338.468
338.21
337.93
337.644
337.365
337.11
336.914
331.315
331.478
331.693
331.928
332.17
332.407
332.624
332.808
332.941
333.011
333.011
332.941
332.808
332.624
332.407
332.17
331.928
331.693
331.478
331.315
325.677
325.808
325.984
326.176
326.374
326.567
326.745
326.895
327.003
327.061
327.061
327.003
326.895
326.745
326.567
326.374
326.176
325.984
325.808
325.677
320.008
320.109
320.245
320.395
320.548
320.699
320.837
320.953
321.037
321.082
321.082
321.037
320.953
320.837
320.699
320.548
320.395
320.245
320.109
320.008
314.316
314.387
314.484
314.591
314.7
314.808
314.906
314.989
315.05
315.081
315.081
315.05
314.989
314.906
314.808
314.7
314.591
314.484
314.387
314.316
308.606
308.648
308.707
308.771
308.837
308.901
308.96
309.01
309.046
309.065
309.065
309.046
309.01
308.96
308.901
308.837
308.771
308.707
308.648
308.606
302.886
302.9
302.92
302.941
302.963
302.985
303.005
303.021
303.033
303.04
303.04
303.033
303.021
303.005
302.985
302.963
302.941
302.92
302.9
302.886
342.993
343.22
343.508
343.821
344.142
344.455
344.743
344.986
345.161
345.254
345.254
345.161
344.986
344.743
344.455
344.142
343.821
343.508
343.22
342.993
337.371
337.563
337.812
338.083
338.36
338.632
338.881
339.09
339.242
339.322
339.322
339.242
339.09
338.881
338.632
338.36
338.083
337.812
337.563
337.371
331.702
331.862
332.071
332.3
332.535
332.764
332.974
333.151
333.279
333.347
333.347
333.279
333.151
332.974
332.764
332.535
332.3
332.071
331.862
331.702
325.995
326.123
326.294
326.481
326.673
326.86
327.032
327.176
327.281
327.336
327.336
327.281
327.176
327.032
326.86
326.673
326.481
326.294
326.123
325.995
320.256
320.354
320.487
320.632
320.781
320.927
321.061
321.173
321.254
321.297
321.297
321.254
321.173
321.061
320.927
320.781
320.632
320.487
320.354
320.256
314.493
314.562
314.657
314.761
314.867
314.971
315.067
315.147
315.205
315.235
315.235
315.205
315.147
315.067
314.971
314.867
314.761
314.657
314.562
314.493
308.712
308.754
308.811
308.873
308.937
308.999
309.056
309.105
309.139
309.158
309.158
309.139
309.105
309.056
308.999
308.937
308.873
308.811
308.754
308.712
302.922
302.936
302.954
302.975
302.997
303.018
303.037
303.053
303.065
303.071
303.071
303.065
303.053
303.037
303.018
302.997
302.975
302.954
302.936
302.922
343.696
343.916
344.195
344.497
344.805
345.105
345.381
345.612
345.779
345.867
345.867
345.779
345.612
345.381
345.105
344.805
344.497
344.195
343.916
343.696
337.982
338.168
338.408
338.67
338.937
339.197
339.435
339.634
339.779
339.855
339.855
339.779
339.634
339.435
339.197
338.937
338.67
338.408
338.168
337.982
332.22
332.374
332.577
332.798
333.024
333.243
333.445
333.613
333.735
333.799
333.799
333.735
333.613
333.445
333.243
333.024
332.798
332.577
332.374
332.22
326.419
326.543
326.709
326.889
327.074
327.253
327.418
327.555
327.655
327.707
327.707
327.655
327.555
327.418
327.253
327.074
326.889
326.709
326.543
326.419
320.586
320.682
320.81
320.95
321.094
321.233
321.361
321.468
321.545
321.586
321.586
321.545
321.468
321.361
321.233
321.094
320.95
320.81
320.682
320.586
314.729
314.797
314.888
314.988
315.091
315.19
315.282
315.358
315.413
315.442
315.442
315.413
315.358
315.282
315.19
315.091
314.988
314.888
314.797
314.729
308.854
308.895
308.95
309.01
309.071
309.131
309.186
309.232
309.265
309.282
309.282
309.265
309.232
309.186
309.131
309.071
309.01
308.95
308.895
308.854
302.969
302.983
303.001
303.021
303.042
303.062
303.08
303.096
303.107
303.113
303.113
303.107
303.096
303.08
303.062
303.042
303.021
303.001
302.983
302.969
344.576
344.788
345.056
345.344
345.638
345.924
346.184
346.402
346.559
346.642
346.642
346.559
346.402
346.184
345.924
345.638
345.344
345.056
344.788
344.576
338.746
338.926
339.157
339.406
339.661
339.908
340.133
340.321
340.458
340.529
340.529
340.458
340.321
340.133
339.908
339.661
339.406
339.157
338.926
338.746
332.869
333.017
333.212
333.423
333.638
333.847
334.037
334.196
334.311
334.372
334.372
334.311
334.196
334.037
333.847
333.638
333.423
333.212
333.017
332.869
326.951
327.07
327.229
327.402
327.578
327.748
327.904
328.034
328.128
328.177
328.177
328.128
328.034
327.904
327.748
327.578
327.402
327.229
327.07
326.951
321
321.092
321.215
321.35
321.486
321.619
321.74
321.841
321.914
321.952
321.952
321.914
321.841
321.74
321.619
321.486
321.35
321.215
321.092
321
315.025
315.09
315.178
315.274
315.371
315.466
315.553
315.625
315.677
315.704
315.704
315.677
315.625
315.553
315.466
315.371
315.274
315.178
315.09
315.025
309.032
309.071
309.124
309.181
309.24
309.297
309.349
309.392
309.423
309.44
309.44
309.423
309.392
309.349
309.297
309.24
309.181
309.124
309.071
309.032
303.029
303.042
303.06
303.079
303.098
303.118
303.135
303.149
303.16
303.165
303.165
303.16
303.149
303.135
303.118
303.098
303.079
303.06
303.042
303.029
345.635
345.838
346.093
346.367
346.645
346.913
347.157
347.361
347.508
347.585
347.585
347.508
347.361
347.157
346.913
346.645
346.367
346.093
345.838
345.635
339.666
339.838
340.058
340.295
340.536
340.768
340.979
341.155
341.282
341.349
341.349
341.282
341.155
340.979
340.768
340.536
340.295
340.058
339.838
339.666
333.649
333.791
333.976
334.177
334.38
334.576
334.755
334.904
335.011
335.067
335.067
335.011
334.904
334.755
334.576
334.38
334.177
333.976
333.791
333.649
327.59
327.704
327.855
328.019
328.186
328.346
328.492
328.614
328.701
328.747
328.747
328.701
328.614
328.492
328.346
328.186
328.019
327.855
327.704
327.59
321.498
321.586
321.703
321.831
321.96
322.085
322.199
322.293
322.361
322.397
322.397
322.361
322.293
322.199
322.085
321.96
321.831
321.703
321.586
321.498
315.381
315.444
315.527
315.618
315.711
315.8
315.881
315.948
315.997
316.022
316.022
315.997
315.948
315.881
315.8
315.711
315.618
315.527
315.444
315.381
309.246
309.284
309.334
309.388
309.444
309.497
309.546
309.586
309.616
309.631
309.631
309.616
309.586
309.546
309.497
309.444
309.388
309.334
309.284
309.246
303.101
303.113
303.13
303.148
303.167
303.185
303.201
303.215
303.224
303.23
303.23
303.224
303.215
303.201
303.185
303.167
303.148
303.13
303.113
303.101
346.874
347.066
347.308
347.566
347.827
348.077
348.304
348.493
348.628
348.699
348.699
348.628
348.493
348.304
348.077
347.827
347.566
347.308
347.066
346.874
340.742
340.905
341.113
341.337
341.563
341.78
341.976
342.139
342.257
342.318
342.318
342.257
342.139
341.976
341.78
341.563
341.337
341.113
340.905
340.742
334.561
334.696
334.871
335.06
335.251
335.435
335.601
335.739
335.838
335.89
335.89
335.838
335.739
335.601
335.435
335.251
335.06
334.871
334.696
334.561
328.338
328.446
328.589
328.744
328.9
329.05
329.186
329.298
329.379
329.422
329.422
329.379
329.298
329.186
329.05
328.9
328.744
328.589
328.446
328.338
322.081
322.164
322.275
322.395
322.517
322.633
322.739
322.826
322.889
322.922
322.922
322.889
322.826
322.739
322.633
322.517
322.395
322.275
322.164
322.081
315.798
315.857
315.936
316.022
316.109
316.192
316.267
316.33
316.375
316.398
316.398
316.375
316.33
316.267
316.192
316.109
316.022
315.936
315.857
315.798
309.497
309.532
309.58
309.631
309.683
309.733
309.778
309.816
309.843
309.857
309.857
309.843
309.816
309.778
309.733
309.683
309.631
309.58
309.532
309.497
303.185
303.196
303.212
303.23
303.247
303.264
303.279
303.292
303.301
303.305
303.305
303.301
303.292
303.279
303.264
303.247
303.23
303.212
303.196
303.185
348.293
348.475
348.702
348.944
349.187
349.419
349.629
349.802
349.926
349.991
349.991
349.926
349.802
349.629
349.419
349.187
348.944
348.702
348.475
348.293
341.975
342.129
342.325
342.534
342.745
342.946
343.127
343.277
343.385
343.441
343.441
343.385
343.277
343.127
342.946
342.745
342.534
342.325
342.129
341.975
335.606
335.733
335.899
336.076
336.254
336.424
336.577
336.704
336.795
336.842
336.842
336.795
336.704
336.577
336.424
336.254
336.076
335.899
335.733
335.606
329.194
329.297
329.432
329.576
329.722
329.861
329.986
330.09
330.164
330.203
330.203
330.164
330.09
329.986
329.861
329.722
329.576
329.432
329.297
329.194
322.748
322.827
322.931
323.044
323.157
323.265
323.363
323.443
323.501
323.531
323.531
323.501
323.443
323.363
323.265
323.157
323.044
322.931
322.827
322.748
316.275
316.331
316.405
316.486
316.567
316.644
316.714
316.771
316.812
316.834
316.834
316.812
316.771
316.714
316.644
316.567
316.486
316.405
316.331
316.275
309.784
309.817
309.862
309.91
309.958
310.005
310.047
310.081
310.106
310.119
310.119
310.106
310.081
310.047
310.005
309.958
309.91
309.862
309.817
309.784
303.281
303.292
303.307
303.323
303.339
303.355
303.369
303.381
303.389
303.393
303.393
303.389
303.381
303.369
303.355
303.339
303.323
303.307
303.292
303.281
349.894
350.065
350.277
350.503
350.727
350.942
351.134
351.292
351.405
351.464
351.464
351.405
351.292
351.134
350.942
350.727
350.503
350.277
350.065
349.894
343.366
343.51
343.694
343.889
344.083
344.269
344.435
344.572
344.67
344.721
344.721
344.67
344.572
344.435
344.269
344.083
343.889
343.694
343.51
343.366
336.785
336.905
337.059
337.224
337.389
337.546
337.687
337.803
337.885
337.929
337.929
337.885
337.803
337.687
337.546
337.389
337.224
337.059
336.905
336.785
330.161
330.257
330.383
330.518
330.653
330.781
330.896
330.991
331.058
331.094
331.094
331.058
330.991
330.896
330.781
330.653
330.518
330.383
330.257
330.161
323.501
323.575
323.673
323.777
323.882
323.982
324.072
324.145
324.198
324.225
324.225
324.198
324.145
324.072
323.982
323.882
323.777
323.673
323.575
323.501
316.814
316.866
316.936
317.011
317.086
317.157
317.221
317.273
317.311
317.331
317.331
317.311
317.273
317.221
317.157
317.086
317.011
316.936
316.866
316.814
310.107
310.139
310.18
310.225
310.27
310.313
310.352
310.383
310.406
310.417
310.417
310.406
310.383
310.352
310.313
310.27
310.225
310.18
310.139
310.107
303.389
303.4
303.414
303.429
303.444
303.458
303.471
303.482
303.489
303.493
303.493
303.489
303.482
303.471
303.458
303.444
303.429
303.414
303.4
303.389
351.678
351.837
352.035
352.244
352.451
352.647
352.823
352.966
353.069
353.122
353.122
353.069
352.966
352.823
352.647
352.451
352.244
352.035
351.837
351.678
344.915
345.05
345.221
345.402
345.581
345.751
345.903
346.028
346.116
346.162
346.162
346.116
346.028
345.903
345.751
345.581
345.402
345.221
345.05
344.915
338.099
338.211
338.355
338.507
338.659
338.803
338.932
339.037
339.112
339.151
339.151
339.112
339.037
338.932
338.803
338.659
338.507
338.355
338.211
338.099
331.237
331.327
331.445
331.57
331.694
331.812
331.917
332.003
332.064
332.096
332.096
332.064
332.003
331.917
331.812
331.694
331.57
331.445
331.327
331.237
324.339
324.409
324.5
324.597
324.693
324.785
324.867
324.934
324.981
325.006
325.006
324.981
324.934
324.867
324.785
324.693
324.597
324.5
324.409
324.339
317.414
317.463
317.527
317.597
317.666
317.731
317.79
317.837
317.871
317.889
317.889
317.871
317.837
317.79
317.731
317.666
317.597
317.527
317.463
317.414
310.468
310.497
310.536
310.578
310.619
310.658
310.693
310.722
310.743
310.753
310.753
310.743
310.722
310.693
310.658
310.619
310.578
310.536
310.497
310.468
303.51
303.52
303.533
303.547
303.561
303.574
303.586
303.595
303.602
303.606
303.606
303.602
303.595
303.586
303.574
303.561
303.547
303.533
303.52
303.51
353.645
353.794
353.977
354.169
354.359
354.538
354.697
354.827
354.92
354.967
354.967
354.92
354.827
354.697
354.538
354.359
354.169
353.977
353.794
353.645
346.624
346.75
346.908
347.075
347.239
347.394
347.532
347.645
347.725
347.766
347.766
347.725
347.645
347.532
347.394
347.239
347.075
346.908
346.75
346.624
339.547
339.652
339.785
339.926
340.065
340.197
340.313
340.408
340.476
340.511
340.511
340.476
340.408
340.313
340.197
340.065
339.926
339.785
339.652
339.547
332.425
332.508
332.617
332.732
332.846
332.954
333.049
333.127
333.182
333.211
333.211
333.182
333.127
333.049
332.954
332.846
332.732
332.617
332.508
332.425
325.264
325.329
325.413
325.503
325.591
325.675
325.749
325.81
325.853
325.875
325.875
325.853
325.81
325.749
325.675
325.591
325.503
325.413
325.329
325.264
318.075
318.121
318.181
318.245
318.308
318.368
318.421
318.464
318.495
318.511
318.511
318.495
318.464
318.421
318.368
318.308
318.245
318.181
318.121
318.075
310.865
310.893
310.929
310.967
311.005
311.041
311.073
311.099
311.117
311.127
311.127
311.117
311.099
311.073
311.041
311.005
310.967
310.929
310.893
310.865
303.644
303.653
303.665
303.678
303.69
303.702
303.713
303.722
303.728
303.731
303.731
303.728
303.722
303.713
303.702
303.69
303.678
303.665
303.653
303.644
355.796
355.933
356.103
356.279
356.453
356.616
356.76
356.877
356.959
357.002
357.002
356.959
356.877
356.76
356.616
356.453
356.279
356.103
355.933
355.796
348.492
348.609
348.755
348.908
349.058
349.199
349.324
349.425
349.497
349.534
349.534
349.497
349.425
349.324
349.199
349.058
348.908
348.755
348.609
348.492
341.131
341.228
341.351
341.48
341.608
341.727
341.833
341.918
341.979
342.011
342.011
341.979
341.918
341.833
341.727
341.608
341.48
341.351
341.228
341.131
333.722
333.8
333.901
334.007
334.111
334.208
334.295
334.365
334.415
334.44
334.44
334.415
334.365
334.295
334.208
334.111
334.007
333.901
333.8
333.722
326.275
326.335
326.413
326.495
326.576
326.652
326.719
326.774
326.813
326.833
326.833
326.813
326.774
326.719
326.652
326.576
326.495
326.413
326.335
326.275
318.798
318.84
318.896
318.955
319.013
319.067
319.115
319.154
319.182
319.196
319.196
319.182
319.154
319.115
319.067
319.013
318.955
318.896
318.84
318.798
311.3
311.325
311.359
311.394
311.429
311.461
311.49
311.514
311.53
311.539
311.539
311.53
311.514
311.49
311.461
311.429
311.394
311.359
311.325
311.3
303.789
303.798
303.809
303.821
303.832
303.843
303.853
303.861
303.866
303.869
303.869
303.866
303.861
303.853
303.843
303.832
303.821
303.809
303.798
303.789
358.129
358.256
358.412
358.574
358.732
358.879
359.009
359.114
359.188
359.226
359.226
359.188
359.114
359.009
358.879
358.732
358.574
358.412
358.256
358.129
350.518
350.626
350.761
350.901
351.038
351.165
351.278
351.369
351.433
351.466
351.466
351.433
351.369
351.278
351.165
351.038
350.901
350.761
350.626
350.518
342.849
342.938
343.052
343.17
343.286
343.394
343.489
343.566
343.621
343.649
343.649
343.621
343.566
343.489
343.394
343.286
343.17
343.052
342.938
342.849
335.13
335.202
335.294
335.391
335.486
335.575
335.653
335.716
335.76
335.783
335.783
335.76
335.716
335.653
335.575
335.486
335.391
335.294
335.202
335.13
327.371
327.427
327.498
327.574
327.647
327.716
327.777
327.826
327.861
327.879
327.879
327.861
327.826
327.777
327.716
327.647
327.574
327.498
327.427
327.371
319.582
319.621
319.672
319.726
319.779
319.828
319.871
319.907
319.931
319.944
319.944
319.931
319.907
319.871
319.828
319.779
319.726
319.672
319.621
319.582
311.771
311.794
311.825
311.858
311.889
311.919
311.945
311.966
311.981
311.988
311.988
311.981
311.966
311.945
311.919
311.889
311.858
311.825
311.794
311.771
303.947
303.955
303.965
303.976
303.987
303.997
304.005
304.013
304.017
304.02
304.02
304.017
304.013
304.005
303.997
303.987
303.976
303.965
303.955
303.947
360.64
360.757
360.9
361.048
361.192
361.325
361.441
361.536
361.602
361.636
361.636
361.602
361.536
361.441
361.325
361.192
361.048
360.9
360.757
360.64
352.698
352.798
352.921
353.049
353.174
353.289
353.39
353.472
353.529
353.559
353.559
353.529
353.472
353.39
353.289
353.174
353.049
352.921
352.798
352.698
344.696
344.779
344.883
344.991
345.096
345.194
345.28
345.349
345.397
345.423
345.423
345.397
345.349
345.28
345.194
345.096
344.991
344.883
344.779
344.696
336.643
336.71
336.795
336.883
336.969
337.049
337.12
337.176
337.216
337.236
337.236
337.216
337.176
337.12
337.049
336.969
336.883
336.795
336.71
336.643
328.55
328.601
328.667
328.735
328.803
328.865
328.919
328.963
328.994
329.01
329.01
328.994
328.963
328.919
328.865
328.803
328.735
328.667
328.601
328.55
320.425
320.461
320.508
320.557
320.605
320.65
320.688
320.72
320.742
320.753
320.753
320.742
320.72
320.688
320.65
320.605
320.557
320.508
320.461
320.425
312.278
312.299
312.327
312.357
312.386
312.412
312.436
312.455
312.468
312.475
312.475
312.468
312.455
312.436
312.412
312.386
312.357
312.327
312.299
312.278
304.117
304.124
304.134
304.144
304.153
304.162
304.17
304.176
304.181
304.183
304.183
304.181
304.176
304.17
304.162
304.153
304.144
304.134
304.124
304.117
363.317
363.425
363.557
363.691
363.821
363.942
364.046
364.131
364.19
364.22
364.22
364.19
364.131
364.046
363.942
363.821
363.691
363.557
363.425
363.317
355.021
355.113
355.226
355.343
355.456
355.56
355.651
355.724
355.775
355.801
355.801
355.775
355.724
355.651
355.56
355.456
355.343
355.226
355.113
355.021
346.663
346.739
346.835
346.933
347.029
347.117
347.194
347.256
347.299
347.322
347.322
347.299
347.256
347.194
347.117
347.029
346.933
346.835
346.739
346.663
338.254
338.315
338.393
338.474
338.552
338.624
338.687
338.738
338.773
338.791
338.791
338.773
338.738
338.687
338.624
338.552
338.474
338.393
338.315
338.254
329.803
329.85
329.91
329.973
330.034
330.09
330.139
330.179
330.206
330.221
330.221
330.206
330.179
330.139
330.09
330.034
329.973
329.91
329.85
329.803
321.321
321.354
321.397
321.442
321.485
321.526
321.561
321.589
321.609
321.619
321.619
321.609
321.589
321.561
321.526
321.485
321.442
321.397
321.354
321.321
312.816
312.836
312.861
312.888
312.915
312.939
312.96
312.977
312.989
312.995
312.995
312.989
312.977
312.96
312.939
312.915
312.888
312.861
312.836
312.816
304.298
304.304
304.313
304.322
304.331
304.339
304.346
304.351
304.355
304.357
304.357
304.355
304.351
304.346
304.339
304.331
304.322
304.313
304.304
304.298
366.131
366.231
366.351
366.474
366.592
366.7
366.794
366.87
366.922
366.949
366.949
366.922
366.87
366.794
366.7
366.592
366.474
366.351
366.231
366.131
357.458
357.542
357.646
357.752
357.854
357.949
358.03
358.096
358.141
358.165
358.165
358.141
358.096
358.03
357.949
357.854
357.752
357.646
357.542
357.458
348.723
348.793
348.881
348.97
349.057
349.137
349.206
349.261
349.3
349.32
349.32
349.3
349.261
349.206
349.137
349.057
348.97
348.881
348.793
348.723
339.938
339.994
340.066
340.139
340.21
340.275
340.332
340.377
340.409
340.425
340.425
340.409
340.377
340.332
340.275
340.21
340.139
340.066
339.994
339.938
331.112
331.155
331.211
331.268
331.323
331.374
331.418
331.453
331.478
331.491
331.491
331.478
331.453
331.418
331.374
331.323
331.268
331.211
331.155
331.112
322.256
322.286
322.326
322.367
322.406
322.442
322.474
322.499
322.517
322.526
322.526
322.517
322.499
322.474
322.442
322.406
322.367
322.326
322.286
322.256
313.377
313.395
313.419
313.444
313.467
313.489
313.508
313.523
313.534
313.539
313.539
313.534
313.523
313.508
313.489
313.467
313.444
313.419
313.395
313.377
304.486
304.492
304.5
304.508
304.516
304.523
304.53
304.535
304.538
304.54
304.54
304.538
304.535
304.53
304.523
304.516
304.508
304.5
304.492
304.486
369.008
369.099
369.209
369.321
369.428
369.526
369.611
369.679
369.726
369.75
369.75
369.726
369.679
369.611
369.526
369.428
369.321
369.209
369.099
369.008
359.937
360.015
360.11
360.207
360.3
360.385
360.458
360.517
360.558
360.579
360.579
360.558
360.517
360.458
360.385
360.3
360.207
360.11
360.015
359.937
350.811
350.875
350.955
351.037
351.116
351.188
351.25
351.3
351.335
351.353
351.353
351.335
351.3
351.25
351.188
351.116
351.037
350.955
350.875
350.811
341.638
341.69
341.755
341.823
341.887
341.946
341.997
342.038
342.067
342.081
342.081
342.067
342.038
341.997
341.946
341.887
341.823
341.755
341.69
341.638
332.43
332.47
332.521
332.573
332.623
332.669
332.709
332.741
332.763
332.774
332.774
332.763
332.741
332.709
332.669
332.623
332.573
332.521
332.47
332.43
323.195
323.223
323.259
323.296
323.332
323.365
323.394
323.416
323.432
323.44
323.44
323.432
323.416
323.394
323.365
323.332
323.296
323.259
323.223
323.195
313.94
313.957
313.979
314.001
314.023
314.042
314.059
314.073
314.083
314.088
314.088
314.083
314.073
314.059
314.042
314.023
314.001
313.979
313.957
313.94
304.674
304.68
304.687
304.695
304.702
304.708
304.714
304.719
304.722
304.724
304.724
304.722
304.719
304.714
304.708
304.702
304.695
304.687
304.68
304.674
371.76
371.844
371.946
372.049
372.147
372.236
372.313
372.374
372.417
372.439
372.439
372.417
372.374
372.313
372.236
372.147
372.049
371.946
371.844
371.76
362.281
362.352
362.44
362.529
362.614
362.692
362.759
362.812
362.849
362.868
362.868
362.849
362.812
362.759
362.692
362.614
362.529
362.44
362.352
362.281
352.762
352.822
352.896
352.972
353.044
353.11
353.167
353.212
353.243
353.259
353.259
353.243
353.212
353.167
353.11
353.044
352.972
352.896
352.822
352.762
343.214
343.262
343.322
343.384
343.444
343.498
343.544
343.581
343.607
343.62
343.62
343.607
343.581
343.544
343.498
343.444
343.384
343.322
343.262
343.214
333.642
333.679
333.726
333.774
333.82
333.863
333.899
333.928
333.948
333.958
333.958
333.948
333.928
333.899
333.863
333.82
333.774
333.726
333.679
333.642
324.053
324.079
324.113
324.148
324.181
324.211
324.237
324.257
324.272
324.279
324.279
324.272
324.257
324.237
324.211
324.181
324.148
324.113
324.079
324.053
314.453
314.468
314.489
314.509
314.529
314.547
314.563
314.575
314.584
314.589
314.589
314.584
314.575
314.563
314.547
314.529
314.509
314.489
314.468
314.453
304.846
304.851
304.858
304.864
304.871
304.877
304.882
304.887
304.89
304.891
304.891
304.89
304.887
304.882
304.877
304.871
304.864
304.858
304.851
304.846
373.903
373.983
374.078
374.175
374.267
374.35
374.421
374.478
374.518
374.538
374.538
374.518
374.478
374.421
374.35
374.267
374.175
374.078
373.983
373.903
364.037
364.105
364.188
364.272
364.352
364.424
364.487
364.536
364.571
364.588
364.588
364.571
364.536
364.487
364.424
364.352
364.272
364.188
364.105
364.037
354.181
354.237
354.307
354.379
354.447
354.509
354.562
354.604
354.633
354.648
354.648
354.633
354.604
354.562
354.509
354.447
354.379
354.307
354.237
354.181
344.331
344.377
344.434
344.493
344.549
344.599
344.643
344.678
344.702
344.714
344.714
344.702
344.678
344.643
344.599
344.549
344.493
344.434
344.377
344.331
334.486
334.521
334.565
334.611
334.655
334.694
334.729
334.756
334.774
334.784
334.784
334.774
334.756
334.729
334.694
334.655
334.611
334.565
334.521
334.486
324.643
324.668
324.7
324.733
324.764
324.792
324.817
324.836
324.85
324.856
324.856
324.85
324.836
324.817
324.792
324.764
324.733
324.7
324.668
324.643
314.802
314.817
314.836
314.856
314.874
314.892
314.906
314.918
314.926
314.93
314.93
314.926
314.918
314.906
314.892
314.874
314.856
314.836
314.817
314.802
304.962
304.967
304.973
304.98
304.986
304.992
304.997
305.001
305.003
305.005
305.005
305.003
305.001
304.997
304.992
304.986
304.98
304.973
304.967
304.962
)
;

boundaryField
{
    hotSide
    {
        type            fixedGradient;
        gradient        nonuniform List<scalar> 
400
(
434.395
436.222
439.878
445.37
452.703
461.887
472.931
485.847
500.646
517.339
535.938
556.453
578.893
603.268
629.584
657.848
688.066
720.241
754.378
790.478
437.525
439.327
442.935
448.356
455.598
464.674
475.597
488.381
503.04
519.59
538.045
558.416
580.716
604.955
631.141
659.282
689.384
721.45
755.486
791.493
440.912
442.685
446.235
451.571
458.706
467.656
478.436
491.067
505.566
521.952
540.243
560.452
582.596
606.684
632.728
660.735
690.712
722.663
756.592
792.501
444.5
446.239
449.722
454.961
461.972
470.775
481.394
493.851
508.17
524.374
542.483
562.516
584.489
608.416
634.308
662.173
692.019
723.849
757.668
793.477
448.19
449.89
453.297
458.426
465.3
473.942
484.383
496.65
510.773
526.781
544.696
564.543
586.338
610.097
635.833
663.554
693.267
724.977
758.685
794.394
451.827
453.485
456.811
461.825
468.552
477.024
487.278
499.348
513.269
529.075
546.795
566.453
588.071
611.664
637.247
664.827
694.412
726.006
759.61
795.225
455.202
456.819
460.065
464.962
471.545
479.85
489.921
501.799
515.526
531.14
548.673
568.154
589.605
613.045
638.486
665.938
695.406
726.895
760.406
795.937
458.067
459.646
462.819
467.613
474.066
482.223
492.131
503.841
517.398
532.844
550.216
569.545
590.855
614.164
639.487
666.831
696.203
727.606
761.039
796.502
460.164
461.714
464.832
469.547
475.901
483.944
493.731
505.313
518.743
534.065
551.318
570.535
591.741
614.955
640.191
667.458
696.761
728.102
761.48
796.895
461.275
462.81
465.897
470.569
476.869
484.852
494.572
506.086
519.447
534.702
551.892
571.05
592.201
615.365
640.556
667.782
697.048
728.357
761.707
797.096
461.275
462.81
465.897
470.569
476.869
484.852
494.572
506.086
519.447
534.702
551.892
571.05
592.201
615.365
640.556
667.782
697.048
728.357
761.707
797.096
460.164
461.714
464.832
469.547
475.901
483.944
493.731
505.313
518.743
534.065
551.318
570.535
591.741
614.955
640.191
667.458
696.761
728.102
761.48
796.895
458.067
459.646
462.819
467.613
474.066
482.223
492.131
503.841
517.398
532.844
550.216
569.545
590.855
614.164
639.487
666.831
696.203
727.606
761.039
796.502
455.202
456.819
460.065
464.962
471.545
479.85
489.921
501.799
515.526
531.14
548.673
568.154
589.605
613.045
638.486
665.938
695.406
726.895
760.406
795.937
451.827
453.485
456.811
461.825
468.552
477.024
487.278
499.348
513.269
529.075
546.795
566.453
588.071
611.664
637.247
664.827
694.412
726.006
759.61
795.225
448.19
449.89
453.297
458.426
465.3
473.942
484.383
496.65
510.773
526.781
544.696
564.543
586.338
610.097
635.833
663.554
693.267
724.977
758.685
794.394
444.5
446.239
449.722
454.961
461.972
470.775
481.394
493.851
508.17
524.374
542.483
562.516
584.489
608.416
634.308
662.173
692.019
723.849
757.668
793.477
440.912
442.685
446.235
451.571
458.706
467.656
478.436
491.067
505.566
521.952
540.243
560.452
582.596
606.684
632.728
660.735
690.712
722.663
756.592
792.501
437.525
439.327
442.935
448.356
455.598
464.674
475.597
488.381
503.04
519.59
538.045
558.416
580.716
604.955
631.141
659.282
689.384
721.45
755.486
791.493
434.395
436.222
439.878
445.37
452.703
461.887
472.931
485.847
500.646
517.339
535.938
556.453
578.893
603.268
629.584
657.848
688.066
720.241
754.378
790.478
)
;
    }
    coldSide
    {
        type            mixed;
        refValue        uniform 300;
        refGradient     uniform 0;
        valueFraction   uniform 0.991591;
        source          uniform 0;
        value           nonuniform List<scalar> 
400
(
300.024
300.024
300.024
300.025
300.025
300.025
300.026
300.027
300.028
300.029
300.03
300.031
300.032
300.033
300.035
300.036
300.038
300.039
300.041
300.042
300.024
300.024
300.024
300.025
300.025
300.026
300.026
300.027
300.028
300.029
300.03
300.031
300.032
300.033