/*--------------------------------*- C++ -*----------------------------------*\
| =========                 |                                                 |
| \\      /  F ield         | OpenFOAM: The Open Source CFD Toolbox           |
|  \\    /   O peration     | Version:  2212                                  |
|   \\  /    A nd           | Website:  www.openfoam.com                      |
|    \\/     M anipulation  |                                                 |
\*---------------------------------------------------------------------------*/
FoamFile
{
    version     2.0;
    format      ascii;
    arch        "LSB;label=32;scalar=64";
    class       volScalarField;
    location    "0";
    object      Tdirect;
}
// * * * * * * * * * * * * * * * * * * * * * * * * * * * * * * * * * * * * * //

dimensions      [0 0 0 1 0 0 0];

internalField   nonuniform List<scalar> 
3200
(
329.993
330.211
330.488
330.791
331.102
331.408
331.69
331.929
332.102
332.194
332.194
332.102
331.929
331.69
331.408
331.102
330.791
330.488
330.211
329.993
326.176
326.36
326.599
326.861
327.13
327.395
327.639
327.845
327.995
328.074
328.074
327.995
327.845
327.639
327.395
327.13
326.861
326.599
326.36
326.176
322.281
322.434
322.636
322.857
323.085
323.308
323.514
323.688
323.814
323.881
323.881
323.814
323.688
323.514
323.308
323.085
322.857
322.636
322.434
322.281
318.322
318.445
318.609
318.79
318.976
319.159
319.327
319.469
319.572
319.627
319.627
319.572
319.469
319.327
319.159
318.976
318.79
318.609
318.445
318.322
314.309
314.404
314.531
314.672
314.816
314.958
315.089
315.199
315.279
315.322
315.322
315.279
315.199
315.089
314.958
314.816
314.672
314.531
314.404
314.309
310.255
310.322
310.413
310.513
310.617
310.718
310.811
310.89
310.947
310.977
310.977
310.947
310.89
310.811
310.718
310.617
310.513
310.413
310.322
310.255
306.172
306.212
306.266
306.327
306.389
306.45
306.506
306.553
306.587
306.605
306.605
306.587
306.553
306.506
306.45
306.389
306.327
306.266
306.212
306.172
302.071
302.084
302.103
302.123
302.143
302.164
302.183
302.198
302.21
302.216
302.216
302.21
302.198
302.183
302.164
302.143
302.123
302.103
302.084
302.071
330.113
330.329
330.604
330.904
331.212
331.515
331.794
332.029
332.2
332.291
332.291
332.2
332.029
331.794
331.515
331.212
330.904
330.604
330.329
330.113
326.281
326.463
326.701
326.96
327.227
327.488
327.729
327.933
328.081
328.159
328.159
328.081
327.933
327.729
327.488
327.227
326.96
326.701
326.463
326.281
322.371
322.522
322.722
322.941
323.167
323.388
323.591
323.763
323.888
323.954
323.954
323.888
323.763
323.591
323.388
323.167
322.941
322.722
322.522
322.371
318.395
318.517
318.68
318.859
319.044
319.224
319.391
319.531
319.633
319.686
319.686
319.633
319.531
319.391
319.224
319.044
318.859
318.68
318.517
318.395
314.367
314.46
314.587
314.726
314.869
315.01
315.139
315.248
315.327
315.368
315.368
315.327
315.248
315.139
315.01
314.869
314.726
314.587
314.46
314.367
310.297
310.363
310.453
310.552
310.655
310.755
310.847
310.925
310.981
311.011
311.011
310.981
310.925
310.847
310.755
310.655
310.552
310.453
310.363
310.297
306.197
306.236
306.29
306.35
306.411
306.472
306.527
306.574
306.607
306.625
306.625
306.607
306.574
306.527
306.472
306.411
306.35
306.29
306.236
306.197
302.079
302.092
302.111
302.131
302.151
302.171
302.19
302.205
302.217
302.223
302.223
302.217
302.205
302.19
302.171
302.151
302.131
302.111
302.092
302.079
330.354
330.566
330.837
331.131
331.433
331.729
332.002
332.231
332.398
332.486
332.486
332.398
332.231
332.002
331.729
331.433
331.131
330.837
330.566
330.354
326.491
326.67
326.904
327.158
327.42
327.676
327.911
328.11
328.254
328.33
328.33
328.254
328.11
327.911
327.676
327.42
327.158
326.904
326.67
326.491
322.549
322.699
322.895
323.11
323.331
323.547
323.746
323.914
324.036
324.1
324.1
324.036
323.914
323.746
323.547
323.331
323.11
322.895
322.699
322.549
318.542
318.662
318.823
318.998
319.179
319.356
319.518
319.655
319.754
319.807
319.807
319.754
319.655
319.518
319.356
319.179
318.998
318.823
318.662
318.542
314.482
314.574
314.698
314.835
314.975
315.112
315.239
315.345
315.422
315.463
315.463
315.422
315.345
315.239
315.112
314.975
314.835
314.698
314.574
314.482
310.379
310.444
310.533
310.63
310.73
310.829
310.919
310.995
311.05
311.079
311.079
311.05
310.995
310.919
310.829
310.73
310.63
310.533
310.444
310.379
306.246
306.285
306.338
306.397
306.457
306.516
306.57
306.616
306.649
306.666
306.666
306.649
306.616
306.57
306.516
306.457
306.397
306.338
306.285
306.246
302.096
302.109
302.127
302.146
302.166
302.186
302.204
302.22
302.231
302.236
302.236
302.231
302.22
302.204
302.186
302.166
302.146
302.127
302.109
302.096
330.716
330.923
331.187
331.473
331.766
332.053
332.316
332.537
332.698
332.783
332.783
332.698
332.537
332.316
332.053
331.766
331.473
331.187
330.923
330.716
326.806
326.982
327.209
327.457
327.711
327.958
328.186
328.377
328.516
328.589
328.589
328.516
328.377
328.186
327.958
327.711
327.457
327.209
326.982
326.806
322.818
322.964
323.155
323.364
323.579
323.788
323.981
324.142
324.259
324.321
324.321
324.259
324.142
323.981
323.788
323.579
323.364
323.155
322.964
322.818
318.763
318.88
319.037
319.208
319.383
319.554
319.711
319.843
319.939
319.989
319.989
319.939
319.843
319.711
319.554
319.383
319.208
319.037
318.88
318.763
314.654
314.744
314.865
314.998
315.134
315.267
315.389
315.492
315.566
315.605
315.605
315.566
315.492
315.389
315.267
315.134
314.998
314.865
314.744
314.654
310.503
310.566
310.653
310.747
310.845
310.94
311.027
311.1
311.153
311.181
311.181
311.153
311.1
311.027
310.94
310.845
310.747
310.653
310.566
310.503
306.321
306.359
306.411
306.468
306.526
306.583
306.635
306.679
306.711
306.728
306.728
306.711
306.679
306.635
306.583
306.526
306.468
306.411
306.359
306.321
302.121
302.134
302.151
302.17
302.19
302.209
302.226
302.241
302.252
302.257
302.257
302.252
302.241
302.226
302.209
302.19
302.17
302.151
302.134
302.121
331.199
331.4
331.655
331.931
332.213
332.487
332.739
332.95
333.103
333.183
333.183
333.103
332.95
332.739
332.487
332.213
331.931
331.655
331.4
331.199
327.228
327.398
327.618
327.857
328.101
328.338
328.556
328.738
328.871
328.94
328.94
328.871
328.738
328.556
328.338
328.101
327.857
327.618
327.398
327.228
323.177
323.318
323.504
323.705
323.912
324.112
324.296
324.45
324.562
324.62
324.62
324.562
324.45
324.296
324.112
323.912
323.705
323.504
323.318
323.177
319.058
319.172
319.323
319.488
319.657
319.821
319.971
320.097
320.188
320.236
320.236
320.188
320.097
319.971
319.821
319.657
319.488
319.323
319.172
319.058
314.885
314.972
315.089
315.217
315.348
315.476
315.593
315.69
315.761
315.798
315.798
315.761
315.69
315.593
315.476
315.348
315.217
315.089
314.972
314.885
310.668
310.729
310.813
310.905
310.998
311.089
311.173
311.242
311.293
311.319
311.319
311.293
311.242
311.173
311.089
310.998
310.905
310.813
310.729
310.668
306.42
306.457
306.507
306.562
306.618
306.673
306.723
306.765
306.795
306.811
306.811
306.795
306.765
306.723
306.673
306.618
306.562
306.507
306.457
306.42
302.154
302.167
302.183
302.202
302.221
302.239
302.256
302.27
302.28
302.285
302.285
302.28
302.27
302.256
302.239
302.221
302.202
302.183
302.167
302.154
331.805
331.998
332.243
332.507
332.775
333.036
333.274
333.473
333.617
333.692
333.692
333.617
333.473
333.274
333.036
332.775
332.507
332.243
331.998
331.805
327.757
327.92
328.131
328.36
328.592
328.818
329.024
329.196
329.32
329.386
329.386
329.32
329.196
329.024
328.818
328.592
328.36
328.131
327.92
327.757
323.627
323.763
323.941
324.134
324.33
324.521
324.695
324.84
324.945
325
325
324.945
324.84
324.695
324.521
324.33
324.134
323.941
323.763
323.627
319.428
319.538
319.683
319.84
320.001
320.157
320.299
320.418
320.504
320.549
320.549
320.504
320.418
320.299
320.157
320.001
319.84
319.683
319.538
319.428
315.173
315.257
315.37
315.492
315.617
315.739
315.849
315.941
316.008
316.043
316.043
316.008
315.941
315.849
315.739
315.617
315.492
315.37
315.257
315.173
310.875
310.934
311.014
311.102
311.191
311.278
311.357
311.423
311.47
311.495
311.495
311.47
311.423
311.357
311.278
311.191
311.102
311.014
310.934
310.875
306.545
306.58
306.628
306.681
306.735
306.786
306.834
306.873
306.902
306.917
306.917
306.902
306.873
306.834
306.786
306.735
306.681
306.628
306.58
306.545
302.196
302.208
302.224
302.242
302.26
302.277
302.293
302.306
302.316
302.321
302.321
302.316
302.306
302.293
302.277
302.26
302.242
302.224
302.208
302.196
332.533
332.718
332.952
333.202
333.456
333.701
333.924
334.11
334.244
334.315
334.315
334.244
334.11
333.924
333.701
333.456
333.202
332.952
332.718
332.533
328.393
328.549
328.75
328.967
329.187
329.399
329.592
329.753
329.869
329.93
329.93
329.869
329.753
329.592
329.399
329.187
328.967
328.75
328.549
328.393
324.168
324.298
324.468
324.651
324.837
325.016
325.18
325.315
325.413
325.465
325.465
325.413
325.315
325.18
325.016
324.837
324.651
324.468
324.298
324.168
319.874
319.978
320.116
320.266
320.418
320.565
320.698
320.809
320.889
320.931
320.931
320.889
320.809
320.698
320.565
320.418
320.266
320.116
319.978
319.874
315.521
315.601
315.709
315.825
315.943
316.057
316.161
316.247
316.309
316.342
316.342
316.309
316.247
316.161
316.057
315.943
315.825
315.709
315.601
315.521
311.124
311.181
311.257
311.34
311.425
311.506
311.58
311.642
311.686
311.71
311.71
311.686
311.642
311.58
311.506
311.425
311.34
311.257
311.181
311.124
306.695
306.729
306.774
306.824
306.875
306.924
306.968
307.005
307.032
307.046
307.046
307.032
307.005
306.968
306.924
306.875
306.824
306.774
306.729
306.695
302.246
302.258
302.273
302.29
302.307
302.323
302.338
302.35
302.359
302.364
302.364
302.359
302.35
302.338
302.323
302.307
302.29
302.273
302.258
302.246
333.387
333.562
333.783
334.019
334.257
334.486
334.694
334.866
334.99
335.055
335.055
334.99
334.866
334.694
334.486
334.257
334.019
333.783
333.562
333.387
329.137
329.286
329.476
329.68
329.887
330.085
330.265
330.414
330.521
330.577
330.577
330.521
330.414
330.265
330.085
329.887
329.68
329.476
329.286
329.137
324.802
324.925
325.086
325.259
325.433
325.601
325.752
325.878
325.969
326.016
326.016
325.969
325.878
325.752
325.601
325.433
325.259
325.086
324.925
324.802
320.395
320.494
320.625
320.766
320.909
321.046
321.17
321.273
321.347
321.386
321.386
321.347
321.273
321.17
321.046
320.909
320.766
320.625
320.494
320.395
315.928
316.004
316.106
316.216
316.326
316.433
316.53
316.61
316.667
316.697
316.697
316.667
316.61
316.53
316.433
316.326
316.216
316.106
316.004
315.928
311.416
311.47
311.542
311.62
311.7
311.776
311.845
311.902
311.943
311.964
311.964
311.943
311.902
311.845
311.776
311.7
311.62
311.542
311.47
311.416
306.87
306.902
306.946
306.993
307.041
307.086
307.128
307.162
307.187
307.199
307.199
307.187
307.162
307.128
307.086
307.041
306.993
306.946
306.902
306.87
302.305
302.316
302.331
302.346
302.362
302.378
302.391
302.403
302.411
302.416
302.416
302.411
302.403
302.391
302.378
302.362
302.346
302.331
302.316
302.305
334.365
334.531
334.739
334.96
335.181
335.394
335.585
335.744
335.857
335.917
335.917
335.857
335.744
335.585
335.394
335.181
334.96
334.739
334.531
334.365
329.991
330.131
330.311
330.502
330.694
330.878
331.044
331.181
331.279
331.33
331.33
331.279
331.181
331.044
330.878
330.694
330.502
330.311
330.131
329.991
325.529
325.645
325.796
325.958
326.121
326.276
326.416
326.532
326.615
326.659
326.659
326.615
326.532
326.416
326.276
326.121
325.958
325.796
325.645
325.529
320.992
321.086
321.209
321.341
321.474
321.602
321.716
321.811
321.879
321.914
321.914
321.879
321.811
321.716
321.602
321.474
321.341
321.209
321.086
320.992
316.395
316.467
316.562
316.665
316.769
316.867
316.957
317.03
317.083
317.111
317.111
317.083
317.03
316.957
316.867
316.769
316.665
316.562
316.467
316.395
311.75
311.801
311.869
311.943
312.016
312.087
312.151
312.203
312.241
312.261
312.261
312.241
312.203
312.151
312.087
312.016
311.943
311.869
311.801
311.75
307.072
307.102
307.143
307.187
307.231
307.274
307.312
307.344
307.366
307.378
307.378
307.366
307.344
307.312
307.274
307.231
307.187
307.143
307.102
307.072
302.373
302.383
302.397
302.411
302.426
302.44
302.453
302.464
302.471
302.475
302.475
302.471
302.464
302.453
302.44
302.426
302.411
302.397
302.383
302.373
335.47
335.626
335.82
336.026
336.231
336.427
336.602
336.747
336.85
336.904
336.904
336.85
336.747
336.602
336.427
336.231
336.026
335.82
335.626
335.47
330.955
331.087
331.254
331.433
331.611
331.78
331.932
332.058
332.147
332.194
332.194
332.147
332.058
331.932
331.78
331.611
331.433
331.254
331.087
330.955
326.349
326.459
326.6
326.751
326.901
327.045
327.173
327.279
327.355
327.394
327.394
327.355
327.279
327.173
327.045
326.901
326.751
326.6
326.459
326.349
321.667
321.755
321.87
321.993
322.117
322.234
322.339
322.426
322.487
322.52
322.52
322.487
322.426
322.339
322.234
322.117
321.993
321.87
321.755
321.667
316.922
316.989
317.079
317.174
317.27
317.361
317.443
317.511
317.559
317.584
317.584
317.559
317.511
317.443
317.361
317.27
317.174
317.079
316.989
316.922
312.128
312.176
312.239
312.308
312.376
312.441
312.5
312.548
312.582
312.6
312.6
312.582
312.548
312.5
312.441
312.376
312.308
312.239
312.176
312.128
307.299
307.327
307.366
307.407
307.448
307.487
307.522
307.551
307.572
307.582
307.582
307.572
307.551
307.522
307.487
307.448
307.407
307.366
307.327
307.299
302.449
302.459
302.471
302.485
302.499
302.512
302.524
302.533
302.54
302.544
302.544
302.54
302.533
302.524
302.512
302.499
302.485
302.471
302.459
302.449
336.701
336.847
337.028
337.219
337.408
337.587
337.748
337.879
337.972
338.021
338.021
337.972
337.879
337.748
337.587
337.408
337.219
337.028
336.847
336.701
332.03
332.153
332.309
332.474
332.638
332.794
332.932
333.046
333.127
333.169
333.169
333.127
333.046
332.932
332.794
332.638
332.474
332.309
332.153
332.03
327.264
327.367
327.498
327.638
327.776
327.908
328.025
328.121
328.19
328.226
328.226
328.19
328.121
328.025
327.908
327.776
327.638
327.498
327.367
327.264
322.419
322.502
322.609
322.723
322.836
322.944
323.04
323.119
323.175
323.204
323.204
323.175
323.119
323.04
322.944
322.836
322.723
322.609
322.502
322.419
317.509
317.572
317.656
317.744
317.833
317.916
317.991
318.052
318.096
318.118
318.118
318.096
318.052
317.991
317.916
317.833
317.744
317.656
317.572
317.509
312.549
312.593
312.653
312.716
312.779
312.839
312.892
312.936
312.967
312.983
312.983
312.967
312.936
312.892
312.839
312.779
312.716
312.653
312.593
312.549
307.552
307.579
307.614
307.653
307.69
307.726
307.758
307.785
307.803
307.813
307.813
307.803
307.785
307.758
307.726
307.69
307.653
307.614
307.579
307.552
302.534
302.543
302.555
302.568
302.58
302.592
302.603
302.612
302.618
302.621
302.621
302.618
302.612
302.603
302.592
302.58
302.568
302.555
302.543
302.534
338.061
338.197
338.365
338.54
338.714
338.877
339.023
339.142
339.226
339.27
339.27
339.226
339.142
339.023
338.877
338.714
338.54
338.365
338.197
338.061
333.216
333.331
333.476
333.628
333.778
333.92
334.046
334.149
334.222
334.26
334.26
334.222
334.149
334.046
333.92
333.778
333.628
333.476
333.331
333.216
328.274
328.369
328.491
328.62
328.747
328.867
328.974
329.061
329.123
329.155
329.155
329.123
329.061
328.974
328.867
328.747
328.62
328.491
328.369
328.274
323.249
323.326
323.426
323.531
323.635
323.733
323.82
323.892
323.942
323.968
323.968
323.942
323.892
323.82
323.733
323.635
323.531
323.426
323.326
323.249
318.158
318.216
318.294
318.375
318.456
318.533
318.601
318.656
318.695
318.716
318.716
318.695
318.656
318.601
318.533
318.456
318.375
318.294
318.216
318.158
313.013
313.055
313.11
313.169
313.226
313.281
313.329
313.369
313.397
313.412
313.412
313.397
313.369
313.329
313.281
313.226
313.169
313.11
313.055
313.013
307.832
307.857
307.89
307.925
307.96
307.992
308.021
308.045
308.062
308.071
308.071
308.062
308.045
308.021
307.992
307.96
307.925
307.89
307.857
307.832
302.628
302.636
302.647
302.659
302.671
302.682
302.691
302.699
302.705
302.708
302.708
302.705
302.699
302.691
302.682
302.671
302.659
302.647
302.636
302.628
339.549
339.675
339.83
339.991
340.15
340.298
340.43
340.537
340.612
340.652
340.652
340.612
340.537
340.43
340.298
340.15
339.991
339.83
339.675
339.549
334.514
334.621
334.754
334.894
335.032
335.161
335.275
335.367
335.433
335.467
335.467
335.433
335.367
335.275
335.161
335.032
334.894
334.754
334.621
334.514
329.379
329.467
329.58
329.698
329.814
329.923
330.02
330.098
330.154
330.182
330.182
330.154
330.098
330.02
329.923
329.814
329.698
329.58
329.467
329.379
324.158
324.229
324.321
324.417
324.513
324.602
324.681
324.745
324.79
324.814
324.814
324.79
324.745
324.681
324.602
324.513
324.417
324.321
324.229
324.158
318.867
318.921
318.993
319.068
319.142
319.211
319.273
319.323
319.358
319.376
319.376
319.358
319.323
319.273
319.211
319.142
319.068
318.993
318.921
318.867
313.522
313.56
313.611
313.665
313.718
313.767
313.811
313.847
313.872
313.885
313.885
313.872
313.847
313.811
313.767
313.718
313.665
313.611
313.56
313.522
308.138
308.161
308.191
308.224
308.255
308.285
308.311
308.333
308.348
308.356
308.356
308.348
308.333
308.311
308.285
308.255
308.224
308.191
308.161
308.138
302.73
302.738
302.748
302.759
302.77
302.78
302.789
302.796
302.801
302.804
302.804
302.801
302.796
302.789
302.78
302.77
302.759
302.748
302.738
302.73
341.164
341.28
341.423
341.57
341.715
341.85
341.968
342.064
342.132
342.167
342.167
342.132
342.064
341.968
341.85
341.715
341.57
341.423
341.28
341.164
335.923
336.022
336.145
336.273
336.398
336.515
336.617
336.701
336.759
336.79
336.79
336.759
336.701
336.617
336.515
336.398
336.273
336.145
336.022
335.923
330.578
330.659
330.763
330.871
330.977
331.076
331.163
331.233
331.283
331.309
331.309
331.283
331.233
331.163
331.076
330.977
330.871
330.763
330.659
330.578
325.143
325.209
325.294
325.382
325.469
325.55
325.621
325.679
325.719
325.74
325.74
325.719
325.679
325.621
325.55
325.469
325.382
325.294
325.209
325.143
319.636
319.687
319.752
319.821
319.889
319.952
320.007
320.052
320.084
320.1
320.1
320.084
320.052
320.007
319.952
319.889
319.821
319.752
319.687
319.636
314.073
314.109
314.156
314.205
314.253
314.298
314.338
314.37
314.392
314.404
314.404
314.392
314.37
314.338
314.298
314.253
314.205
314.156
314.109
314.073
308.47
308.491
308.519
308.548
308.577
308.604
308.628
308.647
308.661
308.668
308.668
308.661
308.647
308.628
308.604
308.577
308.548
308.519
308.491
308.47
302.842
302.849
302.858
302.868
302.878
302.887
302.895
302.901
302.906
302.908
302.908
302.906
302.901
302.895
302.887
302.878
302.868
302.858
302.849
302.842
342.903
343.01
343.141
343.276
343.407
343.529
343.635
343.721
343.782
343.813
343.813
343.782
343.721
343.635
343.529
343.407
343.276
343.141
343.01
342.903
337.44
337.531
337.643
337.76
337.874
337.98
338.072
338.147
338.199
338.226
338.226
338.199
338.147
338.072
337.98
337.874
337.76
337.643
337.531
337.44
331.868
331.943
332.038
332.137
332.233
332.323
332.401
332.464
332.508
332.531
332.531
332.508
332.464
332.401
332.323
332.233
332.137
332.038
331.943
331.868
326.203
326.264
326.342
326.423
326.501
326.575
326.639
326.69
326.727
326.745
326.745
326.727
326.69
326.639
326.575
326.501
326.423
326.342
326.264
326.203
320.464
320.511
320.571
320.634
320.695
320.752
320.802
320.842
320.87
320.885
320.885
320.87
320.842
320.802
320.752
320.695
320.634
320.571
320.511
320.464
314.666
314.699
314.742
314.787
314.831
314.871
314.907
314.936
314.956
314.966
314.966
314.956
314.936
314.907
314.871
314.831
314.787
314.742
314.699
314.666
308.826
308.846
308.872
308.899
308.925
308.949
308.971
308.988
309
309.007
309.007
309
308.988
308.971
308.949
308.925
308.899
308.872
308.846
308.826
302.962
302.968
302.977
302.986
302.995
303.003
303.01
303.016
303.02
303.022
303.022
303.02
303.016
303.01
303.003
302.995
302.986
302.977
302.968
302.962
344.757
344.856
344.976
345.099
345.218
345.327
345.423
345.5
345.554
345.582
345.582
345.554
345.5
345.423
345.327
345.218
345.099
344.976
344.856
344.757
339.055
339.139
339.242
339.349
339.452
339.547
339.631
339.697
339.744
339.768
339.768
339.744
339.697
339.631
339.547
339.452
339.349
339.242
339.139
339.055
333.241
333.31
333.398
333.488
333.575
333.656
333.726
333.783
333.822
333.843
333.843
333.822
333.783
333.726
333.656
333.575
333.488
333.398
333.31
333.241
327.331
327.387
327.458
327.532
327.604
327.67
327.727
327.774
327.806
327.823
327.823
327.806
327.774
327.727
327.67
327.604
327.532
327.458
327.387
327.331
321.344
321.387
321.442
321.499
321.555
321.607
321.651
321.687
321.713
321.726
321.726
321.713
321.687
321.651
321.607
321.555
321.499
321.442
321.387
321.344
315.296
315.327
315.366
315.407
315.447
315.483
315.516
315.541
315.559
315.569
315.569
315.559
315.541
315.516
315.483
315.447
315.407
315.366
315.327
315.296
309.205
309.224
309.247
309.272
309.296
309.318
309.337
309.352
309.363
309.369
309.369
309.363
309.352
309.337
309.318
309.296
309.272
309.247
309.224
309.205
303.089
303.095
303.103
303.111
303.119
303.126
303.133
303.138
303.142
303.143
303.143
303.142
303.138
303.133
303.126
303.119
303.111
303.103
303.095
303.089
346.704
346.795
346.905
347.017
347.125
347.224
347.31
347.379
347.427
347.452
347.452
347.427
347.379
347.31
347.224
347.125
347.017
346.905
346.795
346.704
340.749
340.826
340.921
341.018
341.111
341.197
341.272
341.332
341.374
341.395
341.395
341.374
341.332
341.272
341.197
341.111
341.018
340.921
340.826
340.749
334.678
334.742
334.822
334.904
334.983
335.056
335.119
335.17
335.205
335.224
335.224
335.205
335.17
335.119
335.056
334.983
334.904
334.822
334.742
334.678
328.51
328.561
328.626
328.694
328.759
328.818
328.87
328.911
328.94
328.955
328.955
328.94
328.911
328.87
328.818
328.759
328.694
328.626
328.561
328.51
322.263
322.302
322.352
322.405
322.455
322.502
322.542
322.574
322.597
322.608
322.608
322.597
322.574
322.542
322.502
322.455
322.405
322.352
322.302
322.263
315.953
315.981
316.017
316.055
316.091
316.124
316.153
316.176
316.192
316.2
316.2
316.192
316.176
316.153
316.124
316.091
316.055
316.017
315.981
315.953
309.6
309.617
309.639
309.661
309.683
309.703
309.72
309.734
309.744
309.749
309.749
309.744
309.734
309.72
309.703
309.683
309.661
309.639
309.617
309.6
303.221
303.227
303.234
303.241
303.249
303.255
303.261
303.266
303.269
303.271
303.271
303.269
303.266
303.261
303.255
303.249
303.241
303.234
303.227
303.221
348.691
348.775
348.876
348.978
349.076
349.165
349.243
349.305
349.348
349.37
349.37
349.348
349.305
349.243
349.165
349.076
348.978
348.876
348.775
348.691
342.469
342.54
342.627
342.715
342.8
342.878
342.945
342.999
343.036
343.056
343.056
343.036
342.999
342.945
342.878
342.8
342.715
342.627
342.54
342.469
336.132
336.19
336.264
336.339
336.411
336.476
336.533
336.579
336.611
336.627
336.627
336.611
336.579
336.533
336.476
336.411
336.339
336.264
336.19
336.132
329.698
329.745
329.805
329.866
329.925
329.979
330.026
330.063
330.089
330.102
330.102
330.089
330.063
330.026
329.979
329.925
329.866
329.805
329.745
329.698
323.185
323.221
323.268
323.316
323.362
323.404
323.44
323.469
323.489
323.5
323.5
323.489
323.469
323.44
323.404
323.362
323.316
323.268
323.221
323.185
316.612
316.638
316.671
316.705
316.738
316.768
316.794
316.815
316.829
316.837
316.837
316.829
316.815
316.794
316.768
316.738
316.705
316.671
316.638
316.612
309.996
310.011
310.031
310.051
310.071
310.089
310.105
310.117
310.126
310.131
310.131
310.126
310.117
310.105
310.089
310.071
310.051
310.031
310.011
309.996
303.354
303.359
303.365
303.372
303.379
303.385
303.39
303.394
303.397
303.399
303.399
303.397
303.394
303.39
303.385
303.379
303.372
303.365
303.359
303.354
350.586
350.663
350.756
350.85
350.939
351.021
351.091
351.147
351.186
351.206
351.206
351.186
351.147
351.091
351.021
350.939
350.85
350.756
350.663
350.586
344.089
344.154
344.234
344.316
344.394
344.465
344.526
344.575
344.609
344.626
344.626
344.609
344.575
344.526
344.465
344.394
344.316
344.234
344.154
344.089
337.486
337.54
337.608
337.677
337.743
337.803
337.855
337.896
337.925
337.94
337.94
337.925
337.896
337.855
337.803
337.743
337.677
337.608
337.54
337.486
330.794
330.838
330.893
330.95
331.004
331.053
331.096
331.13
331.153
331.165
331.165
331.153
331.13
331.096
331.053
331.004
330.95
330.893
330.838
330.794
324.031
324.064
324.107
324.151
324.194
324.232
324.265
324.292
324.31
324.32
324.32
324.31
324.292
324.265
324.232
324.194
324.151
324.107
324.064
324.031
317.212
317.236
317.267
317.298
317.329
317.356
317.38
317.399
317.412
317.419
317.419
317.412
317.399
317.38
317.356
317.329
317.298
317.267
317.236
317.212
310.355
310.369
310.387
310.406
310.424
310.441
310.455
310.467
310.475
310.479
310.479
310.475
310.467
310.455
310.441
310.424
310.406
310.387
310.369
310.355
303.474
303.478
303.485
303.491
303.497
303.503
303.507
303.511
303.514
303.515
303.515
303.514
303.511
303.507
303.503
303.497
303.491
303.485
303.478
303.474
352.052
352.125
352.212
352.3
352.384
352.46
352.525
352.577
352.614
352.632
352.632
352.614
352.577
352.525
352.46
352.384
352.3
352.212
352.125
352.052
345.296
345.358
345.433
345.51
345.583
345.65
345.707
345.752
345.783
345.8
345.8
345.783
345.752
345.707
345.65
345.583
345.51
345.433
345.358
345.296
338.464
338.516
338.58
338.645
338.707
338.764
338.812
338.851
338.878
338.891
338.891
338.878
338.851
338.812
338.764
338.707
338.645
338.58
338.516
338.464
331.568
331.609
331.661
331.715
331.766
331.812
331.852
331.884
331.906
331.917
331.917
331.906
331.884
331.852
331.812
331.766
331.715
331.661
331.609
331.568
324.616
324.648
324.689
324.731
324.771
324.807
324.838
324.863
324.88
324.889
324.889
324.88
324.863
324.838
324.807
324.771
324.731
324.689
324.648
324.616
317.623
317.645
317.674
317.704
317.733
317.759
317.781
317.799
317.811
317.817
317.817
317.811
317.799
317.781
317.759
317.733
317.704
317.674
317.645
317.623
310.598
310.611
310.629
310.647
310.664
310.68
310.693
310.704
310.711
310.715
310.715
310.711
310.704
310.693
310.68
310.664
310.647
310.629
310.611
310.598
303.555
303.559
303.565
303.571
303.577
303.582
303.587
303.59
303.593
303.594
303.594
303.593
303.59
303.587
303.582
303.577
303.571
303.565
303.559
303.555
)
;

boundaryField
{
    hotSide
    {
        type            fixedGradient;
        gradient        nonuniform List<scalar> 
400
(
298.288
299.484
301.879
305.477
310.285
316.31
323.563
332.052
341.788
352.783
365.045
378.585
393.412
409.532
426.953
445.681
465.721
487.076
509.751
533.746
301.149
302.322
304.673
308.206
312.931
318.858
325.999
334.368
343.977
354.841
366.971
380.38
395.078
411.074
428.376
446.992
466.925
488.182
510.764
534.674
304.244
305.391
307.688
311.145
315.772
321.583
328.594
336.823
346.285
356.999
368.98
382.241
396.795
412.654
429.827
448.32
468.139
489.29
511.774
535.595
307.524
308.639
310.875
314.242
318.756
324.434
331.297
339.367
348.665
359.212
371.027
384.126
398.526
414.237
431.27
449.634
469.334
490.374
512.758
536.487
310.896
311.976
314.143
317.41
321.798
327.328
334.029
341.925
351.045
361.412
373.05
385.979
400.216
415.774
432.664
450.896
470.475
491.404
513.688
537.325
314.22
315.262
317.354
320.516
324.769
330.145
336.674
344.391
353.326
363.509
374.968
387.725
401.799
417.206
433.956
452.059
471.521
492.345
514.532
538.084
317.305
318.309
320.328
323.383
327.505
332.728
339.09
346.631
355.388
365.396
376.684
389.279
403.202
418.467
435.089
453.074
472.43
493.158
515.26
538.735
319.923
320.893
322.846
325.806
329.81
334.896
341.11
348.497
357.099
366.953
378.095
390.551
404.344
419.491
436.004
453.891
473.158
493.807
515.839
539.252
321.839
322.783
324.685
327.573
331.486
336.47
342.572
349.843
358.328
368.069
379.102
391.455
405.154
420.214
436.648
454.464
473.668
494.261
516.242
539.61
322.854
323.784
325.658
328.507
332.371
337.299
343.341
350.549
358.972
368.652
379.627
391.926
405.574
420.588
436.981
454.76
473.931
494.494
516.449
539.794
322.854
323.784
325.658
328.507
332.371
337.299
343.341
350.549
358.972
368.652
379.627
391.926
405.574
420.588
436.981
454.76
473.931
494.494
516.449
539.794
321.839
322.783
324.685
327.573
331.486
336.47
342.572
349.843
358.328
368.069
379.102
391.455
405.154
420.214
436.648
454.464
473.668
494.261
516.242
539.61
319.923
320.893
322.846
325.806
329.81
334.896
341.11
348.497
357.099
366.953
378.095
390.551
404.344
419.491
436.004
453.891
473.158
493.807
515.839
539.252
317.305
318.309
320.328
323.383
327.505
332.728
339.09
346.631
355.388
365.396
376.684
389.279
403.202
418.467
435.089
453.074
472.43
493.158
515.26
538.735
314.22
315.262
317.354
320.516
324.769
330.145
336.674
344.391
353.326
363.509
374.968
387.725
401.799
417.206
433.956
452.059
471.521
492.345
514.532
538.084
310.896
311.976
314.143
317.41
321.798
327.328
334.029
341.925
351.045
361.412
373.05
385.979
400.216
415.774
432.664
450.896
470.475
491.404
513.688
537.325
307.524
308.639
310.875
314.242
318.756
324.434
331.297
339.367
348.665
359.212
371.027
384.126
398.526
414.237
431.27
449.634
469.334
490.374
512.758
536.487
304.244
305.391
307.688
311.145
315.772
321.583
328.594
336.823
346.285
356.999
368.98
382.241
396.795
412.654
429.827
448.32
468.139
489.29
511.774
535.595
301.149
302.322
304.673
308.206
312.931
318.858
325.999
334.368
343.977
354.841
366.971
380.38
395.078
411.074
428.376
446.992
466.925
488.182
510.764
534.674
298.288
299.484
301.879
305.477
310.285
316.31
323.563
332.052
341.788
352.783
365.045
378.585
393.412
409.532
426.953
445.681
465.721
487.076
509.751
533.746
)
;
    }
    coldSide
    {
        type            mixed;
        refValue        uniform 300;
        refGradient     uniform 0;
        valueFraction   uniform 0.991591;
        source          uniform 0;
        value           nonuniform List<scalar> 
400
(
300.017
300.017
300.018
300.018
300.018
300.018
300.019
300.019
300.02
300.021
300.021
300.022
300.023
300.024
300.025
300.026
300.027
300.028
300.029
300.03
300.018
300.018
300.018
300.018
300.018
300.019
300.019
300.019
300.02
300.021
300.021
300.022
300.023
300.024
300.025
300.026
300.027
300.028