/*--------------------------------*- C++ -*----------------------------------*\
| =========                 |                                                 |
| \\      /  F ield         | OpenFOAM: The Open Source CFD Toolbox           |
|  \\    /   O peration     | Version:  2212                                  |
|   \\  /    A nd           | Website:  www.openfoam.com                      |
|    \\/     M anipulation  |                                                 |
\*---------------------------------------------------------------------------*/
FoamFile
{
    version     2.0;
    format      ascii;
    arch        "LSB;label=32;scalar=64";
    class       volScalarField;
    location    "./ITHACAoutput/true/4.4";
    object      error;
}
// * * * * * * * * * * * * * * * * * * * * * * * * * * * * * * * * * * * * * //

dimensions      [0 0 0 1 0 0 0];

internalField   nonuniform List<scalar> 
3200
(
-8.66692
-6.3779
-4.323
-2.56961
-1.20179
-0.184787
0.540368
1.10962
1.5676
1.94199
2.14953
2.22822
2.46616
2.66858
2.61514
2.39445
1.8617
0.811041
-0.761075
-2.75315
-7.06057
-5.24765
-3.36292
-1.86107
-0.815031
0.0699735
0.572344
1.1531
1.55675
1.77625
2.0231
2.19493
2.28221
2.35893
2.33734
2.17701
1.7849
0.868427
-0.536782
-2.1772
-5.78022
-4.16462
-2.6591
-1.35016
-0.466179
0.209009
0.722406
1.13232
1.36711
1.61852
1.86347
1.91385
1.98908
2.03819
2.03719
1.94783
1.43374
0.81636
-0.36654
-1.65399
-4.46721
-3.23132
-1.95868
-1.04209
-0.289751
0.306542
0.681754
1.05319
1.22863
1.37726
1.45791
1.6601
1.66672
1.76593
1.6843
1.57537
1.27826
0.690715
-0.155209
-1.27512
-3.3792
-2.40922
-1.46831
-0.710983
-0.131092
0.278893
0.640765
0.771855
1.04577
1.14944
1.21004
1.24922
1.45133
1.36251
1.39682
1.24792
1.01181
0.515226
-0.172836
-0.894427
-2.33656
-1.63556
-1.0339
-0.496818
-0.10498
0.201403
0.450938
0.629388
0.757735
0.849761
0.87963
0.90647
1.01345
1.04482
1.03863
0.878645
0.730409
0.351035
-0.121643
-0.640139
-1.35193
-1.00792
-0.54398
-0.299811
-0.0251367
0.153171
0.190108
0.454349
0.504471
0.530192
0.544483
0.549097
0.621061
0.596634
0.573743
0.629684
0.482154
0.228282
-0.0550878
-0.3391
-0.522331
-0.278791
-0.141192
-0.103297
-0.0201351
0.0837462
0.203204
0.170741
0.0891334
0.0755254
0.208826
0.211425
0.0865803
0.18824
0.116029
0.117228
0.116647
0.0647856
0.0516488
-0.16772
-8.50938
-6.28829
-4.13397
-2.44606
-1.19291
-0.289112
0.364452
0.966675
1.26426
1.56332
1.80125
1.99598
2.10766
2.32407
2.43127
2.24145
1.78765
0.871324
-0.740614
-2.51863
-6.95964
-5.20457
-3.31122
-1.83862
-0.76797
-0.0464806
0.54121
0.954984
1.26992
1.47546
1.70916
1.87696
1.97401
2.08895
2.20072
2.13552
1.68586
0.864693
-0.540531
-2.00322
-5.56329
-4.1159
-2.61337
-1.42123
-0.505477
0.143879
0.549329
0.999552
1.21578
1.40579
1.50541
1.74207
1.79983
1.90417
2.00417
1.80875
1.52073
0.727463
-0.335319
-1.55965
-4.38291
-3.20155
-1.95695
-0.935437
-0.245397
0.223691
0.615647
0.889362
0.990336
1.28911
1.25296
1.4538
1.46675
1.581
1.63258
1.58415
1.24239
0.706401
-0.292991
-1.25659
-3.33251
-2.36503
-1.45718
-0.632888
-0.176101
0.230035
0.499459
0.685764
0.945547
0.965736
1.07662
1.17512
1.28403
1.33422
1.24951
1.258
1.01044
0.602861
-0.159912
-0.839938
-2.28946
-1.61597
-1.00608
-0.563143
-0.0586991
0.246276
0.4028
0.438326
0.687244
0.740967
0.741097
0.875315
0.831501
0.896786
0.918528
0.932224
0.709501
0.357273
-0.123732
-0.682361
-1.34903
-0.994473
-0.569185
-0.272309
-0.0312677
0.0946219
0.270458
0.292437
0.432692
0.527388
0.470121
0.520388
0.553087
0.594758
0.590942
0.504362
0.450566
0.203626
-0.0697904
-0.424956
-0.491471
-0.298966
-0.216161
-0.0552056
0.0392409
0.0449892
0.0120256
0.125104
0.0814134
0.0966973
0.162212
0.132588
0.191154
0.167968
0.107423
0.150523
0.149929
0.0858847
-0.0211515
-0.172904
-8.41126
-6.25049
-4.12672
-2.42753
-1.34503
-0.46926
0.042235
0.532039
0.714344
0.98012
1.23495
1.3462
1.60718
1.93341
1.97132
2.06421
1.66758
0.702512
-0.813343
-2.61227
-6.87239
-5.03588
-3.28626
-1.85907
-0.887788
-0.140964
0.322413
0.590994
0.852282
1.00833
1.19013
1.42573
1.56885
1.80035
1.82653
1.91787
1.57658
0.734294
-0.575581
-2.06305
-5.5088
-3.95707
-2.53898
-1.42367
-0.629912
-0.0184379
0.359228
0.618279
0.879329
1.04967
1.09493
1.28449
1.41847
1.45918
1.72055
1.69385
1.39649
0.674205
-0.395557
-1.64256
-4.3711
-3.12614
-1.96278
-1.04266
-0.399445
0.0413294
0.445669
0.653187
0.831868
0.889914
1.0276
1.08452
1.24546
1.30053
1.36235
1.33462
1.07583
0.641616
-0.292186
-1.27857
-3.28937
-2.39537
-1.4836
-0.701813
-0.146279
0.0911022
0.359255
0.559627
0.724344
0.710241
0.830465
0.833983
1.1173
1.05155
1.15049
1.10628
0.900795
0.526703
-0.0850183
-0.948944
-2.26835
-1.69714
-1.03734
-0.519046
-0.137485
0.115612
0.321902
0.383803
0.514891
0.612029
0.688738
0.61026
0.709967
0.820449
0.831603
0.752459
0.654706
0.340238
-0.0928338
-0.656007
-1.41817
-0.956155
-0.574983
-0.263858
-0.0729228
0.126728
0.215245
0.131851
0.303333
0.37622
0.376297
0.342857
0.542877
0.544513
0.54546
0.470214
0.415439
0.237291
-0.100737
-0.393055
-0.443773
-0.289638
-0.229731
-0.109552
0.00387586
0.040445
0.0935578
0.106101
0.0942313
0.17914
0.178363
0.163197
0.153103
0.137386
0.139187
0.117294
0.141162
0.0955992
-0.0109927
-0.167016
-8.31701
-6.19574
-4.15884
-2.51776
-1.51217
-0.829291
-0.285657
-0.0167629
0.250838
0.39257
0.537383
0.71972
0.954334
1.29975
1.59607
1.59446
1.38516
0.500155
-0.93713
-2.67775
-6.76249
-5.11548
-3.34866
-2.01021
-1.09834
-0.424744
-0.0214298
0.169011
0.413812
0.458073
0.493935
0.738072
1.03204
1.20927
1.40017
1.42072
1.23035
0.48956
-0.703604
-2.14498
-5.42732
-4.02391
-2.54772
-1.53613
-0.737504
-0.23852
0.121138
0.294629
0.457345
0.536543
0.618955
0.651234
1.05136
1.16968
1.23913
1.3555
1.09316
0.472877
-0.514764
-1.67693
-4.34912
-3.09907
-1.9527
-1.11694
-0.500488
-0.0781041
0.27202
0.32245
0.50888
0.529692
0.601483
0.729136
0.879431
1.04539
1.04703
1.14204
0.917335
0.454503
-0.351589
-1.33667
-3.29451
-2.35021
-1.46691
-0.864062
-0.352195
-0.0336832
0.188224
0.328178
0.45238
0.465942
0.485266
0.620334
0.716586
0.796989
0.948955
0.946248
0.824215
0.3655
-0.251314
-0.909817
-2.24555
-1.64377
-1.00371
-0.46053
-0.164088
0.0550011
0.210633
0.315071
0.370553
0.320897
0.351148
0.380035
0.494061
0.544557
0.692855
0.576923
0.531728
0.281169
-0.203566
-0.700714
-1.34293
-0.948928
-0.605216
-0.324426
-0.115108
-0.00285869
0.112698
0.195456
0.247804
0.30917
0.245962
0.313061
0.318158
0.352987
0.453924
0.381004
0.390347
0.141127
-0.16635
-0.358052
-0.403751
-0.302482
-0.213621
-0.0530467
-0.0114968
-0.0431701
0.0463493
0.0881723
0.103035
0.101791
0.181776
0.0860897
0.153428
0.110092
0.132014
0.132523
0.0919945
0.0894097
-0.11541
-0.0819647
-8.24565
-6.22688
-4.34635
-2.80913
-1.88762
-1.13402
-0.749224
-0.464583
-0.524602
-0.424317
-0.317448
-0.0993158
0.316546
0.682917
0.915419
1.11193
0.913571
0.0610038
-1.25396
-2.81312
-6.81024
-5.06844
-3.41634
-2.10768
-1.31874
-0.7501
-0.413294
-0.294187
-0.182852
-0.164459
-0.0282812
0.160592
0.350781
0.702275
0.883852
1.05621
0.856725
0.159027
-0.982377
-2.37043
-5.54518
-4.11219
-2.69857
-1.62648
-0.931136
-0.491185
-0.150165
0.00695573
-0.0216381
-0.000426429
0.0340837
0.218452
0.418325
0.62056
0.885803
0.961599
0.787632
0.190706
-0.73031
-1.8305
-4.26849
-3.22172
-2.13495
-1.20275
-0.705188
-0.279109
-0.086103
0.0211114
0.0755944
0.0558758
0.148142
0.249082
0.450643
0.679463
0.767861
0.822355
0.642947
0.27059
-0.550632
-1.46611
-3.18071
-2.3696
-1.54748
-0.853264
-0.400965
-0.127969
0.0580772
0.0746606
0.0442561
0.131218
0.0938516
0.225806
0.350529
0.552221
0.600119
0.721642
0.590072
0.151874
-0.487831
-1.1064
-2.21293
-1.68607
-1.01146
-0.669442
-0.323221
-0.0676118
0.0521498
0.116382
0.105487
0.12743
0.126271
0.178215
0.183284
0.387501
0.382002
0.578926
0.428704
0.22437
-0.269711
-0.728161
-1.28899
-0.961401
-0.621177
-0.311563
-0.168076
-0.120997
-0.0153376
0.0806513
0.0187484
0.0818336
0.224604
0.110978
0.173583
0.285464
0.24939
0.340717
0.208947
0.110486
-0.202789
-0.427044
-0.444012
-0.424205
-0.171571
-0.136623
-0.0185312
-0.0072239
0.0142884
0.0697767
0.0538999
-0.0150388
0.0258775
0.0407513
0.107781
0.0747985
0.101969
0.0962982
0.145028
-0.0229539
-0.0920899
-0.19443
-8.36235
-6.39707
-4.40954
-3.09347
-2.16334
-1.53909
-1.10954
-1.11432
-1.09757
-1.169
-1.03713
-0.871876
-0.472612
-0.0967967
0.387507
0.596824
0.410396
-0.307298
-1.64021
-3.17663
-6.83396
-5.22624
-3.56494
-2.3799
-1.56525
-1.09072
-0.798307
-0.704148
-0.75831
-0.830968
-0.709098
-0.608696
-0.297759
0.0210544
0.440818
0.524581
0.404854
-0.19559
-1.30972
-2.61125
-5.50724
-4.24493
-2.76176
-1.83804
-1.11824
-0.710825
-0.567072
-0.493681
-0.57077
-0.500991
-0.561096
-0.286558
-0.140327
0.204717
0.4637
0.545402
0.403989
-0.14259
-1.01152
-2.04738
-4.32475
-3.22168
-2.18728
-1.4133
-0.7126
-0.429366
-0.327795
-0.30303
-0.333431
-0.24731
-0.370545
-0.270358
-0.0359564
0.178079
0.478064
0.560277
0.377707
-0.0118065
-0.738856
-1.64221
-3.31059
-2.49219
-1.68949
-1.03018
-0.540901
-0.345638
-0.186458
-0.148005
-0.234345
-0.244838
-0.271473
-0.135483
-0.00170854
0.207369
0.359617
0.486326
0.364606
0.00429872
-0.621199
-1.2178
-2.25081
-1.69762
-1.17614
-0.738527
-0.346931
-0.161961
-0.120407
-0.0826292
-0.071845
-0.177741
-0.0537002
-0.0855064
0.099523
0.128105
0.264891
0.348626
0.291295
0.0550342
-0.34694
-0.895385
-1.40797
-1.032
-0.726545
-0.332472
-0.216273
-0.16776
-0.00909461
-0.0123849
-0.0471579
-0.150598
-0.0884588
-0.0437645
0.0572743
0.168031
0.071869
0.158006
0.173963
0.00630033
-0.246744
-0.455039
-0.507296
-0.293182
-0.23136
-0.0927874
-0.106161
-0.117811
-0.0183433
-0.0172553
-0.0292922
-0.100089
0.044573
0.00292238
0.012298
0.0153073
0.0315245
0.113566
0.0265237
0.0206415
-0.139114
-0.16305
-8.34473
-6.50328
-4.69969
-3.28774
-2.42968
-1.89859
-1.63616
-1.62351
-1.79501
-1.83004
-1.87289
-1.67335
-1.20297
-0.772199
-0.333896
0.0504023
-0.103635
-0.681853
-2.04119
-3.51497
-6.8638
-5.23742
-3.70264
-2.60274
-1.75282
-1.27861
-1.2095
-1.19971
-1.38236
-1.41545
-1.44095
-1.24376
-0.923093
-0.433395
-0.0896496
0.0970894
-0.0316044
-0.655539
-1.67959
-2.89771
-5.53022
-4.24431
-3.03279
-2.00927
-1.39701
-1.01549
-0.857514
-0.845302
-0.989917
-1.07352
-1.14652
-0.97739
-0.62376
-0.374638
0.0175263
0.147294
0.0451091
-0.416261
-1.33733
-2.30489
-4.43789
-3.39882
-2.28231
-1.48542
-0.992134
-0.715451
-0.519766
-0.610096
-0.645464
-0.739601
-0.831772
-0.676851
-0.498325
-0.176235
0.00652314
0.218827
0.122933
-0.315215
-0.972741
-1.84725
-3.27238
-2.52717
-1.74263
-1.13588
-0.736125
-0.478408
-0.39892
-0.41575
-0.484143
-0.577806
-0.570818
-0.54436
-0.400611
-0.0557805
0.122758
0.153228
0.0535394
-0.235141
-0.694327
-1.3126
-2.36374
-1.73793
-1.19226
-0.735136
-0.448502
-0.307833
-0.212353
-0.282644
-0.239754
-0.358778
-0.403403
-0.310028
-0.176497
-0.0587152
0.0823913
0.124858
0.133283
-0.118612
-0.543622
-0.923705
-1.37062
-1.11041
-0.694307
-0.404586
-0.318313
-0.112711
-0.129895
-0.201862
-0.138156
-0.201754
-0.178463
-0.17774
-0.0899763
0.0430292
0.075518
0.0513833
0.149399
-0.0574787
-0.253517
-0.557497
-0.411333
-0.328292
-0.232977
-0.165031
-0.121003
0.0384022
-0.0683139
-0.0502395
-0.0522255
-0.10331
-0.0603953
-0.04318
-0.0154214
0.0500202
0.00307783
0.00705772
0.039287
-0.0475046
-0.0479322
-0.202926
-8.403
-6.52816
-4.86032
-3.49948
-2.70214
-2.22231
-2.03206
-2.10148
-2.28245
-2.43778
-2.50319
-2.26469
-1.84713
-1.22623
-0.756325
-0.540625
-0.58273
-1.17205
-2.38633
-3.8325
-6.88513
-5.35301
-3.89505
-2.82698
-2.04597
-1.66403
-1.53559
-1.63101
-1.73025
-1.9339
-1.98669
-1.78127
-1.48053
-0.930609
-0.601475
-0.291582
-0.401072
-0.957807
-1.8905
-3.01636
-5.59189
-4.3142
-3.04045
-2.12281
-1.5392
-1.30218
-1.10673
-1.2031
-1.28109
-1.49553
-1.47625
-1.44305
-1.14855
-0.755795
-0.303456
-0.151897
-0.219321
-0.765898
-1.5949
-2.51932
-4.34166
-3.44605
-2.40256
-1.69569
-1.11353
-0.822513
-0.707105
-0.85545
-1.03272
-1.13008
-1.16411
-0.975471
-0.820784
-0.597303
-0.250211
-0.0971374
-0.183486
-0.502795
-1.26226
-1.999
-3.29751
-2.51878
-1.81285
-1.25611
-0.815474
-0.574357
-0.568835
-0.62551
-0.783963
-0.755104
-0.920131
-0.78963
-0.608129
-0.388483
-0.134005
-0.0767367
-0.0969172
-0.418491
-0.934211
-1.52289
-2.22329
-1.74214
-1.25158
-0.846949
-0.455129
-0.430928
-0.396989
-0.328901
-0.52749
-0.529574
-0.5235
-0.484866
-0.506287
-0.267562
-0.0893386
0.0175076
-0.0248045
-0.293993
-0.647149
-1.10376
-1.40367
-1.02685
-0.767548
-0.489026
-0.345076
-0.223221
-0.220649
-0.250245
-0.351136
-0.342799
-0.367164
-0.283333
-0.229474
-0.0684048
-0.08477
-0.0046686
-0.0198509
-0.102984
-0.368706
-0.576653
-0.481951
-0.292528
-0.28511
-0.131316
-0.126295
-0.0842196
0.00134945
-0.0788711
-0.122051
-0.131937
-0.115801
-0.123858
-0.112363
-0.0668634
-0.0906366
0.0509102
-0.0437231
-0.0610874
-0.180645
-0.178757
-8.34276
-6.5707
-4.88949
-3.64216
-2.89242
-2.42045
-2.3268
-2.38884
-2.6934
-2.8983
-2.93327
-2.86348
-2.32397
-1.7846
-1.20258
-1.01719
-0.953433
-1.5615
-2.75257
-4.02474
-6.81053
-5.36936
-3.99192
-2.78483
-2.14938
-1.83089
-1.75751
-1.91415
-2.13169
-2.32483
-2.4309
-2.14169
-1.85215
-1.3514
-0.984545
-0.651249
-0.685087
-1.30997
-2.17738
-3.29956
-5.44374
-4.3337
-3.20656
-2.34964
-1.66814
-1.37025
-1.29706
-1.40628
-1.5999
-1.72721
-1.79572
-1.72272
-1.42135
-1.00251
-0.670479
-0.451643
-0.609707
-1.01463
-1.81133
-2.64551
-4.31142
-3.33914
-2.36681
-1.75382
-1.24265
-1.01668
-1.03338
-1.08384
-1.23321
-1.43217
-1.39458
-1.33494
-1.01981
-0.758776
-0.477551
-0.358604
-0.508745
-0.72939
-1.35767
-2.06091
-3.28845
-2.58309
-1.78044
-1.25264
-0.932913
-0.752397
-0.681618
-0.787458
-0.886477
-1.01106
-1.07481
-1.0677
-0.795596
-0.608076
-0.293165
-0.27047
-0.273871
-0.497271
-1.00195
-1.4936
-2.23794
-1.82376
-1.13959
-0.882514
-0.599892
-0.453051
-0.44473
-0.533994
-0.662478
-0.727844
-0.72319
-0.701472
-0.634835
-0.411241
-0.25585
-0.149454
-0.148512
-0.352078
-0.79905
-1.11205
-1.35794
-1.02455
-0.718233
-0.546949
-0.382028
-0.267676
-0.219981
-0.305982
-0.405156
-0.479996
-0.383474
-0.389687
-0.334813
-0.222242
-0.167809
-0.047259
-0.149175
-0.27099
-0.4031
-0.663401
-0.487402
-0.34315
-0.233902
-0.117781
-0.0660501
-0.0514377
-0.0670626
-0.111561
-0.0830399
-0.140911
-0.20136
-0.0947327
-0.0901888
-0.118736
-0.0855245
0.0100966
-0.0353618
-0.11502
-0.196766
-0.215581
-8.17344
-6.48823
-4.95219
-3.69099
-2.84128
-2.58741
-2.46663
-2.64676
-2.89519
-3.182
-3.21704
-3.13641
-2.60685
-2.03832
-1.50021
-1.13679
-1.27148
-1.72474
-2.78125
-4.02598
-6.72237
-5.44426
-3.95932
-2.97839
-2.24003
-1.91429
-1.8516
-2.07342
-2.32852
-2.5326
-2.57757
-2.43093
-2.08901
-1.65136
-1.10329
-0.946662
-0.94982
-1.42313
-2.31428
-3.44966
-5.4672
-4.24263
-3.12892
-2.32244
-1.77688
-1.52194
-1.40891
-1.50964
-1.79178
-2.0254
-2.06813
-1.97823
-1.70454
-1.23387
-0.959352
-0.686941
-0.803478
-1.06419
-1.90061
-2.75928
-4.26765
-3.30185
-2.41595
-1.76408
-1.23092
-1.0992
-1.0224
-1.14215
-1.36852
-1.5523
-1.62986
-1.50848
-1.28012
-0.877522
-0.638646
-0.46623
-0.610064
-0.844997
-1.49456
-2.17494
-3.24216
-2.52375
-1.84574
-1.24618
-0.863564
-0.728293
-0.753279
-0.918213
-1.00309
-1.06568
-1.16063
-1.11998
-0.955589
-0.655354
-0.456634
-0.297027
-0.433771
-0.638022
-1.13811
-1.61678
-2.27302
-1.69973
-1.30032
-0.801664
-0.690947
-0.481107
-0.547945
-0.56201
-0.672314
-0.776554
-0.839091
-0.818302
-0.632606
-0.456353
-0.374489
-0.237944
-0.322744
-0.459599
-0.835643
-1.16505
-1.2594
-1.03587
-0.651136
-0.573966
-0.395254
-0.29158
-0.25175
-0.350172
-0.438936
-0.484969
-0.515747
-0.415198
-0.446425
-0.298412
-0.167772
-0.155677
-0.0612464
-0.274077
-0.515608
-0.703313
-0.346099
-0.324057
-0.225243
-0.124526
-0.117103
-0.0800925
-0.101766
-0.135904
-0.117875
-0.130127
-0.204683
-0.17477
-0.189618
-0.0661433
-0.0887881
-0.036129
-0.0795764
-0.0862131
-0.10744
-0.230386
-7.91827
-6.19891
-4.82731
-3.66003
-2.89681
-2.52102
-2.41704
-2.67505
-2.95136
-3.18889
-3.2012
-3.07672
-2.66641
-2.11812
-1.61729
-1.38296
-1.43703
-1.89481
-2.91617
-4.11648
-6.47089
-5.13717
-3.86988
-2.79001
-2.10473
-1.87805
-1.97174
-1.98836
-2.18394
-2.54323
-2.63182
-2.49283
-2.16175
-1.72702
-1.26537
-1.04775
-1.14642
-1.56232
-2.43149
-3.34917
-5.26353
-4.07746
-3.08894
-2.21698
-1.70189
-1.51611
-1.48515
-1.53154
-1.8194
-2.01677
-2.16748
-2.02157
-1.65935
-1.30489
-0.947982
-0.761821
-0.82116
-1.15001
-1.96832
-2.75642
-4.05824
-3.27119
-2.39755
-1.72192
-1.21526
-1.04644
-1.04369
-1.1657
-1.34903
-1.49091
-1.56077
-1.45267
-1.29556
-0.994815
-0.664821
-0.580792
-0.600713
-0.848168
-1.52641
-2.20391
-3.06438
-2.42068
-1.66251
-1.26345
-0.922199
-0.774404
-0.743419
-0.854994
-0.983232
-1.12379
-1.22456
-1.13468
-1.03576
-0.756946
-0.477087
-0.436735
-0.453008
-0.618767
-1.1642
-1.69162
-2.13217
-1.65578
-1.23326
-0.812545
-0.64121
-0.477483
-0.500285
-0.559211
-0.706696
-0.866793
-0.81392
-0.817351
-0.601067
-0.441202
-0.286751
-0.226964
-0.325998
-0.511477
-0.790581
-1.07731
-1.31754
-1.0303
-0.743395
-0.435482
-0.293674
-0.317298
-0.292905
-0.308585
-0.318318
-0.426437
-0.52912
-0.461692
-0.408655
-0.3223
-0.123944
-0.1477
-0.165425
-0.256798
-0.482155
-0.686149
-0.39036
-0.394003
-0.298718
-0.0920594
-0.0716679
-0.113648
-0.160732
-0.121232
-0.0876536
-0.179412
-0.138563
-0.124614
-0.103895
-0.0350744
-0.107617
0.00981234
-0.114959
-0.0717604
-0.181087
-0.192414
-7.57137
-5.94971
-4.5007
-3.30011
-2.59922
-2.24384
-2.20669
-2.4849
-2.65748
-2.94946
-3.05231
-2.86908
-2.48708
-2.0093
-1.54561
-1.32162
-1.34525
-1.90794
-2.73622
-3.99674
-6.02219
-4.77539
-3.60602
-2.61647
-2.00223
-1.77909
-1.74331
-1.86919
-2.13726
-2.43671
-2.41457
-2.31733
-1.9913
-1.59225
-1.26531
-1.00339
-1.08285
-1.50959
-2.30644
-3.2769
-4.93665
-3.87619
-2.79055
-2.00472
-1.60755
-1.27817
-1.3073
-1.44252
-1.6162
-1.85936
-2.01498
-1.79685
-1.54209
-1.27597
-0.882292
-0.744418
-0.745283
-1.14133
-1.83249
-2.61338
-3.91826
-3.04252
-2.172
-1.53944
-1.09652
-0.943843
-1.0929
-1.11348
-1.28312
-1.42
-1.5015
-1.45753
-1.23454
-0.871314
-0.630812
-0.532129
-0.625847
-0.887692
-1.36902
-1.98607
-2.91802
-2.28314
-1.58073
-1.08133
-0.873692
-0.728759
-0.697517
-0.714282
-0.905094
-1.0415
-1.03012
-1.08882
-0.955491
-0.662162
-0.431772
-0.283494
-0.499537
-0.683319
-1.06742
-1.45787
-2.02717
-1.57365
-1.11093
-0.769616
-0.530695
-0.425674
-0.486224
-0.548127
-0.627759
-0.670101
-0.784759
-0.65419
-0.537519
-0.458588
-0.3443
-0.192182
-0.39419
-0.462111
-0.763693
-1.12187
-1.11852
-0.990869
-0.599882
-0.415369
-0.262946
-0.339636
-0.22094
-0.245132
-0.37601
-0.389633
-0.450435
-0.417015
-0.347242
-0.304448
-0.201024
-0.118174
-0.135979
-0.307129
-0.337663
-0.665788
-0.363244
-0.284744
-0.157092
-0.17424
-0.0961349
-0.121785
-0.00847814
-0.043571
-0.113542
-0.140845
-0.150645
-0.199776
-0.0857954
-0.0699746
-0.0133836
-0.0566796
-0.0428705
-0.163516
-0.18413
-0.244243
-7.07983
-5.47432
-4.03589
-2.97128
-2.28231
-1.95853
-1.8561
-2.06361
-2.3824
-2.52755
-2.62937
-2.53212
-2.15904
-1.64796
-1.2769
-1.03895
-1.1002
-1.6406
-2.64856
-3.6756
-5.67198
-4.47986
-3.1799
-2.24506
-1.71658
-1.3942
-1.43033
-1.57354
-1.73685
-1.94853
-2.07384
-1.94564
-1.6902
-1.19694
-0.903057
-0.769643
-0.858707
-1.23392
-2.12106
-3.06896
-4.54932
-3.49637
-2.53359
-1.72251
-1.2689
-1.01158
-1.03609
-1.16508
-1.44189
-1.51431
-1.63646
-1.54752
-1.24913
-0.99271
-0.662026
-0.572954
-0.661967
-1.03088
-1.62722
-2.43451
-3.53243
-2.74662
-1.93501
-1.33152
-0.915091
-0.752307
-0.739543
-0.843413
-0.981544
-1.14472
-1.22114
-1.10655
-1.02374
-0.721186
-0.470288
-0.356929
-0.422247
-0.779009
-1.33574
-1.95214
-2.65828
-2.08535
-1.45623
-0.844306
-0.620252
-0.521217
-0.48566
-0.560626
-0.739182
-0.846503
-0.986941
-0.92311
-0.715835
-0.565977
-0.361967
-0.285326
-0.312526
-0.546261
-1.04086
-1.44944
-1.80219
-1.35908
-1.01753
-0.654228
-0.364303
-0.329902
-0.301508
-0.41406
-0.534679
-0.577377
-0.572545
-0.57554
-0.455063
-0.38595
-0.131983
-0.152837
-0.199323
-0.366265
-0.676317
-0.984492
-1.04636
-0.799909
-0.548903
-0.332783
-0.266498
-0.117658
-0.129178
-0.239332
-0.267186
-0.331827
-0.392879
-0.353934
-0.31473
-0.22084
-0.135745
-0.18014
-0.115755
-0.183539
-0.399781
-0.556927
-0.282543
-0.323251
-0.208155
-0.113674
-0.0314933
-0.109307
-0.0324249
-0.0990577
-0.098061
-0.118187
-0.0872342
-0.123448
-0.117748
-0.0391091
0.016024
0.0043805
-0.0436189
-0.029735
-0.0954583
-0.155946
-6.48807
-4.83326
-3.51274
-2.44457
-1.81495
-1.39637
-1.40619
-1.53223
-1.75961
-1.94572
-1.95794
-1.84049
-1.58027
-1.10252
-0.745992
-0.585539
-0.715976
-1.21288
-2.20271
-3.19038
-5.20422
-3.90692
-2.77196
-1.82176
-1.28368
-0.974991
-0.953757
-1.11716
-1.26391
-1.44602
-1.53465
-1.41541
-1.11859
-0.825797
-0.582688
-0.394438
-0.511364
-0.896105
-1.74231
-2.64661
-4.11629
-3.15328
-2.09301
-1.35866
-0.834671
-0.709126
-0.612521
-0.722124
-0.836972
-1.12047
-1.16411
-1.09109
-0.832459
-0.511829
-0.369744
-0.248523
-0.316801
-0.698388
-1.39959
-2.00626
-3.22219
-2.31718
-1.62694
-0.916509
-0.598254
-0.42664
-0.457461
-0.551593
-0.622804
-0.868375
-0.886587
-0.768154
-0.609746
-0.340791
-0.177833
-0.154109
-0.236928
-0.512527
-1.01188
-1.61893
-2.41583
-1.74264
-1.12374
-0.723035
-0.369195
-0.216093
-0.185962
-0.331907
-0.494909
-0.401046
-0.584038
-0.527254
-0.495975
-0.263917
-0.0842403
-0.0481947
-0.0942619
-0.366559
-0.732627
-1.17781
-1.6287
-1.14585
-0.751381
-0.443677
-0.278422
-0.154061
-0.17054
-0.23791
-0.255926
-0.339697
-0.365825
-0.268388
-0.249116
-0.230676
-0.0652085
0.0205197
-0.0620615
-0.248168
-0.507484
-0.784277
-1.09964
-0.743006
-0.393402
-0.258833
-0.130611
-0.0643961
-0.00999637
-0.136735
-0.196281
-0.165558
-0.224804
-0.214948
-0.193701
-0.131933
-0.0469634
-0.0843694
0.0447336
-0.116896
-0.315691
-0.514036
-0.260133
-0.238053
-0.179398
-0.0679109
-0.0364246
-0.0200787
-0.0372234
-0.0590756
-0.0888903
-0.0343521
-0.0372836
-0.0440852
-0.0439536
-0.0337939
0.0124955
0.0150968
-0.0199703
-0.0503243
-0.0956394
-0.221734
-5.6421
-4.17669
-2.88485
-1.78723
-1.14114
-0.776807
-0.708517
-0.840017
-1.05455
-1.11672
-1.14862
-1.06913
-0.727619
-0.409893
-0.101458
-0.0508166
-0.181914
-0.684854
-1.54349
-2.70158
-4.53557
-3.27065
-2.08148
-1.28396
-0.661131
-0.446515
-0.338714
-0.440963
-0.583189
-0.762566
-0.877868
-0.778084
-0.520234
-0.252721
-0.00814182
0.172354
-0.0610071
-0.376472
-1.25856
-2.06268
-3.49739
-2.51699
-1.6159
-0.893998
-0.467106
-0.164865
-0.137598
-0.223577
-0.314264
-0.523878
-0.561825
-0.541219
-0.293377
0.0161684
0.172224
0.232422
0.0272212
-0.310389
-1.02738
-1.69175
-2.73947
-1.85814
-1.17265
-0.531157
-0.207959
-0.0113582
-0.0296567
-0.0219839
-0.150667
-0.357072
-0.377134
-0.273447
-0.154068
-0.00118955
0.24822
0.23028
0.0565093
-0.1218
-0.707999
-1.31059
-1.93881
-1.38687
-0.869262
-0.412835
-0.0582092
0.0186784
0.154003
-0.00774231
-0.104867
-0.191831
-0.153208
-0.207081
-0.0632174
-0.00444247
0.209743
0.168898
0.176211
-0.148263
-0.467794
-0.953975
-1.30999
-0.982861
-0.5217
-0.305597
0.0313561
0.063538
0.0518009
0.0303872
0.00255509
-0.133366
-0.0867853
-0.128946
-0.0438826
-0.0096739
0.14741
0.0963509
0.100291
-0.0144694
-0.338316
-0.618966
-0.793381
-0.522698
-0.325605
-0.123355
-0.0534491
-0.00294603
0.0343915
-0.00252937
-0.0590331
-0.0813152
-0.101308
0.0196213
0.0656771
0.0772828
0.11946
0.203371
0.175834
-0.0564837
-0.190369
-0.416678
-0.256535
-0.131931
-0.0705649
-0.0527043
0.0268094
0.0535199
0.0207391
0.0176045
-0.0951813
-0.033155
0.0383739
0.000316536
-0.0126716
0.0380249
0.0869011
0.0449439
0.0363447
-0.0106637
-0.112997
-0.0547542
-4.75865
-3.28878
-1.90932
-0.963025
-0.245748
-0.015492
0.113436
0.14742
-0.0232956
-0.0401528
-0.162679
-0.0627123
0.179499
0.455918
0.637225
0.724166
0.573273
-0.00974685
-0.846304
-1.9748
-3.68735
-2.58606
-1.35132
-0.569526
0.0178421
0.278574
0.351775
0.368251
0.234045
0.110725
-0.00193275
0.13495
0.289
0.606956
0.805657
0.712384
0.542234
0.163635
-0.610828
-1.42276
-2.83184
-1.93378
-1.01483
-0.249367
0.148235
0.414698
0.505024
0.374003
0.350282
0.279743
0.18719
0.243182
0.506803
0.509108
0.698683
0.799939
0.664156
0.255209
-0.351955
-1.19352
-2.12525
-1.36586
-0.604009
-0.0896444
0.36059
0.482265
0.484376
0.482978
0.389593
0.264611
0.299503
0.292925
0.373517
0.584558
0.69264
0.681767
0.561507
0.308285
-0.243008
-0.822857
-1.48756
-0.943753
-0.336332
0.0259204
0.267732
0.432919
0.447815
0.44998
0.373269
0.278393
0.253779
0.303088
0.338482
0.462967
0.560898
0.614973
0.482982
0.225493
-0.136196
-0.598917
-1.10511
-0.702636
-0.246568
0.0306266
0.247004
0.311647
0.303782
0.412099
0.323164
0.207982
0.158389
0.273029
0.303912
0.321907
0.399382
0.492348
0.397372
0.169644
-0.116863
-0.384564
-0.664982
-0.348598
-0.134636
0.0402532
0.19047
0.223955
0.29488
0.182238
0.108122
0.0941474
0.155911
0.132799
0.186472
0.211251
0.321033
0.277562
0.149332
0.141269
-0.0422917
-0.240925
-0.2161
-0.114561
-0.105401
0.0540982
-0.0290175
0.0408751
0.061665
0.0415987
0.0169135
0.0861627
0.0559074
0.0553724
0.0157031
0.0413463
0.101987
0.0305098
0.0174598
0.0130973
-0.000825819
-0.0563159
-3.78493
-2.34207
-1.01843
-0.0804169
0.60506
1.0413
1.10377
1.1269
1.08012
0.966794
0.989066
1.08104
1.29257
1.49484
1.63995
1.63859
1.36246
0.864783
0.000125579
-1.0607
-2.78775
-1.72247
-0.560077
0.308156
0.809048
1.15218
1.22383
1.15742
1.16176
1.06893
1.00002
1.19182
1.34782
1.41344
1.64042
1.60572
1.40803
0.861559
0.186657
-0.700894
-2.13633
-1.22257
-0.263053
0.462421
0.867444
1.19005
1.17065
1.22117
1.1034
1.02583
1.04939
1.01988
1.19841
1.35991
1.43513
1.44154
1.18057
0.818393
0.258965
-0.500501
-1.56723
-0.84088
-0.0896739
0.359128
0.898707
0.980629
1.15458
1.11316
0.990941
1.04938
0.964384
0.987461
1.01018
1.28356
1.27447
1.22831
1.10937
0.723898
0.178494
-0.236975
-1.10808
-0.499941
-0.0289087
0.432403
0.744871
0.878587
0.862431
0.930744
0.890992
0.767131
0.826247
0.866568
0.917033
0.931996
1.06445
1.00756
0.930169
0.637711
0.231817
-0.183358
-0.777131
-0.361171
0.0828613
0.415592
0.58506
0.716338
0.773107
0.602523
0.612025
0.680208
0.602804
0.598906
0.691839
0.701216
0.759632
0.826899
0.65965
0.460386
0.207579
-0.135972
-0.420925
-0.263588
0.0991816
0.257509
0.320024
0.424229
0.404914
0.352165
0.403677
0.440458
0.391587
0.362511
0.393645
0.350813
0.39542
0.452379
0.429985
0.334654
0.130736
-0.148404
-0.204791
-0.0670338
-0.0297016
0.0827464
0.122919
0.20364
0.21962
0.156867
0.150949
0.137179
0.141305
0.111913
0.109222
0.22276
0.0653206
0.103725
0.179319
0.0468521
0.0383162
-0.00386154
-2.70114
-1.34894
-0.068766
1.01295
1.71221
2.01303
2.2631
2.28767
2.24521
2.25707
2.26779
2.30644
2.43994
2.63435
2.67742
2.6993
2.31936
1.85356
0.946788
-0.119307
-1.96923
-0.788866
0.205375
1.13503
1.65143
2.0485
2.07352
2.17309
2.14244
2.08052
2.15979
2.1275
2.31495
2.36388
2.45878
2.39034
2.2034
1.64223
0.933992
0.0979201
-1.31331
-0.40279
0.479965
1.11304
1.60851
1.93106
1.98516
1.9611
1.96126
1.90106
1.8915
1.93133
2.02304
2.23694
2.22985
2.21197
1.9968
1.55596
0.844758
0.177487
-0.877575
-0.196496
0.549596
1.04309
1.50504
1.66774
1.65716
1.7421
1.62522
1.67469
1.6411
1.68469
1.81274
1.86942
1.81405
1.87417
1.60989
1.31241
0.914085
0.217571
-0.628623
-0.0512747
0.449475
0.835237
1.26706
1.40043
1.42552
1.39063
1.42171
1.36275
1.35899
1.30958
1.3986
1.45295
1.49158
1.57878
1.26818
1.08255
0.67132
0.290344
-0.389256
-0.0147926
0.41054
0.63722
0.864485
1.07712
0.960286
1.00037
1.0359
1.05763
0.920743
0.959584
0.992634
1.02215
1.08085
1.02927
0.951563
0.770605
0.586989
0.191012
-0.263532
0.0307941
0.287819
0.523194
0.571193
0.561788
0.650995
0.65142
0.648209
0.585198
0.549622
0.586583
0.610442
0.650696
0.638176
0.652486
0.560734
0.568853
0.315241
0.141324
-0.0701524
-0.00523976
0.0722934
0.17796
0.246294
0.222861
0.194588
0.242661
0.210352
0.25442
0.295845
0.14141
0.190951
0.199086
0.14544
0.250689
0.256116
0.194663
0.067662
0.0971106
-1.69957
-0.308644
1.0844
1.98851
2.67464
3.058
3.31121
3.34974
3.36688
3.39951
3.43068
3.50966
3.607
3.84418
3.72152
3.68855
3.32989
2.73225
1.886
0.763571
-1.08547
0.00239639
1.21515
1.9922
2.60577
2.92818
3.13709
3.13489
3.1957
3.05806
3.09503
3.13752
3.29245
3.39602
3.39928
3.33949
3.04582
2.46946
1.72065
0.908374
-0.54958
0.340055
1.19793
1.96461
2.33465
2.63173
2.77409
2.76123
2.82218
2.80376
2.78415
2.79026
2.8037
2.90557
3.01343
2.99085
2.60753
2.25115
1.58772
0.855916
-0.253709
0.289098
1.17417
1.62747
1.98291
2.28899
2.38774
2.37233
2.41201
2.43861
2.36125
2.37566
2.47211
2.51675
2.57164
2.42344
2.26948
1.89595
1.39558
0.826577
-0.152846
0.398295
0.947074
1.33266
1.68115
1.82779
1.81776
1.89803
1.88266
1.78258
1.81251
1.8657
1.87805
1.89239
1.9826
1.90291
1.76305
1.43912
1.15722
0.708974
-0.0341839
0.309891
0.715105
1.07462
1.25444
1.38108
1.43657
1.40126
1.45821
1.34257
1.41754
1.32428
1.42887
1.54631
1.46626
1.42883
1.36578
1.09197
0.773694
0.426963
0.0284333
0.237948
0.390913
0.645291
0.739245
0.785454
0.822321
0.871698
0.732773
0.86044
0.882781
0.820959
0.799658
0.788333
0.819576
0.78992
0.763507
0.738418
0.550765
0.283392
-0.0310996
0.070872
0.0804599
0.171961
0.204657
0.308168
0.281765
0.327129
0.232838
0.343763
0.260773
0.295999
0.251447
0.307462
0.252973
0.290911
0.272009
0.18774
0.154794
0.0895948
-0.75467
0.605799
1.85338
2.86289
3.50698
3.84765
4.1121
4.284
4.24755
4.31144
4.35808
4.50113
4.47148
4.56755
4.6676
4.4286
4.13088
3.45123
2.58546
1.70284
-0.28761
0.755038
1.85337
2.75959
3.26614
3.58959
3.81257
3.83138
3.90076
3.82683
3.93075
3.97927
4.06647
4.12883
4.18265
3.9234
3.70354
3.28677
2.2906
1.547
-0.00493634
0.8716
1.79224
2.3823
2.96844
3.17621
3.38607
3.39313
3.42971
3.42293
3.36324
3.38585
3.53813
3.51568
3.55034
3.4418
3.11809
2.74739
2.06486
1.39534
0.103657
0.797915
1.55607
2.09622
2.48836
2.66565
2.85243
2.9172
2.91545
2.83274
2.87636
2.85827
2.9373
2.96344
3.00681
2.85863
2.5958
2.31107
1.87046
1.15122
0.149715
0.701196
1.17656
1.66814
2.00344
2.18565
2.23506
2.26696
2.22632
2.27366
2.23618
2.17873
2.28653
2.26254
2.31763
2.3009
2.06882
1.77543
1.32002
0.933052
0.117805
0.578733
0.955526
1.23722
1.42401
1.5978
1.57793
1.67477
1.62551
1.71025
1.62446
1.58068
1.68057
1.64907
1.67198
1.61894
1.45289
1.25654
1.01111
0.726153