/*--------------------------------*- C++ -*----------------------------------*\
| =========                 |                                                 |
| \\      /  F ield         | OpenFOAM: The Open Source CFD Toolbox           |
|  \\    /   O peration     | Version:  2212                                  |
|   \\  /    A nd           | Website:  www.openfoam.com                      |
|    \\/     M anipulation  |                                                 |
\*---------------------------------------------------------------------------*/
FoamFile
{
    version     2.0;
    format      ascii;
    arch        "LSB;label=32;scalar=64";
    class       volScalarField;
    location    "0";
    object      relativeErrorField;
}
// * * * * * * * * * * * * * * * * * * * * * * * * * * * * * * * * * * * * * //

dimensions      [0 0 0 1 0 0 0];

internalField   nonuniform List<scalar> 
3200
(
0.0250577
0.0183969
0.0124327
0.00736628
0.00343379
0.000526275
0.0015344
0.00314294
0.00443207
0.00548532
0.00607151
0.00629985
0.00698527
0.00757756
0.00744793
0.00684149
0.00533693
0.0023325
0.0021953
0.00795985
0.0207799
0.0154134
0.00985189
0.00543668
0.00237399
0.000203235
0.001658
0.00333299
0.00449251
0.00512162
0.0058334
0.00633419
0.00659664
0.00683347
0.00678872
0.00634111
0.00521415
0.00254411
0.00157663
0.00640771
0.0173231
0.01246
0.00793796
0.00402066
0.00138476
0.000619327
0.00213577
0.00334131
0.00402858
0.00476594
0.00548723
0.00563968
0.00586945
0.00602583
0.00603652
0.00578593
0.00426956
0.002437
0.00109664
0.00495693
0.0136378
0.00985107
0.00596021
0.0031646
0.000878071
0.000927052
0.0020579
0.00317403
0.00369854
0.00414341
0.00438605
0.00499737
0.00502306
0.00533052
0.00509371
0.00477405
0.0038818
0.00210183
0.000473173
0.00389278
0.0105125
0.00748678
0.00455616
0.00220262
0.000405447
0.000861175
0.00197562
0.00237681
0.00321734
0.00353458
0.00372093
0.00384328
0.00446915
0.00420093
0.00431315
0.00385962
0.00313458
0.00159874
0.000537099
0.00278251
0.00740992
0.00518279
0.00327275
0.0015708
0.000331515
0.000635254
0.00142077
0.0019812
0.00238363
0.00267217
0.0027661
0.0028515
0.00319015
0.00329193
0.003276
0.00277466
0.00230934
0.00111118
0.000385464
0.00203007
0.00437225
0.00325811
0.00175728
0.000967816
8.10833e-05
0.000493726
0.000612374
0.00146272
0.00162342
0.00170582
0.0017518
0.00176703
0.00199943
0.00192187
0.00184938
0.00203117
0.00155643
0.000737444
0.000178073
0.00109667
0.00172337
0.000919689
0.000465666
0.000340601
6.63746e-05
0.000275997
0.000669532
0.000562465
0.000293586
0.000248746
0.000687777
0.000696389
0.000285217
0.00062023
0.000382392
0.000386436
0.000384618
0.00021367
0.000170382
0.000553374
0.0245927
0.0181317
0.011885
0.0070099
0.00340748
0.000823196
0.00103467
0.00273758
0.00357391
0.00441512
0.00508709
0.00564238
0.00596879
0.00659795
0.00692262
0.00640257
0.00512304
0.00250501
0.00213549
0.007279
0.0204759
0.0152819
0.00969749
0.00536961
0.00223637
0.000134972
0.00156752
0.00275993
0.00366428
0.0042538
0.00492757
0.00541586
0.00570493
0.00605029
0.00639054
0.00621874
0.0049235
0.00253241
0.00158713
0.00589364
0.016668
0.0123108
0.00779942
0.0042313
0.00150118
0.000426259
0.00162382
0.00294913
0.0035822
0.00413909
0.00443241
0.00513291
0.00531033
0.00562871
0.00593758
0.00537166
0.00452752
0.00217106
0.00100295
0.00467284
0.0133772
0.00975806
0.00595365
0.00284016
0.000743528
0.000676391
0.00185811
0.00268002
0.0029809
0.00387788
0.00376914
0.00437592
0.00441993
0.00477168
0.00493656
0.00479982
0.00377211
0.00214909
0.000893012
0.00383527
0.0103653
0.00734811
0.00452084
0.00196038
0.000544577
0.000710222
0.00153978
0.00211152
0.00290878
0.00296948
0.00331043
0.00361502
0.00395363
0.00411326
0.00385782
0.00389027
0.00312987
0.00187036
0.000496846
0.00261249
0.00725956
0.00512003
0.00318428
0.0017803
0.000185346
0.000776723
0.00126901
0.00137968
0.00216176
0.00232993
0.00233034
0.00275334
0.00261724
0.0028253
0.00289692
0.00294356
0.00224298
0.00113078
0.000392031
0.00216367
0.00436246
0.00321439
0.00183856
0.000878975
0.000100854
0.000304983
0.000871155
0.000941428
0.00139238
0.00169675
0.0015125
0.00167458
0.00178053
0.00191574
0.00190471
0.00162682
0.00145436
0.000657746
0.000225581
0.00137422
0.0016215
0.000986215
0.000712903
0.000182025
0.000129354
0.000148266
3.96223e-05
0.000412117
0.000268155
0.000318473
0.000534245
0.000436712
0.000629698
0.000553425
0.00035402
0.000496182
0.000494349
0.00028325
6.97736e-05
0.00057046
0.0242902
0.0180094
0.011856
0.00695246
0.00383985
0.00133548
0.000119854
0.00150617
0.00201873
0.00276726
0.00348676
0.00380434
0.00454985
0.0054866
0.00561027
0.00589299
0.00477595
0.0020183
0.00234346
0.00754377
0.0202054
0.014777
0.00961857
0.00542635
0.00258401
0.000409163
0.000933468
0.00170744
0.00245854
0.00290631
0.00343031
0.00411273
0.00453257
0.00521246
0.00530167
0.00558218
0.00460179
0.00214921
0.00168895
0.00606553
0.016495
0.0118291
0.00757345
0.00423653
0.00186993
5.46039e-05
0.00106154
0.0018237
0.00259026
0.00308987
0.00322312
0.00378376
0.00418398
0.00431197
0.00509541
0.00502828
0.00415566
0.00201106
0.00118246
0.00491833
0.0133346
0.00952376
0.0059688
0.00316446
0.00120985
0.000124932
0.00134473
0.00196787
0.00250341
0.00267653
0.00309064
0.00326374
0.00375222
0.00392412
0.00411815
0.00404234
0.00326512
0.00195115
0.000890143
0.00390042
0.0102271
0.00743962
0.00460122
0.00217319
0.000452228
0.000281205
0.00110731
0.00172281
0.00222794
0.00218355
0.00255316
0.00256517
0.00343962
0.00324114
0.0035512
0.00342014
0.00278935
0.00163352
0.000264053
0.00295039
0.00719058
0.00537573
0.0032824
0.00164051
0.000434027
0.000364559
0.00101398
0.0012079
0.00161942
0.00192429
0.00216547
0.00191938
0.00223441
0.0025844
0.00262229
0.00237545
0.00206928
0.00107659
0.000294054
0.00207952
0.00458528
0.00309003
0.00185701
0.000851578
0.000235183
0.000408422
0.000693247
0.000424426
0.000976042
0.00121032
0.00121057
0.00110322
0.00174751
0.00175373
0.00175792
0.00151648
0.00134079
0.000766374
0.000325555
0.00127084
0.00146405
0.000955389
0.000757617
0.0003612
1.27758e-05
0.000133285
0.000308247
0.000349509
0.000310366
0.000589983
0.000587426
0.000537515
0.000504337
0.000452648
0.000458684
0.00038663
0.000465419
0.000315272
3.62601e-05
0.000551001
0.0239899
0.0178317
0.0119358
0.00720402
0.00431333
0.00235833
0.000810103
4.74281e-05
0.000708513
0.00110787
0.00151654
0.00203291
0.00270015
0.00368601
0.0045389
0.00454804
0.00396332
0.00143544
0.00269712
0.00772379
0.0198618
0.0149958
0.00979223
0.00586256
0.00319443
0.00123204
6.20089e-05
0.000488046
0.00119317
0.00131976
0.00142309
0.00212814
0.00298019
0.00349914
0.00406143
0.00413205
0.00358818
0.00143158
0.00206258
0.00629992
0.0162367
0.0120188
0.00759351
0.0045679
0.0021879
0.000705974
0.00035779
0.000868676
0.0013467
0.00157884
0.00182134
0.00191762
0.00309981
0.00345474
0.00366761
0.00402125
0.00325066
0.00140942
0.00153752
0.0050168
0.0132577
0.00943465
0.00593423
0.00338784
0.00151507
0.000235982
0.000820432
0.0009711
0.00153092
0.00159264
0.0018085
0.00219354
0.00264852
0.00315296
0.00316348
0.00345715
0.00278242
0.00138123
0.00107036
0.00407467
0.0102371
0.0072953
0.0045471
0.00267432
0.00108836
0.00010393
0.000579961
0.00101001
0.00139108
0.00143214
0.00149153
0.00190754
0.00220538
0.0024557
0.00292802
0.00292412
0.00255099
0.00113297
0.000780104
0.00282709
0.00711527
0.00520457
0.00317476
0.00145506
0.000517849
0.000173387
0.000663331
0.000991381
0.00116524
0.00100876
0.00110386
0.00119505
0.00155458
0.00171493
0.00218418
0.00182073
0.00168001
0.000889349
0.000644539
0.00222029
0.00434086
0.00306591
0.00195419
0.00104683
0.000371163
9.21145e-06
0.000362917
0.00062909
0.00079727
0.00099451
0.000791187
0.00100723
0.00102401
0.00113671
0.00146266
0.00122853
0.00125954
0.000455687
0.000537463
0.00115736
0.00133189
0.000997671
0.000704435
0.000174885
3.78937e-05
0.000142257
0.0001527
0.000290436
0.000339348
0.000335228
0.000598644
0.00028354
0.000505385
0.000362703
0.000435022
0.000436799
0.000303289
0.000294836
0.000380655
0.000270385
0.0237467
0.0178945
0.0124565
0.00802734
0.00537799
0.00322158
0.00212281
0.00131341
0.00148072
0.00119665
0.000895262
0.000280324
0.000894902
0.00193494
0.00260056
0.00316798
0.00261061
0.000174835
0.00360357
0.00810152
0.0199744
0.0148382
0.00997777
0.00613984
0.00383149
0.00217379
0.00119494
0.000848909
0.000526895
0.000473542
8.14328e-05
0.000462753
0.00101222
0.00203045
0.00256141
0.00306873
0.0024957
0.000464456
0.00287598
0.00695244
0.0165695
0.0122685
0.00803455
0.00483183
0.00275988
0.00145266
0.000443215
2.04955e-05
6.36803e-05
1.25417e-06
0.000100243
0.000642899
0.00123262
0.0018316
0.00261974
0.00285017
0.00233984
0.000567797
0.00217883
0.00546972
0.0129991
0.00979875
0.00648234
0.00364514
0.00213315
0.000842736
0.000259541
6.35469e-05
0.000227315
0.00016793
0.00044523
0.000748996
0.00135647
0.00204811
0.00231846
0.00248757
0.00194855
0.00082159
0.00167473
0.00446484
0.00987573
0.00734996
0.00479347
0.00263918
0.00123834
0.000394645
0.000178866
0.000229683
0.000136038
0.000403178
0.000288366
0.0006941
0.00107836
0.00170073
0.00185071
0.00222872
0.00182512
0.000470443
0.00151314
0.00343526
0.0070079
0.00533557
0.00319765
0.00211412
0.00101962
0.000213059
0.000164175
0.000366089
0.000331623
0.000400481
0.000396839
0.00056026
0.000576537
0.00121991
0.00120377
0.00182626
0.00135386
0.000709328
0.000853502
0.00230594
0.00416506
0.00310517
0.0020051
0.00100503
0.000541811
0.000389793
4.93808e-05
0.000259534
6.03102e-05
0.000263193
0.000722371
0.000356994
0.000558588
0.000919077
0.000803411
0.00109834
0.000674017
0.000356637
0.000654977
0.00137989
0.00146453
0.00139899
0.00056571
0.000450378
6.10737e-05
2.38027e-05
4.70705e-05
0.000229827
0.000177511
4.95249e-05
8.52181e-05
0.000134209
0.000355005
0.00024641
0.000335986
0.000317373
0.000478085
7.56843e-05
0.000303705
0.000641308
0.0240353
0.0183488
0.0126151
0.00882533
0.00615429
0.00436644
0.00313992
0.00314688
0.0030949
0.00329374
0.00292217
0.0024585
0.00133467
0.000273928
0.00109936
0.00169785
0.00117081
0.000879139
0.00470464
0.00913034
0.0200091
0.0152747
0.0103955
0.00692275
0.00454168
0.00315714
0.00230565
0.00202996
0.0021832
0.00239072
0.00204009
0.00175246
0.000858397
6.08087e-05
0.00127597
0.00152211
0.00117766
0.000570346
0.00382791
0.00764546
0.0164316
0.0126463
0.00821158
0.00545347
0.00331066
0.00210008
0.00167219
0.00145346
0.0016785
0.00147241
0.00164905
0.000842698
0.000413141
0.00060367
0.00136996
0.00161472
0.00119864
0.000423964
0.00301347
0.00610864
0.013154
0.00978689
0.00663372
0.00427877
0.00215351
0.0012953
0.000987315
0.000911517
0.001002
0.000742826
0.00111298
0.000812463
0.000108157
0.000536373
0.00144221
0.00169319
0.00114351
3.58074e-05
0.00224451
0.00499489
0.0102689
0.00772286
0.0052287
0.00318377
0.00166926
0.00106519
0.000573901
0.000455066
0.000719988
0.000751924
0.000833722
0.000416248
5.25321e-06
0.000638264
0.00110827
0.00150084
0.00112681
1.33038e-05
0.00192499
0.00377739
0.00712273
0.00536843
0.00371584
0.00233088
0.00109381
0.000510119
0.000378891
0.000259813
0.000225778
0.000558403
0.000168708
0.000268711
0.000312933
0.000403113
0.000834311
0.00109916
0.00091936
0.000173873
0.00109714
0.00283347
0.00454751
0.00333178
0.00234428
0.00107208
0.000696944
0.000540275
2.92728e-05
3.98445e-05
0.000151664
0.00048425
0.00028444
0.00014075
0.000184262
0.000540841
0.000231456
0.000509177
0.000560958
2.03287e-05
0.000796603
0.0014697
0.00167301
0.000966749
0.000762744
0.000305834
0.000349838
0.000388146
6.0423e-05
5.68298e-05
9.64618e-05
0.000329581
0.000146774
9.62367e-06
4.0503e-05
5.04224e-05
0.000103862
0.00037424
8.7424e-05
6.80507e-05
0.000458719
0.000537725
0.0239274
0.0186107
0.0134161
0.00936066
0.00689914
0.00537721
0.00462314
0.00457847
0.00505503
0.00514989
0.0052705
0.00471243
0.00339249
0.00218193
0.000945668
0.000143119
0.000295064
0.00194647
0.00584134
0.0100787
0.0200542
0.0152764
0.0107764
0.00755749
0.00507761
0.00369547
0.00348851
0.00345433
0.00397532
0.00406785
0.00414114
0.00357673
0.00265787
0.00125002
0.000259107
0.000281251
9.17687e-05
0.00190792
0.004899
0.00846633
0.0164703
0.0126224
0.00900262
0.00595238
0.00413014
0.00299633
0.00252568
0.00248603
0.00290824
0.00315208
0.00336643
0.00287143
0.00183448
0.00110344
5.17132e-05
0.000435464
0.000133634
0.00123564
0.00397717
0.00686449
0.0134778
0.01031
0.00691245
0.00449136
0.00299474
0.00215603
0.001564
0.00183353
0.0019381
0.00221972
0.00249635
0.00203235
0.00149763
0.0005303
1.96577e-05
0.000660527
0.000371704
0.000954693
0.00295072
0.00561007
0.0101382
0.00782227
0.00538727
0.00350685
0.0022696
0.00147309
0.00122688
0.00127739
0.00148647
0.00177339
0.00175194
0.00167136
0.00123088
0.000171554
0.000377993
0.000472427
0.000165295
0.000726928
0.00214913
0.0040666
0.00747361
0.00549127
0.00376379
0.00231845
0.00141308
0.000968957
0.00066784
0.000888264
0.000753083
0.00112664
0.00126677
0.000973819
0.000554676
0.000184656
0.000259341
0.000393385
0.000420346
0.000374441
0.00171766
0.00292055
0.00442453
0.00358307
0.00223917
0.00130403
0.00102534
0.000362849
0.000417948
0.000649219
0.000444189
0.000648558
0.000573688
0.000571458
0.000289378
0.00013845
0.000243114
0.000165514
0.00048153
0.000185371
0.000818049
0.00179967
0.00135629
0.00108233
0.000767944
0.000543867
0.000398691
0.000126505
0.000224999
0.000165444
0.000171966
0.000340157
0.000198856
0.000142181
5.07843e-05
0.000164747
1.0139e-05
2.32543e-05
0.000129472
0.000156586
0.000158025
0.000669108
0.0240268
0.0186314
0.0138391
0.00993952
0.00765566
0.0062811
0.00573093
0.00591604
0.00641722
0.00684932
0.0070331
0.00636729
0.00520001
0.00345829
0.00213767
0.00153169
0.00165512
0.00333723
0.00681058
0.0109583
0.0200668
0.0155764
0.0113107
0.00819118
0.00591509
0.00480067
0.00442163
0.00468893
0.00496856
0.00555005
0.00570153
0.00511506
0.00425631
0.00267962
0.00173523
0.000842992
0.00116211
0.00278135
0.00550104
0.00879122
0.0166185
0.0128039
0.00900772
0.0062772
0.00454277
0.00383619
0.00325501
0.00353357
0.00375894
0.00438588
0.00432936
0.00423415
0.00337335
0.00222287
0.000893975
0.000448305
0.000648537
0.00226907
0.00473344
0.00748715
0.0131621
0.0104354
0.0072648
0.00511928
0.00335638
0.00247541
0.00212514
0.00256803
0.00309763
0.00338822
0.00349026
0.00292592
0.00246397
0.00179514
0.000753028
0.00029279
0.000553942
0.00152034
0.0038224
0.00606016
0.0102017
0.00778571
0.00559709
0.00387333
0.00251141
0.00176669
0.00174778
0.00192017
0.00240501
0.00231568
0.00282177
0.00242239
0.00186681
0.00119364
0.00041219
0.000236325
0.000298853
0.00129207
0.0028877
0.00471146
0.00702234
0.00549913
0.00394733
0.00266872
0.00143278
0.00135539
0.00124763
0.00103297
0.00165587
0.001662
0.00164294
0.00152207
0.00159007
0.000840878
0.000280994
5.5115e-05
7.81583e-05
0.000927214
0.00204275
0.00348626
0.00452836
0.00331143
0.00247394
0.00157533
0.00111098
0.000718273
0.00070965
0.000804507
0.00112853
0.00110156
0.00117986
0.00091061
0.000737729
0.000220003
0.000272771
1.50307e-05
6.3947e-05
0.000331936
0.00118902
0.00186033
0.0015888
0.000964221
0.000939603
0.00043268
0.000416053
0.000277393
4.44389e-06
0.000259697
0.000401833
0.000434358
0.000381234
0.000407782
0.000369973
0.000220189
0.000298529
0.000167713
0.000144065
0.000201318
0.000595437
0.000589291
0.0237775
0.0186942
0.0138806
0.0103156
0.00817313
0.00682431
0.00654714
0.00671064
0.00755725
0.00812716
0.00822521
0.00803447
0.0065284
0.0050215
0.00339058
0.00287428
0.0027004
0.00443291
0.0078313
0.0114708
0.0197928
0.0155808
0.0115615
0.00804896
0.00619958
0.00527057
0.0050504
0.0054925
0.00611033
0.0066603
0.0069642
0.00613901
0.0053146
0.00388341
0.0028342
0.00187843
0.0019801
0.00379398
0.00631832
0.00958918
0.0161384
0.0128312
0.00947828
0.00693303
0.0049134
0.00402913
0.00380812
0.00412359
0.0046871
0.00505769
0.00525829
0.00504691
0.00416778
0.00294333
0.0019715
0.00133029
0.00179905
0.00299916
0.00536297
0.00784286
0.0130437
0.0100916
0.00714313
0.00528531
0.00373929
0.00305497
0.00310121
0.0032492
0.00369422
0.00428853
0.00417597
0.00399896
0.00305725
0.0022771
0.00143497
0.00107908
0.00153315
0.00220133
0.00410316
0.00623504
0.0101571
0.00797188
0.00548878
0.00385713
0.00286924
0.00231144
0.00209188
0.00241468
0.00271669
0.00309752
0.00329281
0.00327206
0.00243963
0.00186618
0.000900634
0.00083185
0.000843304
0.001533
0.00309221
0.00461331
0.00706025
0.00575016
0.00359016
0.00277789
0.00188666
0.00142367
0.00139649
0.00167576
0.00207805
0.00228257
0.00226797
0.00220036
0.00199221
0.00129133
0.000803986
0.000470034
0.000467473
0.00110919
0.00251934
0.00350828
0.00437764
0.00330168
0.00231342
0.00176079
0.00122921
0.000860839
0.000707131
0.000983209
0.00130154
0.00154174
0.00123171
0.00125184
0.00107585
0.000714398
0.000539668
0.00015206
0.000480239
0.000872856
0.00129902
0.00213863
0.00160637
0.00113081
0.000770665
0.000387997
0.000217544
0.000169387
0.000220806
0.000367272
0.000273351
0.000463831
0.000662806
0.000311841
0.000296912
0.000390942
0.000281636
3.32544e-05
0.00011649
0.00037897
0.000648418
0.000710506
0.0232095
0.018394
0.0140107
0.0104201
0.00800404
0.00727402
0.00692181
0.00741612
0.00810351
0.0089013
0.00899932
0.00877867
0.00730429
0.00571989
0.00421755
0.00320241
0.00358954
0.00487963
0.00788477
0.0114323
0.0194734
0.0157486
0.0114326
0.00858376
0.00644356
0.00549662
0.00530801
0.005936
0.00666003
0.00724014
0.0073687
0.00695292
0.00598064
0.00473398
0.00316794
0.00272312
0.0027374
0.00410929
0.00669454
0.009993
0.0161628
0.0125276
0.00922476
0.00683583
0.00522146
0.00446534
0.00412791
0.00441797
0.00523936
0.00591995
0.00604486
0.00578457
0.00498834
0.00361508
0.00281471
0.00201862
0.00236495
0.00313748
0.0056121
0.00815733
0.0128813
0.00995635
0.00727563
0.00530524
0.00369675
0.00329685
0.00306294
0.00341839
0.00409311
0.00464111
0.004873
0.0045117
0.00383134
0.0026289
0.00191551
0.0014002
0.00183468
0.00254471
0.00450667
0.00656473
0.00999569
0.00777477
0.00568028
0.00383093
0.00265183
0.00223412
0.00230862
0.00281196
0.00307022
0.00326085
0.00355139
0.00342799
0.00292642
0.0020085
0.00140078
0.000912112
0.00133348
0.00196352
0.00350613
0.00498459
0.00716124
0.00535207
0.00409138
0.00252038
0.00217056
0.00151022
0.00171885
0.00176199
0.00210697
0.00243315
0.00262909
0.00256449
0.00198332
0.00143154
0.00117554
0.000747487
0.00101469
0.0014461
0.00263126
0.00367053
0.00405663
0.00333548
0.00209569
0.00184641
0.00127088
0.000937097
0.000808751
0.00112455
0.00140926
0.00155685
0.00165566
0.00133304
0.00143366
0.000958655
0.000539195
0.000500557
0.000197026
0.000882119
0.00166025
0.00226543
0.00114034
0.00106759
0.000741937
0.000410111
0.0003856
0.000263689
0.000334996
0.000447319
0.000387946
0.00042825
0.000673618
0.000575199
0.000624117
0.000217733
0.000292318
0.000118967
0.000262076
0.000283981
0.000353956
0.000759086
0.0223927
0.0175036
0.0136049
0.0102947
0.00813189
0.00706378
0.0067612
0.00747275
0.00823664
0.00889506
0.00892941
0.0085865
0.00744862
0.00592503
0.00453159
0.00388221
0.00404197
0.00534019
0.00823428
0.0116413
0.018677
0.0148079
0.0111364
0.00801473
0.00603559
0.00537667
0.00563662
0.00567729
0.00623038
0.00725214
0.00750474
0.00711159
0.00617235
0.00493703
0.00362264
0.00300458
0.00329326
0.00449589
0.00700876
0.00966675
0.0155121
0.0120032
0.00908016
0.0065071
0.00498771
0.00443692
0.00434078
0.00447171
0.00530825
0.00588183
0.00632137
0.00589811
0.00484489
0.00381391
0.00277429
0.00223266
0.0024102
0.00338055
0.00579434
0.00812342
0.0122172
0.00983882
0.00720253
0.00516629
0.00364155
0.00313194
0.00312039
0.00348212
0.00402727
0.0044494
0.00465787
0.00433669
0.00387004
0.00297427
0.00198978
0.00174036
0.00180233
0.002548
0.004591
0.00663483
0.00942803
0.00744221
0.00510644
0.00387678
0.00282685
0.00237156
0.00227474
0.00261432
0.00300496
0.00343365
0.00374154
0.00346781
0.00316707
0.00231613
0.00146105
0.00133874
0.00139002
0.00190055
0.00357923
0.00520453
0.00670733
0.005206
0.00387486
0.0025511
0.0020117
0.00149699
0.00156751
0.00175125
0.00221232
0.00271299
0.0025475
0.00255872
0.00188232
0.00138239
0.000899012
0.000712066
0.00102352
0.00160704
0.0024857
0.00338897
0.00423996
0.00331454
0.00239054
0.00139974
0.000943514
0.00101898
0.00094028
0.00099031
0.00102132
0.00136806
0.00169747
0.00148133
0.00131145
0.00103465
0.000398037
0.000474527
0.000531715
0.000825786
0.00155112
0.00220808
0.00128576
0.00129763
0.000983663
0.0003031
0.000235926
0.000374066
0.000528973
0.000398935
0.000288417
0.000590315
0.000455913
0.000410031
0.000341882
0.000115431
0.000354215
3.23015e-05
0.000378495
0.000236303
0.000596399
0.000633774
0.0213143
0.0167255
0.01263
0.00924402
0.00726762
0.00626334
0.00615039
0.00691733
0.0073913
0.00819968
0.00848561
0.00797982
0.00692339
0.00560022
0.00431434
0.00369535
0.0037682
0.00535412
0.00769189
0.0112513
0.0173121
0.0137111
0.0103377
0.00748877
0.00572159
0.00507633
0.0049676
0.00532052
0.00607889
0.0069278
0.00686485
0.00659103
0.00566809
0.00453715
0.00361034
0.0028673
0.00309929
0.00432768
0.00662225
0.00942016
0.0144983
0.0113721
0.00817616
0.00586555
0.004697
0.00372975
0.00381035
0.00420052
0.00470316
0.00540886
0.00586158
0.00522883
0.00449046
0.00371903
0.00257456
0.00217507
0.0021806
0.00334405
0.00537622
0.00767518
0.0117617
0.00912515
0.00650709
0.00460662
0.00327745
0.00281803
0.00325992
0.00331871
0.00382218
0.00422868
0.00447141
0.00434172
0.00367952
0.00259897
0.00188341
0.00159051
0.00187278
0.00265943
0.00410598
0.00596171
0.00895708
0.00700358
0.00484467
0.00331101
0.00267277
0.00222747
0.00213034
0.00218017
0.00276136
0.00317679
0.00314208
0.00332188
0.00291641
0.00202236
0.00131972
0.000867255
0.00152957
0.00209426
0.00327431
0.00447503
0.00636631
0.00493967
0.00348494
0.00241262
0.00166252
0.00133267
0.00152139
0.00171429
0.00196271
0.00209474
0.00245316
0.00204535
0.00168112
0.00143492
0.00107791
0.000602053
0.00123572
0.00144963
0.00239721
0.00352323
0.00359576
0.00318447
0.00192715
0.00133384
0.000844025
0.00108977
0.00070867
0.000786043
0.00120548
0.00124902
0.00144393
0.00133694
0.00111347
0.000976523
0.000645012
0.000379325
0.000436656
0.000986666
0.00108518
0.00214035
0.00119603
0.000937461
0.000517122
0.000573491
0.000316371
0.00040073
2.78938e-05
0.000143338
0.000373501
0.000463296
0.000495534
0.00065717
0.000282246
0.000230222
4.40382e-05
0.000186527
0.000141103
0.00053827
0.000606211
0.000804202
0.0198312
0.015314
0.011272
0.00828476
0.0063533
0.00544365
0.00515196
0.00572165
0.0066004
0.00699971
0.00728171
0.00701521
0.00598623
0.00457422
0.00354909
0.00289216
0.00306766
0.00458209
0.00740915
0.0102957
0.0162335
0.0128071
0.00907791
0.00639969
0.00488613
0.00396309
0.00406094
0.00446318
0.00492298
0.00552102
0.00587607
0.00551478
0.00479407
0.00339828
0.00256699
0.00219073
0.0024478
0.00352257
0.00606372
0.00878352
0.0133099
0.0102195
0.00739639
0.00502216
0.00369498
0.0029422
0.00301036
0.00338229
0.00418339
0.00439215
0.00474644
0.00448985
0.00362629
0.00288433
0.00192552
0.00166841
0.00193003
0.00300947
0.0047562
0.00712264
0.0105698
0.00821201
0.00577954
0.00397274
0.00272742
0.00224004
0.00220011
0.00250735
0.00291653
0.00340051
0.00362751
0.00328797
0.00304345
0.0021455
0.00140031
0.00106382
0.00125982
0.00232676
0.00399369
0.00584123
0.00813914
0.00638099
0.00445234
0.00257922
0.00189318
0.00158965
0.00148018
0.0017077
0.00225069
0.00257693
0.00300445
0.00281072
0.00218047
0.00172497
0.00110396
0.000870895
0.000954717
0.00167016
0.00318493
0.00443791
0.0056493
0.00425839
0.00318635
0.0020474
0.00113938
0.00103119
0.000941964
0.00129306
0.00166926
0.00180229
0.0017872
0.00179682
0.00142111
0.00120578
0.000412546
0.000478006
0.000623779
0.00114694
0.00211909
0.00308607
0.00335998
0.00256789
0.00176147
0.00106751
0.000854557
0.000377152
0.000413948
0.00076674
0.000855823
0.00106278
0.00125831
0.00113368
0.00100829
0.000707677
0.000435129
0.00057764
0.000371323
0.000588987
0.00128339
0.00178835
0.000929943
0.00106383
0.000684959
0.000374009
0.000103605
0.00035955
0.000106646
0.000325773
0.000322475
0.000388645
0.000286861
0.000405961
0.00038724
0.00012863
5.27086e-05
1.44108e-05
0.000143514
9.78465e-05
0.000314157
0.000513272
0.018075
0.0134487
0.00975996
0.0067818
0.00502761
0.00386274
0.0038852
0.00422929
0.00485354
0.00536495
0.00539866
0.00507663
0.00436188
0.00304619
0.00206362
0.00162201
0.00198628
0.00336993
0.00612912
0.00888802
0.0148232
0.0111166
0.00787699
0.00516986
0.00363807
0.00275985
0.00269683
0.00315613
0.00356851
0.00408138
0.00433152
0.00399626
0.00316015
0.00233502
0.00164938
0.00111788
0.00145117
0.00254643
0.00495749
0.00753838
0.0119931
0.00917918
0.00608595
0.00394604
0.00242142
0.00205503
0.00177341
0.00208916
0.00242013
0.00323898
0.00336515
0.00315491
0.00240837
0.00148188
0.00107151
0.000720976
0.000920105
0.00203074
0.00407419
0.00584537
0.00960806
0.00690445
0.00484325
0.00272569
0.0017775
0.00126648
0.00135692
0.00163509
0.00184536
0.00257238
0.00262633
0.00227602
0.00180748
0.00101085
0.000527898
0.000457881
0.000704622
0.00152574
0.00301507
0.00482739
0.00737639
0.00531786
0.00342668
0.00220308
0.00112407
0.000657463
0.000565436
0.00100869
0.00150353
0.00121815
0.00177397
0.00160179
0.0015073
0.000802466
0.000256301
0.000146736
0.000287215
0.00111777
0.0022357
0.00359627
0.00509516
0.00358316
0.00234834
0.00138587
0.000869191
0.000480706
0.000531881
0.000741719
0.000797679
0.00105863
0.00114006
0.000836519
0.000776656
0.000719432
0.000203466
6.40594e-05
0.000193855
0.000775616
0.00158694
0.0024535
0.00352668
0.00238231
0.00126095
0.000829333
0.000418348
0.000206196
3.19992e-05
0.000437601
0.000628067
0.000529716
0.000719276
0.000687797
0.000619914
0.00042233
0.000150376
0.000270236
0.000143332
0.000374678
0.0010122
0.00164858
0.00085582
0.00078311
0.000590087
0.000223351
0.000119782
6.60213e-05
0.000122383
0.000194214
0.000292215
0.000112924
0.000122561
0.000144924
0.0001445
0.000111108
4.10868e-05
4.96457e-05
6.56801e-05
0.00016553
0.00031462
0.000729491
0.0156262
0.0115549
0.00797029
0.00493095
0.00314417
0.00213768
0.00194764
0.00230709
0.00289454
0.00306419
0.00315173
0.00293455
0.00199839
0.00112675
0.000279201
0.000140015
0.0005019
0.00189212
0.00427008
0.00748221
0.0128518
0.00925874
0.0058854
0.00362597
0.00186485
0.00125809
0.000953435
0.00124029
0.00163943
0.00214308
0.00246711
0.0021873
0.00146325
0.000711374
2.29403e-05
0.000486159
0.000172287
0.00106448
0.00356281
0.00584473
0.0101443
0.00729469
0.00467839
0.00258557
0.00134955
0.000475866
0.000396831
0.000644359
0.000905294
0.00150875
0.00161804
0.00155908
0.000845527
4.66294e-05
0.000497108
0.000671505
7.87277e-05
0.000898643
0.00297752
0.00490697
0.00813808
0.00551623
0.00347827
0.0015741
0.000615758
3.36043e-05
8.76804e-05
6.4959e-05
0.000445019
0.00105445
0.0011137
0.000807669
0.000455247
3.51691e-06
0.000734381
0.000681849
0.000167467
0.000361278
0.00210183
0.00389332
0.00590223
0.00421977
0.00264307
0.00125438
0.000176743
5.66776e-05
0.000467045
2.34695e-05
0.000317787
0.000581222
0.0004642
0.000627532
0.000191633
1.34727e-05
0.000636445
0.000512833
0.000535408
0.000450809
0.00142334
0.00290414
0.00408917
0.00306687
0.00162708
0.0009526
9.76932e-05
0.000197866
0.000161249
9.45595e-05
7.94913e-06
0.000414866
0.000269966
0.000401163
0.000136555
3.01135e-05
0.000459056
0.000300191
0.000312625
4.5127e-05
0.00105566
0.00193213
0.00254105
0.00167371
0.00104229
0.000394744
0.000170987
9.42181e-06
0.000109961
8.08555e-06
0.000188682
0.000259881
0.000323778
6.27137e-05
0.000209948
0.000247098
0.000382049
0.000650595
0.000562679
0.000180809
0.000609572
0.00133454
0.000843592
0.00043381
0.000232004
0.000173262
8.81248e-05
0.000175907
6.81583e-05
5.78525e-05
0.000312773
0.000108947
0.000126096
1.04016e-06
4.1642e-05
0.000124968
0.000285623
0.000147734
0.000119481
3.50601e-05
0.000371552
0.000180054
0.013097
0.0090424
0.00524323
0.00264128
0.000673195
4.23912e-05
0.000310095
0.000402685
6.35981e-05
0.000109588
0.000443995
0.000171207
0.000490309
0.00124633
0.00174365
0.00198376
0.00157231
2.6766e-05
0.00232689
0.00543513
0.0103905
0.00728086
0.00380043
0.00159995
5.00695e-05
0.000780977
0.000985342
0.00103078
0.000654803
0.000309704
5.40603e-06
0.00037756
0.000808947
0.00170012
0.00225864
0.00199913
0.00152328
0.000460206
0.00171974
0.00400918
0.00817453
0.00557801
0.00292455
0.000717942
0.00042638
0.0011918
0.0014503
0.0010734
0.0010049
0.000802356
0.000536896
0.000697645
0.00145454
0.00146203
0.00200795
0.00230092
0.00191214
0.000735469
0.00101522
0.00344529
0.00628817
0.00403882
0.00178465
0.000264656
0.00106374
0.00142165
0.00142697
0.00142213
0.00114676
0.000778732
0.000881417
0.000862215
0.00109983
0.00172211
0.0020418
0.0020112
0.00165773
0.000910881
0.00071857
0.00243466
0.00451408
0.0028625
0.00101949
7.85195e-05
0.000810523
0.00130985
0.00135424
0.00136024
0.00112803
0.000841189
0.000766814
0.000915943
0.00102319
0.00140006
0.00169707
0.00186175
0.00146308
0.000683516
0.000413096
0.00181744
0.00344157
0.00218742
0.000767258
9.52573e-05
0.0007679
0.000968457
0.000943664
0.00127976
0.00100337
0.000645677
0.000491716
0.000847708
0.000943789
0.00099997
0.0012411
0.00153064
0.00123593
0.000527889
0.000363812
0.00119763
0.00212675
0.00111465
0.000430382
0.000128637
0.000608512
0.0007153
0.000941617
0.000581821
0.00034515
0.000300521
0.000497672
0.000423925
0.000595339
0.000674573
0.00102536
0.00088675
0.000477221
0.000451584
0.000135229
0.000770527
0.000710273
0.000376509
0.000346371
0.000177761
9.5339e-05
0.000134286
0.000202571
0.000136644
5.55553e-05
0.000283009
0.000183633
0.00018188
5.15817e-05
0.000135824
0.000335055
0.000100242
5.7371e-05
4.30408e-05
2.71409e-06
0.000185098
0.0103485
0.00639767
0.00277887
0.000219177
0.0016473
0.00283215
0.00299945
0.00306018
0.00293174
0.00262348
0.00268392
0.00293422
0.00351007
0.00406218
0.00446039
0.00446114
0.0037134
0.00235964
3.43036e-07
0.0029001
0.0078099
0.00482167
0.00156627
0.000860897
0.00225806
0.00321287
0.00341005
0.00322303
0.00323372
0.00297465
0.00278289
0.00331739
0.00375321
0.00393838
0.00457437
0.00448156
0.00393364
0.00240937
0.000522503
0.00196356
0.00613589
0.00350903
0.000754374
0.00132496
0.00248337
0.00340431
0.00334658
0.00348914
0.00315145