/*--------------------------------*- C++ -*----------------------------------*\
| =========                 |                                                 |
| \\      /  F ield         | OpenFOAM: The Open Source CFD Toolbox           |
|  \\    /   O peration     | Version:  2212                                  |
|   \\  /    A nd           | Website:  www.openfoam.com                      |
|    \\/     M anipulation  |                                                 |
\*---------------------------------------------------------------------------*/
FoamFile
{
    version     2.0;
    format      ascii;
    arch        "LSB;label=32;scalar=64";
    class       volScalarField;
    location    "0";
    object      stateMean;
}
// * * * * * * * * * * * * * * * * * * * * * * * * * * * * * * * * * * * * * //

dimensions      [0 0 0 1 0 0 0];

internalField   nonuniform List<scalar> 
3200
(
354.546
353.062
352.036
351.404
351.191
351.308
351.629
351.942
352.127
352.093
351.885
351.467
350.586
349.5
348.508
347.595
346.972
346.902
347.445
348.632
346.84
345.709
344.711
344.179
344.132
344.228
344.63
344.812
344.964
345.038
344.791
344.326
343.683
342.843
341.961
341.14
340.533
340.48
340.998
341.956
339.452
338.403
337.645
337.155
337.116
337.269
337.52
337.754
337.987
337.983
337.739
337.44
336.897
336.204
335.441
334.702
334.371
334.17
334.605
335.326
332.028
331.248
330.585
330.338
330.276
330.356
330.605
330.76
330.966
331.02
330.939
330.535
330.146
329.521
328.979
328.411
328.018
327.935
328.172
328.836
324.825
324.205
323.737
323.5
323.457
323.572
323.695
323.972
323.995
324.049
323.988
323.792
323.293
322.973
322.454
322.078
321.777
321.754
321.969
322.34
317.665
317.212
316.947
316.781
316.772
316.842
316.938
317.051
317.134
317.154
317.124
316.986
316.667
316.344
316.004
315.788
315.554
315.562
315.698
315.968
310.56
310.364
310.102
310.081
310.036
310.083
310.254
310.165
310.242
310.283
310.269
310.197
309.998
309.847
309.662
309.381
309.299
309.33
309.411
309.547
303.609
303.415
303.345
303.382
303.376
303.347
303.298
303.388
303.513
303.549
303.416
303.391
303.472
303.313
303.315
303.239
303.162
303.139
303.084
303.255
354.522
353.1
351.966
351.389
351.279
351.496
351.877
352.146
352.484
352.52
352.282
351.752
351.005
349.917
348.776
347.845
347.155
346.961
347.553
348.532
346.855
345.776
344.762
344.251
344.169
344.417
344.724
345.063
345.297
345.381
345.147
344.69
344.044
343.176
342.17
341.265
340.726
340.586
341.112
341.898
339.333
338.448
337.686
337.306
337.226
337.396
337.746
337.931
338.177
338.232
338.133
337.651
337.131
336.391
335.536
334.912
334.364
334.346
334.667
335.33
332.024
331.295
330.654
330.296
330.289
330.489
330.714
330.96
331.237
331.137
331.173
330.773
330.382
329.749
329.08
328.46
328.119
327.991
328.386
328.898
324.841
324.22
323.781
323.472
323.547
323.661
323.871
324.087
324.12
324.255
324.144
323.891
323.489
323.036
322.641
322.113
321.829
321.721
322.015
322.348
317.661
317.234
316.958
316.883
316.759
316.825
317.01
317.263
317.223
317.28
317.28
317.035
316.869
316.516
316.152
315.768
315.61
315.595
315.742
316.054
310.584
310.375
310.151
310.075
310.061
310.158
310.189
310.339
310.324
310.296
310.353
310.237
310.078
309.864
309.662
309.526
309.352
309.378
309.451
309.66
303.587
303.444
303.428
303.341
303.323
303.392
303.494
303.439
303.525
303.531
303.466
303.473
303.373
303.338
303.33
303.211
303.136
303.126
303.166
303.269
354.693
353.319
352.198
351.59
351.627
351.847
352.346
352.707
353.144
353.204
352.949
352.512
351.632
350.455
349.407
348.218
347.494
347.368
347.882
348.894
346.999
345.829
344.944
344.46
344.458
344.66
345.071
345.537
345.81
345.936
345.754
345.236
344.559
343.593
342.692
341.652
341.024
340.924
341.369
342.19
339.476
338.476
337.787
337.469
337.494
337.684
338.044
338.406
338.596
338.663
338.618
338.191
337.606
336.944
335.945
335.17
334.649
334.574
334.915
335.61
332.173
331.372
330.803
330.535
330.56
330.775
330.973
331.273
331.462
331.598
331.46
331.209
330.681
330.118
329.454
328.826
328.416
328.198
328.538
329.081
324.922
324.369
323.919
323.643
323.608
323.88
324.08
324.273
324.394
324.559
324.439
324.284
323.716
323.387
322.821
322.356
322.04
321.908
322.059
322.582
317.729
317.4
317.069
316.912
316.902
317.012
317.14
317.359
317.432
317.443
317.366
317.337
317.033
316.642
316.296
316.013
315.738
315.692
315.796
316.117
310.706
310.388
310.204
310.11
310.142
310.161
310.273
310.525
310.476
310.468
310.468
310.436
310.114
309.943
309.743
309.599
309.431
309.392
309.533
309.681
303.558
303.452
303.458
303.41
303.371
303.408
303.422
303.466
303.519
303.456
303.457
303.45
303.419
303.379
303.309
303.258
303.159
303.132
303.173
303.281
355.005
353.652
352.593
352.012
352.093
352.472
352.904
353.455
353.783
353.955
353.811
353.314
352.484
351.318
350.047
348.987
348.109
347.934
348.393
349.366
347.24
346.243
345.32
344.899
344.928
345.173
345.613
346.132
346.402
346.629
346.593
346.078
345.269
344.383
343.348
342.409
341.659
341.481
341.832
342.623
339.69
338.826
338.061
337.824
337.821
338.098
338.451
338.875
339.148
339.297
339.215
338.954
338.119
337.402
336.62
335.728
335.195
335.04
335.317
335.94
332.393
331.577
331.01
330.807
330.841
331.053
331.285
331.724
331.892
332.057
331.986
331.672
331.167
330.512
329.928
329.199
328.773
328.602
328.83
329.381
325.116
324.504
324.07
323.96
323.953
324.128
324.359
324.598
324.75
324.881
324.862
324.582
324.209
323.75
323.145
322.655
322.272
322.237
322.405
322.731
317.842
317.476
317.156
316.964
317.028
317.161
317.328
317.495
317.636
317.789
317.759
317.627
317.316
316.994
316.523
316.287
315.971
315.871
316.036
316.297
310.712
310.459
310.307
310.237
310.244
310.344
310.422
310.502
310.567
310.568
310.631
310.502
310.379
310.182
309.887
309.748
309.523
309.561
309.676
309.727
303.545
303.49
303.466
303.376
303.406
303.509
303.485
303.498
303.522
303.544
303.464
303.539
303.433
303.421
303.334
303.262
303.231
303.163
303.303
303.223
355.479
354.205
353.269
352.754
352.878
353.142
353.689
354.187
354.814
355.011
354.904
354.388
353.405
352.257
351.093
349.878
349.031
348.862
349.232
350.046
347.759
346.648
345.811
345.388
345.503
345.815
346.284
346.841
347.22
347.459
347.323
346.876
346.196
345.169
344.181
343.128
342.423
342.236
342.562
343.319
340.206
339.296
338.57
338.244
338.314
338.618
338.958
339.372
339.814
340.01
339.976
339.574
338.961
338.187
337.241
336.421
335.83
335.68
335.914
336.492
332.636
332.011
331.484
331.164
331.291
331.473
331.837
332.196
332.478
332.676
332.584
332.305
331.766
331.072
330.426
329.764
329.318
329.078
329.34
329.834
325.254
324.766
324.378
324.159
324.193
324.393
324.639
324.984
325.278
325.329
325.366
325.096
324.708
324.145
323.665
323.07
322.716
322.679
322.884
323.179
317.989
317.691
317.325
317.322
317.324
317.406
317.595
317.79
317.988
318.064
318.065
317.915
317.723
317.259
316.956
316.422
316.224
316.09
316.275
316.504
310.766
310.574
310.42
310.315
310.379
310.535
310.614
310.673
310.848
310.844
310.701
310.756
310.58
310.314
310.165
309.87
309.794
309.689
309.816
309.904
303.621
303.646
303.457
303.49
303.442
303.498
303.539
303.535
303.588
303.677
303.636
303.601
303.497
303.478
303.389
303.327
303.208
303.308
303.314
303.371
356.282
355.034
353.954
353.615
353.68
354.022
354.476
355.217
355.735
356.086
355.954
355.509
354.576
353.463
352.095
350.92
350.112
349.851
350.277
351.097
348.377
347.376
346.497
346.159
346.206
346.568
347.038
347.582
348.097
348.412
348.29
347.948
347.176
346.219
345.036
344.116
343.374
343.128
343.46
344.154
340.669
339.91
339.087
338.878
338.887
339.187
339.687
340.153
340.619
340.754
340.814
340.335
339.799
338.915
338.012
337.224
336.636
336.468
336.677
337.209
333.103
332.405
331.908
331.718
331.614
331.908
332.334
332.749
333.097
333.178
333.302
333.034
332.482
331.828
331.001
330.341
329.927
329.733
329.922
330.42
325.702
325.195
324.808
324.604
324.578
324.832
325.082
325.386
325.719
325.86
325.886
325.62
325.24
324.689
324.126
323.551
323.209
323.115
323.324
323.609
318.254
317.921
317.696
317.584
317.523
317.659
317.909
318.116
318.282
318.48
318.356
318.296
317.933
317.661
317.232
316.827
316.554
316.465
316.57
316.898
311.021
310.777
310.65
310.45
310.532
310.677
310.694
310.843
310.984
311.144
311.081
310.981
310.774
310.517
310.437
310.158
309.944
309.917
309.992
310.068
303.73
303.559
303.557
303.484
303.564
303.641
303.599
303.648
303.695
303.785
303.64
303.663
303.619
303.566
303.491
303.344
303.364
303.305
303.405
303.386
357.097
355.941
355.002
354.518
354.601
354.979
355.543
356.221
356.889
357.184
357.227
356.767
355.8
354.679
353.414
352.121
351.334
350.984
351.479
352.267
349.127
348.08
347.291
346.995
346.959
347.273
347.918
348.506
349.117
349.376
349.402
348.979
348.229
347.142
346.084
345.109
344.424
344.244
344.523
345.161
341.3
340.495
339.912
339.567
339.644
339.928
340.376
340.866
341.374
341.649
341.722
341.361
340.645
339.893
338.895
338.1
337.513
337.295
337.588
338.075
333.712
333.061
332.456
332.214
332.284
332.552
332.851
333.353
333.684
333.935
334.027
333.716
333.241
332.507
331.83
331.073
330.606
330.489
330.635
331.121
326.049
325.601
325.215
325.039
325.077
325.242
325.548
325.884
326.183
326.398
326.391
326.243
325.869
325.205
324.641
324.188
323.849
323.707
323.768
324.09
318.642
318.227
317.964
317.815
317.842
318.003
318.182
318.481
318.603
318.808
318.852
318.673
318.374
318.029
317.613
317.268
316.947
316.891
317.033
317.202
311.149
311.014
310.768
310.664
310.765
310.741
310.923
311.132
311.167
311.283
311.259
311.207
311.02
310.75
310.552
310.396
310.11
310.131
310.158
310.335
303.689
303.648
303.61
303.604
303.623
303.525
303.686
303.714
303.749
303.817
303.774
303.74
303.679
303.568
303.56
303.495
303.4
303.425
303.368
303.481
358.137
356.913
356.063
355.576
355.662
356.031
356.61
357.318
357.958
358.354
358.419
357.941
357.064
355.804
354.565
353.501
352.66
352.375
352.771
353.567
349.996
349.015
348.263
347.952
347.936
348.289
348.827
349.474
349.97
350.382
350.435
350.021
349.324
348.222
347.226
346.182
345.526
345.326
345.552
346.127
342.078
341.258
340.578
340.301
340.364
340.748
341.116
341.679
342.092
342.483
342.463
342.254
341.625
340.765
339.749
338.977
338.397
338.304
338.539
339.005
334.202
333.674
333.116
332.932
332.879
333.096
333.44
333.97
334.422
334.662
334.696
334.364
333.936
333.33
332.523
331.862
331.419
331.216
331.49
331.859
326.53
326.033
325.704
325.553
325.523
325.678
326.03
326.384
326.755
326.838
327.003
326.761
326.366
325.849
325.238
324.785
324.394
324.309
324.448
324.755
318.826
318.545
318.323
318.209
318.11
318.369
318.59
318.734
319.084
319.167
319.161
319.042
318.911
318.461
318.027
317.637
317.387
317.365
317.45
317.707
311.377
311.12
311.021
310.917
310.949
310.997
311.148
311.304
311.497
311.536
311.56
311.429
311.283
310.995
310.859
310.609
310.448
310.356
310.462
310.55
303.825
303.676
303.722
303.626
303.681
303.695
303.662
303.784
303.858
303.884
303.868
303.86
303.817
303.73
303.702
303.504
303.539
303.498
303.564
303.522
359.211
358.054
357.142
356.713
356.786
357.101
357.718
358.367
359.092
359.517
359.552
359.262
358.302
357.176
355.884
354.911
354.024
353.815
354.236
354.893
350.903
349.982
349.268
348.771
348.847
349.211
349.752
350.416
350.998
351.382
351.488
351.008
350.354
349.345
348.365
347.349
346.671
346.586
346.79
347.392
342.759
342.081
341.513
341.255
341.176
341.455
341.901
342.44
342.941
343.229
343.298
343.064
342.455
341.607
340.755
339.96
339.515
339.321
339.558
339.961
334.848
334.223
333.707
333.584
333.566
333.812
334.253
334.655
335.055
335.386
335.349
335.157
334.591
333.979
333.273
332.682
332.339
332.069
332.242
332.598
327.046
326.608
326.158
326.012
326.076
326.262
326.522
326.9
327.194
327.421
327.485
327.376
326.909
326.448
325.803
325.413
325.033
324.875
325.027
325.252
319.216
318.991
318.56
318.575
318.565
318.68
318.908
319.192
319.46
319.599
319.594
319.499
319.293
318.874
318.483
318.114
317.841
317.772
317.966
318.09
311.557
311.336
311.181
311.173
311.173
311.216
311.31
311.513
311.695
311.814
311.717
311.68
311.542
311.312
311.116
310.838
310.775
310.734
310.714
310.862
303.906
303.799
303.741
303.68
303.683
303.721
303.784
303.868
303.868
303.94
304
303.88
303.846
303.836
303.756
303.607
303.597
303.622
303.653
303.635
360.332
359.225
358.409
357.91
357.822
358.293
358.824
359.54
360.171
360.658
360.693
360.412
359.5
358.395
357.206
356.118
355.49
355.182
355.518
356.185
351.93
351.141
350.278
349.957
349.879
350.181
350.683
351.368
351.956
352.333
352.378
352.058
351.384
350.482
349.37
348.586
347.929
347.742
348.011
348.658
343.725
342.906
342.316
342.067
342.08
342.357
342.721
343.214
343.776
344.156
344.199
343.962
343.409
342.546
341.794
340.99
340.548
340.251
340.564
341.017
335.575
334.935
334.476
334.281
334.204
334.507
334.82
335.261
335.717
336.02
336.098
335.856
335.399
334.676
334.047
333.439
333.127
332.905
333.128
333.482
327.598
327.131
326.784
326.539
326.512
326.714
327.043
327.457
327.72
327.876
327.971
327.837
327.495
326.945
326.443
325.945
325.727
325.576
325.745
325.973
319.679
319.283
319.119
318.875
319.017
319.049
319.333
319.525
319.762
319.933
319.995
319.908
319.596
319.241
318.942
318.564
318.396
318.279
318.419
318.571
311.714
311.597
311.354
311.429
311.402
311.444
311.534
311.739
311.905
311.991
312.022
311.881
311.835
311.58
311.32
311.163
310.916
310.977
311.077
311.158
303.851
303.864
303.813
303.764
303.807
303.818
303.884
303.954
303.961
303.987
304.062
304.018
304.008
303.848
303.827
303.726
303.719
303.674
303.647
303.735
361.528
360.349
359.648
359.187
359.126
359.414
359.904
360.649
361.272
361.69
361.702
361.398
360.64
359.605
358.51
357.612
356.964
356.716
357.066
357.726
352.934
352.058
351.369
350.901
350.824
351.173
351.781
352.219
352.715
353.23
353.319
353.024
352.393
351.536
350.56
349.767
349.257
349.061
349.352
349.812
344.582
343.774
343.274
342.919
342.918
343.219
343.623
344.027
344.568
344.898
345.048
344.771
344.154
343.443
342.651
341.978
341.523
341.335
341.665
342.074
336.231
335.749
335.274
335.021
334.935
335.164
335.518
335.932
336.322
336.573
336.643
336.426
336.062
335.469
334.783
334.301
333.9
333.724
334.004
334.377
328.093
327.685
327.235
327.164
327.15
327.312
327.558
327.897
328.186
328.411
328.512
328.338
328.078
327.572
327.015
326.665
326.354
326.191
326.428
326.721
320.018
319.708
319.505
319.32
319.382
319.439
319.66
319.881
320.144
320.364
320.311
320.254
319.923
319.601
319.249
318.968
318.833
318.783
318.843
318.963
312.062
311.873
311.717
311.551
311.55
311.706
311.801
311.914
311.992
312.136
312.239
312.136
312.014
311.83
311.513
311.404
311.281
311.231
311.325
311.43
303.991
304.028
303.978
303.818
303.845
303.932
304.018
304.011
304.001
304.104
304.064
304.038
303.994
303.892
303.926
303.763
303.841
303.751
303.815
303.793
362.796
361.678
360.85
360.3
360.243
360.494
360.996
361.714
362.199
362.653
362.756
362.411
361.716
360.798
359.796
358.966
358.345
358.257
358.464
359.222
353.882
353.061
352.428
352.002
351.946
352.248
352.679
353.186
353.725
354.166
354.144
353.905
353.308
352.528
351.734
350.947
350.469
350.332
350.592
351.137
345.435
344.727
344.094
343.784
343.859
343.974
344.398
344.857
345.258
345.62
345.776
345.439
344.956
344.367
343.578
342.995
342.524
342.444
342.683
343.111
337.055
336.464
335.962
335.719
335.663
335.874
336.346
336.63
336.987
337.221
337.303
337.162
336.752
336.124
335.561
335.098
334.806
334.678
334.79
335.123
328.696
328.28
327.863
327.667
327.76
327.898
328.119
328.34
328.676
328.888
328.877
328.86
328.581
328.083
327.601
327.169
327.086
326.965
327.064
327.236
320.448
320.149
319.89
319.766
319.742
319.839
320.078
320.287
320.471
320.567
320.682
320.497
320.277
320.051
319.757
319.403
319.39
319.241
319.339
319.543
312.184
312.148
311.879
311.824
311.801
312
311.988
312.101
312.294
312.34
312.4
312.335
312.203
312.071
311.861
311.656
311.545
311.586
311.495
311.731
304.072
304.025
303.938
303.998
303.964
304.03
303.952
304.018
304.109
304.147
304.157
304.195
304.06
304.014
303.921
303.925
303.867
303.945
303.924
303.953
364.085
362.946
362.082
361.615
361.514
361.742
362.126
362.731
363.329
363.621
363.722
363.479
362.826
361.918
361.06
360.271
359.744
359.687
360.121
360.681
355.072
354.275
353.47
353.053
353.035
353.19
353.648
354.135
354.541
354.879
355.004
354.75
354.251
353.415
352.699
352.088
351.667
351.524
351.916
352.469
346.348
345.622
345.078
344.705
344.682
344.829
345.21
345.63
346.113
346.291
346.413
346.219
345.714
345.167
344.479
343.986
343.644
343.575
343.753
344.234
337.732
337.211
336.739
336.495
336.43
336.598
336.879
337.219
337.527
337.777
337.853
337.652
337.4
336.86
336.316
335.872
335.585
335.583
335.8
336.152
329.263
328.892
328.527
328.194
328.244
328.402
328.595
328.855
329.164
329.34
329.48
329.348
329.01
328.675
328.243
327.909
327.663
327.617
327.848
328.054
320.813
320.513
320.36
320.195
320.102
320.252
320.386
320.63
320.845
320.935
320.931
320.886
320.671
320.47
320.054
319.891
319.74
319.708
319.83
319.995
312.465
312.304
312.166
312.07
312.121
312.083
312.192
312.381
312.465
312.559
312.62
312.552
312.457
312.284
312.101
312.035
311.853
311.801
311.904
311.976
304.111
304.179
304.102
304.048
304.005
304.12
304.075
304.169
304.187
304.217
304.186
304.212
304.188
304.082
303.995
303.97
303.978
303.924
303.951
303.984
365.441
364.218
363.426
362.906
362.811
362.892
363.341
363.823
364.302
364.618
364.63
364.382
363.871
363.038
362.242
361.582
361.177
361.126
361.588
362.143
356.289
355.357
354.678
354.203
354.129
354.252
354.612
355.084
355.448
355.743
355.832
355.599
355.086
354.484
353.86
353.239
352.892
352.802
353.192
353.732
347.338
346.678
346.002
345.669
345.538
345.778
346.005
346.375
346.674
347.052
347.096
346.928
346.485
345.904
345.439
344.952
344.627
344.607
344.925
345.228
338.585
337.924
337.547
337.165
337.168
337.297
337.59
337.899
338.121
338.444
338.463
338.266
337.957
337.474
337.048
336.724
336.485
336.433
336.619
336.982
329.924
329.438
329.062
328.916
328.813
328.893
329.068
329.38
329.66
329.627
329.81
329.692
329.544
329.146
328.761
328.492
328.287
328.305
328.428
328.686
321.285
320.934
320.713
320.588
320.601
320.643
320.807
320.993
321.095
321.222
321.248
321.107
321.004
320.867
320.554
320.302
320.206
320.21
320.295
320.44
312.906
312.628
312.382
312.357
312.337
312.37
312.404
312.602
312.712
312.708
312.767
312.731
312.659
312.526
312.353
312.29
312.053
312.106
312.201
312.32
304.217
304.222
304.198
304.123
304.127
304.145
304.191
304.237
304.284
304.238
304.241
304.239
304.222
304.188
304.113
304.076
304.075
304.069
304.08
304.179
366.709
365.643
364.835
364.238
364.078
364.165
364.492
364.942
365.381
365.559
365.591
365.395
364.83
364.193
363.489
362.988
362.633
362.635
363.009
363.769
357.449
356.521
355.749
355.385
355.184
355.361
355.596
355.974
356.311
356.591
356.706
356.506
356.053
355.51
354.922
354.351
354.162
354.044
354.509
354.976
348.262
347.562
347.013
346.658
346.588
346.617
346.88
347.2
347.454
347.75
347.788
347.681
347.269
346.726
346.28
345.889
345.737
345.707
346.072
346.457
339.363
338.707
338.309
337.967
337.936
338.01
338.267
338.45
338.714
338.989
339.009
338.836
338.582
338.238
337.751
337.498
337.379
337.258
337.557
337.935
330.427
330.047
329.752
329.529
329.402
329.536
329.585
329.896
330.098
330.239
330.2
330.2
329.951
329.743
329.345
329.175
328.94
329.031
329.128
329.442
321.665
321.46
321.158
321.109
320.934
321.052
321.196
321.325
321.427
321.601
321.555
321.559
321.399
321.258
320.969
320.869
320.703
320.65
320.815
320.974
313.019
312.822
312.72
312.617
312.645
312.685
312.728
312.829
312.93
312.975
312.995
312.851
312.76
312.685
312.563
312.389
312.318
312.45
312.489
312.643
304.355
304.254
304.225
304.241
304.194
304.197
304.257
304.281
304.409
304.355
304.284
304.314
304.312
304.24
304.164
304.176
304.152
304.165
304.235
304.153
368.098
366.995
366.059
365.569
365.293
365.469
365.696
365.947
366.317
366.437
366.56
366.357
365.915
365.353
364.817
364.323
364.033
364.16
364.552
365.314
358.563
357.772
356.92
356.534
356.329
356.421
356.656
356.887
357.194
357.407
357.52
357.293
356.966
356.401
355.894
355.635
355.422
355.405
355.797
356.299
349.254
348.613
348.017
347.585
347.512
347.544
347.715
348.055
348.226
348.372
348.465
348.333
347.922
347.711
347.26
346.86
346.672
346.747
347.031
347.616
340.101
339.549
339.051
338.81
338.624
338.748
338.959
339.132
339.345
339.532
339.497
339.442
339.241
338.858
338.537
338.303
338.158
338.139
338.426
338.799
331.026
330.64
330.237
330.088
330.052
330.077
330.228
330.36
330.53
330.674
330.698
330.6
330.472
330.213
329.949
329.705
329.631
329.676
329.832
330.137
322.21
321.92
321.61
321.484
321.415
321.486
321.613
321.6
321.756
321.906
321.956
321.806
321.708
321.595
321.399
321.17
321.118
321.193
321.334
321.49
313.34
313.091
312.965
312.881
312.82
312.868
312.868
313.038
313.152
313.187
313.125
313.127
313.034
312.952
312.771
312.732
312.772
312.689
312.784
312.916
304.465
304.386
304.405
304.277
304.39
304.347
304.35
304.389
304.428
304.366
304.396
304.39
304.415
304.371
304.286
304.33
304.314
304.287
304.272
304.305
369.53
368.424
367.507
366.984
366.699
366.63
366.886
367.118
367.344
367.549
367.527
367.343
366.952
366.495
366.031
365.665
365.542
365.624
366.082
366.806
359.739
358.958
358.147
357.639
357.485
357.46
357.665
357.953
358.103
358.276
358.345
358.073
357.762
357.476
356.972
356.688
356.539
356.725
357.049
357.652
350.306
349.63
348.966
348.545
348.434
348.381
348.634
348.771
349.021
349.165
349.142
349.104
348.794
348.445
348.136
347.859
347.826
347.885
348.148
348.671
340.969
340.433
339.923
339.724
339.424
339.563
339.581
339.776
340.006
340.003
340.088
340.01
339.879
339.452
339.27
339.095
338.974
339.109
339.414
339.639
331.751
331.289
331.006
330.738
330.613
330.651
330.817
330.867
330.991
331.158
331.099
331.015
330.881
330.747
330.466
330.35
330.24
330.339
330.557
330.826
322.67
322.357
322.047
321.852
321.817
321.809
321.859
322.114
322.165
322.128
322.205
322.178
322.025
321.931
321.765
321.575
321.608
321.67
321.788
322.029
313.569
313.474
313.191
313.115
313.133
313.103
313.187
313.291
313.275
313.257
313.305
313.316
313.249
313.241
313.132
313.001
312.943
312.955
313.079
313.296
304.612
304.495
304.484
304.399
304.386
304.33
304.336
304.416
304.434
304.454
304.45
304.473
304.464
304.333
304.469
304.405
304.303
304.407
304.39
304.411
370.925
369.882
368.975
368.272
367.936
367.967
368.004
368.208
368.411
368.481
368.47
368.35
368.056
367.633
367.303
366.949
366.966
367.052
367.586
368.343
361.048
360.13
359.458
358.856
358.656
358.547
358.77
358.87
359.04
359.172
359.093
359.054
358.728
358.48
358.136
357.917
357.788
358.021
358.407
358.981
351.269
350.576
349.965
349.61
349.381
349.303
349.46
349.653
349.77
349.891
349.9
349.8
349.591
349.208
349.004
348.778
348.726
348.889
349.328
349.779
341.73
341.223
340.699
340.433
340.19
340.227
340.411
340.464
340.678
340.677
340.711
340.618
340.393
340.199
340.081
339.821
339.866
339.937
340.113
340.634
332.394
331.95
331.622
331.413
331.152
331.174
331.283
331.426
331.47
331.567
331.571
331.582
331.418
331.256
331.082
330.84
330.98
330.988
331.228
331.475
323.08
322.801
322.497
322.398
322.293
322.191
322.405
322.441
322.459
322.465
322.602
322.535
322.448
322.343
322.187
322.128
322.083
322.137
322.199
322.5
313.89
313.652
313.468
313.309
313.334
313.41
313.379
313.426
313.461
313.54
313.575
313.522
313.467
313.379
313.334
313.253
313.271
313.187
313.368
313.485
304.637
304.591
304.539
304.458
304.415
304.46
304.507
304.475
304.519
304.48
304.438
304.588
304.527
304.503
304.538
304.41
304.38
304.416
304.518
304.47
372.315
371.21
370.161
369.604
369.25
369.17
369.178
369.346
369.473
369.515
369.484
369.33
369.089
368.645
368.506
368.236
368.263
368.513
369.015
369.851
362.192
361.348
360.432
359.957
359.632
359.573
359.59
359.773
359.837
360.04
360.003
359.895
359.616
359.331
359.102
358.899
358.903
359.178
359.629
360.199
352.189
351.501
350.893
350.383
350.258
350.184
350.234
350.4
350.446
350.518
350.538
350.478
350.357
350.102
349.803
349.602
349.74
349.84
350.253
350.783
342.461
342.08
341.4
341.157
341.002
340.879
340.938
341.079
341.127
341.144
341.222
341.163
340.979
340.809
340.596
340.562
340.515
340.678
340.973
341.38
332.958
332.531
332.141
331.919
331.727
331.723
331.856
331.874
331.957
332.092
332.062
331.974
331.894
331.782
331.568
331.505
331.489
331.649
331.772
332.096
323.46
323.204
322.913
322.67
322.603
322.578
322.61
322.716
322.708
322.848
322.773
322.842
322.688
322.501
322.493
322.428
322.379
322.536
322.74
322.999
314.037
313.879
313.794
313.611
313.584
313.599
313.615
313.607
313.776
313.664
313.641
313.688
313.679
313.649
313.564
313.533
313.492
313.447
313.566
313.782
304.744
304.66
304.674
304.605
304.595
304.513
304.556
304.525
304.629
304.523
304.606
304.566
304.601
304.531
304.568
304.509
304.505
304.566
304.576
304.623
373.252
372.16
371.236
370.553
370.22
370.161
370.139
370.16
370.33
370.335
370.288
370.077
369.973
369.683
369.341
369.298
369.285
369.638
370.181
370.794
362.93
362.116
361.298
360.676
360.441
360.363
360.351
360.501
360.548
360.682
360.578
360.47
360.266
360.035
359.77
359.784
359.732
359.864
360.58
361.095
352.879
352.192
351.51
351.161
350.806
350.807
350.777
350.913
350.975
351.033
351.093
351.019
350.768
350.647
350.433
350.332
350.425
350.555
350.999
351.479
343.072
342.532
341.968
341.626
341.424
341.418
341.38
341.432
341.516
341.64
341.597
341.573
341.412
341.269
341.077
341.053
341.126
341.213
341.46
342.025
333.384
332.952
332.627
332.29
332.103
332.055
332.121
332.181
332.286
332.27
332.308
332.333
332.161
332.093
331.923
331.805
331.889
332.029
332.333
332.601
323.817
323.44
323.171
323.001
322.919
322.842
322.944
322.913
323.008
322.947
323.033
323.053
322.907
322.873
322.768
322.724
322.785
322.87
323.008
323.209
314.263
314.013
313.879
313.766
313.691
313.723
313.756
313.741
313.738
313.784
313.808
313.7
313.716
313.778
313.615
313.632
313.636
313.741
313.853
313.978
304.681
304.736
304.676
304.628
304.51
304.572
304.616
304.617
304.594
304.638
304.662
304.624
304.549
304.649
304.609
304.616
304.617
304.621
304.636
304.768
)
;

boundaryField
{
    hotSide
    {
        type            fixedGradient;
        gradient        nonuniform List<scalar> 
400
(
321.511
322.87
325.591
329.677
335.133
341.965
350.181
359.788
370.794
383.208
397.037
412.289
428.971
447.088
466.647
487.651
510.105
534.011
559.372
586.191
323.738
325.08
327.767
331.802
337.194
343.949
352.078
361.591
372.498
384.81
398.537
413.687
430.268
448.289
467.755
488.672
511.043
534.872
560.161
586.913
326.149
327.47
330.116
334.091
339.406
346.071
354.099
363.503
374.296
386.491
400.101
415.136
431.606
449.52
468.885
489.706
511.988
535.735
560.948
587.63
328.704
330
332.597
336.503
341.73
348.292
356.205
365.485
376.15
388.215
401.695
416.604
432.954
450.753
470.009
490.73
512.919
536.579
561.714
588.325
331.33
332.599
335.142
338.97
344.099
350.546
358.332
367.477
378.003
389.928
403.271
418.047
434.27
451.949
471.095
491.712
513.807
537.382
562.439
588.978
333.918
335.158
337.643
341.389
346.414
352.74
360.392
369.397
379.779
391.562
404.765
419.407
435.503
453.065
472.101
492.618
514.622
538.114
563.096
589.569
336.321
337.531
339.959
343.622
348.544
354.751
362.274
371.142
381.385
393.031
406.101
420.618
436.595
454.047
472.983
493.409
515.33
538.747
563.663
590.076
338.36
339.543
341.92
345.509
350.339
356.44
363.847
372.595
382.718
394.244
407.2
421.608
437.485
454.844
473.695
494.045
515.897
539.253
564.114
590.478
339.852
341.015
343.352
346.885
351.645
357.665
364.985
373.643
383.675
395.113
407.984
422.312
438.116
455.407
474.197
494.491
516.294
539.606
564.428
590.758
340.643
341.795
344.11
347.613
352.334
358.311
365.584
374.193
384.176
395.567
408.393
422.679
438.443
455.699
474.456
494.722
516.498
539.788
564.589
590.901
340.643
341.795
344.11
347.613
352.334
358.311
365.584
374.193
384.176
395.567
408.393
422.679
438.443
455.699
474.456
494.722
516.498
539.788
564.589
590.901
339.852
341.015
343.352
346.885
351.645
357.665
364.985
373.643
383.675
395.113
407.984
422.312
438.116
455.407
474.197
494.491
516.294
539.606
564.428
590.758
338.36
339.543
341.92
345.509
350.339
356.44
363.847
372.595
382.718
394.244
407.2
421.608
437.485
454.844
473.695
494.045
515.897
539.253
564.114
590.478
336.321
337.531
339.959
343.622
348.544
354.751
362.274
371.142
381.385
393.031
406.101
420.618
436.595
454.047
472.983
493.409
515.33
538.747
563.663
590.076
333.918
335.158
337.643
341.389
346.414
352.74
360.392
369.397
379.779
391.562
404.765
419.407
435.503
453.065
472.101
492.618
514.622
538.114
563.096
589.569
331.33
332.599
335.142
338.97
344.099
350.546
358.332
367.477
378.003
389.928
403.271
418.047
434.27
451.949
471.095
491.712
513.807
537.382
562.439
588.978
328.704
330
332.597
336.503
341.73
348.292
356.205
365.485
376.15
388.215
401.695
416.604
432.954
450.753
470.009
490.73
512.919
536.579
561.714
588.325
326.149
327.47
330.116
334.091
339.406
346.071
354.099
363.503
374.296
386.491
400.101
415.136
431.606
449.52
468.885
489.706
511.988
535.735
560.948
587.63
323.738
325.08
327.767
331.802
337.194
343.949
352.078
361.591
372.498
384.81
398.537
413.687
430.268
448.289
467.755
488.672
511.043
534.872
560.161
586.913
321.511
322.87
325.591
329.677
335.133
341.965
350.181
359.788
370.794
383.208
397.037
412.289
428.971
447.088
466.647
487.651
510.105
534.011
559.372
586.191
)
;
    }
    coldSide
    {
        type            mixed;
        refValue        uniform 300;
        refGradient     uniform 0;
        valueFraction   uniform 0.991591;
        source          uniform 0;
        value           nonuniform List<scalar> 
400
(
300.03
300.03
300.03
300.03
300.03
300.031
300.031
300.032
300.033
300.032
300.034
300.034
300.035
300.035
300.037
300.038
300.039
300.039
300.04
300.039
300.029
300.029
300.029
300.029
300.031
300.03
300.031
300.031
300.032
300.032
300.034
300.034
300.035
300.036
300.036
300.037
300.038
300.039
300.039