/*--------------------------------*- C++ -*----------------------------------*\
| =========                 |                                                 |
| \\      /  F ield         | OpenFOAM: The Open Source CFD Toolbox           |
|  \\    /   O peration     | Version:  2212                                  |
|   \\  /    A nd           | Website:  www.openfoam.com                      |
|    \\/     M anipulation  |                                                 |
\*---------------------------------------------------------------------------*/
FoamFile
{
    version     2.0;
    format      ascii;
    arch        "LSB;label=32;scalar=64";
    class       volScalarField;
    location    "./ITHACAoutput/true/4.4";
    object      trueState;
}
// * * * * * * * * * * * * * * * * * * * * * * * * * * * * * * * * * * * * * //

dimensions      [0 0 0 1 0 0 0];

internalField   nonuniform List<scalar> 
3200
(
345.879
346.684
347.713
348.834
349.989
351.123
352.169
353.052
353.695
354.035
354.035
353.695
353.052
352.169
351.123
349.989
348.834
347.713
346.684
345.879
339.779
340.461
341.348
342.318
343.317
344.298
345.202
345.965
346.521
346.814
346.814
346.521
345.965
345.202
344.298
343.317
342.318
341.348
340.461
339.779
333.672
334.238
334.986
335.805
336.65
337.478
338.242
338.886
339.354
339.602
339.602
339.354
338.886
338.242
337.478
336.65
335.805
334.986
334.238
333.672
327.561
328.017
328.626
329.296
329.986
330.663
331.287
331.813
332.195
332.397
332.397
332.195
331.813
331.287
330.663
329.986
329.296
328.626
328.017
327.561
321.446
321.796
322.269
322.789
323.326
323.851
324.336
324.744
325.041
325.198
325.198
325.041
324.744
324.336
323.851
323.326
322.789
322.269
321.796
321.446
315.328
315.576
315.913
316.284
316.667
317.043
317.389
317.68
317.892
318.004
318.004
317.892
317.68
317.389
317.043
316.667
316.284
315.913
315.576
315.328
309.208
309.356
309.558
309.781
310.011
310.236
310.444
310.619
310.746
310.813
310.813
310.746
310.619
310.444
310.236
310.011
309.781
309.558
309.356
309.208
303.087
303.136
303.204
303.279
303.356
303.431
303.501
303.559
303.602
303.625
303.625
303.602
303.559
303.501
303.431
303.356
303.279
303.204
303.136
303.087
346.013
346.812
347.832
348.943
350.086
351.207
352.241
353.113
353.748
354.083
354.083
353.748
353.113
352.241
351.207
350.086
348.943
347.832
346.812
346.013
339.895
340.571
341.451
342.412
343.401
344.371
345.265
346.018
346.567
346.856
346.856
346.567
346.018
345.265
344.371
343.401
342.412
341.451
340.571
339.895
333.77
334.332
335.073
335.885
336.721
337.54
338.295
338.931
339.393
339.638
339.638
339.393
338.931
338.295
337.54
336.721
335.885
335.073
334.332
333.77
327.641
328.093
328.697
329.361
330.044
330.713
331.33
331.849
332.227
332.426
332.426
332.227
331.849
331.33
330.713
330.044
329.361
328.697
328.093
327.641
321.508
321.855
322.324
322.839
323.371
323.891
324.37
324.773
325.066
325.221
325.221
325.066
324.773
324.37
323.891
323.371
322.839
322.324
321.855
321.508
315.372
315.618
315.952
316.32
316.7
317.071
317.413
317.701
317.91
318.021
318.021
317.91
317.701
317.413
317.071
316.7
316.32
315.952
315.618
315.372
309.235
309.381
309.582
309.803
310.03
310.253
310.459
310.631
310.757
310.823
310.823
310.757
310.631
310.459
310.253
310.03
309.803
309.582
309.381
309.235
303.096
303.145
303.212
303.286
303.362
303.437
303.506
303.564
303.606
303.628
303.628
303.606
303.564
303.506
303.437
303.362
303.286
303.212
303.145
303.096
346.282
347.069
348.071
349.162
350.282
351.378
352.388
353.239
353.858
354.184
354.184
353.858
353.239
352.388
351.378
350.282
349.162
348.071
347.069
346.282
340.127
340.793
341.658
342.601
343.57
344.519
345.393
346.128
346.662
346.944
346.944
346.662
346.128
345.393
344.519
343.57
342.601
341.658
340.793
340.127
333.967
334.519
335.248
336.045
336.864
337.666
338.403
339.024
339.475
339.713
339.713
339.475
339.024
338.403
337.666
336.864
336.045
335.248
334.519
333.967
327.802
328.246
328.84
329.492
330.161
330.816
331.419
331.926
332.294
332.488
332.488
332.294
331.926
331.419
330.816
330.161
329.492
328.84
328.246
327.802
321.633
321.974
322.435
322.941
323.462
323.971
324.439
324.833
325.118
325.269
325.269
325.118
324.833
324.439
323.971
323.462
322.941
322.435
321.974
321.633
315.461
315.703
316.032
316.393
316.765
317.128
317.462
317.743
317.947
318.055
318.055
317.947
317.743
317.462
317.128
316.765
316.393
316.032
315.703
315.461
309.288
309.432
309.629
309.846
310.069
310.288
310.488
310.657
310.779
310.844
310.844
310.779
310.657
310.488
310.288
310.069
309.846
309.629
309.432
309.288
303.114
303.162
303.228
303.3
303.375
303.448
303.516
303.572
303.613
303.635
303.635
303.613
303.572
303.516
303.448
303.375
303.3
303.228
303.162
303.114
346.688
347.456
348.434
349.494
350.581
351.643
352.618
353.438
354.034
354.348
354.348
354.034
353.438
352.618
351.643
350.581
349.494
348.434
347.456
346.688
340.478
341.128
341.971
342.889
343.83
344.748
345.592
346.301
346.816
347.087
347.087
346.816
346.301
345.592
344.748
343.83
342.889
341.971
341.128
340.478
334.263
334.802
335.513
336.288
337.083
337.859
338.572
339.17
339.605
339.834
339.834
339.605
339.17
338.572
337.859
337.083
336.288
335.513
334.802
334.263
328.044
328.478
329.057
329.69
330.341
330.975
331.557
332.046
332.401
332.587
332.587
332.401
332.046
331.557
330.975
330.341
329.69
329.057
328.478
328.044
321.821
322.154
322.603
323.096
323.601
324.094
324.547
324.926
325.202
325.347
325.347
325.202
324.926
324.547
324.094
323.601
323.096
322.603
322.154
321.821
315.596
315.832
316.152
316.503
316.864
317.216
317.539
317.81
318.007
318.11
318.11
318.007
317.81
317.539
317.216
316.864
316.503
316.152
315.832
315.596
309.369
309.51
309.702
309.913
310.129
310.341
310.535
310.697
310.815
310.877
310.877
310.815
310.697
310.535
310.341
310.129
309.913
309.702
309.51
309.369
303.141
303.188
303.252
303.323
303.395
303.466
303.531
303.586
303.625
303.646
303.646
303.625
303.586
303.531
303.466
303.395
303.323
303.252
303.188
303.141
347.233
347.978
348.923
349.945
350.99
352.008
352.94
353.722
354.289
354.587
354.587
354.289
353.722
352.94
352.008
350.99
349.945
348.923
347.978
347.233
340.949
341.58
342.395
343.28
344.184
345.065
345.871
346.547
347.037
347.295
347.295
347.037
346.547
345.871
345.065
344.184
343.28
342.395
341.58
340.949
334.661
335.184
335.871
336.618
337.383
338.127
338.808
339.379
339.792
340.01
340.01
339.792
339.379
338.808
338.127
337.383
336.618
335.871
335.184
334.661
328.368
328.789
329.349
329.961
330.586
331.194
331.751
332.217
332.554
332.732
332.732
332.554
332.217
331.751
331.194
330.586
329.961
329.349
328.789
328.368
322.073
322.396
322.831
323.306
323.792
324.265
324.697
325.059
325.322
325.46
325.46
325.322
325.059
324.697
324.265
323.792
323.306
322.831
322.396
322.073
315.776
316.005
316.314
316.653
317.001
317.338
317.647
317.906
318.093
318.191
318.191
318.093
317.906
317.647
317.338
317.001
316.653
316.314
316.005
315.776
309.477
309.613
309.799
310.003
310.211
310.414
310.599
310.754
310.867
310.926
310.926
310.867
310.754
310.599
310.414
310.211
310.003
309.799
309.613
309.477
303.177
303.222
303.285
303.353
303.423
303.491
303.553
303.605
303.642
303.662
303.662
303.642
303.605
303.553
303.491
303.423
303.353
303.285
303.222
303.177
347.92
348.637
349.544
350.522
351.517
352.483
353.366
354.103
354.637
354.917
354.917
354.637
354.103
353.366
352.483
351.517
350.522
349.544
348.637
347.92
341.543
342.15
342.932
343.779
344.641
345.477
346.24
346.878
347.339
347.581
347.581
347.339
346.878
346.24
345.477
344.641
343.779
342.932
342.15
341.543
335.162
335.665
336.325
337.04
337.769
338.476
339.12
339.659
340.048
340.253
340.253
340.048
339.659
339.12
338.476
337.769
337.04
336.325
335.665
335.162
328.778
329.183
329.721
330.305
330.901
331.479
332.006
332.446
332.764
332.931
332.931
332.764
332.446
332.006
331.479
330.901
330.305
329.721
329.183
328.778
322.391
322.703
323.119
323.574
324.037
324.486
324.896
325.238
325.485
325.615
325.615
325.485
325.238
324.896
324.486
324.037
323.574
323.119
322.703
322.391
316.003
316.223
316.52
316.845
317.176
317.497
317.789
318.033
318.21
318.302
318.302
318.21
318.033
317.789
317.497
317.176
316.845
316.52
316.223
316.003
309.613
309.745
309.923
310.118
310.316
310.509
310.685
310.831
310.937
310.993
310.993
310.937
310.831
310.685
310.509
310.316
310.118
309.923
309.745
309.613
303.223
303.266
303.326
303.391
303.458
303.523
303.581
303.631
303.666
303.685
303.685
303.666
303.631
303.581
303.523
303.458
303.391
303.326
303.266
303.223
348.752
349.438
350.302
351.23
352.171
353.08
353.907
354.597
355.094
355.354
355.354
355.094
354.597
353.907
353.08
352.171
351.23
350.302
349.438
348.752
342.263
342.843
343.588
344.392
345.206
345.994
346.709
347.306
347.735
347.961
347.961
347.735
347.306
346.709
345.994
345.206
344.392
343.588
342.843
342.263
335.77
336.251
336.879
337.558
338.247
338.913
339.518
340.021
340.384
340.575
340.575
340.384
340.021
339.518
338.913
338.247
337.558
336.879
336.251
335.77
329.274
329.662
330.174
330.729
331.292
331.837
332.331
332.743
333.039
333.195
333.195
333.039
332.743
332.331
331.837
331.292
330.729
330.174
329.662
329.274
322.777
323.074
323.472
323.903
324.341
324.764
325.149
325.468
325.699
325.82
325.82
325.699
325.468
325.149
324.764
324.341
323.903
323.472
323.074
322.777
316.278
316.489
316.772
317.08
317.393
317.695
317.97
318.198
318.363
318.449
318.449
318.363
318.198
317.97
317.695
317.393
317.08
316.772
316.489
316.278
309.778
309.904
310.074
310.259
310.447
310.628
310.793
310.93
311.029
311.081
311.081
311.029
310.93
310.793
310.628
310.447
310.259
310.074
309.904
309.778
303.278
303.32
303.377
303.439
303.502
303.563
303.618
303.664
303.697
303.714
303.714
303.697
303.664
303.618
303.563
303.502
303.439
303.377
303.32
303.278
349.734
350.385
351.203
352.077
352.96
353.809
354.578
355.217
355.676
355.916
355.916
355.676
355.217
354.578
353.809
352.96
352.077
351.203
350.385
349.734
343.111
343.662
344.368
345.125
345.89
346.625
347.291
347.843
348.24
348.448
348.448
348.24
347.843
347.291
346.625
345.89
345.125
344.368
343.662
343.111
336.486
336.944
337.538
338.178
338.825
339.446
340.009
340.476
340.811
340.987
340.987
340.811
340.476
340.009
339.446
338.825
338.178
337.538
336.944
336.486
329.86
330.228
330.713
331.236
331.765
332.273
332.733
333.115
333.389
333.532
333.532
333.389
333.115
332.733
332.273
331.765
331.236
330.713
330.228
329.86
323.232
323.514
323.891
324.297
324.708
325.104
325.461
325.758
325.971
326.083
326.083
325.971
325.758
325.461
325.104
324.708
324.297
323.891
323.514
323.232
316.603
316.803
317.071
317.362
317.655
317.938
318.193
318.405
318.557
318.637
318.637
318.557
318.405
318.193
317.938
317.655
317.362
317.071
316.803
316.603
309.973
310.093
310.253
310.428
310.604
310.774
310.927
311.054
311.146
311.193
311.193
311.146
311.054
310.927
310.774
310.604
310.428
310.253
310.093
309.973
303.343
303.383
303.437
303.495
303.555
303.611
303.663
303.705
303.736
303.752
303.752
303.736
303.705
303.663
303.611
303.555
303.495
303.437
303.383
303.343
350.868
351.483
352.253
353.071
353.894
354.681
355.391
355.978
356.399
356.619
356.619
356.399
355.978
355.391
354.681
353.894
353.071
352.253
351.483
350.868
344.092
344.613
345.276
345.986
346.698
347.38
347.994
348.502
348.866
349.057
349.057
348.866
348.502
347.994
347.38
346.698
345.986
345.276
344.613
344.092
337.315
337.747
338.306
338.905
339.508
340.085
340.604
341.034
341.341
341.502
341.502
341.341
341.034
340.604
340.085
339.508
338.905
338.306
337.747
337.315
330.537
330.884
331.34
331.83
332.323
332.795
333.22
333.571
333.822
333.954
333.954
333.822
333.571
333.22
332.795
332.323
331.83
331.34
330.884
330.537
323.758
324.025
324.378
324.759
325.143
325.51
325.84
326.113
326.308
326.41
326.41
326.308
326.113
325.84
325.51
325.143
324.759
324.378
324.025
323.758
316.978
317.167
317.42
317.692
317.965
318.227
318.463
318.658
318.798
318.871
318.871
318.798
318.658
318.463
318.227
317.965
317.692
317.42
317.167
316.978
310.199
310.311
310.463
310.626
310.791
310.948
311.09
311.207
311.29
311.334
311.334
311.29
311.207
311.09
310.948
310.791
310.626
310.463
310.311
310.199
303.419
303.456
303.507
303.562
303.617
303.67
303.717
303.756
303.785
303.799
303.799
303.785
303.756
303.717
303.67
303.617
303.562
303.507
303.456
303.419
352.159
352.737
353.457
354.219
354.981
355.706
356.357
356.893
357.276
357.476
357.476
357.276
356.893
356.357
355.706
354.981
354.219
353.457
352.737
352.159
345.208
345.697
346.319
346.979
347.639
348.267
348.831
349.295
349.627
349.8
349.8
349.627
349.295
348.831
348.267
347.639
346.979
346.319
345.697
345.208
338.258
338.663
339.187
339.745
340.303
340.835
341.312
341.704
341.984
342.131
342.131
341.984
341.704
341.312
340.835
340.303
339.745
339.187
338.663
338.258
331.307
331.633
332.06
332.517
332.973
333.408
333.798
334.119
334.348
334.468
334.468
334.348
334.119
333.798
333.408
332.973
332.517
332.06
331.633
331.307
324.356
324.607
324.938
325.293
325.648
325.986
326.29
326.539
326.717
326.81
326.81
326.717
326.539
326.29
325.986
325.648
325.293
324.938
324.607
324.356
317.406
317.583
317.819
318.073
318.326
318.568
318.785
318.963
319.09
319.156
319.156
319.09
318.963
318.785
318.568
318.326
318.073
317.819
317.583
317.406
310.455
310.561
310.703
310.855
311.007
311.152
311.282
311.389
311.466
311.506
311.506
311.466
311.389
311.282
311.152
311.007
310.855
310.703
310.561
310.455
303.505
303.54
303.588
303.639
303.69
303.738
303.782
303.818
303.843
303.857
303.857
303.843
303.818
303.782
303.738
303.69
303.639
303.588
303.54
303.505
353.61
354.15
354.821
355.527
356.229
356.893
357.487
357.974
358.321
358.501
358.501
358.321
357.974
357.487
356.893
356.229
355.527
354.821
354.15
353.61
346.463
346.921
347.499
348.111
348.719
349.295
349.809
350.231
350.531
350.687
350.687
350.531
350.231
349.809
349.295
348.719
348.111
347.499
346.921
346.463
339.318
339.697
340.185
340.702
341.216
341.703
342.138
342.495
342.749
342.881
342.881
342.749
342.495
342.138
341.703
341.216
340.702
340.185
339.697
339.318
332.173
332.478
332.876
333.299
333.72
334.118
334.474
334.766
334.973
335.082
335.082
334.973
334.766
334.474
334.118
333.72
333.299
332.876
332.478
332.173
325.029
325.264
325.572
325.901
326.228
326.538
326.815
327.042
327.203
327.287
327.287
327.203
327.042
326.815
326.538
326.228
325.901
325.572
325.264
325.029
317.886
318.052
318.272
318.507
318.741
318.962
319.16
319.322
319.437
319.497
319.497
319.437
319.322
319.16
318.962
318.741
318.507
318.272
318.052
317.886
310.744
310.843
310.974
311.116
311.256
311.389
311.508
311.605
311.674
311.71
311.71
311.674
311.605
311.508
311.389
311.256
311.116
310.974
310.843
310.744
303.601
303.634
303.679
303.726
303.773
303.818
303.857
303.89
303.913
303.925
303.925
303.913
303.89
303.857
303.818
303.773
303.726
303.679
303.634
303.601
355.225
355.728
356.349
357
357.644
358.25
358.789
359.229
359.542
359.704
359.704
359.542
359.229
358.789
358.25
357.644
357
356.349
355.728
355.225
347.86
348.286
348.822
349.386
349.944
350.469
350.936
351.317
351.588
351.729
351.729
351.588
351.317
350.936
350.469
349.944
349.386
348.822
348.286
347.86
340.498
340.851
341.303
341.779
342.251
342.696
343.091
343.414
343.642
343.761
343.761
343.642
343.414
343.091
342.696
342.251
341.779
341.303
340.851
340.498
333.137
333.421
333.79
334.18
334.566
334.93
335.253
335.517
335.704
335.801
335.801
335.704
335.517
335.253
334.93
334.566
334.18
333.79
333.421
333.137
325.778
325.997
326.282
326.586
326.886
327.169
327.421
327.626
327.771
327.847
327.847
327.771
327.626
327.421
327.169
326.886
326.586
326.282
325.997
325.778
318.421
318.575
318.779
318.996
319.211
319.413
319.592
319.739
319.843
319.897
319.897
319.843
319.739
319.592
319.413
319.211
318.996
318.779
318.575
318.421
311.065
311.157
311.279
311.409
311.538
311.66
311.767
311.856
311.918
311.95
311.95
311.918
311.856
311.767
311.66
311.538
311.409
311.279
311.157
311.065
303.709
303.74
303.781
303.824
303.868
303.908
303.944
303.974
303.995
304.006
304.006
303.995
303.974
303.944
303.908
303.868
303.824
303.781
303.74
303.709
357.005
357.472
358.046
358.644
359.232
359.783
360.27
360.667
360.947
361.093
361.093
360.947
360.667
360.27
359.783
359.232
358.644
358.046
357.472
357.005
349.4
349.795
350.29
350.808
351.318
351.796
352.218
352.561
352.804
352.93
352.93
352.804
352.561
352.218
351.796
351.318
350.808
350.29
349.795
349.4
341.799
342.126
342.544
342.982
343.413
343.817
344.174
344.465
344.671
344.777
344.777
344.671
344.465
344.174
343.817
343.413
342.982
342.544
342.126
341.799
334.2
334.464
334.804
335.163
335.515
335.846
336.139
336.376
336.545
336.632
336.632
336.545
336.376
336.139
335.846
335.515
335.163
334.804
334.464
334.2
326.605
326.807
327.071
327.35
327.624
327.881
328.109
328.294
328.425
328.493
328.493
328.425
328.294
328.109
327.881
327.624
327.35
327.071
326.807
326.605
319.011
319.154
319.342
319.541
319.738
319.922
320.084
320.216
320.31
320.358
320.358
320.31
320.216
320.084
319.922
319.738
319.541
319.342
319.154
319.011
311.419
311.504
311.617
311.737
311.855
311.965
312.063
312.142
312.198
312.227
312.227
312.198
312.142
312.063
311.965
311.855
311.737
311.617
311.504
311.419
303.828
303.856
303.894
303.934
303.974
304.011
304.043
304.07
304.089
304.099
304.099
304.089
304.07
304.043
304.011
303.974
303.934
303.894
303.856
303.828
358.953
359.385
359.913
360.461
360.996
361.496
361.935
362.291
362.542
362.672
362.672
362.542
362.291
361.935
361.496
360.996
360.461
359.913
359.385
358.953
351.085
351.45
351.906
352.381
352.845
353.277
353.658
353.967
354.184
354.297
354.297
354.184
353.967
353.658
353.277
352.845
352.381
351.906
351.45
351.085
343.222
343.525
343.909
344.31
344.703
345.069
345.392
345.653
345.837
345.932
345.932
345.837
345.653
345.392
345.069
344.703
344.31
343.909
343.525
343.222
335.363
335.607
335.92
336.248
336.57
336.87
337.133
337.347
337.498
337.576
337.576
337.498
337.347
337.133
336.87
336.57
336.248
335.92
335.607
335.363
327.508
327.695
327.938
328.193
328.444
328.677
328.882
329.048
329.165
329.226
329.226
329.165
329.048
328.882
328.677
328.444
328.193
327.938
327.695
327.508
319.656
319.788
319.962
320.144
320.323
320.489
320.636
320.755
320.839
320.882
320.882
320.839
320.755
320.636
320.489
320.323
320.144
319.962
319.788
319.656
311.806
311.885
311.989
312.098
312.206
312.306
312.394
312.465
312.516
312.542
312.542
312.516
312.465
312.394
312.306
312.206
312.098
311.989
311.885
311.806
303.957
303.984
304.019
304.055
304.091
304.125
304.154
304.178
304.195
304.204
304.204
304.195
304.178
304.154
304.125
304.091
304.055
304.019
303.984
303.957
361.067
361.466
361.95
362.451
362.937
363.388
363.783
364.102
364.326
364.442
364.442
364.326
364.102
363.783
363.388
362.937
362.451
361.95
361.466
361.067
352.913
353.25
353.668
354.101
354.523
354.914
355.257
355.533
355.728
355.828
355.828
355.728
355.533
355.257
354.914
354.523
354.101
353.668
353.25
352.913
344.765
345.045
345.397
345.764
346.121
346.452
346.742
346.976
347.14
347.226
347.226
347.14
346.976
346.742
346.452
346.121
345.764
345.397
345.045
344.765
336.624
336.849
337.136
337.436
337.728
337.999
338.237
338.428
338.563
338.632
338.632
338.563
338.428
338.237
337.999
337.728
337.436
337.136
336.849
336.624
328.488
328.66
328.883
329.116
329.344
329.555
329.739
329.888
329.993
330.047
330.047
329.993
329.888
329.739
329.555
329.344
329.116
328.883
328.66
328.488
320.355
320.477
320.636
320.803
320.965
321.116
321.248
321.355
321.43
321.468
321.468
321.43
321.355
321.248
321.116
320.965
320.803
320.636
320.477
320.355
312.226
312.299
312.394
312.494
312.592
312.682
312.762
312.826
312.871
312.894
312.894
312.871
312.826
312.762
312.682
312.592
312.494
312.394
312.299
312.226
304.098
304.122
304.154
304.188
304.221
304.251
304.278
304.299
304.314
304.322
304.322
304.314
304.299
304.278
304.251
304.221
304.188
304.154
304.122
304.098
363.339
363.706
364.15
364.606
365.047
365.454
365.809
366.094
366.294
366.397
366.397
366.294
366.094
365.809
365.454
365.047
364.606
364.15
363.706
363.339
354.876
355.186
355.569
355.964
356.347
356.7
357.008
357.255
357.428
357.518
357.518
357.428
357.255
357.008
356.7
356.347
355.964
355.569
355.186
354.876
346.422
346.679
347.002
347.336
347.66
347.959
348.22
348.429
348.576
348.652
348.652
348.576
348.429
348.22
347.959
347.66
347.336
347.002
346.679
346.422
337.976
338.183
338.447
338.72
338.985
339.23
339.443
339.615
339.735
339.797
339.797
339.735
339.615
339.443
339.23
338.985
338.72
338.447
338.183
337.976
329.538
329.696
329.901
330.114
330.32
330.51
330.676
330.81
330.903
330.952
330.952
330.903
330.81
330.676
330.51
330.32
330.114
329.901
329.696
329.538
321.105
321.217
321.363
321.515
321.662
321.798
321.917
322.012
322.079
322.114
322.114
322.079
322.012
321.917
321.798
321.662
321.515
321.363
321.217
321.105
312.675
312.742
312.83
312.921
313.01
313.092
313.163
313.22
313.26
313.281
313.281
313.26
313.22
313.163
313.092
313.01
312.921
312.83
312.742
312.675
304.249
304.271
304.3
304.331
304.361
304.388
304.412
304.431
304.445
304.452
304.452
304.445
304.431
304.412
304.388
304.361
304.331
304.3
304.271
304.249
365.745
366.082
366.489
366.904
367.304
367.671
367.99
368.245
368.424
368.516
368.516
368.424
368.245
367.99
367.671
367.304
366.904
366.489
366.082
365.745
356.951
357.236
357.587
357.947
358.294
358.612
358.889
359.11
359.265
359.345
359.345
359.265
359.11
358.889
358.612
358.294
357.947
357.587
357.236
356.951
348.17
348.407
348.703
349.007
349.301
349.571
349.805
349.992
350.124
350.191
350.191
350.124
349.992
349.805
349.571
349.301
349.007
348.703
348.407
348.17
339.402
339.592
339.833
340.083
340.323
340.544
340.736
340.889
340.997
341.052
341.052
340.997
340.889
340.736
340.544
340.323
340.083
339.833
339.592
339.402
330.643
330.789
330.977
331.17
331.358
331.53
331.679
331.798
331.882
331.925
331.925
331.882
331.798
331.679
331.53
331.358
331.17
330.977
330.789
330.643
321.893
321.996
322.13
322.268
322.402
322.525
322.632
322.717
322.777
322.808
322.808
322.777
322.717
322.632
322.525
322.402
322.268
322.13
321.996
321.893
313.148
313.21
313.29
313.373
313.453
313.527
313.592
313.643
313.679
313.697
313.697
313.679
313.643
313.592
313.527
313.453
313.373
313.29
313.21
313.148
304.407
304.428
304.454
304.482
304.509
304.534
304.556
304.573
304.585
304.591
304.591
304.585
304.573
304.556
304.534
304.509
304.482
304.454
304.428
304.407
368.224
368.533
368.906
369.285
369.648
369.98
370.267
370.496
370.656
370.738
370.738
370.656
370.496
370.267
369.98
369.648
369.285
368.906
368.533
368.224
359.079
359.341
359.663
359.991
360.307
360.595
360.844
361.043
361.182
361.253
361.253
361.182
361.043
360.844
360.595
360.307
359.991
359.663
359.341
359.079
349.956
350.173
350.445
350.723
350.99
351.234
351.445
351.614
351.731
351.792
351.792
351.731
351.614
351.445
351.234
350.99
350.723
350.445
350.173
349.956
340.852
341.027
341.249
341.476
341.695
341.895
342.068
342.206
342.303
342.352
342.352
342.303
342.206
342.068
341.895
341.695
341.476
341.249
341.027
340.852
331.765
331.899
332.071
332.248
332.419
332.574
332.709
332.817
332.892
332.93
332.93
332.892
332.817
332.709
332.574
332.419
332.248
332.071
331.899
331.765
322.691
322.786
322.908
323.035
323.157
323.268
323.365
323.441
323.495
323.523
323.523
323.495
323.441
323.365
323.268
323.157
323.035
322.908
322.786
322.691
313.626
313.683
313.756
313.832
313.905
313.972
314.03
314.077
314.109
314.125
314.125
314.109
314.077
314.03
313.972
313.905
313.832
313.756
313.683
313.626
304.567
304.586
304.611
304.636
304.661
304.683
304.702
304.718
304.729
304.734
304.734
304.729
304.718
304.702
304.683
304.661
304.636
304.611
304.586
304.567
370.615
370.901
371.245
371.593
371.925
372.228
372.489
372.696
372.84
372.915
372.915
372.84
372.696
372.489
372.228
371.925
371.593
371.245
370.901
370.615
361.107
361.35
361.647
361.949
362.238
362.501
362.727
362.908
363.033
363.098
363.098
363.033
362.908
362.727
362.501
362.238
361.949
361.647
361.35
361.107
351.639
351.841
352.091
352.348
352.593
352.816
353.008
353.161
353.268
353.322
353.322
353.268
353.161
353.008
352.816
352.593
352.348
352.091
351.841
351.639
342.207
342.369
342.574
342.784
342.985
343.168
343.326
343.451
343.539
343.583
343.583
343.539
343.451
343.326
343.168
342.985
342.784
342.574
342.369
342.207
332.805
332.929
333.088
333.252
333.408
333.551
333.674
333.772
333.84
333.875
333.875
333.84
333.772
333.674
333.551
333.408
333.252
333.088
332.929
332.805
323.426
323.514
323.628
323.745
323.857
323.959
324.047
324.117
324.166
324.191
324.191
324.166
324.117
324.047
323.959
323.857
323.745
323.628
323.514
323.426
314.065
314.117
314.185
314.256
314.323
314.384
314.437
314.479
314.509
314.524
314.524
314.509
314.479
314.437
314.384
314.323
314.256
314.185
314.117
314.065
304.713
304.731
304.754
304.777
304.8
304.821
304.838
304.852
304.862
304.867
304.867
304.862
304.852
304.838
304.821
304.8
304.777
304.754
304.731
304.713
372.497
372.766
373.089
373.416
373.727
374.009
374.251
374.444
374.578
374.646
374.646
374.578
374.444
374.251
374.009
373.727
373.416
373.089
372.766
372.497
362.642
362.871
363.151
363.436
363.707
363.953
364.164
364.332
364.449
364.509
364.509
364.449
364.332
364.164
363.953
363.707
363.436
363.151
362.871
362.642
352.874
353.064
353.302
353.543
353.774
353.983
354.163
354.306
354.405
354.456
354.456
354.405
354.306
354.163
353.983
353.774
353.543
353.302
353.064
352.874
343.176
343.33
343.524
343.722
343.912
344.084
344.232
344.349
344.431
344.473
344.473
344.431
344.349
344.232
344.084
343.912
343.722
343.524
343.33
343.176
333.534
333.653
333.804
333.958
334.106
334.241
334.356
334.448
334.512
334.544
334.544
334.512
334.448
334.356
334.241
334.106
333.958
333.804
333.653
333.534
323.935
324.019
324.127
324.238
324.343
324.44
324.522
324.588
324.634
324.657
324.657
324.634
324.588
324.522
324.44
324.343
324.238
324.127
324.019
323.935
314.365
314.416
314.48
314.547
314.611
314.669
314.718
314.758
314.785
314.8
314.8
314.785
314.758
314.718
314.669
314.611
314.547
314.48
314.416
314.365
304.814
304.83
304.852
304.874
304.896
304.915
304.932
304.945
304.954
304.959
304.959
304.954
304.945
304.932
304.915
304.896
304.874
304.852
304.83
304.814
)
;

boundaryField
{
    hotSide
    {
        type            fixedGradient;
        gradient        nonuniform List<scalar> 
400
(
487.45
488.919
491.865
496.306
502.264
509.771
518.859
529.568
541.934
555.998
571.796
589.363
608.733
629.934
652.992
677.927
704.76
733.504
764.171
796.77
498.052
499.437
502.218
506.419
512.07
519.212
527.889
538.15
550.046
563.624
578.932
596.014
614.908
635.649
658.266
682.784
709.224
737.6
767.926
800.209
509.525
510.81
513.395
517.311
522.599
529.311
537.507
547.249
558.601
571.624
586.376
602.911
621.274
641.507
663.642
687.707
713.723
741.707
771.67
803.62
521.681
522.849
525.206
528.791
533.659
539.879
547.526
556.68
567.421
579.826
593.964
609.9
627.687
647.372
668.993
692.578
718.151
745.726
775.316
806.926
534.178
535.215
537.315
540.531
544.932
550.606
557.649
566.16
576.239
587.979
601.463
616.766
633.95
653.067
674.159
697.255
722.378
749.544
778.762
810.035
546.496
547.392
549.219
552.04
555.946
561.045
567.454
575.298
584.693
595.752
608.571
623.237
639.819
658.375
678.947
701.567
726.257
753.03
781.893
812.848
557.929
558.685
560.239
562.669
566.084
570.616
576.407
583.601
592.337
602.743
614.932
628.997
645.017
663.051
683.144
705.329
729.625
756.044
784.589
815.26
567.633
568.263
569.57
571.649
574.626
578.653
583.895
590.517
598.677
608.516
620.16
633.71
649.251
666.843
686.534
708.355
732.324
758.45
786.735
817.174
574.735
575.267
576.387
578.197
580.84
584.484
589.312
595.504
603.232
612.65
623.891
637.062
652.251
669.522
688.922
710.48
734.213
760.13
788.229
818.503
578.498
578.977
579.994
581.658
584.12
587.557
592.161
598.122
605.619
614.811
625.836
638.806
653.809
670.91
690.156
711.576
735.187
760.994
788.996
819.185
578.498
578.977
579.994
581.658
584.12
587.557
592.161
598.122
605.619
614.811
625.836
638.806
653.809
670.91
690.156
711.576
735.187
760.994
788.996
819.185
574.735
575.267
576.387
578.197
580.84
584.484
589.312
595.504
603.232
612.65
623.891
637.062
652.251
669.522
688.922
710.48
734.213
760.13
788.229
818.503
567.633
568.263
569.57
571.649
574.626
578.653
583.895
590.517
598.677
608.516
620.16
633.71
649.251
666.843
686.534
708.355
732.324
758.45
786.735
817.174
557.929
558.685
560.239
562.669
566.084
570.616
576.407
583.601
592.337
602.743
614.932
628.997
645.017
663.051
683.144
705.329
729.625
756.044
784.589
815.26
546.496
547.392
549.219
552.04
555.946
561.045
567.454
575.298
584.693
595.752
608.571
623.237
639.819
658.375
678.947
701.567
726.257
753.03
781.893
812.848
534.178
535.215
537.315
540.531
544.932
550.606
557.649
566.16
576.239
587.979
601.463
616.766
633.95
653.067
674.159
697.255
722.378
749.544
778.762
810.035
521.681
522.849
525.206
528.791
533.659
539.879
547.526
556.68
567.421
579.826
593.964
609.9
627.687
647.372
668.993
692.578
718.151
745.726
775.316
806.926
509.525
510.81
513.395
517.311
522.599
529.311
537.507
547.249
558.601
571.624
586.376
602.911
621.274
641.507
663.642
687.707
713.723
741.707
771.67
803.62
498.052
499.437
502.218
506.419
512.07
519.212
527.889
538.15
550.046
563.624
578.932
596.014
614.908
635.649
658.266
682.784
709.224
737.6
767.926
800.209
487.45
488.919
491.865
496.306
502.264
509.771
518.859
529.568
541.934
555.998
571.796
589.363
608.733
629.934
652.992
677.927
704.76
733.504
764.171
796.77
)
;
    }
    coldSide
    {
        type            mixed;
        refValue        uniform 300;
        refGradient     uniform 0;
        valueFraction   uniform 0.991591;
        source          uniform 0;
        value           nonuniform List<scalar> 
400
(
300.026
300.026
300.026
300.026
300.027
300.027
300.028
300.028
300.029
300.029
300.03
300.031
300.032
300.033
300.034
300.036
300.037
300.038
300.04
300.04
300.026
300.026
300.027
300.027
300.027
300.027
300.028