/*--------------------------------*- C++ -*----------------------------------*\
| =========                 |                                                 |
| \\      /  F ield         | OpenFOAM: The Open Source CFD Toolbox           |
|  \\    /   O peration     | Version:  2212                                  |
|   \\  /    A nd           | Website:  www.openfoam.com                      |
|    \\/     M anipulation  |                                                 |
\*---------------------------------------------------------------------------*/
FoamFile
{
    version     2.0;
    format      ascii;
    arch        "LSB;label=32;scalar=64";
    class       volScalarField;
    location    "0";
    object      T;
}
// * * * * * * * * * * * * * * * * * * * * * * * * * * * * * * * * * * * * * //

dimensions      [0 0 0 1 0 0 0];

internalField   nonuniform List<scalar> 
3200
(
336.009
335.012
333.873
333.352
333.332
333.448
333.77
334.18
334.456
334.683
334.682
334.411
334.133
333.612
333.084
332.51
332.212
332.266
333.047
334.257
331.139
330.339
329.362
328.898
328.907
328.943
329.229
329.608
329.83
330.041
330.03
329.799
329.586
329.139
328.692
328.151
327.912
327.951
328.603
329.647
326.302
325.652
324.83
324.428
324.449
324.452
324.693
325.047
325.225
325.413
325.376
325.209
325.067
324.664
324.286
323.83
323.626
323.626
324.211
325.074
321.483
320.973
320.297
319.956
319.994
319.997
320.185
320.486
320.623
320.798
320.743
320.642
320.518
320.187
319.874
319.507
319.343
319.318
319.8
320.509
316.685
316.323
315.79
315.513
315.546
315.573
315.671
315.926
316.041
316.19
316.117
316.081
315.95
315.692
315.449
315.184
315.065
315.043
315.401
315.944
311.909
311.671
311.282
311.09
311.107
311.136
311.185
311.371
311.458
311.557
311.485
311.478
311.38
311.213
311.016
310.845
310.777
310.76
310.985
311.385
307.152
307.018
306.775
306.674
306.655
306.692
306.729
306.831
306.886
306.933
306.877
306.887
306.83
306.736
306.611
306.513
306.477
306.456
306.568
306.818
302.397
302.348
302.28
302.233
302.225
302.242
302.264
302.29
302.308
302.328
302.306
302.313
302.299
302.254
302.224
302.171
302.178
302.163
302.199
302.28
336.202
335.04
334.095
333.694
333.703
333.821
334.185
334.679
334.994
335.185
335.268
334.979
334.599
334.2
333.528
332.909
332.561
332.635
333.291
334.372
331.326
330.372
329.559
329.184
329.192
329.283
329.6
330.022
330.291
330.457
330.554
330.26
329.977
329.597
329.046
328.501
328.197
328.263
328.824
329.71
326.476
325.712
325.021
324.692
324.719
324.772
325.024
325.395
325.614
325.741
325.832
325.58
325.358
325.016
324.547
324.111
323.853
323.922
324.383
325.076
321.641
321.052
320.501
320.194
320.239
320.234
320.439
320.788
320.947
321.025
321.115
320.92
320.742
320.451
320.078
319.731
319.507
319.569
319.926
320.486
316.82
316.393
315.966
315.699
315.746
315.709
315.891
316.177
316.286
316.33
316.396
316.27
316.138
315.916
315.63
315.343
315.175
315.244
315.5
315.929
311.987
311.739
311.412
311.223
311.268
311.216
311.341
311.568
311.622
311.64
311.699
311.602
311.535
311.387
311.181
310.963
310.839
310.916
311.068
311.373
307.197
307.056
306.853
306.759
306.773
306.727
306.791
306.955
306.969
306.992
307.026
306.95
306.928
306.846
306.716
306.569
306.495
306.582
306.652
306.815
302.409
302.364
302.296
302.275
302.267
302.251
302.277
302.327
302.338
302.348
302.354
302.317
302.334
302.293
302.25
302.205
302.184
302.204
302.229
302.286
336.697
335.564
334.721
334.226
334.232
334.519
334.842
335.397
335.604
335.941
336.049
335.829
335.419
334.841
334.189
333.497
333.118
333.259
333.989
334.798
331.762
330.816
330.096
329.648
329.651
329.872
330.164
330.619
330.802
331.109
331.209
331.003
330.685
330.165
329.609
328.989
328.657
328.8
329.437
330.069
326.849
326.079
325.481
325.075
325.049
325.247
325.493
325.864
326.035
326.297
326.394
326.195
325.949
325.487
325.035
324.503
324.22
324.354
324.874
325.372
321.95
321.342
320.863
320.503
320.465
320.646
320.832
321.12
321.277
321.493
321.577
321.392
321.2
320.855
320.472
320.043
319.809
319.923
320.341
320.731
317.066
316.613
316.251
315.953
315.912
316.048
316.205
316.41
316.539
316.7
316.756
316.608
316.461
316.221
315.902
315.574
315.41
315.518
315.816
316.106
312.185
311.888
311.61
311.407
311.373
311.468
311.562
311.731
311.829
311.926
311.948
311.839
311.749
311.569
311.362
311.122
310.994
311.096
311.305
311.508
307.315
307.127
306.984
306.85
306.838
306.905
306.932
307.034
307.099
307.16
307.169
307.105
307.035
306.94
306.826
306.675
306.595
306.678
306.808
306.923
302.448
302.387
302.344
302.293
302.295
302.323
302.317
302.357
302.39
302.39
302.408
302.382
302.362
302.331
302.286
302.23
302.218
302.245
302.292
302.326
337.396
336.399
335.398
335.039
335.032
335.349
335.74
336.254
336.684
337.007
336.986
336.735
336.392
335.753
334.953
334.302
334.049
334.04
334.665
335.672
332.35
331.523
330.692
330.356
330.329
330.615
330.944
331.347
331.745
332.014
331.985
331.783
331.495
330.938
330.253
329.715
329.491
329.488
330.005
330.85
327.324
326.669
326.004
325.68
325.64
325.872
326.141
326.498
326.804
327.042
327.017
326.865
326.622
326.149
325.572
325.128
324.922
324.914
325.364
326.065
322.333
321.825
321.302
320.997
320.965
321.152
321.387
321.644
321.915
322.083
322.079
321.954
321.779
321.368
320.91
320.553
320.386
320.371
320.73
321.279
317.359
316.967
316.591
316.345
316.311
316.436
316.644
316.816
317.024
317.172
317.143
317.058
316.951
316.597
316.253
315.983
315.852
315.837
316.113
316.537
312.372
312.115
311.873
311.686
311.67
311.728
311.908
312.003
312.145
312.263
312.256
312.188
312.129
311.845
311.619
311.42
311.316
311.312
311.506
311.801
307.399
307.284
307.156
307.018
307.017
307.028
307.137
307.207
307.288
307.348
307.372
307.311
307.28
307.109
306.976
306.845
306.795
306.786
306.9
307.088
302.475
302.454
302.395
302.355
302.351
302.343
302.388
302.409
302.448
302.47
302.473
302.448
302.435
302.384
302.346
302.29
302.276
302.274
302.316
302.383
338.332
337.258
336.364
336.001
335.942
336.365
336.802
337.188
337.692
338.062
338.105
337.797
337.49
336.713
336.087
335.469
335.041
335.105
335.646
336.719
333.129
332.292
331.497
331.146
331.135
331.485
331.847
332.18
332.616
332.912
332.937
332.684
332.434
331.771
331.223
330.709
330.325
330.375
330.867
331.767
327.963
327.307
326.634
326.318
326.331
326.631
326.917
327.175
327.569
327.808
327.816
327.613
327.408
326.861
326.396
325.964
325.661
325.677
326.116
326.824
322.837
322.319
321.782
321.533
321.519
321.773
321.994
322.195
322.512
322.749
322.718
322.564
322.404
321.971
321.576
321.215
320.999
321.009
321.362
321.902
317.743
317.35
316.946
316.762
316.73
316.923
317.113
317.256
317.477
317.682
317.649
317.554
317.414
317.085
316.783
316.49
316.343
316.35
316.585
317.023
312.657
312.371
312.107
312.007
311.942
312.083
312.217
312.324
312.478
312.631
312.598
312.542
312.453
312.205
311.996
311.779
311.682
311.681
311.832
312.167
307.6
307.423
307.282
307.219
307.154
307.26
307.333
307.403
307.506
307.578
307.572
307.52
307.477
307.334
307.201
307.077
307.033
307.026
307.104
307.318
302.545
302.488
302.43
302.43
302.403
302.431
302.453
302.483
302.522
302.539
302.544
302.515
302.514
302.462
302.41
302.379
302.37
302.35
302.379
302.469
339.474
338.297
337.506
337.024
337.03
337.358
337.887
338.336
338.926
339.291
339.333
339.174
338.588
337.879
337.329
336.756
336.302
336.195
336.93
337.689
334.134
333.156
332.473
332.035
332.045
332.326
332.773
333.144
333.656
333.989
334.007
333.866
333.361
332.763
332.302
331.82
331.425
331.312
331.948
332.579
328.831
328.031
327.456
327.077
327.077
327.322
327.682
327.976
328.431
328.704
328.695
328.604
328.187
327.684
327.291
326.89
326.569
326.457
327.01
327.506
323.567
322.927
322.455
322.137
322.125
322.34
322.63
322.86
323.227
323.469
323.434
323.369
323.054
322.633
322.299
321.965
321.749
321.623
322.092
322.453
318.35
317.842
317.461
317.211
317.218
317.373
317.585
317.774
318.031
318.243
318.212
318.146
317.935
317.602
317.324
317.071
316.931
316.806
317.182
317.427
313.123
312.753
312.49
312.285
312.29
312.413
312.552
312.688
312.87
313.007
313.013
312.935
312.807
312.586
312.366
312.199
312.097
311.998
312.275
312.445
307.878
307.658
307.497
307.383
307.36
307.447
307.534
307.605
307.733
307.801
307.822
307.748
307.691
307.564
307.412
307.331
307.267
307.2
307.383
307.475
302.64
302.566
302.511
302.475
302.47
302.503
302.525
302.556
302.602
302.617
302.623
302.586
302.568
302.538
302.483
302.464
302.44
302.416
302.474
302.51
340.64
339.548
338.7
338.391
338.449
338.619
339.106
339.669
340.189
340.559
340.714
340.486
339.881
339.2
338.698
337.976
337.717
337.656
338.225
338.911
335.137
334.252
333.507
333.238
333.29
333.423
333.844
334.31
334.747
335.056
335.217
334.993
334.483
333.883
333.477
332.856
332.649
332.587
333.05
333.636
329.699
328.982
328.34
328.109
328.142
328.263
328.609
328.96
329.323
329.607
329.742
329.556
329.134
328.629
328.257
327.752
327.576
327.557
327.927
328.426
324.277
323.713
323.192
322.98
323
323.101
323.408
323.657
323.96
324.176
324.294
324.133
323.803
323.402
323.082
322.678
322.535
322.522
322.834
323.246
318.863
318.427
318.051
317.866
317.878
317.949
318.203
318.4
318.618
318.773
318.879
318.75
318.525
318.184
317.933
317.602
317.541
317.51
317.743
318.054
313.488
313.163
312.912
312.768
312.77
312.822
313
313.15
313.304
313.392
313.474
313.388
313.246
312.97
312.811
312.555
312.524
312.509
312.679
312.902
308.101
307.897
307.769
307.656
307.664
307.706
307.802
307.904
308.003
308.038
308.08
308.029
307.957
307.795
307.706
307.522
307.499
307.509
307.61
307.739
302.711
302.642
302.608
302.565
302.567
302.592
302.605
302.65
302.688
302.696
302.702
302.684
302.658
302.61
302.595
302.51
302.517
302.523
302.552
302.594
341.889
340.817
340.039
339.799
339.836
340.059
340.474
340.906
341.453
341.964
342.088
341.858
341.392
340.683
340.053
339.534
339.256
339.213
339.767
340.448
336.219
335.32
334.662
334.453
334.485
334.66
335.032
335.373
335.851
336.281
336.381
336.172
335.791
335.186
334.61
334.184
333.977
333.937
334.419
334.96
330.579
329.861
329.278
329.147
329.133
329.31
329.598
329.889
330.284
330.646
330.7
330.545
330.236
329.713
329.221
328.895
328.724
328.681
329.095
329.534
324.985
324.426
323.949
323.838
323.832
323.967
324.189
324.445
324.751
325.041
325.045
324.94
324.713
324.26
323.856
323.617
323.482
323.456
323.772
324.128
319.412
318.983
318.616
318.545
318.507
318.625
318.795
319.001
319.258
319.464
319.437
319.348
319.213
318.835
318.532
318.367
318.258
318.237
318.483
318.738
313.859
313.553
313.274
313.273
313.219
313.298
313.412
313.571
313.762
313.896
313.868
313.802
313.723
313.455
313.235
313.108
313.046
313.028
313.179
313.382
308.295
308.14
307.968
307.978
307.939
307.969
308.029
308.153
308.259
308.339
308.327
308.296
308.243
308.077
307.957
307.871
307.849
307.843
307.899
308.025
302.779
302.735
302.671
302.67
302.658
302.672
302.688
302.733
302.771
302.787
302.797
302.789
302.758
302.698
302.672
302.628
302.629
302.628
302.639
302.682
343.254
342.329
341.646
341.265
341.235
341.535
341.79
342.227
342.78
343.332
343.378
343.165
342.674
342.136
341.534
341.106
340.765
340.839
341.32
342.071
337.393
336.624
336.049
335.687
335.701
335.948
336.157
336.535
337
337.433
337.48
337.311
336.873
336.406
335.913
335.573
335.26
335.344
335.755
336.347
331.576
330.928
330.474
330.161
330.18
330.379
330.546
330.85
331.243
331.602
331.637
331.498
331.128
330.74
330.329
330.054
329.797
329.879
330.198
330.66
325.784
325.255
324.893
324.68
324.663
324.82
324.968
325.209
325.512
325.799
325.857
325.737
325.438
325.118
324.76
324.559
324.367
324.41
324.667
325.015
320.032
319.618
319.336
319.2
319.173
319.298
319.411
319.617
319.842
320.033
320.077
319.994
319.78
319.511
319.238
319.07
318.916
318.969
319.16
319.438
314.311
314
313.812
313.726
313.703
313.805
313.864
314.002
314.178
314.305
314.331
314.272
314.142
313.929
313.734
313.616
313.504
313.563
313.652
313.893
308.592
308.412
308.278
308.239
308.234
308.314
308.312
308.41
308.528
308.583
308.594
308.582
308.497
308.368
308.249
308.16
308.112
308.149
308.186
308.358
302.878
302.817
302.763
302.76
302.757
302.788
302.785
302.82
302.862
302.88
302.875
302.885
302.845
302.808
302.765
302.727
302.708
302.739
302.745
302.792
344.821
343.954
343.194
342.689
342.626
342.888
343.198
343.7
344.061
344.613
344.713
344.652
344.202
343.628
343.079
342.556
342.324
342.478
342.897
343.515
338.758
338.022
337.369
336.925
336.888
337.111
337.345
337.796
338.106
338.552
338.638
338.587
338.21
337.727
337.268
336.816
336.605
336.747
337.085
337.607
332.715
332.119
331.582
331.195
331.178
331.34
331.537
331.948
332.182
332.524
332.617
332.565
332.263
331.85
331.503
331.096
330.923
331.052
331.321
331.746
326.71
326.238
325.799
325.484
325.492
325.578
325.774
326.111
326.283
326.537
326.652
326.58
326.363
326.017
325.738
325.418
325.284
325.356
325.574
325.944
320.753
320.379
320.05
319.801
319.805
319.864
320.029
320.292
320.419
320.604
320.726
320.64
320.476
320.216
319.989
319.762
319.637
319.695
319.847
320.142
314.823
314.538
314.316
314.139
314.128
314.177
314.299
314.486
314.571
314.705
314.813
314.725
314.617
314.45
314.261
314.121
314.007
314.058
314.163
314.376
308.885
308.718
308.601
308.495
308.485
308.513
308.564
308.693
308.751
308.834
308.905
308.841
308.781
308.667
308.546
308.488
308.404
308.446
308.503
308.619
302.974
302.927
302.882
302.85
302.835
302.851
302.868
302.903
302.933
302.961
302.993
302.966
302.948
302.9
302.858
302.84
302.826
302.831
302.851
302.88
346.377
345.486
344.761
344.369
344.198
344.37
344.593
345.217
345.494
345.899
346.005
346.032
345.666
345.099
344.494
344.142
343.918
344.021
344.405
345.109
340.11
339.337
338.711
338.38
338.241
338.39
338.569
339.089
339.316
339.647
339.749
339.798
339.481
338.971
338.485
338.193
337.988
338.07
338.399
339.007
333.857
333.216
332.67
332.426
332.308
332.418
332.595
333.024
333.191
333.465
333.565
333.62
333.335
332.872
332.528
332.255
332.081
332.16
332.44
332.96
327.65
327.148
326.696
326.497
326.386
326.497
326.65
327.005
327.109
327.329
327.436
327.485
327.231
326.82
326.575
326.339
326.212
326.281
326.493
326.939
321.489
321.095
320.722
320.576
320.516
320.599
320.716
320.99
321.079
321.221
321.319
321.392
321.154
320.83
320.644
320.487
320.377
320.419
320.561
320.919
315.335
315.068
314.784
314.684
314.648
314.706
314.787
314.983
315.055
315.15
315.21
315.304
315.104
314.873
314.729
314.639
314.556
314.586
314.677
314.928
309.187
309.049
308.881
308.816
308.784
308.84
308.878
308.996
309.045
309.088
309.126
309.209
309.056
308.921
308.842
308.788
308.75
308.776
308.807
308.942
303.079
303.034
302.986
302.961
302.943
302.962
302.971
303.021
303.029
303.032
303.067
303.079
303.04
302.988
302.966
302.946
302.934
302.946
302.954
302.995
348.043
347.132
346.391
345.898
345.704
345.847
346.105
346.528
346.846
347.105
347.379
347.299
347.021
346.547
345.975
345.666
345.399
345.647
346.16
346.88
341.522
340.768
340.157
339.709
339.524
339.643
339.877
340.213
340.486
340.706
340.941
340.858
340.668
340.239
339.749
339.481
339.248
339.46
339.898
340.532
335.055
334.45
333.937
333.54
333.391
333.451
333.687
333.954
334.159
334.352
334.555
334.493
334.36
333.968
333.576
333.35
333.125
333.304
333.669
334.228
328.644
328.148
327.745
327.395
327.31
327.328
327.522
327.719
327.894
328.066
328.201
328.149
328.089
327.74
327.449
327.254
327.041
327.196
327.497
327.964
322.246
321.858
321.55
321.287
321.24
321.237
321.385
321.523
321.661
321.815
321.906
321.852
321.851
321.546
321.35
321.202
320.996
321.122
321.36
321.735
315.88
315.602
315.387
315.208
315.191
315.161
315.253
315.358
315.469
315.6
315.627
315.614
315.629
315.38
315.232
315.143
314.981
315.084
315.25
315.53
309.534
309.344
309.236
309.131
309.128
309.106
309.149
309.206
309.296
309.378
309.355
309.385
309.385
309.239
309.154
309.101
309.003
309.052
309.141
309.32
303.183
303.125
303.103
303.058
303.066
303.05
303.057
303.084
303.106
303.137
303.137
303.151
303.14
303.106
303.082
303.043
303.006
303.034
303.059
303.135
349.723
348.773
348.134
347.569
347.286
347.304
347.548
347.858
348.146
348.407
348.596
348.494
348.289
347.846
347.439
347.224
347.078
347.352
347.84
348.488
342.996
342.214
341.643
341.149
340.901
340.916
341.106
341.394
341.617
341.842
341.983
341.892
341.754
341.357
341.013
340.827
340.688
340.935
341.338
341.923
336.322
335.679
335.19
334.738
334.562
334.567
334.707
334.945
335.162
335.327
335.434
335.365
335.271
334.916
334.624
334.462
334.353
334.56
334.902
335.411
329.686
329.188
328.758
328.381
328.27
328.271
328.337
328.527
328.739
328.857
328.944
328.882
328.831
328.537
328.271
328.155
328.058
328.21
328.527
328.928
323.051
322.696
322.345
322.06
321.993
321.985
322.025
322.147
322.344
322.406
322.477
322.42
322.42
322.184
321.956
321.863
321.795
321.916
322.165
322.447
316.445
316.209
315.941
315.76
315.719
315.705
315.717
315.805
315.961
315.999
316.048
315.984
316.032
315.839
315.655
315.608
315.556
315.64
315.827
316.024
309.867
309.723
309.557
309.482
309.43
309.422
309.438
309.487
309.576
309.614
309.612
309.583
309.631
309.514
309.387
309.374
309.339
309.397
309.502
309.607
303.306
303.256
303.204
303.179
303.165
303.156
303.167
303.181
303.206
303.217
303.221
303.212
303.223
303.182
303.144
303.136
303.136
303.142
303.19
303.214
351.276
350.462
349.829
349.201
348.901
348.881
349.066
349.317
349.585
349.727
349.958
349.727
349.646
349.29
349.054
348.77
348.678
348.849
349.453
350.093
344.348
343.645
343.111
342.56
342.306
342.264
342.439
342.628
342.85
342.963
343.178
342.983
342.911
342.603
342.411
342.143
342.058
342.221
342.745
343.281
337.457
336.878
336.441
335.944
335.725
335.701
335.842
335.986
336.166
336.28
336.433
336.278
336.225
335.98
335.817
335.561
335.497
335.656
336.102
336.553
330.584
330.132
329.809
329.352
329.158
329.154
329.264
329.391
329.519
329.621
329.746
329.625
329.579
329.399
329.24
329.044
328.991
329.118
329.499
329.856
323.772
323.416
323.161
322.788
322.647
322.646
322.722
322.811
322.904
322.988
323.111
322.994
322.97
322.829
322.703
322.548
322.533
322.609
322.924
323.192
316.974
316.726
316.538
316.271
316.172
316.158
316.205
316.254
316.347
316.394
316.509
316.396
316.404
316.274
316.206
316.072
316.097
316.144
316.355
316.541
310.214
310.038
309.924
309.759
309.714
309.702
309.706
309.743
309.815
309.826
309.924
309.843
309.833
309.772
309.72
309.652
309.694
309.689
309.807
309.926
303.423
303.363
303.322
303.28
303.25
303.248
303.247
303.26
303.292
303.29
303.319
303.298
303.29
303.28
303.254
303.239
303.246
303.246
303.278
303.321
352.905
352.066
351.478
350.835
350.459
350.374
350.541
350.734
350.828
351.052
351.171
351.095
350.92
350.713
350.573
350.288
350.356
350.549
351.04
351.675
345.753
345.032
344.555
343.981
343.644
343.548
343.721
343.863
343.925
344.138
344.229
344.146
344.027
343.832
343.718
343.473
343.531
343.684
344.108
344.664
338.642
338.043
337.653
337.174
336.874
336.784
336.94
337.052
337.069
337.249
337.339
337.276
337.183
337.002
336.893
336.682
336.767
336.89
337.221
337.706
331.559
331.101
330.786
330.398
330.143
330.071
330.189
330.252
330.251
330.42
330.497
330.437
330.381
330.222
330.119
329.957
330.037
330.129
330.404
330.809
324.529
324.155
323.927
323.643
323.427
323.365
323.467
323.489
323.505
323.632
323.683
323.643
323.605
323.483
323.41
323.284
323.329
323.411
323.598
323.949
317.529
317.23
317.074
316.899
316.722
316.683
316.772
316.77
316.771
316.874
316.913
316.879
316.846
316.778
316.713
316.63
316.661
316.718
316.844
317.11
310.524
310.333
310.251
310.151
310.048
310.022
310.054
310.055
310.056
310.141
310.161
310.151
310.102
310.083
310.047
310
310.005
310.045
310.103
310.272
303.515
303.467
303.429
303.4
303.38
303.349
303.368
303.373
303.38
303.395
303.411
303.406
303.383
303.382
303.368
303.359
303.347
303.357
303.387
303.424
354.539
353.726
353.058
352.461
352.037
352.036
351.977
352.077
352.202
352.327
352.415
352.326
352.217
352.172
351.989
351.905
351.924
352.232
352.748
353.312
347.148
346.483
345.892
345.378
344.993
344.998
344.907
345.023
345.137
345.242
345.329
345.209
345.147
345.118
344.954
344.854
344.869
345.136
345.573
346.037
339.809
339.261
338.753
338.333
338.003
337.999
337.892
338.021
338.121
338.212
338.281
338.169
338.136
338.111
337.97
337.861
337.869
338.11
338.45
338.866
332.509
332.077
331.648
331.325
331.041
331.028
330.94
331.049
331.139
331.204
331.282
331.187
331.169
331.142
331.024
330.93
330.93
331.109
331.397
331.741
325.245
324.922
324.602
324.344
324.108
324.104
324.023
324.128
324.173
324.24
324.327
324.24
324.21
324.186
324.105
324.039
323.999
324.16
324.389
324.629
318.018
317.781
317.565
317.392
317.201
317.213
317.155
317.242
317.237
317.312
317.377
317.311
317.279
317.249
317.191
317.178
317.128
317.259
317.417
317.573
310.805
310.656
310.54
310.44
310.328
310.31
310.305
310.342
310.343
310.408
310.427
310.397
310.359
310.339
310.324
310.325
310.287
310.375
310.464
310.552
303.612
303.567
303.538
303.488
303.457
303.443
303.456
303.458
303.459
303.486
303.492
303.478
303.462
303.454
303.455
303.459
303.443
303.481
303.515
303.537
356.084
355.301
354.506
353.976
353.652
353.533
353.474
353.491
353.57
353.758
353.659
353.66
353.576
353.573
353.373
353.394
353.474
353.757
354.293
354.858
348.508
347.827
347.152
346.683
346.375
346.299
346.245
346.249
346.321
346.467
346.377
346.379
346.294
346.327
346.145
346.155
346.213
346.455
346.919
347.393
340.971
340.392
339.839
339.413
339.159
339.099
339.052
339.057
339.124
339.248
339.141
339.165
339.091
339.118
339.002
338.972
339.033
339.223
339.62
340.01
333.475
332.978
332.551
332.18
331.983
331.927
331.9
331.901
331.974
332.071
331.958
332.013
331.933
331.938
331.874
331.828
331.881
332.044
332.367
332.654
326.006
325.606
325.29
324.977
324.855
324.792
324.776
324.795
324.841
324.922
324.822
324.893
324.82
324.805
324.77
324.744
324.769
324.906
325.143
325.375
318.567
318.28
318.041
317.814
317.746
317.669
317.683
317.71
317.721
317.806
317.719
317.789
317.713
317.686
317.676
317.682
317.689
317.78
317.949
318.097
311.159
310.99
310.843
310.689
310.664
310.594
310.622
310.634
310.638
310.71
310.64
310.661
310.622
310.609
310.615
310.602
310.622
310.684
310.774
310.851
303.739
303.687
303.644
303.581
303.583
303.55
303.555
303.573
303.561
303.6
303.558
303.559
303.555
303.566
303.556
303.553
303.562
303.583
303.618
303.636
357.711
356.855
356.15
355.485
355.11
355
354.899
354.897
354.823
355.071
355.005
354.946
354.984
354.851
354.802
354.936
354.948
355.286
355.898
356.432
349.865
349.137
348.544
347.973
347.658
347.535
347.453
347.45
347.371
347.606
347.528
347.464
347.517
347.4
347.359
347.467
347.488
347.761
348.29
348.73
342.098
341.483
340.985
340.511
340.265
340.128
340.039
340.068
339.968
340.199
340.089
340.058
340.093
340.01
339.964
340.059
340.086
340.316
340.748
341.108
334.381
333.88
333.462
333.105
332.893
332.775
332.667
332.756
332.625
332.838
332.728
332.699
332.71
332.664
332.621
332.726
332.722
332.922
333.254
333.56
326.696
326.313
325.964
325.724
325.57
325.458
325.332
325.457
325.34
325.503
325.428
325.406
325.38
325.343
325.33
325.423
325.417
325.552
325.838
326.067
319.036
318.777
318.536
318.36
318.27
318.162
318.052
318.173
318.079
318.197
318.134
318.129
318.104
318.083
318.08
318.143
318.134
318.222
318.435
318.609
311.414
311.272
311.139
311.03
310.971
310.88
310.824
310.908
310.849
310.919
310.876
310.862
310.863
310.854
310.847
310.898
310.872
310.932
311.053
311.168
303.834
303.788
303.74
303.697
303.675
303.644
303.623
303.659
303.634
303.658
303.647
303.634
303.644
303.637
303.638
303.647
303.648
303.66
303.702
303.743
359.186
358.291
357.569
356.967
356.543
356.332
356.197
356.189
356.103
356.239
356.141
356.019
356.032
356.024
356.083
356.154
356.283
356.622
357.34
357.86
351.123
350.372
349.759
349.25
348.862
348.69
348.569
348.537
348.455
348.581
348.49
348.385
348.42
348.393
348.44
348.524
348.598
348.895
349.514
349.924
343.148
342.498
342.003
341.566
341.229
341.103
341.015
340.953
340.881
341
340.911
340.816
340.864
340.813
340.846
340.95
340.994
341.23
341.752
342.082
335.232
334.684
334.299
333.94
333.671
333.574
333.508
333.43
333.343
333.465
333.397
333.323
333.349
333.295
333.335
333.445
333.454
333.645
334.057
334.336
327.347
326.926
326.646
326.342
326.157
326.067
326.037
325.972
325.884
325.983
325.935
325.896
325.89
325.839
325.881
325.985
325.97
326.126
326.421
326.632
319.509
319.221
319.025
318.787
318.679
318.6
318.615
318.548
318.46
318.533
318.503
318.498
318.469
318.424
318.474
318.556
318.538
318.648
318.841
319.004
311.709
311.549
311.42
311.284
311.207
311.161
311.182
311.141
311.06
311.134
311.107
311.115
311.076
311.052
311.095
311.146
311.13
311.197
311.304
311.402
303.928
303.868
303.827
303.78
303.749
303.739
303.751
303.733
303.706
303.737
303.725
303.724
303.707
303.717
303.718
303.734
303.73
303.762
303.789
303.817
360.288
359.289
358.521
358.031
357.493
357.39
357.125
357.116
357.122
357.12
357.048
356.933
356.914
356.956
357.042
357.15
357.339
357.803
358.337
359.025
352.046
351.167
350.522
350.106
349.629
349.569
349.334
349.316
349.274
349.292
349.248
349.119
349.108
349.155
349.222
349.336
349.47
349.86
350.328
350.903
343.874
343.133
342.611
342.259
341.878
341.822
341.619
341.597
341.53
341.572
341.544
341.416
341.406
341.432
341.493
341.626
341.713
342.028
342.409
342.882
335.797
335.184
334.765
334.47
334.207
334.158
333.954
333.942
333.868
333.913
333.897
333.807
333.79
333.794
333.866
333.981
334.005
334.281
334.587
334.965
327.786
327.321
327.002
326.763
326.584
326.55
326.366
326.351
326.275
326.338
326.312
326.248
326.256
326.235
326.272
326.387
326.378
326.59
326.846
327.116
319.804
319.499
319.273
319.083
318.969
318.954
318.825
318.806
318.76
318.815
318.775
318.728
318.741
318.721
318.727
318.832
318.813
318.962
319.152
319.342
311.878
311.706
311.573
311.452
311.379
311.384
311.283
311.278
311.251
311.283
311.276
311.25
311.239
311.236
311.23
311.306
311.286
311.386
311.5
311.614
303.987
303.925
303.879
303.826
303.798
303.816
303.777
303.774
303.778
303.785
303.783
303.77
303.756
303.767
303.765
303.785
303.781
303.81
303.856
303.888
)
;

boundaryField
{
    hotSide
    {
        type            fixedGradient;
        gradient        nonuniform List<scalar> 
400
(
391.263
393.557
398.57
406.238
416.301
428.387
442.092
457.048
472.944
489.536
506.635
524.099
541.82
559.72
577.74
595.839
613.986
632.16
650.349
668.547
372.819
375.307
380.706
388.936
399.686
412.514
426.961
442.617
459.153
476.314
493.908
511.795
529.874
548.07
566.334
584.63
602.934
621.233
639.52
657.795
361.391
364.303
370.098
378.689
389.767
402.895
417.616
433.519
450.272
467.614
485.352
503.343
521.488
539.716
557.98
576.251
594.511
612.753
630.974
649.181
356.552
360.1
366.313
375.102
386.206
399.251
413.833
429.575
446.155
463.317
480.864
498.651
516.577
534.571
552.593
570.616
588.629
606.631
624.625
642.621
356.554
360.851
367.53
376.499
387.545
400.367
414.626
429.993
446.171
462.914
480.027
497.369
514.838
532.373
549.935
567.51
585.093
602.689
620.308
637.964
359.416
364.498
371.707
380.947
392.031
404.707
418.685
433.673
449.4
465.633
482.189
498.935
515.784
532.687
549.621
566.585
583.588
600.644
617.77
634.98
363.539
369.398
377.202
386.84
398.133
410.849
424.718
439.463
454.824
470.579
486.556
502.642
518.775
534.933
551.122
567.364
583.685
600.111
616.666
633.368
367.733
374.33
382.762
392.908
404.583
417.549
431.53
446.235
461.393
476.774
492.221
507.645
523.027
538.389
553.779
569.249
584.848
600.617
616.582
632.764
371.095
378.336
387.374
398.077
410.25
423.637
437.931
452.805
467.944
483.097
498.109
512.929
527.593
542.185
556.806
571.543
586.469
601.633
617.066
632.785
372.93
380.648
390.175
401.378
414.051
427.916
442.633
457.819
473.099
488.18
502.903
517.259
531.349
545.325
559.338
573.508
587.923
602.637
617.681
633.067
372.76
380.703
390.498
402.011
415.03
429.264
444.344
459.843
475.339
490.497
505.152
519.321
533.155
546.849
560.584
574.499
588.689
603.209
618.088
633.335
370.393
378.254
388.023
399.564
412.661
427.015
442.248
457.927
473.622
488.994
503.87
518.259
532.304
546.193
560.104
574.176
588.504
603.144
618.127
633.464
365.994
373.468
382.925
394.225
407.15
421.397
436.596
452.337
468.225
483.943
499.312
514.302
528.996
543.53
558.046
572.664
587.473
602.531
617.875
633.52
360.111
366.953
375.893
386.797
399.439
413.514
428.66
444.495
460.656
476.851
492.892
508.701
524.291
539.733
555.117
570.534
586.057
601.743
617.631
633.746
353.684
359.728
368.057
378.541
390.944
404.944
420.169
436.238
452.803
469.579
486.364
503.045
519.583
535.99
552.313
568.607
584.931
601.332
617.852
634.517
348.074
353.235
360.943
371.076
383.368
397.452
412.916
429.355
446.412
463.797
481.299
498.782
516.174
533.454
550.634
567.745
584.825
601.917
619.054
636.268
345.145
349.422
356.547
366.403
378.677
392.93
408.686
425.502
443.005
460.9
478.972
497.076
515.128
533.085
550.939
568.704
586.405
604.072
621.736
639.424
347.2
350.7
357.286
366.847
379.021
393.303
409.168
426.144
443.849
461.99
480.356
498.802
517.234
535.602
553.883
572.079
590.202
608.274
626.318
644.357
356.291
359.247
365.324
374.42
386.174
400.081
415.616
432.314
449.801
467.791
486.076
504.51
522.993
541.466
559.896
578.269
596.588
614.864
633.112
651.348
373.005
375.679
381.267
389.685
400.635
413.689
428.388
444.315
461.12
478.531
496.342
514.401
532.603
550.876
569.175
587.472
605.759
624.034
642.301
660.569
)
;
    }
    coldSide
    {
        type            mixed;
        refValue        uniform 300;
        refGradient     uniform 0;
        valueFraction   uniform 0.991591;
        source          uniform 0;
        value           nonuniform List<scalar> 
400
(
300.02
300.02
300.021
300.021
300.021
300.022
300.023
300.023
300.024
300.025
300.026
300.027
300.028
300.029
300.03
300.03
300.031
300.032
300.033
300.034
300.02
300.02
300.02
300.021
300.021
300.022
300.022
300.023
300.024
300.025
300.026
300.026
300.027
300.028
300.029
300.03
300.031
300.032
300.033
300.033
300.019
300.019