/*--------------------------------*- C++ -*----------------------------------*\
| =========                 |                                                 |
| \\      /  F ield         | OpenFOAM: The Open Source CFD Toolbox           |
|  \\    /   O peration     | Version:  2212                                  |
|   \\  /    A nd           | Website:  www.openfoam.com                      |
|    \\/     M anipulation  |                                                 |
\*---------------------------------------------------------------------------*/
FoamFile
{
    version     2.0;
    format      ascii;
    arch        "LSB;label=32;scalar=64";
    class       volScalarField;
    location    "0";
    object      T;
}
// * * * * * * * * * * * * * * * * * * * * * * * * * * * * * * * * * * * * * //

dimensions      [0 0 0 1 0 0 0];

internalField   nonuniform List<scalar> 
3200
(
348.291
346.771
345.612
345.066
345.383
345.689
346.214
346.96
347.347
347.846
348.098
347.939
347.498
347.071
346.499
346.073
346.032
346.323
347.295
348.586
341.905
340.659
339.669
339.176
339.453
339.729
340.145
340.813
341.121
341.562
341.773
341.594
341.196
340.817
340.302
339.927
339.86
340.088
340.941
341.99
335.51
334.497
333.665
333.232
333.483
333.706
334.032
334.631
334.874
335.26
335.399
335.23
334.917
334.549
334.099
333.758
333.711
333.871
334.606
335.427
329.092
328.281
327.615
327.246
327.468
327.642
327.875
328.416
328.585
328.908
329.011
328.85
328.635
328.301
327.9
327.612
327.565
327.69
328.298
328.922
322.662
322.041
321.529
321.232
321.413
321.535
321.708
322.14
322.244
322.497
322.61
322.466
322.297
322.011
321.722
321.46
321.439
321.521
322.012
322.47
316.222
315.768
315.401
315.178
315.31
315.39
315.542
315.841
315.913
316.086
316.168
316.047
315.942
315.739
315.544
315.332
315.312
315.374
315.725
316.044
309.762
309.481
309.251
309.117
309.203
309.251
309.345
309.531
309.572
309.664
309.716
309.641
309.57
309.439
309.338
309.198
309.196
309.222
309.446
309.632
303.272
303.181
303.105
303.06
303.091
303.101
303.127
303.198
303.204
303.228
303.257
303.225
303.212
303.169
303.118
303.085
303.08
303.093
303.154
303.227
348.522
347.005
345.779
345.329
345.607
346.008
346.566
347.322
347.827
348.237
348.367
348.372
347.961
347.482
346.874
346.429
346.324
346.462
347.586
348.834
342.14
340.875
339.811
339.396
339.624
339.984
340.477
341.089
341.504
341.888
341.982
341.979
341.597
341.188
340.626
340.241
340.141
340.226
341.187
342.192
335.719
334.695
333.777
333.425
333.593
333.919
334.33
334.818
335.178
335.503
335.584
335.545
335.245
334.9
334.377
334.026
333.959
334.019
334.828
335.64
329.249
328.464
327.687
327.379
327.523
327.797
328.129
328.528
328.843
329.092
329.147
329.112
328.863
328.591
328.141
327.848
327.792
327.828
328.523
329.11
322.778
322.18
321.575
321.305
321.449
321.651
321.91
322.238
322.461
322.662
322.696
322.679
322.468
322.281
321.903
321.656
321.642
321.61
322.212
322.626
316.274
315.872
315.428
315.241
315.336
315.487
315.677
315.923
316.065
316.219
316.246
316.231
316.071
315.915
315.653
315.465
315.457
315.425
315.885
316.145
309.79
309.545
309.27
309.147
309.227
309.336
309.442
309.571
309.644
309.739
309.772
309.769
309.656
309.561
309.412
309.285
309.289
309.253
309.538
309.707
303.269
303.21
303.103
303.057
303.099
303.139
303.166
303.207
303.233
303.275
303.272
303.272
303.243
303.21
303.158
303.102
303.118
303.106
303.193
303.258
348.934
347.355
346.246
345.851
346.043
346.59
347.227
347.941
348.44
349.016
349.161
349.078
348.809
348.201
347.505
347.06
346.835
347.013
348.007
349.295
342.51
341.168
340.211
339.857
340.012
340.479
341.027
341.626
342.054
342.538
342.662
342.572
342.325
341.777
341.156
340.769
340.568
340.714
341.572
342.619
336.061
334.923
334.104
333.808
333.925
334.316
334.79
335.3
335.646
336.048
336.131
336.075
335.832
335.331
334.815
334.489
334.318
334.419
335.17
336.01
329.566
328.657
327.973
327.72
327.785
328.128
328.514
328.945
329.21
329.519
329.561
329.525
329.339
328.916
328.476
328.204
328.077
328.136
328.772
329.434
323.01
322.337
321.794
321.589
321.64
321.916
322.206
322.563
322.76
322.977
323.004
322.985
322.816
322.498
322.145
321.93
321.831
321.882
322.38
322.877
316.449
315.996
315.59
315.44
315.496
315.686
315.866
316.148
316.29
316.43
316.453
316.45
316.299
316.088
315.839
315.667
315.598
315.625
316.003
316.332
309.903
309.636
309.371
309.28
309.303
309.441
309.514
309.701
309.783
309.879
309.883
309.89
309.798
309.668
309.508
309.397
309.38
309.377
309.602
309.791
303.325
303.247
303.139
303.114
303.123
303.17
303.19
303.246
303.286
303.315
303.31
303.316
303.287
303.239
303.184
303.138
303.144
303.136
303.222
303.284
349.564
348.029
346.927
346.639
346.781
347.405
348.091
348.776
349.404
349.978
350.22
350.201
349.834
349.178
348.539
347.831
347.642
347.766
348.799
350.043
343.01
341.728
340.79
340.527
340.646
341.216
341.783
342.363
342.893
343.366
343.58
343.538
343.24
342.639
342.064
341.418
341.274
341.355
342.26
343.245
336.443
335.389
334.598
334.349
334.474
334.934
335.445
335.897
336.336
336.735
336.92
336.88
336.611
336.099
335.575
335.02
334.923
334.994
335.742
336.511
329.836
329.005
328.344
328.151
328.266
328.637
329.068
329.418
329.764
330.1
330.263
330.193
329.974
329.533
329.095
328.665
328.599
328.636
329.241
329.831
323.217
322.597
322.078
321.938
322.012
322.295
322.635
322.9
323.194
323.443
323.558
323.506
323.326
322.973
322.639
322.3
322.278
322.27
322.747
323.158
316.587
316.157
315.782
315.712
315.727
315.939
316.176
316.396
316.599
316.782
316.852
316.793
316.661
316.411
316.191
315.929
315.962
315.925
316.232
316.538
309.963
309.717
309.466
309.46
309.447
309.569
309.717
309.86
309.998
310.086
310.135
310.087
310.002
309.843
309.718
309.554
309.6
309.563
309.747
309.942
303.347
303.255
303.174
303.177
303.162
303.215
303.271
303.311
303.362
303.385
303.394
303.378
303.345
303.293
303.258
303.2
303.22
303.204
303.278
303.338
350.459
348.996
348.037
347.636
347.889
348.425
349.155
349.894
350.525
351.06
351.45
351.401
351.078
350.315
349.651
348.866
348.652
348.689
349.761
350.916
343.799
342.558
341.768
341.405
341.626
342.056
342.698
343.32
343.862
344.304
344.662
344.569
344.297
343.622
343.047
342.335
342.145
342.145
343.093
344.005
337.135
336.086
335.422
335.123
335.323
335.653
336.167
336.723
337.201
337.524
337.859
337.736
337.528
336.928
336.448
335.812
335.66
335.625
336.448
337.136
330.444
329.587
329.025
328.813
328.997
329.219
329.63
330.074
330.475
330.74
331.036
330.917
330.752
330.235
329.831
329.297
329.182
329.139
329.808
330.334
323.713
323.057
322.607
322.444
322.603
322.782
323.08
323.407
323.742
323.928
324.146
324.082
323.95
323.519
323.194
322.766
322.722
322.681
323.168
323.566
316.95
316.499
316.176
316.081
316.172
316.319
316.499
316.729
316.978
317.097
317.253
317.219
317.147
316.807
316.569
316.254
316.266
316.213
316.535
316.825
310.182
309.918
309.725
309.673
309.706
309.819
309.918
310.062
310.188
310.266
310.364
310.348
310.3
310.093
309.957
309.748
309.781
309.75
309.916
310.092
303.409
303.329
303.264
303.247
303.248
303.3
303.331
303.377
303.413
303.442
303.458
303.46
303.45
303.38
303.342
303.263
303.285
303.268
303.327
303.381
351.656
350.329
349.335
348.889
349.046
349.612
350.408
351.199
351.941
352.481
352.837
352.545
352.374
351.673
350.851
350.171
349.966
350.087
350.911
352.045
344.845
343.735
342.866
342.492
342.624
343.095
343.786
344.464
345.072
345.535
345.848
345.583
345.446
344.807
344.07
343.479
343.308
343.373
344.096
344.999
338.007
337.095
336.362
336.044
336.182
336.551
337.12
337.693
338.187
338.566
338.836
338.603
338.491
337.941
337.299
336.793
336.65
336.697
337.285
338.008
331.14
330.434
329.824
329.552
329.707
329.963
330.439
330.875
331.283
331.586
331.791
331.596
331.523
331.054
330.537
330.119
329.999
330.059
330.499
331.049
324.254
323.724
323.248
323.047
323.167
323.338
323.686
324.025
324.37
324.591
324.738
324.594
324.537
324.165
323.777
323.42
323.355
323.394
323.712
324.128
317.347
316.987
316.636
316.512
316.61
316.695
316.922
317.17
317.424
317.588
317.683
317.576
317.533
317.265
317.007
316.738
316.698
316.71
316.95
317.239
310.436
310.208
310.005
309.935
309.986
310.043
310.164
310.295
310.457
310.575
310.617
310.543
310.512
310.367
310.212
310.051
310.036
310.017
310.176
310.356
303.502
303.421
303.353
303.34
303.35
303.374
303.404
303.452
303.517
303.551
303.558
303.535
303.526
303.475
303.433
303.364
303.362
303.355
303.407
303.468
352.962
351.637
350.802
350.362
350.422
350.891
351.734
352.633
353.357
353.905
354.244
354.102
353.742
353.017
352.159
351.623
351.324
351.573
352.27
353.41
345.972
344.872
344.131
343.772
343.804
344.21
344.933
345.708
346.316
346.78
347.067
346.932
346.6
345.991
345.218
344.748
344.473
344.683
345.255
346.191
338.964
338.063
337.442
337.13
337.144
337.475
338.068
338.734
339.235
339.615
339.874
339.747
339.461
338.936
338.27
337.865
337.62
337.792
338.264
339.013
331.93
331.198
330.708
330.457
330.454
330.719
331.185
331.737
332.123
332.435
332.667
332.526
332.313
331.87
331.306
330.991
330.775
330.898
331.282
331.871
324.869
324.294
323.948
323.756
323.718
323.928
324.277
324.717
325.026
325.249
325.432
325.3
325.156
324.779
324.34
324.101
323.95
324.047
324.333
324.772
317.783
317.38
317.138
317.011
316.956
317.111
317.347
317.667
317.911
318.044
318.185
318.086
317.978
317.699
317.385
317.222
317.123
317.181
317.383
317.694
310.689
310.443
310.299
310.225
310.178
310.284
310.423
310.616
310.76
310.843
310.947
310.854
310.809
310.615
310.463
310.351
310.287
310.319
310.44
310.605
303.587
303.503
303.448
303.433
303.412
303.442
303.486
303.554
303.612
303.645
303.67
303.643
303.624
303.565
303.508
303.471
303.448
303.468
303.498
303.556
354.492
353.247
352.281
352.052
352.052
352.528
353.315
353.946
354.876
355.467
355.703
355.609
355.198
354.482
353.589
353.201
352.882
353.085
353.848
354.848
347.283
346.246
345.43
345.264
345.219
345.642
346.326
346.855
347.637
348.142
348.332
348.248
347.888
347.249
346.438
346.127
345.825
345.985
346.639
347.466
340.081
339.206
338.541
338.409
338.373
338.697
339.288
339.726
340.371
340.792
340.959
340.871
340.552
340.01
339.296
339.047
338.775
338.888
339.44
340.131
332.846
332.124
331.596
331.477
331.447
331.714
332.213
332.569
333.066
333.422
333.565
333.458
333.204
332.76
332.169
331.947
331.703
331.819
332.262
332.819
325.594
325.033
324.635
324.515
324.477
324.722
325.09
325.379
325.739
326.028
326.134
326.032
325.859
325.513
325.031
324.838
324.652
324.748
325.072
325.505
318.314
317.912
317.636
317.534
317.502
317.688
317.944
318.138
318.389
318.58
318.691
318.607
318.494
318.246
317.89
317.752
317.602
317.671
317.922
318.214
311.021
310.771
310.618
310.537
310.522
310.622
310.789
310.877
311.039
311.155
311.221
311.173
311.114
310.966
310.763
310.669
310.574
310.6
310.769
310.945
303.705
303.619
303.56
303.533
303.527
303.566
303.623
303.639
303.702
303.738
303.766
303.754
303.732
303.668
303.61
303.573
303.542
303.548
303.612
303.663
356.214
354.937
354.075
353.728
353.683
354.062
354.765
355.583
356.366
356.941
357.232
357.092
356.691
355.892
355.091
354.69
354.5
354.623
355.32
356.489
348.773
347.721
346.973
346.676
346.614
346.938
347.571
348.268
348.933
349.414
349.66
349.521
349.182
348.459
347.752
347.384
347.237
347.305
347.903
348.865
341.292
340.472
339.83
339.565
339.521
339.788
340.314
340.896
341.464
341.876
342.067
341.925
341.636
341.028
340.416
340.11
339.962
340.024
340.513
341.283
333.805
333.19
332.627
332.426
332.38
332.592
333.054
333.485
333.978
334.313
334.46
334.339
334.081
333.584
333.088
332.836
332.691
332.739
333.147
333.74
326.313
325.873
325.4
325.252
325.224
325.362
325.777
326.061
326.444
326.732
326.83
326.728
326.524
326.13
325.745
325.55
325.447
325.465
325.774
326.237
318.804
318.512
318.175
318.039
318.038
318.141
318.438
318.638
318.894
319.094
319.18
319.106
318.948
318.656
318.411
318.253
318.193
318.178
318.396
318.752
311.312
311.119
310.932
310.837
310.854
310.902
311.068
311.201
311.366
311.46
311.519
311.476
311.377
311.223
311.054
310.963
310.942
310.903
311.042
311.26
303.796
303.738
303.671
303.631
303.643
303.654
303.712
303.76
303.812
303.844
303.859
303.847
303.816
303.768
303.708
303.684
303.676
303.656
303.693
303.769
357.987
356.683
355.864
355.459
355.293
355.602
356.328
357.046
357.863
358.419
358.671
358.588
358.185
357.453
356.757
356.341
356.196
356.287
357.014
357.975
350.335
349.238
348.537
348.193
348.041
348.279
348.922
349.533
350.238
350.708
350.888
350.807
350.482
349.813
349.188
348.832
348.712
348.777
349.376
350.157
342.645
341.747
341.167
340.868
340.739
340.931
341.471
341.987
342.576
342.955
343.099
343.018
342.737
342.166
341.634
341.335
341.222
341.269
341.774
342.398
334.924
334.214
333.726
333.486
333.395
333.542
333.997
334.382
334.88
335.177
335.312
335.22
335.009
334.547
334.071
333.842
333.735
333.757
334.184
334.67
327.183
326.644
326.274
326.08
326.015
326.143
326.467
326.763
327.172
327.394
327.514
327.419
327.24
326.894
326.5
326.331
326.246
326.248
326.599
326.949
319.447
319.049
318.792
318.658
318.61
318.727
318.898
319.13
319.457
319.587
319.703
319.611
319.482
319.244
318.949
318.798
318.756
318.745
319.024
319.242
311.688
311.433
311.296
311.224
311.182
311.272
311.34
311.485
311.706
311.762
311.849
311.777
311.717
311.566
311.387
311.264
311.279
311.245
311.412
311.557
303.921
303.836
303.788
303.763
303.752
303.775
303.801
303.843
303.925
303.95
303.968
303.951
303.923
303.878
303.823
303.773
303.779
303.768
303.818
303.871
359.825
358.53
357.726
357.25
356.982
357.364
357.939
358.59
359.222
359.87
360.131
360.089
359.696
358.88
358.355
358.026
357.801
358.105
358.824
359.741
351.929
350.813
350.136
349.724
349.516
349.823
350.324
350.885
351.421
351.975
352.184
352.11
351.779
351.064
350.601
350.303
350.1
350.346
350.945
351.704
343.991
343.067
342.506
342.16
342.023
342.217
342.651
343.119
343.581
344.037
344.222
344.136
343.822
343.25
342.836
342.566
342.422
342.596
343.084
343.714
336.026
335.293
334.833
334.539
334.45
334.582
334.925
335.334
335.734
336.075
336.232
336.15
335.861
335.406
335.067
334.843
334.726
334.839
335.22
335.726
328.035
327.499
327.146
326.89
326.856
326.92
327.197
327.521
327.849
328.099
328.214
328.135
327.921
327.544
327.294
327.098
327.025
327.074
327.389
327.766
320.053
319.667
319.418
319.222
319.215
319.251
319.449
319.701
319.937
320.113
320.175
320.108
319.977
319.699
319.51
319.36
319.324
319.331
319.558
319.822
312.06
311.81
311.677
311.55
311.554
311.564
311.688
311.861
311.989
312.109
312.129
312.083
312.008
311.842
311.735
311.648
311.597
311.599
311.749
311.899
304.05
303.962
303.914
303.869
303.879
303.876
303.909
303.98
304.023
304.072
304.061
304.048
304.046
303.966
303.939
303.913
303.879
303.884
303.938
303.985
361.641
360.506
359.551
359.087
358.807
359.059
359.495
360.189
360.703
361.343
361.434
361.351
361.145
360.368
359.934
359.619
359.438
359.917
360.459
361.361
353.488
352.53
351.717
351.338
351.073
351.303
351.66
352.269
352.718
353.229
353.297
353.212
353.048
352.346
351.978
351.688
351.491
351.92
352.379
353.116
345.295
344.501
343.852
343.544
343.312
343.509
343.795
344.294
344.693
345.07
345.157
345.079
344.895
344.326
344.022
343.752
343.556
343.924
344.31
344.915
337.097
336.459
335.955
335.684
335.502
335.651
335.864
336.276
336.612
336.915
336.972
336.925
336.749
336.281
336.056
335.826
335.627
335.925
336.258
336.725
328.881
328.377
327.994
327.793
327.648
327.764
327.902
328.23
328.502
328.743
328.782
328.745
328.59
328.203
328.082
327.897
327.717
327.925
328.224
328.551
320.638
320.291
320.021
319.87
319.793
319.847
319.928
320.175
320.386
320.55
320.574
320.552
320.418
320.155
320.078
319.955
319.804
319.924
320.171
320.39
312.388
312.195
312.033
311.939
311.903
311.935
311.973
312.127
312.248
312.349
312.361
312.353
312.248
312.121
312.065
311.976
311.9
311.939
312.085
312.237
304.154
304.09
304.032
304.009
303.99
304.007
304.01
304.068
304.099
304.144
304.145
304.142
304.105
304.057
304.056
304.018
303.979
304.007
304.041
304.104
363.389
362.426
361.507
360.879
360.693
360.791
361.127
361.728
362.3
362.681
362.781
362.818
362.379
361.903
361.496
361.296
361.183
361.625
362.248
363.036
355.013
354.22
353.411
352.868
352.698
352.795
353.068
353.582
354.078
354.395
354.501
354.511
354.112
353.682
353.312
353.169
353.035
353.406
353.912
354.559
346.593
345.957
345.267
344.825
344.671
344.762
344.969
345.429
345.805
346.077
346.183
346.182
345.805
345.446
345.14
344.984
344.901
345.186
345.613
346.137
338.157
337.662
337.088
336.745
336.591
336.705
336.848
337.227
337.492
337.738
337.815
337.822
337.507
337.217
336.954
336.816
336.736
336.956
337.312
337.716
329.705
329.33
328.897
328.622
328.512
328.605
328.706
328.986
329.176
329.377
329.443
329.433
329.198
328.973
328.762
328.661
328.575
328.719
329.034
329.329
321.231
320.967
320.67
320.48
320.392
320.472
320.547
320.713
320.847
321.008
321.054
321.039
320.876
320.72
320.564
320.486
320.418
320.516
320.756
320.954
312.75
312.59
312.426
312.311
312.24
312.307
312.366
312.447
312.526
312.63
312.652
312.629
312.524
312.452
312.34
312.324
312.25
312.319
312.458
312.577
304.271
304.223
304.167
304.129
304.099
304.128
304.149
304.173
304.195
304.237
304.24
304.228
304.204
304.169
304.135
304.134
304.105
304.127
304.169
304.21
365.359
364.275
363.353
362.764
362.633
362.552
362.8
363.238
363.715
364.208
364.328
364.144
363.73
363.359
363.108
362.937
362.937
363.281
364.018
364.772
356.714
355.794
355.024
354.482
354.422
354.311
354.513
354.885
355.314
355.734
355.838
355.636
355.264
354.929
354.7
354.59
354.559
354.848
355.455
356.063
348.052
347.282
346.663
346.192
346.134
346.007
346.201
346.489
346.868
347.234
347.297
347.124
346.777
346.497
346.293
346.226
346.18
346.413
346.908
347.41
339.336
338.746
338.252
337.869
337.794
337.691
337.847
338.065
338.379
338.689
338.732
338.56
338.289
338.071
337.889
337.844
337.804
337.991
338.366
338.761
330.595
330.154
329.817
329.494
329.436
329.339
329.484
329.643
329.854
330.122
330.174
329.995
329.78
329.607
329.483
329.435
329.419
329.573
329.833
330.141
321.852
321.571
321.329
321.091
321.04
320.975
321.099
321.218
321.34
321.511
321.582
321.434
321.288
321.154
321.065
321.028
321.012
321.143
321.301
321.527
313.116
312.966
312.82
312.684
312.646
312.611
312.677
312.758
312.823
312.903
312.976
312.871
312.794
312.692
312.647
312.623
312.613
312.706
312.786
312.917
304.39
304.344
304.296
304.259
304.238
304.223
304.258
304.277
304.309
304.325
304.354
304.31
304.277
304.254
304.234
304.238
304.222
304.254
304.29
304.328
367.358
366.174
365.222
364.653
364.465
364.291
364.473
364.637
365.229
365.436
365.679
365.523
365.159
364.836
364.631
364.504
364.584
364.924
365.64
366.476
358.437
357.439
356.648
356.156
355.984
355.838
355.984
356.097
356.628
356.801
356.983
356.86
356.511
356.19
356.031
355.911
355.97
356.244
356.856
357.516
349.481
348.655
348.013
347.611
347.472
347.318
347.45
347.509
347.964
348.104
348.264
348.139
347.838
347.565
347.43
347.32
347.372
347.579
348.093
348.614
340.513
339.836
339.351
339.021
338.905
338.771
338.867
338.922
339.286
339.384
339.531
339.394
339.183
338.937
338.811
338.715
338.755
338.932
339.334
339.748
331.548
331.013
330.649
330.395
330.302
330.197
330.278
330.314
330.575
330.638
330.771
330.645
330.507
330.292
330.204
330.128
330.13
330.304
330.576
330.873
322.549
322.175
321.918
321.74
321.672
321.572
321.653
321.677
321.85
321.9
321.991
321.892
321.81
321.64
321.593
321.529
321.539
321.674
321.829
322.03
313.553
313.324
313.167
313.064
313.04
312.962
313.007
313.016
313.134
313.139
313.204
313.143
313.112
312.981
312.96
312.949
312.938
313.007
313.114
313.243
304.54
304.476
304.417
304.372
304.375
304.339
304.361
304.366
304.408
304.411
304.425
304.403
304.393
304.341
304.339
304.339
304.332
304.351
304.401
304.439
369.254
368.045
367.309
366.641
366.221
366.119
366.122
366.282
366.751
366.936
367.013
366.953
366.69
366.366
366.229
366.247
366.317
366.702
367.381
368.151
360.077
359.033
358.425
357.855
357.488
357.368
357.38
357.527
357.918
358.108
358.149
358.08
357.834
357.537
357.417
357.409
357.479
357.786
358.352
359
350.883
350.014
349.504
349.033
348.738
348.604
348.609
348.732
349.068
349.241
349.256
349.187
348.965
348.696
348.618
348.575
348.637
348.855
349.357
349.889
341.662
340.963
340.534
340.175
339.954
339.815
339.805
339.909
340.195
340.348
340.349
340.284
340.083
339.853
339.799
339.749
339.782
339.966
340.367
340.796
332.432
331.897
331.552
331.269
331.147
331.007
331.008
331.059
331.289
331.414
331.421
331.373
331.176
330.993
330.963
330.914
330.956
331.082
331.397
331.721
323.202
322.799
322.554
322.355
322.316
322.187
322.167
322.201
322.37
322.469
322.465
322.457
322.279
322.141
322.131
322.083
322.117
322.213
322.447
322.669
313.936
313.693
313.551
313.437
313.42
313.35
313.313
313.344
313.437
313.491
313.496
313.513
313.395
313.294
313.285
313.262
313.291
313.344
313.491
313.616
304.673
304.596
304.546
304.504
304.494
304.481
304.45
304.475
304.513
304.519
304.531
304.538
304.494
304.457
304.453
304.45
304.452
304.471
304.538
304.564
371.114
370.037
369.114
368.514
368.079
367.772
367.899
368.014
368.177
368.336
368.373
368.352
368.245
367.979
367.85
367.919
367.963
368.376
369.125
370.131
361.673
360.775
359.981
359.482
359.095
358.815
358.917
359.025
359.165
359.293
359.319
359.292
359.179
358.924
358.822
358.881
358.902
359.247
359.871
360.699
352.227
351.464
350.836
350.401
350.075
349.848
349.905
349.997
350.159
350.247
350.24
350.176
350.1
349.88
349.796
349.825
349.83
350.143
350.621
351.301
342.789
342.134
341.624
341.291
341.012
340.829
340.854
340.953
341.084
341.163
341.107
341.067
341.02
340.827
340.766
340.743
340.775
341.045
341.404
341.928
333.306
332.789
332.404
332.15
331.917
331.771
331.815
331.878
331.966
332.063
331.979
331.981
331.932
331.778
331.745
331.669
331.729
331.931
332.217
332.602
323.824
323.431
323.179
322.991
322.829
322.693
322.746
322.797
322.854
322.932
322.857
322.869
322.837
322.7
322.702
322.624
322.679
322.824
323.041
323.289
314.328
314.059
313.929
313.825
313.726
313.632
313.658
313.708
313.728
313.765
313.737
313.736
313.728
313.614
313.639
313.593
313.635
313.708
313.843
313.984
304.804
304.709
304.668
304.639
304.603
304.569
304.592
304.592
304.604
304.617
304.601
304.6
304.602
304.559
304.585
304.56
304.576
304.598
304.644
304.684
372.936
371.955
370.981
370.364
369.893
369.467
369.493
369.595
369.766
369.824
369.739
369.751
369.634
369.51
369.503
369.484
369.523
370.05
370.853
371.761
363.266
362.437
361.611
361.092
360.65
360.27
360.294
360.389
360.556
360.566
360.486
360.491
360.38
360.27
360.273
360.221
360.24
360.675
361.373
362.102
353.567
352.878
352.182
351.758
351.37
351.053
351.07
351.164
351.303
351.299
351.214
351.2
351.138
351.001
351.013
350.963
350.976
351.322
351.891
352.493
343.864
343.289
342.735
342.397
342.064
341.82
341.795
341.899
342.041
342.031
341.918
341.895
341.861
341.736
341.753
341.712
341.701
341.967
342.454
342.917
334.155
333.693
333.257
332.991
332.757
332.559
332.511
332.612
332.73
332.735
332.64
332.609
332.594
332.473
332.489
332.432
332.442
332.644
333.029
333.374
324.427
324.101
323.782
323.569
323.418
323.278
323.254
323.33
323.393
323.416
323.336
323.294
323.305
323.217
323.247
323.18
323.193
323.336
323.603
323.833
314.682
314.489
314.298
314.152
314.059
313.978
313.991
314.007
314.038
314.091
314.016
313.989
314.003
313.974
313.972
313.927
313.943
314.014
314.174
314.311
304.922
304.857
304.785
304.74
304.716
304.691
304.694
304.691
304.698
304.717
304.697
304.693
304.697
304.68
304.682
304.671
304.67
304.695
304.745
304.807
374.671
373.607
372.767
372.186
371.575
371.108
371.044
370.952
371.072
371.103
371.046
371.055
370.972
370.852
370.882
370.893
371.097
371.522
372.507
373.451
364.733
363.842
363.145
362.616
362.094
361.689
361.59
361.552
361.661
361.65
361.597
361.595
361.503
361.409
361.415
361.386
361.559
361.941
362.769
363.55
354.793
354.06
353.474
353.023
352.584
352.246
352.139
352.114
352.224
352.213
352.141
352.139
352.048
351.951
351.976
351.926
352.041
352.397
353.06
353.707
344.847
344.249
343.808
343.425
343.044
342.754
342.669
342.655
342.779
342.748
342.695
342.657
342.573
342.492
342.532
342.49
342.557
342.863
343.381
343.901
334.913
334.41
334.087
333.799
333.503
333.258
333.196
333.2
333.307
333.295
333.241
333.169
333.105
333.06
333.078
333.05
333.094
333.333
333.75
334.132
324.952
324.572
324.364
324.167
323.962
323.759
323.711
323.755
323.828
323.819
323.754
323.684
323.649
323.628
323.643
323.611
323.648
323.792
324.099
324.391
315.001
314.747
314.646
314.511
314.398
314.268
314.248
314.279
314.323
314.317
314.288
314.224
314.197
314.195
314.201
314.189
314.196
314.287
314.459
314.648
305.045
304.947
304.909
304.865
304.84
304.786
304.776
304.783
304.807
304.806
304.799
304.769
304.767
304.763
304.761
304.757
304.761
304.785
304.847
304.915
375.862
374.818
374.065
373.324
372.785
372.285
372.095
372.043
372.127
372.154
372.094
372.068
372.105
371.932
371.939
372.004
372.358
372.817
373.654
374.587
365.702
364.843
364.183
363.544
363.099
362.627
362.454
362.439
362.492
362.514
362.452
362.44
362.473
362.299
362.26
362.319
362.602
362.975
363.706
364.463
355.563
354.869
354.317
353.779
353.387
352.994
352.818
352.821
352.882
352.858
352.852
352.828
352.829
352.691
352.622
352.68
352.897
353.204
353.826
354.428
345.432
344.896
344.456
344.023
343.668
343.358
343.2
343.204
343.284
343.233
343.262
343.203
343.217
343.084
343.021
343.087
343.229
343.481
344.007
344.45
335.324
334.901
334.572
334.243
333.969
333.731
333.584
333.607
333.675
333.609
333.653
333.587
333.618
333.49
333.454
333.525
333.602
333.766
334.197
334.542
325.25
324.914
324.702
324.474
324.272
324.087
323.974
324.021
324.069
324.003
324.051
323.977
324.025
323.927
323.922
323.959
323.987
324.097
324.409
324.671
315.201
314.953
314.829
314.7
314.581
314.457
314.4
314.421
314.451
314.426
314.451
314.381
314.421
314.354
314.38
314.402
314.412
314.468
314.668
314.824
305.092
305.012
304.971
304.914
304.889
304.834
304.834
304.831
304.839
304.841
304.848
304.812
304.831
304.814
304.835
304.835
304.827
304.847
304.923
304.972
)
;

boundaryField
{
    hotSide
    {
        type            fixedGradient;
        gradient        nonuniform List<scalar> 
400
(
508.477
509.038
512.975
520.213
530.438
543.189
557.971
574.332
591.894
610.36
629.504
649.159
669.205
689.556
710.156
730.973
751.989
773.198
794.598
816.187
486.056
486.776
491.108
498.957
509.944
523.525
539.135
556.273
574.536
593.616
613.283
633.375
653.776
674.411
695.232
716.218
737.362
758.669
780.146
801.8
472.588
473.754
478.491
486.7
498.002
511.862
527.718
545.071
563.512
582.729
602.492
622.636
643.046
663.653
684.414
705.313
726.352
747.541
768.895
790.424
467.557
469.432
474.601
482.964
494.202
507.862
523.45
540.507
558.646
577.556
597.005
616.826
636.905
657.171
677.587
698.141
718.837
739.692
760.721
781.941
468.802
471.525
477.183
485.672
496.738
510.018
525.105
541.598
559.144
577.449
596.285
615.488
634.947
654.597
674.407
694.373
714.504
734.819
755.34
776.084
473.875
477.487
483.711
492.434
503.44
516.427
531.053
546.97
563.855
581.436
599.5
617.896
636.526
655.344
674.334
693.506
712.881
732.486
752.346
772.484
480.805
485.297
492.159
501.267
512.415
525.329
539.696
555.191
571.509
588.393
605.646
623.143
640.817
658.653
676.667
694.895
713.378
732.152
751.252
770.701
488.138
493.459
501
510.621
522.113
535.201
549.566
564.872
580.805
597.105
613.592
630.174
646.833
663.609
680.565
697.773
715.301
733.2
751.508
770.251
494.78
500.819
509.007
519.198
531.169
544.627
559.222
574.576
590.334
606.207
622.025
637.741
653.408
669.135
685.051
701.27
717.884
734.959
752.536
770.636
499.895
506.452
515.151
525.84
538.287
552.179
567.124
582.686
598.441
614.057
629.362
644.359
659.183
674.024
689.071
704.478
720.357
736.78
753.788
771.397
502.911
509.691
518.638
529.599
542.337
556.524
571.739
587.498
603.323
618.84
633.872
648.459
662.792
677.119
691.666
706.612
722.078
738.14
754.838
772.185
503.591
510.237
519.085
529.985
542.693
556.874
572.102
587.887
603.748
619.307
634.385
649.015
663.384
677.736
692.297
707.248
722.716
738.778
755.48
772.837
502.113
508.272
516.689
527.209
539.587
553.486
568.494
584.153
600.024
615.764
631.187
646.287
661.185
676.068
691.127
706.525
722.385
738.792
755.797
773.424
499.096
504.487
512.236
522.191
534.104
547.636
562.391
577.946
593.908
609.966
625.929
641.737
657.437
673.143
688.992
705.117
721.633
738.625
756.153
774.251
495.588
500.031
507.007
516.372
527.866
541.139
555.786
571.396
587.597
604.088
620.67
637.243
653.796
670.382
687.092
704.029
721.293
738.972
757.13
775.807
493.095
496.504
502.706
511.565
522.794
535.996
550.729
566.561
583.112
600.084
617.264
634.53
651.837
669.201
686.678
704.352
722.315
740.653
759.435
778.704
493.647
496.036
501.522
509.978
521.067
534.317
549.225
565.319
582.205
599.579
617.227
635.017
652.886
670.83
688.888
707.131
725.646
744.524
763.836
783.628
499.726
501.23
506.074
514.136
525.03
538.22
553.147
569.314
586.318
603.86
621.726
639.784
657.962
676.245
694.66
713.268
732.152
751.403
771.098
791.275
513.539
514.428
518.688
526.209
536.608
549.348
563.874
579.697
596.425
613.766
631.51
649.523
667.727
686.096
704.643
723.416
742.488
761.941
781.84
802.221
535.729
536.304
540.03
546.816
556.348
568.171
581.804
596.807
612.819
629.559
646.823
664.473
682.422
700.63
719.095
737.844
756.929
776.408
796.33
816.714
)
;
    }
    coldSide
    {
        type            mixed;
        refValue        uniform 300;
        refGradient     uniform 0;
        valueFraction   uniform 0.991591;
        source          uniform 0;
        value           nonuniform List<scalar> 
400
(
300.028
300.027
300.028
300.028
300.029
300.029
300.03
300.031
300.032
300.033
300.034
300.035
300.036
300.037
300.038
300.039
300.04
300.041
300.042
300.043
300.027
300.027
300.027
300.027
300.028
300.029
300.029
300.03
300.031
300.032
300.033
300.034
300.036
300.037