/*--------------------------------*- C++ -*----------------------------------*\
| =========                 |                                                 |
| \\      /  F ield         | OpenFOAM: The Open Source CFD Toolbox           |
|  \\    /   O peration     | Version:  2212                                  |
|   \\  /    A nd           | Website:  www.openfoam.com                      |
|    \\/     M anipulation  |                                                 |
\*---------------------------------------------------------------------------*/
FoamFile
{
    version     2.0;
    format      ascii;
    arch        "LSB;label=32;scalar=64";
    class       volScalarField;
    location    "0";
    object      Tdirect;
}
// * * * * * * * * * * * * * * * * * * * * * * * * * * * * * * * * * * * * * //

dimensions      [0 0 0 1 0 0 0];

internalField   nonuniform List<scalar> 
3200
(
343.733
344.881
346.343
347.935
349.574
351.182
352.667
353.92
354.834
355.316
355.316
354.834
353.92
352.667
351.182
349.574
347.935
346.343
344.881
343.733
338.058
339.028
340.288
341.664
343.081
344.47
345.753
346.835
347.622
348.039
348.039
347.622
346.835
345.753
344.47
343.081
341.664
340.288
339.028
338.058
332.321
333.125
334.186
335.347
336.543
337.716
338.797
339.71
340.374
340.724
340.724
340.374
339.71
338.797
337.716
336.543
335.347
334.186
333.125
332.321
326.529
327.176
328.04
328.988
329.965
330.922
331.805
332.549
333.091
333.377
333.377
333.091
332.549
331.805
330.922
329.965
328.988
328.04
327.176
326.529
320.69
321.187
321.856
322.593
323.351
324.095
324.78
325.357
325.778
325.999
325.999
325.778
325.357
324.78
324.095
323.351
322.593
321.856
321.187
320.69
314.814
315.165
315.642
316.167
316.709
317.24
317.728
318.14
318.44
318.598
318.598
318.44
318.14
317.728
317.24
316.709
316.167
315.642
315.165
314.814
308.909
309.119
309.405
309.72
310.045
310.364
310.657
310.904
311.084
311.179
311.179
311.084
310.904
310.657
310.364
310.045
309.72
309.405
309.119
308.909
302.988
303.059
303.154
303.26
303.369
303.476
303.574
303.657
303.717
303.749
303.749
303.717
303.657
303.574
303.476
303.369
303.26
303.154
303.059
302.988
343.815
344.953
346.403
347.979
349.602
351.192
352.66
353.898
354.799
355.275
355.275
354.799
353.898
352.66
351.192
349.602
347.979
346.403
344.953
343.815
338.128
339.091
340.34
341.703
343.105
344.479
345.747
346.815
347.593
348.004
348.004
347.593
346.815
345.747
344.479
343.105
341.703
340.34
339.091
338.128
332.38
333.178
334.229
335.38
336.564
337.724
338.793
339.694
340.349
340.695
340.695
340.349
339.694
338.793
337.724
336.564
335.38
334.229
333.178
332.38
326.577
327.219
328.076
329.015
329.982
330.929
331.801
332.536
333.071
333.353
333.353
333.071
332.536
331.801
330.929
329.982
329.015
328.076
327.219
326.577
320.727
321.22
321.884
322.613
323.364
324.1
324.777
325.348
325.762
325.981
325.981
325.762
325.348
324.777
324.1
323.364
322.613
321.884
321.22
320.727
314.84
315.189
315.662
316.182
316.718
317.243
317.726
318.133
318.429
318.585
318.585
318.429
318.133
317.726
317.243
316.718
316.182
315.662
315.189
314.84
308.925
309.133
309.417
309.729
310.051
310.366
310.656
310.9
311.078
311.171
311.171
311.078
310.9
310.656
310.366
310.051
309.729
309.417
309.133
308.925
302.994
303.063
303.158
303.263
303.371
303.476
303.573
303.655
303.715
303.746
303.746
303.715
303.655
303.573
303.476
303.371
303.263
303.158
303.063
302.994
343.978
345.099
346.524
348.071
349.661
351.217
352.651
353.858
354.737
355.2
355.2
354.737
353.858
352.651
351.217
349.661
348.071
346.524
345.099
343.978
338.269
339.217
340.445
341.782
343.157
344.501
345.739
346.782
347.54
347.94
347.94
347.54
346.782
345.739
344.501
343.157
341.782
340.445
339.217
338.269
332.499
333.285
334.318
335.447
336.607
337.743
338.787
339.666
340.305
340.642
340.642
340.305
339.666
338.787
337.743
336.607
335.447
334.318
333.285
332.499
326.674
327.306
328.148
329.07
330.018
330.944
331.797
332.514
333.035
333.31
333.31
333.035
332.514
331.797
330.944
330.018
329.07
328.148
327.306
326.674
320.803
321.288
321.94
322.656
323.392
324.112
324.774
325.331
325.735
325.948
325.948
325.735
325.331
324.774
324.112
323.392
322.656
321.94
321.288
320.803
314.894
315.237
315.702
316.213
316.738
317.252
317.724
318.121
318.41
318.562
318.562
318.41
318.121
317.724
317.252
316.738
316.213
315.702
315.237
314.894
308.958
309.162
309.441
309.748
310.063
310.371
310.655
310.893
311.066
311.157
311.157
311.066
310.893
310.655
310.371
310.063
309.748
309.441
309.162
308.958
303.005
303.073
303.166
303.269
303.375
303.478
303.573
303.653
303.711
303.741
303.741
303.711
303.653
303.573
303.478
303.375
303.269
303.166
303.073
303.005
344.227
345.321
346.711
348.216
349.758
351.265
352.649
353.813
354.659
355.105
355.105
354.659
353.813
352.649
351.265
349.758
348.216
346.711
345.321
344.227
338.484
339.41
340.606
341.908
343.241
344.543
345.739
346.744
347.474
347.858
347.858
347.474
346.744
345.739
344.543
343.241
341.908
340.606
339.41
338.484
332.68
333.447
334.455
335.553
336.679
337.778
338.787
339.635
340.25
340.574
340.574
340.25
339.635
338.787
337.778
336.679
335.553
334.455
333.447
332.68
326.822
327.439
328.26
329.157
330.076
330.974
331.798
332.489
332.991
333.256
333.256
332.991
332.489
331.798
330.974
330.076
329.157
328.26
327.439
326.822
320.917
321.391
322.027
322.724
323.438
324.135
324.775
325.312
325.701
325.906
325.906
325.701
325.312
324.775
324.135
323.438
322.724
322.027
321.391
320.917
314.976
315.311
315.764
316.261
316.771
317.269
317.725
318.108
318.386
318.532
318.532
318.386
318.108
317.725
317.269
316.771
316.261
315.764
315.311
314.976
309.007
309.207
309.478
309.777
310.083
310.381
310.655
310.885
311.052
311.139
311.139
311.052
310.885
310.655
310.381
310.083
309.777
309.478
309.207
309.007
303.021
303.088
303.179
303.279
303.381
303.481
303.573
303.65
303.706
303.735
303.735
303.706
303.65
303.573
303.481
303.381
303.279
303.179
303.088
303.021
344.564
345.625
346.968
348.42
349.902
351.346
352.669
353.779
354.583
355.007
355.007
354.583
353.779
352.669
351.346
349.902
348.42
346.968
345.625
344.564
338.775
339.672
340.829
342.084
343.366
344.614
345.757
346.716
347.41
347.776
347.776
347.41
346.716
345.757
344.614
343.366
342.084
340.829
339.672
338.775
332.925
333.669
334.643
335.702
336.785
337.839
338.803
339.612
340.197
340.506
340.506
340.197
339.612
338.803
337.839
336.785
335.702
334.643
333.669
332.925
327.022
327.62
328.414
329.279
330.163
331.024
331.811
332.471
332.949
333.2
333.2
332.949
332.471
331.811
331.024
330.163
329.279
328.414
327.62
327.022
321.073
321.532
322.147
322.819
323.506
324.174
324.786
325.298
325.669
325.864
325.864
325.669
325.298
324.786
324.174
323.506
322.819
322.147
321.532
321.073
315.086
315.411
315.85
316.329
316.82
317.297
317.733
318.098
318.363
318.502
318.502
318.363
318.098
317.733
317.297
316.82
316.329
315.85
315.411
315.086
309.073
309.267
309.53
309.818
310.112
310.398
310.66
310.879
311.038
311.121
311.121
311.038
310.879
310.66
310.398
310.112
309.818
309.53
309.267
309.073
303.043
303.108
303.196
303.292
303.391
303.487
303.575
303.648
303.701
303.729
303.729
303.701
303.648
303.575
303.487
303.391
303.292
303.196
303.108
303.043
344.993
346.015
347.304
348.692
350.105
351.475
352.727
353.774
354.531
354.929
354.929
354.531
353.774
352.727
351.475
350.105
348.692
347.304
346.015
344.993
339.145
340.009
341.12
342.32
343.542
344.727
345.808
346.713
347.366
347.71
347.71
347.366
346.713
345.808
344.727
343.542
342.32
341.12
340.009
339.145
333.237
333.953
334.889
335.902
336.934
337.934
338.847
339.61
340.162
340.451
340.451
340.162
339.61
338.847
337.934
336.934
335.902
334.889
333.953
333.237
327.277
327.852
328.614
329.442
330.285
331.102
331.848
332.47
332.92
333.157
333.157
332.92
332.47
331.848
331.102
330.285
329.442
328.614
327.852
327.277
321.27
321.712
322.303
322.946
323.6
324.235
324.814
325.298
325.647
325.831
325.831
325.647
325.298
324.814
324.235
323.6
322.946
322.303
321.712
321.27
315.228
315.54
315.961
316.42
316.887
317.34
317.754
318.099
318.348
318.479
318.479
318.348
318.099
317.754
317.34
316.887
316.42
315.961
315.54
315.228
309.158
309.344
309.597
309.872
310.153
310.425
310.673
310.88
311.029
311.108
311.108
311.029
310.88
310.673
310.425
310.153
309.872
309.597
309.344
309.158
303.072
303.134
303.218
303.311
303.405
303.496
303.579
303.648
303.698
303.725
303.725
303.698
303.648
303.579
303.496
303.405
303.311
303.218
303.134
303.072
345.52
346.496
347.725
349.042
350.377
351.667
352.841
353.819
354.524
354.894
354.894
354.524
353.819
352.841
351.667
350.377
349.042
347.725
346.496
345.52
339.6
340.425
341.484
342.623
343.778
344.894
345.908
346.753
347.362
347.682
347.682
347.362
346.753
345.908
344.894
343.778
342.623
341.484
340.425
339.6
333.621
334.305
335.196
336.158
337.134
338.076
338.932
339.645
340.159
340.429
340.429
340.159
339.645
338.932
338.076
337.134
336.158
335.196
334.305
333.621
327.589
328.14
328.866
329.651
330.449
331.218
331.917
332.5
332.919
333.139
333.139
332.919
332.5
331.917
331.218
330.449
329.651
328.866
328.14
327.589
321.513
321.936
322.498
323.109
323.728
324.326
324.869
325.321
325.647
325.818
325.818
325.647
325.321
324.869
324.326
323.728
323.109
322.498
321.936
321.513
315.401
315.699
316.101
316.536
316.978
317.405
317.793
318.115
318.348
318.47
318.47
318.348
318.115
317.793
317.405
316.978
316.536
316.101
315.699
315.401
309.262
309.44
309.68
309.942
310.207
310.463
310.696
310.89
311.029
311.102
311.102
311.029
310.89
310.696
310.463
310.207
309.942
309.68
309.44
309.262
303.106
303.166
303.247
303.334
303.423
303.509
303.587
303.652
303.698
303.723
303.723
303.698
303.652
303.587
303.509
303.423
303.334
303.247
303.166
303.106
346.149
347.076
348.239
349.481
350.733
351.938
353.029
353.934
354.586
354.927
354.927
354.586
353.934
353.029
351.938
350.733
349.481
348.239
347.076
346.149
340.143
340.927
341.929
343.003
344.086
345.128
346.071
346.854
347.417
347.712
347.712
347.417
346.854
346.071
345.128
344.086
343.003
341.929
340.927
340.143
334.079
334.729
335.573
336.479
337.395
338.275
339.071
339.732
340.207
340.456
340.456
340.207
339.732
339.071
338.275
337.395
336.479
335.573
334.729
334.079
327.963
328.486
329.173
329.914
330.662
331.381
332.031
332.571
332.959
333.162
333.162
332.959
332.571
332.031
331.381
330.662
329.914
329.173
328.486
327.963
321.803
322.205
322.737
323.313
323.894
324.452
324.958
325.377
325.678
325.836
325.836
325.678
325.377
324.958
324.452
323.894
323.313
322.737
322.205
321.803
315.608
315.892
316.271
316.682
317.097
317.496
317.856
318.156
318.37
318.483
318.483
318.37
318.156
317.856
317.496
317.097
316.682
316.271
315.892
315.608
309.386
309.555
309.783
310.029
310.278
310.518
310.734
310.914
311.043
311.11
311.11
311.043
310.914
310.734
310.518
310.278
310.029
309.783
309.555
309.386
303.148
303.205
303.281
303.363
303.447
303.527
303.6
303.66
303.703
303.726
303.726
303.703
303.66
303.6
303.527
303.447
303.363
303.281
303.205
303.148
346.886
347.762
348.856
350.018
351.185
352.302
353.309
354.141
354.738
355.05
355.05
354.738
354.141
353.309
352.302
351.185
350.018
348.856
347.762
346.886
340.779
341.52
342.463
343.468
344.478
345.444
346.315
347.034
347.55
347.82
347.82
347.55
347.034
346.315
345.444
344.478
343.468
342.463
341.52
340.779
334.616
335.23
336.023
336.872
337.726
338.542
339.277
339.885
340.321
340.548
340.548
340.321
339.885
339.277
338.542
337.726
336.872
336.023
335.23
334.616
328.401
328.895
329.542
330.235
330.933
331.6
332.2
332.697
333.053
333.239
333.239
333.053
332.697
332.2
331.6
330.933
330.235
329.542
328.895
328.401
322.143
322.522
323.024
323.563
324.104
324.622
325.089
325.475
325.751
325.896
325.896
325.751
325.475
325.089
324.622
324.104
323.563
323.024
322.522
322.143
315.85
316.118
316.476
316.86
317.247
317.617
317.95
318.226
318.423
318.526
318.526
318.423
318.226
317.95
317.617
317.247
316.86
316.476
316.118
315.85
309.532
309.691
309.906
310.136
310.369
310.591
310.791
310.956
311.074
311.136
311.136
311.074
310.956
310.791
310.591
310.369
310.136
309.906
309.691
309.532
303.197
303.25
303.322
303.399
303.477
303.552
303.619
303.674
303.714
303.734
303.734
303.714
303.674
303.619
303.552
303.477
303.399
303.322
303.25
303.197
347.736
348.559
349.582
350.665
351.745
352.774
353.697
354.458
355.001
355.285
355.285
355.001
354.458
353.697
352.774
351.745
350.665
349.582
348.559
347.736
341.513
342.209
343.092
344.028
344.963
345.853
346.652
347.309
347.779
348.024
348.024
347.779
347.309
346.652
345.853
344.963
344.028
343.092
342.209
341.513
335.235
335.812
336.555
337.345
338.136
338.888
339.562
340.118
340.515
340.722
340.722
340.515
340.118
339.562
338.888
338.136
337.345
336.555
335.812
335.235
328.907
329.371
329.976
330.622
331.268
331.883
332.434
332.888
333.212
333.381
333.381
333.212
332.888
332.434
331.883
331.268
330.622
329.976
329.371
328.907
322.536
322.892
323.361
323.863
324.365
324.843
325.271
325.624
325.875
326.007
326.007
325.875
325.624
325.271
324.843
324.365
323.863
323.361
322.892
322.536
316.13
316.382
316.717
317.075
317.433
317.774
318.08
318.332
318.512
318.605
318.605
318.512
318.332
318.08
317.774
317.433
317.075
316.717
316.382
316.13
309.7
309.85
310.05
310.265
310.48
310.685
310.869
311.02
311.128
311.184
311.184
311.128
311.02
310.869
310.685
310.48
310.265
310.05
309.85
309.7
303.253
303.303
303.371
303.443
303.515
303.583
303.645
303.695
303.732
303.75
303.75
303.732
303.695
303.645
303.583
303.515
303.443
303.371
303.303
303.253
348.704
349.474
350.427
351.429
352.425
353.367
354.209
354.9
355.392
355.648
355.648
355.392
354.9
354.209
353.367
352.425
351.429
350.427
349.474
348.704
342.35
343.001
343.822
344.689
345.551
346.367
347.095
347.693
348.118
348.34
348.34
348.118
347.693
347.095
346.367
345.551
344.689
343.822
343.001
342.35
335.941
336.481
337.172
337.904
338.633
339.322
339.938
340.442
340.802
340.989
340.989
340.802
340.442
339.938
339.322
338.633
337.904
337.172
336.481
335.941
329.483
329.917
330.481
331.079
331.674
332.238
332.741
333.153
333.447
333.6
333.6
333.447
333.153
332.741
332.238
331.674
331.079
330.481
329.917
329.483
322.984
323.316
323.753
324.218
324.681
325.119
325.51
325.83
326.058
326.177
326.177
326.058
325.83
325.51
325.119
324.681
324.218
323.753
323.316
322.984
316.45
316.685
316.997
317.328
317.659
317.972
318.251
318.48
318.642
318.727
318.727
318.642
318.48
318.251
317.972
317.659
317.328
316.997
316.685
316.45
309.891
310.032
310.218
310.418
310.616
310.804
310.971
311.109
311.206
311.257
311.257
311.206
311.109
310.971
310.804
310.616
310.418
310.218
310.032
309.891
303.317
303.364
303.427
303.494
303.56
303.623
303.679
303.725
303.758
303.775
303.775
303.758
303.725
303.679
303.623
303.56
303.494
303.427
303.364
303.317
349.796
350.513
351.396
352.32
353.233
354.093
354.857
355.481
355.924
356.155
356.155
355.924
355.481
354.857
354.093
353.233
352.32
351.396
350.513
349.796
343.293
343.899
344.661
345.46
346.25
346.995
347.656
348.196
348.58
348.779
348.779
348.58
348.196
347.656
346.995
346.25
345.46
344.661
343.899
343.293
336.737
337.239
337.88
338.556
339.224
339.853
340.412
340.868
341.192
341.361
341.361
341.192
340.868
340.412
339.853
339.224
338.556
337.88
337.239
336.737
330.133
330.537
331.059
331.611
332.157
332.672
333.129
333.502
333.766
333.904
333.904
333.766
333.502
333.129
332.672
332.157
331.611
331.059
330.537
330.133
323.488
323.798
324.203
324.632
325.056
325.456
325.811
326.101
326.307
326.414
326.414
326.307
326.101
325.811
325.456
325.056
324.632
324.203
323.798
323.488
316.81
317.029
317.318
317.624
317.927
318.213
318.466
318.673
318.82
318.896
318.896
318.82
318.673
318.466
318.213
317.927
317.624
317.318
317.029
316.81
310.107
310.238
310.411
310.595
310.777
310.948
311.101
311.225
311.313
311.359
311.359
311.313
311.225
311.101
310.948
310.777
310.595
310.411
310.238
310.107
303.39
303.433
303.491
303.553
303.614
303.671
303.723
303.764
303.794
303.809
303.809
303.794
303.764
303.723
303.671
303.614
303.553
303.491
303.433
303.39
351.015
351.68
352.496
353.345
354.179
354.96
355.651
356.213
356.611
356.817
356.817
356.611
356.213
355.651
354.96
354.179
353.345
352.496
351.68
351.015
344.347
344.909
345.612
346.347
347.068
347.745
348.343
348.829
349.174
349.352
349.352
349.174
348.829
348.343
347.745
347.068
346.347
345.612
344.909
344.347
337.626
338.092
338.684
339.305
339.915
340.487
340.993
341.404
341.695
341.845
341.845
341.695
341.404
340.993
340.487
339.915
339.305
338.684
338.092
337.626
330.859
331.234
331.716
332.223
332.722
333.19
333.603
333.939
334.177
334.3
334.3
334.177
333.939
333.603
333.19
332.722
332.223
331.716
331.234
330.859
324.052
324.339
324.713
325.107
325.495
325.859
326.18
326.441
326.626
326.722
326.722
326.626
326.441
326.18
325.859
325.495
325.107
324.713
324.339
324.052
317.212
317.416
317.682
317.963
318.241
318.5
318.73
318.916
319.048
319.117
319.117
319.048
318.916
318.73
318.5
318.241
317.963
317.682
317.416
317.212
310.349
310.47
310.63
310.799
310.965
311.121
311.259
311.371
311.45
311.491
311.491
311.45
311.371
311.259
311.121
310.965
310.799
310.63
310.47
310.349
303.471
303.511
303.565
303.621
303.677
303.729
303.776
303.813
303.84
303.853
303.853
303.84
303.813
303.776
303.729
303.677
303.621
303.565
303.511
303.471
352.365
352.98
353.731
354.508
355.267
355.975
356.598
357.102
357.458
357.642
357.642
357.458
357.102
356.598
355.975
355.267
354.508
353.731
352.98
352.365
345.513
346.033
346.68
347.353
348.01
348.623
349.162
349.599
349.907
350.067
350.067
349.907
349.599
349.162
348.623
348.01
347.353
346.68
346.033
345.513
338.611
339.042
339.586
340.155
340.711
341.229
341.685
342.054
342.314
342.449
342.449
342.314
342.054
341.685
341.229
340.711
340.155
339.586
339.042
338.611
331.663
332.009
332.453
332.918
333.372
333.796
334.169
334.471
334.684
334.794
334.794
334.684
334.471
334.169
333.796
333.372
332.918
332.453
332.009
331.663
324.676
324.942
325.286
325.647
326
326.33
326.62
326.854
327.02
327.106
327.106
327.02
326.854
326.62
326.33
326
325.647
325.286
324.942
324.676
317.658
317.846
318.091
318.349
318.601
318.836
319.043
319.211
319.329
319.39
319.39
319.329
319.211
319.043
318.836
318.601
318.349
318.091
317.846
317.658
310.616
310.728
310.875
311.03
311.182
311.323
311.447
311.548
311.619
311.656
311.656
311.619
311.548
311.447
311.323
311.182
311.03
310.875
310.728
310.616
303.56
303.598
303.647
303.699
303.75
303.797
303.839
303.872
303.896
303.908
303.908
303.896
303.872
303.839
303.797
303.75
303.699
303.647
303.598
303.56
353.846
354.413
355.102
355.812
356.501
357.141
357.701
358.153
358.471
358.635
358.635
358.471
358.153
357.701
357.141
356.501
355.812
355.102
354.413
353.846
346.792
347.272
347.866
348.48
349.078
349.631
350.117
350.508
350.783
350.926
350.926
350.783
350.508
350.117
349.631
349.078
348.48
347.866
347.272
346.792
339.69
340.088
340.588
341.107
341.612
342.08
342.491
342.822
343.054
343.175
343.175
343.054
342.822
342.491
342.08
341.612
341.107
340.588
340.088
339.69
332.544
332.864
333.272
333.696
334.109
334.492
334.827
335.098
335.288
335.386
335.386
335.288
335.098
334.827
334.492
334.109
333.696
333.272
332.864
332.544
325.361
325.606
325.922
326.251
326.573
326.87
327.131
327.342
327.49
327.566
327.566
327.49
327.342
327.131
326.87
326.573
326.251
325.922
325.606
325.361
318.146
318.319
318.545
318.78
319.01
319.222
319.409
319.559
319.665
319.719
319.719
319.665
319.559
319.409
319.222
319.01
318.78
318.545
318.319
318.146
310.909
311.013
311.148
311.289
311.427
311.555
311.666
311.757
311.82
311.853
311.853
311.82
311.757
311.666
311.555
311.427
311.289
311.148
311.013
310.909
303.658
303.693
303.738
303.786
303.832
303.875
303.912
303.942
303.964
303.975
303.975
303.964
303.942
303.912
303.875
303.832
303.786
303.738
303.693
303.658
355.454
355.976
356.607
357.254
357.879
358.456
358.96
359.364
359.648
359.794
359.794
359.648
359.364
358.96
358.456
357.879
357.254
356.607
355.976
355.454
348.181
348.622
349.167
349.727
350.268
350.768
351.204
351.554
351.8
351.927
351.927
351.8
351.554
351.204
350.768
350.268
349.727
349.167
348.622
348.181
340.862
341.227
341.686
342.159
342.617
343.04
343.408
343.704
343.912
344.019
344.019
343.912
343.704
343.408
343.04
342.617
342.159
341.686
341.227
340.862
333.5
333.794
334.167
334.554
334.929
335.275
335.576
335.818
335.988
336.076
336.076
335.988
335.818
335.576
335.275
334.929
334.554
334.167
333.794
333.5
326.102
326.328
326.617
326.918
327.209
327.478
327.713
327.901
328.033
328.101
328.101
328.033
327.901
327.713
327.478
327.209
326.918
326.617
326.328
326.102
318.675
318.835
319.041
319.256
319.464
319.656
319.824
319.958
320.052
320.101
320.101
320.052
319.958
319.824
319.656
319.464
319.256
319.041
318.835
318.675
311.227
311.322
311.446
311.574
311.699
311.815
311.915
311.996
312.053
312.082
312.082
312.053
311.996
311.915
311.815
311.699
311.574
311.446
311.322
311.227
303.765
303.797
303.838
303.881
303.923
303.962
303.996
304.023
304.042
304.051
304.051
304.042
304.023
303.996
303.962
303.923
303.881
303.838
303.797
303.765
357.173
357.653
358.231
358.82
359.387
359.908
360.359
360.721
360.974
361.105
361.105
360.974
360.721
360.359
359.908
359.387
358.82
358.231
357.653
357.173
349.663
350.069
350.567
351.077
351.568
352.019
352.411
352.724
352.944
353.057
353.057
352.944
352.724
352.411
352.019
351.568
351.077
350.567
350.069
349.663
342.11
342.446
342.865
343.297
343.712
344.094
344.425
344.69
344.876
344.971
344.971
344.876
344.69
344.425
344.094
343.712
343.297
342.865
342.446
342.11
334.517
334.787
335.129
335.482
335.822
336.134
336.405
336.622
336.773
336.852
336.852
336.773
336.622
336.405
336.134
335.822
335.482
335.129
334.787
334.517
326.891
327.098
327.363
327.637
327.902
328.144
328.355
328.524
328.642
328.703
328.703
328.642
328.524
328.355
328.144
327.902
327.637
327.363
327.098
326.891
319.237
319.384
319.573
319.769
319.957
320.131
320.281
320.402
320.486
320.53
320.53
320.486
320.402
320.281
320.131
319.957
319.769
319.573
319.384
319.237
311.564
311.651
311.764
311.882
311.995
312.099
312.19
312.262
312.313
312.339
312.339
312.313
312.262
312.19
312.099
311.995
311.882
311.764
311.651
311.564
303.878
303.907
303.945
303.984
304.022
304.057
304.087
304.112
304.129
304.137
304.137
304.129
304.112
304.087
304.057
304.022
303.984
303.945
303.907
303.878
358.96
359.402
359.931
360.469
360.983
361.453
361.86
362.185
362.411
362.528
362.528
362.411
362.185
361.86
361.453
360.983
360.469
359.931
359.402
358.96
351.197
351.57
352.027
352.492
352.938
353.346
353.699
353.98
354.176
354.277
354.277
354.176
353.98
353.699
353.346
352.938
352.492
352.027
351.57
351.197
343.396
343.705
344.09
344.484
344.861
345.206
345.505
345.743
345.909
345.994
345.994
345.909
345.743
345.505
345.206
344.861
344.484
344.09
343.705
343.396
335.561
335.81
336.124
336.446
336.755
337.037
337.281
337.476
337.612
337.682
337.682
337.612
337.476
337.281
337.037
336.755
336.446
336.124
335.81
335.561
327.698
327.889
328.132
328.382
328.623
328.843
329.033
329.184
329.29
329.345
329.345
329.29
329.184
329.033
328.843
328.623
328.382
328.132
327.889
327.698
319.811
319.946
320.12
320.299
320.47
320.627
320.763
320.872
320.947
320.986
320.986
320.947
320.872
320.763
320.627
320.47
320.299
320.12
319.946
319.811
311.907
311.988
312.092
312.199
312.302
312.397
312.478
312.543
312.589
312.612
312.612
312.589
312.543
312.478
312.397
312.302
312.199
312.092
311.988
311.907
303.993
304.02
304.054
304.09
304.125
304.157
304.184
304.206
304.221
304.229
304.229
304.221
304.206
304.184
304.157
304.125
304.09
304.054
304.02
303.993
360.698
361.106
361.594
362.087
362.558
362.986
363.356
363.649
363.854
363.959
363.959
363.854
363.649
363.356
362.986
362.558
362.087
361.594
361.106
360.698
352.669
353.015
353.436
353.864
354.273
354.645
354.965
355.22
355.398
355.489
355.489
355.398
355.22
354.965
354.645
354.273
353.864
353.436
353.015
352.669
344.617
344.904
345.259
345.622
345.968
346.283
346.555
346.771
346.922
346.999
346.999
346.922
346.771
346.555
346.283
345.968
345.622
345.259
344.904
344.617
336.544
336.775
337.065
337.361
337.645
337.903
338.126
338.303
338.426
338.49
338.49
338.426
338.303
338.126
337.903
337.645
337.361
337.065
336.775
336.544
328.452
328.629
328.854
329.085
329.306
329.507
329.68
329.818
329.914
329.964
329.964
329.914
329.818
329.68
329.507
329.306
329.085
328.854
328.629
328.452
320.344
320.47
320.63
320.795
320.953
321.097
321.221
321.32
321.388
321.424
321.424
321.388
321.32
321.221
321.097
320.953
320.795
320.63
320.47
320.344
312.225
312.3
312.396
312.495
312.59
312.677
312.751
312.811
312.852
312.873
312.873
312.852
312.811
312.751
312.677
312.59
312.495
312.396
312.3
312.225
304.099
304.124
304.156
304.189
304.221
304.25
304.275
304.295
304.309
304.316
304.316
304.309
304.295
304.275
304.25
304.221
304.189
304.156
304.124
304.099
362.074
362.457
362.916
363.379
363.819
364.219
364.562
364.834
365.024
365.121
365.121
365.024
364.834
364.562
364.219
363.819
363.379
362.916
362.457
362.074
353.791
354.117
354.514
354.917
355.3
355.648
355.947
356.185
356.35
356.434
356.434
356.35
356.185
355.947
355.648
355.3
354.917
354.514
354.117
353.791
345.519
345.79
346.126
346.468
346.793
347.089
347.343
347.545
347.685
347.757
347.757
347.685
347.545
347.343
347.089
346.793
346.468
346.126
345.79
345.519
337.251
337.47
337.745
338.025
338.292
338.535
338.744
338.909
339.025
339.084
339.084
339.025
338.909
338.744
338.535
338.292
338.025
337.745
337.47
337.251
328.984
329.152
329.366
329.584
329.793
329.982
330.145
330.274
330.364
330.41
330.41
330.364
330.274
330.145
329.982
329.793
329.584
329.366
329.152
328.984
320.715
320.834
320.987
321.143
321.292
321.428
321.545
321.637
321.702
321.735
321.735
321.702
321.637
321.545
321.428
321.292
321.143
320.987
320.834
320.715
312.444
312.515
312.607
312.701
312.791
312.872
312.942
312.998
313.037
313.057
313.057
313.037
312.998
312.942
312.872
312.791
312.701
312.607
312.515
312.444
304.172
304.195
304.226
304.258
304.288
304.315
304.339
304.357
304.37
304.377
304.377
304.37
304.357
304.339
304.315
304.288
304.258
304.226
304.195
304.172
)
;

boundaryField
{
    hotSide
    {
        type            fixedGradient;
        gradient        nonuniform List<scalar> 
400
(
448.692
449.599
451.423
454.19
457.934
462.697
468.529
475.483
483.615
492.98
503.632
515.621
528.993
543.792
560.052
577.805
597.077
617.89
640.261
664.201
463.889
464.674
466.263
468.686
471.989
476.23
481.472
487.785
495.241
503.911
513.86
525.153
537.844
551.982
567.612
584.767
603.476
623.762
645.643
669.13
480.334
480.976
482.283
484.298
487.08
490.705
495.257
500.826
507.504
515.377
524.53
535.039
546.969
560.379
575.317
591.822
609.924
629.648
651.009
674.02
497.756
498.232
499.211
500.752
502.933
505.852
509.618
514.344
520.146
527.133
535.406
545.056
556.16
568.786
582.987
598.804
616.271
635.409
656.235
678.758
515.669
515.956
516.568
517.579
519.091
521.228
524.127
527.933
532.786
538.819
546.154
554.897
565.137
576.949
590.391
605.507
622.331
640.882
661.175
683.214
533.325
533.41
533.63
534.077
534.878
536.19
538.182
541.03
544.903
549.96
556.343
564.173
573.55
584.557
597.254
611.688
627.889
645.878
665.662
687.246
549.712
549.597
549.426
549.311
549.409
549.909
551.014
552.93
555.859
559.982
565.46
572.429
581
591.259
603.27
617.08
632.717
650.197
669.527
690.704
563.622
563.325
562.801
562.182
561.652
561.428
561.747
562.844
564.945
568.256
572.953
579.184
587.068
596.695
608.13
621.418
636.586
653.647
672.603
693.447
573.8
573.364
572.57
571.567
570.559
569.787
569.511
569.992
571.475
574.182
578.301
583.989
591.369
600.534
611.551
624.463
639.294
656.055
674.744
695.352
579.194
578.682
577.741
576.529
575.26
574.191
573.595
573.744
574.896
577.279
581.089
586.488
593.602
602.524
613.32
626.034
640.689
657.293
675.843
696.329
579.194
578.682
577.741
576.529
575.26
574.191
573.595
573.744
574.896
577.279
581.089
586.488
593.602
602.524
613.32
626.034
640.689
657.293
675.843
696.329
573.8
573.364
572.57
571.567
570.559
569.787
569.511
569.992
571.475
574.182
578.301
583.989
591.369
600.534
611.551
624.463
639.294
656.055
674.744
695.352
563.622
563.325
562.801
562.182
561.652
561.428
561.747
562.844
564.945
568.256
572.953
579.184
587.068
596.695
608.13
621.418
636.586
653.647
672.603
693.447
549.712
549.597
549.426
549.311
549.409
549.909
551.014
552.93
555.859
559.982
565.46
572.429
581
591.259
603.27
617.08
632.717
650.197
669.527
690.704
533.325
533.41
533.63
534.077
534.878
536.19
538.182
541.03
544.903
549.96
556.343
564.173
573.55
584.557
597.254
611.688
627.889
645.878
665.662
687.246
515.669
515.956
516.568
517.579
519.091
521.228
524.127
527.933
532.786
538.819
546.154
554.897
565.137
576.949
590.391
605.507
622.331
640.882
661.175
683.214
497.756
498.232
499.211
500.752
502.933
505.852
509.618
514.344
520.146
527.133
535.406
545.056
556.16
568.786
582.987
598.804
616.271
635.409
656.235
678.758
480.334
480.976
482.283
484.298
487.08
490.705
495.257
500.826
507.504
515.377
524.53
535.039
546.969
560.379
575.317
591.822
609.924
629.648
651.009
674.02
463.889
464.674
466.263
468.686
471.989
476.23
481.472
487.785
495.241
503.911
513.86
525.153
537.844
551.982
567.612
584.767
603.476
623.762
645.643
669.13
448.692
449.599
451.423
454.19
457.934
462.697
468.529
475.483
483.615
492.98
503.632
515.621
528.993
543.792
560.052
577.805
597.077
617.89
640.261
664.201
)
;
    }
    coldSide
    {
        type            mixed;
        refValue        uniform 300;
        refGradient     uniform 0;
        valueFraction   uniform 0.991591;
        source          uniform 0;
        value           nonuniform List<scalar> 
400
(
300.025
300.025
300.025
300.025
300.026
300.026
300.026
300.026
300.027
300.027
300.028
300.029
300.029
300.03
300.031
300.032
300.033
300.034
300.034
300.035
300.026
300.026
300.026
300.026
300.026
300.026
300.027
300.027
300.027
300.028
300.028
300.029
300.03
300.03
300.031
300.032
300.033
300.034
300.035
300.035
300.027
300.027