/*--------------------------------*- C++ -*----------------------------------*\
| =========                 |                                                 |
| \\      /  F ield         | OpenFOAM: The Open Source CFD Toolbox           |
|  \\    /   O peration     | Version:  2212                                  |
|   \\  /    A nd           | Website:  www.openfoam.com                      |
|    \\/     M anipulation  |                                                 |
\*---------------------------------------------------------------------------*/
FoamFile
{
    version     2.0;
    format      ascii;
    arch        "LSB;label=32;scalar=64";
    class       volScalarField;
    location    "0";
    object      relativeErrorField;
}
// * * * * * * * * * * * * * * * * * * * * * * * * * * * * * * * * * * * * * //

dimensions      [0 0 0 1 0 0 0];

internalField   nonuniform List<scalar> 
3200
(
0.0105337
0.00998219
0.00968991
0.00938195
0.00966839
0.00973674
0.0101166
0.0106148
0.0111547
0.0113225
0.0115588
0.0115487
0.0112148
0.011208
0.0107767
0.0106849
0.010755
0.0112478
0.0118464
0.0123313
0.00924299
0.008848
0.00858441
0.00853206
0.00836601
0.00863423
0.00916741
0.00948282
0.00981813
0.0100067
0.010247
0.0102078
0.00977848
0.00989037
0.00975815
0.00961903
0.0094699
0.00972554
0.0103445
0.0107654
0.00796691
0.00732724
0.00726157
0.00723291
0.00726127
0.00752981
0.00775066
0.00826673
0.00853126
0.00866891
0.00873656
0.00870755
0.00849149
0.00856334
0.00802189
0.00811531
0.00811079
0.00823667
0.0087261
0.00908877
0.00644719
0.00635389
0.00617673
0.00606191
0.00604065
0.00616447
0.00653222
0.00690182
0.00721181
0.00712167
0.0074386
0.00740089
0.0070802
0.00725631
0.00706465
0.00670023
0.00665128
0.00691177
0.00736571
0.0076811
0.00524803
0.00496872
0.00493658
0.00488055
0.00501565
0.0052496
0.0052364
0.00539109
0.00549592
0.00584601
0.00592166
0.00576597
0.0056591
0.00559388
0.00535031
0.00544445
0.00517199
0.00569182
0.00573817
0.00615236
0.00376665
0.00369092
0.00340618
0.0033666
0.00342106
0.00377906
0.00372536
0.00379153
0.00394954
0.00405929
0.00421573
0.00417781
0.00434125
0.0042256
0.00394344
0.00412057
0.00389973
0.00404862
0.00413737
0.00444721
0.00215849
0.00211826
0.00204891
0.00204906
0.00218139
0.00206413
0.00204488
0.00261657
0.00245141
0.00256495
0.00267937
0.00256318
0.00255621
0.00255275
0.00239684
0.00250761
0.00244644
0.0024022
0.00260048
0.00285451
0.000625817
0.000863635
0.000842125
0.000666882
0.000663116
0.000796462
0.00103023
0.000916578
0.000874166
0.000950724
0.000844923
0.000995524
0.000817891
0.00070577
0.000761631
0.000954852
0.000768574
0.000721763
0.000993327
0.000959377
0.00851374
0.00788861
0.00745414
0.00756301
0.00743544
0.00762555
0.00766284
0.00838078
0.00882058
0.00899708
0.00921053
0.00904551
0.00892076
0.00880781
0.00870334
0.00868852
0.00851293
0.00889794
0.00961003
0.0102792
0.0076259
0.00722512
0.00694285
0.00638873
0.00672574
0.00669035
0.00721302
0.00739508
0.00784872
0.00827302
0.00826375
0.00810151
0.00806434
0.0078048
0.00764417
0.00760238
0.00786146
0.00790696
0.00850563
0.00897465
0.00698058
0.00619546
0.00584678
0.00576437
0.00568684
0.00607563
0.00633404
0.00666813
0.0069219
0.00694245
0.0073248
0.00709856
0.00685661
0.00672007
0.00665167
0.00648202
0.00660499
0.00705297
0.00744935
0.00793465
0.00554008
0.00537798
0.00493905
0.00493805
0.00489549
0.00508072
0.00525321
0.00565032
0.00572074
0.00602766
0.00610396
0.00587067
0.00574374
0.00563945
0.00562948
0.00533829
0.00552963
0.00589963
0.00611576
0.00633909
0.0044407
0.00408107
0.00406504
0.00381498
0.00389684
0.00404806
0.00435914
0.00454665
0.0046891
0.00495389
0.00467016
0.00472772
0.00484815
0.00451475
0.00440741
0.00447185
0.0047418
0.00466189
0.00503934
0.00499127
0.00320766
0.00313934
0.0029762
0.00288702
0.00302159
0.0028686
0.0031013
0.00333309
0.00359078
0.00366386
0.0036269
0.00335763
0.00342555
0.00363879
0.00339879
0.00331355
0.00314282
0.00328178
0.00366938
0.00366538
0.00215128
0.0016431
0.0017628
0.0018494
0.0020424
0.0017026
0.00194995
0.00200183
0.00210649
0.00217821
0.00219052
0.00222657
0.00196194
0.00196492
0.00213997
0.00191881
0.00173214
0.00206836
0.00214163
0.00205156
0.000488556
0.000620703
0.000568897
0.00054662
0.000650092
0.000661917
0.000450009
0.000722405
0.000733849
0.000557109
0.000796617
0.000774722
0.000860374
0.000739738
0.000750929
0.000735276
0.000703677
0.000625402
0.00060777
0.000969018
0.00647971
0.00566685
0.00508246
0.00476463
0.00462076
0.00474737
0.00498679
0.00561887
0.00587752
0.0064008
0.00633862
0.00620153
0.006156
0.00589365
0.00573446
0.0055809
0.00586853
0.0065166
0.00716075
0.00801793
0.00584492
0.00514621
0.00485428
0.00446612
0.00439556
0.00435104
0.00499224
0.00483515
0.0053309
0.00561339
0.00574633
0.0057014
0.00546305
0.00539098
0.00532926
0.00529797
0.00546891
0.00589143
0.00630357
0.00709593
0.00496497
0.00476749
0.00418609
0.0038495
0.00405853
0.00411371
0.00440735
0.0045547
0.00476129
0.00505989
0.00503585
0.00493909
0.00513542
0.00485039
0.00464283
0.00452896
0.0047696
0.00505502
0.0054612
0.00613952
0.00429125
0.00408263
0.00366694
0.00347181
0.00318973
0.00352801
0.00387519
0.00394989
0.00422844
0.00431503
0.00444787
0.00428449
0.00419838
0.00407297
0.00422579
0.00378026
0.00418163
0.00437084
0.00455265
0.00502304
0.00343477
0.00341229
0.00282786
0.00287126
0.00276167
0.00292738
0.00275866
0.00323353
0.00315811
0.00364248
0.00357506
0.00358261
0.00343275
0.00337048
0.0033523
0.00305426
0.00322898
0.0033593
0.00345684
0.00392819
0.00234445
0.00263022
0.00203036
0.00196307
0.00206779
0.00195954
0.00229704
0.00229407
0.00230703
0.00268609
0.00258319
0.00243828
0.00249938
0.00244262
0.00230953
0.00239628
0.0024396
0.00240532
0.00276655
0.00307835
0.00162377
0.00132006
0.00123813
0.00115571
0.00122829
0.00138939
0.00129968
0.00157397
0.00151596
0.00182981
0.00166163
0.00166981
0.00172549
0.00140303
0.00145085
0.00132497
0.00165455
0.00152976
0.00155099
0.00207531
0.000496599
0.000346941
0.000224168
0.000196907
0.000279183
0.000497502
0.000704034
0.00054167
0.000589647
0.000710933
0.000654834
0.000528011
0.000533199
0.000722294
0.000429578
0.000344093
0.000503451
0.00062268
0.000605561
0.000742205
0.00421939
0.00341899
0.00249943
0.00243723
0.00202485
0.00225673
0.00246105
0.00256129
0.00308542
0.00333985
0.00337061
0.00329046
0.00333292
0.0030415
0.00293659
0.00313002
0.00328046
0.00411327
0.00493997
0.00542333
0.00390398
0.00321209
0.00265807
0.00200234
0.00220477
0.0022524
0.00220971
0.00280585
0.00282067
0.00297294
0.00313599
0.00304549
0.0029064
0.00317851
0.00315631
0.00311687
0.00306415
0.00362983
0.00435961
0.00503936
0.00353595
0.00295122
0.00237242
0.00235853
0.00202012
0.00216179
0.00224882
0.00262373
0.00269733
0.00279134
0.00294438
0.00301938
0.00279576
0.00276871
0.0028147
0.00260784
0.00294837
0.00339076
0.00410736
0.00444719
0.00293366
0.00262162
0.00199327
0.00178448
0.00184092
0.00194001
0.00197248
0.00203216
0.0023104
0.00256529
0.0028492
0.0026371
0.00226915
0.00246568
0.00224562
0.0023938
0.00256536
0.00289849
0.00321449
0.00374971
0.00229366
0.00211161
0.0016553
0.00162419
0.00162449
0.00157541
0.0016255
0.00197484
0.00217199
0.00193209
0.00224602
0.00222306
0.00205441
0.00196872
0.00185735
0.00162751
0.0021075
0.00252477
0.00291175
0.0029983
0.00186124
0.00155802
0.00136464
0.00129421
0.00105193
0.00121212
0.00135793
0.00150205
0.00131382
0.00160035
0.00166972
0.00137578
0.00155761
0.00175677
0.00148709
0.00138982
0.0016049
0.00156827
0.00208417
0.00210056
0.000960324
0.00101631
0.000686098
0.000873669
0.000634139
0.000672863
0.000801852
0.000990067
0.00084496
0.00115134
0.000951626
0.00084115
0.000999373
0.000782759
0.000679261
0.000859889
0.00110574
0.000960646
0.00130611
0.00130877
0.000223497
0.000272388
0.000277068
0.000198093
0.000168439
0.000150022
0.000361809
0.000476551
0.000344499
0.000334177
0.000340741
0.000264394
0.000259511
0.000421266
0.00024598
0.000460198
0.000112087
0.000283768
0.00049143
0.000413285
0.00223221
0.00149238
0.000370178
0.000180829
0.000192445
0.000185752
4.18547e-05
0.000112236
0.000323111
0.000583078
0.000427129
0.000593543
0.000588092
0.000629219
0.000510083
0.000732084
0.00110916
0.00177713
0.00279042
0.00370425
0.0025216
0.00139771
0.00093385
0.000612037
6.99601e-05
0.000256803
0.000244681
0.000361335
0.000626811
0.000809704
0.000698945
0.000725105
0.000914384
0.000709997
0.000879631
0.00100211
0.00125836
0.00196329
0.00259006
0.00343799
0.00223389
0.00134569
0.000714573
0.000622435
0.000155405
0.000420982
0.000367391
0.000654638
0.00087787
0.000701872
0.000966077
0.000880325
0.000707439
0.000888745
0.000620501
0.000910092
0.00117563
0.00164265
0.00244621
0.0029791
0.00175735
0.00116573
0.000868773
0.000616775
0.000325375
0.000411778
0.000521672
0.000574115
0.000630425
0.000771831
0.000974465
0.000746045
0.00101641
0.000767864
0.000932773
0.00073949
0.000828276
0.00154639
0.00194382
0.0024654
0.00160988
0.00109455
0.000852229
0.00056919
0.000443468
0.000507707
0.000452799
0.000804681
0.000590132
0.00107586
0.000793642
0.000839228
0.000691959
0.000632489
0.000491173
0.000922714
0.00103094
0.00123307
0.00163313
0.00194671
0.00104203
0.000901182
0.000325631
0.000578633
0.00037176
0.000407822
0.000438359
0.000345621
0.000577008
0.000565726
0.000607279
0.000752618
0.000628262
0.000675607
0.000470483
0.000633098
0.000878459
0.000880969
0.00140762
0.00135987
0.000710209
0.00052953
0.000361304
0.000269452
0.00017334
0.000230884
0.000331958
0.000471792
0.00038634
0.000560078
0.00056298
0.000467074
0.000422066
0.000554081
0.000482492
0.000491754
0.000568276
0.000752839
0.000738717
0.00112833
0.000288962
9.95263e-05
1.12715e-05
1.26389e-05
5.7812e-05
0.000135466
0.00011356
0.000315379
4.82363e-05
0.000152674
5.25874e-05
0.000200569
0.000240545
2.00969e-05
1.32307e-05
0.000251511
0.000135763
0.00037944
0.000387252
0.0003965
0.000860675
9.01606e-05
0.000938515
0.00171859
0.00203751
0.00223651
0.00204034
0.00212356
0.00191167
0.00175993
0.00176812
0.00168213
0.0017246
0.00146701
0.00148047
0.000881087
0.00073436
6.49342e-05
0.00104178
0.00226312
0.00117807
8.52531e-05
0.000618051
0.00116533
0.00137077
0.00172508
0.00158282
0.00150766
0.00136681
0.00119118
0.00132239
0.0012368
0.00118576
0.00111651
0.000976155
0.000854272
0.000342182
0.00044369
0.00113529
0.00193925
0.00122626
0.000385382
0.000186562
0.000892493
0.00115251
0.00114801
0.00121121
0.00104382
0.000839364
0.000753828
0.000938513
0.000959624
0.000992082
0.000780255
0.000649597
0.000551947
5.66756e-05
0.000303979
0.00123046
0.0017869
0.00095564
0.000451729
0.000235245
0.000656152
0.000677951
0.000848245
0.000907695
0.000572263
0.000758279
0.000805978
0.000404309
0.000535364
0.000399036
0.000452635
0.00051713
0.00039513
3.61064e-05
0.000399926
0.000897533
0.00171502
0.000641478
0.000467399
5.15365e-05
0.000217665
0.00036177
0.000790974
0.000472127
0.000406985
0.000505145
0.000189256
4.10682e-05
0.000428558
0.000465433
0.000245056
0.000371705
8.62639e-05
0.000218244
0.000357689
0.00100598
0.00141836
0.000690744
0.00038586
7.78582e-05
0.000248065
0.00022978
0.00032606
0.000304304
0.000213418
0.000219375
0.000266679
0.00021934
0.000172613
0.000347027
0.000308913
0.000119015
0.000167643
4.09644e-05
0.000351963
0.000684718
0.00105712
0.000480578
8.3123e-05
2.62719e-06
6.03551e-06
0.000139588
0.000122898
0.000248149
7.24863e-06
7.99424e-05
0.000283133
0.000162111
1.73254e-05
2.03425e-05
1.2109e-05
8.86696e-05
6.39982e-05
6.98397e-05
0.000273783
0.000577625
0.000595065
0.000439252
2.25309e-05
7.4463e-05
0.000194339
7.24547e-05
7.12075e-05
8.8197e-05
5.72318e-05
3.89978e-05
0.000106664
9.38106e-05
7.82219e-05
0.000183135
9.48437e-05
0.000234103
0.000218421
0.000223843
1.60919e-05
0.000344329
8.41078e-05
0.000105385
0.0010604
0.00197284
0.0028271
0.00349142
0.00389729
0.003901
0.00356701
0.00382631
0.00352264
0.00345393
0.00363207
0.00330167
0.00343574
0.00328662
0.00277754
0.00237163
0.00127992
8.64634e-06
0.00101765
6.38298e-05
0.000686711
0.00165083
0.00234704
0.00267557
0.00317943
0.0030518
0.00327704
0.00326808
0.00298962
0.00281883
0.0028547
0.00283925
0.00259498
0.00263504
0.00206758
0.00153021
0.000704272
0.000225205
0.00105898
0.000414189
0.000472313
0.00141087
0.00165496
0.00215084
0.00242673
0.00233562
0.00255567
0.0024148
0.00233755
0.00219222
0.0022182
0.002217
0.00207299
0.00215005
0.00172625
0.00120664
0.000467651
0.000434009
0.00121358
0.00046954
0.000369118
0.00095055
0.00116306
0.00169121
0.00190593
0.00181306
0.00186619
0.00175898
0.00163784
0.00161628
0.00169631
0.0018479
0.00157183
0.00132124
0.00108037
0.000986551
0.000201974
0.00050435
0.00107998
0.000478354
2.07555e-05
0.000465576
0.00122409
0.000968534
0.00140246
0.0013004
0.00135745
0.00156955
0.00138392
0.0015101
0.00133904
0.00115265
0.00129639
0.00118766
0.00115049
0.000515434
0.000247976
0.00033869
0.00105636
0.000496879
8.16611e-05
0.000311393
0.000720766
0.000895785
0.000807268
0.00114782
0.000949994
0.000792975
0.00074848
0.000638455
0.000820535
0.00116382
0.000889875
0.000614153
0.000525952
0.000397655
0.00017927
0.000190061
0.000771982
0.000416306
9.52652e-05
0.000285591
0.000186582
0.000622277
0.000313265
0.000457972
0.000569751
0.000246757
0.000450023
0.000517681
0.000539922
0.000330925
0.000417566
0.000282347
0.000437626
0.000379104
4.51848e-05
0.000130923
0.000234869
0.000203471
0.000169591
0.000285108
0.000205395
0.00020723
0.000360542
0.000206149
0.000136767
3.12393e-05
9.70678e-05
0.000347624
0.000357015
0.000226221
0.000226254
0.000144484
6.38503e-05
0.000169084
0.000117787
0.000144675
2.21642e-05
0.000579814
0.00164654
0.00294056
0.00372893
0.0044009
0.00481782
0.00505289
0.00524161
0.00522952
0.00484874
0.00491842
0.0047218
0.00454093
0.00458454
0.00409114
0.00370954
0.00295674
0.00193895
0.000814992
0.000411877
8.10963e-06
0.00113993
0.00195816
0.00302626
0.00368259
0.00378473
0.00404416
0.00422627
0.00428198
0.00423747
0.0042262
0.0040964
0.00397796
0.00390905
0.00363158
0.00304332
0.00221423
0.00117929
0.000119662
0.00063629
0.000119513
0.00072309
0.00175562
0.00230581
0.0028494
0.00311717
0.0033371
0.00330794
0.00337064
0.00332297
0.00325755
0.00317331
0.00320753
0.0030247
0.00261898
0.0026083
0.00172772
0.0011372
0.000153787
0.00067753
0.000131503
0.000558076
0.00100313
0.00182299
0.00214123
0.00243777
0.00237913
0.00249016
0.00257841
0.00282367
0.00254445
0.00241545
0.00251528
0.00249101
0.00205186
0.00193896
0.00145688
0.000678835
0.000259079
0.000518196
0.000139162
4.82411e-05
0.000871427
0.0012465
0.00151849
0.00174732
0.00186934
0.00216947
0.00190044
0.0018589
0.00172415
0.00185029
0.00196301
0.00168634
0.00169196
0.00134367
0.000865071
0.000769479
5.89924e-05
0.000648174
3.8487e-05
0.000127716
0.000653287
0.000998154
0.00115512
0.00131632
0.00133574
0.00132561
0.00155004
0.00132583
0.00142021
0.00122999
0.0013063
0.0012004
0.0011716
0.000792364
0.000515506
0.000351579
0.000108682
0.000476948
0.000225185
1.06704e-05
0.000256472
0.000669904
0.00056786
0.000762315
0.000508023
0.000712361
0.000838635
0.000966169
0.000795452
0.000800441
0.000847837
0.000493036
0.000722921
0.000530296
0.000328847
6.27675e-05
4.3321e-05
0.000275982
0.000252263
0.000165223
5.72474e-05
0.000250858
0.000286494
0.000318156
0.000299288
0.00020969
0.000485652
0.000245524
0.000400322
0.000185388
0.000165219
0.00028939
0.000102523
7.50457e-05
9.96877e-05
5.60769e-05
0.000173736
3.00076e-05
0.000414519
0.00157059
0.00302564
0.00400188
0.00467525
0.00521194
0.0056547
0.00593933
0.00596404
0.00593438
0.00587961
0.00570622
0.00553728
0.00541311
0.00511432
0.00409529
0.00351079
0.00228128
0.00113731
0.000528515
7.55376e-05
0.00123222
0.00234259
0.00331615
0.00392423
0.00438173
0.00484577
0.00481044
0.00485881
0.00480946
0.00472549
0.00478419
0.00468777
0.00446909
0.00395702
0.00350987
0.00277777
0.00181692
0.000684138
0.000705215
0.000143319
0.000758298
0.00171658
0.00252843
0.00328136
0.0036724
0.00385489
0.00408186
0.00389523
0.00384813
0.00402523
0.00393165
0.00393989
0.00361967
0.00330174
0.00277543
0.00215989
0.00138969
0.000524096
0.000442821
0.000600354
0.000464021
0.00147119
0.00194754
0.00251529
0.00300869
0.00296087
0.0031157
0.00320641
0.00335037
0.00302898
0.00292016
0.00286745
0.00264496
0.00286062
0.00213784
0.00175519
0.000995478
0.000320034
0.0004373
0.00017655
0.000259506
0.00103839
0.00126997
0.00180277
0.00204681
0.00229333
0.00216083
0.0024892
0.00239381
0.00241333
0.00247277
0.00229027
0.00210419
0.00177226
0.00137442
0.00128382
0.000623891
0.000130878
0.000378792
0.000189851
0.000293858
0.000565351
0.000949187
0.001114
0.00146411
0.00153611
0.00153882
0.00165734
0.00165746
0.00166872
0.00150223
0.00152936
0.0014985
0.00125887
0.0011454
0.000814069
0.000530997
2.73099e-06
0.000557022
0.000352094
4.07728e-06
0.000384438
0.000705403
0.000841446
0.000809695
0.000924896
0.000911257
0.00105236
0.000808965
0.00130523
0.000962946
0.00110374
0.00100872
0.00081184
0.000456479
0.000495592
0.000297978
6.97127e-05
0.000423332
7.35061e-06
8.80725e-05
0.000108919
0.000523413
7.85988e-05
0.000288439
0.000312585
0.000399752
0.000450175
0.000425295
0.000269428
0.000423519
0.000171474
0.000349599
0.000152004
0.000305715
0.000214125
3.54961e-05
0.000108916
0.000109233
0.000529653
0.00100577
0.00267474
0.00370069
0.00455934
0.00532889
0.00581747
0.00595678
0.00614539
0.00616572
0.00632869
0.00588764
0.00586164
0.00526215
0.00488621
0.0042634
0.00335337
0.00205505
0.00069332
0.0011338
0.00044591
0.000802483
0.0021406
0.00303671
0.00398844
0.00449877
0.00481304
0.00518363
0.00511543
0.0050981
0.00532033
0.00492931
0.00479112
0.00445777
0.00389323
0.00335109
0.002555
0.00126633
0.000301826
0.00125189
0.000680611
0.00029011
0.00134658
0.00256489
0.00306685
0.00348316
0.00374507
0.00410042
0.00425508
0.0041947
0.00432029
0.00413715
0.00381806
0.00400641
0.00325784
0.00265382
0.00200576
0.00122018
4.39897e-05
0.000918159
0.00065314
0.000285468
0.000844108
0.00168229
0.00251806
0.00283964
0.00294846
0.00320901
0.00314524
0.00344463
0.00343989
0.00341344
0.00346359
0.00295828
0.00257635
0.00220638
0.00160469
0.000885768
9.59625e-05
0.000882832
0.000674361
0.000255904
0.00048622
0.00127925
0.00174784
0.00194707
0.00223055
0.00247047
0.00224174
0.00238733
0.00228474
0.00229874
0.00237554
0.00217214
0.00204385
0.00140564
0.00113319
0.00065679
0.000161505
0.000757655
0.000593113
0.000276814
0.000478229
0.000879856
0.00109535
0.00117096
0.00160137
0.00153055
0.00174102
0.00155987
0.00194494
0.00163345
0.00152895
0.00153946
0.00136491
0.000920541
0.00103686
0.000359297
0.000197936
0.000708916
0.000465348
0.000108363
0.000214827
0.000587175
0.000792539
0.000937513
0.000937869
0.00107635
0.0011779
0.0012035
0.00123143
0.00105754
0.000902849
0.000971961
0.000928062
0.000617485
0.000471462
0.000168814
0.000160812
0.000327498
0.000153023
0.000180799
0.000113925
0.000198996
5.39508e-05
0.000270979
0.00052729
0.000423087
0.00034193
0.000267784
0.000306697
0.000521395
0.000251064
0.000222099
8.17305e-05
3.5527e-05
0.000124731
2.51125e-05
4.02789e-05
0.000257837
0.00154324
0.000162666
0.00156466
0.00289985
0.00408184
0.00481524
0.00538706
0.0057612
0.00584942
0.00590058
0.00597834
0.00568369
0.00540236
0.00503898
0.00442966
0.00364275
0.00248848
0.0012195
0.000614883
0.00217348
0.00156811
0.00015706
0.00113825
0.00226163
0.00305857
0.00400519
0.00451082
0.00464832
0.00510804
0.00498313
0.00478938
0.00487878
0.00455847
0.00400536
0.00371658
0.00284195
0.00206495
0.000714957
0.000538174
0.00195055
0.00160518
0.000352755
0.000941803
0.00175208
0.0026979
0.00314709
0.00340754
0.00377423
0.0039057
0.00409287
0.0041038
0.00390021
0.00357798
0.00346734
0.00294593
0.00231069
0.00150701
0.000641436
0.00059828
0.0020166
0.00141624
0.000629056
0.000314572
0.00150041
0.00210626
0.00258702
0.00289302
0.00299813
0.0031186
0.00310158
0.00317002
0.00315573
0.00310068
0.00259054
0.00266383
0.00153315
0.00112542
0.00042096
0.000696997
0.00163419
0.00119257
0.000469154
0.000262742
0.000845606
0.00166146
0.00185913
0.00214545
0.00224699
0.00238553
0.00238543
0.00241688
0.00251965
0.00231759
0.00179114
0.00167123
0.00106238
0.000985462
7.35184e-05
0.000480775
0.00148146
0.000859882
0.000333627
8.01609e-05
0.000776715
0.000985523
0.00130199
0.00131445
0.00160533
0.0017195
0.00175172
0.00167395
0.00170865
0.00150612
0.00141283
0.00119474
0.00101249
0.000752535
0.000120705
0.000372223
0.000903691
0.000774458
0.000413439
7.74427e-07
0.000290918
0.000538572
0.0010032
0.00100629
0.00110986
0.00107809
0.00100295
0.00101527
0.000991454
0.00098043
0.000729753
0.000733227
0.000599235
0.000309268
0.000190487
0.000337806
0.000527866
0.000145742
0.000108474
5.89905e-05
0.000233043
0.000188341
0.000180998
0.000393076
0.000179258
0.000555307
0.000445783
0.000407894
0.000172576
0.00050249
0.000271217
0.000244739
2.60104e-05
4.14791e-05
8.43991e-05
2.02895e-05
0.000219178
0.00340849
0.00181781
0.000112979
0.00142302
0.00265969
0.0035697
0.00414932
0.00469092
0.00490392
0.00516267
0.00522731
0.00491928
0.0043697
0.00401603
0.00337489
0.0025528
0.0014013
0.000233401
0.00197501
0.00366356
0.00299876
0.00160685
0.000265072
0.00106844
0.00230418
0.00285048
0.00340241
0.00422078
0.00424297
0.00416835
0.00429502
0.00410126
0.00356106
0.00320982
0.00274465
0.00178135
0.000862352
0.000390479
0.0019606
0.00328909
0.00258561
0.00184339
0.000483544
0.000767541
0.00153875
0.00227829
0.00292766
0.00301978
0.00317293
0.00339353
0.00355281
0.00314842
0.00320701
0.00251926
0.00214695
0.00165131
0.00063854
0.000424539
0.00168175
0.0030969
0.00245817
0.00153356
0.000691976
0.000585336
0.00127709
0.00175124
0.00194268
0.00256289
0.00248448
0.00249072
0.00276116
0.00246357
0.00232576
0.00225054
0.00171144
0.00099271
0.000328501
0.000566764
0.0015745
0.00240461
0.00200566
0.00149764
0.000407151
0.000424715
0.000943914
0.00114556
0.00172931
0.00163473
0.00196282
0.00194793
0.0019153
0.00200604
0.00183477
0.00163092
0.00117893
0.000822713
0.00025296
0.000540501
0.00126023
0.00185025
0.00142709
0.000896912
0.000572296
5.75003e-05
0.000627709
0.000916802
0.000922671
0.00137722
0.00144336
0.00156438
0.00129677
0.00134506
0.00118895
0.00112177
0.000955873
0.000519562
0.000203861
0.000139047
0.000953786
0.0015652
0.000781198
0.000534032
0.000296749
3.10971e-06
0.000324822
0.000655416
0.000744494
0.000651289
0.000887225
0.000671503
0.000782554
0.000613164
0.000654193
0.000467782
0.000493412
0.000321989
2.51482e-05
0.000414007
0.000405991
0.00104898
0.000240163
0.00028289
6.28345e-05
5.79436e-05
6.22859e-05
0.000307427
0.000217024
0.000238043
0.000480444
0.000132947
0.000224098
0.000324667
0.000269994
0.000241579
3.96259e-06
5.69165e-05
0.000160953
8.72852e-05
0.000136228
0.000249507
0.0057762
0.00399895
0.00208759
0.000522194
0.000621137
0.00181254
0.00270792
0.00329532
0.00347198
0.00348013
0.00352708
0.00346673
0.00305979
0.00254319
0.00186362
0.000665724
0.000608077
0.00220028
0.00416587
0.00563344
0.0050971
0.00352345
0.00182947
0.000663111
0.000729759
0.00146886
0.00220676
0.0024313
0.00269432
0.00308265
0.00284228
0.00278522
0.00235357
0.00195276
0.00112323
0.000606053
0.000878607
0.00221709
0.00367931
0.00503793
0.00445874
0.00336965
0.00193633
0.000872061
4.23136e-05
0.000918536
0.00159946
0.00185819
0.00213124
0.00210646
0.00226953
0.00218806
0.00181165
0.00161845
0.000851042
0.000187357
0.000764918
0.00203533
0.0031963
0.0043658
0.00388729
0.0030025
0.00174938
0.000693949
9.51436e-05
0.000497776
0.00104669
0.00152257
0.00162718
0.00174645
0.00161367
0.00187201
0.00147104
0.00121712
0.000447053
6.21528e-05
0.000854435
0.00170376
0.00283413
0.00394617
0.00303526
0.0021431
0.00146458
0.000675325
0.000359758
0.000194672
0.000599121
0.00104402
0.00110987
0.00134778
0.00116281
0.00141906
0.00103249
0.000638208
0.000505912
0.000106047
0.000868949
0.00140973
0.00238631
0.00315404
0.00222952
0.00168741
0.00113333
0.000604333
5.67888e-05
0.000438863
0.000620885
0.000652163
0.00066666
0.000851516
0.000713942
0.000819376
0.00079599
0.000571625
0.000386148
2.47666e-05
0.000454881
0.00114016
0.00183254
0.00248251
0.00135337
0.00100016
0.000781078
0.000353111
8.95385e-05
0.000126588
0.000504162
0.000441025
0.000254253
0.000460452
0.000394091
0.000390594
0.000525971
0.000285388
0.000347739
0.000184452
0.000276793
0.000612842
0.00115359
0.00149514
0.000453111
0.000483959
0.000337565
0.000147666
0.000115224
0.000216761
5.50895e-05
0.000175676
0.000234022
0.000228496
0.000198075
0.000420509
3.76732e-05
0.000132235
3.69294e-05
0.000127018
0.000216478
0.000109502
0.0003716
0.00014036
0.00861339
0.00669323
0.00454941
0.00297355
0.00132813
0.00020569
0.00033203
0.00111314
0.00139549
0.00160967
0.00174542
0.00124292
0.000955474
0.000335295
0.000495966
0.00181936
0.00312021
0.00488353
0.00663635
0.00863595
0.00771514
0.00617382
0.00439638
0.00294526
0.00164395
0.000713097
0.000238831
0.000569796
0.000854232
0.00131294
0.00102956
0.000979556
0.000568366
8.13819e-05
0.0004953
0.00156297
0.00304646
0.00439248
0.00615998
0.00759848
0.00650061
0.00556505
0.00372962
0.00252302
0.00171698
0.000765434
0.000284619
0.000344759
0.00053327
0.000930577
0.000799323
0.000537425
0.000589896
0.000188851
0.00067088
0.00165808
0.0027625
0.00364583
0.00514801
0.00650155
0.0057009
0.00462401
0.00341105
0.00231317
0.00143798
0.000846626
0.000174614
0.000158806
0.000284929
0.000413949
0.000642947
0.000327214
0.000266617
0.000204859
0.000558022
0.00151548
0.00235122
0.00343794
0.00443618
0.00548561
0.00462124
0.00375895
0.00265006
0.0019245
0.0015734
0.000562372
0.000250487
0.000173357
0.000299486
0.000448018
0.000322493
7.6357e-05
0.000103176
0.000460136
0.000738649
0.0011919
0.00191845
0.00271414
0.00353483
0.00438346
0.00320747
0.00269805
0.0022482
0.00142146
0.000953963
0.000664375
0.000227348
4.13506e-05
0.000142778
0.000195584
8.54455e-05
9.02771e-05
9.22295e-05
4.17623e-05
0.000730549
0.000910563
0.00123844
0.00196208
0.00254179
0.0031361
0.00201507
0.00165121
0.00146198
0.000856325
0.000624847
0.000533137
0.000186445
5.21293e-05
7.99043e-05
0.000184806
7.64227e-05
0.00023291
0.000218937
0.000265755
0.000317865
0.000467
0.000824032
0.00121115
0.00151928
0.00204627
0.000710818
0.000474395
0.00052402
0.000226015
0.000311552
0.000279627
1.35954e-05
0.000150218
2.86889e-05
0.000179286
3.31441e-05
4.43652e-05
0.0001954
4.07269e-05
1.94054e-05
5.42997e-05
0.000320649
0.000428808
0.000524387
0.000649641
0.0118511
0.0100495
0.00789132
0.00614158
0.0045929
0.00338577
0.00241916
0.00190534
0.00141104
0.00115678
0.00122257
0.00105339
0.00180902
0.00251012
0.00323572
0.00471381
0.00623365
0.0080136
0.00980444
0.0118563
0.0107177
0.00907592
0.00710068
0.0057299
0.00439715
0.00325678
0.00215259
0.00176172
0.0015926
0.0011303
0.00114066
0.00124108
0.00188497
0.00225204
0.00313209
0.00437091
0.0056578
0.00697434
0.0087191
0.0103183
0.00926689
0.00778045
0.00633266
0.0048374
0.00397815
0.00286109
0.00222236
0.00166477
0.00131272
0.00132431
0.00124991
0.00112365
0.00153814
0.00196522
0.00286584
0.0038151
0.0049195
0.00637978
0.00762278
0.00901161
0.00781073
0.00656826
0.00539182
0.00416414
0.00333952
0.00259335
0.00189621
0.00185513
0.00118229
0.00118786
0.00112867
0.00120296
0.00157257
0.00209012
0.00239873
0.00319074
0.00421564
0.00533166
0.00657659
0.00748882
0.00616847
0.00540603
0.00433522
0.00345461
0.00259876
0.00200781
0.00163863
0.00133014
0.00114876
0.0012174
0.000863877
0.00106503
0.00144126
0.0016692
0.00201712
0.00257062
0.00336882
0.00407527
0.00506374
0.00598483
0.00465181
0.0039825
0.00314534
0.00275542
0.00190015
0.00166119
0.00141644
0.0010205
0.000709756
0.00072552
0.000794232
0.000726251
0.00101718
0.00116544
0.00159366
0.00202632
0.00251908
0.00301502
0.00373368
0.00445074
0.00272501
0.00231516
0.00205297
0.00148141
0.00126913
0.00121105
0.00108553
0.000614384
0.000735831
0.000571866
0.000353768
0.000542651
0.000405914
0.000530116
0.000851013
0.000963058
0.00138594
0.00217004
0.00225663
0.00271303
0.00104029
0.000879794
0.0005837
0.000402197
0.00036353
0.000564142
0.000247815
0.000408231
0.000184294
0.000303902
7.61129e-05
0.000171436
0.000396202
0.000224136
0.00026609
0.000501709
0.000579563
0.000458429
0.000837125
0.000724757
0.015802
0.0137848
0.0118116
0.00995182
0.00815791
0.00685122
0.0059174
0.00511602
0.00454274
0.00440283
0.00462506
0.00459773
0.0051172
0.00594977
0.00697725
0.00833271
0.00973192
0.0116928
0.0135677
0.0155157
0.0138308
0.0123799
0.0104965
0.00882851
0.0075418
0.00646958
0.00547078
0.00472074
0.00439782
0.00417001
0.0040156
0.00426015
0.00474043
0.00525254
0.00627617
0.0073632
0.00869199
0.0103912
0.0119109
0.0138942
0.0123024
0.0107046
0.00926936
0.00777938
0.00662984
0.00555393
0.00485218
0.00418295
0.00385105
0.0037135
0.00372392
0.00387582
0.00429924
0.00465146
0.0055344
0.00641474
0.00750634
0.00902433
0.010555
0.0118042
0.0102947
0.00904785
0.00787413
0.00647955
0.00566763
0.00483799
0.0040253
0.00369467
0.00356446
0.00306978
0.00348916
0.00324918
0.00357869
0.00409787
0.00451837
0.00525257
0.00629036
0.00773091
0.00883059
0.00981178
0.00830326
0.00721879
0.00608274
0.00529884
0.00444214
0.00404345
0.00348131
0.00291004
0.00258129
0.00259569
0.00265183
0.00258256
0.00305238
0.00339369
0.00371204
0.00437726
0.00485789
0.00596777
0.00696967
0.00787131
0.00599672
0.00561491
0.00467079
0.00382708
0.00336933
0.00288786
0.00250032
0.00251891
0.00202264
0.00202433
0.00207012
0.0022244
0.00224673
0.0024348
0.00257157
0.00315971
0.00366097
0.00443105
0.00527748
0.00555596
0.00389253
0.00333275
0.00279962
0.00247293
0.00194781
0.00179684
0.00154778
0.00134556
0.00126943
0.00116799
0.0011876
0.00134944
0.00132077
0.00152763
0.00181607
0.00190592
0.00225448
0.00252787
0.00311297
0.00343265
0.00096678
0.00117967
0.000827136
0.000836366
0.000620215
0.000581335
0.000508879
0.000370466
0.000424262
0.000478229
0.000542695
0.000489573
0.000565508
0.000594406
0.000529019
0.000596457
0.000986193
0.000830156
0.00114995
0.00119177
0.0203162
0.0181269
0.016004
0.0141358
0.0123945
0.0110023
0.0101346
0.00906653
0.00843661
0.00825015
0.00834244
0.00845896
0.00891802
0.00969337
0.0110105
0.0119483
0.0137486
0.0157561
0.0180192
0.0198791
0.017658
0.0161131
0.0142212
0.0125911
0.0111174
0.00957738