/*--------------------------------*- C++ -*----------------------------------*\
| =========                 |                                                 |
| \\      /  F ield         | OpenFOAM: The Open Source CFD Toolbox           |
|  \\    /   O peration     | Version:  2212                                  |
|   \\  /    A nd           | Website:  www.openfoam.com                      |
|    \\/     M anipulation  |                                                 |
\*---------------------------------------------------------------------------*/
FoamFile
{
    version     2.0;
    format      ascii;
    arch        "LSB;label=32;scalar=64";
    class       volScalarField;
    location    "0";
    object      T;
}
// * * * * * * * * * * * * * * * * * * * * * * * * * * * * * * * * * * * * * //

dimensions      [0 0 0 1 0 0 0];

internalField   nonuniform List<scalar> 
3200
(
342.432
343.092
343.869
344.817
345.379
346.306
346.799
347.168
347.467
347.431
347.142
347.103
346.674
346.308
345.497
345.016
344.118
343.219
342.094
341.015
336.989
337.533
338.138
339.014
339.478
340.295
340.743
341.033
341.336
341.309
341.015
341.008
340.6
340.286
339.582
339.166
338.383
337.628
336.65
335.689
331.449
331.887
332.321
333.104
333.492
334.229
334.614
334.835
335.126
335.105
334.877
334.828
334.468
334.226
333.636
333.268
332.613
331.963
331.127
330.316
325.816
326.2
326.491
327.19
327.505
328.084
328.398
328.593
328.878
328.786
328.633
328.582
328.254
328.132
327.636
327.303
326.756
326.218
325.564
324.919
320.127
320.428
320.638
321.228
321.483
321.875
322.14
322.302
322.572
322.411
322.32
322.276
321.999
321.945
321.564
321.246
320.902
320.383
319.957
319.466
314.387
314.606
314.748
315.148
315.424
315.64
315.876
315.978
316.187
315.972
315.981
315.976
315.744
315.7
315.479
315.182
314.983
314.569
314.31
313.936
308.664
308.788
308.858
309.107
309.322
309.389
309.544
309.608
309.74
309.574
309.642
309.576
309.448
309.467
309.354
309.144
309.005
308.789
308.56
308.374
302.93
302.942
302.972
303.046
303.133
303.148
303.192
303.245
303.271
303.201
303.248
303.202
303.155
303.183
303.163
303.058
303.04
302.964
302.864
302.798
343.234
343.805
344.745
345.597
346.409
347.197
347.576
347.937
348.448
348.328
347.878
347.823
347.663
347.115
346.27
345.605
344.952
343.909
342.738
341.829
337.62
338.075
338.894
339.603
340.357
341.016
341.313
341.654
342.144
342.021
341.612
341.535
341.433
341.006
340.251
339.621
339.078
338.177
337.149
336.351
331.914
332.286
332.994
333.576
334.217
334.773
335.013
335.308
335.762
335.641
335.28
335.241
335.116
334.843
334.169
333.592
333.114
332.38
331.519
330.874
326.184
326.469
327.023
327.535
328.004
328.491
328.67
328.944
329.313
329.229
328.909
328.93
328.78
328.634
328.037
327.526
327.13
326.551
325.828
325.322
320.388
320.628
320.996
321.468
321.775
322.135
322.337
322.582
322.803
322.752
322.548
322.57
322.412
322.365
321.839
321.488
321.082
320.676
320.124
319.765
314.569
314.764
315.012
315.391
315.577
315.806
315.962
316.182
316.288
316.293
316.173
316.146
316.034
316.033
315.591
315.368
315.1
314.781
314.391
314.167
308.776
308.898
308.998
309.239
309.36
309.484
309.607
309.748
309.765
309.783
309.74
309.701
309.631
309.651
309.363
309.255
309.05
308.876
308.614
308.524
302.973
302.994
303.005
303.089
303.146
303.177
303.213
303.286
303.282
303.27
303.288
303.239
303.23
303.242
303.138
303.109
303.027
302.974
302.873
302.867
344.076
344.684
345.73
346.697
347.46
348.137
348.622
348.905
349.342
349.142
349.07
349.022
348.464
348.084
347.375
346.669
345.871
344.921
343.639
342.648
338.338
338.845
339.698
340.606
341.186
341.805
342.237
342.486
342.857
342.744
342.68
342.543
342.124
341.786
341.15
340.549
339.877
339.078
337.926
337.068
332.519
332.929
333.634
334.422
334.871
335.459
335.825
336.079
336.359
336.256
336.218
336.063
335.74
335.481
334.909
334.419
333.815
333.182
332.22
331.484
326.703
326.976
327.591
328.199
328.531
329.069
329.317
329.583
329.853
329.697
329.71
329.572
329.264
329.118
328.63
328.223
327.746
327.204
326.414
325.825
320.852
320.978
321.499
321.95
322.205
322.626
322.801
323.029
323.277
323.13
323.142
323.057
322.776
322.725
322.276
322
321.585
321.198
320.598
320.146
314.989
314.985
315.36
315.703
315.832
316.16
316.269
316.476
316.654
316.555
316.563
316.544
316.259
316.308
315.931
315.745
315.437
315.159
314.747
314.435
309.04
309.009
309.26
309.427
309.477
309.707
309.741
309.854
310.017
309.981
309.971
309.939
309.724
309.809
309.576
309.458
309.28
309.107
308.867
308.687
303.023
303.038
303.108
303.152
303.164
303.284
303.266
303.308
303.354
303.35
303.334
303.345
303.258
303.278
303.212
303.161
303.102
303.056
302.988
302.903
345.037
345.827
346.887
347.683
348.676
349.339
349.568
350.052
350.401
350.349
350.383
350.07
349.64
349.4
348.673
347.8
346.869
345.975
344.779
343.779
339.136
339.786
340.695
341.414
342.276
342.855
343.022
343.461
343.805
343.718
343.741
343.541
343.076
342.926
342.321
341.536
340.7
339.979
338.904
338.059
333.175
333.734
334.474
335.131
335.837
336.315
336.461
336.871
337.167
337.065
337.062
336.978
336.487
336.36
335.87
335.22
334.483
333.903
332.948
332.289
327.213
327.645
328.299
328.79
329.347
329.735
329.852
330.157
330.487
330.369
330.377
330.326
329.879
329.782
329.391
328.809
328.263
327.77
327.026
326.507
321.231
321.526
322.074
322.461
322.848
323.173
323.21
323.421
323.75
323.626
323.666
323.678
323.242
323.212
322.875
322.404
322.04
321.651
321.104
320.684
315.198
315.379
315.819
316.115
316.376
316.553
316.549
316.726
316.992
316.911
316.918
316.963
316.611
316.576
316.32
316.038
315.756
315.529
315.134
314.819
309.121
309.246
309.526
309.679
309.867
309.957
309.915
310.041
310.221
310.149
310.167
310.2
309.962
309.968
309.76
309.658
309.472
309.365
309.106
308.916
303.052
303.091
303.201
303.24
303.309
303.339
303.336
303.36
303.422
303.397
303.419
303.43
303.337
303.345
303.286
303.251
303.204
303.143
303.04
302.988
346.021
346.886
347.987
348.802
349.479
350.528
350.873
351.269
351.747
351.702
351.544
351.238
350.902
350.382
349.839
349.006
347.944
346.978
345.806
344.736
340.013
340.772
341.653
342.336
342.905
343.818
344.149
344.536
344.967
344.941
344.784
344.531
344.206
343.755
343.306
342.626
341.677
340.812
339.819
338.912
333.966
334.581
335.32
335.881
336.338
337.126
337.374
337.734
338.131
338.156
337.989
337.795
337.481
337.081
336.724
336.171
335.343
334.601
333.766
333.073
327.845
328.372
328.964
329.394
329.785
330.404
330.557
330.915
331.232
331.283
331.157
331.015
330.704
330.385
330.123
329.64
328.927
328.377
327.724
327.139
321.682
322.136
322.588
322.894
323.172
323.665
323.733
324.086
324.292
324.365
324.29
324.169
323.887
323.668
323.447
323.092
322.494
322.141
321.653
321.156
315.506
315.844
316.152
316.377
316.595
316.942
316.906
317.183
317.361
317.422
317.406
317.297
317.063
316.947
316.765
316.52
316.077
315.886
315.518
315.178
309.334
309.506
309.716
309.886
310.024
310.167
310.144
310.332
310.408
310.454
310.477
310.429
310.235
310.165
310.087
309.918
309.649
309.571
309.316
309.14
303.144
303.21
303.258
303.338
303.369
303.406
303.392
303.481
303.484
303.494
303.497
303.481
303.439
303.396
303.377
303.322
303.231
303.225
303.107
303.093
347.079
348.068
348.931
349.801
350.731
351.49
352.041
352.332
352.59
352.848
352.689
352.376
351.992
351.418
350.866
349.951
348.703
347.704
346.876
345.766
340.91
341.752
342.468
343.275
344.089
344.757
345.153
345.416
345.636
345.947
345.773
345.493
345.212
344.664
344.157
343.399
342.327
341.39
340.69
339.82
334.68
335.344
336.025
336.664
337.361
337.949
338.225
338.495
338.669
338.945
338.788
338.573
338.345
337.856
337.455
336.774
335.935
335.052
334.456
333.803
328.424
328.934
329.529
330.016
330.616
331.127
331.28
331.532
331.672
331.863
331.753
331.593
331.467
331.006
330.718
330.179
329.492
328.73
328.235
327.76
322.146
322.492
323.007
323.358
323.86
324.261
324.393
324.573
324.726
324.793
324.711
324.624
324.519
324.141
323.945
323.479
322.967
322.353
322.014
321.665
315.905
316.08
316.461
316.684
317.032
317.364
317.447
317.589
317.711
317.673
317.712
317.63
317.53
317.258
317.151
316.755
316.433
315.999
315.76
315.541
309.577
309.645
309.902
310.022
310.208
310.446
310.474
310.581
310.657
310.57
310.677
310.596
310.527
310.363
310.345
310.068
309.874
309.641
309.476
309.371
303.214
303.239
303.328
303.349
303.435
303.534
303.51
303.543
303.564
303.53
303.585
303.55
303.528
303.465
303.463
303.381
303.325
303.234
303.185
303.143
348.189
348.942
349.862
350.895
351.956
352.544
352.961
353.464
353.703
353.876
353.902
353.371
353.214
352.471
351.789
350.61
349.824
348.883
347.786
346.609
341.898
342.491
343.277
344.203
345.151
345.603
345.969
346.439
346.656
346.82
346.816
346.379
346.211
345.553
344.973
343.93
343.223
342.473
341.553
340.517
335.553
336.016
336.662
337.475
338.223
338.629
338.953
339.388
339.537
339.67
339.691
339.303
339.163
338.603
338.09
337.23
336.575
335.969
335.231
334.468
329.112
329.582
330.045
330.731
331.271
331.65
331.902
332.321
332.367
332.455
332.54
332.188
332.12
331.591
331.141
330.519
329.939
329.442
328.881
328.321
322.667
323.063
323.422
323.946
324.317
324.675
324.874
325.202
325.221
325.251
325.332
325.08
325.072
324.606
324.179
323.778
323.26
322.868
322.496
322.081
316.228
316.489
316.754
317.104
317.377
317.663
317.801
318.023
318.041
318.05
318.138
317.948
317.942
317.605
317.292
317.012
316.607
316.311
316.123
315.784
309.767
309.917
310.055
310.248
310.431
310.611
310.671
310.858
310.873
310.856
310.965
310.815
310.777
310.568
310.408
310.241
309.989
309.763
309.737
309.472
303.268
303.309
303.376
303.431
303.502
303.562
303.57
303.641
303.658
303.653
303.691
303.645
303.583
303.542
303.493
303.432
303.351
303.284
303.282
303.148
348.931
349.761
350.808
351.919
352.741
353.372
353.958
354.415
354.669
354.745
354.864
354.315
353.945
353.378
352.594
351.645
350.821
349.67
348.51
347.483
342.554
343.197
344.097
345.078
345.802
346.352
346.901
347.252
347.466
347.538
347.706
347.177
346.857
346.355
345.63
344.837
344.138
343.158
342.125
341.301
336.101
336.601
337.369
338.204
338.792
339.248
339.81
340.078
340.251
340.282
340.465
339.987
339.736
339.286
338.643
338.006
337.408
336.652
335.687
335.063
329.579
330.023
330.587
331.336
331.777
332.169
332.629
332.88
333.005
332.986
333.151
332.736
332.572
332.172
331.641
331.159
330.654
330.071
329.219
328.814
323.052
323.411
323.84
324.43
324.734
324.993
325.402
325.603
325.76
325.678
325.816
325.496
325.375
325.049
324.644
324.276
323.876
323.441
322.764
322.492
316.493
316.749
317.05
317.49
317.701
317.864
318.201
318.334
318.462
318.36
318.49
318.248
318.183
317.942
317.652
317.371
317.099
316.736
316.288
316.162
309.924
310.088
310.263
310.522
310.625
310.763
310.951
311.054
311.131
311.027
311.09
310.962
310.94
310.799
310.612
310.452
310.279
310.046
309.804
309.775
303.343
303.383
303.445
303.52
303.554
303.604
303.654
303.725
303.74
303.701
303.71
303.656
303.682
303.639
303.58
303.505
303.443
303.362
303.297
303.288
349.823
350.733
351.708
352.837
353.678
354.336
354.95
355.146
355.39
355.693
355.757
355.222
354.595
354.005
353.578
352.826
351.589
350.649
349.362
348.166
343.301
344.078
344.914
345.878
346.586
347.162
347.741
347.836
348.075
348.346
348.444
347.961
347.407
346.878
346.508
345.87
344.786
343.961
342.865
341.888
336.684
337.376
338.072
338.921
339.462
339.942
340.49
340.507
340.75
340.969
341.081
340.674
340.196
339.728
339.393
338.866
337.971
337.229
336.334
335.605
330.059
330.641
331.181
331.949
332.307
332.707
333.176
333.162
333.44
333.56
333.714
333.403
332.968
332.551
332.256
331.83
331.074
330.482
329.744
329.243
323.394
323.898
324.297
324.933
325.117
325.433
325.824
325.798
326.064
326.093
326.253
326.054
325.714
325.364
325.109
324.75
324.202
323.728
323.126
322.808
316.738
317.094
317.381
317.859
317.908
318.14
318.453
318.457
318.67
318.659
318.797
318.649
318.386
318.161
317.964
317.674
317.344
316.972
316.488
316.308
310.09
310.275
310.449
310.76
310.738
310.901
311.067
311.09
311.222
311.237
311.23
311.21
311.069
310.97
310.758
310.623
310.437
310.236
309.929
309.841
303.388
303.438
303.487
303.596
303.585
303.651
303.716
303.723
303.756
303.762
303.755
303.77
303.724
303.691
303.588
303.554
303.493
303.439
303.342
303.308
350.45
351.507
352.364
353.559
354.45
355.137
355.762
356.16
356.282
356.295
356.49
355.952
355.652
354.786
354.289
353.561
352.382
351.551
350.222
348.887
343.81
344.727
345.47
346.557
347.273
347.843
348.412
348.733
348.829
348.804
349.051
348.56
348.297
347.569
347.147
346.562
345.471
344.764
343.646
342.497
337.093
337.927
338.534
339.458
340.082
340.537
341.031
341.318
341.368
341.327
341.603
341.133
340.901
340.275
339.966
339.488
338.523
337.935
336.983
336.043
330.326
331.097
331.584
332.359
332.82
333.197
333.597
333.898
333.865
333.913
334.078
333.682
333.489
332.988
332.764
332.382
331.6
331.089
330.311
329.53
323.574
324.243
324.576
325.214
325.542
325.833
326.197
326.458
326.368
326.403
326.539
326.258
326.063
325.673
325.521
325.228
324.627
324.199
323.609
323.033
316.871
317.379
317.536
318.069
318.245
318.445
318.777
318.955
318.832
318.879
319.004
318.785
318.63
318.305
318.231
318.055
317.601
317.309
316.873
316.479
310.101
310.456
310.537
310.863
310.976
311.086
311.308
311.393
311.288
311.337
311.433
311.301
311.186
310.977
310.941
310.841
310.586
310.389
310.122
309.905
303.37
303.507
303.529
303.637
303.677
303.718
303.801
303.813
303.779
303.824
303.852
303.78
303.752
303.678
303.665
303.637
303.541
303.492
303.385
303.323
351.12
352.15
353.399
354.408
355.13
355.883
356.545
356.933
357.152
357.234
357.337
356.844
356.38
355.747
355.131
354.188
353.196
352.294
350.78
349.612
344.394
345.288
346.346
347.214
347.877
348.533
349.041
349.419
349.552
349.693
349.829
349.364
348.935
348.433
347.855
347.037
346.215
345.423
344.133
343.125
337.608
338.39
339.304
340.005
340.58
341.125
341.52
341.881
341.933
342.126
342.249
341.881
341.465
341.048
340.573
339.88
339.166
338.512
337.41
336.574
330.789
331.449
332.216
332.754
333.22
333.662
334.037
334.336
334.339
334.524
334.627
334.343
333.966
333.669
333.264
332.685
332.065
331.555
330.655
329.982
323.954
324.465
325.107
325.53
325.859
326.202
326.531
326.709
326.737
326.874
326.938
326.756
326.457
326.226
325.942
325.473
324.955
324.557
323.871
323.339
317.151
317.487
317.963
318.265
318.514
318.732
318.985
319.13
319.145
319.183
319.27
319.127
318.899
318.769
318.545
318.238
317.847
317.555
317.082
316.648
310.313
310.545
310.769
311.008
311.126
311.242
311.437
311.46
311.482
311.513
311.578
311.501
311.36
311.31
311.136
310.998
310.708
310.56
310.281
310.005
303.464
303.529
303.591
303.698
303.713
303.787
303.814
303.826
303.849
303.856
303.89
303.871
303.791
303.789
303.736
303.699
303.597
303.553
303.451
303.351
351.814
352.725
353.813
354.799
355.732
356.493
357.133
357.557
357.788
357.905
357.864
357.47
356.908
356.362
355.816
354.941
353.934
352.709
351.433
350.019
345.041
345.764
346.686
347.556
348.338
349.053
349.582
349.946
350.152
350.296
350.266
349.898
349.381
348.915
348.446
347.704
346.85
345.824
344.694
343.501
338.182
338.791
339.594
340.291
340.92
341.564
342.048
342.299
342.506
342.586
342.606
342.29
341.856
341.487
341.099
340.423
339.712
338.879
337.899
336.925
331.3
331.745
332.453
333.028
333.498
334.002
334.46
334.664
334.819
334.843
334.935
334.673
334.275
334.059
333.69
333.092
332.544
331.877
331.094
330.267
324.374
324.699
325.287
325.718
326.041
326.426
326.826
327
327.129
327.114
327.227
327.009
326.675
326.524
326.222
325.768
325.347
324.83
324.197
323.599
317.457
317.686
318.082
318.371
318.593
318.87
319.183
319.292
319.423
319.418
319.491
319.319
319.068
319.003
318.706
318.394
318.124
317.781
317.306
316.864
310.505
310.642
310.862
311.044
311.14
311.328
311.512
311.602
311.662
311.688
311.699
311.581
311.461
311.422
311.207
311.077
310.9
310.699
310.405
310.14
303.513
303.567
303.667
303.717
303.715
303.791
303.844
303.867
303.922
303.932
303.903
303.878
303.835
303.843
303.772
303.735
303.653
303.587
303.481
303.388
352.37
353.052
354.366
355.463
356.366
357.108
357.749
357.919
358.356
358.382
358.138
357.828
357.498
356.963
356.495
355.463
354.441
353.336
352
350.54
345.522
346.066
347.194
348.144
348.907
349.55
350.14
350.241
350.657
350.626
350.493
350.198
349.926
349.437
349.018
348.149
347.295
346.39
345.181
343.954
338.606
339.035
340.003
340.785
341.471
341.935
342.476
342.577
342.94
342.879
342.804
342.538
342.289
341.913
341.499
340.819
340.088
339.364
338.317
337.273
331.607
331.96
332.781
333.407
333.958
334.335
334.778
334.9
335.185
335.156
335.078
334.831
334.644
334.357
333.969
333.467
332.865
332.268
331.397
330.498
324.589
324.901
325.534
326.022
326.409
326.776
327.048
327.149
327.424
327.415
327.324
327.087
326.987
326.778
326.433
326.05
325.62
325.132
324.454
323.718
317.6
317.788
318.245
318.645
318.874
319.15
319.362
319.425
319.65
319.639
319.524
319.35
319.317
319.188
318.904
318.641
318.326
317.949
317.473
316.935
310.565
310.691
310.958
311.19
311.315
311.526
311.663
311.664
311.825
311.797
311.735
311.605
311.593
311.585
311.362
311.179
311.027
310.799
310.515
310.186
303.543
303.601
303.661
303.774
303.784
303.84
303.918
303.907
303.972
303.953
303.93
303.888
303.892
303.921
303.789
303.751
303.703
303.632
303.539
303.411
352.646
353.359
354.627
355.965
356.8
357.617
358.264
358.388
358.918
358.747
358.678
358.457
358.063
357.533
356.871
355.713
354.706
353.398
352.251
350.944
345.71
346.339
347.377
348.596
349.271
350.01
350.574
350.705
351.156
350.954
350.937
350.725
350.398
349.952
349.419
348.363
347.549
346.41
345.449
344.29
338.694
339.278
340.1
341.19
341.747
342.355
342.851
342.967
343.334
343.198
343.179
343.024
342.741
342.323
341.87
341.01
340.34
339.362
338.555
337.588
331.698
332.221
332.811
333.766
334.181
334.647
335.058
335.19
335.522
335.369
335.431
335.307
335.004
334.703
334.302
333.626
333.052
332.239
331.607
330.83
324.711
325.099
325.515
326.283
326.594
326.955
327.261
327.39
327.638
327.539
327.64
327.526
327.249
327.047
326.744
326.206
325.71
325.039
324.62
324.021
317.683
317.979
318.217
318.807
319.05
319.265
319.502
319.598
319.75
319.685
319.775
319.693
319.473
319.337
319.148
318.76
318.388
317.917
317.635
317.193
310.631
310.818
310.943
311.303
311.426
311.564
311.696
311.798
311.861
311.824
311.899
311.821
311.688
311.632
311.499
311.292
311.054
310.747
310.588
310.369
303.563
303.634
303.653
303.784
303.807
303.901
303.908
303.961
303.966
303.99
304.008
303.948
303.911
303.886
303.835
303.804
303.711
303.574
303.53
303.492
352.828
353.811
355.137
356.252
357.118
358.031
358.749
359.062
359.314
359.145
359.095
358.935
358.44
357.948
357.163
356.114
355.095
353.871
352.539
351.311
345.939
346.68
347.847
348.853
349.53
350.376
351.042
351.233
351.511
351.362
351.276
351.183
350.738
350.353
349.615
348.754
347.872
346.827
345.627
344.593
338.908
339.524
340.548
341.389
341.932
342.68
343.202
343.399
343.659
343.543
343.437
343.347
342.984
342.728
342.03
341.332
340.637
339.729
338.673
337.827
331.919
332.361
333.204
333.915
334.329
334.98
335.377
335.55
335.752
335.69
335.579
335.516
335.188
335.052
334.418
333.908
333.336
332.552
331.665
331.017
324.844
325.17
325.856
326.406
326.725
327.245
327.557
327.685
327.824
327.785
327.691
327.658
327.412
327.3
326.792
326.433
325.98
325.341
324.639
324.172
317.758
317.993
318.495
318.88
319.1
319.489
319.711
319.794
319.89
319.879
319.764
319.771
319.588
319.51
319.203
318.849
318.603
318.11
317.622
317.321
310.66
310.824
311.116
311.352
311.501
311.697
311.844
311.862
311.93
311.967
311.909
311.887
311.744
311.73
311.512
311.319
311.196
310.855
310.587
310.415
303.582
303.636
303.733
303.802
303.857
303.922
303.987
303.971
303.986
304.008
303.981
303.989
303.93
303.936
303.871
303.798
303.756
303.646
303.55
303.496
353.207
354.265
355.599
356.613
357.542
358.281
358.954
359.215
359.521
359.553
359.302
359.046
358.683
358.323
357.324
356.488
355.47
354.319
352.512
351.463
346.239
347.112
348.25
349.176
349.932
350.645
351.225
351.369
351.664
351.631
351.485
351.26
350.937
350.643
349.79
349.076
348.25
347.234
345.621
344.691
339.229
339.969
340.87
341.694
342.328
342.965
343.432
343.552
343.751
343.667
343.655
343.438
343.129
342.903
342.23
341.62
340.963
340.098
338.655
337.892
332.199
332.728
333.449
334.148
334.655
335.253
335.605
335.689
335.832
335.736
335.811
335.571
335.307
335.137
334.617
334.111
333.601
332.899
331.626
331.038
325.087
325.512
325.983
326.604
326.991
327.484
327.764
327.771
327.88
327.82
327.894
327.721
327.431
327.381
326.983
326.548
326.225
325.614
324.663
324.177
317.96
318.255
318.533
319.002
319.304
319.652
319.868
319.834
319.934
319.891
319.95
319.804
319.557
319.559
319.315
318.976
318.772
318.351
317.696
317.257
310.786
310.969
311.094
311.381
311.594
311.829
311.933
311.905
311.968
311.937
311.973
311.879
311.713
311.744
311.613
311.4
311.276
311.036
310.648
310.382
303.613
303.688
303.725
303.802
303.876
303.962
304
303.987
303.991
303.981
304.001
304
303.945
303.935
303.872
303.805
303.782
303.685
303.571
303.482
353.295
354.287
355.606
356.738
357.821
358.268
359.164
359.228
359.449
359.758
359.583
359.314
358.955
358.343
357.78
356.668
355.541
354.301
352.909
351.623
346.257
347.103
348.225
349.281
350.181
350.547
351.325
351.375
351.6
351.891
351.687
351.514
351.189
350.657
350.114
349.177
348.226
347.19
345.98
344.883
339.219
339.881
340.85
341.724
342.494
342.879
343.471
343.533
343.679
343.962
343.797
343.677
343.354
342.942
342.423
341.672
340.888
340.005
338.987
338.13
332.084
332.681
333.484
334.156
334.759
335.119
335.599
335.645
335.754
336.001
335.854
335.778
335.492
335.206
334.701
334.102
333.532
332.8
331.93
331.29
325.012
325.491
326.085
326.594
327.056
327.339
327.692
327.798
327.8
328.009
327.918
327.845
327.572
327.4
326.981
326.562
326.144
325.549
324.833
324.436
317.861
318.247
318.663
319.009
319.33
319.532
319.824
319.897
319.874
320.014
319.93
319.926
319.672
319.592
319.279
318.996
318.701
318.283
317.768
317.481
310.71
310.953
311.225
311.399
311.594
311.729
311.913
311.942
311.946
312.017
311.944
311.976
311.787
311.778
311.578
311.407
311.224
310.993
310.676
310.499
303.594
303.645
303.765
303.807
303.875
303.919
303.969
303.999
304.006
304.049
304.005
304.007
303.939
303.962
303.899
303.823
303.746
303.694
303.596
303.501
353.437
354.399
355.711
356.714
357.852
358.558
359.22
359.524
359.623
359.711
359.797
359.564
359.098
358.564
357.75
356.563
355.507
354.152
353.096
351.59
346.428
347.201
348.316
349.255
350.286
350.84
351.414
351.656
351.723
351.835
351.932
351.748
351.35
350.835
350.191
349.139
348.195
347.062
346.125
344.801
339.353
339.964
340.877
341.708
342.634
343.061
343.552
343.745
343.807
343.957
344.03
343.89
343.515
343.07
342.55
341.708
340.854
339.898
339.138
337.95
332.239
332.754
333.456
334.146
334.932
335.262
335.655
335.801
335.909
335.993
336.081
335.978
335.626
335.27
334.863
334.191
333.466
332.703
332.098
331.104
325.139
325.49
326.064
326.576
327.198
327.453
327.728
327.863
327.945
328.036
328.12
328.027
327.746
327.443
327.181
326.626
326.049
325.422
325.004
324.186
317.99
318.211
318.638
318.977
319.43
319.622
319.826
319.932
319.977
320.033
320.119
320.026
319.803
319.664
319.442
319.035
318.628
318.171
317.884
317.291
310.831
310.937
311.183
311.404
311.682
311.788
311.943
311.977
312.004
312.022
312.093
312.034
311.858
311.833
311.693
311.465
311.208
310.889
310.753
310.394
303.636
303.657
303.741
303.81
303.91
303.955
304.018
304.037
304.004
304.016
304.058
304.033
303.968
303.987
303.911
303.854
303.766
303.626
303.621
303.476
353.342
354.468
355.614
356.641
357.655
358.359
359.096
359.421
359.562
359.983
359.939
359.474
359.069
358.549
357.42
356.439
355.558
354.227
352.963
351.627
346.311
347.28
348.24
349.149
350.073
350.659
351.303
351.623
351.669
352.076
352.031
351.64
351.269
350.843
349.847
349.049
348.241
347.106
346.003
344.864
339.254
340.058
340.82
341.6
342.451
342.966
343.512
343.8
343.764
344.083
344.089
343.766
343.47
343.107
342.296
341.621
340.922
339.925
339.042
338.03
332.186
332.817
333.43
334.024
334.757
335.2
335.643
335.883
335.845
336.076
336.083
335.888
335.601
335.337
334.646
334.125
333.566
332.739
332.01
331.159
325.06
325.54
326.031
326.511
327.051
327.412
327.817
327.951
327.967
328.103
328.084
327.977
327.718
327.51
326.952
326.581
326.129
325.518
324.931
324.253
317.929
318.267
318.623
318.956
319.3
319.615
319.913
320.005
320.016
320.144
320.033
320.015
319.813
319.68
319.271
319.011
318.699
318.279
317.856
317.314
310.796
310.98
311.204
311.353
311.582
311.812
311.995
312.051
312.018
312.111
312.022
312.037
311.933
311.828
311.555
311.415
311.236
310.989
310.72
310.365
303.62
303.674
303.776
303.795
303.88
303.948
304.018
304.048
304.041
304.077
303.999
304.03
304.019
303.972
303.843
303.829
303.759
303.693
303.589
303.466
353.247
354.299
355.274
356.676
357.494
358.316
358.979
359.028
359.517
359.93
359.57
359.351
358.805
358.241
357.467
356.418
355.3
354.001
352.962
351.826
346.237
347.223
347.964
349.232
349.899
350.583
351.218
351.276
351.646
352.011
351.726
351.512
351.022
350.564
349.923
348.978
348.027
346.901
346.064
345.071
339.198
340.018
340.619
341.729
342.273
342.863
343.395
343.536
343.73
344.021
343.836
343.592
343.22
342.82
342.293
341.495
340.728
339.751
339.1
338.231
332.127
332.796
333.307
334.163
334.616
335.132
335.56
335.748
335.764
336.023
335.915
335.664
335.402
335.052
334.663
333.975
333.362
332.583
332.099
331.333
325.034
325.53
325.968
326.563
326.922
327.346
327.679
327.877
327.828
328.039
327.962
327.717
327.564
327.274
327.005
326.435
325.963
325.382
325.018
324.39
317.952
318.229
318.552
318.963
319.255
319.583
319.783
319.953
319.87
320.08
320.013
319.775
319.687
319.52
319.295
318.823
318.558
318.153
317.891
317.424
310.802
310.955
311.112
311.39
311.568
311.746
311.876
312.012
311.916
312.092
312.008
311.861
311.812
311.729
311.582
311.297
311.14
310.859
310.753
310.444
303.627
303.673
303.708
303.821
303.875
303.95
303.983
304.039
303.984
304.05
304.029
303.977
303.96
303.933
303.88
303.782
303.758
303.629
303.601
303.496
)
;

boundaryField
{
    hotSide
    {
        type            fixedGradient;
        gradient        nonuniform List<scalar> 
400
(
430.451
443.006
455.157
466.849
478.029
488.646
498.647
507.986
516.615
524.492
531.577
537.831
543.224
547.726
551.313
553.964
555.665
556.407
556.182
554.992
441.739
454.638
467.124
479.139
490.631
501.544
511.827
521.431
530.307
538.411
545.702
552.142
557.697
562.338
566.04
568.781
570.548
571.328
571.117
569.914
451.822
465.029
477.814
490.12
501.89
513.069
523.605
533.446
542.543
550.851
558.328
564.935
570.637
575.403
579.209
582.032
583.858
584.674
584.476
583.264
460.636
474.113
487.161
499.72
511.735
523.147
533.904
543.953
553.245
561.732
569.372
576.126
581.956
586.834
590.731
593.627
595.506
596.355
596.17
594.949
468.128
481.835
495.106
507.882
520.104
531.715
542.661
552.888
562.345
570.985
578.765
585.643
591.584
596.557
600.533
603.492
605.416
606.294
606.119
604.893
474.257
488.152
501.606
514.558
526.95
538.724
549.824
560.196
569.789
578.555
586.449
593.43
599.462
604.513
608.554
611.564
613.526
614.429
614.264
613.034
478.991
493.031
506.625
519.713
532.237
544.136
555.355
565.839
575.537
584.4
592.383
599.444
605.546
610.657
614.749
617.8
619.792
620.713
620.557
619.324
482.308
496.448
510.14
523.324
535.938
547.925
559.227
569.79
579.561
588.492
596.536
603.653
609.804
614.958
619.086
622.165
624.178
625.113
624.964
623.729
484.197
498.393
512.14
525.376
538.042
550.077
561.426
572.033
581.845
590.813
598.893
606.041
612.22
617.398
621.546
624.642
626.667
627.611
627.465
626.23
484.654
498.861
512.619
525.866
538.543
550.588
561.947
572.563
582.384
591.36
599.447
606.602
612.788
617.972
622.125
625.224
627.253
628.198
628.054
626.82
483.685
497.859
511.585
524.801
537.447
549.465
560.796
571.387
581.184
590.139
598.206
605.344
611.514
616.685
620.827
623.918
625.941
626.883
626.738
625.506
481.304
495.401
509.052
522.195
534.772
546.722
557.99
568.521
578.263
587.167
595.187
602.283
608.417
613.556
617.672
620.743
622.75
623.683
623.535
622.305
477.532
491.509
505.043
518.073
530.54
542.386
553.555
563.993
573.648
582.471
590.419
597.449
603.525
608.614
612.689
615.727
617.711
618.629
618.475
617.248
472.4
486.214
499.589
512.466
524.785
536.491
547.526
557.838
567.375
576.09
583.939
590.88
596.878
601.9
605.919
608.912
610.864
611.762
611.6
610.377
465.943
479.553
492.73
505.415
517.55
529.079
539.947
550.101
559.492
568.071
575.796
582.626
588.526
593.463
597.412
600.351
602.262
603.134
602.962
601.744
458.206
471.573
484.514
496.97
508.885
520.204
530.872
540.838
550.053
558.471
566.048
572.746
578.529
583.366
587.232
590.104
591.967
592.81
592.625
591.414
449.241
462.328
474.995
487.187
498.849
509.925
520.363
530.112
539.125
547.356
554.763
561.309
566.957
571.68
575.449
578.246
580.054
580.862
580.665
579.461
439.106
451.877
464.237
476.133
487.508
498.311
508.49
517.996
526.782
534.803
542.02
548.394
553.892
558.485
562.147
564.86
566.606
567.376
567.164
565.97
427.868
440.29
452.311
463.879
474.939
485.441
495.335
504.572
513.107
520.898
527.904
534.09
539.422
543.873
547.418
550.037
551.717
552.446
552.219
551.036
415.6
427.643
439.297
450.508
461.226
471.401
480.985
489.93
498.194
505.734
512.513
518.494
523.647
527.945
531.363
533.883
535.49
536.176
535.934
534.765
)
;
    }
    coldSide
    {
        type            mixed;
        refValue        uniform 300;
        refGradient     uniform 0;
        valueFraction   uniform 0.991591;
        source          uniform 0;
        value           nonuniform List<scalar> 
400
(
300.025
300.025
300.025
300.026
300.026
300.027
300.027
300.028
300.028
300.028
300.029
300.03
300.03
300.03
300.03
300.03
300.03
300.031
300.03
300.03
300.025
300.025
300.026
300.026
300.027
300.027
300.028
300.028
300.029
300.029
300.03
300.03
300.03
300.031
300.031
300.031
300.031
300.031
300.031
300.031
300.025
300.025