/*--------------------------------*- C++ -*----------------------------------*\
| =========                 |                                                 |
| \\      /  F ield         | OpenFOAM: The Open Source CFD Toolbox           |
|  \\    /   O peration     | Version:  2212                                  |
|   \\  /    A nd           | Website:  www.openfoam.com                      |
|    \\/     M anipulation  |                                                 |
\*---------------------------------------------------------------------------*/
FoamFile
{
    version     2.0;
    format      ascii;
    arch        "LSB;label=32;scalar=64";
    class       volScalarField;
    location    "0";
    object      Ttrue;
}
// * * * * * * * * * * * * * * * * * * * * * * * * * * * * * * * * * * * * * //

dimensions      [0 0 0 1 0 0 0];

internalField   nonuniform List<scalar> 
3200
(
348.297
349.019
349.941
350.945
351.979
352.995
353.932
354.723
355.299
355.604
355.604
355.299
354.723
353.932
352.995
351.979
350.945
349.941
349.019
348.297
341.875
342.486
343.281
344.149
345.045
345.923
346.733
347.417
347.914
348.177
348.177
347.914
347.417
346.733
345.923
345.045
344.149
343.281
342.486
341.875
335.446
335.953
336.623
337.357
338.113
338.855
339.539
340.116
340.536
340.758
340.758
340.536
340.116
339.539
338.855
338.113
337.357
336.623
335.953
335.446
329.013
329.421
329.967
330.567
331.185
331.791
332.35
332.821
333.164
333.345
333.345
333.164
332.821
332.35
331.791
331.185
330.567
329.967
329.421
329.013
322.575
322.889
323.312
323.778
324.259
324.73
325.164
325.53
325.796
325.936
325.936
325.796
325.53
325.164
324.73
324.259
323.778
323.312
322.889
322.575
316.135
316.357
316.659
316.992
317.335
317.671
317.981
318.242
318.432
318.532
318.532
318.432
318.242
317.981
317.671
317.335
316.992
316.659
316.357
316.135
309.693
309.825
310.006
310.206
310.412
310.614
310.8
310.957
311.071
311.131
311.131
311.071
310.957
310.8
310.614
310.412
310.206
310.006
309.825
309.693
303.249
303.294
303.354
303.421
303.49
303.558
303.62
303.673
303.711
303.731
303.731
303.711
303.673
303.62
303.558
303.49
303.421
303.354
303.294
303.249
348.452
349.168
350.082
351.076
352.1
353.105
354.031
354.812
355.381
355.681
355.681
355.381
354.812
354.031
353.105
352.1
351.076
350.082
349.168
348.452
342.008
342.615
343.403
344.263
345.149
346.018
346.819
347.494
347.985
348.245
348.245
347.985
347.494
346.819
346.018
345.149
344.263
343.403
342.615
342.008
335.559
336.062
336.726
337.453
338.202
338.936
339.612
340.182
340.596
340.815
340.815
340.596
340.182
339.612
338.936
338.202
337.453
336.726
336.062
335.559
329.105
329.51
330.051
330.645
331.257
331.857
332.409
332.875
333.213
333.392
333.392
333.213
332.875
332.409
331.857
331.257
330.645
330.051
329.51
329.105
322.647
322.958
323.378
323.84
324.315
324.781
325.21
325.572
325.834
325.973
325.973
325.834
325.572
325.21
324.781
324.315
323.84
323.378
322.958
322.647
316.186
316.406
316.706
317.035
317.375
317.708
318.014
318.272
318.459
318.558
318.558
318.459
318.272
318.014
317.708
317.375
317.035
316.706
316.406
316.186
309.724
309.855
310.034
310.232
310.436
310.636
310.82
310.975
311.087
311.146
311.146
311.087
310.975
310.82
310.636
310.436
310.232
310.034
309.855
309.724
303.26
303.303
303.364
303.43
303.498
303.565
303.627
303.679
303.716
303.736
303.736
303.716
303.679
303.627
303.565
303.498
303.43
303.364
303.303
303.26
348.762
349.467
350.365
351.341
352.344
353.327
354.232
354.994
355.548
355.841
355.841
355.548
354.994
354.232
353.327
352.344
351.341
350.365
349.467
348.762
342.277
342.873
343.648
344.493
345.361
346.211
346.993
347.652
348.13
348.383
348.383
348.13
347.652
346.993
346.211
345.361
344.493
343.648
342.873
342.277
335.786
336.28
336.933
337.647
338.381
339.099
339.76
340.315
340.719
340.933
340.933
340.719
340.315
339.76
339.099
338.381
337.647
336.933
336.28
335.786
329.29
329.688
330.22
330.804
331.404
331.991
332.53
332.984
333.314
333.488
333.488
333.314
332.984
332.53
331.991
331.404
330.804
330.22
329.688
329.29
322.791
323.097
323.509
323.963
324.429
324.885
325.304
325.657
325.913
326.048
326.048
325.913
325.657
325.304
324.885
324.429
323.963
323.509
323.097
322.791
316.289
316.505
316.8
317.123
317.456
317.782
318.081
318.333
318.516
318.612
318.612
318.516
318.333
318.081
317.782
317.456
317.123
316.8
316.505
316.289
309.785
309.914
310.091
310.285
310.485
310.681
310.86
311.011
311.121
311.179
311.179
311.121
311.011
310.86
310.681
310.485
310.285
310.091
309.914
309.785
303.28
303.323
303.383
303.448
303.515
303.58
303.64
303.691
303.728
303.747
303.747
303.728
303.691
303.64
303.58
303.515
303.448
303.383
303.323
303.28
349.229
349.917
350.792
351.742
352.716
353.667
354.541
355.275
355.809
356.09
356.09
355.809
355.275
354.541
353.667
352.716
351.742
350.792
349.917
349.229
342.68
343.263
344.018
344.84
345.682
346.505
347.261
347.896
348.357
348.6
348.6
348.357
347.896
347.261
346.505
345.682
344.84
344.018
343.263
342.68
336.127
336.61
337.246
337.941
338.653
339.348
339.986
340.523
340.912
341.117
341.117
340.912
340.523
339.986
339.348
338.653
337.941
337.246
336.61
336.127
329.569
329.958
330.476
331.044
331.626
332.194
332.716
333.154
333.471
333.639
333.639
333.471
333.154
332.716
332.194
331.626
331.044
330.476
329.958
329.569
323.007
323.306
323.708
324.149
324.602
325.044
325.449
325.789
326.036
326.166
326.166
326.036
325.789
325.449
325.044
324.602
324.149
323.708
323.306
323.007
316.444
316.655
316.942
317.257
317.58
317.895
318.185
318.427
318.604
318.696
318.696
318.604
318.427
318.185
317.895
317.58
317.257
316.942
316.655
316.444
309.878
310.004
310.176
310.365
310.559
310.749
310.922
311.068
311.174
311.229
311.229
311.174
311.068
310.922
310.749
310.559
310.365
310.176
310.004
309.878
303.311
303.353
303.411
303.474
303.54
303.603
303.661
303.71
303.745
303.764
303.764
303.745
303.71
303.661
303.603
303.54
303.474
303.411
303.353
303.311
349.854
350.521
351.368
352.284
353.22
354.131
354.967
355.667
356.175
356.442
356.442
356.175
355.667
354.967
354.131
353.22
352.284
351.368
350.521
349.854
343.221
343.786
344.516
345.309
346.119
346.908
347.63
348.236
348.675
348.905
348.905
348.675
348.236
347.63
346.908
346.119
345.309
344.516
343.786
343.221
336.584
337.052
337.667
338.337
339.022
339.689
340.299
340.81
341.181
341.375
341.375
341.181
340.81
340.299
339.689
339.022
338.337
337.667
337.052
336.584
329.942
330.319
330.821
331.368
331.928
332.473
332.972
333.389
333.692
333.851
333.851
333.692
333.389
332.972
332.473
331.928
331.368
330.821
330.319
329.942
323.298
323.587
323.976
324.402
324.837
325.261
325.648
325.972
326.207
326.331
326.331
326.207
325.972
325.648
325.261
324.837
324.402
323.976
323.587
323.298
316.651
316.856
317.133
317.437
317.748
318.05
318.327
318.559
318.726
318.814
318.814
318.726
318.559
318.327
318.05
317.748
317.437
317.133
316.856
316.651
310.002
310.125
310.291
310.473
310.66
310.842
311.008
311.147
311.247
311.3
311.3
311.247
311.147
311.008
310.842
310.66
310.473
310.291
310.125
310.002
303.353
303.394
303.45
303.511
303.573
303.634
303.69
303.736
303.77
303.788
303.788
303.77
303.736
303.69
303.634
303.573
303.511
303.45
303.394
303.353
350.641
351.284
352.096
352.972
353.864
354.729
355.52
356.18
356.658
356.909
356.909
356.658
356.18
355.52
354.729
353.864
352.972
352.096
351.284
350.641
343.902
344.446
345.147
345.905
346.677
347.426
348.11
348.681
349.094
349.311
349.311
349.094
348.681
348.11
347.426
346.677
345.905
345.147
344.446
343.902
337.159
337.61
338.2
338.841
339.494
340.127
340.705
341.187
341.536
341.719
341.719
341.536
341.187
340.705
340.127
339.494
338.841
338.2
337.61
337.159
330.412
330.775
331.257
331.78
332.314
332.832
333.304
333.698
333.983
334.132
334.132
333.983
333.698
333.304
332.832
332.314
331.78
331.257
330.775
330.412
323.663
323.942
324.315
324.722
325.137
325.539
325.906
326.213
326.434
326.55
326.55
326.434
326.213
325.906
325.539
325.137
324.722
324.315
323.942
323.663
316.912
317.109
317.375
317.666
317.962
318.25
318.512
318.73
318.888
318.971
318.971
318.888
318.73
318.512
318.25
317.962
317.666
317.375
317.109
316.912
310.159
310.277
310.436
310.611
310.789
310.961
311.119
311.25
311.345
311.395
311.395
311.345
311.25
311.119
310.961
310.789
310.611
310.436
310.277
310.159
303.405
303.445
303.498
303.557
303.616
303.674
303.727
303.771
303.803
303.819
303.819
303.803
303.771
303.727
303.674
303.616
303.557
303.498
303.445
303.405
351.593
352.207
352.981
353.813
354.656
355.47
356.211
356.828
357.274
357.507
357.507
357.274
356.828
356.211
355.47
354.656
353.813
352.981
352.207
351.593
344.726
345.245
345.913
346.633
347.363
348.068
348.709
349.243
349.628
349.83
349.83
349.628
349.243
348.709
348.068
347.363
346.633
345.913
345.245
344.726
337.854
338.285
338.848
339.456
340.074
340.67
341.212
341.663
341.988
342.158
342.158
341.988
341.663
341.212
340.67
340.074
339.456
338.848
338.285
337.854
330.981
331.327
331.786
332.284
332.788
333.276
333.719
334.087
334.353
334.492
334.492
334.353
334.087
333.719
333.276
332.788
332.284
331.786
331.327
330.981
324.105
324.371
324.727
325.113
325.506
325.885
326.229
326.515
326.722
326.83
326.83
326.722
326.515
326.229
325.885
325.506
325.113
324.727
324.371
324.105
317.227
317.415
317.669
317.945
318.226
318.496
318.742
318.947
319.094
319.171
319.171
319.094
318.947
318.742
318.496
318.226
317.945
317.669
317.415
317.227
310.348
310.461
310.613
310.779
310.947
311.11
311.257
311.38
311.468
311.515
311.515
311.468
311.38
311.257
311.11
310.947
310.779
310.613
310.461
310.348
303.469
303.507
303.558
303.613
303.669
303.724
303.773
303.815
303.844
303.86
303.86
303.844
303.815
303.773
303.724
303.669
303.613
303.558
303.507
303.469
352.713
353.296
354.029
354.813
355.603
356.364
357.053
357.625
358.036
358.251
358.251
358.036
357.625
357.053
356.364
355.603
354.813
354.029
353.296
352.713
345.694
346.188
346.82
347.498
348.183
348.842
349.438
349.933
350.289
350.475
350.475
350.289
349.933
349.438
348.842
348.183
347.498
346.82
346.188
345.694
338.673
339.082
339.615
340.188
340.767
341.324
341.828
342.247
342.547
342.704
342.704
342.547
342.247
341.828
341.324
340.767
340.188
339.615
339.082
338.673
331.649
331.979
332.413
332.882
333.356
333.811
334.223
334.565
334.81
334.939
334.939
334.81
334.565
334.223
333.811
333.356
332.882
332.413
331.979
331.649
324.624
324.877
325.214
325.579
325.947
326.301
326.621
326.887
327.078
327.178
327.178
327.078
326.887
326.621
326.301
325.947
325.579
325.214
324.877
324.624
317.598
317.777
318.017
318.278
318.541
318.794
319.022
319.212
319.348
319.42
319.42
319.348
319.212
319.022
318.794
318.541
318.278
318.017
317.777
317.598
310.571
310.678
310.822
310.978
311.136
311.288
311.426
311.539
311.621
311.664
311.664
311.621
311.539
311.426
311.288
311.136
310.978
310.822
310.678
310.571
303.544
303.579
303.628
303.68
303.733
303.784
303.83
303.868
303.895
303.91
303.91
303.895
303.868
303.83
303.784
303.733
303.68
303.628
303.579
303.544
354.004
354.555
355.244
355.978
356.715
357.42
358.056
358.582
358.958
359.156
359.156
358.958
358.582
358.056
357.42
356.715
355.978
355.244
354.555
354.004
346.811
347.277
347.872
348.507
349.146
349.756
350.307
350.762
351.088
351.259
351.259
351.088
350.762
350.307
349.756
349.146
348.507
347.872
347.277
346.811
339.616
340.003
340.504
341.041
341.581
342.098
342.563
342.948
343.223
343.367
343.367
343.223
342.948
342.563
342.098
341.581
341.041
340.504
340.003
339.616
332.42
332.732
333.14
333.579
334.021
334.443
334.824
335.138
335.364
335.482
335.482
335.364
335.138
334.824
334.443
334.021
333.579
333.14
332.732
332.42
325.224
325.463
325.78
326.121
326.464
326.793
327.089
327.333
327.508
327.6
327.6
327.508
327.333
327.089
326.793
326.464
326.121
325.78
325.463
325.224
318.026
318.195
318.421
318.665
318.91
319.145
319.356
319.531
319.656
319.721
319.721
319.656
319.531
319.356
319.145
318.91
318.665
318.421
318.195
318.026
310.828
310.929
311.064
311.211
311.358
311.499
311.626
311.731
311.806
311.845
311.845
311.806
311.731
311.626
311.499
311.358
311.211
311.064
310.929
310.828
303.63
303.663
303.709
303.758
303.807
303.855
303.897
303.932
303.957
303.971
303.971
303.957
303.932
303.897
303.855
303.807
303.758
303.709
303.663
303.63
355.47
355.987
356.632
357.315
357.998
358.648
359.231
359.711
360.054
360.233
360.233
360.054
359.711
359.231
358.648
357.998
357.315
356.632
355.987
355.47
348.079
348.517
349.074
349.665
350.256
350.819
351.324
351.74
352.037
352.192
352.192
352.037
351.74
351.324
350.819
350.256
349.665
349.074
348.517
348.079
340.688
341.051
341.52
342.02
342.52
342.996
343.423
343.775
344.026
344.157
344.157
344.026
343.775
343.423
342.996
342.52
342.02
341.52
341.051
340.688
333.296
333.589
333.971
334.38
334.789
335.178
335.528
335.815
336.02
336.127
336.127
336.02
335.815
335.528
335.178
334.789
334.38
333.971
333.589
333.296
325.904
326.129
326.425
326.743
327.061
327.364
327.636
327.859
328.019
328.102
328.102
328.019
327.859
327.636
327.364
327.061
326.743
326.425
326.129
325.904
318.512
318.671
318.882
319.109
319.337
319.553
319.747
319.907
320.021
320.08
320.08
320.021
319.907
319.747
319.553
319.337
319.109
318.882
318.671
318.512
311.12
311.215
311.341
311.478
311.614
311.744
311.861
311.957
312.025
312.061
312.061
312.025
311.957
311.861
311.744
311.614
311.478
311.341
311.215
311.12
303.727
303.759
303.802
303.847
303.893
303.937
303.976
304.008
304.031
304.043
304.043
304.031
304.008
303.976
303.937
303.893
303.847
303.802
303.759
303.727
357.113
357.598
358.198
358.831
359.459
360.055
360.586
361.023
361.333
361.495
361.495
361.333
361.023
360.586
360.055
359.459
358.831
358.198
357.598
357.113
349.501
349.911
350.429
350.977
351.522
352.038
352.498
352.876
353.145
353.285
353.285
353.145
352.876
352.498
352.038
351.522
350.977
350.429
349.911
349.501
341.89
342.229
342.666
343.129
343.59
344.026
344.416
344.736
344.963
345.081
345.081
344.963
344.736
344.416
344.026
343.59
343.129
342.666
342.229
341.89
334.278
334.552
334.908
335.287
335.664
336.021
336.339
336.601
336.787
336.883
336.883
336.787
336.601
336.339
336.021
335.664
335.287
334.908
334.552
334.278
326.667
326.877
327.154
327.448
327.741
328.019
328.267
328.47
328.615
328.69
328.69
328.615
328.47
328.267
328.019
327.741
327.448
327.154
326.877
326.667
319.057
319.206
319.403
319.613
319.822
320.021
320.198
320.343
320.446
320.5
320.5
320.446
320.343
320.198
320.021
319.822
319.613
319.403
319.206
319.057
311.447
311.536
311.654
311.78
311.906
312.025
312.131
312.219
312.281
312.313
312.313
312.281
312.219
312.131
312.025
311.906
311.78
311.654
311.536
311.447
303.837
303.867
303.906
303.949
303.991
304.031
304.066
304.096
304.116
304.127
304.127
304.116
304.096
304.066
304.031
303.991
303.949
303.906
303.867
303.837
358.938
359.389
359.945
360.529
361.105
361.648
362.131
362.525
362.805
362.95
362.95
362.805
362.525
362.131
361.648
361.105
360.529
359.945
359.389
358.938
351.08
351.461
351.942
352.447
352.946
353.417
353.835
354.177
354.419
354.545
354.545
354.419
354.177
353.835
353.417
352.946
352.447
351.942
351.461
351.08
343.223
343.54
343.945
344.372
344.794
345.193
345.547
345.835
346.041
346.147
346.147
346.041
345.835
345.547
345.193
344.794
344.372
343.945
343.54
343.223
335.368
335.623
335.953
336.302
336.648
336.974
337.264
337.5
337.668
337.755
337.755
337.668
337.5
337.264
336.974
336.648
336.302
335.953
335.623
335.368
327.515
327.71
327.966
328.238
328.507
328.761
328.986
329.169
329.3
329.368
329.368
329.3
329.169
328.986
328.761
328.507
328.238
327.966
327.71
327.515
319.662
319.8
319.983
320.177
320.369
320.55
320.711
320.843
320.936
320.984
320.984
320.936
320.843
320.711
320.55
320.369
320.177
319.983
319.8
319.662
311.81
311.893
312.002
312.119
312.234
312.343
312.44
312.519
312.575
312.604
312.604
312.575
312.519
312.44
312.343
312.234
312.119
312.002
311.893
311.81
303.959
303.986
304.023
304.062
304.101
304.137
304.17
304.196
304.215
304.225
304.225
304.215
304.196
304.17
304.137
304.101
304.062
304.023
303.986
303.959
360.945
361.363
361.877
362.413
362.94
363.433
363.87
364.225
364.476
364.606
364.606
364.476
364.225
363.87
363.433
362.94
362.413
361.877
361.363
360.945
352.817
353.171
353.614
354.078
354.535
354.962
355.341
355.648
355.866
355.979
355.979
355.866
355.648
355.341
354.962
354.535
354.078
353.614
353.171
352.817
344.691
344.984
345.358
345.751
346.137
346.499
346.819
347.079
347.264
347.359
347.359
347.264
347.079
346.819
346.499
346.137
345.751
345.358
344.984
344.691
336.568
336.804
337.109
337.43
337.746
338.042
338.304
338.517
338.668
338.746
338.746
338.668
338.517
338.304
338.042
337.746
337.43
337.109
336.804
336.568
328.447
328.628
328.865
329.114
329.36
329.591
329.795
329.96
330.077
330.138
330.138
330.077
329.96
329.795
329.591
329.36
329.114
328.865
328.628
328.447
320.328
320.456
320.625
320.803
320.979
321.144
321.289
321.407
321.491
321.535
321.535
321.491
321.407
321.289
321.144
320.979
320.803
320.625
320.456
320.328
312.21
312.286
312.388
312.495
312.6
312.699
312.787
312.858
312.908
312.934
312.934
312.908
312.858
312.787
312.699
312.6
312.495
312.388
312.286
312.21
304.093
304.118
304.152
304.188
304.224
304.257
304.286
304.31
304.327
304.335
304.335
304.327
304.31
304.286
304.257
304.224
304.188
304.152
304.118
304.093
363.136
363.523
363.996
364.487
364.966
365.413
365.807
366.125
366.35
366.467
366.467
366.35
366.125
365.807
365.413
364.966
364.487
363.996
363.523
363.136
354.712
355.039
355.448
355.873
356.288
356.676
357.017
357.293
357.488
357.589
357.589
357.488
357.293
357.017
356.676
356.288
355.873
355.448
355.039
354.712
346.293
346.564
346.908
347.267
347.619
347.947
348.236
348.47
348.635
348.72
348.72
348.635
348.47
348.236
347.947
347.619
347.267
346.908
346.564
346.293
337.877
338.095
338.376
338.67
338.958
339.226
339.463
339.654
339.789
339.859
339.859
339.789
339.654
339.463
339.226
338.958
338.67
338.376
338.095
337.877
329.464
329.632
329.85
330.078
330.302
330.511
330.695
330.844
330.949
331.003
331.003
330.949
330.844
330.695
330.511
330.302
330.078
329.85
329.632
329.464
321.054
321.173
321.328
321.491
321.651
321.801
321.932
322.039
322.114
322.152
322.152
322.114
322.039
321.932
321.801
321.651
321.491
321.328
321.173
321.054
312.646
312.717
312.81
312.908
313.004
313.094
313.173
313.237
313.282
313.305
313.305
313.282
313.237
313.173
313.094
313.004
312.908
312.81
312.717
312.646
304.239
304.263
304.294
304.327
304.359
304.389
304.415
304.437
304.452
304.46
304.46
304.452
304.437
304.415
304.389
304.359
304.327
304.294
304.263
304.239
365.508
365.865
366.3
366.748
367.183
367.587
367.941
368.227
368.428
368.532
368.532
368.428
368.227
367.941
367.587
367.183
366.748
366.3
365.865
365.508
356.764
357.066
357.441
357.829
358.207
358.557
358.864
359.111
359.286
359.376
359.376
359.286
359.111
358.864
358.557
358.207
357.829
357.441
357.066
356.764
348.026
348.276
348.592
348.92
349.24
349.537
349.797
350.006
350.153
350.23
350.23
350.153
350.006
349.797
349.537
349.24
348.92
348.592
348.276
348.026
339.293
339.494
339.752
340.021
340.282
340.525
340.738
340.909
341.03
341.092
341.092
341.03
340.909
340.738
340.525
340.282
340.021
339.752
339.494
339.293
330.565
330.719
330.919
331.128
331.332
331.521
331.686
331.819
331.913
331.962
331.962
331.913
331.819
331.686
331.521
331.332
331.128
330.919
330.719
330.565
321.84
321.949
322.092
322.241
322.386
322.522
322.64
322.735
322.802
322.837
322.837
322.802
322.735
322.64
322.522
322.386
322.241
322.092
321.949
321.84
313.118
313.183
313.268
313.358
313.445
313.527
313.598
313.655
313.695
313.716
313.716
313.695
313.655
313.598
313.527
313.445
313.358
313.268
313.183
313.118
304.397
304.419
304.447
304.477
304.507
304.534
304.558
304.577
304.591
304.598
304.598
304.591
304.577
304.558
304.534
304.507
304.477
304.447
304.419
304.397
368.053
368.381
368.779
369.188
369.583
369.947
370.265
370.521
370.7
370.793
370.793
370.7
370.521
370.265
369.947
369.583
369.188
368.779
368.381
368.053
358.963
359.241
359.585
359.938
360.281
360.597
360.873
361.095
361.25
361.33
361.33
361.25
361.095
360.873
360.597
360.281
359.938
359.585
359.241
358.963
349.882
350.113
350.402
350.702
350.992
351.259
351.493
351.68
351.812
351.88
351.88
351.812
351.68
351.493
351.259
350.992
350.702
350.402
350.113
349.882
340.809
340.994
341.23
341.475
341.713
341.932
342.123
342.277
342.384
342.44
342.44
342.384
342.277
342.123
341.932
341.713
341.475
341.23
340.994
340.809
331.742
331.884
332.067
332.258
332.443
332.613
332.762
332.882
332.965
333.009
333.009
332.965
332.882
332.762
332.613
332.443
332.258
332.067
331.884
331.742
322.68
322.781
322.911
323.047
323.18
323.301
323.408
323.493
323.553
323.584
323.584
323.553
323.493
323.408
323.301
323.18
323.047
322.911
322.781
322.68
313.622
313.682
313.76
313.842
313.921
313.995
314.059
314.11
314.146
314.164
314.164
314.146
314.11
314.059
313.995
313.921
313.842
313.76
313.682
313.622
304.566
304.586
304.612
304.64
304.666
304.691
304.712
304.729
304.742
304.748
304.748
304.742
304.729
304.712
304.691
304.666
304.64
304.612
304.586
304.566
370.743
371.045
371.409
371.781
372.139
372.468
372.754
372.982
373.142
373.225
373.225
373.142
372.982
372.754
372.468
372.139
371.781
371.409
371.045
370.743
361.284
361.539
361.854
362.176
362.487
362.772
363.02
363.218
363.357
363.429
363.429
363.357
363.218
363.02
362.772
362.487
362.176
361.854
361.539
361.284
351.838
352.05
352.315
352.588
352.851
353.093
353.302
353.47
353.588
353.648
353.648
353.588
353.47
353.302
353.093
352.851
352.588
352.315
352.05
351.838
342.404
342.574
342.79
343.014
343.229
343.427
343.599
343.736
343.833
343.882
343.882
343.833
343.736
343.599
343.427
343.229
343.014
342.79
342.574
342.404
332.979
333.11
333.278
333.451
333.619
333.773
333.907
334.014
334.089
334.127
334.127
334.089
334.014
333.907
333.773
333.619
333.451
333.278
333.11
332.979
323.562
323.655
323.774
323.898
324.018
324.128
324.224
324.301
324.354
324.382
324.382
324.354
324.301
324.224
324.128
324.018
323.898
323.774
323.655
323.562
314.151
314.206
314.278
314.352
314.425
314.491
314.548
314.594
314.626
314.643
314.643
314.626
314.594
314.548
314.491
314.425
314.352
314.278
314.206
314.151
304.743
304.762
304.786
304.811
304.835
304.857
304.876
304.892
304.902
304.908
304.908
304.902
304.892
304.876
304.857
304.835
304.811
304.786
304.762
304.743
373.509
373.786
374.12
374.46
374.785
375.082
375.34
375.545
375.688
375.762
375.762
375.688
375.545
375.34
375.082
374.785
374.46
374.12
373.786
373.509
363.659
363.894
364.183
364.477
364.759
365.018
365.241
365.419
365.543
365.607
365.607
365.543
365.419
365.241
365.018
364.759
364.477
364.183
363.894
363.659
353.832
354.027
354.27
354.519
354.758
354.977
355.166
355.317
355.422
355.477
355.477
355.422
355.317
355.166
354.977
354.758
354.519
354.27
354.027
353.832
344.024
344.18
344.379
344.583
344.779
344.958
345.113
345.237
345.323
345.367
345.367
345.323
345.237
345.113
344.958
344.779
344.583
344.379
344.18
344.024
334.232
334.352
334.506
334.665
334.818
334.957
335.078
335.174
335.241
335.276
335.276
335.241
335.174
335.078
334.957
334.818
334.665
334.506
334.352
334.232
324.454
324.539
324.649
324.762
324.871
324.971
325.057
325.126
325.174
325.199
325.199
325.174
325.126
325.057
324.971
324.871
324.762
324.649
324.539
324.454
314.685
314.736
314.801
314.87
314.935
314.995
315.047
315.088
315.117
315.132
315.132
315.117
315.088
315.047
314.995
314.935
314.87
314.801
314.736
314.685
304.922
304.939
304.961
304.984
305.006
305.026
305.043
305.057
305.067
305.072
305.072
305.067
305.057
305.043
305.026
305.006
304.984
304.961
304.939
304.922
376.174
376.43
376.738
377.05
377.348
377.619
377.852
378.038
378.167
378.234
378.234
378.167
378.038
377.852
377.619
377.348
377.05
376.738
376.43
376.174
365.92
366.138
366.404
366.675
366.933
367.169
367.372
367.533
367.646
367.703
367.703
367.646
367.533
367.372
367.169
366.933
366.675
366.404
366.138
365.92
355.709
355.889
356.114
356.344
356.563
356.763
356.935
357.072
357.168
357.217
357.217
357.168
357.072
356.935
356.763
356.563
356.344
356.114
355.889
355.709
345.535
345.68
345.864
346.052
346.232
346.395
346.537
346.649
346.727
346.768
346.768
346.727
346.649
346.537
346.395
346.232
346.052
345.864
345.68
345.535
335.392
335.504
335.646
335.793
335.933
336.061
336.171
336.258
336.319
336.351
336.351
336.319
336.258
336.171
336.061
335.933
335.793
335.646
335.504
335.392
325.274
325.353
325.455
325.56
325.66
325.751
325.83
325.893
325.937
325.959
325.959
325.937
325.893
325.83
325.751
325.66
325.56
325.455
325.353
325.274
315.174
315.221
315.282
315.345
315.406
315.461
315.508
315.546
315.572
315.586
315.586
315.572
315.546
315.508
315.461
315.406
315.345
315.282
315.221
315.174
305.085
305.101
305.122
305.143
305.163
305.181
305.197
305.21
305.219
305.223
305.223
305.219
305.21
305.197
305.181
305.163
305.143
305.122
305.101
305.085
378.267
378.509
378.798
379.091
379.369
379.622
379.839
380.011
380.131
380.193
380.193
380.131
380.011
379.839
379.622
379.369
379.091
378.798
378.509
378.267
367.629
367.834
368.085
368.34
368.582
368.803
368.992
369.143
369.248
369.301
369.301
369.248
369.143
368.992
368.803
368.582
368.34
368.085
367.834
367.629
357.084
357.254
357.467
357.683
357.89
358.077
358.238
358.367
358.456
358.501
358.501
358.456
358.367
358.238
358.077
357.89
357.683
357.467
357.254
357.084
346.614
346.752
346.926
347.103
347.273
347.427
347.56
347.665
347.738
347.776
347.776
347.738
347.665
347.56
347.427
347.273
347.103
346.926
346.752
346.614
336.205
336.311
336.446
336.585
336.717
336.837
336.941
337.023
337.08
337.11
337.11
337.08
337.023
336.941
336.837
336.717
336.585
336.446
336.311
336.205
325.841
325.916
326.013
326.112
326.207
326.293
326.367
326.426
326.467
326.488
326.488
326.467
326.426
326.367
326.293
326.207
326.112
326.013
325.916
325.841
315.51
315.554
315.612
315.672
315.729
315.781
315.826
315.861
315.886
315.898
315.898
315.886
315.861
315.826
315.781
315.729
315.672
315.612
315.554
315.51
305.197
305.212
305.231
305.251
305.27
305.288
305.303
305.315
305.323
305.327
305.327
305.323
305.315
305.303
305.288
305.27
305.251
305.231
305.212
305.197
)
;

boundaryField
{
    hotSide
    {
        type            fixedGradient;
        gradient        nonuniform List<scalar> 
400
(
513.229
514.912
518.286
523.366
530.173
538.733
549.079
561.242
575.259
591.163
608.987
628.765
650.524
674.29
700.087
727.935
757.848
789.841
823.924
860.105
522.727
524.335
527.561
532.426
538.957
547.191
557.168
568.931
582.525
597.994
615.38
634.722
656.055
679.41
704.812
732.286
761.847
793.511
827.287
863.185
533.005
534.523
537.574
542.183
548.389
556.238
565.784
577.082
590.189
605.161
622.049
640.901
661.758
684.658
709.628
736.695
765.877
797.189
830.641
866.241
543.894
545.308
548.154
552.467
558.297
565.705
574.759
585.531
598.091
612.508
628.846
647.162
667.503
689.912
714.422
741.059
769.844
800.79
833.908
869.203
555.089
556.386
559.002
562.984
568.396
575.315
583.828
594.023
605.99
619.812
635.564
653.312
673.114
695.014
719.05
745.249
773.631
804.21
836.995
871.988
566.124
567.295
569.666
573.295
578.263
584.666
592.612
602.209
613.564
626.775
641.932
659.11
678.372
699.769
723.339
749.111
777.105
807.333
839.8
874.508
576.367
577.412
579.538
582.816
587.345
593.241
600.632
609.647
620.411
633.039
647.63
664.27
683.028
703.957
727.099
752.481
780.123
810.033
842.215
876.669
585.06
585.991
587.897
590.861
594.996
600.441
607.34
615.843
626.09
638.21
652.313
668.492
686.821
707.355
730.136
755.193
782.541
812.188
844.137
878.383
591.422
592.266
594.003
596.727
600.563
605.664
612.193
620.311
630.172
641.914
655.656
671.495
689.509
709.755
732.275
757.096
784.233
813.693
845.476
879.574
594.793
595.59
597.235
599.828
603.502
608.417
614.745
622.656
632.309
643.849
657.398
673.057
690.904
710.998
733.381
758.078
785.105
814.467
846.163
880.185
594.793
595.59
597.235
599.828
603.502
608.417
614.745
622.656
632.309
643.849
657.398
673.057
690.904
710.998
733.381
758.078
785.105
814.467
846.163
880.185
591.422
592.266
594.003
596.727
600.563
605.664
612.193
620.311
630.172
641.914
655.656
671.495
689.509
709.755
732.275
757.096
784.233
813.693
845.476
879.574
585.06
585.991
587.897
590.861
594.996
600.441
607.34
615.843
626.09
638.21
652.313
668.492
686.821
707.355
730.136
755.193
782.541
812.188
844.137
878.383
576.367
577.412
579.538
582.816
587.345
593.241
600.632
609.647
620.411
633.039
647.63
664.27
683.028
703.957
727.099
752.481
780.123
810.033
842.215
876.669
566.124
567.295
569.666
573.295
578.263
584.666
592.612
602.209
613.564
626.775
641.932
659.11
678.372
699.769
723.339
749.111
777.105
807.333
839.8
874.508
555.089
556.386
559.002
562.984
568.396
575.315
583.828
594.023
605.99
619.812
635.564
653.312
673.114
695.014
719.05
745.249
773.631
804.21
836.995
871.988
543.894
545.308
548.154
552.467
558.297
565.705
574.759
585.531
598.091
612.508
628.846
647.162
667.503
689.912
714.422
741.059
769.844
800.79
833.908
869.203
533.005
534.523
537.574
542.183
548.389
556.238
565.784
577.082
590.189
605.161
622.049
640.901
661.758
684.658
709.628
736.695
765.877
797.189
830.641
866.241
522.727
524.335
527.561
532.426
538.957
547.191
557.168
568.931
582.525
597.994
615.38
634.722
656.055
679.41
704.812
732.286
761.847
793.511
827.287
863.185
513.229
514.912
518.286
523.366
530.173
538.733
549.079
561.242
575.259
591.163
608.987
628.765
650.524
674.29
700.087
727.935
757.848
789.841
823.924
860.105
)
;
    }
    coldSide
    {
        type            mixed;
        refValue        uniform 300;
        refGradient     uniform 0;
        valueFraction   uniform 0.991591;
        source          uniform 0;
        value           nonuniform List<scalar> 
400
(
300.027
300.027
300.028
300.028
300.028
300.029
300.029
300.03
300.031
300.031
300.032
300.033
300.034
300.036
300.037
300.038
300.04
300.041
300.043
300.044
300.028
300.028
300.028
300.028
300.029
300.029
300.029
300.03
300.031
300.032
300.033
300.034
300.035
300.036
300.037