/*--------------------------------*- C++ -*----------------------------------*\
| =========                 |                                                 |
| \\      /  F ield         | OpenFOAM: The Open Source CFD Toolbox           |
|  \\    /   O peration     | Version:  2212                                  |
|   \\  /    A nd           | Website:  www.openfoam.com                      |
|    \\/     M anipulation  |                                                 |
\*---------------------------------------------------------------------------*/
FoamFile
{
    version     2.0;
    format      ascii;
    arch        "LSB;label=32;scalar=64";
    class       volScalarField;
    location    "0";
    object      T;
}
// * * * * * * * * * * * * * * * * * * * * * * * * * * * * * * * * * * * * * //

dimensions      [0 0 0 1 0 0 0];

internalField   nonuniform List<scalar> 
3200
(
317.244
317.218
317.635
318.043
318.221
318.271
318.391
318.486
318.911
318.958
318.675
318.924
318.798
318.662
318.637
318.817
318.937
318.539
318.412
317.911
315.015
315.045
315.326
315.672
315.884
315.875
315.975
316.085
316.464
316.532
316.272
316.448
316.276
316.182
316.257
316.355
316.482
316.135
315.987
315.552
312.76
312.806
313.016
313.279
313.501
313.485
313.549
313.664
313.983
314.067
313.873
313.987
313.828
313.729
313.831
313.867
313.989
313.709
313.555
313.182
310.503
310.508
310.666
310.888
311.07
311.117
311.155
311.175
311.482
311.547
311.395
311.478
311.35
311.275
311.388
311.349
311.513
311.248
311.132
310.788
308.195
308.233
308.324
308.53
308.639
308.679
308.717
308.679
308.999
309.021
308.875
308.929
308.874
308.823
308.863
308.88
308.978
308.763
308.724
308.413
305.865
305.948
305.955
306.115
306.21
306.189
306.261
306.2
306.448
306.475
306.361
306.408
306.366
306.363
306.31
306.321
306.409
306.275
306.278
306.006
303.546
303.598
303.601
303.676
303.73
303.718
303.777
303.706
303.9
303.885
303.82
303.875
303.827
303.852
303.806
303.808
303.81
303.772
303.798
303.623
301.182
301.216
301.217
301.219
301.246
301.266
301.277
301.244
301.303
301.274
301.275
301.294
301.277
301.285
301.27
301.271
301.278
301.248
301.289
301.211
317.708
317.903
318.231
318.609
318.719
319.045
319.1
319.157
319.713
319.659
319.488
319.616
319.333
319.64
319.43
319.501
319.465
319.107
318.923
318.488
315.459
315.587
315.815
316.163
316.294
316.567
316.555
316.638
317.108
317.093
316.9
317.073
316.757
317.003
316.846
316.921
316.903
316.609
316.429
316.025
313.171
313.216
313.387
313.729
313.844
314.075
314.041
314.204
314.481
314.481
314.332
314.518
314.198
314.361
314.277
314.301
314.276
314.051
313.931
313.616
310.834
310.834
310.986
311.293
311.38
311.545
311.503
311.722
311.885
311.853
311.745
311.911
311.62
311.704
311.699
311.693
311.663
311.506
311.457
311.206
308.538
308.424
308.545
308.781
308.885
308.983
308.998
309.177
309.292
309.211
309.127
309.266
309.038
309.053
309.098
309.108
309.083
308.919
308.982
308.762
306.151
306.05
306.115
306.273
306.388
306.465
306.416
306.548
306.637
306.552
306.506
306.663
306.438
306.427
306.487
306.51
306.484
306.37
306.441
306.235
303.701
303.656
303.722
303.763
303.859
303.888
303.852
303.924
303.979
303.927
303.895
304.017
303.827
303.839
303.952
303.942
303.91
303.802
303.869
303.719
301.23
301.237
301.246
301.261
301.308
301.315
301.282
301.307
301.327
301.291
301.289
301.339
301.291
301.279
301.339
301.325
301.292
301.27
301.311
301.246
318.531
318.725
319.04
319.395
319.708
319.949
319.923
320.205
320.318
320.497
320.459
320.743
320.492
320.294
320.562
320.468
320.293
319.979
319.661
319.562
316.162
316.262
316.519
316.798
317.097
317.32
317.334
317.563
317.611
317.804
317.736
317.992
317.774
317.581
317.855
317.732
317.593
317.293
317
316.954
313.746
313.793
313.97
314.171
314.48
314.689
314.68
314.927
314.92
315.111
314.965
315.218
315.025
314.858
315.103
314.988
314.852
314.594
314.366
314.324
311.287
311.295
311.437
311.607
311.841
312.042
312.053
312.223
312.233
312.373
312.233
312.46
312.269
312.159
312.328
312.252
312.121
311.908
311.738
311.726
308.787
308.78
308.885
309.041
309.233
309.352
309.379
309.526
309.535
309.622
309.506
309.696
309.532
309.432
309.525
309.525
309.423
309.236
309.101
309.109
306.291
306.26
306.351
306.494
306.598
306.706
306.679
306.783
306.81
306.864
306.806
306.934
306.815
306.731
306.796
306.771
306.749
306.58
306.539
306.451
303.774
303.73
303.824
303.911
303.971
304.046
304
304.084
304.091
304.091
304.135
304.147
304.141
304.023
304.053
304.057
304.075
303.951
303.961
303.88
301.269
301.274
301.279
301.316
301.321
301.365
301.337
301.371
301.374
301.366
301.369
301.376
301.417
301.328
301.372
301.363
301.372
301.327
301.341
301.29
319.389
319.786
319.801
320.334
320.692
320.879
321.073
321.334
321.367
321.391
321.382
321.614
321.281
321.246
321.436
321.392
321.027
320.885
320.588
320.411
316.86
317.179
317.175
317.62
317.954
318.151
318.281
318.505
318.552
318.536
318.493
318.76
318.45
318.406
318.612
318.551
318.265
318.128
317.837
317.658
314.299
314.563
314.542
314.892
315.274
315.39
315.52
315.652
315.716
315.723
315.608
315.906
315.631
315.594
315.753
315.722
315.471
315.371
315.079
314.897
311.69
311.931
311.935
312.174
312.566
312.653
312.747
312.795
312.874
312.907
312.787
313.018
312.799
312.792
312.87
312.877
312.701
312.595
312.356
312.17
309.098
309.328
309.333
309.466
309.787
309.868
309.928
309.909
310.016
310.056
309.953
310.129
309.946
309.988
310.027
309.975
309.895
309.819
309.627
309.392
306.536
306.7
306.674
306.757
306.983
307.087
307.105
307.076
307.172
307.155
307.121
307.246
307.089
307.099
307.213
307.126
307.092
307.022
306.921
306.648
303.927
304.021
304.003
304.065
304.202
304.261
304.283
304.253
304.351
304.325
304.29
304.349
304.24
304.234
304.351
304.289
304.298
304.217
304.19
303.957
301.332
301.353
301.341
301.371
301.392
301.431
301.438
301.434
301.463
301.472
301.438
301.439
301.404
301.412
301.449
301.442
301.432
301.414
301.413
301.316
320.266
320.824
320.752
321.247
321.707
321.942
322.233
322.499
322.551
322.464
322.72
322.66
322.507
322.501
322.488
322.418
322.064
321.794
321.652
321.572
317.615
318.093
318.002
318.455
318.858
319.063
319.294
319.498
319.559
319.437
319.723
319.658
319.52
319.48
319.461
319.485
319.123
318.881
318.784
318.706
314.919
315.297
315.284
315.641
315.983
316.169
316.353
316.501
316.573
316.503
316.702
316.632
316.547
316.49
316.429
316.509
316.161
315.962
315.906
315.835
312.23
312.543
312.559
312.803
313.101
313.216
313.361
313.518
313.548
313.511
313.68
313.626
313.54
313.491
313.413
313.538
313.285
313.086
313.001
312.938
309.547
309.75
309.81
309.981
310.209
310.273
310.393
310.494
310.526
310.485
310.629
310.616
310.542
310.462
310.424
310.555
310.371
310.176
310.092
310.038
306.811
306.956
307.009
307.154
307.316
307.337
307.433
307.457
307.554
307.464
307.563
307.595
307.522
307.479
307.435
307.564
307.444
307.254
307.177
307.14
304.096
304.217
304.26
304.329
304.389
304.429
304.483
304.49
304.551
304.476
304.543
304.572
304.494
304.468
304.461
304.531
304.499
304.401
304.303
304.27
301.383
301.426
301.433
301.454
301.466
301.519
301.512
301.514
301.528
301.509
301.507
301.532
301.498
301.509
301.515
301.522
301.502
301.461
301.461
301.431
321.168
321.686
321.868
322.334
322.521
322.868
323.231
323.397
323.499
323.412
323.6
323.811
323.684
323.65
323.614
323.316
322.914
322.707
322.659
322.284
318.394
318.795
318.923
319.422
319.547
319.858
320.14
320.291
320.353
320.28
320.424
320.679
320.532
320.49
320.45
320.238
319.857
319.617
319.624
319.337
315.616
315.908
316.03
316.47
316.613
316.819
316.998
317.224
317.197
317.136
317.256
317.524
317.383
317.344
317.268
317.143
316.846
316.585
316.611
316.387
312.849
313.03
313.138
313.476
313.607
313.796
313.877
314.12
314.025
314.027
314.103
314.33
314.247
314.208
314.137
314.036
313.813
313.533
313.634
313.396
310.041
310.128
310.248
310.457
310.595
310.727
310.743
311.024
310.923
310.939
310.981
311.099
311.125
311.101
310.975
310.927
310.762
310.544
310.601
310.417
307.166
307.219
307.347
307.476
307.576
307.641
307.661
307.921
307.864
307.856
307.865
307.898
307.98
307.951
307.826
307.827
307.716
307.545
307.55
307.427
304.292
304.345
304.441
304.437
304.561
304.61
304.579
304.798
304.724
304.728
304.719
304.73
304.785
304.768
304.693
304.743
304.647
304.513
304.516
304.526
301.433
301.449
301.49
301.485
301.514
301.566
301.525
301.601
301.598
301.589
301.575
301.572
301.607
301.591
301.596
301.582
301.553
301.528
301.502
301.555
322.036
322.44
322.824
323.272
323.487
323.726
323.948
324.256
324.423
324.532
324.535
325.051
325.091
324.956
324.644
324.292
324.162
323.823
323.875
323.224
319.182
319.481
319.834
320.202
320.347
320.548
320.766
320.999
321.164
321.238
321.221
321.758
321.753
321.65
321.359
321.09
320.938
320.642
320.612
320.126
316.31
316.479
316.789
317.163
317.264
317.359
317.576
317.794
317.918
317.975
317.944
318.475
318.423
318.355
318.128
317.86
317.679
317.449
317.374
317.021
313.366
313.461
313.705
314.057
314.134
314.227
314.348
314.538
314.64
314.72
314.691
315.127
315.103
315.006
314.862
314.64
314.449
314.271
314.19
313.894
310.422
310.452
310.668
310.931
311.016
311.07
311.169
311.305
311.353
311.412
311.484
311.76
311.755
311.69
311.569
311.342
311.222
311.079
310.971
310.837
307.465
307.493
307.624
307.779
307.884
307.901
308.01
308.069
308.101
308.142
308.209
308.402
308.376
308.381
308.282
308.114
308.033
307.905
307.781
307.735
304.464
304.503
304.561
304.657
304.758
304.74
304.817
304.837
304.882
304.907
304.922
305.067
305
305.023
304.992
304.899
304.803
304.718
304.645
304.598
301.48
301.504
301.531
301.575
301.603
301.582
301.589
301.63
301.651
301.66
301.66
301.707
301.663
301.671
301.69
301.646
301.61
301.566
301.545
301.536
322.887
323.238
323.616
324.023
324.421
324.799
325.065
325.178
325.357
325.592
325.613
325.774
325.975
325.709
325.536
325.442
325.089
324.756
324.412
324.08
319.853
320.163
320.473
320.81
321.137
321.537
321.754
321.797
321.904
322.171
322.2
322.37
322.544
322.288
322.159
322.091
321.705
321.428
321.127
320.841
316.779
317.107
317.323
317.61
317.868
318.255
318.483
318.409
318.527
318.754
318.785
318.931
319.091
318.876
318.805
318.728
318.393
318.132
317.83
317.619
313.77
314.058
314.146
314.396
314.593
314.963
315.197
315.02
315.163
315.323
315.386
315.535
315.601
315.423
315.389
315.37
315.081
314.812
314.541
314.389
310.724
310.944
311.021
311.183
311.332
311.658
311.871
311.645
311.835
311.937
312.008
312.102
312.106
312.014
311.934
311.968
311.739
311.522
311.269
311.216
307.68
307.825
307.885
307.978
308.086
308.376
308.501
308.275
308.452
308.561
308.599
308.675
308.601
308.571
308.466
308.591
308.389
308.201
308.03
308.019
304.626
304.708
304.724
304.797
304.86
305.05
305.124
304.952
305.103
305.14
305.183
305.209
305.148
305.143
305.053
305.202
305.051
304.913
304.798
304.843
301.543
301.583
301.579
301.614
301.624
301.677
301.726
301.655
301.707
301.705
301.735
301.747
301.715
301.72
301.69
301.744
301.693
301.652
301.605
301.625
323.402
324.026
324.633
324.98
325.331
325.866
326.026
326.008
326.214
326.388
326.476
326.663
326.837
326.43
326.459
326.426
326.054
325.613
325.255
324.864
320.287
320.843
321.385
321.667
321.915
322.413
322.549
322.503
322.668
322.883
322.913
323.055
323.279
322.891
322.905
322.93
322.572
322.172
321.875
321.545
317.155
317.649
318.117
318.37
318.505
318.938
319.105
319.013
319.132
319.356
319.371
319.563
319.717
319.37
319.353
319.425
319.096
318.792
318.488
318.203
314.06
314.489
314.842
315.037
315.103
315.496
315.678
315.549
315.624
315.864
315.834
316.054
316.157
315.86
315.839
315.938
315.597
315.407
315.085
314.881
310.934
311.308
311.576
311.721
311.739
312.07
312.18
312.064
312.136
312.394
312.345
312.514
312.588
312.316
312.335
312.409
312.128
312.028
311.742
311.553
307.815
308.097
308.292
308.406
308.393
308.64
308.718
308.636
308.695
308.864
308.825
308.948
308.961
308.766
308.796
308.869
308.622
308.605
308.365
308.243
304.688
304.885
304.984
305.066
305.051
305.147
305.262
305.186
305.198
305.314
305.315
305.385
305.37
305.275
305.269
305.344
305.167
305.222
305.027
304.917
301.558
301.646
301.68
301.695
301.687
301.727
301.796
301.737
301.733
301.791
301.805
301.816
301.793
301.789
301.763
301.783
301.749
301.752
301.685
301.657
324.179
324.963
325.395
325.87
326.195
326.792
327.035
326.854
326.944
327.29
327.588
327.546
327.683
327.539
327.415
327.37
327.192
326.656
326.23
325.839
321.004
321.648
322.014
322.419
322.728
323.199
323.457
323.227
323.313
323.649
323.914
323.862
323.991
323.831
323.742
323.706
323.547
323.122
322.732
322.451
317.798
318.332
318.646
318.941
319.252
319.587
319.841
319.642
319.711
320.023
320.213
320.162
320.31
320.124
320.081
320.045
319.896
319.551
319.213
318.984
314.587
314.992
315.26
315.495
315.725
316.021
316.216
316.07
316.144
316.382
316.539
316.491
316.591
316.44
316.399
316.431
316.27
315.999
315.711
315.482
311.392
311.679
311.89
312.042
312.206
312.484
312.62
312.547
312.573
312.74
312.89
312.831
312.918
312.787
312.76
312.759
312.661
312.437
312.231
312.037
308.16
308.336
308.508
308.605
308.728
308.967
308.986
308.995
308.97
309.087
309.193
309.21
309.211
309.108
309.121
309.096
309.093
308.94
308.739
308.604
304.91
304.974
305.121
305.196
305.269
305.42
305.393
305.403
305.357
305.426
305.516
305.541
305.541
305.44
305.443
305.453
305.437
305.386
305.253
305.18
301.638
301.674
301.711
301.76
301.774
301.826
301.809
301.808
301.794
301.812
301.846
301.864
301.854
301.807
301.806
301.835
301.835
301.799
301.763
301.762
325.224
325.602
326.284
326.785
327.245
327.546
327.888
327.872
328.149
328.353
328.3
328.282
328.44
328.476
328.436
328.328
327.876
327.614
327.125
326.662
321.892
322.205
322.808
323.217
323.683
323.927
324.144
324.171
324.393
324.533
324.574
324.497
324.626
324.684
324.642
324.572
324.144
323.917
323.518
323.12
318.558
318.801
319.32
319.642
320.043
320.255
320.437
320.513
320.594
320.725
320.857
320.699
320.842
320.846
320.83
320.806
320.478
320.213
319.88
319.552
315.224
315.416
315.842
316.026
316.404
316.585
316.709
316.851
316.812
316.947
317.103
316.9
317.03
317.025
317.053
317.03
316.781
316.525
316.25
316.027
311.86
312.019
312.357
312.463
312.789
312.925
313.03
313.162
313.078
313.149
313.29
313.157
313.248
313.247
313.259
313.252
313.067
312.806
312.666
312.461
308.502
308.625
308.891
308.919
309.159
309.249
309.309
309.411
309.36
309.38
309.486
309.422
309.481
309.467
309.478
309.505
309.328
309.167
309.059
308.915
305.096
305.196
305.358
305.374
305.506
305.596
305.589
305.678
305.665
305.634
305.681
305.676
305.697
305.667
305.692
305.772
305.619
305.513
305.459
305.345
301.69
301.719
301.795
301.805
301.845
301.866
301.863
301.91
301.926
301.905
301.911
301.904
301.931
301.907
301.917
301.938
301.886
301.859
301.814
301.791
326.152
326.502
327.083
327.538
328.052
328.405
328.826
328.964
329.292
329.236
329.266
329.297
329.315
329.39
329.323
329.108
328.917
328.349
327.969
327.557
322.731
322.992
323.447
323.881
324.322
324.639
325.015
325.118
325.364
325.349
325.383
325.344
325.396
325.474
325.426
325.232
325.066
324.55
324.224
323.902
319.277
319.5
319.814
320.191
320.595
320.862
321.193
321.303
321.469
321.431
321.515
321.388
321.478
321.577
321.537
321.353
321.212
320.728
320.517
320.205
315.78
315.928
316.215
316.529
316.871
317.062
317.365
317.415
317.557
317.551
317.625
317.449
317.606
317.656
317.648
317.518
317.358
316.924
316.804
316.54
312.286
312.374
312.601
312.843
313.157
313.265
313.527
313.536
313.696
313.683
313.7
313.552
313.724
313.72
313.802
313.618
313.489
313.119
313.076
312.908
308.786
308.837
309.022
309.165
309.408
309.46
309.692
309.696
309.86
309.792
309.783
309.665
309.812
309.807
309.887
309.727
309.539
309.355
309.332
309.252
305.272
305.292
305.455
305.472
305.649
305.68
305.812
305.846
305.942
305.894
305.881
305.805
305.891
305.879
305.961
305.815
305.704
305.621
305.62
305.591
301.774
301.771
301.841
301.832
301.904
301.896
301.937
301.962
302.011
301.974
301.969
301.926
301.994
301.998
301.984
301.939
301.903
301.89
301.883
301.89
326.775
327.186
327.561
328.12
328.672
329.194
329.578
329.788
330.228
330.161
330.16
330.219
329.985
330.194
330.193
329.772
329.355
329.03
328.646
328.182
323.252
323.538
323.88
324.382
324.869
325.347
325.638
325.829
326.201
326.119
326.166
326.206
325.972
326.139
326.23
325.792
325.454
325.135
324.815
324.424
319.696
319.85
320.183
320.621
321.032
321.432
321.673
321.875
322.159
322.087
322.12
322.176
321.958
322.134
322.236
321.809
321.565
321.288
320.983
320.673
316.117
316.222
316.5
316.876
317.187
317.519
317.734
317.921
318.125
318.092
318.069
318.127
317.993
318.131
318.242
317.861
317.696
317.46
317.178
316.917
312.557
312.583
312.833
313.137
313.354
313.626
313.796
313.967
314.143
314.076
314.064
314.108
313.997
314.079
314.199
313.948
313.772
313.604
313.33
313.114
308.967
308.972
309.173
309.402
309.546
309.707
309.845
309.999
310.13
310.074
310.031
310.046
310.024
310.063
310.109
310.017
309.878
309.767
309.529
309.357
305.394
305.354
305.512
305.663
305.729
305.823
305.911
306.005
306.104
306.052
306.022
306.042
306.006
306.031
306.06
306
305.958
305.866
305.723
305.614
301.807
301.785
301.857
301.899
301.928
301.946
301.989
302.031
302.034
302.03
302.004
302.019
302.025
302.017
302.034
302.007
301.997
301.962
301.918
301.876
327.348
327.79
328.369
328.891
329.452
329.934
330.495
330.572
330.737
331.065
331.224
331.181
330.871
330.959
330.829
330.539
330.176
329.919
329.409
328.995
323.812
324.167
324.568
324.99
325.517
325.932
326.414
326.518
326.659
326.917
327.091
327.027
326.746
326.836
326.764
326.484
326.14
325.888
325.488
325.179
320.202
320.515
320.756
321.132
321.591
321.943
322.35
322.512
322.57
322.719
322.928
322.819
322.618
322.723
322.654
322.441
322.159
321.879
321.551
321.294
316.569
316.81
316.972
317.273
317.674
317.999
318.317
318.459
318.476
318.537
318.775
318.66
318.503
318.637
318.55
318.387
318.127
317.907
317.638
317.406
312.882
313.051
313.198
313.418
313.734
314.065
314.292
314.35
314.346
314.404
314.628
314.538
314.38
314.521
314.431
314.318
314.107
313.899
313.7
313.539
309.196
309.301
309.396
309.578
309.813
310.119
310.194
310.267
310.229
310.255
310.474
310.419
310.266
310.364
310.287
310.234
310.102
309.936
309.786
309.669
305.522
305.608
305.642
305.703
305.895
306.067
306.09
306.148
306.165
306.118
306.28
306.247
306.182
306.228
306.145
306.176
306.09
305.957
305.89
305.782
301.838
301.88
301.886
301.921
301.968
302.017
302.048
302.062
302.062
302.053
302.093
302.084
302.059
302.11
302.045
302.061
302.056
302.01
301.95
301.933
327.937
328.384
329.063
329.753
330.019
330.574
331.199
331.221
331.495
331.7
331.825
331.869
331.763
331.421
331.412
331.234
330.825
330.549
330.029
329.657
324.305
324.59
325.206
325.8
325.999
326.481
327.061
327.107
327.252
327.478
327.562
327.663
327.507
327.236
327.202
326.996
326.704
326.433
326.032
325.726
320.623
320.829
321.344
321.821
322.023
322.462
322.913
322.987
323.013
323.25
323.291
323.445
323.26
323.037
323.045
322.803
322.576
322.316
322.039
321.826
316.948
317.027
317.43
317.857
318.041
318.396
318.724
318.809
318.802
318.994
319.03
319.204
319.032
318.83
318.868
318.673
318.432
318.22
318.044
317.896
313.177
313.243
313.546
313.898
314.053
314.333
314.584
314.641
314.593
314.771
314.831
314.955
314.799
314.674
314.661
314.519
314.329
314.175
314.039
313.96
309.431
309.433
309.66
309.948
310.024
310.236
310.45
310.444
310.395
310.549
310.576
310.72
310.568
310.535
310.497
310.347
310.237
310.099
310.041
309.978
305.65
305.646
305.79
305.982
305.98
306.148
306.29
306.278
306.222
306.324
306.349
306.457
306.33
306.34
306.323
306.179
306.17
306.058
306.03
306.054
301.895
301.886
301.93
302.004
302.003
302.045
302.138
302.078
302.09
302.103
302.133
302.179
302.104
302.129
302.12
302.071
302.08
302.027
302.019
302.029
328.554
328.905
329.552
330.239
330.529
331.012
331.532
331.808
332.142
332.315
332.501
332.625
332.501
332.22
332.313
331.819
331.376
331.091
330.555
330.105
324.767
325.069
325.617
326.183
326.48
326.878
327.386
327.58
327.854
328.001
328.127
328.285
328.13
327.913
327.993
327.532
327.188
326.99
326.479
326.092
320.969
321.211
321.707
322.122
322.424
322.74
323.222
323.362
323.577
323.719
323.78
323.938
323.832
323.583
323.675
323.305
323.004
322.856
322.445
322.044
317.145
317.321
317.779
318.113
318.36
318.603
319.048
319.176
319.335
319.397
319.472
319.599
319.538
319.242
319.349
319.1
318.8
318.708
318.391
318.045
313.3
313.404
313.832
314.093
314.271
314.461
314.835
314.964
315.055
315.14
315.127
315.311
315.214
314.935
315.017
314.901
314.625
314.531
314.333
314.063
309.457
309.547
309.902
310.027
310.206
310.356
310.619
310.746
310.725
310.855
310.794
310.966
310.894
310.668
310.699
310.687
310.467
310.366
310.26
310.063
305.636
305.722
305.941
305.992
306.155
306.238
306.371
306.45
306.462
306.546
306.48
306.601
306.549
306.434
306.438
306.433
306.294
306.198
306.16
305.983
301.867
301.91
301.99
302.003
302.069
302.088
302.127
302.186
302.159
302.189
302.188
302.208
302.209
302.151
302.164
302.164
302.126
302.078
302.073
302.011
329.176
329.529
330.098
330.675
331.273
331.654
332.221
332.572
332.999
333.072
333.176
333.31
333.241
332.851
332.837
332.49
331.947
331.503
330.984
330.61
325.307
325.571
326.065
326.642
327.109
327.41
327.931
328.221
328.609
328.666
328.747
328.873
328.772
328.445
328.445
328.133
327.643
327.289
326.849
326.552
321.398
321.677
322.07
322.579
322.959
323.214
323.638
323.918
324.206
324.246
324.354
324.442
324.295
324.063
324.058
323.785
323.371
323.082
322.74
322.446
317.473
317.758
318.064
318.519
318.808
319.02
319.377
319.628
319.802
319.827
319.99
319.977
319.855
319.669
319.675
319.433
319.119
318.895
318.63
318.33
313.582
313.833
314.096
314.398
314.618
314.792
315.118
315.307
315.39
315.429
315.558
315.58
315.41
315.257
315.293
315.071
314.842
314.765
314.52
314.289
309.723
309.904
310.114
310.301
310.44
310.54
310.803
310.962
310.971
311.016
311.134
311.143
310.984
310.875
310.919
310.762
310.597
310.543
310.42
310.243
305.838
305.939
306.051
306.171
306.269
306.342
306.48
306.56
306.576
306.617
306.696
306.718
306.591
306.517
306.554
306.488
306.379
306.316
306.291
306.133
301.962
301.989
302.044
302.053
302.094
302.108
302.196
302.222
302.196
302.218
302.246
302.264
302.228
302.191
302.186
302.188
302.128
302.113
302.101
302.052
329.63
330.04
330.562
331.147
331.717
332.258
332.782
333.125
333.649
333.66
333.88
333.826
333.748
333.465
333.355
333.025
332.522
332.055
331.541
331.053
325.713
326.057
326.532
327.033
327.453
328.006
328.437
328.73
329.209
329.249
329.337
329.334
329.232
328.997
328.903
328.614
328.179
327.71
327.312
326.943
321.763
322.032
322.474
322.902
323.236
323.726
324.087
324.324
324.752
324.818
324.823
324.837
324.725
324.53
324.45
324.194
323.807
323.473
323.068
322.824
317.816
317.991
318.399
318.772
319.006
319.435
319.702
319.899
320.226
320.363
320.29
320.336
320.207
320.063
319.973
319.801
319.51
319.283
318.829
318.668
313.87
313.963
314.34
314.623
314.756
315.111
315.333
315.456
315.723
315.845
315.789
315.882
315.709
315.583
315.546
315.422
315.167
315.031
314.649
314.522
309.896
309.963
310.249
310.413
310.538
310.79
310.985
311.054
311.253
311.302
311.301
311.418
311.233
311.125
311.102
311.063
310.796
310.764
310.454
310.373
305.951
305.996
306.162
306.229
306.338
306.476
306.624
306.627
306.746
306.778
306.79
306.876
306.74
306.665
306.675
306.647
306.493
306.498
306.276
306.254
301.994
302.008
302.077
302.065
302.12
302.17
302.233
302.213
302.253
302.268
302.263
302.318
302.252
302.231
302.246
302.212
302.168
302.178
302.101
302.117
329.717
330.399
331.031
331.656
332.143
332.745
333.348
333.607
333.885
334.308
334.228
334.173
334.006
333.948
333.824
333.521
333.074
332.451
331.86
331.689
325.74
326.317
326.865
327.468
327.891
328.401
328.924
329.148
329.381
329.759
329.65
329.643
329.432
329.44
329.352
329.053
328.685
328.117
327.574
327.468
321.843
322.23
322.695
323.269
323.617
324.043
324.479
324.692
324.892
325.166
325.103
325.152
324.919
324.918
324.843
324.558
324.27
323.771
323.333
323.225
317.951
318.184
318.58
319.069
319.289
319.691
320.02
320.238
320.401
320.624
320.564
320.648
320.392
320.406
320.341
320.095
319.875
319.434
319.07
318.967
313.983
314.117
314.435
314.856
315.001
315.357
315.577
315.726
315.871
316.038
316.075
316.083
315.826
315.922
315.84
315.653
315.482
315.104
314.806
314.693
310.015
310.062
310.309
310.62
310.66
311.022
311.134
311.257
311.351
311.494
311.538
311.499
311.287
311.401
311.332
311.201
311.023
310.791
310.561
310.481
306.002
306.04
306.158
306.381
306.38
306.648
306.662
306.773
306.848
306.918
306.972
306.899
306.777
306.823
306.819
306.733
306.602
306.509
306.351
306.299
302.009
302.032
302.059
302.14
302.154
302.235
302.217
302.288
302.288
302.326
302.325
302.296
302.263
302.285
302.294
302.245
302.217
302.186
302.131
302.11
330.042
330.548
331.221
332.32
332.818
333.172
333.593
333.999
334.29
334.515
334.643
334.523
334.16
334.278
334.117
333.887
333.249
332.814
332.064
331.855
326.073
326.514
327.014
328.028
328.452
328.779
329.162
329.457
329.751
329.961
330.064
329.933
329.562
329.72
329.57
329.356
328.794
328.435
327.754
327.594
322.067
322.492
322.835
323.757
324.082
324.411
324.695
324.919
325.182
325.403
325.422
325.332
324.989
325.153
325
324.851
324.403
324.083
323.525
323.337
318.064
318.444
318.666
319.448
319.68
320.022
320.227
320.351
320.598
320.753
320.816
320.72
320.416
320.555
320.429
320.322
320.003
319.715
319.214
319.116
314.064
314.38
314.499
315.128
315.24
315.633
315.741
315.802
315.983
316.115
316.198
316.105
315.866
316.006
315.87
315.789
315.539
315.327
314.932
314.856
310.065
310.265
310.358
310.822
310.833
311.182
311.3
311.266
311.365
311.524
311.596
311.537
311.362
311.447
311.345
311.306
311.091
310.999
310.699
310.615
306.072
306.16
306.224
306.523
306.481
306.716
306.788
306.765
306.813
306.915
306.987
306.934
306.807
306.878
306.824
306.767
306.673
306.642
306.44
306.341
302.053
302.065
302.106
302.187
302.163
302.252
302.265
302.287
302.301
302.314
302.337
302.326
302.284
302.285
302.291
302.277
302.243
302.232
302.144
302.113
)
;

boundaryField
{
    hotSide
    {
        type            fixedGradient;
        gradient        nonuniform List<scalar> 
400
(
172.705
182.473
192.246
201.982
211.637
221.166
230.523
239.662
248.539
257.108
265.326
273.15
280.539
287.454
293.86
299.721
305.008
309.693
313.752
317.165
176.335
186.398
196.47
206.507
216.464
226.295
235.952
245.389
254.559
263.415
271.912
280.007
287.656
294.82
301.46
307.543
313.035
317.91
322.14
325.707
179.633
189.967
200.314
210.628
220.864
230.973
240.908
250.619
260.06
269.181
277.936
286.281
294.171
301.564
308.423
314.711
320.394
325.444
329.835
333.544
182.606
193.186
203.783
214.349
224.838
235.2
245.387
255.348
265.034
274.396
283.386
291.958
300.067
307.671
314.728
321.203
327.06
332.271
336.807
340.647
185.265
196.064
206.883
217.674
228.389
238.976
249.387
259.571
269.476
279.053
288.253
297.029
305.333
313.123
320.358
326.999
333.012
338.366
343.032
346.988
187.618
198.609
209.622
220.608
231.519
242.304
252.91
263.287
273.384
283.148
292.53
301.482
309.956
317.909
325.298
332.084
338.232
343.709
348.489
352.546
189.674
200.827
212.003
223.155
234.232
245.183
255.954
266.495
276.752
286.674
296.21
305.31
313.927
322.016
329.534
336.442
342.702
348.284
353.158
357.299
191.438
202.722
214.032
225.318
236.529
247.614
258.519
269.191
279.578
289.626
299.285
308.504
317.236
325.434
333.055
340.059
346.409
352.073
357.021
361.228
192.913
204.297
215.708
227.096
238.409
249.594
260.6
271.371
281.854
291.997
301.748
311.055
319.872
328.15
335.847
342.921
349.337
355.06
360.061
364.315
194.097
205.55
217.029
228.485
239.866
251.119
262.19
273.026
283.573
293.778
303.588
312.953
321.823
330.152
337.896
345.015
351.47
357.229
362.262
366.544
194.985
206.473
217.988
229.478
240.892
252.178
263.282
274.148
284.725
294.957
304.794
314.183
323.076
331.426
339.189
346.325
352.794
358.565
363.608
367.896
195.567
207.057
218.573
230.063
241.476
252.76
263.861
274.723
285.295
295.521
305.351
314.732
323.617
331.957
339.71
346.835
353.293
359.052
364.081
368.357
195.828
207.287
218.769
230.225
241.603
252.849
263.912
274.735
285.267
295.454
305.243
314.584
323.428
331.729
339.443
346.529
352.95
358.672
363.667
367.909
195.75
207.144
218.559
229.946
241.253
252.427
263.416
274.167
284.624
294.737
304.453
313.721
322.494
330.725
338.371
345.392
351.75
357.413
362.351
366.54
195.312
206.607
217.922
229.205
240.406
251.474
262.355
272.997
283.347
293.352
302.962
312.126
320.797
328.929
336.479
343.408
349.679
355.259
360.12
364.237
194.49
205.654
216.834
227.98
239.042
249.968
260.708
271.208
281.417
291.282
300.754
309.783
318.322
326.327
333.754
340.565
346.725
352.2
356.964
360.991
193.261
204.261
215.273
226.248
237.138
247.89
258.455
268.781
278.816
288.51
297.813
306.677
315.056
322.906
330.184
336.854
342.88
348.23
352.878
356.799
191.6
202.405
213.217
223.99
234.674
245.22
255.579
265.698
275.529
285.021
294.127
302.798
310.989
318.658
325.764
332.27
338.141
343.347
347.86
351.66
189.487
200.066
210.647
221.186
231.635
241.944
252.065
261.949
271.546
280.808
289.688
298.139
306.118
313.582
320.493
326.813
332.51
337.554
341.919
345.583
186.903
197.226
207.548
217.823
228.007
238.05
247.905
257.525
266.861
275.866
284.495
292.702
300.444
307.682
314.377
320.493
325.998
330.864
335.066
338.582
)
;
    }
    coldSide
    {
        type            mixed;
        refValue        uniform 300;
        refGradient     uniform 0;
        valueFraction   uniform 0.991591;
        source          uniform 0;
        value           nonuniform List<scalar> 
400
(
300.01
300.01
300.011
300.011
300.012
300.012
300.012
300.013
300.013
300.014
300.014
300.015
300.015
300.015
300.016
300.016
300.017
300.017
300.017
300.017
300.01
300.01
300.011
300.011
300.012
300.012
300.013
300.013
300.014
300.014
300.014
300.015
300.015
300.016
300.016
300.016
300.017
300.017
300.017
300.017