/*--------------------------------*- C++ -*----------------------------------*\
| =========                 |                                                 |
| \\      /  F ield         | OpenFOAM: The Open Source CFD Toolbox           |
|  \\    /   O peration     | Version:  2212                                  |
|   \\  /    A nd           | Website:  www.openfoam.com                      |
|    \\/     M anipulation  |                                                 |
\*---------------------------------------------------------------------------*/
FoamFile
{
    version     2.0;
    format      ascii;
    arch        "LSB;label=32;scalar=64";
    class       volScalarField;
    location    "0";
    object      T;
}
// * * * * * * * * * * * * * * * * * * * * * * * * * * * * * * * * * * * * * //

dimensions      [0 0 0 1 0 0 0];

internalField   nonuniform List<scalar> 
3200
(
347.653
346.583
346.063
346.014
346.301
346.981
347.683
348.221
348.796
348.905
348.812
348.543
347.865
346.973
345.855
344.733
343.87
343.32
343.642
344.311
341.298
340.395
339.981
339.928
340.177
340.752
341.382
341.828
342.347
342.442
342.367
342.152
341.592
340.816
339.871
338.923
338.162
337.647
337.942
338.504
334.942
334.191
333.851
333.795
334.03
334.526
335.054
335.425
335.869
335.947
335.897
335.721
335.259
334.609
333.814
333.043
332.411
331.947
332.203
332.661
328.604
327.984
327.721
327.684
327.859
328.261
328.716
329.005
329.369
329.443
329.424
329.26
328.903
328.375
327.71
327.103
326.602
326.209
326.416
326.788
322.255
321.784
321.551
321.554
321.673
321.985
322.351
322.578
322.853
322.922
322.917
322.813
322.508
322.112
321.604
321.131
320.763
320.455
320.611
320.867
315.885
315.576
315.402
315.415
315.49
315.704
315.979
316.14
316.341
316.381
316.395
316.335
316.106
315.817
315.444
315.1
314.883
314.659
314.763
314.923
309.53
309.351
309.246
309.273
309.309
309.418
309.6
309.698
309.808
309.843
309.842
309.833
309.688
309.498
309.289
309.081
308.969
308.817
308.874
308.977
303.185
303.137
303.097
303.113
303.118
303.168
303.213
303.251
303.275
303.294
303.294
303.299
303.251
303.191
303.105
303.042
303.011
302.953
302.965
303.009
347.706
346.652
346.05
346.045
346.339
347.07
347.72
348.381
348.988
349.366
349.285
348.959
348.166
347.245
346.035
344.919
343.931
343.42
343.669
344.27
341.394
340.464
339.967
339.976
340.208
340.868
341.396
341.97
342.494
342.825
342.769
342.515
341.828
341.026
339.997
339.053
338.221
337.772
337.992
338.491
335.062
334.264
333.866
333.851
334.081
334.626
335.059
335.538
335.988
336.272
336.237
336.03
335.468
334.796
333.924
333.127
332.453
332.058
332.261
332.637
328.713
328.044
327.764
327.718
327.912
328.367
328.719
329.083
329.452
329.69
329.673
329.513
329.057
328.516
327.823
327.158
326.632
326.314
326.461
326.753
322.324
321.812
321.619
321.57
321.72
322.081
322.36
322.626
322.902
323.098
323.081
322.995
322.647
322.216
321.684
321.13
320.766
320.524
320.624
320.848
315.947
315.586
315.489
315.42
315.502
315.779
315.985
316.164
316.358
316.507
316.514
316.436
316.205
315.897
315.512
315.116
314.879
314.686
314.744
314.905
309.579
309.371
309.327
309.267
309.309
309.48
309.614
309.703
309.822
309.918
309.934
309.886
309.745
309.557
309.32
309.091
308.97
308.821
308.866
308.969
303.211
303.141
303.126
303.106
303.113
303.178
303.227
303.242
303.292
303.323
303.325
303.311
303.267
303.212
303.125
303.044
303.004
302.962
302.969
303.011
347.736
346.774
346.224
346.294
346.696
347.332
348.103
348.805
349.544
349.883
349.992
349.608
348.823
347.718
346.422
345.312
344.254
343.68
343.861
344.299
341.402
340.577
340.116
340.175
340.522
341.053
341.719
342.318
342.953
343.264
343.404
343.062
342.372
341.433
340.359
339.375
338.502
337.986
338.163
338.526
335.061
334.355
333.983
334.037
334.338
334.771
335.331
335.835
336.376
336.653
336.777
336.483
335.894
335.118
334.257
333.385
332.692
332.229
332.403
332.686
328.712
328.117
327.824
327.864
328.131
328.461
328.926
329.337
329.771
330.025
330.119
329.885
329.394
328.786
328.087
327.37
326.838
326.433
326.612
326.812
322.334
321.873
321.658
321.704
321.91
322.148
322.525
322.834
323.155
323.387
323.453
323.285
322.885
322.436
321.883
321.315
320.912
320.593
320.748
320.891
315.978
315.627
315.481
315.516
315.672
315.838
316.107
316.316
316.557
316.738
316.764
316.665
316.369
316.037
315.651
315.269
314.962
314.75
314.843
314.95
309.607
309.392
309.304
309.324
309.409
309.513
309.677
309.795
309.949
310.052
310.063
310.033
309.826
309.642
309.406
309.191
308.998
308.879
308.928
308.992
303.221
303.141
303.115
303.112
303.159
303.185
303.245
303.279
303.341
303.37
303.371
303.367
303.294
303.23
303.155
303.077
303.015
302.971
302.995
303.024
347.936
347.032
346.435
346.661
347.151
347.861
348.711
349.488
350.244
350.716
350.876
350.392
349.623
348.522
347.19
345.724
344.707
344.171
344.14
344.65
341.548
340.801
340.287
340.507
340.894
341.544
342.247
342.91
343.57
343.95
344.124
343.727
343.082
342.12
341.011
339.748
338.886
338.43
338.406
338.801
335.17
334.56
334.119
334.315
334.631
335.188
335.763
336.307
336.906
337.208
337.376
337.036
336.496
335.671
334.782
333.694
333.001
332.606
332.61
332.918
328.761
328.304
327.942
328.107
328.369
328.813
329.267
329.7
330.228
330.472
330.608
330.33
329.883
329.21
328.525
327.617
327.08
326.749
326.751
326.997
322.371
322.031
321.759
321.888
322.085
322.417
322.761
323.097
323.533
323.716
323.834
323.631
323.277
322.74
322.235
321.531
321.107
320.832
320.856
321.034
315.973
315.748
315.562
315.663
315.791
316.017
316.26
316.497
316.835
316.962
317.042
316.899
316.656
316.259
315.92
315.411
315.121
314.891
314.934
315.035
309.582
309.473
309.355
309.432
309.479
309.612
309.755
309.894
310.126
310.181
310.24
310.169
310.005
309.777
309.575
309.277
309.111
308.952
308.981
309.023
303.208
303.179
303.132
303.168
303.18
303.219
303.269
303.316
303.389
303.418
303.428
303.41
303.365
303.283
303.212
303.102
303.056
303.002
303.026
303.038
348.33
347.483
347.029
347.123
347.63
348.501
349.291
350.27
351.128
351.736
351.714
351.245
350.497
349.34
347.772
346.486
345.319
344.762
344.712
345.279
341.89
341.193
340.788
340.893
341.318
342.079
342.74
343.591
344.35
344.856
344.849
344.454
343.816
342.826
341.488
340.378
339.396
338.938
338.905
339.364
335.445
334.882
334.518
334.648
334.97
335.638
336.17
336.887
337.564
337.963
337.963
337.646
337.095
336.267
335.192
334.226
333.43
333.029
333.029
333.401
329.003
328.57
328.272
328.376
328.628
329.18
329.586
330.198
330.752
331.054
331.073
330.838
330.385
329.697
328.843
328.069
327.445
327.075
327.113
327.383
322.559
322.235
322.016
322.082
322.292
322.713
323.019
323.514
323.949
324.142
324.18
324.024
323.677
323.115
322.477
321.873
321.418
321.079
321.126
321.33
316.131
315.893
315.732
315.765
315.941
316.234
316.447
316.819
317.105
317.26
317.282
317.178
316.925
316.522
316.079
315.651
315.339
315.071
315.126
315.249
309.692
309.555
309.451
309.464
309.578
309.76
309.866
310.11
310.283
310.365
310.378
310.331
310.165
309.921
309.674
309.415
309.224
309.061
309.086
309.163
303.258
303.202
303.162
303.171
303.203
303.272
303.302
303.381
303.455
303.485
303.481
303.463
303.408
303.316
303.248
303.163
303.089
303.035
303.046
303.064
348.846
348.05
347.766
347.773
348.271
349.114
349.991
351.096
352.142
352.583
352.747
352.371
351.319
350.244
348.609
347.213
346.094
345.521
345.515
345.886
342.341
341.648
341.416
341.442
341.862
342.579
343.35
344.323
345.224
345.62
345.746
345.447
344.515
343.584
342.205
341.036
340.087
339.585
339.589
339.93
335.827
335.243
335.066
335.085
335.432
336.035
336.682
337.545
338.301
338.649
338.727
338.466
337.707
336.926
335.756
334.806
334.033
333.598
333.605
333.871
329.311
328.863
328.704
328.693
329.004
329.483
330.017
330.755
331.353
331.636
331.693
331.499
330.882
330.246
329.29
328.543
327.902
327.55
327.563
327.773
322.779
322.474
322.326
322.328
322.582
322.945
323.345
323.924
324.394
324.599
324.629
324.499
324.051
323.545
322.827
322.233
321.751
321.453
321.478
321.631
316.25
316.072
315.967
315.959
316.144
316.393
316.677
317.099
317.439
317.583
317.582
317.501
317.176
316.833
316.33
315.887
315.56
315.33
315.356
315.462
309.744
309.647
309.6
309.569
309.702
309.841
310.017
310.274
310.485
310.559
310.547
310.515
310.311
310.123
309.805
309.536
309.36
309.199
309.231
309.285
303.269
303.232
303.21
303.211
303.251
303.296
303.358
303.439
303.508
303.533
303.536
303.53
303.447
303.395
303.286
303.192
303.133
303.071
303.099
303.114
349.622
348.75
348.435
348.571
349.122
349.834
350.779
351.864
352.921
353.522
353.765
353.365
352.429
351.07
349.608
348.032
346.971
346.34
346.374
346.589
342.996
342.249
341.995
342.126
342.626
343.222
344.05
344.951
345.9
346.416
346.621
346.285
345.483
344.327
343.06
341.745
340.832
340.284
340.349
340.501
336.358
335.747
335.546
335.654
336.085
336.596
337.278
338.048
338.858
339.307
339.477
339.176
338.51
337.534
336.48
335.387
334.64
334.167
334.257
334.351
329.742
329.238
329.085
329.183
329.526
329.934
330.513
331.13
331.793
332.195
332.334
332.057
331.52
330.768
329.873
328.983
328.405
327.995
328.083
328.202
323.13
322.749
322.629
322.693
322.987
323.284
323.742
324.236
324.726
325.079
325.173
324.954
324.526
323.963
323.261
322.549
322.111
321.806
321.883
322.003
316.516
316.262
316.172
316.202
316.433
316.63
316.966
317.324
317.675
317.945
317.994
317.853
317.543
317.129
316.634
316.116
315.795
315.571
315.653
315.74
309.911
309.778
309.714
309.718
309.882
309.974
310.187
310.402
310.623
310.805
310.822
310.736
310.538
310.278
310.009
309.668
309.483
309.341
309.4
309.455
303.327
303.283
303.259
303.26
303.307
303.337
303.409
303.491
303.566
303.629
303.633
303.599
303.536
303.448
303.36
303.235
303.171
303.121
303.149
303.165
350.284
349.699
349.338
349.347
350.003
350.659
351.703
352.729
353.852
354.487
354.698
354.304
353.285
352.011
350.464
349.115
347.851
347.145
347.196
347.366
343.558
343.083
342.79
342.792
343.352
343.925
344.847
345.691
346.69
347.231
347.416
347.077
346.2
345.133
343.828
342.674
341.582
340.976
341.056
341.191
336.83
336.448
336.222
336.236
336.692
337.18
337.965
338.673
339.515
339.982
340.132
339.858
339.106
338.237
337.114
336.197
335.27
334.753
334.86
334.96
330.132
329.815
329.649
329.667
330.022
330.411
331.07
331.656
332.329
332.732
332.867
332.636
332.032
331.33
330.396
329.667
328.889
328.509
328.621
328.683
323.428
323.196
323.068
323.075
323.357
323.641
324.157
324.635
325.149
325.488
325.578
325.375
324.956
324.403
323.672
323.1
322.493
322.206
322.326
322.353
316.751
316.573
316.5
316.481
316.694
316.882
317.236
317.608
317.964
318.215
318.294
318.127
317.846
317.439
316.941
316.526
316.077
315.892
315.974
316.005
310.052
309.947
309.926
309.925
310.018
310.114
310.338
310.592
310.776
310.922
311.007
310.886
310.719
310.466
310.191
309.94
309.655
309.551
309.61
309.63
303.372
303.342
303.328
303.323
303.364
303.382
303.472
303.558
303.61
303.65
303.703
303.65
303.584
303.496
303.427
303.333
303.246
303.211
303.228
303.228
351.064
350.483
350.256
350.305
350.89
351.561
352.477
353.61
354.583
355.399
355.571
355.183
354.173
352.794
351.348
350.046
348.916
348.161
347.941
348.209
344.267
343.786
343.591
343.59
344.147
344.712
345.511
346.454
347.325
348.028
348.178
347.842
346.963
345.776
344.58
343.457
342.505
341.874
341.679
341.913
337.458
337.062
336.904
336.885
337.377
337.85
338.535
339.314
340.061
340.647
340.773
340.495
339.758
338.769
337.777
336.832
336.013
335.537
335.397
335.583
330.663
330.33
330.203
330.173
330.607
330.977
331.572
332.159
332.791
333.265
333.361
333.141
332.546
331.747
330.966
330.19
329.491
329.118
329.022
329.173
323.856
323.588
323.5
323.465
323.811
324.098
324.579
325.026
325.522
325.905
325.945
325.786
325.324
324.727
324.119
323.523
322.963
322.665
322.636
322.733
317.051
316.845
316.789
316.756
317.024
317.219
317.568
317.888
318.242
318.527
318.544
318.427
318.094
317.686
317.255
316.831
316.408
316.206
316.2
316.268
310.24
310.107
310.077
310.069
310.213
310.343
310.56
310.762
310.963
311.127
311.141
311.067
310.862
310.615
310.369
310.119
309.847
309.744
309.762
309.792
303.424
303.393
303.381
303.368
303.426
303.463
303.552
303.607
303.686
303.727
303.736
303.703
303.64
303.562
303.488
303.396
303.307
303.269
303.283
303.279
352.058
351.496
351.216
351.14
351.581
352.429
353.383
354.464
355.466
356.198
356.279
356.104
355.062
353.497
352.314
350.903
349.72
349.127
348.884
349.066
345.103
344.642
344.417
344.348
344.709
345.458
346.288
347.23
348.077
348.706
348.772
348.617
347.716
346.427
345.437
344.207
343.213
342.709
342.491
342.658
338.17
337.774
337.581
337.536
337.844
338.485
339.2
339.967
340.697
341.23
341.264
341.136
340.359
339.333
338.535
337.482
336.66
336.226
336.045
336.203
331.269
330.9
330.757
330.725
330.968
331.487
332.098
332.709
333.339
333.745
333.764
333.643
333.004
332.22
331.586
330.729
330.056
329.702
329.557
329.684
324.324
324.035
323.948
323.927
324.088
324.519
324.976
325.469
325.959
326.262
326.277
326.162
325.68
325.095
324.6
323.93
323.429
323.136
323.046
323.14
317.384
317.164
317.127
317.117
317.211
317.512
317.842
318.225
318.55
318.788
318.778
318.705
318.351
317.936
317.6
317.137
316.761
316.542
316.49
316.561
310.433
310.306
310.294
310.284
310.327
310.513
310.733
310.942
311.144
311.297
311.298
311.247
311.02
310.788
310.577
310.311
310.076
309.945
309.925
309.954
303.501
303.448
303.448
303.447
303.467
303.529
303.607
303.666
303.731
303.788
303.782
303.775
303.706
303.624
303.557
303.459
303.376
303.34
303.334
303.337
353.019
352.47
352.124
352.026
352.493
353.335
354.159
355.212
356.152
356.889
356.944
356.596
355.741
354.478
353.285
351.63
350.584
350.09
349.859
350.099
345.939
345.5
345.201
345.098
345.527
346.25
346.976
347.863
348.678
349.327
349.359
349.083
348.324
347.276
346.261
344.849
343.943
343.541
343.346
343.541
338.865
338.499
338.265
338.189
338.566
339.147
339.772
340.505
341.206
341.739
341.783
341.526
340.895
340.019
339.18
338.021
337.26
336.934
336.764
336.924
331.802
331.51
331.319
331.262
331.577
332.037
332.555
333.141
333.742
334.162
334.194
333.972
333.454
332.766
332.069
331.143
330.542
330.286
330.144
330.266
324.745
324.526
324.362
324.347
324.563
324.91
325.337
325.807
326.255
326.583
326.584
326.429
326.014
325.513
324.947
324.255
323.804
323.624
323.502
323.581
317.671
317.54
317.397
317.408
317.557
317.782
318.111
318.461
318.756
319.006
318.994
318.889
318.576
318.229
317.821
317.346
317.035
316.914
316.836
316.863
310.616
310.532
310.431
310.446
310.543
310.669
310.881
311.112
311.267
311.432
311.401
311.349
311.153
310.942
310.698
310.432
310.237
310.165
310.127
310.139
303.552
303.531
303.477
303.502
303.524
303.568
303.65
303.734
303.775
303.829
303.825
303.802
303.735
303.672
303.584
303.494
303.428
303.406
303.393
303.399
354.04
353.425
353.007
352.962
353.456
354.14
354.872
355.931
356.731
357.327
357.456
357.2
356.35
355.218
354.017
352.502
351.466
350.911
350.782
350.959
346.849
346.363
345.976
345.921
346.351
346.955
347.575
348.495
349.172
349.695
349.81
349.6
348.873
347.957
346.91
345.611
344.71
344.24
344.145
344.299
339.653
339.273
338.926
338.886
339.243
339.73
340.259
341.062
341.619
342.032
342.167
341.992
341.369
340.622
339.753
338.677
337.917
337.527
337.484
337.594
332.448
332.181
331.869
331.859
332.153
332.505
332.932
333.592
334.075
334.373
334.525
334.365
333.867
333.246
332.585
331.691
331.095
330.784
330.739
330.839
325.233
325.052
324.792
324.8
325.033
325.302
325.615
326.11
326.546
326.719
326.856
326.749
326.348
325.893
325.386
324.684
324.238
323.99
323.956
324.026
318.048
317.903
317.708
317.727
317.885
318.085
318.294
318.655
318.981
319.084
319.179
319.122
318.825
318.516
318.138
317.669
317.337
317.169
317.15
317.191
310.844
310.753
310.632
310.65
310.745
310.872
310.979
311.21
311.406
311.471
311.513
311.508
311.318
311.118
310.892
310.623
310.43
310.332
310.313
310.327
303.63
303.599
303.555
303.557
303.603
303.649
303.683
303.758
303.831
303.84
303.849
303.856
303.803
303.729
303.643
303.564
303.496
303.473
303.459
303.472
354.986
354.455
353.925
353.82
354.245
354.896
355.667
356.652
357.496
357.921
358.026
357.754
356.777
355.743
354.518
353.303
352.376
351.949
351.663
351.907
347.651
347.236
346.757
346.667
347.035
347.606
348.255
349.113
349.845
350.215
350.292
350.096
349.244
348.387
347.301
346.289
345.506
345.15
344.927
345.108
340.331
339.999
339.584
339.499
339.835
340.273
340.817
341.548
342.221
342.495
342.56
342.41
341.689
340.993
340.067
339.254
338.591
338.288
338.102
338.279
332.999
332.739
332.414
332.339
332.622
332.967
333.392
333.984
334.59
334.768
334.829
334.74
334.123
333.56
332.811
332.169
331.636
331.393
331.244
331.386
325.673
325.467
325.23
325.156
325.382
325.649
325.982
326.439
326.938
327.031
327.091
327.047
326.561
326.109
325.537
325.087
324.643
324.463
324.36
324.483
318.345
318.204
318.042
317.978
318.126
318.326
318.578
318.893
319.258
319.303
319.338
319.314
318.995
318.649
318.247
317.954
317.612
317.498
317.436
317.528
311.026
310.93
310.837
310.817
310.88
311.021
311.168
311.352
311.568
311.59
311.607
311.597
311.435
311.196
310.959
310.79
310.57
310.512
310.492
310.522
303.702
303.662
303.634
303.62
303.646
303.695
303.749
303.815
303.881
303.877
303.884
303.879
303.838
303.761
303.681
303.615
303.537
303.518
303.51
303.54
355.964
355.413
354.854
354.713
355.149
355.629
356.39
357.296
357.925
358.469
358.487
358.153
357.408
356.416
355.254
354.062
353.295
352.823
352.593
352.788
348.488
348.036
347.591
347.426
347.821
348.238
348.874
349.694
350.226
350.714
350.729
350.436
349.813
348.954
347.987
346.978
346.295
345.905
345.729
345.892
341.02
340.651
340.296
340.161
340.486
340.859
341.379
342.077
342.539
342.944
342.963
342.679
342.2
341.47
340.67
339.844
339.25
338.936
338.809
338.936
333.571
333.264
332.999
332.882
333.136
333.448
333.876
334.445
334.844
335.161
335.171
334.939
334.565
333.967
333.341
332.661
332.156
331.92
331.836
331.933
326.103
325.886
325.687
325.598
325.769
326.016
326.378
326.786
327.139
327.366
327.37
327.193
326.901
326.441
325.989
325.456
325.028
324.877
324.831
324.873
318.657
318.514
318.362
318.287
318.412
318.588
318.848
319.148
319.412
319.555
319.539
319.453
319.213
318.879
318.608
318.217
317.899
317.8
317.769
317.785
311.219
311.128
311.026
310.98
311.066
311.161
311.32
311.523
311.665
311.745
311.743
311.699
311.534
311.325
311.182
310.964
310.743
310.69
310.674
310.69
303.76
303.735
303.699
303.684
303.704
303.738
303.797
303.869
303.902
303.937
303.931
303.921
303.867
303.786
303.752
303.673
303.605
303.572
303.58
303.58
356.914
356.374
355.788
355.715
356.118
356.495
357.225
357.91
358.454
358.845
358.908
358.684
357.981
356.922
356.017
354.875
354.178
353.733
353.632
353.888
349.328
348.879
348.382
348.311
348.689
349.001
349.613
350.222
350.682
351.04
351.09
350.91
350.33
349.41
348.649
347.652
347.061
346.712
346.618
346.864
341.718
341.364
340.967
340.898
341.233
341.522
342.012
342.515
342.924
343.216
343.245
343.101
342.657
341.847
341.221
340.39
339.874
339.63
339.551
339.747
334.138
333.848
333.56
333.475
333.756
333.997
334.383
334.822
335.15
335.371
335.408
335.269
334.96
334.269
333.786
333.108
332.667
332.501
332.443
332.591
326.554
326.32
326.133
326.059
326.286
326.471
326.732
327.113
327.358
327.523
327.589
327.454
327.234
326.668
326.341
325.803
325.444
325.318
325.286
325.374
318.987
318.789
318.689
318.645
318.794
318.93
319.099
319.358
319.563
319.655
319.739
319.632
319.473
319.058
318.845
318.471
318.203
318.112
318.083
318.144
311.413
311.27
311.232
311.198
311.299
311.386
311.487
311.625
311.78
311.81
311.865
311.797
311.702
311.449
311.334
311.113
310.936
310.889
310.866
310.899
303.817
303.782
303.761
303.746
303.79
303.817
303.841
303.898
303.946
303.963
303.983
303.953
303.928
303.84
303.801
303.731
303.666
303.649
303.647
303.659
357.885
357.269
356.804
356.709
356.957
357.406
357.883
358.558
359.14
359.266
359.269
359.033
358.462
357.527
356.704
355.623
354.987
354.683
354.513
354.796
350.157
349.642
349.262
349.159
349.423
349.781
350.175
350.785
351.288
351.4
351.401
351.23
350.734
349.937
349.226
348.3
347.765
347.541
347.397
347.631
342.443
342.017
341.726
341.628
341.852
342.154
342.491
342.994
343.429
343.523
343.529
343.382
343.002
342.311
341.711
340.943
340.509
340.335
340.201
340.4
334.734
334.413
334.16
334.091
334.24
334.518
334.795
335.166
335.587
335.635
335.637
335.514
335.214
334.655
334.19
333.562
333.195
333.068
332.963
333.109
327.025
326.791
326.58
326.529
326.647
326.861
327.058
327.331
327.697
327.725
327.729
327.649
327.423
326.982
326.643
326.138
325.855
325.759
325.689
325.783
319.29
319.164
319.001
318.984
319.058
319.201
319.332
319.521
319.797
319.83
319.809
319.765
319.615
319.289
319.076
318.708
318.481
318.438
318.379
318.434
311.575
311.521
311.405
311.416
311.453
311.535
311.595
311.724
311.895
311.923
311.892
311.873
311.79
311.572
311.487
311.251
311.117
311.085
311.038
311.074
303.886
303.86
303.818
303.815
303.839
303.865
303.882
303.933
304.005
303.987
303.979
303.975
303.948
303.872
303.858
303.77
303.73
303.723
303.7
303.714
359.005
358.356
357.825
357.724
357.765
358.214
358.612
359.189
359.526
359.777
359.674
359.4
358.858
358.138
357.37
356.519
355.856
355.524
355.529
355.821
351.159
350.596
350.149
350.052
350.086
350.489
350.83
351.327
351.659
351.884
351.776
351.52
351.062
350.469
349.85
349.098
348.541
348.246
348.252
348.515
343.285
342.816
342.47
342.379
342.407
342.734
343.023
343.441
343.749
343.964
343.827
343.643
343.243
342.776
342.288
341.609
341.154
340.936
340.928
341.116
335.433
335.051
334.771
334.678
334.715
334.991
335.198
335.56
335.814
336.046
335.879
335.74
335.392
335.026
334.658
334.098
333.743
333.583
333.559
333.693
327.585
327.267
327.068
326.985
327.004
327.235
327.359
327.644
327.889
328.073
327.939
327.841
327.55
327.247
326.991
326.554
326.282
326.17
326.145
326.225
319.705
319.486
319.324
319.296
319.283
319.467
319.545
319.761
319.939
320.075
319.979
319.915
319.707
319.481
319.309
318.995
318.792
318.719
318.711
318.759
311.814
311.715
311.602
311.62
311.589
311.673
311.735
311.863
311.984
312.057
312.013
311.978
311.84
311.705
311.623
311.433
311.298
311.255
311.249
311.27
303.953
303.94
303.89
303.891
303.875
303.914
303.938
303.98
304.025
304.036
304.033
304.021
303.978
303.921
303.898
303.831
303.788
303.781
303.761
303.781
360.043
359.382
358.933
358.761
358.733
359.059
359.452
359.676
360
360.187
360.163
359.776
359.272
358.69
358.072
357.202
356.701
356.359
356.447
356.924
352.032
351.508
351.08
350.946
350.929
351.228
351.573
351.729
352.049
352.238
352.181
351.871
351.442
350.943
350.439
349.707
349.242
348.979
349.051
349.475
344.009
343.607
343.229
343.128
343.113
343.377
343.671
343.804
344.066
344.245
344.172
343.941
343.591
343.176
342.748
342.163
341.728
341.541
341.601
341.952
336.007
335.679
335.377
335.306
335.287
335.508
335.758
335.862
336.078
336.237
336.154
335.984
335.719
335.373
335.019
334.562
334.186
334.064
334.095
334.386
328.022
327.761
327.509
327.467
327.453
327.62
327.817
327.92
328.076
328.225
328.126
328.015
327.816
327.557
327.258
326.926
326.634
326.521
326.558
326.797
320.026
319.865
319.66
319.644
319.614
319.743
319.87
319.991
320.065
320.194
320.107
320.025
319.902
319.708
319.505
319.251
319.042
318.977
319
319.16
312.026
311.947
311.8
311.801
311.782
311.839
311.922
312.03
312.053
312.136
312.096
312.032
311.962
311.848
311.742
311.559
311.436
311.39
311.431
311.519
304.028
304.006
303.965
303.954
303.946
303.964
303.995
304.039
304.041
304.072
304.057
304.034
304.013
303.974
303.943
303.868
303.831
303.814
303.83
303.873
361.108
360.4
359.833
359.603
359.487
359.741
360.141
360.261
360.601
360.734
360.665
360.349
359.885
359.17
358.763
358.121
357.511
357.337
357.459
357.867
352.921
352.343
351.875
351.678
351.571
351.78
352.137
352.224
352.526
352.654
352.619
352.367
351.965
351.339
351.043
350.465
349.952
349.817
349.897
350.252
344.755
344.269
343.886
343.753
343.664
343.823
344.12
344.178
344.438
344.583
344.545
344.357
344.001
343.5
343.248
342.758
342.338
342.237
342.282
342.591
336.594
336.226
335.902
335.82
335.748
335.865
336.111
336.145
336.375
336.512
336.463
336.322
336.039
335.633
335.444
335.03
334.677
334.615
334.644
334.911
328.471
328.173
327.928
327.876
327.831
327.913
328.096
328.109
328.327
328.442
328.362
328.256
328.067
327.751
327.591
327.277
327.004
326.961
326.986
327.192
320.34
320.137
319.955
319.935
319.893
319.939
320.061
320.064
320.245
320.344
320.275
320.163
320.055
319.841
319.736
319.49
319.314
319.282
319.307
319.438
312.232
312.106
312.001
311.982
311.963
311.957
312.056
312.039
312.15
312.22
312.186
312.105
312.045
311.921
311.873
311.704
311.612
311.581
311.601
311.698
304.104
304.057
304.021
304.02
304.017
304.004
304.035
304.036
304.079
304.104
304.09
304.062
304.049
303.995
303.982
303.928
303.898
303.887
303.887
303.912
361.866
361.191
360.591
360.201
360.212
360.363
360.608
360.719
361.02
361.174
361.128
360.773
360.417
359.831
359.293
358.831
358.265
358.056
358.242
358.668
353.555
352.991
352.476
352.139
352.153
352.299
352.541
352.605
352.877
353.022
353.005
352.707
352.379
351.885
351.456
351.06
350.57
350.41
350.544
350.938
345.281
344.823
344.379
344.086
344.08
344.247
344.471
344.469
344.727
344.863
344.856
344.616
344.33
343.916
343.58
343.256
342.869
342.724
342.83
343.162
336.998
336.664
336.301
336.063
336.035
336.179
336.381
336.351
336.57
336.721
336.714
336.498
336.284
335.942
335.679
335.438
335.116
335.004
335.065
335.334
328.753
328.533
328.239
328.029
328.013
328.138
328.296
328.253
328.432
328.577
328.565
328.401
328.22
327.968
327.744
327.579
327.313
327.269
327.292
327.474
320.528
320.397
320.174
320.032
320
320.11
320.226
320.167
320.31
320.436
320.428
320.31
320.171
319.983
319.815
319.714
319.516
319.492
319.524
319.635
312.325
312.258
312.112
312.027
312.009
312.075
312.13
312.105
312.187
312.281
312.285
312.206
312.132
311.997
311.894
311.85
311.729
311.725
311.739
311.804
304.134
304.112
304.062
304.033
304.024
304.045
304.062
304.056
304.087
304.11
304.117
304.089
304.068
304.025
303.985
303.969
303.938
303.942
303.928
303.961
)
;

boundaryField
{
    hotSide
    {
        type            fixedGradient;
        gradient        nonuniform List<scalar> 
400
(
508.131
506.535
507.208
510.076
514.894
521.314
528.967
537.519
546.701
556.309
566.202
576.295
586.551
596.976
607.616
618.549
629.879
641.712
654.134
667.186
493.699
492.417
493.558
497.032
502.538
509.662
517.976
527.109
536.767
546.736
556.873
567.094
577.372
587.722
598.206
608.924
620.005
631.584
643.773
656.625
486.083
485.39
487.08
491.049
496.993
504.496
513.126
522.505
532.334
542.392
552.536
562.684
572.812
582.946
593.158
603.558
614.285
625.484
637.274
649.718
484.802
484.961
487.294
491.69
497.879
505.495
514.148
523.483
533.208
543.104
553.027
562.896
572.694
582.454
592.255
602.212
612.46
623.137
634.359
646.192
488.122
489.304
492.4
497.287
503.73
511.417
520.008
529.18
538.659
548.233
557.761
567.169
576.451
585.652
594.859
604.194
613.788
623.773
634.257
645.313
494.048
496.345
500.333
505.873
512.739
520.65
529.294
538.368
547.607
556.808
565.837
574.638
583.224
591.664
600.069
608.573
617.318
626.434
636.033
646.194
500.871
504.32
509.313
515.687
523.208
531.589
540.514
549.672
558.785
567.646
576.132
584.214
591.943
599.432
606.834
614.316
622.039
630.15
638.765
647.971
507.201
511.778
517.833
525.18
533.564
542.667
552.135
561.606
570.761
579.367
587.306
594.588
601.33
607.717
613.968
620.299
626.906
633.953
641.565
649.831
511.868
517.447
524.513
532.865
542.219
552.216
562.435
572.431
581.801
590.256
597.678
604.132
609.829
615.058
620.123
625.302
630.825
636.873
643.574
651.018
513.883
520.202
528.066
537.266
547.501
558.37
569.382
579.991
589.685
598.094
605.09
610.808
615.571
619.782
623.834
628.06
632.716
637.992
644.016
650.87
512.522
519.17
527.431
537.095
547.853
559.277
570.829
581.892
591.864
600.31
607.092
612.394
616.622
620.26
623.756
627.474
631.687
636.587
642.3
648.903
507.464
513.936
522.07
531.655
542.377
553.801
565.383
576.5
586.549
595.094
601.991
607.415
611.767
615.524
619.133
622.963
627.291
632.312
638.16
644.912
498.919
504.72
512.22
521.208
531.367
542.274
553.413
564.22
574.166
582.872
590.195
596.249
601.343
605.871
610.226
614.752
619.722
625.341
631.751
639.04
487.65
492.394
498.903
506.971
516.287
526.443
536.967
547.368
557.203
566.153
574.072
581.007
587.156
592.804
598.269
603.852
609.813
616.362
623.652
631.782
474.909
478.363
483.721
490.787
499.253
508.72
518.739
528.865
538.709
547.984
556.542
564.374
571.591
578.395
585.032
591.762
598.831
606.451
614.783
623.935
462.393
464.473
468.678
474.832
482.613
491.602
501.337
511.382
521.363
531.008
540.159
548.774
556.912
564.715
572.385
580.153
588.259
596.92
606.309
616.535
452.261
453.01
456.16
461.551
468.829
477.522
487.13
497.197
507.351
517.323
526.95
536.172
545.018
553.598
562.082
570.688
579.658
589.224
599.574
610.815
447.033
446.63
448.858
453.569
460.378
468.764
478.191
488.189
498.388
508.525
518.439
528.06
537.399
546.544
555.643
564.903
574.564
584.872
596.023
608.122
448.921
447.678
449.11
453.091
459.244
467.057
476.01
485.645
495.61
505.65
515.607
525.405
535.044
544.589
554.169
563.967
574.208
585.121
596.894
609.617
458.651
456.912
457.668
460.82
466.06
472.961
481.074
489.996
499.404
509.061
518.813
528.578
538.341
548.149
558.104
568.355
579.084
590.478
602.685
615.774
)
;
    }
    coldSide
    {
        type            mixed;
        refValue        uniform 300;
        refGradient     uniform 0;
        valueFraction   uniform 0.991591;
        source          uniform 0;
        value           nonuniform List<scalar> 
400
(
300.027
300.027
300.027
300.027
300.027
300.027
300.028
300.028
300.029
300.029
300.03
300.031
300.031
300.032
300.032
300.033
300.033
300.034
300.035
300.035
300.026
300.026
300.026
300.027
300.027
300.027
300.028
300.028
300.029
300.029
300.03
300.03
300.031
300.031
300.032
300.032
300.033