/*--------------------------------*- C++ -*----------------------------------*\
| =========                 |                                                 |
| \\      /  F ield         | OpenFOAM: The Open Source CFD Toolbox           |
|  \\    /   O peration     | Version:  2212                                  |
|   \\  /    A nd           | Website:  www.openfoam.com                      |
|    \\/     M anipulation  |                                                 |
\*---------------------------------------------------------------------------*/
FoamFile
{
    version     2.0;
    format      ascii;
    arch        "LSB;label=32;scalar=64";
    class       volScalarField;
    location    "0";
    object      Ttrue;
}
// * * * * * * * * * * * * * * * * * * * * * * * * * * * * * * * * * * * * * //

dimensions      [0 0 0 1 0 0 0];

internalField   nonuniform List<scalar> 
3200
(
318.9
319.27
319.741
320.255
320.785
321.304
321.784
322.188
322.483
322.639
322.639
322.483
322.188
321.784
321.304
320.785
320.255
319.741
319.27
318.9
316.422
316.735
317.142
317.586
318.044
318.494
318.908
319.258
319.513
319.647
319.647
319.513
319.258
318.908
318.494
318.044
317.586
317.142
316.735
316.422
313.927
314.186
314.529
314.905
315.292
315.671
316.021
316.317
316.531
316.645
316.645
316.531
316.317
316.021
315.671
315.292
314.905
314.529
314.186
313.927
311.417
311.626
311.905
312.212
312.529
312.839
313.125
313.366
313.541
313.634
313.634
313.541
313.366
313.125
312.839
312.529
312.212
311.905
311.626
311.417
308.895
309.055
309.272
309.511
309.757
309.998
310.22
310.407
310.543
310.615
310.615
310.543
310.407
310.22
309.998
309.757
309.511
309.272
309.055
308.895
306.364
306.477
306.631
306.802
306.977
307.15
307.308
307.442
307.539
307.59
307.59
307.539
307.442
307.308
307.15
306.977
306.802
306.631
306.477
306.364
303.825
303.893
303.986
304.088
304.193
304.297
304.392
304.472
304.53
304.561
304.561
304.53
304.472
304.392
304.297
304.193
304.088
303.986
303.893
303.825
301.283
301.305
301.336
301.371
301.406
301.441
301.473
301.499
301.519
301.529
301.529
301.519
301.499
301.473
301.441
301.406
301.371
301.336
301.305
301.283
318.952
319.318
319.786
320.295
320.819
321.333
321.806
322.206
322.497
322.651
322.651
322.497
322.206
321.806
321.333
320.819
320.295
319.786
319.318
318.952
316.467
316.777
317.18
317.621
318.074
318.518
318.928
319.274
319.525
319.658
319.658
319.525
319.274
318.928
318.518
318.074
317.621
317.18
316.777
316.467
313.965
314.222
314.562
314.934
315.317
315.692
316.038
316.33
316.542
316.654
316.654
316.542
316.33
316.038
315.692
315.317
314.934
314.562
314.222
313.965
311.448
311.655
311.932
312.236
312.549
312.856
313.139
313.377
313.55
313.641
313.641
313.55
313.377
313.139
312.856
312.549
312.236
311.932
311.655
311.448
308.919
309.078
309.293
309.529
309.773
310.011
310.231
310.416
310.55
310.621
310.621
310.55
310.416
310.231
310.011
309.773
309.529
309.293
309.078
308.919
306.381
306.493
306.646
306.815
306.989
307.159
307.316
307.448
307.544
307.595
307.595
307.544
307.448
307.316
307.159
306.989
306.815
306.646
306.493
306.381
303.836
303.903
303.995
304.096
304.2
304.302
304.397
304.476
304.533
304.564
304.564
304.533
304.476
304.397
304.302
304.2
304.096
303.995
303.903
303.836
301.286
301.309
301.339
301.373
301.408
301.443
301.474
301.501
301.52
301.53
301.53
301.52
301.501
301.474
301.443
301.408
301.373
301.339
301.309
301.286
319.055
319.415
319.875
320.375
320.888
321.391
321.854
322.244
322.527
322.677
322.677
322.527
322.244
321.854
321.391
320.888
320.375
319.875
319.415
319.055
316.556
316.861
317.258
317.69
318.134
318.569
318.97
319.307
319.552
319.681
319.681
319.552
319.307
318.97
318.569
318.134
317.69
317.258
316.861
316.556
314.04
314.293
314.627
314.993
315.368
315.736
316.074
316.358
316.565
316.674
316.674
316.565
316.358
316.074
315.736
315.368
314.993
314.627
314.293
314.04
311.51
311.714
311.986
312.284
312.591
312.892
313.168
313.4
313.569
313.658
313.658
313.569
313.4
313.168
312.892
312.591
312.284
311.986
311.714
311.51
308.967
309.124
309.335
309.567
309.806
310.039
310.254
310.434
310.565
310.634
310.634
310.565
310.434
310.254
310.039
309.806
309.567
309.335
309.124
308.967
306.415
306.526
306.677
306.842
307.013
307.179
307.332
307.461
307.555
307.604
307.604
307.555
307.461
307.332
307.179
307.013
306.842
306.677
306.526
306.415
303.856
303.922
304.013
304.112
304.214
304.314
304.406
304.484
304.54
304.569
304.569
304.54
304.484
304.406
304.314
304.214
304.112
304.013
303.922
303.856
301.293
301.315
301.345
301.379
301.413
301.447
301.477
301.503
301.522
301.532
301.532
301.522
301.503
301.477
301.447
301.413
301.379
301.345
301.315
301.293
319.21
319.562
320.01
320.497
320.995
321.481
321.929
322.305
322.578
322.721
322.721
322.578
322.305
321.929
321.481
320.995
320.497
320.01
319.562
319.21
316.691
316.989
317.375
317.796
318.227
318.648
319.035
319.36
319.596
319.72
319.72
319.596
319.36
319.035
318.648
318.227
317.796
317.375
316.989
316.691
314.154
314.402
314.727
315.083
315.447
315.803
316.13
316.404
316.603
316.708
316.708
316.603
316.404
316.13
315.803
315.447
315.083
314.727
314.402
314.154
311.603
311.802
312.068
312.358
312.656
312.947
313.214
313.438
313.6
313.686
313.686
313.6
313.438
313.214
312.947
312.656
312.358
312.068
311.802
311.603
309.04
309.193
309.399
309.624
309.856
310.082
310.289
310.464
310.59
310.656
310.656
310.59
310.464
310.289
310.082
309.856
309.624
309.399
309.193
309.04
306.467
306.575
306.722
306.883
307.049
307.21
307.358
307.482
307.572
307.62
307.62
307.572
307.482
307.358
307.21
307.049
306.883
306.722
306.575
306.467
303.887
303.952
304.04
304.137
304.236
304.333
304.422
304.496
304.551
304.579
304.579
304.551
304.496
304.422
304.333
304.236
304.137
304.04
303.952
303.887
301.304
301.325
301.355
301.387
301.42
301.453
301.483
301.508
301.526
301.535
301.535
301.526
301.508
301.483
301.453
301.42
301.387
301.355
301.325
301.304
319.419
319.761
320.194
320.663
321.142
321.608
322.035
322.394
322.654
322.79
322.79
322.654
322.394
322.035
321.608
321.142
320.663
320.194
319.761
319.419
316.872
317.161
317.535
317.94
318.355
318.759
319.128
319.438
319.663
319.781
319.781
319.663
319.438
319.128
318.759
318.355
317.94
317.535
317.161
316.872
314.308
314.548
314.863
315.205
315.556
315.897
316.209
316.471
316.66
316.76
316.76
316.66
316.471
316.209
315.897
315.556
315.205
314.863
314.548
314.308
311.729
311.922
312.179
312.459
312.745
313.024
313.279
313.493
313.648
313.729
313.729
313.648
313.493
313.279
313.024
312.745
312.459
312.179
311.922
311.729
309.138
309.286
309.485
309.703
309.926
310.142
310.341
310.507
310.627
310.69
310.69
310.627
310.507
310.341
310.142
309.926
309.703
309.485
309.286
309.138
306.537
306.642
306.784
306.939
307.099
307.253
307.395
307.513
307.599
307.644
307.644
307.599
307.513
307.395
307.253
307.099
306.939
306.784
306.642
306.537
303.93
303.992
304.077
304.171
304.266
304.359
304.444
304.515
304.567
304.594
304.594
304.567
304.515
304.444
304.359
304.266
304.171
304.077
303.992
303.93
301.318
301.339
301.367
301.398
301.43
301.462
301.49
301.514
301.531
301.54
301.54
301.531
301.514
301.49
301.462
301.43
301.398
301.367
301.339
301.318
319.683
320.012
320.428
320.876
321.332
321.775
322.18
322.518
322.762
322.891
322.891
322.762
322.518
322.18
321.775
321.332
320.876
320.428
320.012
319.683
317.101
317.379
317.738
318.126
318.521
318.904
319.254
319.546
319.758
319.869
319.869
319.758
319.546
319.254
318.904
318.521
318.126
317.738
317.379
317.101
314.502
314.733
315.035
315.363
315.697
316.021
316.316
316.563
316.742
316.835
316.835
316.742
316.563
316.316
316.021
315.697
315.363
315.035
314.733
314.502
311.888
312.073
312.32
312.588
312.861
313.126
313.367
313.569
313.715
313.791
313.791
313.715
313.569
313.367
313.126
312.861
312.588
312.32
312.073
311.888
309.261
309.404
309.595
309.803
310.016
310.222
310.409
310.566
310.679
310.739
310.739
310.679
310.566
310.409
310.222
310.016
309.803
309.595
309.404
309.261
306.625
306.726
306.863
307.011
307.163
307.31
307.444
307.556
307.637
307.679
307.679
307.637
307.556
307.444
307.31
307.163
307.011
306.863
306.726
306.625
303.983
304.043
304.125
304.214
304.305
304.393
304.474
304.541
304.589
304.615
304.615
304.589
304.541
304.474
304.393
304.305
304.214
304.125
304.043
303.983
301.335
301.356
301.383
301.413
301.443
301.473
301.5
301.523
301.539
301.547
301.547
301.539
301.523
301.5
301.473
301.443
301.413
301.383
301.356
301.335
320.004
320.318
320.714
321.139
321.571
321.988
322.367
322.683
322.91
323.03
323.03
322.91
322.683
322.367
321.988
321.571
321.139
320.714
320.318
320.004
317.379
317.645
317.987
318.355
318.728
319.089
319.417
319.691
319.888
319.991
319.991
319.888
319.691
319.417
319.089
318.728
318.355
317.987
317.645
317.379
314.737
314.958
315.246
315.557
315.873
316.178
316.455
316.686
316.852
316.94
316.94
316.852
316.686
316.455
316.178
315.873
315.557
315.246
314.958
314.737
312.08
312.258
312.493
312.747
313.005
313.255
313.481
313.67
313.806
313.877
313.877
313.806
313.67
313.481
313.255
313.005
312.747
312.493
312.258
312.08
309.411
309.548
309.73
309.928
310.128
310.322
310.498
310.645
310.751
310.806
310.806
310.751
310.645
310.498
310.322
310.128
309.928
309.73
309.548
309.411
306.733
306.829
306.959
307.1
307.244
307.382
307.508
307.613
307.688
307.728
307.728
307.688
307.613
307.508
307.382
307.244
307.1
306.959
306.829
306.733
304.047
304.105
304.182
304.267
304.353
304.437
304.512
304.575
304.62
304.644
304.644
304.62
304.575
304.512
304.437
304.353
304.267
304.182
304.105
304.047
301.357
301.376
301.402
301.431
301.46
301.488
301.513
301.534
301.549
301.557
301.557
301.549
301.534
301.513
301.488
301.46
301.431
301.402
301.376
301.357
320.382
320.681
321.056
321.457
321.861
322.251
322.603
322.896
323.106
323.216
323.216
323.106
322.896
322.603
322.251
321.861
321.457
321.056
320.681
320.382
317.707
317.96
318.284
318.631
318.981
319.318
319.623
319.876
320.058
320.154
320.154
320.058
319.876
319.623
319.318
318.981
318.631
318.284
317.96
317.707
315.015
315.225
315.497
315.791
316.087
316.372
316.63
316.844
316.998
317.078
317.078
316.998
316.844
316.63
316.372
316.087
315.791
315.497
315.225
315.015
312.308
312.477
312.699
312.939
313.181
313.414
313.625
313.8
313.926
313.991
313.991
313.926
313.8
313.625
313.414
313.181
312.939
312.699
312.477
312.308
309.589
309.718
309.891
310.077
310.265
310.447
310.611
310.746
310.844
310.895
310.895
310.844
310.746
310.611
310.447
310.265
310.077
309.891
309.718
309.589
306.859
306.951
307.074
307.207
307.342
307.471
307.588
307.685
307.755
307.792
307.792
307.755
307.685
307.588
307.471
307.342
307.207
307.074
306.951
306.859
304.123
304.178
304.252
304.331
304.412
304.49
304.56
304.619
304.66
304.682
304.682
304.66
304.619
304.56
304.49
304.412
304.331
304.252
304.178
304.123
301.383
301.401
301.426
301.452
301.479
301.506
301.529
301.549
301.563
301.57
301.57
301.563
301.549
301.529
301.506
301.479
301.452
301.426
301.401
301.383
320.821
321.103
321.456
321.831
322.208
322.569
322.894
323.163
323.356
323.457
323.457
323.356
323.163
322.894
322.569
322.208
321.831
321.456
321.103
320.821
318.088
318.326
318.631
318.956
319.282
319.595
319.876
320.109
320.276
320.364
320.364
320.276
320.109
319.876
319.595
319.282
318.956
318.631
318.326
318.088
315.337
315.535
315.792
316.066
316.343
316.607
316.845
317.042
317.183
317.257
317.257
317.183
317.042
316.845
316.607
316.343
316.066
315.792
315.535
315.337
312.572
312.731
312.94
313.165
313.391
313.607
313.802
313.963
314.078
314.138
314.138
314.078
313.963
313.802
313.607
313.391
313.165
312.94
312.731
312.572
309.794
309.916
310.078
310.253
310.429
310.597
310.748
310.873
310.963
311.01
311.01
310.963
310.873
310.748
310.597
310.429
310.253
310.078
309.916
309.794
307.006
307.093
307.208
307.333
307.459
307.579
307.687
307.776
307.84
307.874
307.874
307.84
307.776
307.687
307.579
307.459
307.333
307.208
307.093
307.006
304.211
304.263
304.332
304.407
304.483
304.555
304.62
304.673
304.712
304.732
304.732
304.712
304.673
304.62
304.555
304.483
304.407
304.332
304.263
304.211
301.412
301.429
301.453
301.478
301.503
301.527
301.549
301.567
301.58
301.587
301.587
301.58
301.567
301.549
301.527
301.503
301.478
301.453
301.429
301.412
321.321
321.586
321.916
322.265
322.614
322.947
323.245
323.491
323.667
323.758
323.758
323.667
323.491
323.245
322.947
322.614
322.265
321.916
321.586
321.321
318.522
318.746
319.03
319.333
319.636
319.924
320.182
320.395
320.547
320.626
320.626
320.547
320.395
320.182
319.924
319.636
319.333
319.03
318.746
318.522
315.705
315.891
316.131
316.386
316.642
316.886
317.104
317.284
317.413
317.48
317.48
317.413
317.284
317.104
316.886
316.642
316.386
316.131
315.891
315.705
312.873
313.022
313.218
313.427
313.637
313.836
314.015
314.162
314.267
314.321
314.321
314.267
314.162
314.015
313.836
313.637
313.427
313.218
313.022
312.873
310.028
310.143
310.295
310.457
310.62
310.775
310.914
311.029
311.11
311.153
311.153
311.11
311.029
310.914
310.775
310.62
310.457
310.295
310.143
310.028
307.174
307.255
307.363
307.479
307.596
307.706
307.806
307.887
307.946
307.976
307.976
307.946
307.887
307.806
307.706
307.596
307.479
307.363
307.255
307.174
304.312
304.36
304.425
304.495
304.565
304.631
304.691
304.74
304.775
304.793
304.793
304.775
304.74
304.691
304.631
304.565
304.495
304.425
304.36
304.312
301.446
301.462
301.484
301.507
301.531
301.553
301.573
301.589
301.601
301.607
301.607
301.601
301.589
301.573
301.553
301.531
301.507
301.484
301.462
301.446
321.884
322.132
322.439
322.763
323.085
323.389
323.661
323.885
324.044
324.126
324.126
324.044
323.885
323.661
323.389
323.085
322.763
322.439
322.132
321.884
319.01
319.22
319.485
319.765
320.044
320.308
320.544
320.737
320.875
320.946
320.946
320.875
320.737
320.544
320.308
320.044
319.765
319.485
319.22
319.01
316.119
316.292
316.516
316.753
316.989
317.212
317.411
317.575
317.691
317.752
317.752
317.691
317.575
317.411
317.212
316.989
316.753
316.516
316.292
316.119
313.212
313.352
313.534
313.728
313.92
314.103
314.266
314.4
314.495
314.545
314.545
314.495
314.4
314.266
314.103
313.92
313.728
313.534
313.352
313.212
310.292
310.399
310.541
310.691
310.841
310.984
311.11
311.214
311.288
311.327
311.327
311.288
311.214
311.11
310.984
310.841
310.691
310.541
310.399
310.292
307.362
307.438
307.539
307.647
307.754
307.855
307.946
308.02
308.073
308.101
308.101
308.073
308.02
307.946
307.855
307.754
307.647
307.539
307.438
307.362
304.425
304.471
304.531
304.596
304.66
304.721
304.776
304.82
304.852
304.868
304.868
304.852
304.82
304.776
304.721
304.66
304.596
304.531
304.471
304.425
301.484
301.499
301.519
301.541
301.563
301.583
301.601
301.616
301.627
301.632
301.632
301.627
301.616
301.601
301.583
301.563
301.541
301.519
301.499
301.484
322.512
322.743
323.028
323.326
323.621
323.899
324.146
324.348
324.491
324.566
324.566
324.491
324.348
324.146
323.899
323.621
323.326
323.028
322.743
322.512
319.555
319.75
319.996
320.255
320.51
320.751
320.965
321.14
321.264
321.328
321.328
321.264
321.14
320.965
320.751
320.51
320.255
319.996
319.75
319.555
316.58
316.742
316.949
317.168
317.384
317.588
317.769
317.917
318.022
318.076
318.076
318.022
317.917
317.769
317.588
317.384
317.168
316.949
316.742
316.58
313.59
313.72
313.889
314.067
314.244
314.411
314.559
314.68
314.766
314.811
314.811
314.766
314.68
314.559
314.411
314.244
314.067
313.889
313.72
313.59
310.586
310.686
310.817
310.956
311.094
311.224
311.339
311.433
311.5
311.534
311.534
311.5
311.433
311.339
311.224
311.094
310.956
310.817
310.686
310.586
307.573
307.643
307.737
307.836
307.934
308.027
308.109
308.177
308.224
308.249
308.249
308.224
308.177
308.109
308.027
307.934
307.836
307.737
307.643
307.573
304.552
304.594
304.65
304.71
304.769
304.824
304.874
304.914
304.943
304.958
304.958
304.943
304.914
304.874
304.824
304.769
304.71
304.65
304.594
304.552
301.526
301.54
301.559
301.579
301.599
301.618
301.634
301.648
301.657
301.662
301.662
301.657
301.648
301.634
301.618
301.599
301.579
301.559
301.54
301.526
323.206
323.42
323.684
323.958
324.227
324.48
324.703
324.885
325.013
325.08
325.08
325.013
324.885
324.703
324.48
324.227
323.958
323.684
323.42
323.206
320.157
320.338
320.565
320.803
321.036
321.255
321.449
321.606
321.718
321.775
321.775
321.718
321.606
321.449
321.255
321.036
320.803
320.565
320.338
320.157
317.09
317.24
317.431
317.632
317.83
318.015
318.179
318.312
318.406
318.455
318.455
318.406
318.312
318.179
318.015
317.83
317.632
317.431
317.24
317.09
314.007
314.128
314.284
314.448
314.61
314.762
314.896
315.005
315.082
315.122
315.122
315.082
315.005
314.896
314.762
314.61
314.448
314.284
314.128
314.007
310.911
311.004
311.125
311.253
311.379
311.497
311.601
311.686
311.746
311.777
311.777
311.746
311.686
311.601
311.497
311.379
311.253
311.125
311.004
310.911
307.805
307.871
307.957
308.048
308.138
308.222
308.297
308.357
308.4
308.423
308.423
308.4
308.357
308.297
308.222
308.138
308.048
307.957
307.871
307.805
304.691
304.73
304.782
304.837
304.891
304.942
304.986
305.023
305.049
305.062
305.062
305.049
305.023
304.986
304.942
304.891
304.837
304.782
304.73
304.691
301.573
301.586
301.604
301.622
301.64
301.657
301.672
301.684
301.693
301.697
301.697
301.693
301.684
301.672
301.657
301.64
301.622
301.604
301.586
301.573
323.967
324.165
324.407
324.658
324.904
325.132
325.334
325.497
325.612
325.671
325.671
325.612
325.497
325.334
325.132
324.904
324.658
324.407
324.165
323.967
320.817
320.984
321.193
321.411
321.624
321.822
321.996
322.138
322.238
322.289
322.289
322.238
322.138
321.996
321.822
321.624
321.411
321.193
320.984
320.817
317.649
317.788
317.964
318.148
318.328
318.496
318.643
318.763
318.847
318.891
318.891
318.847
318.763
318.643
318.496
318.328
318.148
317.964
317.788
317.649
314.465
314.576
314.72
314.87
315.018
315.155
315.276
315.374
315.443
315.479
315.479
315.443
315.374
315.276
315.155
315.018
314.87
314.72
314.576
314.465
311.267
311.353
311.464
311.581
311.696
311.803
311.897
311.973
312.027
312.055
312.055
312.027
311.973
311.897
311.803
311.696
311.581
311.464
311.353
311.267
308.06
308.12
308.2
308.283
308.365
308.442
308.509
308.563
308.602
308.622
308.622
308.602
308.563
308.509
308.442
308.365
308.283
308.2
308.12
308.06
304.844
304.88
304.928
304.978
305.028
305.073
305.114
305.146
305.17
305.181
305.181
305.17
305.146
305.114
305.073
305.028
304.978
304.928
304.88
304.844
301.624
301.636
301.652
301.669
301.686
301.701
301.715
301.726
301.733
301.737
301.737
301.733
301.726
301.715
301.701
301.686
301.669
301.652
301.636
301.624
324.794
324.976
325.198
325.428
325.651
325.857
326.039
326.185
326.287
326.341
326.341
326.287
326.185
326.039
325.857
325.651
325.428
325.198
324.976
324.794
321.534
321.688
321.88
322.079
322.272
322.451
322.608
322.735
322.824
322.87
322.87
322.824
322.735
322.608
322.451
322.272
322.079
321.88
321.688
321.534
318.256
318.384
318.545
318.713
318.877
319.029
319.162
319.269
319.344
319.383
319.383
319.344
319.269
319.162
319.029
318.877
318.713
318.545
318.384
318.256
314.961
315.064
315.196
315.334
315.468
315.592
315.701
315.788
315.85
315.882
315.882
315.85
315.788
315.701
315.592
315.468
315.334
315.196
315.064
314.961
311.654
311.733
311.835
311.942
312.046
312.143
312.228
312.296
312.344
312.369
312.369
312.344
312.296
312.228
312.143
312.046
311.942
311.835
311.733
311.654
308.336
308.392
308.465
308.541
308.616
308.685
308.745
308.794
308.828
308.846
308.846
308.828
308.794
308.745
308.685
308.616
308.541
308.465
308.392
308.336
305.01
305.044
305.087
305.133
305.178
305.219
305.256
305.285
305.306
305.316
305.316
305.306
305.285
305.256
305.219
305.178
305.133
305.087
305.044
305.01
301.68
301.691
301.706
301.721
301.736
301.75
301.762
301.772
301.779
301.783
301.783
301.779
301.772
301.762
301.75
301.736
301.721
301.706
301.691
301.68
325.683
325.851
326.055
326.264
326.466
326.652
326.815
326.946
327.038
327.085
327.085
327.038
326.946
326.815
326.652
326.466
326.264
326.055
325.851
325.683
322.304
322.446
322.622
322.803
322.979
323.14
323.282
323.395
323.474
323.515
323.515
323.474
323.395
323.282
323.14
322.979
322.803
322.622
322.446
322.304
318.907
319.025
319.173
319.327
319.475
319.612
319.731
319.828
319.895
319.93
319.93
319.895
319.828
319.731
319.612
319.475
319.327
319.173
319.025
318.907
315.495
315.589
315.71
315.836
315.957
316.069
316.167
316.246
316.301
316.329
316.329
316.301
316.246
316.167
316.069
315.957
315.836
315.71
315.589
315.495
312.069
312.141
312.235
312.333
312.427
312.515
312.591
312.652
312.695
312.717
312.717
312.695
312.652
312.591
312.515
312.427
312.333
312.235
312.141
312.069
308.632
308.684
308.751
308.82
308.888
308.95
309.005
309.048
309.079
309.095
309.095
309.079
309.048
309.005
308.95
308.888
308.82
308.751
308.684
308.632
305.188
305.219
305.259
305.301
305.341
305.379
305.412
305.438
305.456
305.466
305.466
305.456
305.438
305.412
305.379
305.341
305.301
305.259
305.219
305.188
301.74
301.75
301.763
301.777
301.791
301.804
301.815
301.823
301.83
301.833
301.833
301.83
301.823
301.815
301.804
301.791
301.777
301.763
301.75
301.74
326.625
326.78
326.966
327.157
327.34
327.508
327.654
327.771
327.853
327.895
327.895
327.853
327.771
327.654
327.508
327.34
327.157
326.966
326.78
326.625
323.119
323.25
323.411
323.576
323.735
323.881
324.008
324.109
324.18
324.217
324.217
324.18
324.109
324.008
323.881
323.735
323.576
323.411
323.25
323.119
319.596
319.704
319.84
319.979
320.114
320.238
320.345
320.431
320.491
320.522
320.522
320.491
320.431
320.345
320.238
320.114
319.979
319.84
319.704
319.596
316.057
316.144
316.255
316.369
316.479
316.58
316.668
316.739
316.788
316.813
316.813
316.788
316.739
316.668
316.58
316.479
316.369
316.255
316.144
316.057
312.505
312.572
312.658
312.747
312.833
312.912
312.98
313.035
313.073
313.093
313.093
313.073
313.035
312.98
312.912
312.833
312.747
312.658
312.572
312.505
308.944
308.991
309.053
309.116
309.177
309.234
309.283
309.322
309.349
309.363
309.363
309.349
309.322
309.283
309.234
309.177
309.116
309.053
308.991
308.944
305.375
305.404
305.44
305.478
305.515
305.549
305.579
305.602
305.619
305.627
305.627
305.619
305.602
305.579
305.549
305.515
305.478
305.44
305.404
305.375
301.802
301.812
301.824
301.837
301.849
301.861
301.87
301.878
301.884
301.887
301.887
301.884
301.878
301.87
301.861
301.849
301.837
301.824
301.812
301.802
327.596
327.738
327.908
328.082
328.249
328.401
328.532
328.637
328.711
328.748
328.748
328.711
328.637
328.532
328.401
328.249
328.082
327.908
327.738
327.596
323.954
324.075
324.222
324.373
324.517
324.649
324.764
324.855
324.918
324.951
324.951
324.918
324.855
324.764
324.649
324.517
324.373
324.222
324.075
323.954
320.298
320.398
320.522
320.65
320.772
320.884
320.981
321.058
321.112
321.14
321.14
321.112
321.058
320.981
320.884
320.772
320.65
320.522
320.398
320.298
316.629
316.709
316.81
316.915
317.015
317.107
317.186
317.249
317.293
317.316
317.316
317.293
317.249
317.186
317.107
317.015
316.915
316.81
316.709
316.629
312.948
313.01
313.089
313.17
313.248
313.319
313.381
313.43
313.465
313.482
313.482
313.465
313.43
313.381
313.319
313.248
313.17
313.089
313.01
312.948
309.259
309.303
309.359
309.417
309.473
309.524
309.568
309.604
309.628
309.641
309.641
309.628
309.604
309.568
309.524
309.473
309.417
309.359
309.303
309.259
305.564
305.59
305.624
305.659
305.693
305.723
305.75
305.771
305.786
305.793
305.793
305.786
305.771
305.75
305.723
305.693
305.659
305.624
305.59
305.564
301.866
301.874
301.886
301.897
301.909
301.919
301.928
301.935
301.94
301.942
301.942
301.94
301.935
301.928
301.919
301.909
301.897
301.886
301.874
301.866
328.53
328.662
328.819
328.979
329.131
329.27
329.389
329.484
329.55
329.584
329.584
329.55
329.484
329.389
329.27
329.131
328.979
328.819
328.662
328.53
324.749
324.86
324.997
325.135
325.267
325.388
325.492
325.575
325.632
325.662
325.662
325.632
325.575
325.492
325.388
325.267
325.135
324.997
324.86
324.749
320.959
321.051
321.166
321.284
321.396
321.498
321.587
321.657
321.706
321.731
321.731
321.706
321.657
321.587
321.498
321.396
321.284
321.166
321.051
320.959
317.162
317.236
317.33
317.426
317.518
317.602
317.674
317.732
317.772
317.793
317.793
317.772
317.732
317.674
317.602
317.518
317.426
317.33
317.236
317.162
313.358
313.415
313.488
313.563
313.635
313.7
313.756
313.801
313.833
313.849
313.849
313.833
313.801
313.756
313.7
313.635
313.563
313.488
313.415
313.358
309.55
309.59
309.642
309.696
309.747
309.794
309.834
309.866
309.889
309.9
309.9
309.889
309.866
309.834
309.794
309.747
309.696
309.642
309.59
309.55
305.738
305.762
305.793
305.825
305.856
305.884
305.908
305.928
305.941
305.948
305.948
305.941
305.928
305.908
305.884
305.856
305.825
305.793
305.762
305.738
301.924
301.932
301.942
301.953
301.963
301.973
301.981
301.987
301.992
301.994
301.994
301.992
301.987
301.981
301.973
301.963
301.953
301.942
301.932
301.924
329.263
329.387
329.535
329.685
329.827
329.956
330.068
330.156
330.217
330.249
330.249
330.217
330.156
330.068
329.956
329.827
329.685
329.535
329.387
329.263
325.349
325.454
325.582
325.712
325.837
325.95
326.046
326.123
326.177
326.204
326.204
326.177
326.123
326.046
325.95
325.837
325.712
325.582
325.454
325.349
321.442
321.53
321.639
321.749
321.855
321.951
322.033
322.099
322.145
322.168
322.168
322.145
322.099
322.033
321.951
321.855
321.749
321.639
321.53
321.442
317.542
317.612
317.701
317.792
317.879
317.958
318.026
318.08
318.117
318.136
318.136
318.117
318.08
318.026
317.958
317.879
317.792
317.701
317.612
317.542
313.645
313.699
313.768
313.839
313.907
313.968
314.021
314.063
314.093
314.108
314.108
314.093
314.063
314.021
313.968
313.907
313.839
313.768
313.699
313.645
309.75
309.788
309.838
309.888
309.937
309.981
310.019
310.049
310.07
310.081
310.081
310.07
310.049
310.019
309.981
309.937
309.888
309.838
309.788
309.75
305.856
305.879
305.909
305.939
305.968
305.995
306.018
306.036
306.049
306.055
306.055
306.049
306.036
306.018
305.995
305.968
305.939
305.909
305.879
305.856
301.963
301.971
301.981
301.991
302.001
302.01
302.017
302.023
302.028
302.03
302.03
302.028
302.023
302.017
302.01
302.001
301.991
301.981
301.971
301.963
)
;

boundaryField
{
    hotSide
    {
        type            fixedGradient;
        gradient        nonuniform List<scalar> 
400
(
196.722
197.267
198.361
200.012
202.23
205.03
208.427
212.439
217.082
222.375
228.334
234.977
242.318
250.369
259.144
268.651
278.9
289.897
301.647
314.154
201.582
202.088
203.107
204.648
206.726
209.358
212.567
216.373
220.8
225.87
231.606
238.025
245.148
252.989
261.562
270.878
280.946
291.775
303.368
315.731
206.841
207.302
208.231
209.641
211.552
213.988
216.976
220.544
224.722
229.538
235.018
241.187
248.066
255.674
264.026
273.134
283.009
293.657
305.084
317.294
212.413
212.821
213.645
214.903
216.622
218.832
221.568
224.867
228.765
233.297
238.496
244.391
251.006
258.363
266.479
275.367
285.039
295.5
306.756
318.81
218.142
218.489
219.196
220.285
221.79
223.749
226.209
229.213
232.807
237.035
241.934
247.538
253.877
260.974
268.847
277.511
286.976
297.25
308.335
320.235
223.789
224.071
224.652
225.561
226.839
228.535
230.704
233.402
236.683
240.598
245.192
250.505
256.568
263.407
271.042
279.488
288.754
298.848
309.771
321.524
229.03
229.248
229.704
230.433
231.486
232.922
234.807
237.208
240.187
243.803
248.108
253.145
258.95
265.55
272.966
281.212
290.298
300.229
311.007
322.63
233.478
233.639
233.982
234.55
235.401
236.606
238.24
240.378
243.093
246.449
250.505
255.306
260.891
267.289
274.52
282.6
291.536
301.332
311.99
323.508
236.734
236.849
237.106
237.551
238.25
239.28
240.723
242.664
245.181
248.344
252.215
256.842
262.266
268.517
275.615
283.574
292.402
302.102
312.675
324.117
238.459
238.55
238.76
239.138
239.754
240.688
242.029
243.864
246.275
249.335
253.107
257.642
262.981
269.153
276.18
284.076
292.848
302.498
313.027
324.429
238.459
238.55
238.76
239.138
239.754
240.688
242.029
243.864
246.275
249.335
253.107
257.642
262.981
269.153
276.18
284.076
292.848
302.498
313.027
324.429
236.734
236.849
237.106
237.551
238.25
239.28
240.723
242.664
245.181
248.344
252.215
256.842
262.266
268.517
275.615
283.574
292.402
302.102
312.675
324.117
233.478
233.639
233.982
234.55
235.401
236.606
238.24
240.378
243.093
246.449
250.505
255.306
260.891
267.289
274.52
282.6
291.536
301.332
311.99
323.508
229.03
229.248
229.704
230.433
231.486
232.922
234.807
237.208
240.187
243.803
248.108
253.145
258.95
265.55
272.966
281.212
290.298
300.229
311.007
322.63
223.789
224.071
224.652
225.561
226.839
228.535
230.704
233.402
236.683
240.598
245.192
250.505
256.568
263.407
271.042
279.488
288.754
298.848
309.771
321.524
218.142
218.489
219.196
220.285
221.79
223.749
226.209
229.213
232.807
237.035
241.934
247.538
253.877
260.974
268.847
277.511
286.976
297.25
308.335
320.235
212.413
212.821
213.645
214.903
216.622
218.832
221.568
224.867
228.765
233.297
238.496
244.391
251.006
258.363
266.479
275.367
285.039
295.5
306.756
318.81
206.841
207.302
208.231
209.641
211.552
213.988
216.976
220.544
224.722
229.538
235.018
241.187
248.066
255.674
264.026
273.134
283.009
293.657
305.084
317.294
201.582
202.088
203.107
204.648
206.726
209.358
212.567
216.373
220.8
225.87
231.606
238.025
245.148
252.989
261.562
270.878
280.946
291.775
303.368
315.731
196.722
197.267
198.361
200.012
202.23
205.03
208.427
212.439
217.082
222.375
228.334
234.977
242.318
250.369
259.144
268.651
278.9
289.897
301.647
314.154
)
;
    }
    coldSide
    {
        type            mixed;
        refValue        uniform 300;
        refGradient     uniform 0;
        valueFraction   uniform 0.991591;
        source          uniform 0;
        value           nonuniform List<scalar> 
400
(
300.011
300.011
300.011
300.011
300.011
300.011
300.011
300.012
300.012
300.012
300.012
300.013
300.013
300.014
300.014
300.015
300.015
300.016
300.016
300.017
300.011
300.011
300.011
300.011
300.011
300.011
300.012
300.012
300.012
300.012
300.013
300.013
300.013
300.014
300.014
300.015