/*--------------------------------*- C++ -*----------------------------------*\
| =========                 |                                                 |
| \\      /  F ield         | OpenFOAM: The Open Source CFD Toolbox           |
|  \\    /   O peration     | Version:  2212                                  |
|   \\  /    A nd           | Website:  www.openfoam.com                      |
|    \\/     M anipulation  |                                                 |
\*---------------------------------------------------------------------------*/
FoamFile
{
    version     2.0;
    format      ascii;
    arch        "LSB;label=32;scalar=64";
    class       volScalarField;
    location    "./ITHACAoutput/true/10.8";
    object      error;
}
// * * * * * * * * * * * * * * * * * * * * * * * * * * * * * * * * * * * * * //

dimensions      [0 0 0 1 0 0 0];

internalField   nonuniform List<scalar> 
3200
(
1.75103
2.79364
3.77265
4.2132
4.49001
4.54036
4.4401
4.27155
4.00956
3.87715
3.66393
3.61714
3.54185
3.56904
3.64425
3.48748
3.32785
2.74256
1.96973
0.993987
1.35945
2.22671
3.05808
3.60689
3.81725
3.82237
3.71949
3.57926
3.46486
3.18875
3.11382
2.96792
2.92618
2.98836
2.96281
2.87967
2.70243
2.23757
1.56311
0.754867
1.1787
1.87869
2.54136
2.94074
3.1748
3.1265
2.94494
2.8798
2.77171
2.59564
2.51853
2.38804
2.35827
2.45268
2.4149
2.31289
2.28064
1.8659
1.30875
0.55812
0.855935
1.40363
1.96929
2.30804
2.42979
2.49166
2.38646
2.22722
2.17722
2.01781
2.00562
1.87781
1.80383
1.87643
1.86598
1.89879
1.69281
1.40569
0.93983
0.438548
0.671822
1.04225
1.5367
1.79812
1.78871
1.88527
1.83248
1.72509
1.64804
1.62008
1.50924
1.4985
1.38321
1.41997
1.41526
1.39581
1.25944
1.0013
0.726898
0.202324
0.413161
0.696288
1.10644
1.1719
1.33723
1.38052
1.24595
1.29583
1.13857
1.07604
1.0216
0.999541
1.01102
1.00142
1.00081
0.961724
0.825224
0.689367
0.470854
0.165572
0.218651
0.396747
0.603935
0.76021
0.822982
0.804396
0.729869
0.76156
0.705103
0.660831
0.606472
0.550135
0.602675
0.603687
0.576451
0.477982
0.5461
0.392207
0.366118
0.0357857
0.146255
0.128568
0.201349
0.271781
0.319635
0.292625
0.273623
0.243132
0.252118
0.198077
0.257885
0.201963
0.183557
0.132228
0.218129
0.167688
0.153669
0.114562
0.0676963
-0.03844
1.62105
2.61258
3.57108
4.1671
4.29358
4.29244
4.10776
3.88157
3.61904
3.41686
3.26502
3.15086
3.14201
3.16101
3.2155
3.31273
3.14434
2.64354
1.93081
0.999851
1.27665
2.10849
2.97761
3.41712
3.60441
3.55706
3.45831
3.24352
3.03145
2.89752
2.70354
2.63927
2.63301
2.6054
2.69144
2.72004
2.5747
2.117
1.49318
0.697718
0.994731
1.7585
2.44792
2.76354
2.83472
2.97186
2.75383
2.70566
2.48435
2.35651
2.16479
2.05309
2.10116
2.16373
2.2049
2.2403
2.08148
1.75574
1.12317
0.480957
0.759135
1.42278
1.85296
2.21728
2.31232
2.37916
2.16663
2.09608
1.9896
1.89071
1.75123
1.67105
1.68078
1.61972
1.7286
1.74067
1.6394
1.29905
0.928781
0.318403
0.64957
0.984914
1.47603
1.68052
1.76211
1.71783
1.63511
1.5594
1.46733
1.37189
1.30899
1.31058
1.3098
1.30216
1.27616
1.26981
1.27192
1.02326
0.669005
0.246491
0.363975
0.731858
1.03305
1.20173
1.24607
1.29986
1.2234
1.18447
1.02396
0.937938
0.885728
0.929047
0.912466
0.894395
0.954471
0.884563
0.811155
0.674017
0.468671
0.158272
0.234603
0.300087
0.569598
0.767171
0.768676
0.730616
0.731108
0.623993
0.609709
0.572888
0.560531
0.473531
0.501623
0.568077
0.512261
0.56384
0.536118
0.417815
0.250593
0.107128
0.116222
0.118198
0.228802
0.241117
0.167229
0.2472
0.235651
0.305562
0.221242
0.169068
0.217019
0.230956
0.182647
0.145016
0.218968
0.177815
0.138277
0.0731317
0.0776313
0.107657
1.41424
2.43816
3.37849
3.82862
3.94933
3.87975
3.69262
3.40384
3.12373
2.8698
2.56707
2.55462
2.56488
2.67052
2.91428
2.93245
2.83632
2.37414
1.67199
0.721261
1.11087
2.05025
2.71269
3.15581
3.25195
3.20658
3.11827
2.82384
2.60792
2.3646
2.20128
2.09184
2.11872
2.22884
2.33992
2.42602
2.32392
1.86915
1.3015
0.600147
0.828712
1.61072
2.21413
2.5719
2.73319
2.61266
2.396
2.30497
2.03222
1.77439
1.75691
1.70633
1.72109
1.74238
1.8326
1.88872
1.83879
1.57337
1.0352
0.408378
0.66673
1.13653
1.68892
2.02371
2.12884
2.15567
1.93623
1.78738
1.62473
1.4604
1.31726
1.32087
1.36635
1.3966
1.45406
1.47451
1.40549
1.12525
0.709469
0.213498
0.448349
0.941399
1.29059
1.59529
1.65919
1.58236
1.44461
1.39594
1.31198
1.19897
1.05687
1.00728
1.04313
1.08132
1.15203
1.14972
1.05973
0.874708
0.543147
0.177168
0.315405
0.622137
0.899806
1.08209
1.10895
1.12354
1.06986
0.873758
0.959598
0.744424
0.706987
0.680059
0.672196
0.704237
0.809581
0.765177
0.701882
0.60523
0.359423
0.0718906
0.132483
0.37568
0.579749
0.701137
0.566618
0.681084
0.597989
0.542849
0.457719
0.443449
0.41812
0.438682
0.323164
0.409286
0.579211
0.485828
0.424421
0.336698
0.247461
0.0849201
0.0370962
0.0285832
0.148999
0.25189
0.236633
0.273796
0.26059
0.25109
0.142037
0.195927
0.104317
0.106903
0.203344
0.108911
0.175658
0.146459
0.142996
0.133217
0.100971
-0.0143675
1.07096
2.09997
2.90949
3.2996
3.45076
3.33231
3.18421
2.76223
2.37001
2.07453
1.92095
1.87235
1.90718
2.14152
2.34829
2.54415
2.47446
2.0658
1.44003
0.544441
0.928362
1.76405
2.32185
2.77015
2.89704
2.74365
2.56192
2.27555
1.89409
1.74163
1.60055
1.48059
1.5305
1.70437
1.86577
1.9087
1.93173
1.74797
1.01448
0.436928
0.647844
1.3037
1.96429
2.29459
2.38538
2.26237
2.07958
1.8153
1.56063
1.36156
1.26008
1.1419
1.19432
1.32109
1.50178
1.6266
1.53637
1.32259
0.818349
0.192266
0.461744
1.05706
1.46713
1.73937
1.83544
1.78707
1.60519
1.39849
1.20856
1.02586
0.904889
0.873935
0.923446
1.00402
1.09898
1.23121
1.12647
1.02471
0.567046
0.0661276
0.312693
0.72137
1.07724
1.36228
1.4118
1.328
1.2635
1.03963
0.831103
0.818219
0.692964
0.636895
0.701774
0.778214
0.848424
0.863915
0.913213
0.732595
0.364144
0.101288
0.284433
0.461986
0.68875
0.955141
1.00029
0.985296
0.914426
0.716306
0.657691
0.532325
0.402756
0.493785
0.49197
0.520959
0.606697
0.608978
0.619391
0.500433
0.262103
0.0235138
0.0872248
0.351943
0.524596
0.567732
0.64054
0.516342
0.479816
0.386972
0.354173
0.353656
0.237322
0.217702
0.306597
0.332785
0.355134
0.425916
0.340815
0.24309
0.123947
-0.0586907
0.0902078
0.0804216
0.159515
0.244519
0.13304
0.157946
0.187689
0.110968
0.0488515
0.0711473
0.130861
0.0834259
0.116457
0.0483817
0.15374
0.100426
0.0841044
0.165335
0.0410261
0.0333812
0.754085
1.69615
2.44171
2.87534
3.02668
2.80545
2.50043
2.16217
1.74219
1.38493
1.18124
1.12805
1.23146
1.45213
1.68932
1.95447
1.98693
1.61691
1.02591
0.265984
0.517128
1.26307
1.97306
2.3811
2.34804
2.32329
2.07321
1.67117
1.36791
1.04057
0.846957
0.828387
0.954536
1.11229
1.40068
1.5106
1.49449
1.30747
0.803946
0.107241
0.375939
0.956774
1.55847
1.84666
1.89828
1.86909
1.59757
1.3732
1.02412
0.878912
0.678859
0.629361
0.722905
0.768424
1.05448
1.20875
1.16659
0.930198
0.575226
-0.00120195
0.227986
0.780699
1.18596
1.44099
1.56923
1.4315
1.30849
1.0641
0.756298
0.578347
0.433716
0.482061
0.517877
0.610623
0.830011
0.936144
0.924012
0.746007
0.377394
-0.0968667
0.145733
0.616421
0.889167
1.16871
1.25579
1.06087
1.01594
0.752112
0.530208
0.411796
0.326024
0.297381
0.337758
0.507104
0.593461
0.672433
0.608677
0.503065
0.199074
-0.0188833
0.0421217
0.348948
0.518502
0.761739
0.831819
0.755116
0.649464
0.525512
0.365479
0.380424
0.173788
0.21691
0.255645
0.325444
0.416399
0.452678
0.443307
0.299994
0.172455
-0.0569902
-0.0102225
0.197032
0.384761
0.460756
0.414487
0.373707
0.449418
0.259183
0.205802
0.152782
0.146212
0.127634
0.119175
0.156634
0.270422
0.293248
0.269579
0.221527
0.0352922
-0.122885
-0.00490864
0.0253056
0.0600446
0.189808
0.0920644
0.0700948
0.189668
0.142869
0.10095
0.0189726
0.091845
-0.00189659
0.067875
0.0509957
0.096801
0.0381823
0.05741
0.0537082
0.0127638
-0.0315287
0.264528
1.14373
1.86502
2.35577
2.425
2.23271
1.93802
1.39351
1.07582
0.562351
0.431627
0.405994
0.549209
0.873743
1.15299
1.38885
1.4981
1.21214
0.692519
-0.0199515
0.108353
0.882233
1.53229
1.90761
1.88551
1.84412
1.52831
1.14441
0.699884
0.464319
0.276825
0.191998
0.292416
0.516337
0.812204
1.05109
1.13469
0.946784
0.430688
-0.103153
0.0148723
0.631677
1.17596
1.4968
1.50855
1.44006
1.19637
0.864292
0.569224
0.276186
0.0444437
0.0792485
0.198577
0.420505
0.606898
0.798423
0.893147
0.668047
0.29788
-0.263397
-0.0478463
0.410219
0.898652
1.0711
1.17442
1.04316
0.849996
0.643913
0.355272
0.162094
0.0545691
-0.0131583
0.119584
0.293731
0.484231
0.564829
0.693854
0.466967
0.0786628
-0.331819
-0.0862199
0.288985
0.59914
0.818804
0.891081
0.757665
0.685751
0.427187
0.248478
0.0749579
-0.0267734
-0.0931785
0.0838869
0.158861
0.30518
0.508881
0.454053
0.32722
0.119298
-0.27146
-0.100167
0.185
0.410386
0.641606
0.66526
0.576671
0.573344
0.329865
0.151581
0.0358684
-0.0978322
-0.0902988
-0.02429
0.0819237
0.210375
0.327313
0.299726
0.191036
0.0160125
-0.204516
-0.106756
0.177529
0.282847
0.303527
0.342352
0.296142
0.246174
0.198683
0.0547604
0.0357141
-0.0967213
-0.0132645
-0.00494493
0.0595823
0.0382736
0.125869
0.236832
0.133811
-0.0165191
-0.130801
-0.00979694
0.0353667
0.100305
0.121041
0.149748
0.0739626
0.0708268
0.0144951
0.0277727
-0.00510102
-0.0229366
0.00853573
-0.0607841
-0.00479812
0.107701
0.093991
0.0227558
0.0275896
0.00204785
-0.033524
-0.0968496
0.695969
1.31956
1.71722
1.83792
1.70255
1.30918
0.817693
0.345272
-0.105042
-0.339263
-0.311749
-0.119566
0.157778
0.65286
0.898072
1.02573
0.792866
0.382696
-0.368789
-0.315298
0.363295
1.11948
1.3648
1.46545
1.29054
1.01729
0.634327
0.110291
-0.140795
-0.367536
-0.471749
-0.168158
0.106145
0.303378
0.663162
0.653253
0.580014
0.145736
-0.432828
-0.326911
0.231272
0.7493
1.05102
1.13924
0.992355
0.737804
0.396973
0.0149653
-0.245423
-0.449645
-0.432742
-0.270029
-0.0446365
0.259892
0.467783
0.461191
0.295842
-0.0355913
-0.463621
-0.23414
0.131477
0.61438
0.852262
0.855547
0.731464
0.402973
0.34063
-0.0545218
-0.249595
-0.404559
-0.481545
-0.360905
-0.0637877
0.1216
0.286884
0.340839
0.230246
-0.0869716
-0.507137
-0.294334
0.0701494
0.307375
0.554263
0.616533
0.544302
0.349287
0.13546
-0.0573786
-0.215373
-0.356429
-0.39556
-0.267399
-0.191237
0.0417307
0.128531
0.19654
0.0693341
-0.0730289
-0.348529
-0.239771
0.0118609
0.200792
0.380816
0.336639
0.355824
0.271885
0.0894702
-0.110025
-0.14489
-0.265145
-0.263869
-0.259457
-0.1028
0.0643386
0.13208
0.116668
0.054567
-0.115714
-0.399276
-0.125448
0.070475
0.175946
0.201102
0.214551
0.257253
0.0963016
0.084768
-0.0483679
-0.145764
-0.184677
-0.146481
-0.12394
-0.121664
0.0131266
0.0705213
0.111042
0.00487418
-0.0778841
-0.179515
-0.0937439
0.0800467
-0.0277329
0.0942788
0.122867
-0.0145859
0.0955645
0.00798719
0.0336837
-0.0653117
-0.0351033
-0.0993306
-0.0388289
-0.0407076
-0.0794358
0.00791358
-0.037259
-0.0737687
-0.12712
-0.0738791
-0.662028
0.233821
0.896889
1.21062
1.20759
1.0816
0.711689
0.207099
-0.286031
-0.712857
-0.966698
-0.973843
-0.688168
-0.360172
0.113064
0.440107
0.605132
0.421103
-0.0262857
-0.678632
-0.635067
-0.027479
0.538277
0.920226
0.990139
0.736086
0.456479
0.0734139
-0.297254
-0.77443
-1.0191
-0.958575
-0.747598
-0.38999
-0.0516073
0.173547
0.343004
0.110043
-0.225265
-0.703616
-0.60433
-0.110276
0.398436
0.673917
0.752189
0.532188
0.307767
-0.0472804
-0.359382
-0.764897
-0.887882
-0.934189
-0.739
-0.443253
-0.174926
0.0119755
0.149164
0.0238005
-0.311478
-0.690182
-0.603288
-0.180493
0.204875
0.47181
0.460035
0.389376
0.147029
-0.0705678
-0.334945
-0.643347
-0.803573
-0.856903
-0.667839
-0.428721
-0.171465
0.00829006
0.148225
-0.00985456
-0.304519
-0.634503
-0.524
-0.121692
0.133096
0.291314
0.342261
0.296437
0.0447179
-0.169115
-0.336089
-0.560792
-0.69867
-0.617397
-0.601215
-0.371739
-0.190032
0.00355732
0.0330062
-0.0555222
-0.287971
-0.518342
-0.409865
-0.145175
0.0806746
0.207568
0.178671
0.253382
0.0907356
-0.134047
-0.303784
-0.444204
-0.45405
-0.488333
-0.458038
-0.286997
-0.131403
0.0582373
-0.00532104
-0.132287
-0.206387
-0.401303
-0.257779
-0.113204
0.031135
0.0465123
0.125062
0.185236
-0.0355076
-0.0706867
-0.222598
-0.264405
-0.357358
-0.265931
-0.190952
-0.188704
-0.154639
-0.036055
-0.0848132
-0.107259
-0.0957402
-0.298691
-0.0217023
-0.0399056
0.0472215
-0.0143891
0.0756655
0.0993905
0.0278597
0.0578976
-0.0422936
-0.126102
-0.117269
-0.116037
-0.0901817
-0.0336931
-0.037363
0.0221738
-0.0569379
0.00313795
-0.0966693
-0.0722678
-0.911471
-0.24219
0.38433
0.743522
0.714991
0.569962
0.183258
-0.305999
-0.695599
-1.25439
-1.44369
-1.43068
-1.11044
-0.74185
-0.31739
-0.0459124
0.203031
0.10225
-0.338729
-0.844161
-0.944653
-0.390669
0.175731
0.440301
0.463748
0.332096
0.0588791
-0.396203
-0.761964
-1.16057
-1.4898
-1.3998
-1.12997
-0.714311
-0.389014
-0.0482864
0.0293269
-0.0732806
-0.443576
-0.855331
-0.97344
-0.436775
0.00580832
0.308377
0.332515
0.153868
-0.0169835
-0.380394
-0.793299
-1.13403
-1.3348
-1.35645
-1.09803
-0.786084
-0.536024
-0.241633
-0.163398
-0.230891
-0.568507
-0.842963
-0.886377
-0.416145
-0.0968548
0.11076
0.269337
0.0454588
-0.0958992
-0.437782
-0.720509
-0.975201
-1.09643
-1.16396
-0.929813
-0.716087
-0.44793
-0.244727
-0.247383
-0.196305
-0.462712
-0.890595
-0.58542
-0.361114
-0.0653538
0.0530189
0.0683661
0.0567548
-0.147966
-0.319716
-0.569958
-0.77478
-0.872763
-0.988698
-0.753102
-0.576998
-0.39416
-0.209109
-0.188024
-0.235685
-0.450668
-0.660703
-0.528937
-0.325244
-0.0694419
-0.0047244
0.099994
-0.00974165
-0.102007
-0.250284
-0.379806
-0.543879
-0.647334
-0.660072
-0.544019
-0.470285
-0.356907
-0.189111
-0.218965
-0.242412
-0.350635
-0.554786
-0.377254
-0.16934
-0.0584182
-0.0141814
0.0269843
0.0169165
-0.112537
-0.182831
-0.289458
-0.370626
-0.404765
-0.36875
-0.326575
-0.237923
-0.239339
-0.132057
-0.129393
-0.10539
-0.270712
-0.323219
-0.147059
-0.127235
-0.0230865
0.0499978
-0.0506659
-0.0466177
-0.108432
-0.0843333
-0.0769108
-0.0629609
-0.175873
-0.146994
-0.150254
-0.00394145
-0.14081
-0.0756939
-0.039299
-0.0773698
-0.0388553
-0.0879939
-1.3103
-0.587512
-0.0753739
0.280528
0.375643
0.104652
-0.100621
-0.616013
-1.17202
-1.58149
-1.85832
-1.80462
-1.46133
-1.02966
-0.542657
-0.240934
-0.0305415
-0.0914066
-0.449694
-1.07914
-1.21969
-0.707328
-0.242255
0.0871409
0.140389
0.0287607
-0.307445
-0.720417
-1.15096
-1.48071
-1.73114
-1.72727
-1.45718
-1.04094
-0.735265
-0.337886
-0.197457
-0.240293
-0.633778
-1.06948
-1.24507
-0.730115
-0.309183
-0.0748115
-0.0182635
-0.127466
-0.271665
-0.724612
-1.04765
-1.3749
-1.61805
-1.60292
-1.35065
-0.961836
-0.674756
-0.416878
-0.327648
-0.409529
-0.639346
-0.947389
-1.04944
-0.642838
-0.32004
-0.108892
-0.0997912
-0.105261
-0.438733
-0.551526
-0.954226
-1.2202
-1.33105
-1.33398
-1.09936
-0.86129
-0.670271
-0.387761
-0.32352
-0.370524
-0.617904
-0.944479
-0.898603
-0.584734
-0.291597
-0.14147
-0.0981216
-0.158187
-0.331338
-0.561858
-0.786057
-0.918382
-1.06593
-0.99221
-0.932951
-0.747302
-0.55994
-0.356953
-0.304597
-0.347666
-0.512727
-0.755214
-0.733142
-0.407993
-0.262542
-0.118578
-0.0589839
-0.158037
-0.27964
-0.449553
-0.623972
-0.704816
-0.71026
-0.712897
-0.718086
-0.5679
-0.444025
-0.362306
-0.242056
-0.275694
-0.348237
-0.583196
-0.346384
-0.322281
-0.139767
-0.120942
-0.0388793
-0.123594
-0.114001
-0.283367
-0.324738
-0.407894
-0.544861
-0.460176
-0.429675
-0.387009
-0.271276
-0.174843
-0.217751
-0.228422
-0.251117
-0.430727
-0.11397
-0.0576607
-0.00987153
-0.0168915
0.0862686
-0.0686114
-0.0319609
-0.0630162
-0.105345
-0.240179
-0.182132
-0.165523
-0.0860038
-0.138431
-0.129524
-0.00798246
-0.0739656
-0.0508198
-0.122578
-0.0407348
-1.6122
-0.84827
-0.355678
-0.10215
0.0680131
-0.162292
-0.446639
-0.870766
-1.36944
-1.79247
-2.05249
-1.86394
-1.71425
-1.23693
-0.695119
-0.438297
-0.240828
-0.230031
-0.617197
-1.13494
-1.53863
-1.02651
-0.505829
-0.178359
-0.220736
-0.316329
-0.567176
-0.977341
-1.29027
-1.59333
-1.93748
-1.80558
-1.53064
-1.1653
-0.851434
-0.529766
-0.356478
-0.438312
-0.734125
-1.17999
-1.44713
-0.992939
-0.480719
-0.25351
-0.240212
-0.335152
-0.597776
-0.877886
-1.21404
-1.46484
-1.63334
-1.64707
-1.52743
-1.19417
-0.794743
-0.547114
-0.387399
-0.503796
-0.710619
-1.05017
-1.23062
-0.826662
-0.539582
-0.379902
-0.280039
-0.381171
-0.57643
-0.830881
-1.07559
-1.36495
-1.42481
-1.48677
-1.27686
-0.962611
-0.726044
-0.534842
-0.441083
-0.437277
-0.738493
-0.889809
-1.01485
-0.658888
-0.465232
-0.274421
-0.211949
-0.378093
-0.419754
-0.701723
-0.859563
-1.08863
-1.17356
-1.19144
-1.0032
-0.866365
-0.60279
-0.493889
-0.302707
-0.437867
-0.58998
-0.79184
-0.726553
-0.537503
-0.413367
-0.202883
-0.221355
-0.325694
-0.392898
-0.542182
-0.574791
-0.751894
-0.794832
-0.892342
-0.791154
-0.617986
-0.405879
-0.35997
-0.308137
-0.401307
-0.504231
-0.589725
-0.502391
-0.342677
-0.228293
-0.195062
-0.119408
-0.155289
-0.242593
-0.328603
-0.38894
-0.493727
-0.562058
-0.496091
-0.424227
-0.363543
-0.355386
-0.189881
-0.168534
-0.221414
-0.307343
-0.434689
-0.181558
-0.148784
-0.149649
-0.0534336
0.00355836
-0.0801124
-0.0671178
-0.116233
-0.163307
-0.123533
-0.132093
-0.131343
-0.153332
-0.195148
-0.0987154
-0.115225
-0.0278573
-0.0859407
-0.12013
-0.163023
-1.85543
-1.10605
-0.541792
-0.302714
-0.208887
-0.326602
-0.589552
-1.0294
-1.4206
-1.80101
-1.97159
-1.98435
-1.60455
-1.27801
-0.804588
-0.425593
-0.309572
-0.267589
-0.687052
-1.04702
-1.74186
-1.21438
-0.691995
-0.447347
-0.383901
-0.456161
-0.67059
-1.03653
-1.40974
-1.71723
-1.86628
-1.80255
-1.60889
-1.29327
-0.82096
-0.475328
-0.382856
-0.441463
-0.743169
-1.08553
-1.56835
-1.1018
-0.7184
-0.464488
-0.415931
-0.552815
-0.631044
-0.911527
-1.36416
-1.53953
-1.72107
-1.63546
-1.52348
-1.19682
-0.855439
-0.544624
-0.465498
-0.54864
-0.786316
-1.03286
-1.24915
-1.02935
-0.727469
-0.563304
-0.507608
-0.527025
-0.661671
-0.938761
-1.15635
-1.36891
-1.48337
-1.42709
-1.21533
-0.98748
-0.699519
-0.546399
-0.489416
-0.50814
-0.72676
-0.973878
-1.11407
-0.866474
-0.473815
-0.429198
-0.370912
-0.423499
-0.629493
-0.698255
-0.894379
-1.14754
-1.14306
-1.0964
-1.04491
-0.874993
-0.646726
-0.506549
-0.405678
-0.448198
-0.664495
-0.851106
-0.797929
-0.61991
-0.415854
-0.316815
-0.220521
-0.314043
-0.461543
-0.499441
-0.683968
-0.88225
-0.841785
-0.868289
-0.709023
-0.635962
-0.457647
-0.382697
-0.26565
-0.354734
-0.420731
-0.582725
-0.519894
-0.280296
-0.287868
-0.160315
-0.196591
-0.208014
-0.237726
-0.285873
-0.376194
-0.522983
-0.56762
-0.541945
-0.504692
-0.41439
-0.232866
-0.230638
-0.228221
-0.26015
-0.241943
-0.385528
-0.173858
-0.0952317
-0.0595477
-0.110645
-0.0851721
-0.0736108
-0.0478079
-0.107026
-0.0847862
-0.199618
-0.136643
-0.116071
-0.11344
-0.147028
-0.112817
-0.00166579
-0.077573
-0.0681915
-0.17122
-0.121658
-1.8223
-1.2341
-0.715664
-0.461535
-0.361416
-0.445232
-0.693772
-0.901111
-1.3032
-1.69333
-1.77989
-1.71977
-1.52662
-1.13449
-0.719812
-0.327455
-0.154455
-0.197361
-0.531872
-0.93516
-1.78332
-1.26439
-0.743623
-0.531654
-0.46192
-0.592686
-0.74402
-1.01101
-1.35982
-1.73933
-1.69032
-1.69469
-1.45025
-1.10168
-0.74149
-0.43348
-0.32093
-0.342699
-0.677789
-1.02927
-1.62551
-1.18562
-0.834267
-0.568296
-0.465614
-0.589389
-0.761207
-0.914763
-1.2967
-1.48836
-1.54391
-1.48387
-1.30524
-1.08813
-0.725586
-0.652576
-0.381192
-0.48545
-0.731372
-1.02632
-1.35528
-1.04796
-0.772662
-0.593009
-0.506272
-0.540363
-0.641419
-0.886524
-1.07393
-1.25104
-1.34828
-1.42586
-1.16374
-0.888935
-0.63291
-0.491585
-0.422541
-0.496535
-0.658109
-0.946381
-1.19157
-0.898465
-0.655826
-0.507044
-0.355655
-0.544971
-0.587601
-0.681216
-0.86595
-0.959409
-1.14269
-1.00957
-0.953119
-0.806864
-0.622997
-0.404809
-0.355095
-0.526554
-0.59181
-0.713107
-0.828434
-0.641984
-0.482118
-0.407993
-0.369258
-0.367313
-0.4125
-0.62591
-0.682506
-0.858825
-0.76126
-0.789614
-0.756823
-0.580378
-0.480088
-0.349136
-0.344716
-0.317509
-0.532567
-0.605729
-0.506916
-0.385699
-0.304226
-0.243012
-0.201746
-0.242282
-0.353202
-0.328358
-0.376422
-0.52782
-0.449327
-0.431768
-0.422304
-0.382782
-0.341915
-0.227345
-0.0923054
-0.244653
-0.268714
-0.393565
-0.197352
-0.136263
-0.130955
-0.105947
-0.0705538
-0.0791664
-0.200646
-0.112635
-0.101112
-0.149291
-0.190326
-0.145286
-0.169037
-0.115925
-0.0848326
-0.119494
-0.0293941
-0.0555698
-0.152169
-0.0871313
-1.77556
-1.31778
-0.708984
-0.485987
-0.310175
-0.388507
-0.456612
-0.929777
-1.19877
-1.38433
-1.52631
-1.42957
-1.19756
-0.770373
-0.48167
-0.0908256
0.0918496
-0.0129849
-0.345542
-0.768224
-1.80121
-1.2555
-0.809109
-0.52524
-0.394909
-0.443516
-0.634245
-0.945086
-1.19346
-1.3773
-1.42943
-1.50953
-1.24032
-0.915695
-0.51955
-0.347265
-0.19366
-0.191697
-0.485809
-0.821268
-1.6963
-1.22469
-0.824285
-0.547376
-0.499139
-0.526028
-0.657354
-0.942581
-1.14751
-1.25285
-1.34109
-1.3637
-1.17154
-0.824142
-0.61089
-0.317624
-0.225741
-0.259026
-0.587527
-0.803002
-1.39823
-1.0748
-0.710827
-0.584763
-0.455083
-0.439838
-0.632674
-0.817223
-1.02749
-1.1359
-1.18978
-1.15744
-0.959731
-0.842955
-0.530956
-0.426732
-0.269683
-0.340468
-0.55675
-0.822885
-1.14969
-0.958346
-0.719334
-0.497364
-0.371349
-0.437296
-0.5714
-0.64959
-0.842654
-0.980882
-0.932977
-0.97714
-0.858439
-0.661593
-0.537088
-0.378022
-0.282752
-0.319359
-0.428564
-0.696391
-0.826748
-0.740545
-0.492967
-0.433118
-0.409128
-0.314555
-0.413345
-0.488833
-0.657626
-0.649711
-0.685936
-0.634943
-0.61627
-0.468262
-0.332809
-0.305896
-0.30178
-0.234676
-0.421065
-0.435028
-0.573124
-0.430649
-0.281295
-0.289629
-0.227454
-0.226358
-0.3355
-0.351556
-0.434304
-0.386032
-0.421452
-0.377277
-0.382827
-0.269763
-0.272142
-0.246169
-0.124611
-0.21301
-0.189773
-0.296002
-0.218019
-0.142792
-0.139171
-0.0498702
-0.122384
-0.141605
-0.0789017
-0.0593857
-0.171707
-0.145327
-0.120081
-0.078748
-0.1028
-0.108104
-0.158198
-0.0184344
-0.0561235
-0.082264
-0.154954
-0.0905334
-1.71989
-1.15128
-0.638268
-0.285532
-0.184731
-0.233192
-0.308966
-0.584263
-0.774984
-0.972844
-1.09521
-0.951157
-0.737236
-0.448916
0.0105428
0.160854
0.414576
0.273987
0.0388179
-0.388859
-1.61054
-1.11399
-0.774434
-0.442202
-0.337225
-0.406865
-0.56769
-0.653139
-0.862389
-0.997261
-1.07538
-1.01227
-0.831988
-0.542227
-0.209998
0.00390936
0.12399
0.0445965
-0.221199
-0.457897
-1.54056
-1.1694
-0.755497
-0.460383
-0.361754
-0.462757
-0.460571
-0.743625
-0.798833
-1.05938
-1.02977
-0.999349
-0.747494
-0.564069
-0.344252
-0.117016
0.00632952
-0.0624749
-0.309801
-0.528982
-1.36385
-1.05561
-0.779306
-0.539645
-0.432592
-0.417234
-0.560659
-0.635333
-0.793813
-0.873348
-0.962647
-0.893781
-0.744226
-0.54922
-0.39212
-0.153935
-0.149065
-0.173197
-0.442299
-0.616819
-1.04908
-0.88409
-0.664983
-0.4682
-0.351101
-0.423072
-0.499921
-0.50993
-0.681741
-0.831815
-0.853895
-0.816757
-0.620433
-0.507204
-0.348595
-0.215026
-0.136507
-0.193606
-0.304123
-0.575254
-0.803143
-0.597055
-0.470329
-0.363797
-0.293537
-0.304853
-0.358024
-0.373156
-0.551783
-0.542489
-0.578227
-0.637405
-0.472708
-0.379465
-0.277162
-0.161943
-0.103307
-0.109537
-0.296875
-0.378393
-0.436789
-0.387019
-0.284249
-0.222341
-0.123943
-0.168593
-0.246414
-0.297962
-0.303641
-0.350763
-0.349868
-0.332471
-0.323845
-0.276903
-0.215028
-0.0681005
-0.108667
-0.0796277
-0.204396
-0.229324
-0.16032
-0.0812351
-0.10173
-0.0365741
-0.0854193
-0.0659041
-0.046145
-0.104175
-0.0523371
-0.0921402
-0.117927
-0.145046
-0.110748
-0.0350734
-0.119131
-0.0895365
-0.0065769
-0.0576324
-0.031514
-0.0287831
-1.49554
-0.988927
-0.436129
-0.0621133
0.0542823
0.0716746
0.105162
-0.13198
-0.307794
-0.457148
-0.51832
-0.376298
-0.225448
0.0882826
0.415209
0.651014
0.763926
0.763268
0.470736
0.0225867
-1.44204
-0.978435
-0.689006
-0.341097
-0.0672615
-0.0374364
-0.224645
-0.301522
-0.465875
-0.62628
-0.584982
-0.481328
-0.35041
-0.0295239
0.167544
0.396856
0.451147
0.360091
0.169272
-0.178229
-1.43774
-1.0154
-0.664305
-0.401443
-0.244223
-0.143539
-0.259049
-0.371046
-0.529177
-0.601564
-0.664316
-0.620795
-0.484199
-0.248241
-0.0566082
0.276905
0.305157
0.130861
-0.0423059
-0.310738
-1.20366
-0.904128
-0.693865
-0.374539
-0.29472
-0.273445
-0.265773
-0.367877
-0.570673
-0.59711
-0.657443
-0.402513
-0.485512
-0.269763
-0.0694105
0.0716645
0.13755
0.0814083
-0.1292
-0.32366
-0.98337
-0.798119
-0.506701
-0.287492
-0.298654
-0.29972
-0.326279
-0.326477
-0.46986
-0.513793
-0.512203
-0.507522
-0.367405
-0.151471
-0.124216
-0.018366
-0.00655822
-0.0333132
-0.170991
-0.266225
-0.760548
-0.5287
-0.394714
-0.268738
-0.107274
-0.256654
-0.229176
-0.304643
-0.340527
-0.372881
-0.34709
-0.343251
-0.267723
-0.197135
-0.0940025
-0.0985881
-0.0714739
-0.00990325
-0.1226
-0.308998
-0.426089
-0.413112
-0.239647
-0.229185
-0.168334
-0.123909
-0.179801
-0.24289
-0.21303
-0.299498
-0.194721
-0.232531
-0.154929
-0.115143
0.0121357
-0.0858611
0.0214508
-0.0104182
-0.0987708
-0.244201
-0.133263
-0.151549
-0.0450643
-0.0930045
-0.128336
0.000493265
-0.0385064
0.00264205
-0.133373
-0.0567314
-0.168007
-0.0419437
-0.0886032
-0.0418141
-0.079453
0.0101792
-0.0596242
0.00302982
-0.0944634
-0.0387892
-1.14637
-0.602274
-0.0912469
0.184293
0.383161
0.574501
0.4435
0.418824
0.260616
0.164211
0.186317
0.299699
0.477238
0.734322
1.05866
1.20916
1.35796
1.26883
0.961339
0.585663
-1.25569
-0.747026
-0.316745
0.040016
0.246282
0.305361
0.198422
0.172164
0.0259224
-0.0448129
-0.0593616
0.110362
0.236512
0.487434
0.734529
0.869244
0.946831
0.931764
0.611054
0.330006
-1.19456
-0.839607
-0.382993
-0.145687
-0.0616864
0.200978
-0.0522314
-0.00320492
-0.0633309
-0.160814
-0.167311
-0.159306
0.103819
0.233293
0.527313
0.635014
0.696116
0.560775
0.361344
0.0410538
-1.00612
-0.723116
-0.379397
-0.200669
-0.0698224
0.0147412
-0.0388791
-0.0854848
-0.25168
-0.240192
-0.277055
-0.154823
-0.0759996
0.138554
0.281193
0.387605
0.411528
0.331881
0.182949
-0.0496792
-0.935818
-0.594101
-0.403748
-0.22942
-0.174665
-0.101506
-0.036937
-0.2024
-0.215433
-0.170741
-0.220091
-0.244539
-0.114095
0.0589148
0.204737
0.217134
0.259921
0.256455
0.0845116
-0.145956
-0.673715
-0.51475
-0.294763
-0.213562
-0.125603
-0.080833
-0.0252644
-0.0408183
-0.235646
-0.183407
-0.177633
-0.20308
-0.115457
-0.0206586
0.104041
0.12726
0.140026
0.124167
0.0492516
-0.10466
-0.434896
-0.38043
-0.21641
-0.12121
-0.0966113
-0.0602261
-0.0852411
-0.0670048
-0.0905016
-0.0965945
-0.0615603
-0.0852753
-0.108347
0.0296841
-0.0587325
0.0406788
0.0344827
0.104854
-0.0455563
-0.0142703
-0.11303
-0.100218
-0.0374698
-0.0472419
-0.00879217
-0.0698187
-0.054914
0.0494488
-0.046805
-0.12357
-0.0534695
0.00139358
-0.0419254
0.0216741
0.0858095
0.00230816
-0.00914481
0.0654151
-0.0551859
-0.0577282
-0.723727
-0.227821
0.315942
0.724265
0.957624
1.00553
1.04342
0.967427
0.897814
0.856601
0.952134
1.01325
1.21396
1.4852
1.65299
1.89392
1.9617
1.80561
1.59274
1.1235
-0.802779
-0.339774
0.128484
0.442512
0.570351
0.691164
0.71924
0.609207
0.593992
0.51016
0.539189
0.689004
0.915177
1.073
1.19391
1.41954
1.47225
1.41745
1.13613
0.725172
-0.802163
-0.475704
-0.0952186
0.191899
0.357078
0.487353
0.45507
0.399771
0.346499
0.392346
0.365452
0.465717
0.613851
0.759455
0.942065
1.03724
1.01636
0.984474
0.809207
0.487027
-0.855985
-0.476791
-0.246846
0.0934581
0.273617
0.328232
0.211106
0.217639
0.281499
0.224575
0.140887
0.256056
0.387252
0.486222
0.656958
0.786176
0.779906
0.691205
0.495175
0.357298
-0.660205
-0.511595
-0.221535
-0.0909855
0.131862
0.168932
0.194832
0.122062
0.115475
0.0549402
0.0390767
0.2654
0.158257
0.359237
0.401249
0.512523
0.490332
0.465739
0.398016
0.200103
-0.51327
-0.358612
-0.172576
-0.0276541
0.038222
0.123894
0.101303
0.0281393
0.0144055
0.0199508
0.0203785
0.0735108
0.127705
0.259495
0.269114
0.320996
0.405142
0.255734
0.232049
0.0176339
-0.362327
-0.185349
-0.122796
0.0102831
0.0290529
-0.00331167
0.0183364
-0.0485898
0.0197802
0.00848538
-0.0605205
0.0525061
0.0440187
0.0819478
0.187714
0.225975
0.200702
0.15048
0.164676
0.0077868
-0.134873
-0.0275194
-0.10116
0.0693872
0.0387217
-0.0286299
-0.0287401
0.0275708
-0.0447986
0.00262255
-0.0139402
-0.0310152
0.0984631
0.0895394
0.162742
0.087497
0.124502
0.0746505
0.069587
0.0375244
-0.257004
0.272698
0.767117
1.11946
1.45332
1.4943
1.61772
1.59382
1.57229
1.59254
1.66297
1.77331
1.8461
2.12305
2.41037
2.48509
2.54977
2.47891
2.1347
1.72968
-0.417729
-0.0388116
0.436421
0.783674
1.0963
1.10638
1.2223
1.16944
1.11891
1.13015
1.2455
1.26005
1.43749
1.62215
1.80893
2.0042
2.00679
1.85997
1.54992
1.28728
-0.499022
-0.141205
0.270724
0.433998
0.771189
0.79238
0.937999
0.838225
0.817677
0.804352
0.845631
0.989887
1.01408
1.20507
1.41088
1.55354
1.54658
1.45521
1.17384
0.941624
-0.467419
-0.223232
0.0713255
0.342599
0.479122
0.557782
0.572328
0.656323
0.592694
0.570784
0.558332
0.673707
0.765791
0.879588
1.02812
1.13761
1.15589
1.08468
0.844108
0.661327
-0.397284
-0.245424
0.0555381
0.160063
0.34413
0.401846
0.394028
0.464136
0.408939
0.400555
0.40451
0.475945
0.583874
0.63695
0.76633
0.86885
0.724237
0.734334
0.620082
0.463204
-0.338723
-0.230492
-0.0639106
0.0644482
0.16975
0.232761
0.187895
0.260889
0.246969
0.268562
0.306564
0.280873
0.33277
0.448415
0.503263
0.578466
0.534346
0.474889
0.478088
0.338786
-0.245506
-0.108014
-0.0676489
0.0382789
0.0201302
0.153518
0.119062
0.118152
0.0570063
0.122781
0.0518676
0.243278
0.176168
0.311968
0.276529
0.281157
0.349986
0.225087
0.176592
0.123094
-0.0916897
0.0165838
0.0311064
0.0569795
0.0678784
0.0324095
0.00566575
0.0580077
0.073946
-0.0497562
-0.0211613
-0.00226495
0.0807903
0.107474
0.0938567
0.106707
0.163306
0.131514
0.071258
0.0723268
0.150442
0.734449
1.19687
1.61745
1.80945
2.1183
2.13542
2.26351
2.23776
2.14737
2.21785
2.35591
2.52537
2.69939
2.87635
3.0319
3.16379
2.9251
2.60543
2.27898
-0.0657091
0.412434
0.772952
1.10825
1.32835
1.54448
1.53638
1.63162
1.60046
1.67883
1.62396
1.86849
1.94378
2.14079
2.32442
2.3595
2.3432
2.24378
2.05529
1.57773
-0.202375
0.145884
0.477937
0.811187
1.00957
1.15499
1.18446
1.2309
1.15701
1.16448
1.30978
1.37088
1.51614
1.60171
1.71337
1.79854
1.7782
1.73976
1.51348
1.18733
-0.273897
-0.000961239
0.322145
0.491784
0.774125
0.794079
0.838141
0.898532
0.856127
0.931934
0.899355
0.899307
1.18476
1.17705
1.31126
1.38691
1.46466
1.26525
1.15712
0.880953
-0.273744
-0.0912911
0.178332
0.360764
0.440398
0.598542
0.562186
0.589204
0.61219
0.62928