/*--------------------------------*- C++ -*----------------------------------*\
| =========                 |                                                 |
| \\      /  F ield         | OpenFOAM: The Open Source CFD Toolbox           |
|  \\    /   O peration     | Version:  2212                                  |
|   \\  /    A nd           | Website:  www.openfoam.com                      |
|    \\/     M anipulation  |                                                 |
\*---------------------------------------------------------------------------*/
FoamFile
{
    version     2.0;
    format      ascii;
    arch        "LSB;label=32;scalar=64";
    class       volScalarField;
    location    "0";
    object      relativeErrorField;
}
// * * * * * * * * * * * * * * * * * * * * * * * * * * * * * * * * * * * * * //

dimensions      [0 0 0 1 0 0 0];

internalField   nonuniform List<scalar> 
3200
(
0.00534719
0.00851999
0.0114867
0.012805
0.0136211
0.013749
0.0134229
0.0128952
0.0120919
0.0116863
0.0110436
0.0109085
0.0106923
0.0107896
0.0110354
0.0105798
0.0101142
0.00835035
0.00600722
0.00303537
0.00419678
0.00686653
0.00941663
0.0110891
0.0117168
0.011714
0.0113821
0.0109394
0.0105803
0.00973263
0.00950392
0.00906288
0.00894341
0.00914474
0.00907976
0.008839
0.00830841
0.00689008
0.00482019
0.00233037
0.00367962
0.00585936
0.00791639
0.00914817
0.00986264
0.00969942
0.00912474
0.00891355
0.00857241
0.00802464
0.00778623
0.00738579
0.0072993
0.00759951
0.00749179
0.00718507
0.00709471
0.00581233
0.0040818
0.00174232
0.00270269
0.00442875
0.00620723
0.00726688
0.00764144
0.00782724
0.00748902
0.00698325
0.00682216
0.00632054
0.00628233
0.00588396
0.00565574
0.0058885
0.00586175
0.00597152
0.00532983
0.00443074
0.00296535
0.00138476
0.00214622
0.00332765
0.00490239
0.00573135
0.00569621
0.00599842
0.00582572
0.00548057
0.00523318
0.00514303
0.00479117
0.00475831
0.00439444
0.0045143
0.00450298
0.004445
0.00401435
0.00319436
0.0023208
0.00064635
0.00133567
0.00225002
0.00357335
0.00378237
0.00431316
0.00444996
0.00401381
0.00417246
0.00366478
0.00346285
0.00328766
0.00321727
0.00325539
0.00322606
0.00322601
0.003102
0.00266345
0.00222638
0.00152154
0.000535264
0.000715454
0.00129788
0.00197497
0.00248505
0.00268918
0.00262743
0.00238315
0.00248587
0.00230109
0.00215636
0.00197898
0.00179535
0.00196724
0.00197114
0.00188289
0.00156186
0.00178515
0.00128258
0.00119768
0.000117096
0.000484476
0.000425852
0.000666844
0.000899988
0.00105831
0.000968751
0.000905736
0.000804725
0.000834401
0.000655524
0.000853456
0.000668411
0.000607542
0.000437695
0.000722128
0.000555214
0.000508867
0.000379416
0.000224228
0.000127335
0.00494894
0.00796576
0.0108704
0.0126621
0.0130226
0.0129958
0.0124162
0.0117162
0.0109128
0.0102976
0.00984003
0.00950104
0.00948391
0.00955454
0.0097353
0.0100476
0.00955436
0.00804696
0.00588706
0.00305247
0.00394028
0.00650052
0.00916694
0.0105036
0.0110616
0.0108992
0.0105813
0.00991204
0.0092558
0.00884276
0.00825076
0.00805838
0.00804635
0.00797167
0.00824682
0.00834753
0.00791417
0.00651743
0.00460349
0.00215344
0.00310469
0.00548346
0.00762395
0.00859547
0.0088048
0.00921838
0.00853155
0.00837363
0.0076829
0.00728464
0.00669197
0.00634921
0.0065028
0.00670339
0.00683936
0.0069585
0.00647405
0.00546819
0.00350233
0.00150113
0.00239665
0.00448844
0.00583965
0.00698014
0.00727109
0.00747296
0.00679848
0.00657144
0.00623371
0.00592195
0.00548506
0.00523568
0.00526944
0.00508237
0.00542954
0.00547353
0.00516092
0.00409399
0.00293003
0.00100522
0.00207486
0.00314418
0.00470827
0.0053559
0.00561095
0.00546517
0.00519784
0.0049538
0.00465904
0.00435485
0.00415518
0.00416133
0.00416091
0.00413942
0.00406003
0.00404336
0.00405367
0.003264
0.00213569
0.000787342
0.00117655
0.00236475
0.00333605
0.00387834
0.00401883
0.00418967
0.00394095
0.00381368
0.00329569
0.00301827
0.00285026
0.00299021
0.0029379
0.00288112
0.00307643
0.00285291
0.00261784
0.00217662
0.00151435
0.000511615
0.000767607
0.000981621
0.00186257
0.00250768
0.00251162
0.00238634
0.0023871
0.00203676
0.00198971
0.00186934
0.00182902
0.00154531
0.00163734
0.0018548
0.00167315
0.00184232
0.00175243
0.00136625
0.000819719
0.000350516
0.000384984
0.000391494
0.000757751
0.000798432
0.000553685
0.000818358
0.000780032
0.00101134
0.000732209
0.000559515
0.000718206
0.000764356
0.000604522
0.000480021
0.000724897
0.000588737
0.000457888
0.000242199
0.00025713
0.000356611
0.00431529
0.00743019
0.0102792
0.0116284
0.0119736
0.011742
0.0111577
0.0102712
0.00941669
0.00864671
0.0077346
0.00770107
0.00773963
0.00806931
0.00882007
0.0088906
0.0086146
0.00722344
0.00509531
0.00220079
0.003427
0.00631812
0.00834778
0.00969657
0.00997633
0.00982205
0.0095381
0.00862725
0.00796074
0.00721473
0.00671642
0.00638539
0.00647301
0.00681754
0.00716736
0.00744255
0.00714049
0.00575197
0.00401074
0.00185144
0.00258549
0.0050207
0.00689329
0.00799671
0.0084868
0.0081019
0.0074211
0.00713192
0.00628336
0.00548407
0.00543004
0.00527574
0.00532531
0.00539664
0.00568291
0.00586464
0.00571727
0.00489841
0.00322677
0.0012741
0.00210422
0.00358425
0.00532106
0.00636898
0.00669238
0.00676939
0.00607423
0.00560256
0.00508964
0.00457339
0.00412515
0.00413777
0.00428284
0.00438133
0.00456615
0.00463537
0.00442332
0.00354518
0.00223744
0.000673804
0.00143174
0.00300451
0.00411576
0.00508314
0.00528214
0.00503324
0.00459146
0.00443387
0.00416518
0.00380545
0.00335444
0.00319784
0.00331326
0.00343682
0.00366444
0.00366021
0.00337667
0.0027895
0.00173347
0.000565761
0.00101936
0.00200985
0.00290525
0.00349166
0.00357606
0.00362086
0.00344591
0.00281296
0.00308824
0.00239531
0.00227485
0.00218861
0.00216405
0.00226829
0.00260907
0.00246749
0.00226482
0.00195414
0.00116114
0.000232343
0.000433428
0.00122876
0.00189557
0.00229161
0.00185123
0.00222438
0.00195232
0.00177178
0.00149362
0.00144689
0.00136425
0.0014315
0.00105476
0.00133624
0.00189167
0.00158728
0.00138719
0.00110088
0.000809383
0.000277822
0.000122876
9.46699e-05
0.000493439
0.00083408
0.000783455
0.000906378
0.00086256
0.000831032
0.000470066
0.00064839
0.000345222
0.000353792
0.000673009
0.000360499
0.000581501
0.000484903
0.000473501
0.000441175
0.000334423
4.75903e-05
0.00326522
0.00639465
0.00884588
0.0100149
0.0104555
0.0100795
0.00961661
0.00833132
0.00714154
0.00624805
0.0057855
0.00564195
0.00575235
0.00646759
0.00710308
0.00770859
0.00751048
0.00628076
0.00438507
0.00165994
0.00286197
0.0054325
0.00714049
0.00850652
0.00888264
0.00839987
0.00783283
0.00694933
0.00577959
0.00531204
0.00488174
0.00451784
0.00467402
0.00521096
0.00571218
0.00585228
0.00593191
0.00537562
0.00312414
0.00134697
0.00201998
0.00406133
0.00611212
0.00713082
0.00740331
0.00701262
0.00643852
0.00561483
0.00482368
0.00420682
0.00389327
0.00352946
0.00369411
0.00409018
0.00465505
0.00504833
0.00477451
0.00411538
0.00254936
0.000599486
0.00145655
0.00333202
0.00462019
0.00547178
0.00576775
0.00560988
0.00503408
0.0043823
0.00378492
0.00321175
0.00283301
0.00273695
0.0028937
0.00314873
0.00344986
0.00386902
0.00354369
0.00322694
0.00178742
0.000208596
0.000998149
0.0023014
0.00343415
0.00433923
0.00449317
0.00422295
0.00401482
0.00330134
0.00263796
0.00259643
0.00219896
0.00202154
0.00222849
0.0024728
0.00269794
0.00274948
0.00290883
0.00233545
0.00116174
0.000323323
0.000918992
0.00149206
0.00222322
0.00308127
0.00322494
0.0031747
0.00294473
0.00230566
0.00211628
0.00171259
0.00129574
0.00158888
0.00158356
0.00167764
0.00195482
0.00196334
0.00199814
0.00161535
0.000846505
7.59722e-05
0.000285312
0.00115093
0.00171497
0.00185531
0.00209246
0.00168613
0.00156633
0.00126289
0.00115561
0.0011538
0.000774263
0.000710329
0.00100058
0.00108635
0.0011597
0.00139135
0.00111376
0.00079469
0.000405333
0.000191977
0.000298783
0.000266347
0.000528237
0.000809628
0.000440454
0.000522845
0.000621231
0.000367258
0.000161667
0.000235444
0.000433049
0.000276086
0.000385426
0.000160139
0.000508923
0.000332478
0.000278479
0.000547509
0.000135874
0.000110564
0.00229666
0.00515968
0.00741642
0.00871926
0.00916289
0.00847936
0.00754623
0.00651726
0.00524662
0.00416877
0.00355564
0.00339714
0.0037119
0.0043825
0.0051059
0.00591691
0.00602521
0.00491117
0.00312083
0.000810088
0.00159272
0.00388618
0.00606264
0.00730597
0.00719399
0.00710805
0.00633467
0.00510071
0.00417181
0.00317218
0.00258196
0.00252639
0.00291341
0.00339859
0.00428534
0.00462823
0.00458557
0.00401747
0.00247356
0.000330294
0.00117124
0.00297827
0.00484576
0.00573481
0.00588774
0.00579018
0.00494353
0.00424529
0.00316397
0.00271439
0.00209656
0.00194438
0.00223489
0.00237782
0.00326662
0.00374908
0.00362284
0.00289228
0.00179058
3.74468e-06
0.000718689
0.0024593
0.00373244
0.00453049
0.00492859
0.00449147
0.00410172
0.00333309
0.00236763
0.00181001
0.00135737
0.00150912
0.00162214
0.00191413
0.00260424
0.00294021
0.0029051
0.00234783
0.00118884
0.000305357
0.000464949
0.00196557
0.0028332
0.00372096
0.00399493
0.0033722
0.00322704
0.00238756
0.00168239
0.00130636
0.00103426
0.000943615
0.0010722
0.00161076
0.00188643
0.00213916
0.00193792
0.00160295
0.000634783
6.02457e-05
0.000136042
0.00112657
0.00167309
0.00245654
0.00268096
0.00243235
0.00209093
0.00169113
0.00117576
0.00122363
0.000558988
0.000697808
0.000822683
0.00104776
0.00134129
0.00145899
0.00142963
0.000968014
0.000556767
0.000184063
3.34298e-05
0.000644187
0.00125756
0.00150541
0.00135375
0.00122013
0.00146686
0.000845725
0.000671409
0.000498386
0.000476954
0.000416395
0.000388873
0.000511242
0.000882917
0.000957774
0.000880786
0.000724042
0.000115386
0.000401863
1.62569e-05
8.38029e-05
0.000198824
0.000628431
0.000304777
0.00023202
0.00062775
0.000472816
0.000334065
6.2782e-05
0.000303923
6.27623e-06
0.000224628
0.000168782
0.00032042
0.000126402
0.000190077
0.000177842
4.2269e-05
0.00010442
0.000804576
0.00347472
0.00565783
0.00713543
0.00733345
0.00674158
0.00584356
0.00419683
0.00323731
0.00169144
0.00129825
0.00122169
0.00165405
0.00263453
0.0034814
0.00420004
0.00453761
0.00367722
0.00210392
6.06837e-05
0.000333325
0.00271133
0.00470318
0.00584716
0.00577137
0.00563708
0.00466599
0.00349033
0.00213299
0.00141453
0.000843332
0.00058514
0.00089184
0.00157639
0.00248273
0.0032173
0.00347803
0.00290604
0.00132362
0.00031733
4.62875e-05
0.00196437
0.00365302
0.00464424
0.00467512
0.00445771
0.00369949
0.00267026
0.00175752
0.000852463
0.000137178
0.000244686
0.000613512
0.00130031
0.00187866
0.00247437
0.00277124
0.00207523
0.000926338
0.00081978
0.0001507
0.00129119
0.00282604
0.00336508
0.00368605
0.00327095
0.00266294
0.00201584
0.00111163
0.000507046
0.000170698
4.11718e-05
0.000374371
0.000920225
0.00151836
0.00177278
0.00217989
0.0014685
0.000247596
0.00104512
0.000274895
0.000920888
0.0019079
0.00260542
0.00283319
0.00240718
0.00217721
0.00135551
0.000788122
0.0002377
8.49014e-05
0.000295544
0.000266183
0.000504373
0.00096959
0.00161799
0.00144478
0.001042
0.000380159
0.000865494
0.000323356
0.000596988
0.00132363
0.00206825
0.0021433
0.00185688
0.00184524
0.00106119
0.000487499
0.000115338
0.000314588
0.00029041
7.81423e-05
0.000263662
0.000677404
0.00105452
0.000966183
0.000616155
5.16719e-05
0.000660214
0.000349014
0.00058026
0.000924211
0.000991451
0.00111789
0.000966674
0.000803328
0.000648187
0.000178619
0.000116482
0.000315458
4.32667e-05
1.61324e-05
0.000194432
0.000124934
0.000411003
0.000773595
0.00043723
5.39932e-05
0.000427626
3.24432e-05
0.00011711
0.000332107
0.000400716
0.000495696
0.000244804
0.000234401
4.79675e-05
9.18999e-05
1.68787e-05
7.58948e-05
2.82447e-05
0.000201147
1.58793e-05
0.000356474
0.00031113
7.5335e-05
9.1348e-05
6.78108e-06
0.000111017
0.000294098
0.00211109
0.00399711
0.00519398
0.00555071
0.00513445
0.00394295
0.00246002
0.00103793
0.000315638
0.00101944
0.000937154
0.000359712
0.000475192
0.00196885
0.00271227
0.00310247
0.00240169
0.00116084
0.00111988
0.000968565
0.00111496
0.00343157
0.00417814
0.00448037
0.0039406
0.00310267
0.00193281
0.000335826
0.000428553
0.00111871
0.00143644
0.000512381
0.000323736
0.000926351
0.0020275
0.00199984
0.00177793
0.000447267
0.00132961
0.00101621
0.000718346
0.00232499
0.00325757
0.00352705
0.00306895
0.00227948
0.00122546
4.61708e-05
0.00075694
0.00138681
0.00133509
0.000833583
0.000137907
0.000803741
0.00144824
0.00142943
0.000917963
0.000110549
0.00144118
0.000736714
0.000413422
0.00193025
0.00267516
0.00268298
0.00229179
0.00126154
0.00106565
0.000170487
0.000780271
0.00126471
0.00150577
0.00112908
0.000199694
0.000380991
0.00089966
0.00106986
0.000723382
0.000273479
0.00159569
0.00093767
0.000223366
0.000978073
0.0017624
0.00195896
0.00172823
0.00110832
0.000429595
0.0001819
0.000682631
0.00112971
0.00125399
0.000848028
0.000606812
0.000132501
0.000408393
0.000624944
0.000220622
0.000232535
0.00111032
0.000773571
3.82529e-05
0.000647268
0.00122695
0.00108404
0.00114523
0.000874663
0.000287717
0.000353719
0.000465737
0.000852286
0.000848308
0.000834357
0.000330711
0.000207076
0.000425321
0.000375894
0.000175901
0.000373192
0.00128818
0.000409978
0.00023027
0.000574719
0.000656678
0.000700369
0.000839502
0.000314175
0.000276483
0.000157732
0.000475305
0.000602193
0.000477686
0.000404249
0.000396919
4.28366e-05
0.000230206
0.000362597
1.59213e-05
0.000254479
0.000586675
0.000310402
0.000265029
9.18124e-05
0.000312085
0.000406673
4.82723e-05
0.000316242
2.64291e-05
0.000111451
0.000216094
0.000116145
0.00032866
0.000128482
0.00013471
0.000262895
2.6193e-05
0.000123336
0.000244219
0.000420887
0.000244626
0.00200652
0.000707947
0.00271199
0.00365555
0.00364126
0.00325697
0.00214046
0.000622238
0.000858767
0.00213944
0.00290127
0.00292383
0.00206763
0.00108325
0.000340464
0.00132707
0.00182723
0.00127332
7.95858e-05
0.00205685
0.00194761
8.41965e-05
0.00164742
0.00281296
0.00302295
0.00224465
0.00139052
0.000223434
0.000904109
0.00235468
0.0030986
0.00291554
0.0022753
0.00118798
0.000157373
0.000529849
0.0010485
0.000336793
0.000690221
0.00215783
0.00187587
0.000342045
0.00123464
0.00208609
0.00232593
0.00164397
0.000949847
0.000145809
0.0011077
0.00235691
0.00273588
0.00287939
0.00227901
0.00136799
0.00054036
3.70309e-05
0.000461733
7.37511e-05
0.00096612
0.00214236
0.00189596
0.00056689
0.000642954
0.00147939
0.00144121
0.00121882
0.000459879
0.000220584
0.00104651
0.00200962
0.00251011
0.00267734
0.00208756
0.00134096
0.000536717
2.59713e-05
0.000464768
3.09263e-05
0.00095643
0.00199406
0.00166775
0.000387129
0.00042314
0.000925517
0.00108663
0.000940525
0.000141794
0.000535973
0.00106478
0.00177634
0.00221308
0.00195601
0.00190543
0.00117873
0.000602924
1.1294e-05
0.000104862
0.000176516
0.000916097
0.00164974
0.00132144
0.000467894
0.000259894
0.000668353
0.000575021
0.000815074
0.00029175
0.000430858
0.000976179
0.00142721
0.00145885
0.00156921
0.00147224
0.000922806
0.000422694
0.000187426
1.71334e-05
0.000426165
0.000665181
0.00129383
0.000842097
0.000369734
0.000101661
0.000151825
0.000408102
0.000604286
0.000115804
0.000230486
0.000725706
0.000861933
0.00116495
0.000866978
0.000622631
0.000615436
0.00050447
0.000117655
0.000276846
0.00035022
0.000312695
0.000975748
7.18497e-05
0.000132106
0.00015631
4.76253e-05
0.000250413
0.000328897
9.21836e-05
0.00019156
0.000139925
0.000417189
0.000387964
0.000383901
0.000298376
0.000111485
0.00012364
7.33835e-05
0.000188454
1.03871e-05
0.000320021
0.000239257
0.00275651
0.000731725
0.00115975
0.00224072
0.00215192
0.00171329
0.000550248
0.000917936
0.00208527
0.00375911
0.00432639
0.00428891
0.0033311
0.00222747
0.000954062
0.000138183
0.000611865
0.000308549
0.0010234
0.00255295
0.00289145
0.00119478
0.000536861
0.00134359
0.00141352
0.00101113
0.000179092
0.00120415
0.00231443
0.0035241
0.00452382
0.00425184
0.00343425
0.00217272
0.00118443
0.000147179
8.94921e-05
0.000223874
0.00135659
0.00261805
0.0030166
0.00135257
1.79703e-05
0.000953151
0.00102675
0.000474673
5.2349e-05
0.00117168
0.00244229
0.00349037
0.0041083
0.00417602
0.00338214
0.00242298
0.0016536
0.000746124
0.000505041
0.000714353
0.00176051
0.00261226
0.00278179
0.00130527
0.000303563
0.000346865
0.00084279
0.000142136
0.000299637
0.00136706
0.002249
0.00304334
0.00342166
0.00363318
0.00290352
0.00223742
0.00140054
0.00076578
0.000774722
0.000615262
0.00145133
0.00279502
0.0018612
0.00114756
0.000207561
0.000168278
0.00021685
0.000179909
0.000468785
0.00101246
0.00180433
0.00245232
0.00276245
0.00312994
0.00238489
0.00182804
0.00124947
0.000663272
0.000596775
0.000748525
0.00143215
0.00210054
0.00170398
0.00104745
0.000223542
1.52014e-05
0.000321594
3.13166e-05
0.00032779
0.000804003
0.00121979
0.00174651
0.00207872
0.00211989
0.00174759
0.00151122
0.00114735
0.000608206
0.000704549
0.000780353
0.00112922
0.00178726
0.0012318
0.000552816
0.000190659
4.62707e-05
8.80187e-05
5.51642e-05
0.000366889
0.000595941
0.000943358
0.0012078
0.00131905
0.00120177
0.00106448
0.000775671
0.000780474
0.000430749
0.00042218
0.000343958
0.00088375
0.00105536
0.000486787
0.000421138
7.64083e-05
0.000165459
0.000167654
0.000154244
0.00035874
0.000278992
0.000254424
0.000208272
0.00058178
0.000486261
0.000497072
1.304e-05
0.0004659
0.000250472
0.000130053
0.000256067
0.000128608
0.000291273
0.00395284
0.00177075
0.000226916
0.000843517
0.00112816
0.000313937
0.000301534
0.00184447
0.00350715
0.00473093
0.00555906
0.00540012
0.0043755
0.00308562
0.00162788
0.000723591
9.1835e-05
0.000275183
0.00135537
0.00325551
0.00372513
0.0021586
0.000738569
0.000265386
0.0004271
8.74095e-05
0.000933545
0.00218589
0.00349041
0.00448916
0.0052484
0.00523811
0.00442136
0.00316078
0.00223462
0.00102794
0.000601352
0.000732589
0.00193414
0.00326639
0.00385112
0.00225681
0.000954881
0.000230838
5.63027e-05
0.000392612
0.000836115
0.00222875
0.00322091
0.00422599
0.00497335
0.004928
0.00415432
0.00296029
0.00207834
0.00128515
0.00101099
0.00126479
0.00197624
0.00293035
0.00328838
0.00201323
0.00100159
0.000340529
0.000311834
0.000328691
0.00136912
0.0017202
0.00297509
0.00380358
0.00414913
0.0041591
0.00342887
0.00268776
0.00209301
0.0012117
0.00101172
0.00115958
0.00193514
0.0029595
0.00285336
0.00185595
0.000925014
0.000448509
0.000310896
0.000500929
0.00104871
0.00177759
0.00248616
0.00290423
0.00337082
0.00313819
0.00295164
0.00236528
0.00177315
0.001131
0.00096568
0.00110288
0.0016274
0.00239805
0.00235972
0.00131279
0.000844435
0.000381227
0.000189551
0.000507661
0.000897961
0.00144314
0.00200262
0.00226183
0.0022793
0.00228802
0.00230517
0.0018236
0.00142634
0.00116431
0.00077821
0.000886739
0.00112051
0.0018771
0.00113039
0.00105154
0.000455919
0.000394408
0.000126758
0.00040285
0.000371501
0.000923253
0.00105791
0.00132871
0.00177488
0.00149912
0.00139994
0.00126116
0.000884218
0.000570038
0.000710116
0.000745112
0.000819343
0.00140563
0.000377187
0.000190818
3.26654e-05
5.58898e-05
0.000285417
0.00022698
0.000105725
0.000208441
0.000348438
0.000794393
0.000602401
0.000547481
0.000284477
0.000457922
0.00042849
2.64098e-05
0.000244734
0.000168166
0.00040565
0.000134813
0.00485014
0.00254975
0.00106797
0.000306375
0.000203764
0.000485709
0.00133545
0.0026016
0.00408926
0.00535092
0.00612714
0.00556588
0.00512169
0.00369842
0.00208035
0.00131312
0.00072231
0.000690696
0.00185518
0.00341434
0.00468775
0.00312517
0.00153856
0.000541973
0.000670092
0.000959397
0.00171878
0.00295976
0.00390554
0.00482169
0.00586315
0.00546537
0.00463536
0.00353135
0.00258233
0.00160822
0.00108322
0.00133319
0.00223502
0.0035951
0.00446668
0.00306289
0.00148168
0.000780718
0.000739149
0.00103047
0.00183665
0.00269572
0.00372642
0.00449526
0.00501234
0.00505557
0.00469028
0.00366904
0.00244354
0.00168351
0.00119305
0.00155281
0.00219202
0.00324141
0.00384936
0.00258448
0.00168585
0.00118613
0.00087373
0.00118848
0.00179625
0.00258791
0.00334897
0.00424916
0.00443551
0.0046292
0.00397699
0.00299965
0.00226379
0.00166872
0.00137715
0.00136621
0.00230883
0.00278331
0.00321803
0.00208847
0.00147388
0.000868905
0.000670732
0.00119589
0.00132705
0.00221765
0.00271574
0.00343898
0.00370729
0.00376429
0.00317041
0.00273901
0.0019066
0.00156295
0.000958467
0.00138719
0.00187006
0.00251087
0.00233616
0.00172781
0.00132827
0.000651666
0.000710717
0.00104533
0.00126061
0.0017391
0.00184334
0.00241106
0.00254875
0.00286171
0.0025377
0.0019828
0.00130269
0.00115578
0.000989745
0.00128952
0.00162085
0.0018962
0.00163849
0.00111741
0.000744257
0.000635767
0.000389093
0.000505895
0.000790153
0.00107011
0.00126646
0.00160756
0.00183005
0.00161536
0.00138152
0.0011841
0.00115776
0.000618732
0.000549302
0.00072183
0.00100219
0.00141769
0.000600748
0.000492275
0.000495099
0.000176765
1.17705e-05
0.00026498
0.000221984
0.000384405
0.000540066
0.000408521
0.000436828
0.000434359
0.000507096
0.000645426
0.000326511
0.000381146
9.21553e-05
0.000284326
0.000397469
0.000539419
0.00556475
0.00331458
0.00162204
0.000905345
0.000624097
0.000974867
0.00175825
0.00306791
0.00423171
0.00536354
0.00587154
0.00591103
0.00478201
0.00381147
0.0024016
0.00127156
0.000925856
0.00080112
0.00205894
0.0031402
0.00529258
0.00368733
0.00209937
0.00135593
0.00116259
0.00138026
0.00202757
0.00313211
0.00425799
0.00518559
0.00563569
0.00544445
0.00486161
0.00391029
0.00248407
0.00143946
0.00116045
0.0013393
0.00225655
0.00329833
0.00482955
0.00339092
0.00220934
0.00142736
0.00127717
0.00169627
0.00193508
0.00279371
0.00417943
0.00471582
0.00527189
0.00501062
0.00466927
0.00367002
0.00262485
0.00167234
0.00143047
0.00168727
0.00241998
0.00318057
0.00389975
0.00321205
0.00226866
0.00175558
0.00158099
0.00164049
0.00205851
0.0029193
0.00359484
0.00425495
0.00461074
0.00443649
0.00377936
0.00307213
0.00217742
0.00170181
0.0015253
0.00158467
0.00226782
0.00304037
0.00352722
0.00274232
0.00149887
0.00135704
0.00117217
0.00133772
0.00198757
0.00220393
0.00282227
0.00362069
0.00360654
0.00345977
0.00329809
0.00276271
0.00204283
0.00160081
0.00128268
0.00141783
0.00210307
0.00269466
0.0025628
0.00199052
0.00133484
0.00101656
0.000707328
0.00100696
0.00147946
0.00160054
0.0021915
0.00282657
0.00269692
0.00278209
0.00227218
0.00203855
0.00146742
0.00122751
0.00085239
0.00113865
0.00135096
0.00187161
0.00169442
0.000913386
0.000937865
0.000522183
0.000640202
0.000677258
0.000773854
0.000930442
0.00122428
0.0017019
0.00184716
0.0017637
0.00164264
0.00134893
0.000758173
0.000751076
0.000743369
0.000847561
0.000788405
0.0012565
0.000575136
0.000315017
0.000196964
0.00036595
0.000281678
0.000243426
0.000158088
0.000353886
0.00028034
0.00066001
0.000451792
0.00038378
0.000375093
0.000486182
0.000373078
5.50904e-06
0.000256566
0.000225555
0.00056638
0.000402454
0.00544697
0.0036861
0.00213567
0.00137601
0.00107652
0.00132503
0.00206312
0.00267803
0.00387131
0.00502909
0.00528618
0.00510878
0.004537
0.00337371
0.00214219
0.000975363
0.000460486
0.000588961
0.00158864
0.00279526
0.00540248
0.00382796
0.00224956
0.001607
0.00139508
0.00178866
0.00224386
0.00304741
0.00409722
0.00523963
0.00509201
0.0051062
0.00437138
0.0033225
0.00223774
0.00130919
0.000970053
0.00103671
0.00205202
0.00311812
0.00499274
0.00363971
0.00255937
0.00174219
0.0014264
0.00180441
0.00232909
0.00279761
0.00396439
0.00454957
0.00471937
0.00453662
0.00399179
0.00332938
0.00222138
0.00199916
0.00116859
0.00148927
0.00224522
0.00315234
0.00422204
0.00326326
0.00240467
0.00184447
0.00157377
0.00167884
0.00199185
0.00275192
0.00333274
0.00388183
0.00418354
0.0044249
0.00361246
0.00276048
0.00196636
0.00152812
0.00131425
0.00154531
0.0020493
0.00294823
0.00376623
0.00283885
0.00207127
0.00160064
0.00112222
0.00171885
0.0018526
0.00214709
0.00272875
0.00302292
0.00360041
0.00318131
0.00300409
0.0025439
0.00196494
0.00127732
0.00112097
0.001663
0.00186992
0.00225394
0.00265752
0.00205892
0.00154571
0.00130762
0.00118308
0.00117649
0.00132085
0.00200376
0.0021846
0.00274875
0.00243648
0.00252744
0.00242287
0.00185841
0.0015377
0.00111861
0.00110482
0.00101796
0.001708
0.00194311
0.00165089
0.00125593
0.000990446
0.000790993
0.000656541
0.000788305
0.00114901
0.00106805
0.00122426
0.00171658
0.00146131
0.00140427
0.00137362
0.00124524
0.00111248
0.000739847
0.00030045
0.000796497
0.000875
0.00128173
0.000652689
0.000450631
0.00043305
0.000350326
0.000233279
0.000261738
0.000663334
0.000372352
0.00033425
0.000493506
0.000629157
0.000480277
0.00055881
0.000383248
0.000280472
0.000395096
9.71955e-05
0.000183761
0.000503233
0.000288164
0.00528786
0.00392185
0.00210827
0.00144391
0.000920786
0.00115242
0.00135351
0.00275456
0.0035501
0.00409879
0.00451915
0.0042336
0.00354789
0.00228358
0.00142877
0.000269625
0.000272894
3.86125e-05
0.00102837
0.00228787
0.00543902
0.00378896
0.00244004
0.00158278
0.00118915
0.0013346
0.00190738
0.00284079
0.00358614
0.00413779
0.0042944
0.00453586
0.00372824
0.0027538
0.0015634
0.00104569
0.000583581
0.000578103
0.00146612
0.00247994
0.00519569
0.00374933
0.00252194
0.00167365
0.00152519
0.0016064
0.00200641
0.00287579
0.00349998
0.00382068
0.0040898
0.00415939
0.00357435
0.00251549
0.00186556
0.000970542
0.000690221
0.000792504
0.00179869
0.00245955
0.00434576
0.0033392
0.00220726
0.00181483
0.00141163
0.00136367
0.00196069
0.00253173
0.00318233
0.00351767
0.00368452
0.00358484
0.00297322
0.00261236
0.00164617
0.00132369
0.000836972
0.00105722
0.00172971
0.00255756
0.00362719
0.00302257
0.00226782
0.00156736
0.00116976
0.00137696
0.00179861
0.00204417
0.0026512
0.00308579
0.00293508
0.00307432
0.00270139
0.00208252
0.00169118
0.00119078
0.000891046
0.00100683
0.00135167
0.00219706
0.00264858
0.00237188
0.00157845
0.0013864
0.00130921
0.00100629
0.00132201
0.00156313
0.00210257
0.00207712
0.00219293
0.00203005
0.00197063
0.00149765
0.00106469
0.000978866
0.000965987
0.000751419
0.00134862
0.00139366
0.00186499
0.00140117
0.000915065
0.000941999
0.000739643
0.000735954
0.00109064
0.00114269
0.00141154
0.00125459
0.00136971
0.00122619
0.00124434
0.000876945
0.000884812
0.000800504
0.000405289
0.000692931
0.000617453
0.000963211
0.00072084
0.000472093
0.000460094
0.000164858
0.000404545
0.000468055
0.000260785
0.000196272
0.000567481
0.000480291
0.000396855
0.000260258
0.000339759
0.000357303
0.000522901
6.09359e-05
0.00018553
0.000271963
0.000512303
0.000299333
0.00510184
0.003413
0.00189073
0.000845167
0.000546383
0.000689231
0.000912633
0.00172496
0.00228724
0.00287066
0.00323173
0.00280718
0.00217659
0.00132602
3.11608e-05
0.00047576
0.00122713
0.000811625
0.000115077
0.0011535
0.00484633
0.00335033
0.00232758
0.00132814
0.00101217
0.00122043
0.00170192
0.00195724
0.0025835
0.00298706
0.00322106
0.00303251
0.00249319
0.00162559
0.000629909
1.17338e-05
0.0003724
0.000134036
0.000665261
0.00137787
0.0047045
0.00356945
0.00230476
0.00140364
0.0011023
0.00140932
0.00140201
0.00226279
0.00243015
0.00322233
0.00313227
0.00304014
0.00227456
0.00171706
0.00104841
0.00035656
1.92977e-05
0.000190589
0.000945631
0.00161538
0.0042283
0.00327147
0.00241404
0.00167083
0.00133874
0.00129064
0.00173362
0.0019639
0.00245325
0.00269875
0.0029747
0.0027622
0.00230051
0.00169825
0.00121295
0.000476379
0.000461528
0.000536507
0.00137074
0.0019123
0.00330321
0.00278291
0.00209244
0.00147267
0.00110394
0.00132976
0.00157082
0.00160188
0.00214123
0.00261235
0.0026817
0.00256529
0.00194901
0.00159371
0.00109567
0.000676086
0.000429367
0.000609201
0.000957309
0.00181129
0.00256924
0.00190958
0.00150386
0.0011629
0.000938055
0.000973972
0.00114359
0.00119171
0.00176195
0.00173216
0.00184627
0.00203536
0.00150964
0.00121208
0.0008855
0.000517521
0.000330228
0.000350241
0.000949504
0.00121047
0.00142009
0.00125812
0.000923884
0.000722542
0.000402712
0.000547703
0.000800406
0.000967739
0.000986109
0.0011391
0.00113619
0.00107974
0.0010518
0.000899442
0.000698552
0.00022127
0.000353137
0.000258811
0.000664449
0.000745581
0.00052991
0.000268497
0.000336216
0.00012087
0.000282278
0.000217776
0.000152477
0.000344213
0.000172926
0.000304435
0.000389635
0.000479243
0.000365931
0.000115893
0.00039366
0.000295884
2.17354e-05
0.000190475
0.00010416
9.51377e-05
0.00441765
0.0029195
0.00128664
0.000183114
0.000159918
0.000211022
0.000309446
0.000388186
0.000905018
0.00134396
0.00152379
0.00110644
0.0006631
0.000259776
0.00122245
0.00191791
0.0022521
0.00225175
0.0013897
6.67185e-05
0.00432314
0.00293185
0.00206334
0.00102083
0.000201178
0.000111909
0.000671208
0.000900558
0.00139105
0.00186974
0.00174645
0.00143719
0.00104657
8.82134e-05
0.00050084
0.00118699
0.00135019
0.00107835
0.000507218
0.000534318
0.00437643
0.00308956
0.00202024
0.00122019
0.000741934
0.000435853
0.000786268
0.00112582
0.00160525
0.00182461
0.00201495
0.00188317
0.00146915
0.000753464
0.000171889
0.000841219
0.000927526
0.000397967
0.000128725
0.000945877
0.0037217
0.00279461
0.00214378
0.00115667
0.000909776
0.000843767
0.000819806
0.00113444
0.00175947
0.0018408
0.00202679
0.00124101
0.0014972
0.000832113
0.000214179
0.000221222
0.000424789
0.000251521
0.000399352
0.00100076
0.00308976
0.00250705
0.00159111
0.000902445
0.000937162
0.000940208
0.00102324
0.00102364
0.00147298
0.00161058
0.00160559
0.00159104
0.00115196
0.00047503
0.000389659
5.76318e-05
2.05864e-05
0.000104608
0.000537117
0.000836483
0.00242924
0.00168838
0.0012602
0.000857775
0.000342319
0.000818816
0.000731003
0.000971566
0.00108588
0.00118899
0.00110675
0.00109457
0.000853822
0.000628802
0.0002999
0.000314602
0.000228135
3.16179e-05
0.000391519
0.000986962
0.001384
0.00134169
0.000778203
0.000744115
0.000546461
0.000402188
0.000583534
0.000788207
0.00069126
0.000971806
0.000631828
0.000754541
0.000502765
0.00037369
3.93905e-05
0.00027873
6.9646e-05
3.38311e-05
0.000320785
0.000793202
0.000440336
0.000500739
0.000148891
0.000307268
0.000423972
1.62948e-06
0.000127199
8.72729e-06
0.000440549
0.00018739
0.000554944
0.000138546
0.000292676
0.000138126
0.00026247
3.36284e-05
0.000196986
1.00104e-05
0.00031212
0.00012817
0.00337125
0.00177024
0.000268029
0.000540997
0.00112408
0.00168446
0.00129972
0.00122692
0.000763248
0.000480845
0.000545576
0.000877707
0.00139804
0.002152
0.00310404
0.00354731
0.00398631
0.00372709
0.00282562
0.00172232
0.00374979
0.0022298
0.000944928
0.00011931
0.000733903
0.000909499
0.000590733
0.000512382
7.71294e-05
0.000133319
0.000176602