/*--------------------------------*- C++ -*----------------------------------*\
| =========                 |                                                 |
| \\      /  F ield         | OpenFOAM: The Open Source CFD Toolbox           |
|  \\    /   O peration     | Version:  2212                                  |
|   \\  /    A nd           | Website:  www.openfoam.com                      |
|    \\/     M anipulation  |                                                 |
\*---------------------------------------------------------------------------*/
FoamFile
{
    version     2.0;
    format      ascii;
    arch        "LSB;label=32;scalar=64";
    class       volScalarField;
    location    "0";
    object      stateMean;
}
// * * * * * * * * * * * * * * * * * * * * * * * * * * * * * * * * * * * * * //

dimensions      [0 0 0 1 0 0 0];

internalField   nonuniform List<scalar> 
3200
(
325.717
325.099
324.663
324.814
325.146
325.693
326.345
326.979
327.58
327.892
328.105
327.973
327.709
327.216
326.589
326.149
325.699
325.693
325.923
326.474
322.567
322.058
321.695
321.658
321.975
322.487
323.066
323.609
324.016
324.446
324.521
324.513
324.262
323.797
323.346
322.912
322.563
322.515
322.722
323.171
319.153
318.752
318.484
318.516
318.727
319.213
319.797
320.201
320.557
320.863
320.94
320.941
320.723
320.289
319.924
319.589
319.176
319.159
319.322
319.774
315.841
315.533
315.289
315.303
315.545
315.84
316.275
316.711
316.963
317.229
317.241
317.262
317.134
316.785
316.466
316.076
315.918
315.852
315.997
316.258
312.354
312.168
311.923
311.936
312.228
312.409
312.718
313.04
313.274
313.384
313.495
313.424
313.382
313.13
312.879
312.621
312.475
312.459
312.483
312.824
308.915
308.763
308.53
308.66
308.697
308.851
309.169
309.272
309.541
309.663
309.717
309.68
309.557
309.414
309.231
309.072
309.007
308.947
308.988
309.162
305.392
305.292
305.191
305.153
305.211
305.349
305.533
305.593
305.717
305.796
305.851
305.872
305.752
305.659
305.577
305.556
305.367
305.403
305.323
305.575
301.736
301.779
301.743
301.711
301.704
301.771
301.826
301.888
301.902
301.968
301.908
301.952
301.947
301.968
301.846
301.856
301.829
301.829
301.84
301.92
325.934
325.363
324.943
324.933
325.408
326.001
326.731
327.417
328.014
328.393
328.545
328.482
328.157
327.678
327.077
326.389
325.956
325.87
326.045
326.555
322.724
322.25
321.843
321.911
322.246
322.804
323.374
323.986
324.488
324.774
324.968
324.88
324.597
324.227
323.67
323.13
322.753
322.704
322.865
323.303
319.401
318.933
318.635
318.747
319.117
319.412
320.028
320.411
320.877
321.133
321.325
321.308
321.016
320.618
320.179
319.712
319.43
319.327
319.569
319.915
315.99
315.564
315.453
315.439
315.704
315.99
316.527
316.872
317.177
317.381
317.521
317.496
317.287
317.074
316.64
316.275
316.017
316.007
316.058
316.431
312.417
312.265
312.021
312.088
312.287
312.605
312.941
313.229
313.476
313.653
313.716
313.632
313.478
313.274
313.047
312.779
312.497
312.474
312.581
312.821
308.993
308.755
308.63
308.655
308.811
308.953
309.21
309.401
309.672
309.816
309.868
309.767
309.673
309.539
309.299
309.172
309.046
308.989
309.018
309.199
305.394
305.406
305.242
305.161
305.279
305.435
305.543
305.741
305.821
305.893
305.905
305.957
305.863
305.706
305.654
305.484
305.392
305.394
305.455
305.522
301.772
301.796
301.72
301.747
301.862
301.821
301.868
301.829
301.936
302
301.952
301.926
301.952
301.959
301.849
301.851
301.85
301.876
301.836
301.78
326.314
325.705
325.293
325.417
325.888
326.535
327.255
327.992
328.599
329.025
329.328
329.168
328.831
328.277
327.501
326.905
326.41
326.297
326.471
327.007
323.041
322.453
322.246
322.3
322.715
323.261
323.81
324.492
324.99
325.381
325.545
325.506
325.197
324.699
324.128
323.541
323.132
323.09
323.202
323.552
319.695
319.205
318.986
319.048
319.319
319.862
320.468
320.886
321.397
321.78
321.797
321.723
321.47
321.122
320.642
320.163
319.781
319.627
319.781
320.116
316.187
315.952
315.713
315.721
315.97
316.288
316.826
317.242
317.598
317.865
318.008
317.902
317.663
317.365
316.99
316.624
316.34
316.277
316.38
316.641
312.701
312.388
312.281
312.244
312.454
312.8
313.184
313.44
313.675
313.867
314.009
313.98
313.793
313.548
313.23
312.963
312.779
312.697
312.786
312.972
309.101
308.922
308.817
308.825
308.994
309.171
309.401
309.745
309.767
310.04
310.077
310.047
309.947
309.767
309.485
309.338
309.205
309.112
309.185
309.344
305.532
305.364
305.264
305.257
305.509
305.51
305.699
305.843
305.992
306.041
306.066
306.011
306.063
305.888
305.612
305.59
305.534
305.507
305.493
305.579
301.863
301.896
301.811
301.746
301.801
301.803
301.851
301.891
302.021
301.979
302.071
302.056
301.939
302.003
301.901
301.892
301.855
301.827
301.824
301.914
326.918
326.294
326
326.168
326.59
327.269
327.932
328.786
329.492
329.953
330.107
329.99
329.641
328.974
328.253
327.497
326.994
326.843
326.954
327.445
323.451
322.958
322.844
322.88
323.249
323.886
324.513
325.173
325.826
326.122
326.263
326.239
325.918
325.371
324.764
324.237
323.718
323.418
323.708
323.942
320.07
319.698
319.413
319.49
319.82
320.352
320.91
321.49
321.973
322.293
322.395
322.392
322.111
321.669
321.112
320.578
320.249
320.054
320.184
320.526
316.551
316.185
316.08
316.142
316.389
316.771
317.26
317.725
318.101
318.383
318.504
318.436
318.2
317.861
317.459
316.993
316.755
316.522
316.675
316.947
312.96
312.727
312.608
312.583
312.799
313.143
313.446
313.87
314.224
314.314
314.439
314.418
314.208
313.932
313.623
313.347
313.032
312.952
313.084
313.172
309.221
309.167
309.109
309.028
309.174
309.374
309.616
309.957
310.118
310.299
310.428
310.282
310.181
310.009
309.752
309.565
309.364
309.298
309.367
309.481
305.63
305.439
305.368
305.436
305.477
305.714
305.852
306.031
306.126
306.159
306.276
306.262
306.111
305.999
305.875
305.692
305.663
305.65
305.667
305.776
301.828
301.863
301.817
301.769
301.919
301.931
301.936
302.041
302.124
302.113
302.053
302.09
302.036
302.076
301.935
301.952
301.93
301.812
301.902
301.885
327.585
327.035
326.788
326.894
327.293
328.051
328.848
329.598
330.317
330.831
331.035
330.931
330.529
329.896
329.167
328.366
327.782
327.613
327.705
328.073
324.166
323.753
323.473
323.531
324.041
324.531
325.206
325.964
326.525
326.988
327.182
327.065
326.68
326.167
325.453
324.878
324.418
324.139
324.212
324.576
320.6
320.295
320.056
320.162
320.514
320.935
321.565
322.091
322.658
322.918
323.118
323.053
322.741
322.395
321.75
321.203
320.842
320.684
320.677
320.977
316.997
316.666
316.557
316.624
316.825
317.284
317.701
318.191
318.677
318.948
319.092
318.951
318.737
318.398
317.885
317.458
317.141
316.997
317.07
317.322
313.292
312.993
312.949
312.919
313.089
313.533
313.806
314.261
314.621
314.812
314.898
314.854
314.675
314.315
314.001
313.673
313.479
313.335
313.41
313.457
309.581
309.395
309.388
309.324
309.437
309.692
309.961
310.22
310.48
310.517
310.723
310.628
310.49
310.285
310.031
309.816
309.643
309.607
309.572
309.68
305.799
305.664
305.574
305.605
305.762
305.909
305.931
306.203
306.316
306.4
306.407
306.394
306.343
306.223
306.013
305.883
305.796
305.737
305.826
305.912
301.947
301.941
301.939
301.845
301.979
302.037
301.95
302.024
302.086
302.179
302.106
302.189
302.099
302.089
302.01
302.033
301.978
301.945
301.953
301.974
328.514
328.013
327.77
327.795
328.251
328.952
329.712
330.645
331.244
331.906
332.036
331.914
331.49
330.776
330.032
329.287
328.653
328.423
328.464
328.799
324.959
324.505
324.267
324.338
324.814
325.297
326.015
326.736
327.423
327.787
327.974
327.931
327.588
327.027
326.329
325.649
325.111
324.852
324.956
325.17
321.287
320.935
320.739
320.795
321.168
321.609
322.193
322.809
323.31
323.71
323.942
323.8
323.474
322.968
322.442
321.879
321.399
321.247
321.269
321.565
317.541
317.296
317.091
317.227
317.438
317.874
318.345
318.783
319.24
319.521
319.628
319.608
319.307
318.901
318.433
318.047
317.604
317.523
317.627
317.825
313.733
313.522
313.432
313.451
313.624
313.994
314.282
314.721
315.03
315.272
315.374
315.371
315.064
314.809
314.447
314.006
313.816
313.704
313.692
313.918
309.873
309.704
309.636
309.575
309.726
309.983
310.142
310.513
310.784
310.949
311.083
311.026
310.867
310.633
310.35
310.064
309.917
309.855
309.873
309.978
305.985
305.77
305.759
305.84
305.907
306.055
306.197
306.322
306.521
306.57
306.703
306.589
306.526
306.383
306.313
306.123
305.907
305.908
305.965
306.009
301.982
301.96
301.927
301.94
301.946
302.056
302.09
302.173
302.178
302.221
302.239
302.197
302.248
302.166
302.022
302.002
302.038
301.999
301.993
302.006
329.408
328.977
328.808
328.901
329.276
329.891
330.721
331.575
332.31
332.898
333.132
332.967
332.513
331.872
330.941
330.216
329.592
329.335
329.29
329.68
325.846
325.473
325.111
325.288
325.618
326.207
326.858
327.556
328.306
328.676
328.903
328.888
328.358
327.769
327.195
326.42
326
325.65
325.69
325.964
322.023
321.719
321.532
321.588
321.863
322.361
322.934
323.541
324.114
324.475
324.68
324.562
324.208
323.717
323.093
322.534
322.178
321.985
321.986
322.16
318.05
317.889
317.677
317.731
318.024
318.436
319.025
319.304
319.856
320.133
320.288
320.283
320.006
319.492
319.045
318.593
318.242
318.061
318.107
318.323
314.193
313.986
313.959
313.939
314.107
314.403
314.801
315.184
315.497
315.719
315.86
315.836
315.586
315.341
314.905
314.595
314.296
314.197
314.129
314.248
310.194
310.053
310.013
309.995
310.204
310.345
310.573
310.877
311.163
311.243
311.363
311.317
311.225
310.948
310.637
310.409
310.259
310.159
310.181
310.353
306.112
305.983
305.967
306.04
306.125
306.178
306.426
306.509
306.695
306.82
306.859
306.793
306.718
306.644
306.422
306.269
306.13
306.138
306.131
306.167
302.102
301.95
302.088
301.999
302.003
302.173
302.092
302.204
302.195
302.303
302.273
302.328
302.251
302.229
302.237
302.118
302.13
302.134
302.157
302.082
330.6
330.047
329.816
329.963
330.431
331.005
331.781
332.622
333.357
333.911
334.165
334.045
333.517
332.853
331.974
331.199
330.569
330.292
330.307
330.617
326.711
326.394
326.201
326.218
326.551
327.193
327.824
328.498
329.078
329.664
329.909
329.74
329.319
328.67
327.981
327.367
326.795
326.629
326.592
326.78
322.764
322.511
322.316
322.378
322.641
323.189
323.709
324.31
324.799
325.298
325.421
325.374
325.002
324.46
323.896
323.381
322.903
322.69
322.712
322.85
318.8
318.571
318.442
318.451
318.741
319.081
319.565
319.984
320.393
320.777
320.938
320.915
320.581
320.141
319.641
319.193
318.775
318.657
318.696
318.832
314.72
314.467
314.411
314.467
314.633
314.887
315.327
315.697
315.977
316.261
316.399
316.258
316.129
315.744
315.373
314.971
314.725
314.6
314.633
314.714
310.576
310.417
310.332
310.358
310.542
310.617
310.914
311.25
311.501
311.683
311.693
311.685
311.574
311.292
311.001
310.663
310.571
310.545
310.478
310.567
306.373
306.291
306.232
306.308
306.323
306.352
306.654
306.756
306.956
307.022
307.115
306.999
306.876
306.807
306.692
306.484
306.44
306.37
306.274
306.414
302.073
302.112
302.054
302.146
302.087
302.094
302.192
302.184
302.3
302.393
302.384
302.374
302.332
302.254
302.23
302.141
302.189
302.098
302.169
302.123
331.572
331.227
331.007
331.079
331.542
332.102
332.863
333.662
334.273
334.947
335.137
335.008
334.466
333.788
332.989
332.303
331.62
331.289
331.324
331.505
327.651
327.371
327.154
327.264
327.616
328.108
328.705
329.427
329.985
330.485
330.814
330.623
330.161
329.478
328.829
328.128
327.675
327.403
327.424
327.561
323.668
323.359
323.211
323.226
323.518
324.001
324.446
325.036
325.611
326.037
326.238
326.174
325.754
325.215
324.691
324.093
323.697
323.448
323.491
323.538
319.522
319.235
319.157
319.207
319.309
319.782
320.147
320.674
321.09
321.413
321.534
321.533
321.166
320.767
320.275
319.823
319.565
319.256
319.282
319.527
315.124
315.041
314.931
315.014
315.201
315.406
315.785
316.101
316.454
316.713
316.811
316.873
316.534
316.214
315.857
315.478
315.255
315.102
315.131
315.2
310.941
310.836
310.713
310.793
310.832
311.08
311.297
311.547
311.751
311.954
312.057
312.031
311.841
311.665
311.427
311.121
311.007
310.886
310.862
310.967
306.64
306.491
306.46
306.502
306.548
306.641
306.845
306.977
307.127
307.232
307.266
307.207
307.121
306.97
306.897
306.707
306.617
306.507
306.593
306.586
302.248
302.248
302.17
302.126
302.256
302.28
302.366
302.363
302.371
302.364
302.477
302.441
302.429
302.262
302.374
302.281
302.215
302.224
302.16
302.189
332.792
332.375
332.242
332.288
332.594
333.248
333.797
334.595
335.353
335.867
336.144
335.986
335.44
334.726
333.896
333.211
332.6
332.258
332.237
332.561
328.641
328.386
328.248
328.268
328.563
329.005
329.638
330.296
330.902
331.323
331.573
331.478
331.033
330.372
329.769
329.041
328.552
328.246
328.313
328.49
324.547
324.246
324.101
324.162
324.399
324.788
325.185
325.845
326.315
326.719
326.962
326.87
326.471
325.875
325.336
324.798
324.415
324.202
324.155
324.249
320.184
319.95
319.852
319.882
320.114
320.348
320.888
321.17
321.693
322.022
322.133
322.073
321.717
321.31
320.913
320.402
320.097
319.903
319.925
320.079
315.827
315.645
315.527
315.563
315.707
315.946
316.278
316.641
316.959
317.14
317.288
317.165
317.012
316.694
316.348
315.966
315.727
315.583
315.573
315.683
311.423
311.192
311.171
311.161
311.235
311.461
311.697
311.961
312.202
312.318
312.323
312.291
312.229
311.985
311.747
311.538
311.284
311.184
311.132
311.273
306.776
306.808
306.701
306.762
306.76
306.922
306.98
307.206
307.288
307.392
307.529
307.423
307.353
307.253
307.069
306.896
306.859
306.789
306.737
306.861
302.271
302.234
302.211
302.245
302.168
302.349
302.335
302.385
302.441
302.583
302.525
302.502
302.408
302.441
302.41
302.262
302.302
302.252
302.299
302.198
334.015
333.536
333.398
333.516
333.716
334.297
334.895
335.575
336.256
336.775
337.035
336.751
336.418
335.685
334.83
334.222
333.655
333.272
333.305
333.538
329.762
329.491
329.275
329.27
329.633
330.032
330.554
331.187
331.658
332.043
332.387
332.174
331.741
331.152
330.567
329.942
329.448
329.207
329.198
329.403
325.431
325.177
324.922
324.968
325.225
325.577
326.069
326.537
327.007
327.328
327.496
327.44
327.186
326.665
326.037
325.532
325.101
324.945
324.895
325.034
320.926
320.683
320.605
320.668
320.79
321.101
321.484
321.893
322.247
322.593
322.653
322.658
322.339
321.871
321.446
321.045
320.729
320.502
320.594
320.585
316.38
316.147
316.116
316.098
316.209
316.538
316.726
317.128
317.371
317.644
317.729
317.702
317.429
317.172
316.763
316.491
316.127
316.089
316.078
316.157
311.73
311.628
311.619
311.533
311.674
311.896
312.067
312.302
312.396
312.604
312.647
312.713
312.551
312.292
311.976
311.813
311.638
311.607
311.594
311.593
307.12
307.013
306.968
307.009
307.007
307.114
307.264
307.402
307.498
307.622
307.69
307.605
307.497
307.385
307.314
307.078
306.983
306.961
306.977
307.053
302.402
302.386
302.411
302.339
302.307
302.414
302.422
302.488
302.547
302.515
302.523
302.515
302.525
302.55
302.433
302.426
302.314
302.347
302.357
302.383
335.281
334.798
334.561
334.666
334.911
335.349
335.896
336.567
337.124
337.589
337.76
337.687
337.143
336.584
335.827
335.128
334.673
334.287
334.379
334.473
330.856
330.552
330.313
330.366
330.597
330.946
331.407
331.974
332.49
332.871
333.02
332.883
332.546
332.029
331.311
330.688
330.302
330.062
330.081
330.2
326.309
326.029
325.883
325.881
326.082
326.453
326.739
327.19
327.763
328.002
328.183
328.034
327.801
327.305
326.755
326.211
325.882
325.714
325.713
325.774
321.565
321.495
321.387
321.429
321.578
321.788
322.094
322.51
322.826
323.09
323.204
323.097
322.786
322.419
321.961
321.616
321.355
321.168
321.193
321.29
316.963
316.83
316.589
316.704
316.804
317.006
317.344
317.521
317.794
318.088
318.083
317.996
317.868
317.59
317.23
316.94
316.681
316.563
316.628
316.7
312.148
312.051
311.955
311.97
311.987
312.187
312.43
312.544
312.784
313.01
312.97
312.968
312.754
312.604
312.331
312.149
311.919
311.894
311.852
311.933
307.347
307.156
307.228
307.169
307.274
307.349
307.436
307.53
307.653
307.817
307.862
307.819
307.749
307.612
307.374
307.308
307.237
307.2
307.118
307.213
302.464
302.401
302.388
302.462
302.459
302.469
302.462
302.537
302.526
302.647
302.584
302.557
302.543
302.561
302.508
302.376
302.429
302.396
302.477
302.412
336.374
336.032
335.817
335.878
336.087
336.462
336.968
337.384
337.934
338.4
338.487
338.351
338.01
337.408
336.737
336.053
335.57
335.298
335.33
335.487
331.877
331.567
331.308
331.369
331.568
331.95
332.324
332.772
333.249
333.695
333.646
333.584
333.211
332.682
332.098
331.539
331.158
330.907
330.981
331.123
327.2
326.932
326.8
326.765
326.891
327.227
327.587
327.895
328.385
328.632
328.688
328.572
328.285
327.914
327.364
327.078
326.578
326.451
326.477
326.6
322.355
322.187
322.091
322.1
322.199
322.408
322.663
323.034
323.31
323.533
323.63
323.662
323.311
322.911
322.501
322.185
321.93
321.815
321.797
321.946
317.575
317.387
317.285
317.283
317.276
317.601
317.764
317.955
318.209
318.337
318.521
318.353
318.227
317.983
317.679
317.325
317.131
317.156
317.081
317.096
312.56
312.449
312.389
312.42
312.484
312.579
312.711
312.993
313.1
313.301
313.203
313.207
313.124
312.878
312.692
312.464
312.357
312.225
312.34
312.338
307.564
307.488
307.465
307.467
307.489
307.587
307.749
307.766
307.844
308.011
307.932
307.9
307.86
307.779
307.687
307.514
307.316
307.406
307.371
307.451
302.564
302.518
302.533
302.529
302.515
302.543
302.682
302.608
302.606
302.659
302.7
302.65
302.664
302.597
302.549
302.563
302.452
302.458
302.534
302.454
337.557
337.327
336.996
337.062
337.169
337.511
337.81
338.471
338.872
339.126
339.268
339.103
338.739
338.123
337.604
336.95
336.484
336.3
336.355
336.549
332.965
332.612
332.406
332.372
332.487
332.764
333.155
333.629
333.991
334.235
334.287
334.308
333.924
333.437
332.84
332.439
332.041
331.789
331.843
331.985
328.179
327.867
327.669
327.603
327.763
327.983
328.284
328.707
329.009
329.165
329.253
329.225
328.936
328.451
328.068
327.582
327.282
327.104
327.23
327.286
323.144
322.95
322.751
322.798
322.837
322.98
323.312
323.609
323.899
324.049
324.103
324.029
323.752
323.522
323.071
322.809
322.483
322.38
322.432
322.569
318.115
318.021
317.911
317.823
317.829
318.018
318.26
318.427
318.682
318.852
318.804
318.816
318.635
318.351
318.118
317.836
317.609
317.511
317.492
317.661
312.975
312.959
312.803
312.839
312.909
312.903
313.078
313.217
313.43
313.445
313.481
313.407
313.344
313.133
312.921
312.806
312.708
312.545
312.639
312.583
307.88
307.78
307.685
307.752
307.745
307.797
307.952
308.007
308.116
308.081
308.116
308.059
308.038
307.887
307.843
307.764
307.587
307.617
307.539
307.603
302.669
302.608
302.622
302.553
302.644
302.682
302.634
302.627
302.749
302.726
302.701
302.656
302.671
302.663
302.698
302.54
302.559
302.565
302.62
302.542
338.832
338.473
338.216
338.127
338.283
338.569
338.853
339.296
339.605
339.865
339.987
339.781
339.449
338.993
338.325
337.937
337.426
337.304
337.283
337.501
333.933
333.614
333.495
333.391
333.508
333.785
334.126
334.357
334.669
334.857
334.935
334.819
334.536
334.1
333.588
333.167
332.825
332.676
332.721
332.78
329.007
328.782
328.554
328.453
328.543
328.818
328.969
329.376
329.517
329.822
329.793
329.717
329.379
329.072
328.699
328.298
327.987
327.861
327.923
327.995
323.917
323.728
323.602
323.521
323.568
323.695
323.965
324.14
324.37
324.485
324.575
324.47
324.249
323.953
323.67
323.289
323.13
322.996
323.114
323.17
318.643
318.569
318.468
318.394
318.396
318.58
318.754
318.843
319.07
319.248
319.27
319.205
318.953
318.761
318.506
318.26
318.063
317.997
317.989
318.169
313.402
313.26
313.217
313.199
313.215
313.305
313.428
313.499
313.718
313.728
313.764
313.803
313.599
313.449
313.277
313.083
312.938
312.857
312.96
312.977
308.015
308.004
307.951
307.942
307.895
307.988
308.107
308.193
308.222
308.281
308.28
308.25
308.219
308.138
308.034
307.839
307.829
307.747
307.821
307.807
302.702
302.636
302.674
302.626
302.692
302.689
302.683
302.752
302.708
302.752
302.778
302.801
302.759
302.672
302.742
302.697
302.596
302.63
302.587
302.571
340.034
339.721
339.402
339.268
339.385
339.582
339.736
340.123
340.405
340.608
340.669
340.473
340.216
339.753
339.239
338.788
338.442
338.203
338.261
338.515
335.005
334.704
334.617
334.478
334.405
334.562
334.912
335.119
335.375
335.582
335.541
335.39
335.167
334.717
334.357
333.941
333.686
333.568
333.557
333.741
329.957
329.669
329.488
329.402
329.415
329.473
329.725
329.948
330.183
330.296
330.358
330.275
330.061
329.714
329.386
328.894
328.696
328.693
328.696
328.83
324.62
324.429
324.358
324.184
324.243
324.35
324.456
324.648
324.915
324.973
325.033
324.747
324.766
324.46
324.146
323.876
323.671
323.583
323.654
323.74
319.25
319.148
318.965
318.857
318.978
319.08
319.193
319.264
319.457
319.526
319.524
319.495
319.305
319.018
318.904
318.697
318.577
318.491
318.521
318.533
313.841
313.669
313.611
313.566
313.481
313.703
313.738
313.864
313.935
313.985
313.959
313.937
313.827
313.706
313.54
313.473
313.368
313.226
313.263
313.389
308.294
308.316
308.189
308.226
308.212
308.211
308.305
308.398
308.389
308.486
308.382
308.409
308.31
308.24
308.075
308.13
307.976
307.959
308.002
308.112
302.772
302.803
302.711
302.775
302.826
302.713
302.764
302.732
302.875
302.803
302.914
302.784
302.824
302.767
302.792
302.688
302.742
302.663
302.745
302.678
341.19
340.824
340.527
340.471
340.483
340.485
340.784
340.943
341.196
341.341
341.319
341.157
340.885
340.494
340.001
339.657
339.297
339.167
339.261
339.458
336.126
335.767
335.522
335.355
335.332
335.441
335.693
335.836
336.064
336.177
336.191
335.98
335.771
335.404
335.011
334.709
334.448
334.273
334.409
334.54
330.821
330.59
330.289
330.213
330.284
330.163
330.539
330.589
330.719
330.852
330.858
330.815
330.482
330.254
329.837
329.587
329.371
329.345
329.389
329.585
325.329
325.146
324.929
324.883
324.879
324.91
325.065
325.192
325.416
325.433
325.47
325.319
325.183
324.887
324.644
324.421
324.27
324.218
324.24
324.373
319.908
319.643
319.552
319.479
319.524
319.542
319.555
319.783
319.841
319.819
319.868
319.871
319.695
319.459
319.235
319.132
318.99
318.892
318.964
319.118
314.259
314.154
314.005
313.997
313.979
313.999
313.999
314.06
314.287
314.25
314.245
314.254
314.134
313.995
313.814
313.726
313.643
313.586
313.59
313.69
308.606
308.583
308.461
308.41
308.429
308.431
308.489
308.499
308.541
308.557
308.522
308.535
308.54
308.374
308.43
308.291
308.255
308.14
308.249
308.185
302.854
302.852
302.803
302.827
302.804
302.878
302.874
302.779
302.881
302.962
302.891
302.833
302.87
302.797
302.722
302.793
302.789
302.701
302.807
302.799
342.312
341.98
341.632
341.424
341.381
341.508
341.623
341.82
341.973
342.057
341.962
341.858
341.573
341.181
340.861
340.445
340.186
340.142
340.159
340.465
337.006
336.682
336.383
336.242
336.281
336.312
336.415
336.63
336.718
336.84
336.811
336.623
336.324
336.061
335.809
335.431
335.213
335.094
335.206
335.478
331.553
331.341
331.103
330.963
330.939
330.938
331.081
331.225
331.341
331.327
331.354
331.221
331.011
330.777
330.483
330.259
330.139
330.024
330.056
330.264
326.097
325.81
325.697
325.477
325.411
325.463
325.671
325.737
325.725
325.807
325.891
325.75
325.568
325.396
325.134
324.899
324.79
324.759
324.838
324.884
320.345
320.268
320.068
320.031
319.897
319.943
319.988
320.117
320.164
320.244
320.26
320.014
320.081
319.824
319.711
319.516
319.45
319.38
319.358
319.485
314.606
314.502
314.381
314.302
314.301
314.273
314.347
314.461
314.503
314.512
314.512
314.443
314.361
314.189
314.128
314.018
313.869
313.952
313.911
314.075
308.837
308.69
308.667
308.574
308.594
308.661
308.671
308.762
308.71
308.731
308.8
308.677
308.669
308.607
308.47
308.397
308.383
308.394
308.34
308.467
302.978
302.881
302.967
302.81
302.853
302.933
302.943
302.894
302.973
302.928
302.945
302.959
302.824
302.824
302.741
302.805
302.754
302.791
302.783
302.805
343.325
342.946
342.633
342.465
342.306
342.425
342.438
342.571
342.67
342.688
342.618
342.469
342.319
341.933
341.509
341.274
341.034
340.921
341.084
341.338
337.884
337.633
337.315
337.126
336.966
337.095
337.098
337.247
337.363
337.386
337.27
337.222
336.979
336.698
336.392
336.058
335.903
335.891
336.044
336.179
332.303
332.051
331.772
331.744
331.536
331.633
331.588
331.769
331.845
331.888
331.846
331.673
331.593
331.321
331.014
330.753
330.631
330.588
330.736
330.862
326.56
326.401
326.215
326.054
326.024
326.041
326.11
326.093
326.202
326.247
326.26
326.121
325.983
325.802
325.571
325.365
325.241
325.201
325.334
325.432
320.738
320.652
320.434
320.417
320.315
320.332
320.405
320.387
320.478
320.504
320.5
320.411
320.267
320.162
319.968
319.79
319.853
319.756
319.787
319.878
314.897
314.835
314.729
314.662
314.615
314.606
314.698
314.661
314.701
314.692
314.654
314.667
314.589
314.438
314.336
314.207
314.192
314.19
314.127
314.219
309
308.889
308.885
308.816
308.87
308.768
308.831
308.854
308.931
308.873
308.944
308.745
308.796
308.638
308.645
308.609
308.504
308.592
308.604
308.631
303.028
302.928
302.926
302.913
302.913
302.96
302.996
302.951
302.94
303.067
303.038
303.016
302.928
302.895
302.898
302.874
302.807
302.825
302.874
302.864
344.071
343.629
343.336
343.088
343.06
342.9
343.011
342.983
343.08
343.207
343.136
342.962
342.722
342.447
342.142
341.837
341.541
341.608
341.758
341.942
338.478
338.121
337.908
337.723
337.646
337.56
337.679
337.672
337.765
337.718
337.773
337.497
337.36
337.074
336.78
336.615
336.488
336.437
336.478
336.834
332.772
332.524
332.317
332.112
332.034
332
332.066
332.094
332.22
332.24
332.094
332.006
331.809
331.648
331.442
331.245
331.145
331.055
331.157
331.383
326.971
326.779
326.558
326.493
326.31
326.381
326.415
326.416
326.502
326.448
326.481
326.459
326.13
326.076
325.864
325.697
325.52
325.615
325.621
325.816
321.071
320.951
320.761
320.66
320.659
320.571
320.669
320.69
320.701
320.701
320.723
320.639
320.481
320.412
320.204
320.067
320.036
320.006
320.12
320.252
315.188
315.064
314.886
314.829
314.761
314.817
314.821
314.796
314.833
314.855
314.88
314.77
314.72
314.579
314.496
314.43
314.434
314.396
314.35
314.436
309.085
309.076
308.976
308.905
308.921
308.885
308.885
308.963
308.957
308.921
308.921
308.903
308.81
308.843
308.739
308.69
308.657
308.659
308.732
308.728
303.064
303.013
302.984
303.013
302.98
303.046
303.008
302.986
303.089
302.923
303.044
303.014
302.95
302.918
302.944
302.954
302.896
302.943
302.952
302.896
)
;

boundaryField
{
    hotSide
    {
        type            fixedGradient;
        gradient        nonuniform List<scalar> 
400
(
321.511
322.87
325.591
329.677
335.133
341.965
350.181
359.788
370.794
383.208
397.037
412.289
428.971
447.088
466.647
487.651
510.105
534.011
559.372
586.191
323.738
325.08
327.767
331.802
337.194
343.949
352.078
361.591
372.498
384.81
398.537
413.687
430.268
448.289
467.755
488.672
511.043
534.872
560.161
586.913
326.149
327.47
330.116
334.091
339.406
346.071
354.099
363.503
374.296
386.491
400.101
415.136
431.606
449.52
468.885
489.706
511.988
535.735
560.948
587.63
328.704
330
332.597
336.503
341.73
348.292
356.205
365.485
376.15
388.215
401.695
416.604
432.954
450.753
470.009
490.73
512.919
536.579
561.714
588.325
331.33
332.599
335.142
338.97
344.099
350.546
358.332
367.477
378.003
389.928
403.271
418.047
434.27
451.949
471.095
491.712
513.807
537.382
562.439
588.978
333.918
335.158
337.643
341.389
346.414
352.74
360.392
369.397
379.779
391.562
404.765
419.407
435.503
453.065
472.101
492.618
514.622
538.114
563.096
589.569
336.321
337.531
339.959
343.622
348.544
354.751
362.274
371.142
381.385
393.031
406.101
420.618
436.595
454.047
472.983
493.409
515.33
538.747
563.663
590.076
338.36
339.543
341.92
345.509
350.339
356.44
363.847
372.595
382.718
394.244
407.2
421.608
437.485
454.844
473.695
494.045
515.897
539.253
564.114
590.478
339.852
341.015
343.352
346.885
351.645
357.665
364.985
373.643
383.675
395.113
407.984
422.312
438.116
455.407
474.197
494.491
516.294
539.606
564.428
590.758
340.643
341.795
344.11
347.613
352.334
358.311
365.584
374.193
384.176
395.567
408.393
422.679
438.443
455.699
474.456
494.722
516.498
539.788
564.589
590.901
340.643
341.795
344.11
347.613
352.334
358.311
365.584
374.193
384.176
395.567
408.393
422.679
438.443
455.699
474.456
494.722
516.498
539.788
564.589
590.901
339.852
341.015
343.352
346.885
351.645
357.665
364.985
373.643
383.675
395.113
407.984
422.312
438.116
455.407
474.197
494.491
516.294
539.606
564.428
590.758
338.36
339.543
341.92
345.509
350.339
356.44
363.847
372.595
382.718
394.244
407.2
421.608
437.485
454.844
473.695
494.045
515.897
539.253
564.114
590.478
336.321
337.531
339.959
343.622
348.544
354.751
362.274
371.142
381.385
393.031
406.101
420.618
436.595
454.047
472.983
493.409
515.33
538.747
563.663
590.076
333.918
335.158
337.643
341.389
346.414
352.74
360.392
369.397
379.779
391.562
404.765
419.407
435.503
453.065
472.101
492.618
514.622
538.114
563.096
589.569
331.33
332.599
335.142
338.97
344.099
350.546
358.332
367.477
378.003
389.928
403.271
418.047
434.27
451.949
471.095
491.712
513.807
537.382
562.439
588.978
328.704
330
332.597
336.503
341.73
348.292
356.205
365.485
376.15
388.215
401.695
416.604
432.954
450.753
470.009
490.73
512.919
536.579
561.714
588.325
326.149
327.47
330.116
334.091
339.406
346.071
354.099
363.503
374.296
386.491
400.101
415.136
431.606
449.52
468.885
489.706
511.988
535.735
560.948
587.63
323.738
325.08
327.767
331.802
337.194
343.949
352.078
361.591
372.498
384.81
398.537
413.687
430.268
448.289
467.755
488.672
511.043
534.872
560.161
586.913
321.511
322.87
325.591
329.677
335.133
341.965
350.181
359.788
370.794
383.208
397.037
412.289
428.971
447.088
466.647
487.651
510.105
534.011
559.372
586.191
)
;
    }
    coldSide
    {
        type            mixed;
        refValue        uniform 300;
        refGradient     uniform 0;
        valueFraction   uniform 0.991591;
        source          uniform 0;
        value           nonuniform List<scalar> 
400
(
300.015
300.015
300.016
300.015
300.016
300.017
300.018
300.017
300.019
300.019
300.02
300.021
300.022
300.022
300.023
300.023
300.024
300.025
300.025
300.026
300.015
300.015
300.016
300.016
300.016
300.016
300.016
300.018
300.019
300.019
300.02
300.02
300.021
300.022
300.022
300.024
300.024