/*--------------------------------*- C++ -*----------------------------------*\
| =========                 |                                                 |
| \\      /  F ield         | OpenFOAM: The Open Source CFD Toolbox           |
|  \\    /   O peration     | Version:  2212                                  |
|   \\  /    A nd           | Website:  www.openfoam.com                      |
|    \\/     M anipulation  |                                                 |
\*---------------------------------------------------------------------------*/
FoamFile
{
    version     2.0;
    format      ascii;
    arch        "LSB;label=32;scalar=64";
    class       volScalarField;
    location    "0";
    object      relativeErrorField;
}
// * * * * * * * * * * * * * * * * * * * * * * * * * * * * * * * * * * * * * //

dimensions      [0 0 0 1 0 0 0];

internalField   nonuniform List<scalar> 
3200
(
0.000668889
0.00573083
0.00816826
0.00624555
0.00408516
0.00607781
0.0043417
0.00623022
0.00975348
0.00903082
0.00992671
0.00329912
0.00695567
0.00818273
0.0013124
0.00512002
0.0077694
0.00077973
0.000776185
6.82313e-05
0.00106758
0.00205629
0.00613061
0.00439446
0.00719234
0.00684945
0.011349
0.00703052
0.00773034
0.00806102
0.00461271
0.0108493
0.00574097
0.00286352
0.00954368
0.00869195
0.00159207
0.00111784
0.00286406
0.00327321
0.000776357
0.00088281
0.000813483
0.00650549
0.00902096
0.00561357
0.00889777
0.00765117
4.15699e-05
0.00836654
0.0060263
0.00600503
0.00502611
0.00285159
0.00677459
0.00526683
0.00523817
0.00520366
0.00288491
0.0025089
0.00370471
0.00313104
0.00245321
0.00540067
0.00369442
0.00687833
0.00714539
0.00832492
0.004968
0.0044707
0.00167639
0.0107403
0.00506819
0.00384276
0.00374578
0.00169821
0.00583314
0.00432597
0.00133749
0.00334308
0.00119102
0.00213537
0.00646798
0.00402379
0.00108328
0.00589583
0.00373171
0.0114171
0.00411955
0.000516319
0.0022943
0.00587252
0.00291973
0.00190952
0.0005169
0.00473406
0.00436846
0.00134142
0.00225131
0.00159394
0.00368028
0.000640053
0.000577383
0.00496319
0.001944
0.00308928
0.00764143
0.00223444
0.00411801
0.00355789
0.00128921
0.00338251
0.00430911
0.00419484
0.00033917
0.00127873
0.00342913
0.00200148
0.00178109
0.00342359
0.00057732
0.00113458
0.00081848
0.0037672
0.00367565
0.0032818
0.00566382
0.000235234
0.00126954
0.00119629
0.00296278
0.00329364
0.00473123
0.00184759
0.00175453
0.0033696
0.00118276
0.00209989
0.000999633
0.00278549
0.00138871
0.00698833
0.000665831
0.000800468
0.000113302
0.000993745
0.00354644
0.00345088
0.00144923
0.000654045
0.000525001
0.00429758
0.000280221
0.0026635
0.00195505
0.000924817
0.0020755
0.0011723
0.00189692
0.000346204
0.00280582
0.00289282
0.00661859
0.0034046
0.00859726
0.0081141
0.0105035
0.00709428
0.0103988
0.00960244
0.00346039
0.00744497
0.00798798
0.00833441
0.00572059
0.00354436
0.00178189
0.00472534
0.00152964
0.00764561
0.000781377
0.000894141
0.000666739
0.000682704
0.00821095
7.42797e-05
0.00962416
0.000774408
0.00753691
0.000687917
0.000282134
0.00357314
0.000986293
0.00450053
0.000165436
0.00222291
0.00102079
0.00298569
9.83053e-07
0.00161981
0.000864497
0.00244154
0.00399963
0.00458614
0.00665763
0.00484983
0.00443029
0.00456854
0.00703843
0.00666133
0.00345994
0.00464314
0.00619671
0.0054665
0.00401456
0.0042641
0.00555724
0.0039116
0.000909133
0.00355972
1.70488e-05
0.00148767
0.00334311
0.00849798
0.007033
0.0070541
0.00123564
0.00446623
0.00464939
0.00666049
0.00677696
0.00817523
0.00228781
0.00267836
0.00581242
0.00276899
0.000806416
0.00228684
0.00108369
0.000716443
0.00339258
0.00179119
0.00255737
0.00258069
0.00898086
0.0037976
0.00453895
0.00439252
0.00422017
0.00317235
0.00593077
0.0024726
0.00165188
0.00120165
0.00232615
0.000303584
0.0036829
0.001735
0.00285221
0.00452734
0.000489904
0.00233715
0.00754641
0.000978507
0.00714647
0.00224817
0.00441422
0.00464151
0.00509965
0.0039945
0.00111008
0.00556705
0.00216126
0.00157327
0.00032708
0.00279486
0.00322388
0.00301668
0.00270833
0.000903966
0.00472917
0.00305367
0.000392802
0.00244487
0.00134735
0.000108416
0.00367194
0.00057667
0.00535031
0.00136462
0.00324633
0.00183593
0.000570953
0.000719124
0.00120862
2.36639e-05
0.00334334
0.000191859
0.00318065
0.00152256
0.00157555
0.00222647
0.00103005
0.000824774
0.00251389
7.91844e-05
0.000472864
0.00137151
0.000957646
0.00583395
0.000405051
0.00222605
0.00298761
0.00285293
0.00342983
0.00154452
0.00270523
0.000218674
0.00228713
0.00338005
0.000555426
0.00247685
0.00319073
0.00678081
0.00915358
0.00627898
0.00744789
0.0044365
0.00814703
0.00429808
0.00549427
0.00644527
0.00326921
0.00222831
0.00535857
0.00341294
0.000359052
0.00356672
0.00256108
0.000357723
0.00278258
0.00218317
0.00651082
0.00849596
0.00853522
0.00925454
0.00189548
0.00740394
0.00597843
0.00690051
0.00783297
0.0012418
0.00275817
0.00682142
0.00889859
0.0033323
0.00295688
0.00662777
0.0025808
0.0018298
0.00365919
0.00171326
0.00692193
0.00355211
0.00457365
0.00506878
0.00369757
0.00196209
0.00582409
0.00169387
0.00716577
0.0048588
0.00608811
0.000610082
0.00477967
0.00187757
0.00332589
0.00110915
0.000685742
0.00224553
0.000166908
0.000544052
0.00527166
0.00451302
0.00344371
0.000257412
0.00427197
0.00419457
0.00103192
0.00237744
0.00334596
0.00344984
0.00205833
0.00261953
0.0026752
0.00259242
0.00177494
0.00314361
0.00243264
4.61838e-05
0.000302306
0.00208823
0.0026542
0.00300269
0.00783592
0.00648839
0.000426711
0.00541126
0.00497213
0.000358464
0.00124206
0.00363008
0.0014205
0.00221929
0.00604106
0.00268128
0.00396795
3.32305e-05
0.00180072
0.000149731
0.00344277
0.00179383
0.00197937
0.00221282
6.28009e-05
0.00763109
8.40101e-05
0.00296665
0.00195724
0.0022851
0.000461614
0.00312272
0.00223143
0.00370812
3.70825e-05
0.00103435
0.00378084
0.00153874
0.000771268
0.00578616
0.00184324
9.97009e-05
0.00319965
0.00526545
0.000434601
0.00224165
0.000480968
0.00366673
0.00329228
0.00032727
0.00262879
0.000313145
0.00210329
0.000269569
0.00155119
0.00375
0.000308195
0.0031188
0.000888838
0.00208998
0.00396839
0.00218905
0.00191047
0.00037244
0.00307992
0.0027071
0.00131112
0.000388202
0.00554297
2.28353e-05
0.00114179
0.00222673
0.00357795
0.00101811
0.0010615
0.00201902
0.00104491
0.00175706
0.00455097
0.000678483
0.00371039
0.00526634
0.00503183
0.00918136
0.00676871
0.0105663
0.0042177
0.00848628
0.000383958
0.00679776
0.00202191
0.00491734
0.00370341
0.00216538
0.00427433
0.000616377
0.00197148
2.19142e-05
0.00278592
0.00362979
0.00234613
0.000648078
0.00152248
0.000212961
0.00908527
0.0016945
0.00630712
0.000502795
0.00690793
0.000218262
0.000892986
0.00467398
0.000510844
0.0027316
0.000981057
0.00161887
0.00104785
0.00151208
0.000129987
0.00504418
0.00203821
0.000989837
0.00328777
0.00227418
0.00305527
0.000414591
0.00272646
0.00137835
0.00080606
0.00368955
0.00311527
0.00366588
0.00158756
0.00114047
0.00286301
0.00553311
0.00790815
8.02019e-05
0.000972836
0.00274299
0.00152229
0.0029784
0.00717986
0.00370998
0.00308975
0.00131598
0.0043889
0.0064992
0.00792842
0.00502325
0.00662672
0.00191571
0.00381912
0.0043686
0.00120451
0.000508231
0.00369607
0.00125163
0.0033797
0.00402697
0.00129216
0.00098017
0.00465888
0.00525722
0.00460591
0.00356198
0.00358061
0.00364137
0.00386073
0.00306891
0.00157974
0.00182502
0.00542622
0.00184729
0.0024985
0.00370278
0.00037492
0.00753419
0.00199223
0.00111173
0.000588499
0.00250778
0.000976771
0.00204563
0.00399196
0.00509116
0.00429052
0.00254575
0.00149157
0.00108292
0.00278884
0.00314484
0.00442334
0.00434235
0.00243679
0.000228335
0.00150603
0.00642031
0.00216963
0.00139476
0.00276249
0.000924128
0.000515271
0.001794
0.00313824
0.00136275
0.00885647
0.00141552
0.00283082
0.00401396
0.00469887
0.000306428
0.00233202
0.00308192
0.00197563
0.00473322
0.000360724
0.00166313
0.0028016
0.00028309
0.00191927
0.0032923
0.00102966
0.00103169
0.000796796
0.0048872
0.000692708
0.000993715
0.0039701
0.00324454
0.000862989
0.00517776
0.00411655
0.00124651
0.00118774
3.67631e-05
0.00272658
0.000292896
0.000392044
0.00017918
0.00197665
0.000884878
0.00800885
0.00638365
0.0092549
0.00620132
0.0084754
0.00188217
0.001193
0.0055488
0.00171374
0.00282057
0.00280263
0.00373592
0.0029799
0.00451045
0.000887208
0.000189023
0.00105217
0.000610064
0.00171017
0.001342
0.00997481
7.91657e-05
0.011058
0.00186258
0.00524196
0.00403932
0.00147869
0.00205139
0.00231671
0.00112705
0.00107664
0.00063747
0.000982651
0.00359086
0.00124608
0.00149552
0.000974811
0.000621713
0.000823506
0.00442774
0.00173799
0.00214884
0.00578471
0.00485892
0.00421262
0.00508181
0.00332692
0.00121489
0.00160548
0.000310178
0.00328368
0.00258305
0.00238251
0.00303348
0.00199868
0.00100136
0.00402672
0.00133771
0.00138746
0.000399597
0.000797279
0.00597399
0.00247188
0.00489858
0.00493468
0.00398832
0.00443096
0.000295752
0.00240564
0.00101623
0.000130456
0.00226518
0.000884801
0.00082761
0.00490014
0.00523196
0.000605254
0.00192576
0.00124383
0.00044173
0.00198781
0.000300035
0.00250551
0.000561052
0.00204792
3.47139e-05
0.000319701
0.00305294
0.00325064
0.00198773
0.00491463
0.00152917
0.00175565
0.000869784
0.0025485
0.00176726
0.00446834
0.000667286
0.00025359
0.00130367
0.00080458
0.00291503
0.00227077
0.00301512
0.00194034
0.00249009
0.00727232
0.00229539
0.00282027
0.0013944
0.000324927
0.00250793
0.000915779
0.000911748
0.000472941
0.000482677
0.000750795
0.00153634
0.0019158
0.0021526
0.00337154
0.00110029
0.00244884
0.00466387
0.00263468
0.00246118
0.00282176
0.000453658
0.0030133
0.0006315
0.00268253
0.00453186
0.000180089
0.000301219
0.00479237
0.000139614
0.00291784
0.00275793
0.00152265
0.00239154
0.00512997
0.00339661
0.00189893
0.000790349
0.00222767
0.00534946
0.00429449
0.000702606
0.000878283
0.00256478
0.00060095
0.00310671
0.00044907
0.00173597
0.00563665
0.00413549
0.00105844
0.0036411
0.00165659
0.000925579
0.00106375
0.00165523
0.00524468
0.000294402
0.000358039
0.0065435
0.00103822
0.00229092
0.00341092
0.000939317
0.000901681
0.00434712
0.000169603
0.000537479
0.00339814
1.60853e-05
0.00144198
0.00228734
0.00144262
0.000976012
0.000968894
0.000844002
0.00418862
0.000692076
0.00374229
0.00127537
0.00193832
0.00048441
0.000668189
0.000753001
0.000460839
0.00214451
0.000220616
0.00310405
0.000729412
0.00338717
0.00119454
0.00514474
0.00220779
0.00138809
0.000343355
0.0016848
0.00397848
0.00138342
0.00512036
0.00308421
0.00509746
0.00351111
0.000559978
0.000729735
0.00182458
0.00146125
0.00304447
0.0028657
0.000374224
0.00190935
0.00158926
0.00183937
0.00343825
0.00157421
0.0018983
0.00389386
0.00067465
0.00105991
0.00167162
0.000222591
0.00316222
0.00148637
0.00160603
0.000970703
0.00030655
0.00241683
0.00375836
0.00126072
0.00146008
0.000604936
0.00208226
0.00115945
0.00217293
0.00409717
0.00449597
0.00619812
0.00029384
0.00868702
0.00405195
0.00534889
0.00147142
0.00299127
0.00088996
0.0014226
0.00122262
0.00275875
0.00233115
0.00231123
0.000678936
0.000120487
0.000602499
0.00384509
0.000144074
0.00394201
0.00322239
0.00432823
0.0035034
0.00188907
0.000963061
2.5659e-05
9.46578e-05
0.00139304
0.000347732
0.00151412
0.00297642
0.0029076
0.00483977
0.00331781
0.00256698
0.00210628
0.00048627
0.002394
0.000890273
0.00263978
0.00390855
0.0025283
0.000127158
0.000162399
0.00179624
0.00229256
0.00355814
0.00250216
0.00396424
0.00230283
0.00375808
0.00153979
0.00100042
0.00114399
0.00167926
0.00255303
0.00184263
0.000779624
0.00150828
0.00156478
0.00376498
0.00273964
0.00235726
0.00108561
0.000418421
0.00138783
0.00365403
0.0049624
0.00101457
5.26544e-05
0.00324391
0.00239905
0.00309811
0.00226299
0.000101665
0.00236562
0.00164099
0.00112264
0.00226389
0.001193
0.00572777
0.00342526
0.00260569
0.00278198
0.000368389
0.00198083
0.00132883
0.00489824
0.00201781
0.000931014
0.0022926
0.00139884
0.00295205
0.000767866
0.00203253
0.00265167
0.000442389
0.00588733
0.0025851
0.00196268
0.00134713
0.00262318
0.0050506
0.000454571
0.0045933
0.000702607
0.00131574
0.00178055
0.00122263
0.00157141
0.0041843
0.00406024
0.00210578
0.00147038
0.00280348
0.001496
0.00104449
0.00342982
0.00341677
0.00513831
0.00324768
0.00534013
0.00356983
0.000400353
0.00369485
0.000173278
0.000904724
1.36173e-05
0.00224675
0.0070503
0.00281316
0.00165382
0.00169634
0.00411261
0.00109977
0.00369043
0.00243953
0.00303416
0.000555354
0.00313835
0.00216041
0.00233999
0.000292798
0.00622805
0.00228849
0.00328317
0.000499583
0.000929809
0.00126193
0.00208448
0.000346079
0.00184783
0.00174187
0.000409157
0.000820678
0.00129967
0.00620015
0.00122423
0.00766294
0.00124956
0.00256812
0.000804926
0.00205722
0.000179005
0.000852638
0.0027856
0.00311908
0.000386525
0.00334782
0.00172494
0.000738818
0.00161553
0.00196899
0.000225158
0.000481413
0.00233895
0.00340079
0.000244384
1.5498e-07
0.00283432
0.00148404
0.00444045
0.0025672
0.00292331
0.002358
0.00249173
2.88072e-05
0.00132645
0.00075744
0.000450198
0.00038284
0.00463408
0.000251716
0.000620092
0.0028603
0.000353092
5.9506e-05
0.00476803
0.000788601
0.00158997
0.00175154
0.000487722
0.00449261
0.000767048
0.000644995
0.00359606
0.00157212
3.289e-05
0.00297972
0.00367322
0.00283224
0.00265625
0.00244576
0.00124647
0.00137698
0.00618366
0.0020644
0.0063635
0.00191601
0.00255233
0.00611316
3.38786e-05
0.00278088
0.00391777
0.000859252
0.00382678
0.000841821
0.00185015
0.00215989
0.00283402
0.00253891
0.00276067
0.00196895
0.00185158
0.00438607
0.00466801
0.00246419
0.00120571
0.00500313
0.000886802
0.00184698
0.00171591
0.00306945
0.00214094
0.0020035
0.00338052
0.00186983
0.00311006
0.0031163
0.00242649
0.00107172
0.00152101
0.000576007
0.00218921
0.00113713
0.000514892
0.00106792
0.00692071
0.00431533
0.000126253
0.00248617
0.00103922
0.0013525
0.000441534
0.00134366
0.000860417
0.00140172
0.00136343
0.000617218
0.00526112
0.00085095
0.0039534
0.00056077
0.00302386
0.000683979
0.00500645
0.000433079
0.00592957
0.00511454
0.00195849
0.00291856
0.000582866
0.000937159
0.00108996
0.00110652
0.00277091
0.00123463
0.00599953
0.00283708
0.000884883
0.0052742
0.00164758
0.000433902
0.00210746
0.000159261
0.00134688
0.00290136
0.00581548
0.00644407
0.00254577
0.00167113
0.00224466
0.00144694
0.00220848
0.000154149
0.0020379
0.000796574
0.0008875
0.00241001
0.00494404
0.00197013
0.000759782
0.000511946
0.00343292
0.00197517
0.000580004
0.00187115
0.0066434
0.00100325
0.0010573
0.000565107
0.000610932
0.000835607
0.00204683
0.0009844
0.00557363
0.00188747
0.000499585
0.000553201
0.00153096
0.00394868
7.07385e-05
0.00107925
0.00205918
0.000658635
7.07809e-05
0.00061123
0.000762312
0.0022559
0.00228205
0.000633907
0.00123723
0.00179389
0.00104484
0.00170768
0.000560452
0.00269962
0.00400627
0.00470342
0.00233192
0.000372419
0.00064343
0.000755936
0.000789162
0.00184521
0.00165908
5.26376e-05
0.000781674
0.000935565
0.00162179
0.00150075
0.00256411
0.00179879
0.00249365
0.00258439
1.64735e-05
0.00252631
0.00294616
0.00254654
0.00123509
0.00230035
0.00421582
0.00172809
0.00030211
0.000699224
0.000162453
0.000445705
0.00609941
0.000691755
0.00235196
0.000382312
0.00136594
0.0013696
0.00328789
0.00508381
0.00168317
0.000313725
0.000687014
0.00234119
0.000740797
0.000147585
0.00069157
0.00587809
0.00231364
0.000521733
0.000669157
0.00127842
0.00196131
0.00599506
0.00602454
0.00232323
0.0017776
0.00465559
0.000227205
0.0023986
0.00194095
0.0052073
0.00345031
0.00562376
0.00378638
0.00165456
0.00109992
0.00114363
0.000961832
0.000496756
0.00032294
0.00375725
0.00549639
0.0074247
0.0050489
0.000837795
0.00264235
0.00432247
0.00309011
0.00144694
0.00301148
0.00130431
0.00238915
0.00262972
0.00280547
0.00801225
0.00343214
0.000219609
0.00205107
0.00153554
0.00184696
0.00478898
0.00569665
0.00303385
0.0012685
0.00290268
0.00578714
0.00246336
0.00203918
0.0018553
0.00165618
0.000649405
0.000149638
0.00175758
0.00160189
0.000364379
0.000177196
0.00103999
0.00438431
0.00102493
0.00143651
0.00303796
0.00572438
0.00527378
0.0036937
0.00342244
0.00255206
0.000982676
0.00508483
0.000955281
0.00322934
0.00672845
0.00158698
0.00277599
0.00505296
0.00313963
0.00607717
0.00125929
0.00018084
0.00125488
0.000266846
0.0043025
0.00317372
0.00507606
0.000604152
0.00277619
0.00533919
0.00306824
0.00266625
0.00298553
0.00165503
0.00430782
0.00345384
0.00553623
0.00100594
0.00360678
0.00295461
0.00173349
0.000719483
0.000906219
0.00378579
0.00119665
0.00173201
0.00193978
0.00549074
0.00462675
0.00105796
0.00279306
0.00367584
0.00229476
0.00340217
0.00349277
0.000602998
0.00519028
0.00140635
0.00195541
0.00115895
0.00107191
0.000105264
0.00226614
0.00338651
0.00347758
0.00279349
0.000109669
0.000996677
6.0327e-05
0.000921692
1.31488e-05
0.00222504
0.000769186
0.000357892
0.00217653
0.00140736
0.000166037
0.000336766
0.00042322
0.00252337
0.00360468
0.0016663
0.00117219
0.000899398
0.00417317
0.00370544
0.00352176
0.00318477
0.000317997
0.000220379
0.00130534
0.00255498
0.0010699
0.00235624
0.00228851
0.00151971
4.92485e-05
0.000899665
0.00186329
0.00335364
0.000466834
0.000723866
5.84156e-05
0.00268532
0.000646133
0.000314862
0.0124379
0.00593831
0.00023465
0.00138015
0.0013053
0.00454782
0.000674077
0.00247347
0.000300706
0.0055654
0.00219287
0.00812202
0.00674634
0.00411328
0.0083222
0.00406573
0.00263204
0.00201145
0.00667699
0.00465468
0.0057321
0.000688576
0.00369984
0.00156808
0.00279144
0.000392422
0.000874023
0.000927504
0.000422123
0.000342418
0.00164571
0.00417211
0.0014854
0.0021211
0.00174544
0.00325698
0.000239556
0.000953998
0.000758094
0.00518761
0.00303787
0.000630298
0.00180125
0.000421619
0.00136299
0.000250488
0.00178775
0.00127336
0.00212599
0.00352164
0.00405676
0.00366643
0.00489966
0.0048046
0.00388771
0.00423879
0.00154298
0.000543528
0.000531227
0.00347446
0.00395671
0.00204488
0.00221048
0.00414045
0.00387815
0.00335846
0.00234407
0.000647812
0.00324955
0.00250583
0.00724077
0.00539863
0.00659921
0.00313514
0.00305381
0.0010783
0.00517104
0.00408528
0.000346502
0.00133167
0.00436416
0.002576
0.00204941
0.00181971
7.97918e-06
0.0016931
0.00283569
0.00112158
0.000357611
0.00240933
0.00255636
0.00242556
0.00685595
0.00595856
0.000302348
0.00451465
0.00494655
0.00209172
0.000957161
0.00580082
0.00321558
0.00134737
0.00192795
0.00330406
0.00067412
0.00159626
0.00317912
0.00155456
0.00609858
0.00206064
0.00368831
0.0013637
0.00110131
0.00560909
0.0010502
0.00375598
0.00116121
0.00101378
0.000130914
0.00609104
0.000858745
0.0027358
0.000100456
0.000313331
0.00295628
0.00347677
0.0065757
0.00233733
0.0014745
0.00105715
0.00183545
0.00139749
0.00146082
0.00447233
0.00342039
0.000374276
0.000789562
0.000326591
0.00386593
0.00133225
0.00140125
0.000361903
0.00457049
0.000481915
0.00152141
0.00020473
0.00283982
0.00214621
0.000788733
0.0031867
0.00188712
0.000875605
0.00427037
0.00221142
0.00170553
0.00250947
0.00377691
0.000426753
0.000572706
0.00216794
0.0102092
0.00425651
0.00433331
0.000999132
0.00609923
0.00345358
0.00491382
0.00293572
0.00105071
0.00152753
0.00574093
0.00762154
0.00857342
0.00627691
0.00139174
0.00143378
0.00304587
0.00438789
0.00344173
0.00364681
0.00557367
5.33871e-05
0.0053862
0.00116986
0.00107595
0.00158908
0.00329412
0.00108972
0.00310996
0.00169144
0.00214058
0.00509266
0.000174913
0.00497503
0.000906062
0.00193367
0.000352894
0.00100396
0.000991849
0.0067553
0.00641373
0.00615902
0.000642335
0.00225056
0.00298655
0.00512105
0.00467677
0.00121592
0.000258027
0.000565316
0.00403053
0.00795375
0.00057827
0.00640125
0.00513016
0.00303562
0.00203997
0.00314903
0.00676918
0.00621448
0.00250779
0.00575913
0.00123763
0.00179879
0.0041384
0.000537892
0.00169193
0.00119662
0.00106249
0.002348
0.00405767
0.00434109
0.00252506
0.00124055
0.00270952
0.000336822
0.00188541
0.00128336
0.000485421
0.00213662
0.00409214
0.00180986
0.0018995
0.00241557
0.0036064
0.00128403
0.000463616
0.00269925
0.00015624
0.00429302
0.00132847
0.00665766
0.0023939
0.000392314
0.00240891
0.00307782
0.00531583
0.00162981
0.00149035
0.000505847
0.0005669
0.000832203
0.00215032
0.000119537
6.5591e-05
0.000430511
0.00127522
0.00191236
0.000518226
0.00253849
0.00417514
0.00414631
0.00345765
0.00235252
0.00114912
0.000894225
0.00107033
0.00272927
0.00122866
0.000430034
0.000646195
0.0023627
0.00278166
0.00131833
0.00118972
0.000193603
0.000241782
0.00253568
0.0019373
0.00294268
0.00155749
0.0040495
0.000213452
4.05068e-05
0.00172222
0.00151894
0.000294494
0.00416652
0.000271825
0.00244429
0.000964548
0.0026823
0.00368788
0.00388091
0.00234425
0.00132584
0.00276498
0.00197392
0.00454733
0.000141212
0.00144633
0.00383974
0.00188676
0.0051106
0.00129869
0.000986814
0.000492731
0.00576726
0.00168757
0.00305832
0.00711996
0.00768243
0.00142951
0.00060483
0.000535037
0.002896
0.00182193
0.00195464
0.00874657
0.00495077
0.00980713
0.00632335
0.00364195
0.00361935
0.00370193
0.00460202
0.00336843
0.00170682
0.000413209
0.00471993
0.00666553
0.00188638
0.00204525
0.000197545
5.69041e-05
0.00127202
0.00197422
0.00362182
0.00348605
0.00635336
0.0058483
0.00451699
0.00231325
0.00574736
0.00573454
0.00612899
0.00239899
0.0030499
0.0047083
0.0072
0.00453031
0.00343987
0.00406142
0.000561981
0.00182786
0.00392638
0.00253608
0.0020555
0.00341447
0.00566078
0.00356399
0.00220527
0.000595166
0.00170195
0.0016544
0.000749066
0.000605042
0.00487751
0.00119641
0.00564399
0.00558128
0.00409693
0.00482054
0.00413815
0.00348169
0.00166233
0.00168808
0.000575275
0.00330911
0.00251943
0.00660518
3.99797e-06
0.00268621
0.00205162
0.00124632
0.00142825
0.00351017
0.00352234
0.00419089
0.00120836
0.000324797
5.12058e-05
0.00170603
0.00456319
0.00229343
0.000492799
0.00507916
0.00221874
0.00171212
0.00156699
0.000911717
0.00643898
0.00109209
0.00300513
0.00339561
0.00612078
0.00326595
0.000663536
0.00322897
0.0029159
0.0068634
0.00156525
0.00117759
0.00196736
0.00224225
0.000511987
0.00444263
0.00354406
0.00332069
0.0030151
0.00130148
0.00316177
0.000457287
0.00229559
0.00300121
0.00163666
0.00327324
0.00325669
0.00136941
0.00432429
0.00324686
0.00703331
0.00167875
0.000742204
0.000208659
0.000821752
0.00269517
0.00593503
0.000812609
0.00275117
0.00311555
0.00500778
0.00192191
0.00348151
0.00290925
0.00366586
0.000169855
0.00104077
0.00200829
0.00031436
0.00310845
0.00209293
0.000228332
0.00351673
0.00346079
0.00149381
0.00226422
0.00101949
3.70044e-05
0.00141745
0.000449868
0.000411188
0.000481564
0.00130121
0.00375941
0.00196095
0.000980384
0.00295789
0.00251178
0.000997897
0.0110986
0.00646255
0.00411296
0.00491637
0.00179554
0.00378691
0.00559523
0.00521366
0.0071877
0.00329333
0.00573408
0.00240472
0.00520706
0.000450389
0.00611649
0.00537256
0.00324536
0.000285168
0.004411
0.00293283
0.00585959
0.000310948
0.00733778
0.000678085
0.000517507
0.000532489
0.00169881
0.000622748
0.000239069
0.000275551
0.000707872
0.0034858
0.000377557
0.000988081
0.000172268
0.000761705
0.000747784
0.0038005
0.000335872
0.00667259
0.0036807
0.00129621
0.00818905
0.000865326
0.0052878
0.00238174
0.00507172
0.00281867
0.00325901
0.00305991
0.00255435
0.00685053
0.00330493
0.00112126
0.00190978
0.00200553
0.00344314
0.00127634
0.00478298
0.00194309
0.00799156
0.0066247
0.00356934
0.000363741
0.0016457
0.00291072
0.000397891
0.00131889
0.00274876
0.00408422
0.000809881
0.000837869
0.00417602
0.004714
0.00224742
0.00101681
0.00350346
0.00290708
0.00252146
0.00680951
0.00357567
0.00601732
0.00260977
0.000320721
5.65181e-05
0.000668317
0.000974959
0.00105593
0.00225094
0.00210073
0.00430957
0.000814852
0.00282576
0.00718449
0.00292569
0.00246286
0.0010911
0.003228
0.00152683
0.00319792
0.000129563
0.00137208
0.00170841
0.00449653
0.00301831
0.00165894
0.00217386
0.00259746
0.0017158
0.00141899
0.000440895
0.00654666
0.00318051
0.00378347
1.1097e-05
0.00115842
0.00224725
0.003325
0.00130499
0.0031733
0.000595294
0.000180896
0.00113537
0.00267917
0.000422952
0.00213475
0.00456163
0.00138148
0.00276596
0.00270538
0.00049754
0.00335061
0.00371121
0.000283728
0.000983862
0.00147389
0.00266752
0.00225209
0.00105221
0.000504893
0.000761399
0.00370772
0.000719976
0.00150763
0.000129041
0.00152555
0.00170842
0.00164494
0.00436096
0.00386961
0.00200245
0.00375131
0.00379272
0.00446031
0.00210435
0.00205151
0.000614442
0.00221501
0.00455929
0.000165271
0.00973719
0.00655768
0.00686203
0.00496768
0.0012954
0.000748916
0.0015055
0.00731283
0.00332359
0.00230742
0.00648397
0.00664721
0.0045306
0.000134173
0.00262597
0.00061089
0.00198517
0.00321217
0.00274351
0.00138762
0.00703391
0.00506504
0.00209892
0.00168108
0.000655932
0.00325993
0.00156021
0.00129063
0.00482833
0.000429387
0.000451663
0.00204665
0.00365844
0.00248663
0.00715747
0.000140456
0.000162968
0.00326382
0.0004246
0.00315756
0.00608718
0.00509521
0.00143914
0.00107617
0.00026001
7.91932e-05
0.00319661
0.00749506
0.002783
0.00200441
0.00172922
0.000574242
0.00145478
4.90375e-06
0.00184292
0.0004756
0.000962969
3.5337e-05
0.00466993
0.00642589
0.000590056
0.00115123
0.00242002
0.000797258
0.00181002
0.00311787
0.00284023
0.00308734
0.00157784
0.00436394
0.00545181
0.00323853
0.00213993
0.000654742
0.00250541
0.000132967
0.000508616
0.00260277
0.00192324
0.00186859
0.00586538
0.000713688
0.000126796
0.00221359
0.00121646
0.00178522
0.000153164
0.00633075
0.00609691
0.000983102
0.00145453
0.00056878
0.000751964
0.00295237
0.00106904
0.00493503
0.000870146
0.00121108
0.00384959
0.00207926
0.00020208
0.00529491
0.00210546
0.00267408
0.000536349
0.00187186
0.00163665
0.00398957
0.00317903
0.000346693
0.0074483
0.00264262
0.00160004
0.00107473
0.000586107
0.000327947
0.00103799
0.00178834
0.0015506
0.00603571
0.0012071
0.00396695
0.00177534
0.000960911
0.00150732
0.0005995
0.000840725
0.00185115
0.00224673
0.00455766
0.000241092
0.000816085
0.00150335
0.00183981
0.00121709
0.00228363
0.00177794
0.00236906
0.00101624
8.04163e-05
8.0977e-05
0.000362926
0.0063016
0.00106279
0.00117435
0.00651615
0.000233541
0.00347016
0.00450547
0.000584899
0.00496361
0.00180835
0.000496131
0.000122857
0.00904012
0.00764011
0.00152481
0.00237067
0.000394771
0.00169025
0.00614368
0.00514049
0.00476419
0.00257148
0.0011614
0.00129954
0.0020395
0.00170864
0.00241325
0.000657456
0.00158953
0.00397746
0.00623242
0.000829879
0.00122557
0.000412926
0.00320126
0.000633028
0.00267048
0.005547
0.00790167
0.000475727
0.00285575
0.000330754
0.000960632
0.000800411
0.000583283
0.000523766
0.000198823
0.000269842
0.000253619
0.000215133
0.000440927
0.00013826
0.00170238
0.00215095
0.000322722
0.0011972
0.000685841
0.00364702
0.00421995
0.00375047
0.00154845
0.000409847
0.000224698
0.000344217
0.00245348
0.00256395
0.0019856
0.00157339
0.00458625
0.00149873
0.00099898
0.00201048
0.00070552
0.00545968
0.00059325
0.00160439
6.4257e-05
0.00536272
0.00282489
0.002601
0.0028234
0.000842525
0.00405244
0.00233995
0.0047789
0.00546939
0.00118736
0.000568183
0.000963001
0.00199045
0.000914808
0.000800518
0.00338074
0.00381236
0.00167475
0.00140859
0.000125522
0.00462244
0.00981095
0.00111622
4.6293e-05
0.00513198
0.00245527
0.00105841
0.00411682
0.00183217
0.00123958
0.000448326
0.00820621
0.000445565
0.000638372
0.00211346
0.00607045
0.000602563
0.00341193
0.0029781
0.00242272
0.00149335
0.00242622
0.00139026
0.000144383
0.00183095
0.00246752
0.000528778
0.00346752
0.0023768
0.00262598
0.00821188
0.00447096
0.000832256
0.00441827
0.000704936
0.00101585
0.00256858
0.00110991
0.000516975
0.000190124
0.00226827
0.00157954
0.00312448
0.000703841
0.0018431
0.000482156
0.00100456
0.00093356
0.00239305
0.0014885
0.00298709
0.00461857
0.00188564
0.000328534
0.00245004
0.00137366
0.00521773
0.00142188
0.000119501
0.000805465
0.00338513
0.000948062
0.00656664
0.000841641
0.000652835
0.00128443
0.000374671
0.00278011
0.00285696
0.000141899
0.00406064
0.0014239
0.00270524
0.000986222
0.00109083
0.00176284
0.00392972
0.000187825
0.00162032
0.00126046
0.00226528
0.00659591
0.00293038
0.0043405
0.000111682
0.00125868
0.00295723
0.00156229
0.00409054
0.00507859
0.00236895
0.0018005
0.00513402
0.000478809
0.00500814
0.00237557
0.00323416
0.00262704
0.000970262
0.00149019
0.00172415
0.00372263
0.00140287
0.00750985
0.000156466
0.00154228
0.00242512
0.000697221
0.00369682
0.00235806
0.00182558
0.00550732
0.00358656
0.000805288
0.00108018
0.00017268
0.00173707
0.0017713
0.00103649
0.00220827
0.00258578
0.0056999
0.00526644
0.00303317
0.00519613
0.00130947
0.00139119
0.00160122
0.00248057
0.000898641
0.00326534
0.000832866
0.00222801
0.00287156
0.000453932
0.00120066
0.0025632
0.000115299
0.00136308
0.000173177
0.000547701
0.00119979
0.000466957
0.00322732
0.0038282
0.00425975
0.000403064
0.00146139
0.00267739
0.00427221
0.00118799
0.00200574
0.00061302
0.0040748
0.00235137
0.00318194
0.000893186
0.000434287
0.00244306
0.00145412
0.000430036
0.00313355
0.00236466
0.000843929
0.00157
0.000565574
0.00354679
0.00227036
0.00289789
0.00259743
0.00146654
0.0002039
0.00296074
0.000320207
0.00078135
0.00175644
0.00210461
0.00128345
0.00241057
0.00048677
0.00116619
0.00300211
0.00160812
0.000833637
0.00121528
0.00190478
0.000274317
0.00143014
0.000194732
0.00189059
0.000741146
0.00135622
0.00387236
0.00238883
4.38201e-05
0.000320479
0.00296374
0.00260756
0.00307978
0.000309664
2.64323e-05
0.000218558
0.000334174
0.00304715
0.000340509
0.00244741
0.000851979
0.000115494
0.00209949
0.00122503
0.00109863
0.0035888
0.00124575
0.00555236
0.00132188
0.000980461
0.00106103
0.00238839
0.000504576
0.00102335
0.00394929
0.00222468
0.000869642
0.00085667
0.0029853
0.000506964
0.00289842
0.00373108
0.00233548
0.00137288
0.00324581
0.00198741
0.00262697
0.000187107
0.000559808
0.00159017
0.00176867
0.000348777
0.00219593
0.00226877
0.00259743
0.00456243
0.00341477
0.00498857
0.00501097
0.000357023
0.000899466
0.00109831
0.00177809
0.00723256
0.00199912
0.000202347
0.00401388
0.00204247
0.00266308
0.00477769
0.000913458
0.00557861
0.00503006
0.00113118
0.00418922
0.000549737
5.20597e-06
0.00163197
8.6596e-05
0.00128485
0.00107757
0.00148866
0.000996418
0.00463284
0.00102412
0.00178297
0.00170202
0.00031232
0.00123559
0.00226642
0.00397648
0.000724423
0.000709339
0.000289092
0.00277108
0.00399288
0.00670334
0.000813419
0.000131574
0.00030985
0.000918566
4.99722e-05
0.0016005
0.00128548
0.00055422
0.00107423
0.00171743
0.00171542
0.00214754