/*--------------------------------*- C++ -*----------------------------------*\
| =========                 |                                                 |
| \\      /  F ield         | OpenFOAM: The Open Source CFD Toolbox           |
|  \\    /   O peration     | Version:  2212                                  |
|   \\  /    A nd           | Website:  www.openfoam.com                      |
|    \\/     M anipulation  |                                                 |
\*---------------------------------------------------------------------------*/
FoamFile
{
    version     2.0;
    format      ascii;
    arch        "LSB;label=32;scalar=64";
    class       volScalarField;
    location    "0";
    object      stateMean;
}
// * * * * * * * * * * * * * * * * * * * * * * * * * * * * * * * * * * * * * //

dimensions      [0 0 0 1 0 0 0];

internalField   nonuniform List<scalar> 
3200
(
325.931
324.26
323.993
325.197
326.499
326.427
327.536
327.369
326.537
326.949
326.654
328.665
327.13
326.272
327.992
326.159
324.699
326.406
326.382
325.691
322.743
322.088
321.229
322.289
321.896
322.511
321.511
323.308
323.365
323.408
324.532
322.348
323.728
324.271
321.636
321.41
324.227
322.849
321.828
321.344
319.285
319.048
319.456
318.057
317.684
319.202
318.539
319.27
321.987
319.407
320.161
320.041
320.115
320.483
318.829
318.888
318.463
318.052
318.409
319.837
314.465
314.881
315.409
314.822
315.717
315.055
315.291
315.186
316.449
316.712
317.601
314.613
316.221
316.34
316.049
316.35
314.685
314.817
316.292
314.579
311.826
311.712
310.601
311.633
312.83
311.593
312.521
310.319
312.762
314.299
314.858
312.212
312.986
313.093
313.603
311.686
311.525
312.204
311.676
312.696
307.6
308.666
309.216
307.695
308.826
308.665
307.434
309.258
308.784
309.016
310.519
309.012
308.615
308.501
309.727
309.824
308.17
309.657
309.414
309.793
305.431
305.677
305.686
304.4
306.794
304.782
304.161
305.912
305.661
305.718
305.177
305.042
304.536
305.329
306.323
306.7
305.19
306.077
305.636
304.405
301.344
299.679
302.024
302.104
301.936
302.241
300.906
300.965
302.467
301.843
302.2
303.327
301.922
302.781
301.351
302.181
301.235
302.177
302.36
301.867
326.706
325.261
324.569
326.192
325.078
325.811
325.555
327.125
326.361
326.795
328.821
327.335
326.83
326.269
326.597
326.735
326.723
325.188
325.706
328.283
322.216
322.529
323.056
323.548
321.617
324.805
322.113
325.381
323.46
325.842
325.974
324.751
325.312
323.779
324.727
323.559
323.438
322.307
322.818
322.99
318.82
318.606
318.49
318.72
318.485
319.487
320.01
320.293
319.736
319.982
321.013
320.507
319.769
319.677
319.755
319.253
318.409
318.518
319.096
320.232
315.677
316.386
315.171
313.881
314.695
315.032
317.197
316.437
316.574
316.037
316
315.453
317.13
316.738
315.426
316.046
316.316
315.505
316.258
315.908
313.294
312.975
311.857
312.115
310.385
312.277
312.29
312.544
312.749
313.157
312.291
313.297
313.404
314.091
312.738
313.293
311.771
312.115
311.524
313.649
308.611
308.167
306.73
309.555
307.237
308.944
308.449
308.527
308.493
308.892
309.787
308.348
309.296
309.33
309.539
308.583
308.255
308.13
309.726
308.483
306.715
306.279
305.57
304.817
305.27
305.764
307.027
305.817
304.42
306.51
305.098
306.62
306.168
306.124
306.167
305.675
304.542
305.391
306.318
305.736
301.293
302.465
301.517
301.617
301.147
301.92
301.837
302.424
301.743
303.805
302.165
301.36
301.108
302.842
302.98
301.44
301.049
301.762
301.103
302.788
325.769
325.549
325.832
325.218
325.014
326.521
326.655
328.084
327.179
328.615
328.221
327.74
328.469
328.373
326.823
326.897
327.32
325.709
327.193
326.067
321.708
322.245
321.291
321.132
321.616
321.869
324.71
323.295
324.034
323.879
323.574
326.388
324.809
323.108
321.985
323.304
322.926
321.254
322.117
323.196
320.381
318.951
317.661
319.149
319.243
319.496
320.317
321.195
320.183
321.636
319.873
320.494
319.867
321.31
319.589
320.108
319.222
320.23
319.279
319.93
315.831
315.836
314.647
315.223
315.906
317.255
316.291
316.577
318.428
317.444
317.136
317.003
317.256
316.816
316.488
316.176
316.09
315.321
315.239
315.763
312.216
313.14
311.895
312.047
310.801
311.485
313.895
312.265
312.55
314.303
314.58
312.972
314.41
313.065
311.625
312.416
311.745
312.735
311.924
312.263
309.879
308.387
309.723
308.614
309.471
307.315
309.824
309.076
309.494
309.448
310.3
309.133
309.304
308.701
309.689
309.17
308.129
309.587
309.179
310.603
304.74
305.348
304.503
303.983
305.574
305.134
305.777
304.889
305.066
306.007
306.912
306.17
305.367
305.842
305.346
304.561
305.686
304.527
305.107
304.665
300.581
301.143
301.261
301.764
302.844
301.135
302.383
301.899
303.711
302.041
301.703
302.71
300.935
301.68
301.631
302.524
302.191
302.368
303.178
301.574
327.398
324.866
325.445
324.631
325.979
325.275
327.864
326.879
329.858
327.904
329.48
328.362
328.456
328.54
327.344
327.998
326.993
327.084
327.496
327.372
323.57
322.94
323.092
324.128
321.597
324.469
323.403
325.987
323.836
326.158
326.52
324.565
325.989
324.567
325.339
324.021
323.719
323.096
323.191
324.441
320.04
319.984
318.983
319.707
319.867
321.115
320.739
321.482
321.89
321.079
321.264
320.969
322.437
321.249
320.328
319.072
317.902
320.009
319.357
320.265
315.442
315.206
314.175
315.6
316.13
317.02
316.344
315.925
315.652
316.673
316.163
317.565
316.778
316.351
317.056
316.949
315.604
316.051
315.08
317.195
312.827
312.29
311.371
311.436
311.901
312.481
312.708
312.886
312.958
313.282
313.75
313.598
312.325
313.252
314.382
312.184
312.965
310.471
311.973
312.77
309.079
308.244
308.883
308.733
308.317
308.158
308.572
309.253
309.68
310.533
311.062
309.168
308.671
308.556
310.49
309.624
308.9
307.2
309.689
308.466
306.196
305.143
305.681
305.085
304.785
305.437
303.245
305.606
306.967
304.903
304.694
306.194
306.753
305.012
305.25
307.192
305.743
306.032
306.281
305.266
301.216
300.826
301.542
301.578
301.686
303.44
302.206
301.725
300.847
301.077
302.318
300.482
300.782
301.621
302.323
301.938
302.712
301.941
301.702
301.849
327.153
327.182
324.76
325.817
325.41
326.936
326.666
329.241
330.549
328.476
329.743
329.224
328.938
328.227
327.996
326.969
327.619
327.32
327.237
326.309
322.539
323.852
320.609
324.27
321.173
324.613
323.929
324.668
325.756
325.701
325.615
325.87
325.634
325.428
324.899
323.598
323.892
323.355
323.103
323.293
319.889
318.48
319.694
319.949
319.176
319.855
320.414
320.427
321.206
321.999
322.909
322.178
321.006
320.938
320.651
320.059
319.997
319.93
321.184
320.054
315.679
316.209
316.877
315.048
316.48
316.022
316.297
316.838
316.871
318.279
317.607
317.958
318.148
317.146
317.297
317.001
315.388
314.968
316.144
316.727
312.186
312.88
312.345
313.306
312.678
313.532
313.288
314.129
314.354
313.365
313.303
314.879
312.574
313.451
313.157
313.19
312.414
313.52
314.139
312.366
308.928
308.721
309.035
308.557
308.936
308.879
309.372
310.879
307.947
309.542
309.379
310.636
310.006
310.75
310.097
309.357
309.313
309.135
308.892
309.481
304.832
306.146
304.554
306.025
305.048
304.475
305.191
305.325
305.272
306.027
305.243
306.329
306.899
304.61
305.847
305.705
304.224
305.627
306.379
306.259
301.357
301.119
303.422
300.883
301.371
301.74
302.685
300.422
303.355
301.856
301.803
301.283
302.22
301.074
302.115
301.42
303.61
300.625
301.522
302.916
327.453
326.978
327.401
327.713
327.046
329.366
329.607
327.947
330.039
329.77
331.654
330.692
329.809
328.292
329.325
328.947
327.141
327.745
326.809
327.659
323.909
324.072
324.474
324.324
323.682
325.251
324.651
325.784
325.805
326.405
326.345
326.684
326.05
325.171
325.548
324.034
324.361
323.062
323.369
325.106
320.63
319.74
320.415
320.353
319.993
321.191
320.321
321.254
324.093
321.422
322.374
322.214
322.836
321.5
320.657
320.35
320.774
319.913
319.675
320.512
317.45
316.074
317.451
315.917
317.246
318.095
318.563
318.329
319.43
318.982
319.021
318.114
318.356
317.262
316.564
317.86
316.689
316.658
315.913
315.995
313.446
314.209
314.55
311.435
313.525
311.123
312.787
312.556
314.828
313.491
314.712
314.812
313.853
313.194
313.117
312.892
313.59
313.18
312.738
313.969
309.187
310.475
308.413
308.238
308.664
310.499
309.767
310.184
310.312
309.899
310.223
309.813
309.269
309.164
311.414
308.721
308.783
310.062
309.106
308.402
305.227
304.76
304.465
306.533
305.902
306.012
306.603
306.831
305.095
305.446
304.998
306.889
307.279
305.582
305.656
306.213
305.247
304.88
305.004
305.737
302.3
302.339
300.761
302.759
301.255
301.672
301.904
301.637
303.178
300.585
302.39
302.058
303.036
302.755
301.064
301.284
301.901
301.184
302.362
302.184
328.139
328.143
330.079
327.553
328.307
330.552
330.184
329.764
331.115
332.43
331.478
330.984
331.177
330.524
328.662
328.912
328.011
329.069
327.897
329.326
324.704
324.803
324.115
324.115
323.745
325.943
327.663
326.702
327.125
327.394
327.212
327.208
327.839
324.841
325.109
325.866
324.056
325.038
323.828
324.978
321.378
322.18
321.9
319.494
320.417
322.038
323.412
322.538
322.961
322.772
323.493
324.944
323.389
322.754
321.363
322.887
321.562
319.674
321.315
321.256
316.835
315.865
316.438
316.667
317.609
316.003
317.51
319.497
318.445
318.981
318.283
319.268
318.341
318.826
318.537
317.572
317.67
317.535
318.824
317.047
315.395
312.76
314.161
313.327
314.452
313.968
314.491
315.264
315.488
314.692
315.623
313.964
314.156
313.715
313.406
313.735
313.428
314.089
312.086
312.921
309.308
310.294
309.104
308.347
309.088
309.134
309.451
311.073
310.376
310.842
310.195
310.525
310.419
311.619
309.962
310.076
308.836
309.454
309.435
310.783
305.84
306.15
305.216
305.996
304.57
306.273
305.926
305.093
305.764
306.282
307.185
307.37
305.327
306.936
306.786
305.563
306.268
307.643
305.033
307.544
301.3
301.129
300.083
301.951
301.154
303.208
302.314
303.234
301.841
301.545
301.451
301.239
302.845
301.22
302.62
301.435
303.285
303.338
302.644
301.514
329.613
328.599
328.124
329.748
328.628
330.785
329.814
331.924
331.662
332.197
332.199
331.846
330.451
330.979
330.268
330.362
329.557
328.562
328.659
330.242
325.767
324.693
325.824
325.746
325.362
326.327
326.088
326.531
326.56
327.571
326.923
328.738
327.09
327.818
326.366
326.788
325.631
326.643
324.511
326.29
322.349
320.316
322.191
321.771
322.22
321.888
322.887
321.877
323.344
324.973
323.951
323.231
324.473
323.061
322.379
322.596
321.533
321.686
321.876
322.574
319.05
316.389
317.978
317.006
317.532
317.552
318.443
319.339
319.085
318.622
319.674
320.407
319.318
318.734
318.092
316.9
317.091
317.264
317.791
319.113
313.583
313.084
313.433
314.012
313.77
314.88
314.731
312.822
315.279
314.586
314.917
315.167
315.817
314.399
314.576
313.385
313.613
313.588
313.223
313.03
308.805
310.313
309.549
309.512
309.491
309.869
309.795
310.26
311.351
311.798
312.015
311.237
310.318
310.525
310.427
309.802
309.323
310.259
309.622
309.261
306.002
305.282
306.32
306.735
306.593
305.367
305.418
306.28
307.096
305.444
307.127
306.7
306.98
304.918
306.659
305.95
306.165
305.811
305.914
303.851
301.709
301.228
302.081
301.583
302.441
303.049
303.619
302.613
302.026
301.921
301.422
301.897
302.15
301.874
300.28
301.328
302.154
302.168
302.324
301.326
330.604
330.934
328.585
329.187
328.661
330.68
330.178
331.918
333.219
332.751
333.472
332.748
331.823
331.336
330.983
330.516
329.609
329.456
330.188
330.44
327.357
326.855
325.829
326.783
327.701
325.634
326.488
328.208
327.838
328.292
328.371
328.33
329.845
328.083
326.571
326.96
326.422
324.955
326.77
326.795
322.173
321.831
322.646
323.886
323.127
321.973
323.499
323.657
323.491
323.316
323.932
323.799
323.24
322.957
322.967
323.746
321.692
321.25
322.399
323.038
319.084
316.417
318.913
318.891
318.646
320.197
319.102
320.008
321.255
318.669
320.062
320.72
319.979
320.734
318.176
318.391
318.478
317.91
316.224
318.417
315.175
313.531
313.033
312.424
315.263
313.65
315.598
314.279
316.259
316.042
316.698
315.219
315.935
315.589
315.034
314.073
314.386
315.092
314.096
314.126
310.329
308.124
308.522
310.424
311.105
311.514
311.208
311.653
309.583
310.519
312.319
311.105
311.203
310.855
310.706
310.205
310.799
308.906
310.902
310.593
305.818
306.215
305.97
306.354
306.161
306.92
306.076
306.482
305.749
306.869
306.387
306.313
306.242
307.085
305.135
305.647
305.713
306.263
307.187
306.985
303.026
302.944
301.913
302.104
301.671
302.865
302.44
302.849
301.461
301.701
302.145
302.424
301.574
301.104
302.234
302.284
302.019
302.82
301.787
301.868
333.484
331.644
329.981
330.908
330.414
332.727
331.78
332.655
331.932
333.983
332.863
334.729
334.073
332.921
333.977
332.191
331.322
330.722
331.887
330.92
327.465
326.076
327.38
327.026
327.768
327.052
327.186
328.016
327.745
327.86
328.512
329.251
328.199
328.167
327.751
325.791
326.592
326.484
325.605
327.288
322.734
322.169
322.817
322.389
322.374
323.008
323.913
323.126
324.371
324.898
325.071
324.87
325.123
324.888
324.345
324.182
322.027
322.062
322.137
322.875
319.126
318.686
318.961
319.812
319.965
320.025
319.903
319.528
320.477
320.302
321.814
321.164
321.428
320.156
319.928
319.073
320.14
319.557
318.146
318.291
315.31
314.879
314.885
314.996
314.611
315.316
315.832
314.715
315.047
315.968
316.015
315.924
317.228
316.816
314.878
316.028
315.979
314.898
314.371
315.761
308.986
310.493
310.795
311.353
310.25
311.08
309.708
310.305
312.75
310.247
312.035
311.278
311.13
312.439
310.91
311.625
309.968
309.883
310.034
311.871
305.742
306.897
306.102
306.308
307.196
307.431
308.448
307.204
306.98
306.872
307.111
306.956
306.04
305.063
307.414
306.406
306.454
306.033
307.243
306.413
301.591
302.142
303.438
302.23
302.57
302.197
303.016
302.825
302.427
301.233
301.626
301.924
303.466
302.826
302.65
301.352
303.225
302.186
301.86
302.669
333.603
331.919
332.292
331.554
333.608
333.075
333.869
333.464
333.017
333.268
334.67
335.202
335.339
334.321
332.391
332.061
332.232
332.31
331.65
331.436
328.154
326.589
328.632
327.57
327.853
328.32
329.146
327.925
329.459
329.075
329.222
330.111
328.34
329.697
327.502
328.134
327.302
327.199
326.896
328.539
324.45
324.565
322.623
323.824
324.329
325.272
325.355
324.418
324.072
324.407
325.531
326.734
323.837
325.913
325.275
324.345
322.438
323.847
324.762
324.385
319.179
320.374
318.35
319.537
317.859
319.559
320.111
320.104
320.168
320.635
321.182
321.216
320.528
319.966
320.252
319.288
318.362
319.153
318.384
319.061
315.627
315.031
314.024
315.551
316.097
314.716
315.41
316.232
315.416
316.862
315.089
317.565
316.136
315.14
315.88
315.93
316.464
315.135
314.931
314.5
310.094
310.098
311.138
310.628
310.692
310.693
310.532
310.417
311.233
311.893
312.402
312.362
312.087
311.66
311.184
310.434
310.923
309.623
310.737
310.137
306.376
306.953
307.149
306.774
306.808
306.453
306.499
307.4
306.065
307.58
307.156
307.901
306.688
306.585
305.984
306.908
306.46
307.573
306.146
306.926
301.781
302.899
303.226
300.964
301.453
301.783
303.041
301.625
303.608
302.283
302.677
303.395
302.792
303.749
302.576
301.863
301.988
303.854
302.599
302.996
333.529
333.977
332.227
332.29
332.6
333.699
333.621
333.892
336.319
335.138
336.758
335.511
334.455
334.219
333.967
333.952
333.208
332.319
331.568
332.734
329.334
327.991
328.321
327.877
328.249
328.084
329.392
330.131
330.227
331.244
331.078
330.566
328.179
330.632
330.386
330.242
328.729
328.65
328.914
329.509
324.541
324.372
324.807
323.558
324.576
325.487
325.241
325.251
325.812
326.602
325.921
325.419
324.777
324.97
324.75
324.227
323.544
325.071
323.647
324.9
320.732
320.406
320.828
320.813
318.577
319.346
320.585
319.998
321.339
321.136
322.445
320.278
321.042
320.702
320.277
319.233
320.612
320.414
320.436
319.337
314.888
314.915
314.51
313.766
316.082
315.35
317.238
316.442
316.357
316.35
316.143
317.85
316.086
314.686
316.576
317.289
316.233
315.256
315.916
315.704
312.721
311.155
311.14
311.498
310.3
311.261
312.578
312.373
312.358
310.413
311.757
312.308
311.412
311.909
312.036
311.506
311.904
311.786
310.244
311.932
305.375
308.572
305.966
306.776
306.55
306.425
305.906
308.599
306.562
307.672
307.784
308.347
306.188
307.801
307.569
307.738
306.6
306.8
307.032
306.274
301.198
301.521
302.105
303.259
301.173
302.691
302.942
301.966
302.295
302.718
302.154
302.408
302.42
301.865
303.376
302.812
301.9
301.28
301.394
301.835
335.893
334.595
334.112
334.69
333.955
334.904
335.761
335.84
336.645
335.419
336.235
335.047
335.838
334.043
335.682
335.147
334.134
332.838
333.913
333.18
329.976
328.36
330.925
329.005
328.875
329.467
330.07
329.893
329.892
329.788
330.113
330.963
329.564
329.836
329.349
329.296
328.536
329.763
328.368
330.243
325.035
323.592
326.883
324.735
326.394
325.66
326.72
326.138
326.387
326.378
326.213
327.556
326.296
325.435
325.506
325.328
325.571
324.642
325.562
324.472
322.134
321.835
321.034
320.194
320.787
321.364
320.454
320.282
321.674
322.147
320.577
321.061
322.044
322.093
321.151
320.586
321.199
318.962
320.523
321.756
316.403
317.279
316.341
315.561
315.821
316.147
316.362
315.816
316.929
316.916
317.615
316.475
317.043
318.325
316.86
316.581
316.006
316.536
315.863
316.284
310.98
311.441
310.58
309.815
312.256
311.928
312.172
312.372
312.147
312.079
311.774
313.652
312.554
312.674
311.414
311.677
311.913
310.078
310.608
311.927
306.398
306.68
307.031
307.567
306.936
307.518
305.514
306.531
307.833
307.83
307.152
305.955
308.094
307.001
306.561
306.354
307.563
305.992
306.948
306.736
302.438
303.343
302.024
301.807
302.244
301.841
302.835
302.83
303.662
301.178
302.953
301.209
303.48
303.667
302.938
301.663
302.449
302.911
300.844
302.258
336.581
335.745
336.122
335.774
334.824
334.9
335.38
337.51
336.304
336.031
337.431
337.418
336.578
334.831
335.528
334.595
334.777
332.759
334.473
333.798
331.352
330.895
330.154
330.261
330.163
329.095
330.883
330.954
332.236
330.84
330.847
331.317
331.736
331.19
332.534
329.993
329.761
330.537
329.367
330.077
326.654
326.49
325.501
325.591
325.529
325.607
326.841
328.378
326.937
326.733
325.515
326.217
326.409
325.798
326.233
325.599
325.554
325.022
326.352
326.764
320.455
320.761
321.33
320.98
321.471
322.046
322.093
320.3
321.877
322.813
323.162
322.411
321.98
321.391
320.241
320.847
320.887
321.388
321.008
320.864
317.664
316.133
316.074
315.466
315.91
315.851
316.474
318.612
318.599
317.011
317.161
316.848
316.846
317.456
316.078
317.856
315.891
315.651
317.124
316.469
311.386
313.041
312.137
310.743
311.501
311.17
312.34
310.647
310.943
311.849
314.281
312.759
312.39
312.165
311.571
311.566
311.899
312.038
311.875
313.202
307.181
308.069
306.361
306.668
306.555
307.254
306.857
306.583
306.488
308.592
307.118
306.927
306.69
306.55
307.444
307.719
306.417
306.179
306.54
306.786
302.309
302.409
304.222
302.656
301.999
304.341
302.458
303.448
303.77
302.589
303.913
302.955
302.549
302.35
299.638
304.664
301.874
303.034
302.18
301.774
336.614
336.486
336.612
336.136
335.915
336.195
336.648
336.702
337.054
336.524
336.838
337.58
338.223
336.242
336.17
335.664
336.347
334.804
335.659
336.415
332.711
330.434
331.437
330.826
331.253
330.872
331.508
331.631
331.624
331.521
331.694
331.629
331.311
331.361
330.573
331.647
330.824
330.097
330.504
331.307
326.957
326.949
326.415
326.233
326.357
326.343
327.406
327.564
326.162
327.369
328.354
327.301
327.052
327.262
326.685
328.065
325.906
326.433
325.706
327.329
321.916
321.96
322.181
321.158
322.883
322.473
323.381
323.703
322.393
322.23
322.357
321.37
321.647
322.101
320.632
322.806
320.891
321.727
321.085
322.493
319.495
316.833
316.61
318.341
317.611
316.607
315.733
317.696
316.776
317.339
319.8
317.31
317.317
316.368
318.866
317.024
317.797
317.538
317.247
315.919
312.494
311.368
311.928
312.541
312.823
312.296
311.117
312.997
311.473
314.878
313.709
312.033
313.635
312.42
311.814
312.855
312.316
311.722
311.86
312.445
306.576
308.058
307.364
307.765
307.102
307.606
307.625
308.107
306.936
308.324
308.826
306.814
307.472
308.091
306.875
305.647
306.762
307.111
307.345
306.022
302.081
304.367
302.653
302.218
302.044
302.561
303.302
301.608
302.523
301.256
302.915
301.662
302.77
302.131
302.981
301.244
302.472
302.888
302.762
303.053
338.087
337.046
337.751
336.564
336.33
337.961
337.675
338.676
339.113
336.653
338.06
339.131
337.458
335.46
336.165
337.843
335.642
335.965
335.56
336.451
332.477
331.87
334.093
331.755
332.517
332.993
332.578
331.245
333.348
333.217
334.442
333.757
332.742
332.705
332.13
332.582
331.219
331.947
332.137
330.387
328.413
328.405
327.843
328.723
326.764
327.801
326.957
328.402
327.371
326.634
327.977
328.395
326.648
327.63
326.953
326.353
327.062
326.406
326.628
326.731
321.418
321.761
321.008
323.421
323.698
322.582
323.033
323.515
324.092
323.128
322.098
322.515
321.336
321.804
321.426
322.037
322.328
322.834
322.379
321.666
318.003
317.842
317.466
317.806
317.234
316.387
316.878
318.589
318.541
318.207
317.676
318.657
317.77
317.847
316.955
316.746
316.901
316.433
317.246
316.64
311.244
312.741
312.575
312.773
313.064
312.626
313.048
312.589
313.276
312.935
313.127
313.896
313.397
312.587
312.64
311.543
311.578
311.353
312.336
312.173
307.26
307.259
306.47
307.559
306.747
307.804
307.615
308.255
307.252
307.302
308.744
308.012
305.901
307.986
307.844
307.826
308.188
307.562
307.047
308.541
303.131
302.206
302.744
301.597
302.669
303.407
303.671
301.845
302.144
301.581
301.962
301.764
302.495
302.711
303.011
303.051
302.606
303.149
301.783
303.244
338.797
336.28
339.326
339.55
337.942
337.949
338.79
339.152
341.091
338.013
338.759
337.283
337.859
337.517
336.637
338.372
335.972
335.944
337.05
338.671
332.631
332.593
332.233
332.933
333.57
333.665
333.945
333.232
335.19
334.027
333.09
333.076
333.46
333.037
332.551
331.817
333.203
332.54
332.691
333.369
328.879
329.89
328.113
328.047
328.053
327.993
328.432
327.987
329.003
328.798
328.263
329.145
327.949
327.711
326.313
326.704
326.733
327.559
327.282
327.695
323.661
324.085
322.839
321.995
324.569
324.013
324.072
323.391
324.852
323.981
323.563
322.616
324.055
323.564
322.574
322.066
322.408
323.148
322.198
323.706
319.008
317.943
318.972
318.704
318.458
317.324
318.887
318.206
318.173
317.499
318.876
318.199
317.782
317.243
316.847
316.234
318.145
318.46
317.553
317.812
313.05
312.101
313.915
313.376
312.362
311.993
312.749
311.742
311.646
314.058
313.503
313.029
312.855
313.229
311.352
313.795
313.49
313.742
312.225
313.388
307.782
308.026
307.476
306.543
308.058
307.465
307.252
308.422
309.119
306.871
307.719
307.345
307.411
309.332
308.696
308.217
307.209
308.24
307.01
308.601
302.571
302.882
302.449
301.833
302.25
302.928
302.271
302.236
302.233
303.279
302.929
303.124
303.479
302.88
304.201
302.878
302.263
301.632
302.898
302.526
338.83
340.655
339.349
339.232
338.728
338.24
340.211
338.208
339.171
339.538
338.812
337.51
338.561
337.428
338.566
337.203
336.513
338.186
338.3
338.765
334.798
334.229
334.1
333.857
333.507
335.064
334.245
333.991
333.231
333.649
333.943
333.048
333.164
332.883
332.694
333.759
333.688
333.235
332.393
333.639
329.498
328.472
329.679
328.74
327.28
328.689
328.921
327.792
329.59
329.973
328.995
329.242
328.774
328.425
329.094
329.47
326.921
328.886
327.176
328.411
325.293
323.878
324.5
323.655
323.892
323.543
322.389
323.169
323.395
323.321
323.186
324.161
323.023
323.253
322.98
322.712
322.909
323.22
322.771
322.999
319.49
319.485
318.861
317.269
318.419
319.016
317.922
318.845
318.394
318.118
317.653
317.637
318.593
318.029
317.94
317.63
318.148
318.861
317.361
318.122
312.83
312.193
313.923
312.069
312.852
312.721
314.015
314.488
311.884
311.915
313.532
313.333
312.962
312.901
312.362
312.784
314.638
314.266
311.893
313.299
308.181
307.322
307.538
307.782
308.288
308.295
306.583
308.253
308.583
307.935
308.928
309.038
306.713
308.641
307.789
308.144
308.78
306.88
308.43
307.992
303.189
303.361
302.358
303.217
303.251
303.21
302.809
303.308
302.739
301.996
302.693
303.056
302.95
302.192
302.354
303.175
302.319
302.708
300.203
302.995
340.916
339.953
340.536
340.16
339.309
339.828
338.666
340.029
341.193
339.595
338.864
339.11
339.379
339.628
338.89
339.329
338.788
337.673
338.872
339.644
335.333
335.329
334.279
335.039
335.11
335.511
334.667
335.599
334.317
335.78
335.639
332.803
335.63
334.189
335.378
333.532
335.562
334.426
335.3
334.988
329.725
329.386
328.307
330.094
329.789
327.507
329.932
329.637
330.093
330.101
327.829
329.544
329.369
330.763
328.039
327.461
328.082
329.515
327.981
328.499
324.905
325.79
323.957
322.856
323.413
325.484
323.337
324.904
324.703
324.552
324.981
322.98
323.385
324.809
322.471
323.75
322.765
324.736
323.61
324.218
319.527
319.362
320.295
318.764
318.803
318.893
320.227
319.16
319.416
319.627
319.554
318.363
319.224
318.384
319.232
318.63
318.1
317.533
318.101
318.496
313.961
314.657
312.056
314.382
313.398
312.958
312.988
313.393
313.52
313.814
314.118
314.02
313.761
311.426
313.379
312.613
313.103
313.218
311.759
311.527
309.248
308.613
309.689
308.781
307.153
308.404
308.152
308.568
307.748
308.194
308.597
307.637
308.075
306.207
308.936
307.103
309.018
307.408
307.931
307.576
303.283
303.471
303.341
301.715
302.141
301.286
302.415
302.223
302.399
303.227
302.51
302.724
304.729
302.484
302.28
302.959
302.392
302.591
302.623
301.73
341.041
341.549
341.226
340.815
341.057
340.123
341.054
340.511
340.374
339.826
339.521
338.995
338.956
340.039
338.345
338.845
340.195
339.753
339.985
339.453
336.247
334.818
335.08
335.293
334.485
334.829
335.424
335.309
335.282
334.791
335.246
335.953
335.123
334.543
334.003
334.164
333.546
333.303
334.978
333.903
331.992
329.908
330.429
330.291
330.053
328.961
329.175
330.571
330.837
330.471
330.31
329.762
328.242
329.103
327.612
328.597
329.672
327.858
329.166
329.59
326.574
325.306
326.028
324.35
325.343
324.695
324.623
324.437
324.437
325.402
323.765
324.803
323.464
324.977
326.006
324.771
323.097
324.316
325.756
325.487
320.001
318.581
318.232
319.305
318.307
318.842
318.491
319.675
318.938
318.528
318.895
319.403
319.854
318.176
319.675
318.05
317.807
317.805
319.383
317.811
312.274
313.686
313.842
312.947
314.326
313.976
313.777
313.316
313.717
314.201
313.343
312.595
312.75
312.942
313.823
311.486
314.256
313.659
313.837
312.585
308.904
309.037
307.459
308.512
308.812
308.496
307.146
308.416
309.208
306.912
307.976
307.138
308.142
307.444
307.848
307.709
307.472
307.237
307.842
308.661
302.694
302.926
303.159
303.014
303.395
301.872
303.764
303.311
302.739
301.892
303.97
301.897
302.125
303.205
301.788
303.497
304.009
302.558
302.702
303.094
)
;

boundaryField
{
    hotSide
    {
        type            fixedGradient;
        gradient        nonuniform List<scalar> 
400
(
321.511
322.87
325.591
329.677
335.133
341.965
350.181
359.788
370.794
383.208
397.037
412.289
428.971
447.088
466.647
487.651
510.105
534.011
559.372
586.191
323.738
325.08
327.767
331.802
337.194
343.949
352.078
361.591
372.498
384.81
398.537
413.687
430.268
448.289
467.755
488.672
511.043
534.872
560.161
586.913
326.149
327.47
330.116
334.091
339.406
346.071
354.099
363.503
374.296
386.491
400.101
415.136
431.606
449.52
468.885
489.706
511.988
535.735
560.948
587.63
328.704
330
332.597
336.503
341.73
348.292
356.205
365.485
376.15
388.215
401.695
416.604
432.954
450.753
470.009
490.73
512.919
536.579
561.714
588.325
331.33
332.599
335.142
338.97
344.099
350.546
358.332
367.477
378.003
389.928
403.271
418.047
434.27
451.949
471.095
491.712
513.807
537.382
562.439
588.978
333.918
335.158
337.643
341.389
346.414
352.74
360.392
369.397
379.779
391.562
404.765
419.407
435.503
453.065
472.101
492.618
514.622
538.114
563.096
589.569
336.321
337.531
339.959
343.622
348.544
354.751
362.274
371.142
381.385
393.031
406.101
420.618
436.595
454.047
472.983
493.409
515.33
538.747
563.663
590.076
338.36
339.543
341.92
345.509
350.339
356.44
363.847
372.595
382.718
394.244
407.2
421.608
437.485
454.844
473.695
494.045
515.897
539.253
564.114
590.478
339.852
341.015
343.352
346.885
351.645
357.665
364.985
373.643
383.675
395.113
407.984
422.312
438.116
455.407
474.197
494.491
516.294
539.606
564.428
590.758
340.643
341.795
344.11
347.613
352.334
358.311
365.584
374.193
384.176
395.567
408.393
422.679
438.443
455.699
474.456
494.722
516.498
539.788
564.589
590.901
340.643
341.795
344.11
347.613
352.334
358.311
365.584
374.193
384.176
395.567
408.393
422.679
438.443
455.699
474.456
494.722
516.498
539.788
564.589
590.901
339.852
341.015
343.352
346.885
351.645
357.665
364.985
373.643
383.675
395.113
407.984
422.312
438.116
455.407
474.197
494.491
516.294
539.606
564.428
590.758
338.36
339.543
341.92
345.509
350.339
356.44
363.847
372.595
382.718
394.244
407.2
421.608
437.485
454.844
473.695
494.045
515.897
539.253
564.114
590.478
336.321
337.531
339.959
343.622
348.544
354.751
362.274
371.142
381.385
393.031
406.101
420.618
436.595
454.047
472.983
493.409
515.33
538.747
563.663
590.076
333.918
335.158
337.643
341.389
346.414
352.74
360.392
369.397
379.779
391.562
404.765
419.407
435.503
453.065
472.101
492.618
514.622
538.114
563.096
589.569
331.33
332.599
335.142
338.97
344.099
350.546
358.332
367.477
378.003
389.928
403.271
418.047
434.27
451.949
471.095
491.712
513.807
537.382
562.439
588.978
328.704
330
332.597
336.503
341.73
348.292
356.205
365.485
376.15
388.215
401.695
416.604
432.954
450.753
470.009
490.73
512.919
536.579
561.714
588.325
326.149
327.47
330.116
334.091
339.406
346.071
354.099
363.503
374.296
386.491
400.101
415.136
431.606
449.52
468.885
489.706
511.988
535.735
560.948
587.63
323.738
325.08
327.767
331.802
337.194
343.949
352.078
361.591
372.498
384.81
398.537
413.687
430.268
448.289
467.755
488.672
511.043
534.872
560.161
586.913
321.511
322.87
325.591
329.677
335.133
341.965
350.181
359.788
370.794
383.208
397.037
412.289
428.971
447.088
466.647
487.651
510.105
534.011
559.372
586.191
)
;
    }
    coldSide
    {
        type            mixed;
        refValue        uniform 300;
        refGradient     uniform 0;
        valueFraction   uniform 0.991591;
        source          uniform 0;
        value           nonuniform List<scalar> 
400
(
300.011
300.011
300.005
300.01
300.011
300.019
300.011
300.014
300.025
300.013
300.015
300.01
300.021
300.019
300.018
300.026
300.022
300.027
300.028
300.023
299.997
300.021
300.01
300.007
300.009
300.02
300.009
300.01
300.025
300.018
300.024
300.013
300.028
300.02
300.037
300.019
300.024
300.028
300.029