/*--------------------------------*- C++ -*----------------------------------*\
| =========                 |                                                 |
| \\      /  F ield         | OpenFOAM: The Open Source CFD Toolbox           |
|  \\    /   O peration     | Version:  2212                                  |
|   \\  /    A nd           | Website:  www.openfoam.com                      |
|    \\/     M anipulation  |                                                 |
\*---------------------------------------------------------------------------*/
FoamFile
{
    version     2.0;
    format      ascii;
    arch        "LSB;label=32;scalar=64";
    class       volScalarField;
    location    "0";
    object      T;
}
// * * * * * * * * * * * * * * * * * * * * * * * * * * * * * * * * * * * * * //

dimensions      [0 0 0 1 0 0 0];

internalField   nonuniform List<scalar> 
3200
(
343.039
344.135
345.072
345.751
346.448
347.139
347.593
347.988
348.162
348.28
348.282
347.821
347.517
347.054
346.502
345.723
344.623
343.697
342.688
341.714
337.359
338.302
339.068
339.694
340.361
340.889
341.293
341.619
341.696
341.89
341.875
341.493
341.222
340.788
340.32
339.652
338.691
337.903
337.015
336.237
331.656
332.381
333.072
333.65
334.197
334.643
334.99
335.173
335.259
335.49
335.426
335.161
334.913
334.535
334.124
333.54
332.754
332.044
331.308
330.74
325.937
326.462
327.066
327.544
328.007
328.329
328.617
328.739
328.827
329.069
328.961
328.824
328.59
328.24
327.939
327.51
326.779
326.183
325.622
325.219
320.212
320.548
321.041
321.443
321.781
322.051
322.281
322.346
322.404
322.644
322.511
322.427
322.262
321.979
321.758
321.428
320.76
320.348
319.897
319.657
314.41
314.649
315.017
315.334
315.587
315.8
315.881
315.969
315.997
316.189
316.068
316.034
315.958
315.686
315.555
315.287
314.792
314.523
314.215
314.082
308.633
308.807
309.003
309.207
309.375
309.472
309.55
309.585
309.609
309.744
309.638
309.612
309.609
309.404
309.374
309.17
308.882
308.749
308.52
308.506
302.883
302.968
302.997
303.085
303.146
303.155
303.224
303.208
303.232
303.273
303.241
303.221
303.219
303.158
303.134
303.061
302.967
302.93
302.857
302.853
343.743
344.674
345.695
346.548
347.419
348.001
348.403
348.711
349.023
349.22
349.272
348.569
348.557
347.922
347.207
346.506
345.428
344.427
343.692
342.574
337.924
338.685
339.588
340.34
341.108
341.602
341.977
342.166
342.425
342.636
342.689
342.108
342.079
341.541
340.903
340.291
339.385
338.534
337.894
336.977
332.066
332.711
333.493
334.142
334.777
335.232
335.569
335.655
335.848
336.075
336.087
335.614
335.568
335.162
334.62
334.048
333.337
332.653
332.061
331.322
326.253
326.758
327.39
327.968
328.464
328.829
329.113
329.15
329.341
329.496
329.468
329.127
329.075
328.776
328.309
327.9
327.251
326.716
326.207
325.679
320.444
320.787
321.31
321.766
322.188
322.419
322.645
322.667
322.791
322.954
322.889
322.656
322.597
322.398
322.06
321.725
321.205
320.784
320.381
320.021
314.643
314.835
315.215
315.584
315.894
315.996
316.158
316.166
316.247
316.425
316.325
316.181
316.107
316.015
315.8
315.489
315.175
314.862
314.587
314.31
308.776
308.901
309.129
309.361
309.557
309.571
309.722
309.695
309.755
309.875
309.796
309.759
309.658
309.652
309.509
309.257
309.112
308.942
308.794
308.589
302.943
302.975
303.057
303.131
303.225
303.206
303.273
303.25
303.276
303.302
303.28
303.259
303.233
303.24
303.203
303.096
303.058
303.019
302.94
302.875
344.661
345.846
346.736
347.526
348.423
349.051
349.634
349.926
350.216
350.217
350.269
350.028
349.718
349.024
348.421
347.606
346.62
345.577
344.692
343.637
338.682
339.703
340.493
341.158
341.976
342.449
342.999
343.241
343.459
343.478
343.533
343.331
343.071
342.484
341.919
341.251
340.371
339.504
338.718
337.871
332.684
333.554
334.258
334.782
335.522
335.885
336.373
336.555
336.75
336.764
336.816
336.582
336.475
335.947
335.424
334.902
334.121
333.404
332.772
332.072
326.701
327.448
328.005
328.435
329.082
329.367
329.762
329.872
330.035
330.044
330.133
329.916
329.832
329.395
328.931
328.627
327.904
327.337
326.81
326.287
320.814
321.333
321.816
322.137
322.663
322.862
323.156
323.218
323.33
323.346
323.446
323.277
323.181
322.862
322.445
322.274
321.735
321.284
320.873
320.464
314.904
315.21
315.597
315.855
316.238
316.327
316.511
316.596
316.663
316.668
316.755
316.604
316.56
316.308
316.034
315.9
315.521
315.167
314.885
314.604
308.968
309.11
309.354
309.534
309.732
309.791
309.883
309.969
309.983
309.996
310.057
309.952
309.931
309.781
309.619
309.572
309.305
309.11
308.935
308.744
303.007
303.044
303.144
303.182
303.271
303.276
303.305
303.345
303.343
303.332
303.389
303.355
303.331
303.27
303.23
303.209
303.123
303.067
302.993
302.911
345.817
346.947
347.943
348.904
349.592
350.17
350.817
351.211
351.478
351.532
351.542
351.216
351.054
350.234
349.441
348.848
347.928
346.74
345.682
344.586
339.665
340.671
341.486
342.329
342.899
343.399
343.976
344.334
344.578
344.609
344.647
344.316
344.236
343.483
342.803
342.327
341.534
340.529
339.583
338.669
333.524
334.396
335.038
335.826
336.257
336.68
337.181
337.475
337.696
337.674
337.756
337.498
337.425
336.773
336.202
335.803
335.102
334.328
333.487
332.743
327.45
328.106
328.632
329.294
329.64
330.007
330.403
330.641
330.815
330.796
330.865
330.678
330.613
330.095
329.55
329.317
328.692
328.09
327.401
326.887
321.411
321.837
322.259
322.761
323.035
323.355
323.626
323.873
323.96
323.919
323.975
323.829
323.817
323.433
322.935
322.829
322.319
321.829
321.333
320.95
315.357
315.627
315.881
316.271
316.463
316.651
316.853
317.058
317.139
317.056
317.135
317.034
317.041
316.758
316.362
316.321
315.952
315.562
315.22
315.011
309.253
309.389
309.478
309.769
309.895
310.003
310.095
310.243
310.321
310.245
310.289
310.209
310.254
310.049
309.795
309.799
309.596
309.324
309.162
309.051
303.113
303.157
303.152
303.262
303.304
303.343
303.401
303.429
303.457
303.421
303.461
303.426
303.422
303.366
303.27
303.292
303.216
303.126
303.077
303.045
346.869
347.909
349.021
349.972
350.74
351.583
352.103
352.259
352.916
352.737
352.622
352.48
352.149
351.649
350.793
350.069
348.867
347.931
346.755
345.554
340.647
341.518
342.458
343.285
343.926
344.609
345.089
345.205
345.82
345.656
345.544
345.393
345.19
344.771
343.95
343.351
342.322
341.478
340.521
339.497
334.378
335.147
335.885
336.608
337.098
337.646
338.131
338.232
338.756
338.575
338.494
338.377
338.249
337.88
337.112
336.654
335.803
335.014
334.283
333.386
328.129
328.767
329.333
329.939
330.31
330.753
331.212
331.27
331.721
331.467
331.452
331.401
331.285
330.962
330.31
329.965
329.281
328.565
328.037
327.305
321.897
322.339
322.839
323.274
323.552
323.9
324.321
324.297
324.689
324.47
324.405
324.427
324.325
324.076
323.551
323.297
322.758
322.184
321.762
321.223
315.643
315.908
316.302
316.577
316.836
317.033
317.338
317.372
317.61
317.476
317.426
317.443
317.361
317.231
316.832
316.615
316.26
315.843
315.549
315.167
309.384
309.532
309.789
309.938
310.114
310.217
310.402
310.422
310.574
310.486
310.478
310.449
310.435
310.329
310.109
309.943
309.77
309.505
309.337
309.106
303.132
303.199
303.278
303.315
303.388
303.417
303.498
303.481
303.546
303.522
303.506
303.517
303.47
303.448
303.381
303.319
303.281
303.2
303.123
303.045
348.057
349.07
350.157
351.147
351.949
352.765
353.185
353.496
354.189
354.001
353.989
353.676
353.341
352.77
351.906
351.057
349.921
348.851
347.657
346.672
341.638
342.486
343.421
344.261
344.988
345.677
345.995
346.298
346.901
346.77
346.743
346.439
346.219
345.681
344.92
344.19
343.223
342.267
341.272
340.467
335.252
335.942
336.733
337.387
338.057
338.611
338.867
339.112
339.635
339.565
339.498
339.243
339.079
338.649
337.94
337.353
336.567
335.714
334.905
334.26
328.855
329.434
330.036
330.553
331.067
331.575
331.793
332.025
332.396
332.36
332.24
332.1
331.948
331.634
330.997
330.533
329.915
329.223
328.525
328.005
322.45
322.893
323.369
323.717
324.128
324.568
324.727
324.895
325.169
325.211
325.041
324.981
324.833
324.606
324.104
323.68
323.246
322.688
322.179
321.774
316.06
316.315
316.721
316.919
317.205
317.572
317.684
317.775
317.972
318.042
317.889
317.868
317.731
317.588
317.242
316.882
316.604
316.213
315.854
315.578
309.653
309.801
310.047
310.136
310.339
310.541
310.679
310.688
310.806
310.825
310.758
310.751
310.647
310.591
310.34
310.136
309.964
309.727
309.525
309.307
303.214
303.297
303.382
303.383
303.458
303.528
303.59
303.581
303.624
303.63
303.609
303.608
303.576
303.557
303.47
303.414
303.339
303.277
303.195
303.113
349.227
349.846
351.023
352.274
353.063
353.835
354.448
354.698
355.317
354.933
355.09
354.849
354.361
353.709
353.087
352.248
351.153
349.937
348.748
347.618
342.675
343.127
344.193
345.266
345.939
346.661
347.184
347.376
347.908
347.532
347.701
347.492
347.109
346.497
345.958
345.212
344.311
343.259
342.247
341.266
336.097
336.464
337.38
338.258
338.892
339.42
339.91
340.037
340.494
340.191
340.341
340.153
339.87
339.379
338.894
338.229
337.454
336.616
335.716
334.9
329.532
329.829
330.575
331.299
331.824
332.204
332.669
332.744
333.102
332.906
332.98
332.811
332.607
332.249
331.81
331.255
330.615
329.932
329.181
328.567
322.979
323.218
323.842
324.34
324.765
325.019
325.409
325.473
325.727
325.637
325.684
325.484
325.32
325.114
324.706
324.289
323.769
323.241
322.682
322.26
316.44
316.58
317.036
317.387
317.672
317.857
318.134
318.224
318.369
318.327
318.327
318.188
318.065
317.954
317.64
317.35
316.972
316.635
316.197
315.894
309.887
309.94
310.2
310.434
310.604
310.738
310.921
310.943
311.021
311.009
310.999
310.925
310.863
310.843
310.566
310.4
310.186
310.013
309.732
309.533
303.309
303.318
303.413
303.47
303.56
303.615
303.663
303.671
303.687
303.696
303.687
303.661
303.634
303.649
303.531
303.487
303.423
303.373
303.268
303.183
350.063
351.047
352.187
353.291
353.96
354.996
355.47
356.023
356.151
356.05
356.127
355.898
355.233
354.751
354.296
353.248
352.134
350.889
349.705
348.634
343.399
344.186
345.181
346.122
346.684
347.638
348.018
348.531
348.599
348.544
348.63
348.445
347.801
347.403
347.029
346.112
345.102
344.071
343.081
342.168
336.726
337.36
338.179
339.017
339.485
340.248
340.596
341.006
341.093
341.025
341.155
340.977
340.457
340.067
339.784
338.98
338.105
337.283
336.438
335.713
330.072
330.571
331.202
331.93
332.328
332.882
333.195
333.524
333.564
333.532
333.653
333.509
333.113
332.812
332.546
331.828
331.131
330.481
329.808
329.27
323.428
323.822
324.275
324.822
325.19
325.524
325.803
326.064
326.084
326.075
326.129
326.047
325.816
325.541
325.316
324.754
324.181
323.722
323.166
322.82
316.719
317.06
317.359
317.749
317.983
318.209
318.425
318.634
318.651
318.643
318.694
318.639
318.447
318.299
318.08
317.664
317.212
316.964
316.587
316.34
310.054
310.254
310.445
310.665
310.774
310.934
311.054
311.195
311.212
311.181
311.26
311.179
311.138
311.027
310.827
310.585
310.328
310.206
309.972
309.827
303.378
303.434
303.514
303.589
303.601
303.681
303.704
303.746
303.754
303.747
303.794
303.751
303.741
303.712
303.629
303.535
303.456
303.427
303.335
303.275
350.844
351.914
353.078
354.069
354.984
355.9
356.423
357.157
357.201
357.311
356.845
356.768
356.292
355.612
355.139
353.946
353.048
351.919
350.789
349.528
344.065
344.95
345.947
346.855
347.567
348.421
348.843
349.491
349.538
349.602
349.223
349.14
348.677
348.147
347.753
346.686
345.978
344.971
344.061
342.944
337.254
338.01
338.785
339.601
340.206
340.971
341.311
341.825
341.889
341.907
341.624
341.534
341.103
340.7
340.404
339.494
338.883
338
337.26
336.37
330.495
331.141
331.648
332.373
332.926
333.508
333.779
334.19
334.245
334.241
333.999
333.915
333.539
333.275
333.088
332.28
331.804
331.06
330.479
329.787
323.716
324.286
324.603
325.148
325.648
325.999
326.256
326.542
326.63
326.594
326.38
326.369
325.995
325.893
325.751
325.089
324.754
324.171
323.712
323.191
316.954
317.398
317.557
317.984
318.371
318.547
318.775
318.899
319.029
318.974
318.84
318.853
318.526
318.514
318.397
317.94
317.699
317.281
316.977
316.61
310.166
310.491
310.559
310.81
311.083
311.152
311.278
311.322
311.42
311.38
311.324
311.328
311.127
311.131
311.077
310.794
310.655
310.411
310.24
309.961
303.399
303.527
303.547
303.628
303.713
303.742
303.775
303.791
303.816
303.814
303.797
303.814
303.755
303.747
303.728
303.624
303.559
303.509
303.441
303.342
351.807
352.677
354.004
355.084
355.756
356.841
357.323
357.928
358.141
357.92
357.723
357.627
357.228
356.629
355.79
354.933
353.896
352.776
351.521
350.247
344.922
345.595
346.788
347.695
348.24
349.248
349.622
350.126
350.305
350.13
349.938
349.846
349.525
349.032
348.299
347.54
346.661
345.729
344.605
343.6
338.009
338.528
339.539
340.314
340.766
341.669
341.938
342.355
342.504
342.383
342.204
342.1
341.847
341.445
340.867
340.186
339.508
338.683
337.722
336.925
331.1
331.505
332.307
332.897
333.354
334.083
334.278
334.635
334.737
334.681
334.488
334.43
334.188
333.9
333.482
332.859
332.351
331.609
330.84
330.245
324.174
324.51
325.118
325.557
325.918
326.574
326.626
326.948
326.976
327.002
326.804
326.785
326.49
326.334
326.075
325.547
325.132
324.551
323.994
323.555
317.273
317.502
317.932
318.22
318.497
319.018
319.025
319.251
319.258
319.294
319.127
319.135
318.871
318.783
318.623
318.252
317.965
317.501
317.189
316.877
310.403
310.506
310.802
310.909
311.106
311.44
311.427
311.535
311.603
311.597
311.489
311.479
311.336
311.238
311.209
310.987
310.792
310.522
310.338
310.145
303.479
303.532
303.622
303.642
303.725
303.827
303.846
303.864
303.882
303.879
303.857
303.861
303.803
303.759
303.738
303.678
303.6
303.52
303.48
303.406
352.58
353.485
354.854
355.835
356.562
357.521
358.143
358.545
358.913
358.805
358.548
358.555
358.167
357.563
356.794
355.692
354.494
353.487
352.191
350.869
345.526
346.319
347.506
348.386
348.974
349.843
350.351
350.668
351.027
350.884
350.662
350.712
350.369
349.889
349.201
348.205
347.222
346.328
345.201
344.142
338.504
339.142
340.18
340.922
341.457
342.147
342.581
342.852
343.142
342.945
342.791
342.86
342.635
342.177
341.622
340.735
339.918
339.213
338.183
337.405
331.481
332.03
332.883
333.463
333.881
334.507
334.821
335.058
335.229
335.084
334.984
335.008
334.897
334.481
334.078
333.272
332.619
332.1
331.227
330.618
324.448
324.878
325.567
325.969
326.315
326.829
327.097
327.236
327.369
327.209
327.199
327.227
327.141
326.769
326.52
325.881
325.312
324.989
324.275
323.793
317.45
317.729
318.276
318.517
318.774
319.187
319.378
319.45
319.537
319.411
319.402
319.43
319.387
319.098
318.972
318.473
318.015
317.876
317.324
316.978
310.466
310.644
311
311.122
311.252
311.553
311.684
311.654
311.741
311.643
311.659
311.684
311.655
311.475
311.389
311.091
310.787
310.752
310.393
310.203
303.523
303.562
303.691
303.736
303.783
303.889
303.94
303.918
303.946
303.896
303.917
303.895
303.896
303.854
303.813
303.721
303.609
303.599
303.473
303.404
352.918
353.914
355.502
356.592
357.345
358.216
358.94
359.211
359.598
359.565
359.472
359.446
358.963
358.379
357.5
356.515
355.183
354.14
352.846
351.527
345.844
346.682
348.049
349.012
349.626
350.42
351.062
351.252
351.562
351.543
351.488
351.508
351.07
350.554
349.784
348.939
347.774
346.911
345.812
344.699
338.784
339.519
340.658
341.413
341.965
342.618
343.221
343.361
343.584
343.506
343.529
343.578
343.197
342.719
342.091
341.381
340.396
339.713
338.745
337.876
331.783
332.328
333.246
333.884
334.316
334.87
335.363
335.462
335.633
335.528
335.631
335.662
335.35
334.921
334.446
333.805
333.041
332.439
331.67
331.054
324.771
325.164
325.848
326.357
326.677
327.13
327.518
327.55
327.657
327.617
327.739
327.726
327.534
327.118
326.768
326.275
325.708
325.208
324.602
324.252
317.72
318.021
318.482
318.793
319.059
319.368
319.656
319.703
319.728
319.751
319.825
319.791
319.705
319.341
319.071
318.753
318.333
317.985
317.591
317.402
310.668
310.844
311.086
311.276
311.39
311.613
311.822
311.832
311.872
311.866
311.928
311.865
311.863
311.6
311.421
311.292
310.997
310.801
310.539
310.471
303.557
303.65
303.708
303.756
303.819
303.897
303.971
303.964
303.992
303.984
303.985
303.961
303.971
303.882
303.809
303.789
303.684
303.622
303.527
303.526
353.526
354.582
355.723
357.122
358.081
358.754
359.466
359.833
360.13
360.295
360.164
360.039
359.512
359.02
358.063
356.992
355.798
354.747
353.234
351.997
346.384
347.284
348.218
349.446
350.264
350.852
351.458
351.801
352.072
352.206
352.056
351.995
351.501
351.147
350.272
349.34
348.317
347.406
346.119
345.072
339.247
339.989
340.761
341.78
342.472
342.983
343.435
343.779
344.016
344.115
344.007
343.97
343.537
343.255
342.495
341.758
340.854
340.141
339.004
338.197
332.102
332.698
333.334
334.138
334.753
335.113
335.481
335.815
335.988
336.09
335.944
336.009
335.601
335.379
334.765
334.235
333.412
332.852
331.919
331.265
324.956
325.459
325.899
326.524
327.046
327.284
327.581
327.821
327.958
328.065
327.94
328.026
327.67
327.485
327
326.65
325.978
325.567
324.817
324.279
317.778
318.196
318.525
318.915
319.352
319.468
319.702
319.87
319.948
320.041
319.992
320.033
319.749
319.609
319.26
319.021
318.539
318.253
317.744
317.339
310.657
310.935
311.116
311.346
311.629
311.682
311.827
311.973
311.975
312.027
311.995
312.058
311.833
311.748
311.572
311.4
311.143
310.959
310.657
310.41
303.566
303.678
303.712
303.802
303.895
303.917
303.957
304.015
304.017
304.005
304.019
304.065
303.949
303.926
303.875
303.824
303.73
303.656
303.563
303.501
354.089
355.059
356.36
357.488
358.542
359.464
359.966
360.203
360.66
361
360.601
360.469
359.807
359.556
358.601
357.434
356.362
354.943
353.734
352.563
346.879
347.691
348.777
349.75
350.716
351.419
351.928
352.106
352.494
352.789
352.427
352.392
351.829
351.601
350.763
349.775
348.781
347.625
346.558
345.581
339.64
340.345
341.252
342.029
342.918
343.411
343.913
344.024
344.357
344.64
344.303
344.311
343.797
343.649
342.917
342.144
341.217
340.346
339.393
338.605
332.43
333.01
333.741
334.373
335.097
335.445
335.866
335.986
336.186
336.498
336.216
336.224
335.864
335.682
335.07
334.489
333.686
333.013
332.215
331.611
325.225
325.707
326.25
326.725
327.309
327.505
327.839
327.985
328.114
328.396
328.151
328.149
327.92
327.756
327.246
326.812
326.174
325.694
325.017
324.575
318.037
318.354
318.758
319.127
319.518
319.621
319.892
319.969
320.082
320.315
320.098
320.127
319.936
319.811
319.477
319.149
318.673
318.391
317.845
317.538
310.873
310.998
311.278
311.499
311.718
311.788
311.907
311.986
312.064
312.214
312.073
312.084
311.95
311.886
311.69
311.525
311.199
311.052
310.728
310.577
303.653
303.658
303.772
303.858
303.915
303.956
303.951
304.022
304.026
304.088
304.05
304.038
304.006
303.978
303.927
303.866
303.732
303.692
303.611
303.554
354.399
355.582
356.846
357.827
359.153
359.733
360.349
360.853
361.292
361.373
361.124
360.854
360.352
359.899
358.937
357.872
356.87
355.482
354.315
353.053
347.142
348.153
349.241
350.063
351.21
351.736
352.254
352.692
353.049
353.12
352.885
352.691
352.25
351.92
351.013
350.132
349.246
348.042
347.05
345.937
339.863
340.679
341.633
342.314
343.292
343.72
344.129
344.501
344.811
344.907
344.705
344.562
344.184
343.921
343.189
342.383
341.616
340.609
339.803
338.882
332.604
333.29
334.018
334.569
335.39
335.752
336.064
336.363
336.597
336.719
336.554
336.421
336.153
335.906
335.323
334.646
334.026
333.186
332.558
331.778
325.337
325.891
326.491
326.863
327.531
327.832
328.053
328.258
328.442
328.551
328.393
328.34
328.119
327.917
327.442
326.979
326.495
325.777
325.331
324.698
318.074
318.5
318.929
319.157
319.702
319.917
319.995
320.182
320.329
320.42
320.273
320.228
320.081
319.943
319.594
319.334
318.978
318.404
318.101
317.636
310.86
311.113
311.372
311.535
311.851
311.953
311.983
312.095
312.22
312.28
312.194
312.167
312.019
312.024
311.776
311.64
311.419
311.045
310.879
310.563
303.647
303.734
303.814
303.873
303.962
303.994
304.009
304.063
304.113
304.128
304.104
304.088
304.029
304.017
303.938
303.914
303.842
303.688
303.655
303.55
354.745
355.73
357.107
358.27
359.441
360.172
360.672
361.319
361.529
361.728
361.458
361.207
360.572
360.116
359.307
358.257
357.075
355.756
354.579
353.129
347.471
348.268
349.433
350.476
351.463
352.115
352.513
353.09
353.299
353.444
353.179
352.996
352.455
352.008
351.367
350.496
349.401
348.295
347.318
346.035
340.176
340.788
341.82
342.677
343.5
344.1
344.398
344.872
345.052
345.195
344.989
344.826
344.351
343.97
343.488
342.718
341.79
340.855
340.01
338.979
332.872
333.359
334.232
334.886
335.608
336.054
336.317
336.732
336.852
336.934
336.775
336.657
336.285
335.986
335.562
334.94
334.205
333.418
332.725
331.954
325.549
325.959
326.638
327.124
327.72
328.057
328.244
328.527
328.667
328.763
328.614
328.497
328.244
327.984
327.641
327.171
326.642
325.981
325.483
324.88
318.21
318.567
319.035
319.356
319.814
320.08
320.157
320.353
320.447
320.548
320.432
320.33
320.192
319.998
319.768
319.396
319.033
318.515
318.175
317.73
310.93
311.171
311.419
311.617
311.914
312.076
312.1
312.214
312.269
312.359
312.293
312.215
312.118
312.017
311.881
311.618
311.455
311.086
310.914
310.637
303.651
303.742
303.843
303.877
303.999
304.058
304.071
304.075
304.117
304.123
304.11
304.1
304.072
304.024
303.984
303.904
303.84
303.706
303.665
303.581
354.921
355.93
357.372
358.484
359.647
360.332
361.086
361.45
361.551
361.986
361.7
361.523
361.142
360.4
359.556
358.399
357.44
356.048
354.731
353.337
347.588
348.44
349.688
350.589
351.673
352.232
352.9
353.216
353.308
353.67
353.455
353.299
352.945
352.316
351.63
350.584
349.766
348.565
347.452
346.241
340.279
340.958
342.009
342.778
343.661
344.152
344.74
345.025
345.113
345.322
345.244
345.076
344.777
344.248
343.693
342.789
342.091
341.102
340.198
339.12
332.949
333.477
334.399
334.992
335.671
336.127
336.59
336.79
336.893
337.041
337.051
336.854
336.633
336.232
335.747
334.985
334.446
333.638
332.875
332.035
325.618
326.053
326.802
327.215
327.725
328.085
328.446
328.581
328.692
328.8
328.9
328.656
328.494
328.271
327.788
327.195
326.774
326.166
325.53
324.888
318.306
318.606
319.135
319.474
319.838
320.02
320.303
320.386
320.485
320.557
320.696
320.478
320.368
320.214
319.84
319.442
319.106
318.684
318.201
317.745
311.005
311.152
311.488
311.706
311.947
312.013
312.173
312.244
312.29
312.328
312.45
312.301
312.205
312.121
311.889
311.703
311.451
311.239
310.914
310.658
303.697
303.742
303.848
303.918
304.014
304.025
304.074
304.105
304.12
304.107
304.172
304.136
304.108
304.078
303.988
303.94
303.815
303.771
303.66
303.584
354.963
356.235
357.395
358.508
359.575
360.512
361.344
361.645
361.935
362.015
361.876
361.59
361.242
360.571
359.717
358.51
357.589
356.123
354.751
353.465
347.611
348.678
349.659
350.643
351.547
352.379
353.13
353.365
353.604
353.662
353.615
353.341
353.021
352.456
351.711
350.653
349.863
348.597
347.492
346.346
340.248
341.142
341.971
342.816
343.553
344.278
344.923
345.105
345.295
345.384
345.377
345.087
344.843
344.343
343.711
342.773
342.132
341.085
340.238
339.253
332.948
333.588
334.295
334.963
335.615
336.187
336.696
336.904
337.061
337.134
337.158
336.839
336.672
336.259
335.702
334.905
334.427
333.572
332.93
332.173
325.628
326.113
326.677
327.189
327.681
328.113
328.551
328.727
328.822
328.876
328.955
328.625
328.564
328.187
327.758
327.133
326.719
326.103
325.628
325.043
318.337
318.637
319.076
319.393
319.777
320.066
320.419
320.577
320.59
320.604
320.712
320.469
320.406
320.15
319.823
319.393
319.099
318.656
318.315
317.898
311.041
311.199
311.456
311.612
311.87
312.054
312.259
312.353
312.332
312.334
312.448
312.311
312.222
312.108
311.919
311.641
311.463
311.255
310.994
310.739
303.729
303.741
303.833
303.863
303.977
304.035
304.103
304.153
304.127
304.132
304.172
304.145
304.085
304.057
304.022
303.89
303.838
303.776
303.676
303.595
355.031
356.193
357.336
358.438
359.476
360.52
361.242
361.632
361.906
361.996
362.023
361.668
361.215
360.591
359.553
358.506
357.564
356.098
354.934
353.497
347.677
348.651
349.6
350.594
351.507
352.388
353.022
353.362
353.642
353.692
353.707
353.456
352.994
352.465
351.55
350.62
349.869
348.605
347.573
346.385
340.261
341.112
341.915
342.783
343.561
344.278
344.819
345.087
345.396
345.42
345.408
345.253
344.794
344.369
343.628
342.855
342.169
341.161
340.238
339.252
332.861
333.566
334.278
334.967
335.626
336.179
336.653
336.876
337.129
337.147
337.096
337.055
336.68
336.25
335.69
335.059
334.462
333.687
332.869
332.062
325.499
326.078
326.638
327.156
327.669
328.162
328.5
328.651
328.867
328.903
328.808
328.855
328.516
328.135
327.74
327.275
326.794
326.195
325.548
324.894
318.216
318.612
318.981
319.389
319.734
320.142
320.385
320.445
320.61
320.65
320.559
320.645
320.326
320.099
319.852
319.447
319.177
318.76
318.227
317.824
310.922
311.161
311.388
311.624
311.827
312.096
312.245
312.259
312.361
312.41
312.327
312.435
312.194
312.061
311.95
311.676
311.534
311.279
310.958
310.719
303.668
303.729
303.807
303.899
303.971
304.068
304.103
304.106
304.126
304.154
304.119
304.164
304.089
304.038
304.014
303.916
303.886
303.799
303.687
303.583
355.064
356.19
357.401
358.522
359.476
360.375
361.158
361.481
361.844
361.976
361.984
361.601
361.105
360.531
359.551
358.615
357.334
356.214
354.675
353.463
347.742
348.667
349.662
350.685
351.453
352.318
352.94
353.251
353.573
353.682
353.702
353.413
352.914
352.413
351.58
350.757
349.717
348.659
347.367
346.354
340.391
341.174
341.954
342.866
343.464
344.214
344.721
345.05
345.316
345.416
345.416
345.218
344.705
344.318
343.584
342.923
342.074
341.128
340.103
339.215
333.033
333.666
334.338
335.048
335.53
336.121
336.515
336.824
337.059
337.169
337.138
337.011
336.538
336.27
335.64
335.084
334.417
333.676
332.809
332.082
325.657
326.148
326.699
327.277
327.618
328.015
328.356
328.591
328.81
328.903
328.881
328.807
328.381
328.216
327.737
327.284
326.755
326.227
325.503
324.935
318.325
318.688
319.08
319.524
319.743
319.963
320.217
320.394
320.587
320.644
320.631
320.567
320.265
320.147
319.822
319.504
319.06
318.765
318.199
317.798
311.027
311.219
311.464
311.715
311.853
311.969
312.119
312.224
312.348
312.401
312.363
312.346
312.147
312.062
311.933
311.695
311.429
311.316
310.908
310.699
303.71
303.759
303.878
303.928
303.987
304.015
304.064
304.105
304.119
304.147
304.139
304.116
304.07
304.031
303.995
303.921
303.848
303.805
303.659
303.581
)
;

boundaryField
{
    hotSide
    {
        type            fixedGradient;
        gradient        nonuniform List<scalar> 
400
(
451.761
465.191
478.2
490.73
502.723
514.123
524.875
534.928
544.231
552.738
560.406
567.194
573.067
577.995
581.949
584.91
586.859
587.787
587.686
586.557
463.9
477.709
491.086
503.972
516.307
528.034
539.097
549.442
559.017
567.775
575.672
582.665
588.719
593.801
597.884
600.946
602.969
603.942
603.858
602.717
474.763
488.912
502.62
515.826
528.469
540.491
551.833
562.441
572.262
581.247
589.35
596.529
602.746
607.968
612.168
615.322
617.413
618.428
618.362
617.212
484.276
498.724
512.724
526.212
539.126
551.407
562.996
573.836
583.874
593.059
601.344
608.687
615.049
620.397
624.701
627.937
630.089
631.143
631.093
629.937
492.378
507.082
521.331
535.06
548.207
560.711
572.511
583.55
593.774
603.131
611.574
619.059
625.546
631.001
635.395
638.704
640.909
641.998
641.963
640.804
499.019
513.934
528.388
542.316
555.655
568.342
580.317
591.521
601.899
611.399
619.972
627.575
634.166
639.712
644.181
647.551
649.801
650.92
650.899
649.738
504.159
519.238
533.853
547.937
561.425
574.256
586.368
597.701
608.2
617.812
626.488
634.183
640.857
646.474
651.004
654.422
656.71
657.853
657.845
656.684
507.771
522.968
537.696
551.891
565.487
578.42
590.629
602.055
612.641
622.334
631.084
638.846
645.58
651.249
655.823
659.278
661.593
662.756
662.758
661.599
509.84
525.105
539.901
554.161
567.82
580.814
593.082
604.563
615.201
624.942
633.737
641.54
648.311
654.013
658.615
662.093
664.426
665.602
665.613
664.458
510.36
525.645
540.46
554.74
568.418
581.431
593.717
605.216
615.871
625.629
634.439
642.257
649.041
654.755
659.368
662.856
665.199
666.382
666.399
665.249
509.335
524.591
539.379
553.633
567.286
580.276
592.54
604.019
614.656
624.397
633.194
640.999
647.774
653.48
658.088
661.573
663.914
665.099
665.12
663.976
506.78
521.959
536.673
550.855
564.44
577.364
589.567
600.989
611.573
621.266
630.019
637.786
644.527
650.206
654.792
658.26
660.591
661.771
661.793
660.656
502.718
517.774
532.367
546.432
559.906
572.724
584.827
596.155
606.651
616.264
624.945
632.647
639.332
644.964
649.511
652.95
655.26
656.43
656.45
655.321
497.184
512.069
526.496
540.401
553.721
566.394
578.358
589.555
599.931
609.433
618.013
625.626
632.232
637.797
642.29
645.686
647.967
649.12
649.137
648.016
490.218
504.887
519.105
532.809
545.934
558.421
570.21
581.243
591.465
600.826
609.278
616.776
623.283
628.762
633.185
636.526
638.769
639.899
639.91
638.8
481.873
496.283
510.249
523.71
536.602
548.866
560.444
571.278
581.317
590.508
598.805
606.166
612.551
617.927
622.265
625.54
627.736
628.838
628.841
627.742
472.206
486.316
499.991
513.17
525.792
537.798
549.131
559.735
569.559
578.553
586.671
593.872
600.117
605.373
609.611
612.81
614.95
616.02
616.012
614.926
461.287
475.058
488.404
501.265
513.581
525.295
536.351
546.696
556.278
565.049
572.965
579.984
586.07
591.19
595.317
598.428
600.506
601.539
601.519
600.447
449.191
462.588
475.569
488.078
500.055
511.446
522.197
532.254
541.568
550.093
557.785
564.603
570.513
575.483
579.486
582.501
584.509
585.501
585.468
584.411
436.004
448.992
461.577
473.702
485.311
496.35
506.768
516.512
525.535
533.791
541.239
547.839
553.558
558.365
562.233
565.143
567.076
568.023
567.977
566.937
)
;
    }
    coldSide
    {
        type            mixed;
        refValue        uniform 300;
        refGradient     uniform 0;
        valueFraction   uniform 0.991591;
        source          uniform 0;
        value           nonuniform List<scalar> 
400
(
300.024
300.025
300.025
300.026
300.026
300.027
300.028
300.028
300.029
300.029
300.03
300.03
300.03
300.031
300.031
300.031
300.031
300.031
300.031
300.031
300.025
300.025
300.026
300.027
300.027
300.028
300.028
300.029
300.03
300.03
300.03
300.031
300.031
300.031
300.031
300.031
300.031
300.031
300.031