/*--------------------------------*- C++ -*----------------------------------*\
| =========                 |                                                 |
| \\      /  F ield         | OpenFOAM: The Open Source CFD Toolbox           |
|  \\    /   O peration     | Version:  2212                                  |
|   \\  /    A nd           | Website:  www.openfoam.com                      |
|    \\/     M anipulation  |                                                 |
\*---------------------------------------------------------------------------*/
FoamFile
{
    version     2.0;
    format      ascii;
    arch        "LSB;label=32;scalar=64";
    class       volScalarField;
    location    "0";
    object      T;
}
// * * * * * * * * * * * * * * * * * * * * * * * * * * * * * * * * * * * * * //

dimensions      [0 0 0 1 0 0 0];

internalField   nonuniform List<scalar> 
3200
(
351.869
350.931
350.096
350.03
350.309
350.976
351.533
352.15
352.585
352.908
352.76
352.338
351.58
350.406
349.333
348.284
347.249
346.917
347.013
347.638
345.023
344.232
343.517
343.473
343.691
344.283
344.785
345.305
345.69
345.98
345.836
345.473
344.828
343.802
342.882
341.971
341.08
340.775
340.854
341.354
338.15
337.508
336.904
336.873
337.045
337.548
337.987
338.421
338.752
339.005
338.844
338.564
338.046
337.143
336.371
335.582
334.87
334.58
334.654
335.061
331.276
330.748
330.248
330.244
330.382
330.796
331.123
331.5
331.741
331.978
331.851
331.624
331.211
330.447
329.808
329.146
328.607
328.343
328.412
328.768
324.341
323.96
323.572
323.568
323.68
323.976
324.23
324.565
324.718
324.924
324.816
324.641
324.316
323.725
323.207
322.693
322.288
322.076
322.165
322.431
317.395
317.165
316.876
316.864
316.945
317.134
317.307
317.566
317.663
317.839
317.757
317.628
317.401
316.959
316.595
316.211
315.928
315.819
315.869
316.056
310.447
310.317
310.153
310.146
310.191
310.293
310.406
310.549
310.609
310.722
310.686
310.592
310.473
310.191
309.972
309.76
309.57
309.515
309.545
309.657
303.507
303.457
303.399
303.406
303.418
303.459
303.489
303.541
303.557
303.606
303.586
303.546
303.517
303.411
303.337
303.278
303.207
303.191
303.198
303.243
351.728
350.822
350.057
350.013
350.493
351.124
351.754
352.398
353.002
353.325
353.064
352.732
351.92
350.829
349.566
348.38
347.415
346.805
346.877
347.485
344.908
344.142
343.491
343.458
343.894
344.383
344.959
345.506
346.033
346.32
346.089
345.82
345.094
344.15
343.07
342.056
341.215
340.688
340.749
341.242
338.056
337.426
336.894
336.857
337.249
337.613
338.149
338.598
339.001
339.255
339.098
338.852
338.246
337.434
336.548
335.663
334.994
334.516
334.586
334.957
331.173
330.68
330.251
330.21
330.565
330.821
331.294
331.654
331.936
332.168
332.065
331.84
331.338
330.672
329.982
329.239
328.717
328.283
328.364
328.661
324.272
323.902
323.572
323.541
323.83
324.013
324.399
324.67
324.861
325.055
324.969
324.806
324.422
323.901
323.387
322.775
322.382
322.041
322.108
322.344
317.365
317.09
316.863
316.833
317.047
317.182
317.446
317.649
317.779
317.909
317.876
317.759
317.465
317.101
316.728
316.291
316.028
315.751
315.82
315.996
310.458
310.262
310.142
310.114
310.23
310.326
310.48
310.598
310.697
310.747
310.746
310.669
310.504
310.29
310.064
309.796
309.641
309.453
309.499
309.613
303.512
303.434
303.402
303.384
303.419
303.453
303.514
303.551
303.586
303.608
303.607
303.583
303.516
303.454
303.371
303.296
303.235
303.167
303.179
303.229
351.799
350.931
350.185
350.142
350.728
351.312
352.1
352.768
353.498
353.867
353.723
353.301
352.501
351.425
350.083
348.742
347.52
347.069
347.134
347.513
344.967
344.256
343.615
343.577
344.093
344.564
345.25
345.834
346.458
346.794
346.651
346.298
345.599
344.694
343.519
342.361
341.315
340.891
340.999
341.258
338.093
337.554
337.01
336.965
337.425
337.778
338.359
338.862
339.369
339.665
339.566
339.262
338.657
337.889
336.944
335.941
335.064
334.695
334.799
334.984
331.222
330.797
330.331
330.319
330.677
330.951
331.438
331.865
332.242
332.516
332.427
332.185
331.687
331.03
330.279
329.48
328.775
328.462
328.551
328.676
324.309
324.007
323.641
323.644
323.916
324.109
324.481
324.84
325.099
325.326
325.269
325.074
324.689
324.177
323.602
322.97
322.433
322.172
322.267
322.361
317.383
317.174
316.927
316.933
317.124
317.237
317.501
317.789
317.942
318.132
318.106
317.94
317.68
317.301
316.9
316.412
316.066
315.86
315.931
316.002
310.454
310.31
310.174
310.183
310.295
310.35
310.519
310.697
310.783
310.904
310.913
310.803
310.627
310.387
310.161
309.87
309.679
309.542
309.579
309.617
303.521
303.451
303.405
303.414
303.462
303.47
303.522
303.592
303.614
303.656
303.669
303.628
303.559
303.482
303.411
303.31
303.244
303.2
303.208
303.223
352.105
351.255
350.628
350.612
351.214
351.775
352.672
353.471
354.234
354.656
354.555
354.142
353.184
352.211
350.669
349.226
348.097
347.31
347.3
347.819
345.246
344.533
344.018
343.985
344.512
344.99
345.731
346.444
347.089
347.457
347.37
347.023
346.168
345.353
344.04
342.773
341.805
341.098
341.108
341.543
338.35
337.756
337.34
337.32
337.756
338.154
338.753
339.381
339.909
340.227
340.155
339.844
339.142
338.451
337.366
336.289
335.46
334.868
334.874
335.231
331.416
330.953
330.636
330.603
330.967
331.3
331.758
332.28
332.69
332.968
332.915
332.666
332.071
331.491
330.641
329.743
329.093
328.608
328.617
328.883
324.471
324.103
323.883
323.851
324.152
324.405
324.737
325.143
325.447
325.689
325.645
325.461
324.996
324.509
323.89
323.154
322.685
322.325
322.305
322.463
317.495
317.231
317.082
317.067
317.293
317.461
317.706
317.971
318.199
318.385
318.354
318.216
317.881
317.533
317.114
316.55
316.24
315.999
315.974
316.052
310.514
310.348
310.268
310.256
310.402
310.491
310.651
310.814
310.92
311.049
311.046
310.949
310.74
310.538
310.296
309.958
309.796
309.63
309.595
309.657
303.525
303.475
303.446
303.447
303.489
303.528
303.577
303.622
303.665
303.701
303.711
303.683
303.606
303.54
303.458
303.34
303.282
303.234
303.222
303.239
352.476
351.705
351.142
351.134
351.696
352.301
353.272
354.144
354.969
355.44
355.453
355.014
354.014
352.864
351.227
349.835
348.653
347.862
347.852
348.245
345.576
344.918
344.475
344.426
344.912
345.434
346.272
347.01
347.744
348.125
348.138
347.779
346.889
345.912
344.51
343.306
342.287
341.594
341.619
341.906
338.641
338.113
337.753
337.698
338.112
338.499
339.225
339.823
340.48
340.792
340.805
340.495
339.749
338.924
337.766
336.735
335.872
335.29
335.321
335.513
331.664
331.262
330.962
330.901
331.25
331.561
332.127
332.617
333.161
333.431
333.432
333.177
332.583
331.899
330.975
330.116
329.405
328.946
328.967
329.111
324.658
324.362
324.148
324.083
324.364
324.595
325.02
325.398
325.817
326.047
326.057
325.816
325.376
324.838
324.131
323.459
322.898
322.559
322.586
322.706
317.622
317.422
317.295
317.231
317.449
317.595
317.895
318.165
318.451
318.63
318.639
318.455
318.156
317.774
317.278
316.782
316.356
316.145
316.177
316.251
310.59
310.463
310.41
310.356
310.497
310.571
310.768
310.935
311.09
311.197
311.206
311.084
310.925
310.684
310.401
310.081
309.836
309.719
309.729
309.765
303.546
303.513
303.5
303.475
303.52
303.543
303.623
303.66
303.723
303.755
303.756
303.708
303.662
303.571
303.487
303.373
303.3
303.259
303.256
303.266
352.935
352.206
351.67
351.835
352.189
352.984
354.036
354.946
355.763
356.374
356.495
356.065
354.901
353.531
352.108
350.443
349.411
348.729
348.646
348.942
345.938
345.365
344.907
345.061
345.354
345.997
346.919
347.711
348.402
348.953
349.045
348.662
347.673
346.482
345.242
343.812
342.923
342.343
342.301
342.498
338.934
338.473
338.111
338.232
338.459
338.974
339.786
340.433
341.027
341.504
341.556
341.249
340.423
339.392
338.354
337.145
336.395
335.925
335.863
336.019
331.918
331.552
331.267
331.355
331.527
331.956
332.605
333.121
333.598
333.999
334.049
333.799
333.139
332.262
331.459
330.438
329.815
329.463
329.388
329.536
324.861
324.592
324.381
324.45
324.556
324.89
325.401
325.774
326.162
326.481
326.538
326.313
325.82
325.121
324.509
323.694
323.217
322.966
322.887
323.027
317.797
317.616
317.456
317.494
317.549
317.812
318.173
318.44
318.709
318.929
318.99
318.803
318.462
317.972
317.524
316.941
316.581
316.456
316.379
316.477
310.699
310.571
310.494
310.513
310.531
310.701
310.914
311.095
311.243
311.372
311.402
311.29
311.109
310.802
310.54
310.178
309.952
309.901
309.855
309.892
303.591
303.539
303.526
303.527
303.537
303.593
303.657
303.719
303.769
303.822
303.826
303.785
303.721
303.62
303.542
303.411
303.336
303.321
303.307
303.311
353.696
352.946
352.458
352.426
352.86
353.675
354.807
355.762
356.58
357.463
357.496
357.021
356.012
354.511
352.922
351.316
350.203
349.602
349.415
349.645
346.602
346.012
345.595
345.545
345.924
346.611
347.584
348.4
349.118
349.874
349.895
349.506
348.622
347.304
345.936
344.546
343.618
343.103
342.928
343.136
339.493
339.018
338.674
338.633
338.965
339.526
340.31
341.019
341.627
342.258
342.299
341.975
341.19
340.059
338.918
337.762
336.992
336.567
336.414
336.595
332.353
331.994
331.71
331.681
331.965
332.404
333.001
333.591
334.094
334.635
334.671
334.401
333.749
332.801
331.887
330.943
330.326
329.986
329.864
330.014
325.204
324.924
324.723
324.696
324.913
325.256
325.674
326.143
326.545
326.982
327.023
326.802
326.308
325.538
324.814
324.099
323.631
323.355
323.271
323.383
318.026
317.826
317.687
317.674
317.829
318.093
318.337
318.686
318.973
319.307
319.343
319.191
318.835
318.252
317.756
317.234
316.894
316.714
316.666
316.712
310.827
310.713
310.632
310.626
310.709
310.884
311.003
311.225
311.393
311.614
311.64
311.538
311.316
310.97
310.672
310.363
310.15
310.054
310.033
310.051
303.621
303.59
303.561
303.556
303.597
303.651
303.689
303.754
303.818
303.886
303.906
303.859
303.8
303.683
303.578
303.48
303.408
303.38
303.367
303.364
354.394
353.726
353.18
353.152
353.722
354.472
355.577
356.622
357.506
358.168
358.485
357.992
356.905
355.39
353.846
352.297
351.153
350.426
350.098
350.537
347.23
346.665
346.207
346.17
346.65
347.293
348.243
349.145
349.88
350.472
350.761
350.334
349.376
348.077
346.756
345.437
344.446
343.828
343.525
343.888
340.016
339.564
339.186
339.155
339.547
340.08
340.907
341.631
342.254
342.758
342.991
342.649
341.833
340.73
339.623
338.535
337.693
337.169
336.921
337.209
332.777
332.421
332.122
332.1
332.399
332.827
333.536
334.097
334.606
335.03
335.21
334.941
334.26
333.368
332.468
331.574
330.902
330.491
330.276
330.525
325.51
325.251
325.017
325.001
325.227
325.558
326.142
326.544
326.941
327.278
327.386
327.223
326.706
325.988
325.289
324.61
324.075
323.78
323.611
323.802
318.23
318.056
317.897
317.895
318.046
318.293
318.696
318.961
319.256
319.51
319.575
319.473
319.103
318.582
318.11
317.62
317.215
317.031
316.901
317.041
310.941
310.861
310.758
310.758
310.854
311.008
311.23
311.387
311.59
311.732
311.752
311.713
311.476
311.168
310.893
310.585
310.339
310.228
310.177
310.249
303.661
303.647
303.597
303.614
303.638
303.691
303.758
303.807
303.888
303.945
303.937
303.929
303.841
303.738
303.653
303.545
303.468
303.438
303.417
303.427
355.184
354.685
354.091
354.02
354.54
355.277
356.372
357.468
358.346
358.997
359.368
359.02
357.817
356.407
354.602
353.124
352.072
351.262
351.12
351.392
347.9
347.492
346.99
346.912
347.346
347.982
348.929
349.869
350.636
351.195
351.513
351.215
350.153
348.95
347.387
346.132
345.238
344.538
344.429
344.618
340.617
340.245
339.844
339.772
340.119
340.65
341.476
342.267
342.898
343.361
343.621
343.388
342.486
341.461
340.138
339.104
338.348
337.785
337.679
337.83
333.291
332.978
332.678
332.604
332.89
333.308
334.002
334.646
335.137
335.536
335.703
335.55
334.8
333.948
332.863
332.047
331.446
330.978
330.897
331.003
325.924
325.692
325.437
325.402
325.625
325.959
326.475
326.98
327.37
327.687
327.769
327.68
327.104
326.409
325.592
324.973
324.504
324.132
324.089
324.157
318.538
318.379
318.184
318.15
318.336
318.587
318.928
319.273
319.57
319.803
319.844
319.801
319.396
318.892
318.315
317.86
317.523
317.241
317.228
317.286
311.138
311.048
310.929
310.884
311.036
311.181
311.366
311.571
311.763
311.904
311.906
311.906
311.669
311.348
311.023
310.725
310.549
310.355
310.368
310.393
303.737
303.702
303.656
303.646
303.699
303.748
303.813
303.873
303.943
303.997
303.992
304.005
303.925
303.807
303.7
303.592
303.541
303.469
303.473
303.476
356.137
355.42
354.963
354.878
355.421
356.162
357.24
358.228
359.172
359.817
360.149
359.681
358.572
357.121
355.483
354.016
352.941
352.205
352.064
352.351
348.735
348.137
347.735
347.651
348.143
348.774
349.707
350.562
351.359
351.902
352.197
351.793
350.849
349.574
348.182
346.906
345.994
345.355
345.223
345.468
341.307
340.825
340.48
340.388
340.818
341.332
342.134
342.871
343.536
343.972
344.209
343.875
343.098
341.977
340.839
339.743
338.983
338.464
338.349
338.549
333.84
333.473
333.196
333.106
333.459
333.867
334.541
335.133
335.686
336.008
336.232
335.944
335.337
334.373
333.476
332.553
331.916
331.535
331.415
331.602
326.35
326.089
325.863
325.791
326.079
326.369
326.917
327.358
327.809
328.018
328.202
327.988
327.55
326.751
326.088
325.343
324.836
324.564
324.441
324.615
318.857
318.662
318.508
318.449
318.659
318.859
319.256
319.571
319.902
320.033
320.173
320.023
319.709
319.142
318.671
318.125
317.747
317.558
317.47
317.62
311.345
311.214
311.136
311.095
311.211
311.35
311.578
311.761
311.969
312.036
312.125
312.06
311.856
311.497
311.222
310.897
310.643
310.54
310.489
310.599
303.798
303.755
303.742
303.727
303.763
303.812
303.881
303.94
304.016
304.04
304.064
304.048
303.982
303.858
303.764
303.648
303.552
303.532
303.506
303.557
357.037
356.266
355.849
355.832
356.299
356.986
358.048
358.965
359.847
360.455
360.715
360.32
359.183
357.906
356.248
354.777
353.782
353.093
352.864
353.187
349.519
348.88
348.527
348.482
348.879
349.477
350.43
351.168
351.938
352.454
352.696
352.334
351.36
350.29
348.851
347.567
346.694
346.131
345.924
346.175
341.959
341.455
341.147
341.084
341.453
341.929
342.753
343.342
344.011
344.446
344.64
344.329
343.522
342.62
341.432
340.339
339.574
339.138
338.928
339.14
334.38
333.975
333.714
333.673
333.996
334.357
335.039
335.495
336.076
336.43
336.554
336.313
335.655
334.915
333.969
333.064
332.424
332.102
331.919
332.062
326.798
326.481
326.256
326.234
326.472
326.754
327.289
327.648
328.107
328.372
328.462
328.281
327.761
327.183
326.492
325.759
325.24
325.012
324.882
324.967
319.169
318.951
318.792
318.774
318.933
319.132
319.521
319.782
320.098
320.272
320.351
320.229
319.846
319.435
318.972
318.428
318.025
317.898
317.796
317.862
311.534
311.394
311.303
311.294
311.373
311.485
311.749
311.894
312.083
312.167
312.221
312.142
311.912
311.675
311.399
311.055
310.824
310.764
310.705
310.743
303.87
303.827
303.782
303.8
303.818
303.836
303.94
303.992
304.053
304.078
304.094
304.063
303.993
303.915
303.817
303.697
303.626
303.626
303.594
303.604
358.012
357.295
356.709
356.858
357.201
357.893
358.712
359.76
360.424
361.004
361.056
360.745
359.647
358.507
357.056
355.607
354.552
353.928
353.702
353.984
350.36
349.752
349.26
349.371
349.665
350.283
350.975
351.863
352.458
352.94
352.973
352.713
351.773
350.789
349.526
348.302
347.336
346.826
346.629
346.89
342.653
342.182
341.777
341.841
342.098
342.641
343.203
343.941
344.455
344.858
344.896
344.669
343.877
343.024
341.978
340.946
340.114
339.693
339.51
339.747
334.933
334.58
334.23
334.266
334.476
334.931
335.405
335.983
336.431
336.744
336.774
336.587
335.936
335.257
334.407
333.551
332.868
332.524
332.382
332.569
327.204
326.949
326.643
326.671
326.833
327.203
327.571
328.008
328.392
328.613
328.62
328.495
327.989
327.492
326.806
326.122
325.61
325.372
325.214
325.359
319.46
319.27
319.055
319.084
319.175
319.443
319.734
320.022
320.329
320.458
320.449
320.388
320.025
319.687
319.182
318.676
318.311
318.179
318.032
318.126
311.687
311.578
311.455
311.47
311.528
311.687
311.862
312.015
312.229
312.293
312.266
312.258
312.047
311.845
311.526
311.228
311
310.93
310.831
310.892
303.918
303.881
303.844
303.847
303.863
303.921
303.988
304.027
304.104
304.113
304.105
304.118
304.041
303.976
303.867
303.762
303.679
303.679
303.642
303.655
358.876
358.269
357.682
357.737
358.057
358.654
359.285
360.266
360.988
361.456
361.46
361.138
360.11
359.111
357.713
356.487
355.342
354.696
354.619
354.819
351.113
350.594
350.08
350.123
350.418
350.953
351.457
352.323
352.925
353.326
353.317
353.06
352.157
351.302
350.112
349.033
348.073
347.51
347.436
347.573
343.298
342.882
342.447
342.497
342.737
343.207
343.596
344.348
344.839
345.171
345.175
344.952
344.192
343.475
342.486
341.538
340.729
340.31
340.21
340.298
335.471
335.126
334.776
334.816
335.025
335.396
335.713
336.337
336.745
336.994
336.988
336.809
336.208
335.625
334.824
334.014
333.366
333.051
332.958
332.996
327.623
327.355
327.074
327.105
327.292
327.577
327.843
328.301
328.623
328.814
328.781
328.661
328.219
327.765
327.133
326.475
325.98
325.759
325.658
325.686
319.762
319.551
319.342
319.389
319.521
319.711
319.944
320.232
320.485
320.617
320.559
320.515
320.192
319.878
319.416
318.941
318.572
318.446
318.35
318.367
311.896
311.742
311.626
311.666
311.739
311.821
311.996
312.158
312.315
312.389
312.353
312.333
312.136
311.957
311.667
311.383
311.143
311.096
311.034
311.038
303.995
303.948
303.882
303.916
303.929
303.96
304.02
304.084
304.136
304.155
304.134
304.142
304.072
304.014
303.909
303.819
303.738
303.723
303.71
303.713
359.893
359.271
358.646
358.559
358.806
359.397
359.988
360.81
361.451
361.826
361.866
361.55
360.69
359.659
358.301
357.075
356.131
355.616
355.59
355.707
351.977
351.484
350.939
350.863
351.05
351.587
352.074
352.779
353.323
353.671
353.68
353.42
352.674
351.777
350.609
349.543
348.766
348.296
348.287
348.39
344.059
343.652
343.189
343.135
343.272
343.742
344.134
344.731
345.18
345.494
345.497
345.295
344.651
343.853
342.9
341.993
341.355
340.943
340.949
341.033
336.115
335.769
335.391
335.361
335.459
335.849
336.176
336.663
337.013
337.288
337.281
337.125
336.564
335.92
335.152
334.401
333.909
333.561
333.569
333.646
328.132
327.84
327.565
327.553
327.63
327.933
328.191
328.569
328.829
329.042
329.036
328.913
328.475
327.975
327.382
326.803
326.429
326.149
326.148
326.22
320.136
319.893
319.707
319.725
319.773
319.973
320.169
320.449
320.62
320.77
320.763
320.668
320.359
319.999
319.593
319.15
318.917
318.719
318.691
318.75
312.1
311.945
311.838
311.862
311.898
312.01
312.116
312.298
312.38
312.483
312.469
312.434
312.218
312.013
311.782
311.509
311.378
311.254
311.246
311.263
304.046
304.006
303.963
303.98
303.994
304.025
304.057
304.118
304.15
304.179
304.177
304.168
304.079
304.025
303.961
303.856
303.821
303.778
303.771
303.774
360.783
360.178
359.627
359.508
359.681
360.158
360.774
361.375
361.967
362.254
362.348
362.011
361.22
360.092
358.947
357.795
356.928
356.608
356.427
356.624
352.763
352.257
351.792
351.671
351.841
352.243
352.764
353.266
353.774
354.011
354.108
353.839
353.142
352.154
351.166
350.184
349.426
349.143
349.011
349.15
344.698
344.305
343.919
343.775
343.953
344.271
344.711
345.145
345.549
345.776
345.835
345.619
345.011
344.193
343.362
342.529
341.897
341.633
341.561
341.651
336.63
336.297
335.984
335.855
336.012
336.275
336.648
337.003
337.309
337.518
337.53
337.369
336.878
336.194
335.524
334.832
334.346
334.122
334.079
334.132
328.551
328.273
328.012
327.921
328.046
328.25
328.544
328.814
329.041
329.227
329.189
329.099
328.728
328.167
327.666
327.105
326.754
326.573
326.53
326.592
320.415
320.238
320.027
319.969
320.086
320.215
320.398
320.613
320.764
320.913
320.867
320.827
320.534
320.114
319.777
319.378
319.123
318.995
318.953
319.02
312.276
312.173
312.04
311.991
312.084
312.15
312.258
312.384
312.459
312.559
312.529
312.527
312.337
312.056
311.893
311.628
311.483
311.418
311.385
311.435
304.129
304.079
304.03
304.025
304.067
304.079
304.106
304.152
304.174
304.21
304.205
304.199
304.135
304.038
303.99
303.889
303.849
303.82
303.816
303.841
361.752
361.078
360.633
360.39
360.482
360.878
361.492
362.007
362.504
362.789
362.721
362.491
361.68
360.71
359.546
358.511
357.765
357.46
357.431
357.62
353.582
353.038
352.672
352.446
352.515
352.855
353.383
353.819
354.246
354.505
354.459
354.269
353.533
352.714
351.68
350.794
350.155
349.895
349.888
350.037
345.42
344.955
344.656
344.458
344.504
344.785
345.246
345.605
345.95
346.184
346.151
345.981
345.342
344.672
343.782
343.032
342.509
342.272
342.316
342.401
337.22
336.856
336.603
336.434
336.465
336.685
337.056
337.348
337.637
337.841
337.809
337.643
337.128
336.605
335.877
335.244
334.827
334.638
334.686
334.737
328.976
328.723
328.501
328.36
328.38
328.558
328.853
329.074
329.315
329.469
329.429
329.295
328.892
328.503
327.93
327.437
327.148
326.988
327.035
327.035
320.729
320.554
320.385
320.286
320.279
320.424
320.661
320.797
320.966
321.078
321.038
320.932
320.659
320.366
319.955
319.614
319.438
319.294
319.335
319.345
312.468
312.364
312.243
312.187
312.187
312.278
312.428
312.489
312.605
312.657
312.637
312.576
312.402
312.261
311.985
311.788
311.683
311.599
311.621
311.616
304.176
304.15
304.11
304.089
304.092
304.11
304.174
304.192
304.23
304.248
304.234
304.21
304.151
304.12
304.029
303.947
303.912
303.899
303.895
303.903
362.801
361.982
361.696
361.41
361.432
361.727
362.137
362.576
362.962
363.182
363.176
362.879
362.128
361.361
360.213
359.421
358.667
358.197
358.236
358.566
354.507
353.825
353.578
353.359
353.35
353.581
353.953
354.319
354.642
354.837
354.835
354.58
353.934
353.29
352.26
351.609
350.974
350.553
350.568
350.823
346.203
345.639
345.448
345.244
345.203
345.411
345.719
346.027
346.306
346.465
346.456
346.251
345.718
345.153
344.29
343.741
343.229
342.862
342.875
343.071
337.854
337.408
337.255
337.073
337.034
337.205
337.455
337.703
337.94
338.064
338.056
337.897
337.459
336.977
336.277
335.829
335.435
335.137
335.154
335.284
329.494
329.163
329.021
328.891
328.837
328.963
329.165
329.353
329.548
329.625
329.61
329.487
329.164
328.791
328.236
327.889
327.598
327.383
327.386
327.448
321.119
320.874
320.767
320.687
320.621
320.728
320.866
321.002
321.114
321.173
321.182
321.083
320.868
320.577
320.2
319.933
319.733
319.601
319.593
319.6
312.703
312.529
312.492
312.441
312.379
312.452
312.54
312.636
312.662
312.712
312.733
312.68
312.548
312.368
312.141
311.979
311.853
311.768
311.785
311.761
304.262
304.201
304.196
304.18
304.156
304.184
304.204
304.235
304.239
304.261
304.275
304.251
304.214
304.151
304.074
304.024
303.97
303.946
303.952
303.943
363.911
363.035
362.592
362.357
362.349
362.519
362.917
363.165
363.587
363.747
363.661
363.349
362.651
361.934
360.885
360.2
359.528
359.191
359.296
359.64
355.436
354.72
354.378
354.161
354.139
354.291
354.637
354.823
355.191
355.311
355.259
354.979
354.371
353.754
352.827
352.273
351.681
351.39
351.486
351.749
346.945
346.38
346.098
345.905
345.879
346.022
346.296
346.441
346.744
346.839
346.801
346.571
346.084
345.551
344.74
344.313
343.794
343.576
343.651
343.847
338.454
338.021
337.78
337.603
337.587
337.717
337.931
338.038
338.288
338.364
338.324
338.134
337.765
337.299
336.628
336.31
335.874
335.717
335.794
335.891
329.945
329.6
329.427
329.28
329.274
329.379
329.52
329.629
329.804
329.861
329.821
329.699
329.426
329.042
328.519
328.265
327.926
327.823
327.899
327.943
321.407
321.181
321.07
320.955
320.951
321.014
321.098
321.191
321.311
321.355
321.329
321.255
321.088
320.77
320.406
320.195
319.965
319.902
319.977
319.968
312.863
312.766
312.672
312.595
312.603
312.633
312.666
312.739
312.802
312.84
312.813
312.783
312.687
312.487
312.277
312.123
312.013
311.956
312.024
311.999
304.312
304.273
304.253
304.216
304.223
304.244
304.255
304.267
304.299
304.316
304.291
304.279
304.259
304.183
304.126
304.065
304.034
304.006
304.032
304.024
365
364.109
363.535
363.197
363.191
363.327
363.635
363.975
364.103
364.259
364.092
363.688
363.074
362.378
361.59
360.92
360.382
360.237
360.236
360.554
356.393
355.623
355.145
354.855
354.822
354.93
355.211
355.517
355.613
355.769
355.613
355.274
354.743
354.124
353.423
352.88
352.419
352.283
352.295
352.519
347.769
347.12
346.709
346.482
346.431
346.515
346.748
347.062
347.129
347.238
347.125
346.84
346.379
345.849
345.254
344.842
344.442
344.31
344.324
344.482
339.101
338.584
338.251
338.087
338.051
338.089
338.276
338.55
338.604
338.709
338.6
338.356
337.991
337.554
337.03
336.74
336.399
336.302
336.312
336.422
330.421
330.035
329.785
329.678
329.624
329.64
329.792
330.014
330.078
330.153
330.07
329.86
329.562
329.248
328.817
328.577
328.351
328.281
328.284
328.367
321.742
321.464
321.312
321.236
321.187
321.177
321.278
321.467
321.516
321.558
321.492
321.337
321.147
320.911
320.607
320.416
320.285
320.236
320.229
320.276
313.061
312.892
312.825
312.769
312.751
312.71
312.768
312.897
312.938
312.942
312.908
312.817
312.696
312.555
312.383
312.28
312.208
312.162
312.153
312.191
304.387
304.325
304.304
304.279
304.273
304.252
304.271
304.329
304.337
304.331
304.335
304.304
304.257
304.212
304.157
304.117
304.103
304.073
304.076
304.083
365.772
365.034
364.262
363.921
363.668
363.686
364.167
364.474
364.507
364.702
364.519
364.093
363.49
362.84
362.105
361.496
360.939
360.872
360.861
361.279
357.031
356.414
355.752
355.44
355.208
355.228
355.649
355.948
355.961
356.121
355.946
355.591
355.06
354.497
353.886
353.348
352.859
352.798
352.766
353.123
348.286
347.788
347.211
346.942
346.733
346.781
347.11
347.381
347.38
347.522
347.381
347.084
346.635
346.144
345.623
345.194
344.758
344.719
344.677
344.971
339.529
339.126
338.644
338.428
338.257
338.324
338.551
338.803
338.804
338.918
338.807
338.56
338.186
337.786
337.356
337.001
336.659
336.64
336.582
336.819
330.753
330.438
330.053
329.9
329.769
329.84
329.982
330.199
330.205
330.291
330.197
330.039
329.734
329.417
329.095
328.79
328.563
328.549
328.447
328.676
321.953
321.744
321.485
321.37
321.277
321.317
321.414
321.603
321.594
321.652
321.567
321.493
321.268
321.033
320.821
320.565
320.436
320.427
320.324
320.474
313.188
313.048
312.894
312.845
312.783
312.803
312.866
312.969
312.976
313.009
312.946
312.928
312.784
312.63
312.523
312.34
312.283
312.286
312.215
312.295
304.424
304.37
304.314
304.3
304.289
304.306
304.317
304.344
304.343
304.373
304.34
304.344
304.278
304.233
304.18
304.145
304.116
304.13
304.103
304.123
)
;

boundaryField
{
    hotSide
    {
        type            fixedGradient;
        gradient        nonuniform List<scalar> 
400
(
546.689
544.253
544.157
546.326
550.511
556.356
563.482
571.552
580.291
589.493
599.018
608.785
618.763
628.968
639.459
650.331
661.707
673.712
686.445
699.95
531.281
529.157
529.53
532.31
537.19
543.744
551.538
560.191
569.404
578.962
588.721
598.603
608.584
618.693
629.005
639.639
650.744
662.478
674.97
688.278
522.975
521.449
522.381
525.665
530.99
537.929
546.043
554.946
564.333
573.981
583.747
593.554
603.383
613.273
623.308
633.619
644.365
655.712
667.796
680.686
521.277
520.625
522.217
525.941
531.52
538.58
546.724
555.589
564.879
574.372
583.926
593.463
602.974
612.501
622.138
632.017
642.292
653.118
664.624
676.882
524.407
524.809
527.19
531.426
537.274
544.418
552.512
561.226
570.282
579.466
588.639
597.733
606.745
615.732
624.795
634.068
643.699
653.833
664.588
676.042
530.315
531.87
535.177
540.093
546.39
553.78
561.946
570.581
579.416
588.245
596.937
605.44
613.775
622.019
630.295
638.75
647.536
656.796
666.649
677.177
537.243
539.992
544.342
550.129
557.115
565.007
573.484
582.229
590.961
599.471
607.639
615.438
622.928
630.231
637.512
644.947
652.71
660.954
669.802
679.345
543.761
547.679
553.133
559.935
567.825
576.479
585.535
594.627
603.43
611.707
619.343
626.354
632.862
639.066
645.193
651.473
658.11
665.274
673.098
681.674
548.659
553.619
560.127
567.977
576.881
586.473
596.323
605.977
615.026
623.175
630.308
636.496
641.96
647
651.934
657.051
662.591
668.741
675.635
683.365
550.92
556.653
563.994
572.731
582.558
593.064
603.748
614.054
623.457
631.582
638.302
643.757
648.285
652.302
656.215
660.37
665.032
670.399
676.602
683.725
549.793
555.878
563.641
572.871
583.25
594.345
605.602
616.392
626.1
634.284
640.803
645.85
649.846
653.29
656.647
660.293
664.511
669.498
675.386
682.252
544.949
550.865
558.512
567.675
578.033
589.143
600.447
611.309
621.114
629.414
636.066
641.254
645.39
648.969
652.453
656.222
660.563
665.681
671.711
678.733
536.6
541.839
548.847
557.411
567.205
577.799
588.663
599.221
608.933
617.411
624.512
630.357
635.264
639.642
643.898
648.387
653.393
659.128
665.737
673.313
525.527
529.691
535.695
543.328
552.27
562.105
572.351
582.505
592.114
600.852
608.574
615.33
621.324
626.857
632.255
637.831
643.857
650.548
658.063
666.506
513.016
515.869
520.703
527.319
535.401
544.542
554.282
564.165
573.792
582.873
591.257
598.936
606.031
612.749
619.349
626.102
633.264
641.055
649.643
659.138
500.814
502.268
505.931
511.623
519.016
527.679
537.14
546.949
556.727
566.195
575.192
583.678
591.717
599.459
607.116
614.93
623.152
632.01
641.684
652.287
491.142
491.241
493.834
498.757
505.647
514.02
523.363
533.207
543.171
552.982
562.472
571.584
580.35
588.887
597.375
606.045
615.149
624.933
635.594
647.243
486.593
485.522
487.182
491.422
497.845
505.917
515.088
524.873
534.895
544.884
554.676
564.201
573.476
582.593
591.712
601.049
610.86
621.403
632.887
645.419
489.444
487.526
488.384
491.888
497.653
505.152
513.849
523.275
533.068
542.969
552.815
562.533
572.123
581.657
591.273
601.167
611.575
622.742
634.863
648.037
500.44
498.029
498.21
500.879
505.721
512.298
520.147
528.855
538.09
547.612
557.262
566.958
576.689
586.507
596.52
606.889
617.808
629.474
642.043
655.589
)
;
    }
    coldSide
    {
        type            mixed;
        refValue        uniform 300;
        refGradient     uniform 0;
        valueFraction   uniform 0.991591;
        source          uniform 0;
        value           nonuniform List<scalar> 
400
(
300.029
300.03
300.03
300.03
300.03
300.03
300.03
300.031
300.031
300.032
300.033
300.033
300.034
300.034
300.035
300.035
300.036
300.036
300.037
300.037
300.029
300.029
300.029
300.029
300.03
300.03
300.03
300.031
300.031
300.032
300.032
300.033
300.033
300.034
300.034
300.035
300.035
300.036