/*--------------------------------*- C++ -*----------------------------------*\
| =========                 |                                                 |
| \\      /  F ield         | OpenFOAM: The Open Source CFD Toolbox           |
|  \\    /   O peration     | Version:  2212                                  |
|   \\  /    A nd           | Website:  www.openfoam.com                      |
|    \\/     M anipulation  |                                                 |
\*---------------------------------------------------------------------------*/
FoamFile
{
    version     2.0;
    format      ascii;
    arch        "LSB;label=32;scalar=64";
    class       volScalarField;
    location    "0";
    object      Tdirect;
}
// * * * * * * * * * * * * * * * * * * * * * * * * * * * * * * * * * * * * * //

dimensions      [0 0 0 1 0 0 0];

internalField   nonuniform List<scalar> 
3200
(
347.878
348.615
349.555
350.58
351.635
352.671
353.627
354.434
355.022
355.332
355.332
355.022
354.434
353.627
352.671
351.635
350.58
349.555
348.615
347.878
341.511
342.134
342.945
343.832
344.745
345.641
346.467
347.165
347.672
347.941
347.941
347.672
347.165
346.467
345.641
344.745
343.832
342.945
342.134
341.511
335.138
335.655
336.338
337.087
337.859
338.616
339.313
339.902
340.33
340.557
340.557
340.33
339.902
339.313
338.616
337.859
337.087
336.338
335.655
335.138
328.76
329.176
329.733
330.345
330.976
331.594
332.164
332.645
332.995
333.179
333.179
332.995
332.645
332.164
331.594
330.976
330.345
329.733
329.176
328.76
322.378
322.698
323.13
323.606
324.096
324.577
325.019
325.393
325.664
325.807
325.807
325.664
325.393
325.019
324.577
324.096
323.606
323.13
322.698
322.378
315.994
316.22
316.528
316.868
317.218
317.561
317.877
318.144
318.337
318.44
318.44
318.337
318.144
317.877
317.561
317.218
316.868
316.528
316.22
315.994
309.608
309.743
309.928
310.132
310.342
310.548
310.738
310.898
311.014
311.075
311.075
311.014
310.898
310.738
310.548
310.342
310.132
309.928
309.743
309.608
303.221
303.266
303.328
303.396
303.467
303.536
303.599
303.653
303.692
303.712
303.712
303.692
303.653
303.599
303.536
303.467
303.396
303.328
303.266
303.221
348.03
348.76
349.692
350.707
351.752
352.776
353.721
354.518
355.098
355.405
355.405
355.098
354.518
353.721
352.776
351.752
350.707
349.692
348.76
348.03
341.641
342.26
343.064
343.942
344.846
345.732
346.549
347.238
347.739
348.003
348.003
347.739
347.238
346.549
345.732
344.846
343.942
343.064
342.26
341.641
335.248
335.761
336.438
337.18
337.944
338.693
339.383
339.964
340.387
340.61
340.61
340.387
339.964
339.383
338.693
337.944
337.18
336.438
335.761
335.248
328.85
329.263
329.815
330.421
331.046
331.658
332.221
332.696
333.041
333.223
333.223
333.041
332.696
332.221
331.658
331.046
330.421
329.815
329.263
328.85
322.448
322.765
323.194
323.665
324.15
324.626
325.064
325.432
325.7
325.841
325.841
325.7
325.432
325.064
324.626
324.15
323.665
323.194
322.765
322.448
316.044
316.269
316.574
316.91
317.257
317.596
317.909
318.172
318.363
318.464
318.464
318.363
318.172
317.909
317.596
317.257
316.91
316.574
316.269
316.044
309.638
309.772
309.955
310.157
310.365
310.569
310.757
310.915
311.029
311.09
311.09
311.029
310.915
310.757
310.569
310.365
310.157
309.955
309.772
309.638
303.231
303.276
303.337
303.405
303.474
303.543
303.606
303.659
303.697
303.717
303.717
303.697
303.659
303.606
303.543
303.474
303.405
303.337
303.276
303.231
348.332
349.051
349.968
350.964
351.987
352.99
353.913
354.69
355.256
355.554
355.554
355.256
354.69
353.913
352.99
351.987
350.964
349.968
349.051
348.332
341.903
342.512
343.302
344.164
345.05
345.917
346.715
347.387
347.876
348.133
348.133
347.876
347.387
346.715
345.917
345.05
344.164
343.302
342.512
341.903
335.469
335.974
336.64
337.368
338.117
338.849
339.523
340.091
340.503
340.72
340.72
340.503
340.091
339.523
338.849
338.117
337.368
336.64
335.974
335.469
329.031
329.437
329.98
330.575
331.187
331.786
332.336
332.799
333.136
333.313
333.313
333.136
332.799
332.336
331.786
331.187
330.575
329.98
329.437
329.031
322.589
322.901
323.322
323.784
324.26
324.725
325.153
325.513
325.774
325.912
325.912
325.774
325.513
325.153
324.725
324.26
323.784
323.322
322.901
322.589
316.144
316.365
316.665
316.996
317.335
317.668
317.973
318.23
318.416
318.515
318.515
318.416
318.23
317.973
317.668
317.335
316.996
316.665
316.365
316.144
309.698
309.83
310.01
310.208
310.412
310.612
310.795
310.949
311.061
311.12
311.12
311.061
310.949
310.795
310.612
310.412
310.208
310.01
309.83
309.698
303.251
303.295
303.355
303.422
303.49
303.557
303.619
303.67
303.708
303.727
303.727
303.708
303.67
303.619
303.557
303.49
303.422
303.355
303.295
303.251
348.789
349.491
350.384
351.353
352.346
353.316
354.208
354.957
355.502
355.789
355.789
355.502
354.957
354.208
353.316
352.346
351.353
350.384
349.491
348.789
342.298
342.892
343.663
344.501
345.361
346.2
346.971
347.619
348.089
348.337
348.337
348.089
347.619
346.971
346.2
345.361
344.501
343.663
342.892
342.298
335.802
336.295
336.944
337.653
338.38
339.089
339.74
340.287
340.684
340.893
340.893
340.684
340.287
339.74
339.089
338.38
337.653
336.944
336.295
335.802
329.303
329.7
330.229
330.808
331.402
331.982
332.514
332.961
333.285
333.455
333.455
333.285
332.961
332.514
331.982
331.402
330.808
330.229
329.7
329.303
322.8
323.105
323.516
323.966
324.427
324.878
325.291
325.638
325.89
326.023
326.023
325.89
325.638
325.291
324.878
324.427
323.966
323.516
323.105
322.8
316.295
316.511
316.804
317.125
317.455
317.777
318.072
318.319
318.499
318.594
318.594
318.499
318.319
318.072
317.777
317.455
317.125
316.804
316.511
316.295
309.789
309.918
310.093
310.286
310.484
310.677
310.854
311.003
311.111
311.168
311.168
311.111
311.003
310.854
310.677
310.484
310.286
310.093
309.918
309.789
303.281
303.325
303.383
303.448
303.514
303.579
303.638
303.688
303.724
303.743
303.743
303.724
303.688
303.638
303.579
303.514
303.448
303.383
303.325
303.281
349.4
350.081
350.945
351.879
352.834
353.764
354.616
355.33
355.848
356.121
356.121
355.848
355.33
354.616
353.764
352.834
351.879
350.945
350.081
349.4
342.827
343.403
344.148
344.957
345.783
346.588
347.325
347.943
348.39
348.626
348.626
348.39
347.943
347.325
346.588
345.783
344.957
344.148
343.403
342.827
336.249
336.727
337.355
338.038
338.737
339.417
340.04
340.561
340.939
341.138
341.138
340.939
340.561
340.04
339.417
338.737
338.038
337.355
336.727
336.249
329.668
330.053
330.564
331.123
331.694
332.25
332.759
333.185
333.493
333.656
333.656
333.493
333.185
332.759
332.25
331.694
331.123
330.564
330.053
329.668
323.084
323.379
323.776
324.21
324.655
325.087
325.482
325.813
326.053
326.179
326.179
326.053
325.813
325.482
325.087
324.655
324.21
323.776
323.379
323.084
316.498
316.707
316.99
317.3
317.617
317.926
318.208
318.444
318.615
318.705
318.705
318.615
318.444
318.208
317.926
317.617
317.3
316.99
316.707
316.498
309.911
310.035
310.205
310.391
310.582
310.767
310.936
311.078
311.181
311.235
311.235
311.181
311.078
310.936
310.767
310.582
310.391
310.205
310.035
309.911
303.322
303.364
303.421
303.483
303.547
303.609
303.666
303.713
303.748
303.766
303.766
303.748
303.713
303.666
303.609
303.547
303.483
303.421
303.364
303.322
350.17
350.825
351.654
352.548
353.458
354.341
355.147
355.821
356.308
356.564
356.564
356.308
355.821
355.147
354.341
353.458
352.548
351.654
350.825
350.17
343.493
344.047
344.762
345.536
346.323
347.088
347.785
348.368
348.789
349.011
349.011
348.789
348.368
347.785
347.088
346.323
345.536
344.762
344.047
343.493
336.812
337.272
337.874
338.528
339.194
339.84
340.429
340.921
341.277
341.464
341.464
341.277
340.921
340.429
339.84
339.194
338.528
337.874
337.272
336.812
330.127
330.498
330.989
331.523
332.068
332.596
333.077
333.48
333.77
333.923
333.923
333.77
333.48
333.077
332.596
332.068
331.523
330.989
330.498
330.127
323.441
323.725
324.106
324.522
324.945
325.356
325.73
326.042
326.268
326.387
326.387
326.268
326.042
325.73
325.356
324.945
324.522
324.106
323.725
323.441
316.753
316.954
317.226
317.522
317.825
318.118
318.385
318.608
318.769
318.854
318.854
318.769
318.608
318.385
318.118
317.825
317.522
317.226
316.954
316.753
310.064
310.184
310.347
310.525
310.706
310.882
311.043
311.177
311.273
311.324
311.324
311.273
311.177
311.043
310.882
310.706
310.525
310.347
310.184
310.064
303.374
303.414
303.468
303.528
303.589
303.648
303.702
303.746
303.779
303.796
303.796
303.779
303.746
303.702
303.648
303.589
303.528
303.468
303.414
303.374
351.101
351.727
352.517
353.365
354.225
355.056
355.812
356.442
356.896
357.135
357.135
356.896
356.442
355.812
355.056
354.225
353.365
352.517
351.727
351.101
344.298
344.828
345.509
346.244
346.988
347.708
348.362
348.907
349.299
349.505
349.505
349.299
348.907
348.362
347.708
346.988
346.244
345.509
344.828
344.298
337.492
337.932
338.506
339.126
339.756
340.364
340.917
341.377
341.709
341.883
341.883
341.709
341.377
340.917
340.364
339.756
339.126
338.506
337.932
337.492
330.683
331.037
331.505
332.013
332.528
333.025
333.477
333.853
334.124
334.266
334.266
334.124
333.853
333.477
333.025
332.528
332.013
331.505
331.037
330.683
323.873
324.145
324.508
324.902
325.303
325.689
326.04
326.333
326.543
326.654
326.654
326.543
326.333
326.04
325.689
325.303
324.902
324.508
324.145
323.873
317.061
317.254
317.513
317.794
318.08
318.356
318.607
318.816
318.966
319.045
319.045
318.966
318.816
318.607
318.356
318.08
317.794
317.513
317.254
317.061
310.249
310.363
310.519
310.688
310.86
311.025
311.176
311.301
311.391
311.439
311.439
311.391
311.301
311.176
311.025
310.86
310.688
310.519
310.363
310.249
303.436
303.474
303.526
303.583
303.64
303.696
303.746
303.788
303.818
303.834
303.834
303.818
303.788
303.746
303.696
303.64
303.583
303.526
303.474
303.436
352.197
352.792
353.54
354.339
355.146
355.922
356.624
357.208
357.627
357.847
357.847
357.627
357.208
356.624
355.922
355.146
354.339
353.54
352.792
352.197
345.246
345.749
346.394
347.086
347.785
348.457
349.065
349.57
349.933
350.123
350.123
349.933
349.57
349.065
348.457
347.785
347.086
346.394
345.749
345.246
338.292
338.71
339.254
339.839
340.429
340.998
341.512
341.938
342.245
342.406
342.406
342.245
341.938
341.512
340.998
340.429
339.839
339.254
338.71
338.292
331.338
331.674
332.117
332.595
333.078
333.543
333.963
334.312
334.563
334.694
334.694
334.563
334.312
333.963
333.543
333.078
332.595
332.117
331.674
331.338
324.381
324.64
324.983
325.355
325.731
326.092
326.419
326.69
326.885
326.987
326.987
326.885
326.69
326.419
326.092
325.731
325.355
324.983
324.64
324.381
317.424
317.607
317.852
318.118
318.386
318.644
318.877
319.071
319.21
319.283
319.283
319.21
319.071
318.877
318.644
318.386
318.118
317.852
317.607
317.424
310.467
310.576
310.723
310.882
311.043
311.198
311.338
311.455
311.538
311.582
311.582
311.538
311.455
311.338
311.198
311.043
310.882
310.723
310.576
310.467
303.509
303.545
303.594
303.648
303.702
303.754
303.801
303.84
303.868
303.882
303.882
303.868
303.84
303.801
303.754
303.702
303.648
303.594
303.545
303.509
353.461
354.023
354.726
355.475
356.226
356.946
357.594
358.131
358.515
358.716
358.716
358.515
358.131
357.594
356.946
356.226
355.475
354.726
354.023
353.461
346.339
346.815
347.422
348.07
348.721
349.344
349.905
350.37
350.702
350.876
350.876
350.702
350.37
349.905
349.344
348.721
348.07
347.422
346.815
346.339
339.216
339.611
340.122
340.67
341.221
341.748
342.222
342.615
342.896
343.043
343.043
342.896
342.615
342.222
341.748
341.221
340.67
340.122
339.611
339.216
332.092
332.41
332.827
333.275
333.725
334.156
334.544
334.865
335.095
335.215
335.215
335.095
334.865
334.544
334.156
333.725
333.275
332.827
332.41
332.092
324.968
325.212
325.535
325.883
326.234
326.569
326.871
327.12
327.299
327.392
327.392
327.299
327.12
326.871
326.569
326.234
325.883
325.535
325.212
324.968
317.843
318.016
318.246
318.495
318.745
318.985
319.2
319.378
319.506
319.573
319.573
319.506
319.378
319.2
318.985
318.745
318.495
318.246
318.016
317.843
310.718
310.821
310.959
311.109
311.259
311.403
311.532
311.639
311.716
311.756
311.756
311.716
311.639
311.532
311.403
311.259
311.109
310.959
310.821
310.718
303.593
303.627
303.674
303.724
303.774
303.822
303.866
303.901
303.927
303.941
303.941
303.927
303.901
303.866
303.822
303.774
303.724
303.674
303.627
303.593
354.896
355.424
356.082
356.779
357.475
358.138
358.733
359.223
359.573
359.756
359.756
359.573
359.223
358.733
358.138
357.475
356.779
356.082
355.424
354.896
347.581
348.028
348.596
349.199
349.802
350.376
350.891
351.315
351.619
351.777
351.777
351.619
351.315
350.891
350.376
349.802
349.199
348.596
348.028
347.581
340.265
340.636
341.114
341.624
342.135
342.62
343.056
343.415
343.671
343.804
343.804
343.671
343.415
343.056
342.62
342.135
341.624
341.114
340.636
340.265
332.95
333.248
333.638
334.055
334.473
334.87
335.226
335.519
335.729
335.838
335.838
335.729
335.519
335.226
334.87
334.473
334.055
333.638
333.248
332.95
325.634
325.863
326.166
326.49
326.815
327.124
327.401
327.629
327.792
327.877
327.877
327.792
327.629
327.401
327.124
326.815
326.49
326.166
325.863
325.634
318.319
318.481
318.697
318.928
319.16
319.381
319.579
319.742
319.858
319.919
319.919
319.858
319.742
319.579
319.381
319.16
318.928
318.697
318.481
318.319
311.004
311.1
311.23
311.369
311.508
311.641
311.76
311.857
311.927
311.964
311.964
311.927
311.857
311.76
311.641
311.508
311.369
311.23
311.1
311.004
303.689
303.721
303.764
303.811
303.858
303.902
303.942
303.975
303.998
304.01
304.01
303.998
303.975
303.942
303.902
303.858
303.811
303.764
303.721
303.689
356.506
357
357.613
358.258
358.9
359.507
360.05
360.494
360.811
360.976
360.976
360.811
360.494
360.05
359.507
358.9
358.258
357.613
357
356.506
348.974
349.392
349.92
350.479
351.035
351.561
352.031
352.417
352.691
352.834
352.834
352.691
352.417
352.031
351.561
351.035
350.479
349.92
349.392
348.974
341.442
341.789
342.234
342.707
343.177
343.622
344.02
344.346
344.578
344.699
344.699
344.578
344.346
344.02
343.622
343.177
342.707
342.234
341.789
341.442
333.912
334.191
334.554
334.94
335.325
335.689
336.014
336.281
336.471
336.569
336.569
336.471
336.281
336.014
335.689
335.325
334.94
334.554
334.191
333.912
326.382
326.596
326.878
327.178
327.477
327.761
328.014
328.221
328.368
328.445
328.445
328.368
328.221
328.014
327.761
327.477
327.178
326.878
326.596
326.382
318.853
319.004
319.205
319.42
319.634
319.836
320.017
320.165
320.27
320.325
320.325
320.27
320.165
320.017
319.836
319.634
319.42
319.205
319.004
318.853
311.324
311.415
311.535
311.664
311.792
311.914
312.023
312.111
312.175
312.208
312.208
312.175
312.111
312.023
311.914
311.792
311.664
311.535
311.415
311.324
303.796
303.826
303.867
303.91
303.953
303.994
304.03
304.06
304.081
304.092
304.092
304.081
304.06
304.03
303.994
303.953
303.91
303.867
303.826
303.796
358.294
358.754
359.322
359.917
360.505
361.06
361.552
361.954
362.24
362.388
362.388
362.24
361.954
361.552
361.06
360.505
359.917
359.322
358.754
358.294
350.521
350.91
351.4
351.915
352.425
352.905
353.332
353.68
353.928
354.056
354.056
353.928
353.68
353.332
352.905
352.425
351.915
351.4
350.91
350.521
342.749
343.072
343.485
343.921
344.352
344.759
345.119
345.414
345.623
345.732
345.732
345.623
345.414
345.119
344.759
344.352
343.921
343.485
343.072
342.749
334.98
335.24
335.576
335.933
336.286
336.618
336.913
337.155
337.326
337.415
337.415
337.326
337.155
336.913
336.618
336.286
335.933
335.576
335.24
334.98
327.212
327.411
327.673
327.95
328.224
328.483
328.713
328.9
329.033
329.102
329.102
329.033
328.9
328.713
328.483
328.224
327.95
327.673
327.411
327.212
319.446
319.587
319.773
319.971
320.167
320.352
320.516
320.65
320.745
320.794
320.794
320.745
320.65
320.516
320.352
320.167
319.971
319.773
319.587
319.446
311.68
311.764
311.876
311.995
312.113
312.224
312.322
312.403
312.46
312.49
312.49
312.46
312.403
312.322
312.224
312.113
311.995
311.876
311.764
311.68
303.915
303.943
303.981
304.021
304.06
304.097
304.13
304.157
304.177
304.186
304.186
304.177
304.157
304.13
304.097
304.06
304.021
303.981
303.943
303.915
360.262
360.689
361.214
361.76
362.297
362.801
363.246
363.608
363.865
363.998
363.998
363.865
363.608
363.246
362.801
362.297
361.76
361.214
360.689
360.262
352.223
352.585
353.037
353.511
353.976
354.413
354.799
355.112
355.335
355.45
355.45
355.335
355.112
354.799
354.413
353.976
353.511
353.037
352.585
352.223
344.188
344.487
344.869
345.269
345.663
346.033
346.359
346.625
346.813
346.91
346.91
346.813
346.625
346.359
346.033
345.663
345.269
344.869
344.487
344.188
336.156
336.396
336.707
337.035
337.357
337.66
337.927
338.144
338.298
338.378
338.378
338.298
338.144
337.927
337.66
337.357
337.035
336.707
336.396
336.156
328.126
328.311
328.552
328.807
329.058
329.293
329.501
329.67
329.789
329.851
329.851
329.789
329.67
329.501
329.293
329.058
328.807
328.552
328.311
328.126
320.098
320.229
320.401
320.583
320.762
320.93
321.079
321.2
321.285
321.329
321.329
321.285
321.2
321.079
320.93
320.762
320.583
320.401
320.229
320.098
312.072
312.15
312.253
312.362
312.47
312.571
312.66
312.733
312.784
312.811
312.811
312.784
312.733
312.66
312.571
312.47
312.362
312.253
312.15
312.072
304.047
304.073
304.107
304.144
304.18
304.214
304.244
304.268
304.285
304.294
304.294
304.285
304.268
304.244
304.214
304.18
304.144
304.107
304.073
304.047
362.411
362.806
363.289
363.789
364.278
364.735
365.136
365.461
365.691
365.809
365.809
365.691
365.461
365.136
364.735
364.278
363.789
363.289
362.806
362.411
354.082
354.416
354.833
355.266
355.691
356.086
356.434
356.716
356.915
357.018
357.018
356.915
356.716
356.434
356.086
355.691
355.266
354.833
354.416
354.082
345.759
346.035
346.386
346.753
347.112
347.447
347.741
347.98
348.148
348.235
348.235
348.148
347.98
347.741
347.447
347.112
346.753
346.386
346.035
345.759
337.439
337.662
337.948
338.248
338.542
338.816
339.057
339.252
339.39
339.461
339.461
339.39
339.252
339.057
338.816
338.542
338.248
337.948
337.662
337.439
329.123
329.294
329.516
329.75
329.978
330.191
330.379
330.531
330.638
330.693
330.693
330.638
330.531
330.379
330.191
329.978
329.75
329.516
329.294
329.123
320.81
320.931
321.09
321.256
321.42
321.572
321.706
321.814
321.891
321.931
321.931
321.891
321.814
321.706
321.572
321.42
321.256
321.09
320.931
320.81
312.499
312.572
312.667
312.767
312.865
312.956
313.037
313.102
313.148
313.172
313.172
313.148
313.102
313.037
312.956
312.865
312.767
312.667
312.572
312.499
304.19
304.214
304.246
304.279
304.312
304.343
304.37
304.392
304.407
304.415
304.415
304.407
304.392
304.37
304.343
304.312
304.279
304.246
304.214
304.19
364.739
365.103
365.546
366.003
366.448
366.86
367.221
367.512
367.717
367.823
367.823
367.717
367.512
367.221
366.86
366.448
366.003
365.546
365.103
364.739
356.096
356.403
356.786
357.182
357.567
357.925
358.238
358.49
358.668
358.76
358.76
358.668
358.49
358.238
357.925
357.567
357.182
356.786
356.403
356.096
347.459
347.714
348.037
348.371
348.698
349
349.265
349.479
349.629
349.707
349.707
349.629
349.479
349.265
349
348.698
348.371
348.037
347.714
347.459
338.828
339.034
339.297
339.571
339.837
340.085
340.302
340.477
340.6
340.664
340.664
340.6
340.477
340.302
340.085
339.837
339.571
339.297
339.034
338.828
330.203
330.36
330.564
330.777
330.985
331.178
331.347
331.483
331.578
331.628
331.628
331.578
331.483
331.347
331.178
330.985
330.777
330.564
330.36
330.203
321.581
321.692
321.838
321.99
322.139
322.276
322.397
322.494
322.563
322.598
322.598
322.563
322.494
322.397
322.276
322.139
321.99
321.838
321.692
321.581
312.962
313.029
313.116
313.207
313.296
313.379
313.452
313.51
313.551
313.572
313.572
313.551
313.51
313.452
313.379
313.296
313.207
313.116
313.029
312.962
304.345
304.367
304.396
304.427
304.457
304.485
304.509
304.528
304.542
304.549
304.549
304.542
304.528
304.509
304.485
304.457
304.427
304.396
304.367
304.345
367.236
367.571
367.977
368.394
368.797
369.169
369.493
369.754
369.937
370.031
370.031
369.937
369.754
369.493
369.169
368.797
368.394
367.977
367.571
367.236
358.254
358.537
358.887
359.249
359.598
359.921
360.202
360.428
360.587
360.668
360.668
360.587
360.428
360.202
359.921
359.598
359.249
358.887
358.537
358.254
349.281
349.516
349.811
350.116
350.412
350.685
350.924
351.115
351.249
351.319
351.319
351.249
351.115
350.924
350.685
350.412
350.116
349.811
349.516
349.281
340.316
340.505
340.746
340.996
341.238
341.461
341.656
341.813
341.923
341.98
341.98
341.923
341.813
341.656
341.461
341.238
340.996
340.746
340.505
340.316
331.358
331.503
331.69
331.884
332.073
332.247
332.398
332.52
332.606
332.65
332.65
332.606
332.52
332.398
332.247
332.073
331.884
331.69
331.503
331.358
322.405
322.508
322.641
322.78
322.915
323.039
323.148
323.235
323.296
323.328
323.328
323.296
323.235
323.148
323.039
322.915
322.78
322.641
322.508
322.405
313.457
313.518
313.598
313.681
313.762
313.837
313.902
313.955
313.991
314.01
314.01
313.991
313.955
313.902
313.837
313.762
313.681
313.598
313.518
313.457
304.511
304.531
304.558
304.586
304.613
304.638
304.66
304.677
304.69
304.696
304.696
304.69
304.677
304.66
304.638
304.613
304.586
304.558
304.531
304.511
369.877
370.185
370.556
370.936
371.301
371.637
371.928
372.162
372.325
372.409
372.409
372.325
372.162
371.928
371.637
371.301
370.936
370.556
370.185
369.877
360.532
360.792
361.113
361.442
361.759
362.05
362.303
362.505
362.647
362.72
362.72
362.647
362.505
362.303
362.05
361.759
361.442
361.113
360.792
360.532
351.2
351.416
351.687
351.965
352.234
352.48
352.694
352.866
352.986
353.047
353.047
352.986
352.866
352.694
352.48
352.234
351.965
351.687
351.416
351.2
341.881
342.055
342.275
342.503
342.723
342.925
343.1
343.241
343.339
343.389
343.389
343.339
343.241
343.1
342.925
342.723
342.503
342.275
342.055
341.881
332.572
332.705
332.877
333.054
333.225
333.382
333.518
333.628
333.704
333.743
333.743
333.704
333.628
333.518
333.382
333.225
333.054
332.877
332.705
332.572
323.271
323.365
323.487
323.614
323.736
323.849
323.946
324.024
324.079
324.107
324.107
324.079
324.024
323.946
323.849
323.736
323.614
323.487
323.365
323.271
313.976
314.032
314.106
314.182
314.255
314.323
314.381
314.428
314.461
314.478
314.478
314.461
314.428
314.381
314.323
314.255
314.182
314.106
314.032
313.976
304.685
304.703
304.728
304.753
304.778
304.801
304.82
304.836
304.847
304.853
304.853
304.847
304.836
304.82
304.801
304.778
304.753
304.728
304.703
304.685
372.593
372.876
373.217
373.563
373.895
374.198
374.461
374.67
374.816
374.891
374.891
374.816
374.67
374.461
374.198
373.895
373.563
373.217
372.876
372.593
362.864
363.104
363.398
363.699
363.986
364.25
364.478
364.659
364.786
364.851
364.851
364.786
364.659
364.478
364.25
363.986
363.699
363.398
363.104
362.864
353.158
353.357
353.605
353.859
354.103
354.326
354.519
354.673
354.781
354.836
354.836
354.781
354.673
354.519
354.326
354.103
353.859
353.605
353.357
353.158
343.472
343.632
343.834
344.042
344.242
344.425
344.583
344.709
344.797
344.842
344.842
344.797
344.709
344.583
344.425
344.242
344.042
343.834
343.632
343.472
333.802
333.925
334.082
334.244
334.4
334.542
334.665
334.763
334.832
334.867
334.867
334.832
334.763
334.665
334.542
334.4
334.244
334.082
333.925
333.802
324.146
324.233
324.345
324.461
324.572
324.674
324.762
324.832
324.881
324.906
324.906
324.881
324.832
324.762
324.674
324.572
324.461
324.345
324.233
324.146
314.5
314.552
314.619
314.689
314.755
314.817
314.87
314.912
314.941
314.956
314.956
314.941
314.912
314.87
314.817
314.755
314.689
314.619
314.552
314.5
304.86
304.877
304.9
304.923
304.945
304.966
304.984
304.998
305.008
305.013
305.013
305.008
304.998
304.984
304.966
304.945
304.923
304.9
304.877
304.86
375.211
375.473
375.787
376.105
376.408
376.685
376.923
377.113
377.244
377.312
377.312
377.244
377.113
376.923
376.685
376.408
376.105
375.787
375.473
375.211
365.085
365.307
365.578
365.854
366.118
366.359
366.566
366.731
366.845
366.904
366.904
366.845
366.731
366.566
366.359
366.118
365.854
365.578
365.307
365.085
355.001
355.186
355.415
355.649
355.873
356.077
356.252
356.392
356.49
356.54
356.54
356.49
356.392
356.252
356.077
355.873
355.649
355.415
355.186
355.001
344.955
345.104
345.291
345.483
345.666
345.834
345.978
346.093
346.172
346.213
346.213
346.172
346.093
345.978
345.834
345.666
345.483
345.291
345.104
344.955
334.941
335.055
335.2
335.35
335.493
335.623
335.736
335.825
335.887
335.919
335.919
335.887
335.825
335.736
335.623
335.493
335.35
335.2
335.055
334.941
324.952
325.032
325.136
325.243
325.345
325.439
325.519
325.583
325.628
325.651
325.651
325.628
325.583
325.519
325.439
325.345
325.243
325.136
325.032
324.952
314.981
315.029
315.091
315.155
315.217
315.273
315.321
315.36
315.386
315.4
315.4
315.386
315.36
315.321
315.273
315.217
315.155
315.091
315.029
314.981
305.02
305.037
305.057
305.079
305.1
305.118
305.135
305.148
305.156
305.161
305.161
305.156
305.148
305.135
305.118
305.1
305.079
305.057
305.037
305.02
377.268
377.514
377.809
378.108
378.392
378.65
378.871
379.047
379.17
379.232
379.232
379.17
379.047
378.871
378.65
378.392
378.108
377.809
377.514
377.268
366.763
366.973
367.229
367.489
367.736
367.961
368.155
368.308
368.415
368.47
368.47
368.415
368.308
368.155
367.961
367.736
367.489
367.229
366.973
366.763
356.352
356.526
356.743
356.964
357.174
357.366
357.53
357.661
357.752
357.798
357.798
357.752
357.661
357.53
357.366
357.174
356.964
356.743
356.526
356.352
346.016
346.156
346.334
346.515
346.688
346.845
346.981
347.088
347.163
347.201
347.201
347.163
347.088
346.981
346.845
346.688
346.515
346.334
346.156
346.016
335.74
335.848
335.986
336.127
336.262
336.385
336.491
336.574
336.633
336.663
336.663
336.633
336.574
336.491
336.385
336.262
336.127
335.986
335.848
335.74
325.509
325.585
325.684
325.785
325.882
325.97
326.046
326.106
326.148
326.169
326.169
326.148
326.106
326.046
325.97
325.882
325.785
325.684
325.585
325.509
315.31
315.356
315.415
315.476
315.534
315.587
315.632
315.669
315.694
315.707
315.707
315.694
315.669
315.632
315.587
315.534
315.476
315.415
315.356
315.31
305.13
305.145
305.165
305.186
305.205
305.223
305.238
305.25
305.259
305.263
305.263
305.259
305.25
305.238
305.223
305.205
305.186
305.165
305.145
305.13
)
;

boundaryField
{
    hotSide
    {
        type            fixedGradient;
        gradient        nonuniform List<scalar> 
400
(
508.868
510.514
513.815
518.786
525.447
533.828
543.958
555.873
569.607
585.196
602.675
622.074
643.425
666.753
692.082
719.432
748.819
780.257
813.757
849.326
518.557
520.127
523.277
528.028
534.409
542.456
552.211
563.717
577.02
592.166
609.197
628.152
649.068
671.976
696.903
723.871
752.899
784.001
817.188
852.469
529.043
530.522
533.492
537.983
544.032
551.686
561.001
572.032
584.839
599.477
616
634.456
654.887
677.33
701.816
728.369
757.01
787.754
820.61
855.587
540.153
541.524
544.286
548.475
554.14
561.345
570.157
580.652
592.9
606.973
622.935
640.843
660.747
682.69
706.706
732.822
761.057
791.428
823.943
858.608
551.574
552.826
555.354
559.204
564.443
571.148
579.409
589.316
600.96
614.425
629.788
647.118
666.471
687.895
711.427
737.096
764.921
794.917
827.092
861.449
562.832
563.955
566.233
569.723
574.509
580.688
588.371
597.667
608.686
621.528
636.285
653.032
671.836
692.746
715.803
741.037
768.465
798.102
829.953
864.02
573.281
574.276
576.304
579.437
583.775
589.436
596.552
605.255
615.672
627.918
642.098
658.297
676.586
697.019
719.64
744.475
771.544
800.857
832.418
866.225
582.15
583.029
584.832
587.644
591.581
596.781
603.396
611.576
621.466
633.194
646.876
662.604
680.455
700.486
722.738
747.241
774.011
803.056
834.379
867.974
588.64
589.431
591.062
593.628
597.26
602.111
608.347
616.134
625.629
636.973
650.286
665.668
683.197
702.934
724.92
749.182
775.737
804.591
835.744
869.189
592.08
592.822
594.359
596.792
600.258
604.919
610.951
618.527
627.81
638.947
652.064
667.261
684.621
704.202
726.048
750.184
776.627
805.381
836.445
869.812
592.08
592.822
594.359
596.792
600.258
604.919
610.951
618.527
627.81
638.947
652.064
667.261
684.621
704.202
726.048
750.184
776.627
805.381
836.445
869.812
588.64
589.431
591.062
593.628
597.26
602.111
608.347
616.134
625.629
636.973
650.286
665.668
683.197
702.934
724.92
749.182
775.737
804.591
835.744
869.189
582.15
583.029
584.832
587.644
591.581
596.781
603.396
611.576
621.466
633.194
646.876
662.604
680.455
700.486
722.738
747.241
774.011
803.056
834.379
867.974
573.281
574.276
576.304
579.437
583.775
589.436
596.552
605.255
615.672
627.918
642.098
658.297
676.586
697.019
719.64
744.475
771.544
800.857
832.418
866.225
562.832
563.955
566.233
569.723
574.509
580.688
588.371
597.667
608.686
621.528
636.285
653.032
671.836
692.746
715.803
741.037
768.465
798.102
829.953
864.02
551.574
552.826
555.354
559.204
564.443
571.148
579.409
589.316
600.96
614.425
629.788
647.118
666.471
687.895
711.427
737.096
764.921
794.917
827.092
861.449
540.153
541.524
544.286
548.475
554.14
561.345
570.157
580.652
592.9
606.973
622.935
640.843
660.747
682.69
706.706
732.822
761.057
791.428
823.943
858.608
529.043
530.522
533.492
537.983
544.032
551.686
561.001
572.032
584.839
599.477
616
634.456
654.887
677.33
701.816
728.369
757.01
787.754
820.61
855.587
518.557
520.127
523.277
528.028
534.409
542.456
552.211
563.717
577.02
592.166
609.197
628.152
649.068
671.976
696.903
723.871
752.899
784.001
817.188
852.469
508.868
510.514
513.815
518.786
525.447
533.828
543.958
555.873
569.607
585.196
602.675
622.074
643.425
666.753
692.082
719.432
748.819
780.257
813.757
849.326
)
;
    }
    coldSide
    {
        type            mixed;
        refValue        uniform 300;
        refGradient     uniform 0;
        valueFraction   uniform 0.991591;
        source          uniform 0;
        value           nonuniform List<scalar> 
400
(
300.027
300.027
300.027
300.028
300.028
300.028
300.029
300.03
300.03
300.031
300.032
300.033
300.034
300.035
300.037
300.038
300.039
300.041
300.042
300.043
300.027
300.028
300.028
300.028
300.028
300.029
300.029
300.03
300.031
300.031
300.032
300.033
300.034
300.035
300.037
300.038
300.04
300.041
300.042
300.043
300.028