/*--------------------------------*- C++ -*----------------------------------*\
| =========                 |                                                 |
| \\      /  F ield         | OpenFOAM: The Open Source CFD Toolbox           |
|  \\    /   O peration     | Version:  2212                                  |
|   \\  /    A nd           | Website:  www.openfoam.com                      |
|    \\/     M anipulation  |                                                 |
\*---------------------------------------------------------------------------*/
FoamFile
{
    version     2.0;
    format      ascii;
    arch        "LSB;label=32;scalar=64";
    class       volScalarField;
    location    "0";
    object      stateMean;
}
// * * * * * * * * * * * * * * * * * * * * * * * * * * * * * * * * * * * * * //

dimensions      [0 0 0 1 0 0 0];

internalField   nonuniform List<scalar> 
3200
(
326.004
325.124
323.677
323.014
324.47
324.016
323.804
323.761
324.573
325.173
325.624
324.455
323.135
323.505
323.613
323.819
323.749
324.01
323.474
324.545
320.301
321.592
322.12
320.284
320.289
320.651
321.888
319.238
321.115
321.484
321.974
321.489
320.756
319.315
321.446
319.534
320.91
319.402
321.22
319.635
318.777
317.847
317.057
317.79
318.845
316.818
316.307
318.05
316.781
317.222
318.453
317.074
315.509
317.474
317.787
316.807
316.254
317.142
316.593
317.271
315.261
314.159
314.917
314.104
313.521
314.258
314.129
314.55
314.915
315.12
316.837
315.453
313.649
314.033
314.917
313.622
313.912
314.78
313.241
314.421
311.661
312.563
310.777
309.295
312.197
311.374
312.204
310.368
312.301
311.198
309.257
312.284
311.288
311.097
310.984
309.509
310.333
309.527
312.401
310.714
307.436
308.471
308.202
308.453
307.006
307.531
308.815
308.809
308.448
308.066
309.245
307.749
309.772
308.587
306.624
307.505
308.231
307.311
307.831
308.052
304.83
304.046
304.168
304.784
303.968
304.441
305.02
306.064
302.959
304.695
305.367
305.354
303.515
304.207
305.135
304.664
304.448
303.264
303.673
304.98
301.976
302.05
301.804
301.704
301.834
301.729
302.167
301.974
300.901
301.468
301.521
300.527
301.525
300.708
301.224
300.574
301.26
301.943
300.856
302.033
325.083
323.995
324.754
323.7
323.878
323.173
323.331
325.968
324.892
325.052
325.885
322.937
324.047
324.357
323.548
323.522
323.131
323.525
324.482
323.712
323.808
319.897
321.392
321.006
320.175
321.351
321.347
321.967
321.523
322.262
322.559
321.6
322.127
319.916
321.247
319.921
321.132
320.216
320.445
322.302
319.328
318.135
316.68
317.74
316.06
316.235
318.795
316.401
316.883
317.036
318.216
317.745
318.789
318.146
318.461
315.648
316.695
317.819
317.627
318.353
315.81
314.587
314.141
313.545
314.778
313.232
314.476
315.428
314.703
313.929
315.243
314.836
314.2
315.83
315.354
313.127
313.562
315.157
313.761
316.069
311.735
310.693
310.501
312.157
310.594
311.657
310.932
310.866
310.522
311.227
311.307
311.265
311.571
312.096
311.829
311.565
310.912
311.284
310.152
310.297
307.946
307.96
307.933
308.377
308.445
308.508
307.709
308.866
308
308.313
308.756
307.682
308.443
307.492
307.372
307.1
307.802
307.121
305.843
306.723
304.991
304.356
303.433
304.914
304.031
304.168
302.871
305.301
304.553
305.375
304.873
304.801
304.301
304.906
304.379
304.684
304.199
304.505
304.077
305.641
301.265
301.195
300.013
301.742
302.264
301.912
300.942
299.988
299.829
301.917
303.95
300.984
303.251
301.675
301.288
302.022
301.352
302.436
302.001
301.781
325.615
322.524
324.334
322.813
323.902
324.77
324.382
324.094
325.044
325.089
325.259
325.163
324.745
325.214
324.989
325.025
324.091
322.572
323.884
325.303
322.376
320.771
320.651
321.972
321.32
321.685
321.618
321.871
321.158
321.891
321.379
321.617
322.315
321.856
321.213
320.508
321.793
320.02
321.036
320.954
319.949
320.6
317.444
317.627
316.675
316.479
317.983
319.589
318.797
318.964
317.968
318.338
317.451
318.685
318.156
317.218
316.447
316.074
319.444
319.119
315.785
313.369
313.978
314.604
314.88
314.506
314.621
315.422
314.849
314.577
315.735
315.52
315.69
313.374
313.552
313.579
314.182
312.299
314.898
315.378
311.865
311.047
311.447
312.402
311.484
311.141
310.966
312.008
312.103
312.125
311.996
311.75
310.875
312.053
311.605
310.977
310.559
312.497
311.356
310.513
309.448
307.984
307.677
307.835
306.058
306.518
307.25
307.341
307.128
308.044
307.545
307.569
307.815
309.104
307.554
307.483
307.664
308.533
308.397
308.892
304.165
302.612
304.347
303.489
304.35
304.288
303.877
303.515
304.278
305.182
305.283
303.718
305.721
304.182
304.55
304.685
304.926
304.081
304.747
304.976
300.813
302.509
301.388
301.81
300.91
301.444
300.78
301.378
301.491
301.78
302.654
302.966
300.189
301.705
302.38
301.998
302.241
301.758
301.047
302.118
327.521
325.656
323.388
324.99
324.956
323.88
325.688
325.006
325.768
325.295
327.353
325.756
324.668
324.488
325.486
323.289
324.317
324.563
324.212
324.928
321.931
320.59
320.922
321.085
321.769
321.435
321.958
322.772
321.898
322.879
322.607
322.229
322.703
321.115
321.857
320.358
321.244
320.059
320.279
320.624
318.441
317.215
317.048
319.638
318.462
318.408
318.944
319.329
318.923
319.382
317.538
319.758
318.014
319.27
317.341
317.895
317.12
318.467
318.144
318.046
315.138
313.161
314.187
313.939
313.907
314.045
315.766
314.442
315.153
316.129
316.188
314.444
315.197
316.241
315.171
315.177
313.799
314.179
315.172
315.22
312.719
312.143
311.229
311.553
311.51
313.169
311.198
312.146
312.028
313.16
311.884
311.477
310.389
312.111
312.461
310.642
311.88
311.797
311.808
310.577
308.957
307.257
307.363
309.049
307.637
307.67
306.007
308.1
307.714
308.609
308.684
308.105
308.094
307.104
308.544
307.072
308.778
306.85
307.91
308.801
304.582
304.079
305.139
305.664
305.127
303.38
305.616
304.6
305.038
304.951
305.276
305.869
305.937
306.302
305.768
306.179
304.273
305.31
304.274
305.558
301.371
301.427
301.351
299.425
301.722
301.366
301.732
302.147
301.555
301.407
302.32
301.37
301.169
301.564
301.378
300.915
300.831
302.143
300.48
301.695
325.985
325.145
324.303
325.2
324.188
326.527
324.774
326.304
325.245
326.693
326.673
326.786
326.121
324.817
325.263
323.427
324.684
323.83
325.361
325.635
322.097
322.361
321.96
321.507
321.372
321.55
320.643
321.237
323.166
322.393
320.348
321.832
323.198
320.992
322.129
320.55
322.103
320.629
321.421
321.073
317.961
317.392
317.761
317.022
317.946
318.53
317.461
318.315
318.658
319.183
319.178
320.128
319.498
318.375
319.906
317.295
317.709
317.412
319.479
318.908
315.498
312.54
313.783
314.496
313.787
314.416
314.427
316.679
314.545
316.577
316.708
315.073
314.397
314.78
314.803
315.573
314.67
314.983
314.378
315.929
312.435
311.122
311.028
310.414
310.058
311.663
311.365
312.527
310.356
313.084
312.277
312.03
310.421
310.786
311.603
311.056
310.591
311.744
310.604
312.914
308.644
307.685
307.637
307.793
308.294
307.194
308.022
307.347
308.427
310.206
309.089
308.467
307.655
309.418
307.3
308.221
307.7
309.102
307.068
308.88
306.602
303.756
305.967
305.789
304.263
305.196
304.999
303.155
305.744
305.241
304.925
305.862
305.912
306.186
303.479
303.555
305.021
306.787
304.727
304.597
302.672
300.4
302.143
302.34
301.62
301.888
300.331
301.645
302.46
301.211
301.067
301.279
301.708
301.034
301.347
301.533
301.336
301.689
301.126
301.09
326.527
327.434
325.518
325.587
325.664
325.175
325.885
326.575
326.582
324.988
327.657
327.28
326.821
324.67
326.108
326.571
324.903
325.084
326.055
325.358
322.838
320.847
321.886
322.109
321.94
322.197
324.08
322.547
322.341
323.547
322.994
323.746
322.638
321.815
322.424
321.156
321.322
321.974
320.848
320.916
319.181
319.586
318.316
318.652
317.312
319.07
319.073
319.221
319.183
318.528
319.316
319.486
319.532
320.184
318.148
318.6
318.734
318.68
319.231
319.984
315.504
314.12
314.578
315.639
314.199
314.959
315.339
315.308
317.099
315.283
316.309
315.286
315.237
317.089
316.046
314.255
316.497
316.421
315.716
314.498
312.211
311.569
311.161
312.404
312.128
311.041
311.479
312.041
313.013
311.582
312.016
311.796
311.506
312.6
311.108
311.344
310.58
311.38
311.394
313.267
310.075
306.575
307.472
307.4
307.717
307.784
308.346
308.083
309.646
309.511
308.055
309.469
308.793
308.1
308.809
307.923
308.523
308.899
308.559
309.037
305.013
305.835
303.969
303.982
303.132
304.033
305.267
304.348
305.276
304.917
304.269
304.129
304.231
306.251
304.693
304.511
303.739
303.368
307.029
304.609
300.966
302.424
300.966
300.212
302.386
301.749
299.886
302.129
302.128
301.646
300.469
302.178
301.552
300.952
302.034
301.91
303.243
301.452
302.943
301.007
326.097
327.353
325.321
326.276
326.591
326.854
326.066
326.415
327.7
327.399
326.215
328.336
327.376
326.147
325.042
325.011
326.16
325.618
326.262
326.369
323.339
322.586
323.253
320.048
322.308
323.053
322.923
323.554
324.541
324.57
323.694
324.497
324.325
322.172
321.809
323.297
322.756
322.629
323.643
322.873
318.989
319.461
319.958
318.434
318.258
319.47
319.482
320.064
319.551
321.142
320.14
319.615
318.427
319.138
320.373
319.815
318.792
318.124
319.909
318.512
315.943
315.663
316.759
314.32
316.264
315.237
317.171
316.725
315.192
316.239
318.275
317.587
315.593
315.878
315.678
315.425
315.562
315.176
315.772
315.581
312.92
312.266
311.723
311.213
312.568
312.128
312.777
312.719
312.681
313.623
312.893
314.326
313.546
313.188
312.322
312.089
310.992
311.251
310.786
311.815
309.913
308.777
308.594
309.361
308.823
308.271
308.201
308.634
308.731
309.362
309.266
307.427
310.995
309.727
308.289
307.699
309.18
308.846
307.603
309.132
305.611
305.303
305.008
305.045
305.572
307.451
305.156
304.982
307.27
306.93
305.109
306.48
305.14
304.711
305.835
305.089
304.559
305.38
305.4
305.091
301.743
302.045
301.633
300.684
303.035
299.602
301.573
301.377
300.652
303.734
302.647
300.829
303.17
300.453
301.995
300.979
301.004
300.788
301.282
301.122
328.916
327.064
326.937
327.078
327.138
326.679
327.73
328.773
328.149
329.546
327.019
326.919
328.384
326.681
326.248
326.87
326.523
327.044
325.368
325.2
324.309
322.147
320.721
322.218
323.909
323.253
325.203
323.644
324.347
323.948
324.113
324.291
323.454
323.244
323.339
322.627
322.476
322.168
321.516
323.195
319.052
318.937
320.027
317.42
318.782
319.3
319.727
321.105
319.222
321.206
318.821
321.861
322.128
318.139
319.907
319.73
320.247
319.585
320.093
320.683
315.296
315.828
314.938
315.778
315.818
315.784
316.457
317.252
317.116
316.848
315.171
316.228
316.043
316.747
316.218
315.544
315.034
314.833
315.888
316.385
312.663
312.824
312.878
312.075
312.568
313.451
310.674
313.224
311.285
312.821
315.056
313.266
311.574
311.625
312.123
311.782
311.488
311.95
311.713
312.634
310.35
310.82
309.92
307.809
309.352
310.57
308.525
310.107
311.068
309.607
309.422
308.868
309.188
308.807
307.304
310.937
308.998
308.025
307.785
308.133
304.765
305.341
304.878
304.89
304.235
305.416
304.939
307.304
304.486
305.645
305.743
304.911
305.167
304.598
304.237
305.378
305.856
304.814
306.83
304.288
302.262
301.78
303.242
300.647
300.596
302.054
301.255
301.22
301.4
301.81
301.235
302.432
301.575
303.151
301.776
301.966
302.18
302.55
301.144
301.205
329.402
328.49
325.855
328.381
327.173
327.966
327.877
327.445
328.61
329.385
328.86
328.136
327.616
328.457
327.806
327.957
326.86
327.251
328.462
326.704
324.813
324.329
324.769
323.683
324.58
325.389
323.163
326.149
324.478
326.106
325.085
324.965
324.847
324.184
322.369
322.72
324.544
323.307
323.585
324.519
321.348
319.836
319.431
320.397
320.701
320.317
319.364
322.157
319.307
321.253
321.395
320.588
321.131
320.858
321.015
320.819
319.261
319.155
319.738
319.963
315.729
317.149
316.742
316.69
315.864
316.291
316.225
317.2
317.595
318.091
317.747
317.073
315.919
315.201
316.654
317.845
316.498
315.55
316.921
316.915
313.519
311.199
312.351
313.23
313.074
313.942
312.311
313.573
313.516
312.574
313.515
312.861
313.451
312.995
313.472
313.552
313.33
312.708
312.545
313.217
309.126
309.741
309.484
309.121
309.942
307.029
310.638
310.187
308.687
310.129
308.767
310.299
309.518
311.172
307.625
308.127
308.136
310.897
309.43
308.916
305.615
306.537
306.351
304.739
304.327
304.715
307.046
305.083
304.691
306.075
308.287
306.261
305.861
306.004
305.362
305.323
303.809
304.877
306.074
304.989
302.496
301.951
300.785
301.08
300.868
301.55
302.093
303.058
302.838
301.23
302.445
300.951
301.029
303.138
300.559
302.591
303.178
301.236
301.636
301.815
329.429
328.28
326.548
327.566
326.246
328.285
328.047
327.838
328.784
329.362
329.143
329.444
328.926
328.34
330.654
328.659
325.647
327.325
328.981
329.495
324.46
323.149
324.578
323.653
322.763
324.069
324.125
324.499
326.296
324.998
324.676
325.603
324.21
324.854
324.125
323.916
323.719
324.569
322.886
324.701
321.43
320.617
321.391
319.76
319.795
321.039
322.459
320.835
321.193
320.546
322.416
322.55
321.329
320.446
321.16
320.763
321.548
319.433
320.468
321.145
315.876
317.39
316.887
317.876
315.839
316.56
315.499
316.705
316.236
318.709
316.219
318.403
318.315
318.277
318.264
315.358
316.661
317.12
316.838
318.162
313.067
312.442
313.123
311.991
311.518
313.136
314.35
313.598
312.117
313.957
313.906
313.34
313.159
313.627
312.512
313.161
312.939
313.584
312.373
311.47
310.337
309.417
310.716
308.449
308.006
309.871
308.982
309.688
310.034
308.871
309.037
309.812
308.816
310.948
309.531
308.304
308.442
311.421
308.86
310.636
307.311
307.257
305.989
305.701
305.994
304.761
306.226
305.612
306.79
306.696
305.366
304.562
306.697
305.076
303.248
303.991
305.394
304.184
304.346
304.167
299.897
302.026
301.948
301.448
302.084
302.368
302.229
302.442
303.421
299.912
302.183
302.415
300.858
302.906
300.52
301.572
301.475
301.562
302.077
301.287
331.129
329.665
329.36
329.459
329.61
329.085
329.381
329.409
329.537
329.54
329.998
328.367
329.245
329.139
328.774
327.347
330.046
328.095
330.02
330.091
326.67
324.021
324.904
324.349
324.744
324.513
326.392
324.784
325.827
324.961
325.142
325.148
324.994
327.144
324.502
325.49
324.071
324.519
323.864
325.442
321.587
321.992
320.851
320.473
319.905
321.646
320.109
321.379
321.816
321.65
321.966
320.394
322.296
322.519
320.496
322.061
320.812
320.458
320.943
321.344
318.606
316.396
317.809
316.516
315.265
316.895
318.39
317.658
317.516
317.616
319.165
317.342
317.536
317.19
315.853
317.712
316.848
316.559
317.311
316.739
313.537
313.618
311.522
313.884
313.274
313.754
314.067
313.471
314.231
313.805
312.155
314.076
313.617
313.042
314.24
312.102
311.86
312.052
314.306
313.19
309.834
310.499
308.838
308.837
309.678
310.063
309.141
309.779
311.467
310.117
310.275
309.148
310.963
311.395
309.28
309.993
308.759
309.156
309.093
310.732
304.757
304.797
306.251
304.927
305.676
304.575
305.178
304.543
305.805
305.781
306.367
305.551
307.315
305.47
305.34
306.142
305.76
304.828
306.049
306.248
301.461
301.233
303.484
302.847
302.763
303.246
302.066
301.914
302.189
301.682
302.049
303.084
301.707
301.674
302.671
302.604
301.026
301.443
302.696
301.431
330.045
330.203
329.5
327.886
330.019
329.523
329.434
328.96
331.295
330.714
331.911
330.1
330.103
330.224
331.451
329.278
329.205
329.079
329.11
330.738
325.675
325.662
325.384
325.533
324.344
325.987
325.031
326.365
326.583
327.267
327.084
327.741
326.765
324.882
325.84
325.21
325.444
323.89
327.021
325.786
322.155
322.82
321.26
322.38
321.584
320.189
320.527
321.088
321.123
321.388
321.118
321.353
323.378
321.274
321.572
321.229
321.238
321.624
322.517
321.104
317.974
318.421
316.749
315.121
317.191
318.549
318.636
317.567
316.839
318.952
318.724
317.787
318.681
318.027
317.27
317.097
318.459
318.971
318.766
318.674
313.176
312.452
313.385
313.456
313.891
313.697
313.847
313.937
313.281
315.154
313.856
314.532
312.637
314.075
314.813
312.958
312.758
313.614
312.31
313.731
309.599
309.387
308.703
309.859
309.501
310.968
309.926
310.102
308.269
309.376
308.895
310.506
310.06
309.976
309.867
309.806
310.139
309.774
309.567
308.42
306.848
305.752
305.453
305.979
305.945
306.645
305.798
305.921
306.468
307.804
305.879
305.392
305.971
306.134
305.415
305.382
306.17
306.206
306.052
306.726
301.287
302.522
302.751
301.133
301.574
303.014
301.877
302.268
301.836
301.42
302.328
301.26
301.958
302.011
303.562
301.672
301.669
301.611
301.139
300.871
331.515
329.97
330.071
330.254
330.35
330.034
330.104
331.151
331.489
330.441
331.625
331.549
329.535
331.613
330.166
329.622
331.373
331.403
330.57
329.479
326.816
325.389
326.277
325.572
325.634
326.254
325.962
325.82
326.301
326.894
326.866
326.631
327.06
326.222
326.411
324.984
325.406
326.656
325.269
326.181
322.346
323.516
322.067
323.079
322.773
322.253
322.656
321.139
323.547
323.094
322.346
323
322.28
322.107
323.685
321.579
323.459
322.719
322.2
322.74
318.386
318.703
318.818
317.743
317.368
317.177
318.284
317.623
318.339
318.054
319.161
319.142
319.856
318.293
318.784
319.666
317.929
318.737
319.38
318.332
313.754
314.112
313.647
313.674
314.571
313.722
313.983
314.604
313.26
315.623
312.082
315.583
315.483
314.015
312.787
314.17
314.007
314.375
314.783
313.776
309.439
308.499
309.68
310.758
311.182
310.048
308.657
310.413
309.575
310.807
309.142
310.414
308.329
310.62
309.585
310.01
309.554
310.951
309.517
310.606
305.797
305.619
305.689
304.814
304.801
305.743
305.302
305.396
305.916
306.68
306.176
305.983
305.558
307.815
306.918
304.376
306.922
307.705
304.669
307.825
301.088
302.317
302.109
303.235
301.294
301.97
302.15
303.489
301.495
301.926
303.451
302.773
301.637
302.678
302.025
302.369
302.004
302.179
301.661
300.791
332.902
331.481
330.714
331.978
332.421
329.999
331.467
332.57
332.908
331.489
332.679
331.966
332.039
332.58
330.639
330.242
331.078
330.883
330.276
332.359
330.386
328.507
325.507
326.978
326.222
326.948
328.37
326.335
327.729
327.569
328.04
328.63
327.509
326.552
326.533
327.088
327.188
327.347
326.549
327.556
322.575
323.774
323.058
321.639
323.339
322.939
323.666
322.214
323.006
322.916
323.711
322.788
323.618
323.346
321.309
322.037
323.136
322.915
323.467
324.434
320.198
318.064
318.057
317.676
316.644
318.23
320.029
318.542
319.04
318.573
317.892
318.337
318.313
319.933
320.299
319.932
318.389
319.456
319.063
319.963
315.113
314.059
314.569
312.876
313.687
313.405
313.885
314.628
313.089
315.569
314.556
314.376
314.088
313.323
316.243
314.468
313.942
314.126
315.258
314.217
310.585
308.498
310.749
309.572
310.566
311.497
310.138
309.267
309.995
310.797
309.929
309.176
310.657
312.153
311.608
309.748
309.207
309.223
311.055
309.309
306.236
305.974
305.422
304.704
307.011
307.087
306.09
305.228
306.013
306.062
306.623
306.274
305.66
306.987
306.454
306.702
305.377
304.559
307.22
305.81
300.028
302.365
301.102
301.277
301.399
301.618
302.397
302.6
302.807
302.318
302.453
302.208
301.984
301.671
300.825
302.342
301.95
301.261
303.232
302.061
332.385
332.453
332.216
333.658
331.531
330.729
332.413
331.93
331.482
332.272
333.444
331.732
331.648
331.81
331.724
331.921
332.469
330.57
332.821
333.023
329.282
327.011
327.558
327.62
329.608
328.067
328.199
328.276
328.203
328.35
327.672
327.768
328.25
327.743
327.562
327.253
327.432
327.159
327.371
327.506
324.257
324.119
323.447
322.389
324.212
323.897
323.209
323.05
323.678
324.79
324.789
324.239
324.469
323.393
322.46
323.913
323.619
322.901
325.391
323.239
319.481
319.599
319.057
317.552
318.898
318.762
317.747
318.843
319.962
317.418
318.791
320.143
319.729
317.756
319.366
318.04
318.307
320.053
318.741
319.866
315.535
314.421
315.288
314.519
313.67
314.562
315.382
314.506
314.894
316.117
315.394
315.324
314.897
313.916
313.738
314.395
314.679
316.338
313.739
315.214
311.693
310.719
310.411
309.539
308.889
310.668
311.557
310.251
310.195
309.481
309.42
310.697
310.05
312.367
309.585
310.977
312.257
311.037
311.179
311.671
306.637
304.811
305.125
306.115
305.718
306.602
306.287
305.339
307.613
306.177
305.893
305.539
306.73
306.326
305.428
305.523
306.724
306.703
307.38
306.301
302.526
302.357
302.429
302.642
302.379
302.752
301.495
302.207
302.883
301.804
303.471
301.523
301.705
301.873
302.083
300.625
303.153
301.749
301.962
302.48
333.721
334.672
333.17
332.794
331.135
332.147
332.799
333.212
333.169
333.386
333.862
332.151
332.164
333.547
332.066
332.515
331.267
332.462
332.436
333.814
329.553
330.353
328.741
329.437
327.541
327.766
326.125
327.885
328.514
328.405
327.005
329.309
327.216
327.521
329.584
328.406
328.423
328.912
329.335
329.681
325.089
324.864
324.838
323.105
325.481
323.984
323.295
325.119
324.649
324.17
323.742
323.457
324.004
323.188
324.419
324.161
323.262
324.639
323.539
324.357
319.856
319.692
321.429
321.241
318.524
319.268
318.808
320.655
319.06
319.031
320.305
320.09
317.636
317.911
319.015
319.836
319.421
320.375
320.524
319.813
316.305
315.284
315.687
314.97
314.879
314.53
316.668
315.599
315.923
314.412
315.64
315.213
314.628
317.33
315.382
315.704
315.083
315.788
314.959
315.605
312.01
310.897
309.666
310.976
309.834
312.147
311.301
311.467
311.602
312.063
310.369
310.417
309.675
310.434
311.056
310.088
311.395
311.294
310.789
311.347
306.972
307.369
306.677
305.291
306.019
305.701
306.472
306.557
306.814
306.298
305.707
306.802
307.148
306.919
305.97
305.726
307.592
306.787
306.031
306.463
303.102
301.927
301.755
303.631
301.681
301.952
302.186
302.498
302.759
300.801
302.54
302.568
302.445
301.618
302.233
301.769
302.183
301.502
303.53
300.974
334.851
333.538
334.884
333.902
334.466
333.429
334.36
334.178
334.314
335.096
334.576
332.839
334.409
334.27
332.833
333.191
333.739
334.139
332.66
335.19
329.962
329.274
327.716
329.863
327.767
329.778
328.886
329.783
330.009
330.251
329.651
329.347
329.955
329.14
329.894
328.911
329.719
329.223
329.028
329.277
324.395
323.958
323.015
323.11
325.442
324.442
323.304
324.627
325.046
324.249
325.561
323.565
324.646
324.14
323.91
325.939
324.568
325.475
325.922
324.993
320.201
320.184
320.07
320.051
320.239
320.696
319.966
319.96
321.006
320.626
319.55
320.558
320.635
320.758
320.691
322.144
319.467
319.763
319.725
322.735
315.951
314.839
316.531
315.522
315.626
313.657
314.623
315.044
315.677
316.029
315.946
315.989
315.671
314.921
315.409
317.367
315.76
314.792
315.818
314.565
312.087
313.068
310.458
312.655
311.061
311.752
311.122
311.146
311.996
312.427
311.488
311.145
312.144
312.559
310.282
310.255
313.407
310.487
310.752
312.161
307.102
305.809
304.923
306.454
306.607
306.437
305.815
307.026
306.936
306.424
306.185
305.753
304.432
308.032
307.389
306.489
306.772
307.242
305.805
306.879
303.502
302.256
301.838
301.262
302.871
301.996
302.146
303.205
303.191
300.77
303.071
302.156
302.108
302.454
301.756
302.542
301.719
302.191
302.054
301.322
337.594
335.352
335.042
335.371
333.17
335.285
335.198
333.677
334.65
335.334
334.924
334.69
334.132
333.568
332.569
333.809
334.71
333.822
335.25
336.75
331.471
330.269
328.664
329.826
329.476
329.757
329.993
331.35
329.529
329.803
328.972
330.791
329.849
327.889
329.795
328.894
329.247
329.652
329.39
331.459
324.703
324.889
325.069
326.306
325.31
325.609
325.232
325.602
324.477
325.498
324.869
323.773
325.607
323.874
324.889
325.593
324.478
324.685
325.934
325.919
321.366
319.321
320.8
321.284
320.431
321.231
320.288
319.116
320.334
320.111
320.268
321.152
320.173
320.893
318.972
320.319
321.079
320.443
321.211
321.336
316.438
316.047
315.905
315.831
315.937
315.733
315.87
316.282
315.88
316.542
315.121
315.67
316.297
315.145
316.516
315.711
316.853
315.814
314.361
315.892
310.786
310.433
310.038
312.362
311.507
310.747
310.832
311.596
311.282
310.752
312.461
310.907
311.743
312.226
311.74
311.308
309.597
312.124
311.068
312.373
307.842
305.73
306.745
307.036
306.558
306.337
305.629
306.616
305.69
306.4
307.64
305.549
306.999
307.037
306.135
306.96
305.756
306.064
306.191
307.216
301.674
302.586
302.771
301.154
302.254
303.938
300.977
302.254
301.561
301.578
302.908
302.489
303.284
303.145
299.651
303.452
301.938
303.329
300.971
302.223
336.722
335.652
335.087
335.602
334.248
335.139
335.279
335.014
334.665
335.615
334.776
335.857
335.744
334.787
334.549
335.922
335.836
335.247
333.248
335.582
331.957
331.503
328.919
331.625
329.636
331.955
329.496
331.871
329.96
332.362
331.955
329.64
332.041
330.563
331.893
330.998
331.067
330.306
331.184
330.097
325.509
325.114
326.263
325.767
325.81
325.671
324.988
326.419
324.49
325.998
324.945
324.549
324.323
324.26
325.639
324.66
326.698
326.357
325.097
327.998
321.975
322.278
321.086
322.007
320.172
321.554
321.566
321.577
321.44
321.282
319.968
321.163
321.296
321.161
319.762
320.29
321.509
320.459
321.347
321.006
317.13
317.164
316.421
315.618
314.582
314.796
314.87
315.553
316.243
315.154
316.642
316.399
315.788
315.456
315.587
316.654
316.246
316.301
316.508
315.713
311.65
312.026
311.637
311.831
312.412
311.133
311.283
310.199
312.131
310.439
312.63
311.34
312.974
311.024
311.953
311.178
313.317
312.073
312.818
311.449
306.914
306.331
306.782
306.117
306.221
306.931
305.776
305.982
306.887
307.109
307.666
305.408
305.233
306.562
306.799
306.099
307.193
307.893
304.941
306.4
301.436
303.558
301.839
302.307
302.598
301.697
302.622
300.955
302.022
301.66
302.518
303.98
302.183
303.347
302.943
301.578
304.203
302.646
303.547
301.382
337.157
337.363
334.988
336.291
335.936
334.315
334.774
334.878
335.634
335.943
334.423
335.52
335.144
335.4
335.786
335.841
337.061
337.44
336.028
336.521
331.603
330.931
331.845
330.207
332
329.691
330.533
329.797
331.437
331.036
330.691
331.524
329.768
331.358
329.717
331.552
331.872
331.425
330.876
333.856
326.456
326.253
325.94
326.132
326.312
325.957
326.516
327.114
327.1
324.613
325.533
326.444
326.864
326.227
324.516
325.572
326.91
325.464
326.543
328.682
322.715
319.944
320.927
320.989
321.583
320.872
320.43
321.395
320.966
320.294
319.907
320.368
321.379
320.836
319.572
320.697
321.153
320.85
321.774
322.326
316.28
316.156
317.004
316.847
315.202
316.246
317.388
316.642
317.563
314.409
315.251
317.467
317.76
316.725
317.222
315.531
316.307
315.69
316.336
317.774
311.524
311.937
312.607
310.948
312.144
311.508
311.175
311.732
311.868
312.192
311.755
311.016
313.279
312.057
310.606
311.519
311.435
311.888
311.454
312.191
308.449
307.66
307.346
307.175
306.11
305.423
305.986
306.621
306.044
307.216
305.943
308.778
307.561
306.376
306.513
307.578
307.276
308.286
306.977
307.204
301.014
302.8
301.182
300.994
302.515
302.573
300.683
302.732
302.255
301.722
302.884
302.993
301.454
302.241
302.04
301.123
302.117
301.691
302.469
302.83
)
;

boundaryField
{
    hotSide
    {
        type            fixedGradient;
        gradient        nonuniform List<scalar> 
400
(
321.511
322.87
325.591
329.677
335.133
341.965
350.181
359.788
370.794
383.208
397.037
412.289
428.971
447.088
466.647
487.651
510.105
534.011
559.372
586.191
323.738
325.08
327.767
331.802
337.194
343.949
352.078
361.591
372.498
384.81
398.537
413.687
430.268
448.289
467.755
488.672
511.043
534.872
560.161
586.913
326.149
327.47
330.116
334.091
339.406
346.071
354.099
363.503
374.296
386.491
400.101
415.136
431.606
449.52
468.885
489.706
511.988
535.735
560.948
587.63
328.704
330
332.597
336.503
341.73
348.292
356.205
365.485
376.15
388.215
401.695
416.604
432.954
450.753
470.009
490.73
512.919
536.579
561.714
588.325
331.33
332.599
335.142
338.97
344.099
350.546
358.332
367.477
378.003
389.928
403.271
418.047
434.27
451.949
471.095
491.712
513.807
537.382
562.439
588.978
333.918
335.158
337.643
341.389
346.414
352.74
360.392
369.397
379.779
391.562
404.765
419.407
435.503
453.065
472.101
492.618
514.622
538.114
563.096
589.569
336.321
337.531
339.959
343.622
348.544
354.751
362.274
371.142
381.385
393.031
406.101
420.618
436.595
454.047
472.983
493.409
515.33
538.747
563.663
590.076
338.36
339.543
341.92
345.509
350.339
356.44
363.847
372.595
382.718
394.244
407.2
421.608
437.485
454.844
473.695
494.045
515.897
539.253
564.114
590.478
339.852
341.015
343.352
346.885
351.645
357.665
364.985
373.643
383.675
395.113
407.984
422.312
438.116
455.407
474.197
494.491
516.294
539.606
564.428
590.758
340.643
341.795
344.11
347.613
352.334
358.311
365.584
374.193
384.176
395.567
408.393
422.679
438.443
455.699
474.456
494.722
516.498
539.788
564.589
590.901
340.643
341.795
344.11
347.613
352.334
358.311
365.584
374.193
384.176
395.567
408.393
422.679
438.443
455.699
474.456
494.722
516.498
539.788
564.589
590.901
339.852
341.015
343.352
346.885
351.645
357.665
364.985
373.643
383.675
395.113
407.984
422.312
438.116
455.407
474.197
494.491
516.294
539.606
564.428
590.758
338.36
339.543
341.92
345.509
350.339
356.44
363.847
372.595
382.718
394.244
407.2
421.608
437.485
454.844
473.695
494.045
515.897
539.253
564.114
590.478
336.321
337.531
339.959
343.622
348.544
354.751
362.274
371.142
381.385
393.031
406.101
420.618
436.595
454.047
472.983
493.409
515.33
538.747
563.663
590.076
333.918
335.158
337.643
341.389
346.414
352.74
360.392
369.397
379.779
391.562
404.765
419.407
435.503
453.065
472.101
492.618
514.622
538.114
563.096
589.569
331.33
332.599
335.142
338.97
344.099
350.546
358.332
367.477
378.003
389.928
403.271
418.047
434.27
451.949
471.095
491.712
513.807
537.382
562.439
588.978
328.704
330
332.597
336.503
341.73
348.292
356.205
365.485
376.15
388.215
401.695
416.604
432.954
450.753
470.009
490.73
512.919
536.579
561.714
588.325
326.149
327.47
330.116
334.091
339.406
346.071
354.099
363.503
374.296
386.491
400.101
415.136
431.606
449.52
468.885
489.706
511.988
535.735
560.948
587.63
323.738
325.08
327.767
331.802
337.194
343.949
352.078
361.591
372.498
384.81
398.537
413.687
430.268
448.289
467.755
488.672
511.043
534.872
560.161
586.913
321.511
322.87
325.591
329.677
335.133
341.965
350.181
359.788
370.794
383.208
397.037
412.289
428.971
447.088
466.647
487.651
510.105
534.011
559.372
586.191
)
;
    }
    coldSide
    {
        type            mixed;
        refValue        uniform 300;
        refGradient     uniform 0;
        valueFraction   uniform 0.991591;
        source          uniform 0;
        value           nonuniform List<scalar> 
400
(
300.017
300.011
300.007
300.012
300.022
300.008
300.015
300.019
300.021
299.999
300.012
300.011
300.009
300
300.021
300.026
300.029
300.014
300.012
300.009
300.017
300.01
300.021
300.012
300.003
300.02
300.017
300.015
300.016
300.017
300.01
300.021
300.019
300.02
300.02
300.016
300.019
300.022
300.03