/*--------------------------------*- C++ -*----------------------------------*\
| =========                 |                                                 |
| \\      /  F ield         | OpenFOAM: The Open Source CFD Toolbox           |
|  \\    /   O peration     | Version:  2212                                  |
|   \\  /    A nd           | Website:  www.openfoam.com                      |
|    \\/     M anipulation  |                                                 |
\*---------------------------------------------------------------------------*/
FoamFile
{
    version     2.0;
    format      ascii;
    arch        "LSB;label=32;scalar=64";
    class       volScalarField;
    location    "./ITHACAoutput/true/0.6";
    object      trueState;
}
// * * * * * * * * * * * * * * * * * * * * * * * * * * * * * * * * * * * * * //

dimensions      [0 0 0 1 0 0 0];

internalField   nonuniform List<scalar> 
3200
(
346.069
347.223
348.688
350.279
351.916
353.524
355.008
356.261
357.175
357.657
357.657
357.175
356.261
355.008
353.524
351.916
350.279
348.688
347.223
346.069
340.289
341.264
342.523
343.895
345.307
346.693
347.971
349.05
349.836
350.252
350.252
349.836
349.05
347.971
346.693
345.307
343.895
342.523
341.264
340.289
334.367
335.174
336.231
337.387
338.577
339.744
340.82
341.728
342.389
342.738
342.738
342.389
341.728
340.82
339.744
338.577
337.387
336.231
335.174
334.367
328.316
328.964
329.824
330.766
331.736
332.686
333.563
334.303
334.841
335.125
335.125
334.841
334.303
333.563
332.686
331.736
330.766
329.824
328.964
328.316
322.154
322.65
323.315
324.046
324.798
325.535
326.215
326.787
327.204
327.424
327.424
327.204
326.787
326.215
325.535
324.798
324.046
323.315
322.65
322.154
315.9
316.25
316.724
317.245
317.781
318.306
318.79
319.198
319.495
319.652
319.652
319.495
319.198
318.79
318.306
317.781
317.245
316.724
316.25
315.9
309.578
309.787
310.071
310.383
310.705
311.02
311.31
311.555
311.733
311.827
311.827
311.733
311.555
311.31
311.02
310.705
310.383
310.071
309.787
309.578
303.215
303.285
303.38
303.485
303.592
303.698
303.795
303.877
303.937
303.968
303.968
303.937
303.877
303.795
303.698
303.592
303.485
303.38
303.285
303.215
346.147
347.292
348.744
350.32
351.941
353.531
354.998
356.235
357.137
357.613
357.613
357.137
356.235
354.998
353.531
351.941
350.32
348.744
347.292
346.147
340.356
341.323
342.571
343.931
345.328
346.699
347.962
349.028
349.804
350.214
350.214
349.804
349.028
347.962
346.699
345.328
343.931
342.571
341.323
340.356
334.424
335.224
336.272
337.417
338.595
339.749
340.813
341.709
342.362
342.707
342.707
342.362
341.709
340.813
339.749
338.595
337.417
336.272
335.224
334.424
328.362
329.005
329.858
330.791
331.751
332.691
333.558
334.288
334.819
335.099
335.099
334.819
334.288
333.558
332.691
331.751
330.791
329.858
329.005
328.362
322.189
322.682
323.342
324.065
324.809
325.539
326.21
326.776
327.188
327.405
327.405
327.188
326.776
326.21
325.539
324.809
324.065
323.342
322.682
322.189
315.925
316.273
316.743
317.258
317.789
318.309
318.787
319.19
319.484
319.638
319.638
319.484
319.19
318.787
318.309
317.789
317.258
316.743
316.273
315.925
309.593
309.801
310.082
310.391
310.71
311.021
311.308
311.55
311.726
311.818
311.818
311.726
311.55
311.308
311.021
310.71
310.391
310.082
309.801
309.593
303.221
303.29
303.384
303.488
303.594
303.699
303.795
303.876
303.934
303.965
303.965
303.934
303.876
303.795
303.699
303.594
303.488
303.384
303.29
303.221
346.305
347.432
348.859
350.406
351.994
353.549
354.982
356.189
357.067
357.531
357.531
357.067
356.189
354.982
353.549
351.994
350.406
348.859
347.432
346.305
340.492
341.444
342.671
344.005
345.374
346.715
347.95
348.989
349.745
350.144
350.144
349.745
348.989
347.95
346.715
345.374
344.005
342.671
341.444
340.492
334.538
335.325
336.356
337.48
338.634
339.763
340.802
341.677
342.313
342.649
342.649
342.313
341.677
340.802
339.763
338.634
337.48
336.356
335.325
334.538
328.455
329.088
329.926
330.842
331.783
332.703
333.549
334.262
334.78
335.053
335.053
334.78
334.262
333.549
332.703
331.783
330.842
329.926
329.088
328.455
322.261
322.746
323.395
324.105
324.834
325.548
326.204
326.756
327.157
327.369
327.369
327.157
326.756
326.204
325.548
324.834
324.105
323.395
322.746
322.261
315.976
316.319
316.78
317.287
317.807
318.315
318.783
319.176
319.462
319.613
319.613
319.462
319.176
318.783
318.315
317.807
317.287
316.78
316.319
315.976
309.624
309.828
310.105
310.408
310.72
311.025
311.306
311.542
311.713
311.803
311.803
311.713
311.542
311.306
311.025
310.72
310.408
310.105
309.828
309.624
303.231
303.299
303.392
303.493
303.598
303.7
303.794
303.873
303.93
303.96
303.96
303.93
303.873
303.794
303.7
303.598
303.493
303.392
303.299
303.231
346.544
347.645
349.036
350.541
352.082
353.587
354.971
356.134
356.98
357.426
357.426
356.98
356.134
354.971
353.587
352.082
350.541
349.036
347.645
346.544
340.698
341.627
342.824
344.121
345.45
346.748
347.941
348.943
349.671
350.055
350.055
349.671
348.943
347.941
346.748
345.45
344.121
342.824
341.627
340.698
334.711
335.48
336.485
337.578
338.698
339.792
340.795
341.639
342.251
342.574
342.574
342.251
341.639
340.795
339.792
338.698
337.578
336.485
335.48
334.711
328.597
329.214
330.031
330.922
331.835
332.726
333.544
334.231
334.73
334.993
334.993
334.73
334.231
333.544
332.726
331.835
330.922
330.031
329.214
328.597
322.371
322.844
323.476
324.167
324.875
325.566
326.2
326.733
327.119
327.323
327.323
327.119
326.733
326.2
325.566
324.875
324.167
323.476
322.844
322.371
316.054
316.389
316.839
317.331
317.836
318.329
318.78
319.16
319.435
319.58
319.58
319.435
319.16
318.78
318.329
317.836
317.331
316.839
316.389
316.054
309.671
309.87
310.14
310.435
310.738
311.033
311.304
311.532
311.697
311.784
311.784
311.697
311.532
311.304
311.033
310.738
310.435
310.14
309.87
309.671
303.246
303.313
303.403
303.502
303.604
303.703
303.793
303.869
303.925
303.954
303.954
303.925
303.869
303.793
303.703
303.604
303.502
303.403
303.313
303.246
346.869
347.936
349.281
350.732
352.213
353.656
354.978
356.087
356.891
357.314
357.314
356.891
356.087
354.978
353.656
352.213
350.732
349.281
347.936
346.869
340.978
341.878
343.035
344.286
345.564
346.808
347.948
348.903
349.596
349.961
349.961
349.596
348.903
347.948
346.808
345.564
344.286
343.035
341.878
340.978
334.947
335.692
336.664
337.718
338.795
339.843
340.802
341.606
342.189
342.496
342.496
342.189
341.606
340.802
339.843
338.795
337.718
336.664
335.692
334.947
328.788
329.386
330.177
331.036
331.914
332.768
333.55
334.205
334.68
334.93
334.93
334.68
334.205
333.55
332.768
331.914
331.036
330.177
329.386
328.788
322.519
322.978
323.589
324.256
324.937
325.599
326.205
326.713
327.081
327.274
327.274
327.081
326.713
326.205
325.599
324.937
324.256
323.589
322.978
322.519
316.16
316.484
316.919
317.394
317.88
318.352
318.784
319.146
319.408
319.546
319.546
319.408
319.146
318.784
318.352
317.88
317.394
316.919
316.484
316.16
309.734
309.927
310.188
310.473
310.764
311.047
311.307
311.523
311.681
311.763
311.763
311.681
311.523
311.307
311.047
310.764
310.473
310.188
309.927
309.734
303.268
303.332
303.42
303.515
303.612
303.707
303.794
303.867
303.919
303.947
303.947
303.919
303.867
303.794
303.707
303.612
303.515
303.42
303.332
303.268
347.282
348.309
349.6
350.988
352.399
353.769
355.019
356.065
356.822
357.22
357.22
356.822
356.065
355.019
353.769
352.399
350.988
349.6
348.309
347.282
341.334
342.201
343.311
344.508
345.726
346.907
347.985
348.886
349.538
349.881
349.881
349.538
348.886
347.985
346.907
345.726
344.508
343.311
342.201
341.334
335.246
335.964
336.896
337.905
338.931
339.926
340.834
341.593
342.142
342.43
342.43
342.142
341.593
340.834
339.926
338.931
337.905
336.896
335.964
335.246
329.032
329.608
330.367
331.189
332.025
332.837
333.577
334.195
334.642
334.877
334.877
334.642
334.195
333.577
332.837
332.025
331.189
330.367
329.608
329.032
322.708
323.15
323.737
324.374
325.023
325.652
326.226
326.706
327.052
327.234
327.234
327.052
326.706
326.226
325.652
325.023
324.374
323.737
323.15
322.708
316.295
316.607
317.024
317.479
317.942
318.39
318.799
319.141
319.388
319.517
319.517
319.388
319.141
318.799
318.39
317.942
317.479
317.024
316.607
316.295
309.815
310.001
310.251
310.524
310.801
311.07
311.316
311.521
311.668
311.746
311.746
311.668
311.521
311.316
311.07
310.801
310.524
310.251
310.001
309.815
303.295
303.357
303.441
303.532
303.625
303.715
303.797
303.866
303.915
303.941
303.941
303.915
303.866
303.797
303.715
303.625
303.532
303.441
303.357
303.295
347.79
348.772
350.002
351.319
352.653
353.941
355.114
356.091
356.796
357.166
357.166
356.796
356.091
355.114
353.941
352.653
351.319
350.002
348.772
347.79
341.771
342.6
343.658
344.794
345.945
347.056
348.067
348.91
349.517
349.836
349.836
349.517
348.91
348.067
347.056
345.945
344.794
343.658
342.6
341.771
335.614
336.3
337.189
338.146
339.116
340.053
340.904
341.614
342.125
342.394
342.394
342.125
341.614
340.904
340.053
339.116
338.146
337.189
336.3
335.614
329.332
329.882
330.605
331.386
332.177
332.941
333.635
334.213
334.629
334.848
334.848
334.629
334.213
333.635
332.941
332.177
331.386
330.605
329.882
329.332
322.94
323.362
323.922
324.527
325.141
325.733
326.271
326.72
327.043
327.212
327.212
327.043
326.72
326.271
325.733
325.141
324.527
323.922
323.362
322.94
316.46
316.758
317.157
317.588
318.026
318.448
318.832
319.151
319.381
319.502
319.502
319.381
319.151
318.832
318.448
318.026
317.588
317.157
316.758
316.46
309.914
310.092
310.331
310.589
310.852
311.105
311.335
311.527
311.665
311.737
311.737
311.665
311.527
311.335
311.105
310.852
310.589
310.331
310.092
309.914
303.328
303.387
303.467
303.554
303.642
303.727
303.804
303.868
303.914
303.938
303.938
303.914
303.868
303.804
303.727
303.642
303.554
303.467
303.387
303.328
348.397
349.33
350.494
351.735
352.986
354.189
355.279
356.184
356.835
357.176
357.176
356.835
356.184
355.279
354.189
352.986
351.735
350.494
349.33
348.397
342.294
343.082
344.083
345.153
346.233
347.271
348.211
348.991
349.553
349.846
349.846
349.553
348.991
348.211
347.271
346.233
345.153
344.083
343.082
342.294
336.054
336.706
337.547
338.449
339.359
340.234
341.026
341.684
342.156
342.404
342.404
342.156
341.684
341.026
340.234
339.359
338.449
337.547
336.706
336.054
329.69
330.213
330.898
331.633
332.376
333.089
333.735
334.27
334.655
334.857
334.857
334.655
334.27
333.735
333.089
332.376
331.633
330.898
330.213
329.69
323.218
323.619
324.149
324.719
325.295
325.849
326.349
326.765
327.063
327.22
327.22
327.063
326.765
326.349
325.849
325.295
324.719
324.149
323.619
323.218
316.658
316.941
317.318
317.725
318.136
318.53
318.887
319.184
319.396
319.508
319.508
319.396
319.184
318.887
318.53
318.136
317.725
317.318
316.941
316.658
310.033
310.202
310.428
310.672
310.918
311.155
311.369
311.546
311.674
311.741
311.741
311.674
311.546
311.369
311.155
310.918
310.672
310.428
310.202
310.033
303.368
303.424
303.5
303.581
303.664
303.743
303.815
303.874
303.917
303.94
303.94
303.917
303.874
303.815
303.743
303.664
303.581
303.5
303.424
303.368
349.109
349.99
351.085
352.247
353.412
354.528
355.533
356.365
356.962
357.273
357.273
356.962
356.365
355.533
354.528
353.412
352.247
351.085
349.99
349.109
342.907
343.651
344.593
345.595
346.601
347.564
348.432
349.149
349.663
349.932
349.932
349.663
349.149
348.432
347.564
346.601
345.595
344.593
343.651
342.907
336.571
337.186
337.978
338.822
339.67
340.482
341.213
341.817
342.251
342.477
342.477
342.251
341.817
341.213
340.482
339.67
338.822
337.978
337.186
336.571
330.111
330.605
331.249
331.938
332.629
333.291
333.887
334.38
334.733
334.918
334.918
334.733
334.38
333.887
333.291
332.629
331.938
331.249
330.605
330.111
323.544
323.923
324.421
324.956
325.492
326.006
326.468
326.85
327.124
327.267
327.267
327.124
326.85
326.468
326.006
325.492
324.956
324.421
323.923
323.544
316.891
317.158
317.513
317.894
318.276
318.643
318.972
319.245
319.44
319.542
319.542
319.44
319.245
318.972
318.643
318.276
317.894
317.513
317.158
316.891
310.172
310.332
310.544
310.773
311.002
311.222
311.42
311.583
311.7
311.761
311.761
311.7
311.583
311.42
311.222
311.002
310.773
310.544
310.332
310.172
303.414
303.468
303.539
303.615
303.692
303.766
303.832
303.887
303.926
303.946
303.946
303.926
303.887
303.832
303.766
303.692
303.615
303.539
303.468
303.414
349.93
350.758
351.783
352.865
353.944
354.971
355.893
356.653
357.195
357.479
357.479
357.195
356.653
355.893
354.971
353.944
352.865
351.783
350.758
349.93
343.615
344.314
345.196
346.129
347.06
347.947
348.743
349.398
349.866
350.111
350.111
349.866
349.398
348.743
347.947
347.06
346.129
345.196
344.314
343.615
337.167
337.745
338.486
339.272
340.058
340.805
341.476
342.028
342.423
342.629
342.629
342.423
342.028
341.476
340.805
340.058
339.272
338.486
337.745
337.167
330.597
331.061
331.663
332.305
332.945
333.555
334.102
334.553
334.874
335.042
335.042
334.874
334.553
334.102
333.555
332.945
332.305
331.663
331.061
330.597
323.921
324.277
324.743
325.24
325.738
326.211
326.635
326.984
327.234
327.364
327.364
327.234
326.984
326.635
326.211
325.738
325.24
324.743
324.277
323.921
317.159
317.41
317.742
318.097
318.452
318.789
319.092
319.341
319.519
319.611
319.611
319.519
319.341
319.092
318.789
318.452
318.097
317.742
317.41
317.159
310.333
310.483
310.682
310.895
311.107
311.31
311.491
311.641
311.747
311.803
311.803
311.747
311.641
311.491
311.31
311.107
310.895
310.682
310.483
310.333
303.468
303.518
303.585
303.656
303.727
303.795
303.856
303.906
303.942
303.96
303.96
303.942
303.906
303.856
303.795
303.727
303.656
303.585
303.518
303.468
350.867
351.642
352.596
353.597
354.591
355.533
356.373
357.063
357.554
357.81
357.81
357.554
357.063
356.373
355.533
354.591
353.597
352.596
351.642
350.867
344.423
345.076
345.897
346.761
347.62
348.432
349.158
349.753
350.177
350.398
350.398
350.177
349.753
349.158
348.432
347.62
346.761
345.897
345.076
344.423
337.847
338.387
339.077
339.806
340.529
341.215
341.827
342.328
342.685
342.871
342.871
342.685
342.328
341.827
341.215
340.529
339.806
339.077
338.387
337.847
331.151
331.585
332.146
332.74
333.33
333.89
334.389
334.798
335.089
335.241
335.241
335.089
334.798
334.389
333.89
333.33
332.74
332.146
331.585
331.151
324.35
324.683
325.117
325.578
326.036
326.47
326.857
327.175
327.401
327.519
327.519
327.401
327.175
326.857
326.47
326.036
325.578
325.117
324.683
324.35
317.465
317.7
318.009
318.338
318.665
318.974
319.25
319.477
319.638
319.722
319.722
319.638
319.477
319.25
318.974
318.665
318.338
318.009
317.7
317.465
310.517
310.657
310.842
311.039
311.235
311.421
311.586
311.722
311.819
311.869
311.869
311.819
311.722
311.586
311.421
311.235
311.039
310.842
310.657
310.517
303.53
303.577
303.639
303.705
303.77
303.832
303.888
303.933
303.966
303.983
303.983
303.966
303.933
303.888
303.832
303.77
303.705
303.639
303.577
303.53
351.924
352.645
353.53
354.453
355.364
356.223
356.986
357.609
358.052
358.282
358.282
358.052
357.609
356.986
356.223
355.364
354.453
353.53
352.645
351.924
345.334
345.943
346.703
347.5
348.287
349.029
349.687
350.225
350.607
350.806
350.806
350.607
350.225
349.687
349.029
348.287
347.5
346.703
345.943
345.334
338.614
339.118
339.757
340.429
341.093
341.718
342.273
342.727
343.049
343.216
343.216
343.049
342.727
342.273
341.718
341.093
340.429
339.757
339.118
338.614
331.776
332.18
332.7
333.248
333.79
334.3
334.753
335.123
335.386
335.522
335.522
335.386
335.123
334.753
334.3
333.79
333.248
332.7
332.18
331.776
324.835
325.145
325.547
325.973
326.393
326.789
327.141
327.428
327.631
327.737
327.737
327.631
327.428
327.141
326.789
326.393
325.973
325.547
325.145
324.835
317.811
318.029
318.316
318.619
318.919
319.201
319.452
319.657
319.802
319.878
319.878
319.802
319.657
319.452
319.201
318.919
318.619
318.316
318.029
317.811
310.724
310.854
311.026
311.208
311.388
311.557
311.708
311.83
311.918
311.963
311.963
311.918
311.83
311.708
311.557
311.388
311.208
311.026
310.854
310.724
303.599
303.643
303.7
303.761
303.821
303.878
303.929
303.97
303.999
304.014
304.014
303.999
303.97
303.929
303.878
303.821
303.761
303.7
303.643
303.599
353.105
353.774
354.591
355.439
356.272
357.052
357.741
358.302
358.699
358.906
358.906
358.699
358.302
357.741
357.052
356.272
355.439
354.591
353.774
353.105
346.352
346.917
347.619
348.352
349.071
349.744
350.34
350.824
351.167
351.345
351.345
351.167
350.824
350.34
349.744
349.071
348.352
347.619
346.917
346.352
339.472
339.939
340.529
341.146
341.753
342.321
342.824
343.232
343.521
343.671
343.671
343.521
343.232
342.824
342.321
341.753
341.146
340.529
339.939
339.472
332.475
332.85
333.33
333.834
334.329
334.792
335.202
335.536
335.771
335.894
335.894
335.771
335.536
335.202
334.792
334.329
333.834
333.33
332.85
332.475
325.378
325.665
326.036
326.427
326.811
327.171
327.489
327.748
327.931
328.026
328.026
327.931
327.748
327.489
327.171
326.811
326.427
326.036
325.665
325.378
318.197
318.4
318.665
318.943
319.217
319.474
319.701
319.885
320.016
320.084
320.084
320.016
319.885
319.701
319.474
319.217
318.943
318.665
318.4
318.197
310.956
311.077
311.235
311.402
311.567
311.721
311.857
311.968
312.046
312.086
312.086
312.046
311.968
311.857
311.721
311.567
311.402
311.235
311.077
310.956
303.677
303.717
303.77
303.826
303.881
303.933
303.978
304.016
304.042
304.055
304.055
304.042
304.016
303.978
303.933
303.881
303.826
303.77
303.717
303.677
354.414
355.033
355.784
356.561
357.319
358.025
358.647
359.151
359.506
359.69
359.69
359.506
359.151
358.647
358.025
357.319
356.561
355.784
355.033
354.414
347.481
348.003
348.649
349.32
349.975
350.585
351.122
351.557
351.864
352.022
352.022
351.864
351.557
351.122
350.585
349.975
349.32
348.649
348.003
347.481
340.422
340.854
341.398
341.963
342.515
343.03
343.483
343.85
344.109
344.243
344.243
344.109
343.85
343.483
343.03
342.515
341.963
341.398
340.854
340.422
333.25
333.597
334.039
334.5
334.95
335.371
335.74
336.04
336.251
336.36
336.36
336.251
336.04
335.74
335.371
334.95
334.5
334.039
333.597
333.25
325.978
326.244
326.586
326.944
327.294
327.62
327.907
328.139
328.303
328.388
328.388
328.303
328.139
327.907
327.62
327.294
326.944
326.586
326.244
325.978
318.625
318.813
319.057
319.312
319.561
319.794
319.999
320.164
320.281
320.342
320.342
320.281
320.164
319.999
319.794
319.561
319.312
319.057
318.813
318.625
311.213
311.324
311.47
311.623
311.773
311.913
312.035
312.135
312.205
312.241
312.241
312.205
312.135
312.035
311.913
311.773
311.623
311.47
311.324
311.213
303.763
303.8
303.849
303.9
303.95
303.997
304.038
304.072
304.095
304.107
304.107
304.095
304.072
304.038
303.997
303.95
303.9
303.849
303.8
303.763
355.851
356.422
357.112
357.821
358.51
359.148
359.707
360.158
360.475
360.639
360.639
360.475
360.158
359.707
359.148
358.51
357.821
357.112
356.422
355.851
348.72
349.202
349.795
350.407
351.002
351.553
352.036
352.426
352.7
352.842
352.842
352.7
352.426
352.036
351.553
351.002
350.407
349.795
349.202
348.72
341.466
341.864
342.363
342.879
343.381
343.847
344.254
344.583
344.814
344.933
344.933
344.814
344.583
344.254
343.847
343.381
342.879
342.363
341.864
341.466
334.101
334.42
334.826
335.247
335.657
336.036
336.369
336.637
336.826
336.923
336.923
336.826
336.637
336.369
336.036
335.657
335.247
334.826
334.42
334.101
326.638
326.883
327.197
327.523
327.841
328.136
328.394
328.603
328.749
328.825
328.825
328.749
328.603
328.394
328.136
327.841
327.523
327.197
326.883
326.638
319.096
319.268
319.492
319.725
319.952
320.162
320.346
320.495
320.599
320.653
320.653
320.599
320.495
320.346
320.162
319.952
319.725
319.492
319.268
319.096
311.494
311.598
311.732
311.871
312.007
312.134
312.244
312.333
312.396
312.428
312.428
312.396
312.333
312.244
312.134
312.007
311.871
311.732
311.598
311.494
303.857
303.892
303.936
303.983
304.029
304.071
304.108
304.138
304.159
304.17
304.17
304.159
304.138
304.108
304.071
304.029
303.983
303.936
303.892
303.857
357.415
357.94
358.572
359.218
359.842
360.418
360.92
361.324
361.607
361.753
361.753
361.607
361.324
360.92
360.418
359.842
359.218
358.572
357.94
357.415
350.067
350.51
351.054
351.612
352.151
352.649
353.082
353.431
353.676
353.802
353.802
353.676
353.431
353.082
352.649
352.151
351.612
351.054
350.51
350.067
342.6
342.966
343.423
343.894
344.349
344.769
345.135
345.429
345.636
345.742
345.742
345.636
345.429
345.135
344.769
344.349
343.894
343.423
342.966
342.6
335.024
335.318
335.69
336.074
336.445
336.788
337.087
337.327
337.496
337.582
337.582
337.496
337.327
337.087
336.788
336.445
336.074
335.69
335.318
335.024
327.354
327.579
327.867
328.165
328.453
328.719
328.951
329.138
329.268
329.336
329.336
329.268
329.138
328.951
328.719
328.453
328.165
327.867
327.579
327.354
319.606
319.765
319.97
320.182
320.388
320.578
320.743
320.876
320.97
321.018
321.018
320.97
320.876
320.743
320.578
320.388
320.182
319.97
319.765
319.606
311.8
311.895
312.018
312.145
312.269
312.383
312.482
312.562
312.618
312.647
312.647
312.618
312.562
312.482
312.383
312.269
312.145
312.018
311.895
311.8
303.96
303.991
304.032
304.075
304.116
304.155
304.188
304.215
304.233
304.243
304.243
304.233
304.215
304.188
304.155
304.116
304.075
304.032
303.991
303.96
359.089
359.572
360.15
360.739
361.305
361.824
362.274
362.635
362.888
363.018
363.018
362.888
362.635
362.274
361.824
361.305
360.739
360.15
359.572
359.089
351.508
351.915
352.413
352.921
353.41
353.858
354.248
354.56
354.778
354.89
354.89
354.778
354.56
354.248
353.858
353.41
352.921
352.413
351.915
351.508
343.811
344.148
344.566
344.995
345.407
345.786
346.115
346.378
346.562
346.657
346.657
346.562
346.378
346.115
345.786
345.407
344.995
344.566
344.148
343.811
336.009
336.28
336.62
336.97
337.307
337.616
337.884
338.099
338.25
338.327
338.327
338.25
338.099
337.884
337.616
337.307
336.97
336.62
336.28
336.009
328.116
328.323
328.587
328.858
329.12
329.36
329.569
329.735
329.852
329.912
329.912
329.852
329.735
329.569
329.36
329.12
328.858
328.587
328.323
328.116
320.149
320.295
320.483
320.676
320.863
321.034
321.183
321.302
321.385
321.428
321.428
321.385
321.302
321.183
321.034
320.863
320.676
320.483
320.295
320.149
312.126
312.213
312.325
312.441
312.553
312.656
312.745
312.817
312.867
312.893
312.893
312.867
312.817
312.745
312.656
312.553
312.441
312.325
312.213
312.126
304.069
304.098
304.135
304.174
304.212
304.246
304.276
304.3
304.317
304.325
304.325
304.317
304.3
304.276
304.246
304.212
304.174
304.135
304.098
304.069
360.834
361.278
361.808
362.344
362.858
363.327
363.732
364.056
364.281
364.398
364.398
364.281
364.056
363.732
363.327
362.858
362.344
361.808
361.278
360.834
353.002
353.376
353.833
354.296
354.74
355.146
355.496
355.776
355.972
356.072
356.072
355.972
355.776
355.496
355.146
354.74
354.296
353.833
353.376
353.002
345.062
345.372
345.755
346.147
346.522
346.864
347.16
347.397
347.562
347.646
347.646
347.562
347.397
347.16
346.864
346.522
346.147
345.755
345.372
345.062
337.024
337.272
337.585
337.904
338.21
338.49
338.732
338.925
339.06
339.129
339.129
339.06
338.925
338.732
338.49
338.21
337.904
337.585
337.272
337.024
328.899
329.09
329.332
329.58
329.817
330.035
330.223
330.373
330.477
330.531
330.531
330.477
330.373
330.223
330.035
329.817
329.58
329.332
329.09
328.899
320.705
320.84
321.012
321.189
321.358
321.514
321.648
321.755
321.829
321.868
321.868
321.829
321.755
321.648
321.514
321.358
321.189
321.012
320.84
320.705
312.458
312.539
312.642
312.748
312.85
312.943
313.023
313.088
313.133
313.156
313.156
313.133
313.088
313.023
312.943
312.85
312.748
312.642
312.539
312.458
304.18
304.207
304.241
304.277
304.311
304.342
304.369
304.391
304.406
304.413
304.413
304.406
304.391
304.369
304.342
304.311
304.277
304.241
304.207
304.18
362.536
362.946
363.434
363.927
364.396
364.823
365.191
365.483
365.687
365.792
365.792
365.687
365.483
365.191
364.823
364.396
363.927
363.434
362.946
362.536
354.442
354.789
355.21
355.636
356.042
356.412
356.73
356.984
357.16
357.251
357.251
357.16
356.984
356.73
356.412
356.042
355.636
355.21
354.789
354.442
346.255
346.542
346.896
347.256
347.6
347.912
348.182
348.396
348.545
348.622
348.622
348.545
348.396
348.182
347.912
347.6
347.256
346.896
346.542
346.255
337.982
338.213
338.501
338.795
339.076
339.332
339.552
339.727
339.849
339.912
339.912
339.849
339.727
339.552
339.332
339.076
338.795
338.501
338.213
337.982
329.634
329.81
330.034
330.263
330.481
330.68
330.851
330.987
331.082
331.131
331.131
331.082
330.987
330.851
330.68
330.481
330.263
330.034
329.81
329.634
321.224
321.349
321.508
321.671
321.827
321.969
322.091
322.189
322.256
322.291
322.291
322.256
322.189
322.091
321.969
321.827
321.671
321.508
321.349
321.224
312.768
312.842
312.938
313.036
313.129
313.214
313.288
313.346
313.387
313.408
313.408
313.387
313.346
313.288
313.214
313.129
313.036
312.938
312.842
312.768
304.283
304.308
304.34
304.373
304.404
304.433
304.457
304.477
304.491
304.498
304.498
304.491
304.477
304.457
304.433
304.404
304.373
304.34
304.308
304.283
363.889
364.275
364.734
365.195
365.633
366.031
366.373
366.644
366.832
366.929
366.929
366.832
366.644
366.373
366.031
365.633
365.195
364.734
364.275
363.889
355.544
355.87
356.267
356.668
357.048
357.394
357.691
357.927
358.09
358.174
358.174
358.09
357.927
357.691
357.394
357.048
356.668
356.267
355.87
355.544
347.139
347.41
347.745
348.084
348.407
348.7
348.952
349.151
349.29
349.362
349.362
349.29
349.151
348.952
348.7
348.407
348.084
347.745
347.41
347.139
338.675
338.893
339.166
339.444
339.708
339.948
340.154
340.318
340.432
340.491
340.491
340.432
340.318
340.154
339.948
339.708
339.444
339.166
338.893
338.675
330.154
330.322
330.534
330.75
330.956
331.143
331.303
331.431
331.52
331.565
331.565
331.52
331.431
331.303
331.143
330.956
330.75
330.534
330.322
330.154
321.586
321.705
321.856
322.01
322.158
322.291
322.406
322.497
322.561
322.593
322.593
322.561
322.497
322.406
322.291
322.158
322.01
321.856
321.705
321.586
312.982
313.052
313.143
313.236
313.324
313.405
313.474
313.529
313.567
313.586
313.586
313.567
313.529
313.474
313.405
313.324
313.236
313.143
313.052
312.982
304.354
304.378
304.408
304.439
304.469
304.496
304.519
304.537
304.55
304.557
304.557
304.55
304.537
304.519
304.496
304.469
304.439
304.408
304.378
304.354
)
;

boundaryField
{
    hotSide
    {
        type            fixedGradient;
        gradient        nonuniform List<scalar> 
400
(
450.311
451.2
452.99
455.706
459.383
464.064
469.799
476.644
484.654
493.887
504.396
516.235
529.449
544.082
560.17
577.747
596.837
617.463
639.642
663.388
465.815
466.581
468.13
470.495
473.722
477.869
483.003
489.194
496.515
505.038
514.832
525.959
538.478
552.438
567.883
584.849
603.365
623.454
645.133
668.417
482.592
483.212
484.474
486.422
489.117
492.637
497.067
502.499
509.025
516.736
525.717
536.045
547.788
561.004
575.744
592.046
609.943
629.458
650.608
673.405
500.367
500.816
501.744
503.209
505.291
508.09
511.718
516.29
521.923
528.729
536.812
546.264
557.165
569.581
583.569
599.17
616.418
635.336
655.94
678.239
518.641
518.898
519.452
520.376
521.775
523.776
526.52
530.153
534.818
540.652
547.778
556.304
566.323
577.909
591.123
606.009
622.6
640.919
660.979
682.785
536.653
536.705
536.858
537.206
537.881
539.041
540.859
543.514
547.18
552.018
558.172
565.767
574.906
585.67
598.124
612.314
628.271
646.016
665.557
686.898
553.372
553.219
552.972
552.748
552.706
553.037
553.95
555.655
558.357
562.242
567.473
574.19
582.506
592.508
604.262
617.815
633.196
650.423
669.5
690.426
567.562
567.224
566.618
565.879
565.196
564.789
564.899
565.769
567.627
570.683
575.118
581.082
588.697
598.054
609.22
622.24
637.143
653.942
672.638
693.225
577.947
577.466
576.585
575.454
574.282
573.316
572.821
573.062
574.289
576.729
580.574
585.984
593.085
601.971
612.71
625.347
639.906
656.398
674.822
695.168
583.449
582.892
581.86
580.516
579.079
577.81
576.987
576.89
577.778
579.888
583.419
588.534
595.363
604.001
614.515
626.95
641.329
657.662
675.944
696.165
583.449
582.892
581.86
580.516
579.079
577.81
576.987
576.89
577.778
579.888
583.419
588.534
595.363
604.001
614.515
626.95
641.329
657.662
675.944
696.165
577.947
577.466
576.585
575.454
574.282
573.316
572.821
573.062
574.289
576.729
580.574
585.984
593.085
601.971
612.71
625.347
639.906
656.398
674.822
695.168
567.562
567.224
566.618
565.879
565.196
564.789
564.899
565.769
567.627
570.683
575.118
581.082
588.697
598.054
609.22
622.24
637.143
653.942
672.638
693.225
553.372
553.219
552.972
552.748
552.706
553.037
553.95
555.655
558.357
562.242
567.473
574.19
582.506
592.508
604.262
617.815
633.196
650.423
669.5
690.426
536.653
536.705
536.858
537.206
537.881
539.041
540.859
543.514
547.18
552.018
558.172
565.767
574.906
585.67
598.124
612.314
628.271
646.016
665.557
686.898
518.641
518.898
519.452
520.376
521.775
523.776
526.52
530.153
534.818
540.652
547.778
556.304
566.323
577.909
591.123
606.009
622.6
640.919
660.979
682.785
500.367
500.816
501.744
503.209
505.291
508.09
511.718
516.29
521.923
528.729
536.812
546.264
557.165
569.581
583.569
599.17
616.418
635.336
655.94
678.239
482.592
483.212
484.474
486.422
489.117
492.637
497.067
502.499
509.025
516.736
525.717
536.045
547.788
561.004
575.744
592.046
609.943
629.458
650.608
673.405
465.815
466.581
468.13
470.495
473.722
477.869
483.003
489.194
496.515
505.038
514.832
525.959
538.478
552.438
567.883
584.849
603.365
623.454
645.133
668.417
450.311
451.2
452.99
455.706
459.383
464.064
469.799
476.644
484.654
493.887
504.396
516.235
529.449
544.082
560.17
577.747
596.837
617.463
639.642
663.388
)
;
    }
    coldSide
    {
        type            mixed;
        refValue        uniform 300;
        refGradient     uniform 0;
        valueFraction   uniform 0.991591;
        source          uniform 0;
        value           nonuniform List<scalar> 
400
(
300.027
300.027
300.027
300.027
300.027
300.028
300.028
300.028
300.029
300.029
300.03
300.03
300.031
300.032
300.032
300.033
300.034
300.035
300.036
300.037
300.028
300.028
300.028
300.028
300.028
300.028
300.028
300.029
300.029
300.03
300.03
300.031
300.031
300.032
300.033
300.034
300.034
300.035