/*--------------------------------*- C++ -*----------------------------------*\
| =========                 |                                                 |
| \\      /  F ield         | OpenFOAM: The Open Source CFD Toolbox           |
|  \\    /   O peration     | Version:  2212                                  |
|   \\  /    A nd           | Website:  www.openfoam.com                      |
|    \\/     M anipulation  |                                                 |
\*---------------------------------------------------------------------------*/
FoamFile
{
    version     2.0;
    format      ascii;
    arch        "LSB;label=32;scalar=64";
    class       volScalarField;
    location    "0";
    object      Tdirect;
}
// * * * * * * * * * * * * * * * * * * * * * * * * * * * * * * * * * * * * * //

dimensions      [0 0 0 1 0 0 0];

internalField   nonuniform List<scalar> 
3200
(
348.089
348.818
349.749
350.763
351.808
352.834
353.78
354.579
355.161
355.469
355.469
355.161
354.579
353.78
352.834
351.808
350.763
349.749
348.818
348.089
341.693
342.311
343.113
343.991
344.895
345.782
346.601
347.291
347.794
348.059
348.059
347.794
347.291
346.601
345.782
344.895
343.991
343.113
342.311
341.693
335.292
335.804
336.481
337.222
337.986
338.736
339.427
340.01
340.434
340.658
340.658
340.434
340.01
339.427
338.736
337.986
337.222
336.481
335.804
335.292
328.886
329.299
329.85
330.456
331.081
331.693
332.257
332.733
333.079
333.262
333.262
333.079
332.733
332.257
331.693
331.081
330.456
329.85
329.299
328.886
322.477
322.793
323.221
323.692
324.178
324.653
325.092
325.461
325.73
325.872
325.872
325.73
325.461
325.092
324.653
324.178
323.692
323.221
322.793
322.477
316.065
316.289
316.594
316.93
317.277
317.616
317.929
318.193
318.385
318.486
318.486
318.385
318.193
317.929
317.616
317.277
316.93
316.594
316.289
316.065
309.65
309.784
309.967
310.169
310.377
310.581
310.769
310.927
311.042
311.103
311.103
311.042
310.927
310.769
310.581
310.377
310.169
309.967
309.784
309.65
303.235
303.28
303.341
303.409
303.478
303.547
303.61
303.663
303.701
303.722
303.722
303.701
303.663
303.61
303.547
303.478
303.409
303.341
303.28
303.235
348.242
348.965
349.888
350.893
351.927
352.941
353.877
354.666
355.24
355.544
355.544
355.24
354.666
353.877
352.941
351.927
350.893
349.888
348.965
348.242
341.826
342.438
343.234
344.103
344.998
345.876
346.685
347.366
347.863
348.125
348.125
347.863
347.366
346.685
345.876
344.998
344.103
343.234
342.438
341.826
335.404
335.912
336.582
337.317
338.073
338.815
339.498
340.073
340.492
340.713
340.713
340.492
340.073
339.498
338.815
338.073
337.317
336.582
335.912
335.404
328.978
329.387
329.933
330.534
331.152
331.758
332.316
332.785
333.127
333.308
333.308
333.127
332.785
332.316
331.758
331.152
330.534
329.933
329.387
328.978
322.548
322.862
323.286
323.752
324.233
324.704
325.137
325.502
325.767
325.907
325.907
325.767
325.502
325.137
324.704
324.233
323.752
323.286
322.862
322.548
316.115
316.337
316.64
316.973
317.316
317.652
317.962
318.222
318.411
318.511
318.511
318.411
318.222
317.962
317.652
317.316
316.973
316.64
316.337
316.115
309.681
309.813
309.995
310.195
310.401
310.603
310.788
310.945
311.058
311.118
311.118
311.058
310.945
310.788
310.603
310.401
310.195
309.995
309.813
309.681
303.245
303.29
303.35
303.417
303.486
303.554
303.616
303.669
303.707
303.727
303.727
303.707
303.669
303.616
303.554
303.486
303.417
303.35
303.29
303.245
348.548
349.26
350.167
351.153
352.167
353.159
354.073
354.843
355.403
355.698
355.698
355.403
354.843
354.073
353.159
352.167
351.153
350.167
349.26
348.548
342.091
342.693
343.476
344.329
345.206
346.065
346.855
347.52
348.004
348.259
348.259
348.004
347.52
346.855
346.065
345.206
344.329
343.476
342.693
342.091
335.628
336.128
336.787
337.508
338.249
338.975
339.642
340.203
340.612
340.827
340.827
340.612
340.203
339.642
338.975
338.249
337.508
336.787
336.128
335.628
329.161
329.563
330.1
330.69
331.296
331.888
332.434
332.892
333.225
333.401
333.401
333.225
332.892
332.434
331.888
331.296
330.69
330.1
329.563
329.161
322.69
322.999
323.416
323.874
324.345
324.805
325.229
325.585
325.844
325.98
325.98
325.844
325.585
325.229
324.805
324.345
323.874
323.416
322.999
322.69
316.217
316.435
316.733
317.06
317.396
317.725
318.027
318.282
318.466
318.563
318.563
318.466
318.282
318.027
317.725
317.396
317.06
316.733
316.435
316.217
309.742
309.872
310.05
310.247
310.449
310.646
310.828
310.98
311.091
311.149
311.149
311.091
310.98
310.828
310.646
310.449
310.247
310.05
309.872
309.742
303.266
303.309
303.369
303.435
303.502
303.569
303.629
303.681
303.718
303.737
303.737
303.718
303.681
303.629
303.569
303.502
303.435
303.369
303.309
303.266
349.009
349.705
350.589
351.548
352.532
353.493
354.375
355.117
355.656
355.94
355.94
355.656
355.117
354.375
353.493
352.532
351.548
350.589
349.705
349.009
342.49
343.078
343.841
344.671
345.522
346.353
347.117
347.758
348.224
348.469
348.469
348.224
347.758
347.117
346.353
345.522
344.671
343.841
343.078
342.49
335.965
336.453
337.096
337.797
338.517
339.219
339.864
340.405
340.798
341.005
341.005
340.798
340.405
339.864
339.219
338.517
337.797
337.096
336.453
335.965
329.436
329.829
330.353
330.926
331.514
332.088
332.615
333.057
333.378
333.547
333.547
333.378
333.057
332.615
332.088
331.514
330.926
330.353
329.829
329.436
322.904
323.206
323.612
324.058
324.515
324.961
325.37
325.714
325.963
326.094
326.094
325.963
325.714
325.37
324.961
324.515
324.058
323.612
323.206
322.904
316.37
316.583
316.873
317.191
317.518
317.836
318.128
318.374
318.551
318.645
318.645
318.551
318.374
318.128
317.836
317.518
317.191
316.873
316.583
316.37
309.833
309.961
310.135
310.326
310.522
310.713
310.888
311.036
311.142
311.199
311.199
311.142
311.036
310.888
310.713
310.522
310.326
310.135
309.961
309.833
303.296
303.339
303.397
303.461
303.527
303.591
303.65
303.699
303.735
303.754
303.754
303.735
303.699
303.65
303.591
303.527
303.461
303.397
303.339
303.296
349.628
350.302
351.157
352.082
353.028
353.949
354.792
355.5
356.012
356.282
356.282
356.012
355.5
354.792
353.949
353.028
352.082
351.157
350.302
349.628
343.025
343.595
344.333
345.133
345.952
346.749
347.478
348.09
348.533
348.766
348.766
348.533
348.09
347.478
346.749
345.952
345.133
344.333
343.595
343.025
336.417
336.89
337.511
338.188
338.88
339.553
340.17
340.686
341.06
341.257
341.257
341.06
340.686
340.17
339.553
338.88
338.188
337.511
336.89
336.417
329.805
330.186
330.693
331.246
331.811
332.362
332.866
333.287
333.593
333.754
333.754
333.593
333.287
332.866
332.362
331.811
331.246
330.693
330.186
329.805
323.191
323.483
323.876
324.306
324.746
325.174
325.565
325.893
326.13
326.255
326.255
326.13
325.893
325.565
325.174
324.746
324.306
323.876
323.483
323.191
316.574
316.781
317.062
317.369
317.683
317.988
318.268
318.502
318.671
318.76
318.76
318.671
318.502
318.268
317.988
317.683
317.369
317.062
316.781
316.574
309.956
310.08
310.248
310.432
310.621
310.804
310.972
311.113
311.214
311.268
311.268
311.214
311.113
310.972
310.804
310.621
310.432
310.248
310.08
309.956
303.338
303.379
303.435
303.497
303.56
303.622
303.678
303.725
303.759
303.777
303.777
303.759
303.725
303.678
303.622
303.56
303.497
303.435
303.379
303.338
350.407
351.055
351.876
352.761
353.662
354.536
355.334
356.002
356.484
356.738
356.738
356.484
356.002
355.334
354.536
353.662
352.761
351.876
351.055
350.407
343.698
344.247
344.955
345.721
346.501
347.257
347.948
348.525
348.942
349.162
349.162
348.942
348.525
347.948
347.257
346.501
345.721
344.955
344.247
343.698
336.986
337.441
338.038
338.685
339.344
339.984
340.567
341.055
341.407
341.592
341.592
341.407
341.055
340.567
339.984
339.344
338.685
338.038
337.441
336.986
330.27
330.637
331.123
331.652
332.191
332.714
333.191
333.589
333.877
334.028
334.028
333.877
333.589
333.191
332.714
332.191
331.652
331.123
330.637
330.27
323.552
323.834
324.211
324.622
325.041
325.448
325.818
326.128
326.351
326.469
326.469
326.351
326.128
325.818
325.448
325.041
324.622
324.211
323.834
323.552
316.832
317.031
317.3
317.594
317.893
318.184
318.448
318.669
318.829
318.913
318.913
318.829
318.669
318.448
318.184
317.893
317.594
317.3
317.031
316.832
310.111
310.23
310.391
310.568
310.748
310.922
311.081
311.213
311.309
311.359
311.359
311.309
311.213
311.081
310.922
310.748
310.568
310.391
310.23
310.111
303.39
303.429
303.483
303.542
303.603
303.661
303.714
303.759
303.791
303.808
303.808
303.791
303.759
303.714
303.661
303.603
303.542
303.483
303.429
303.39
351.348
351.968
352.75
353.59
354.442
355.264
356.013
356.636
357.086
357.322
357.322
357.086
356.636
356.013
355.264
354.442
353.59
352.75
351.968
351.348
344.512
345.037
345.712
346.439
347.176
347.888
348.536
349.075
349.464
349.668
349.668
349.464
349.075
348.536
347.888
347.176
346.439
345.712
345.037
344.512
337.673
338.109
338.677
339.292
339.915
340.517
341.065
341.52
341.849
342.021
342.021
341.849
341.52
341.065
340.517
339.915
339.292
338.677
338.109
337.673
330.832
331.183
331.646
332.148
332.658
333.15
333.598
333.97
334.239
334.379
334.379
334.239
333.97
333.598
333.15
332.658
332.148
331.646
331.183
330.832
323.989
324.258
324.617
325.008
325.404
325.787
326.135
326.424
326.633
326.742
326.742
326.633
326.424
326.135
325.787
325.404
325.008
324.617
324.258
323.989
317.144
317.335
317.591
317.87
318.153
318.426
318.675
318.881
319.03
319.108
319.108
319.03
318.881
318.675
318.426
318.153
317.87
317.591
317.335
317.144
310.298
310.412
310.566
310.733
310.903
311.067
311.217
311.341
311.43
311.477
311.477
311.43
311.341
311.217
311.067
310.903
310.733
310.566
310.412
310.298
303.452
303.49
303.542
303.598
303.655
303.71
303.76
303.801
303.831
303.847
303.847
303.831
303.801
303.76
303.71
303.655
303.598
303.542
303.49
303.452
352.456
353.045
353.785
354.577
355.375
356.144
356.84
357.417
357.833
358.05
358.05
357.833
357.417
356.84
356.144
355.375
354.577
353.785
353.045
352.456
345.471
345.969
346.608
347.293
347.985
348.65
349.252
349.752
350.111
350.3
350.3
350.111
349.752
349.252
348.65
347.985
347.293
346.608
345.969
345.471
338.483
338.897
339.435
340.014
340.599
341.161
341.67
342.093
342.396
342.555
342.555
342.396
342.093
341.67
341.161
340.599
340.014
339.435
338.897
338.483
331.494
331.827
332.265
332.739
333.217
333.677
334.093
334.439
334.687
334.817
334.817
334.687
334.439
334.093
333.677
333.217
332.739
332.265
331.827
331.494
324.503
324.758
325.099
325.467
325.839
326.197
326.52
326.789
326.981
327.082
327.082
326.981
326.789
326.52
326.197
325.839
325.467
325.099
324.758
324.503
317.511
317.692
317.935
318.198
318.463
318.719
318.95
319.142
319.279
319.351
319.351
319.279
319.142
318.95
318.719
318.463
318.198
317.935
317.692
317.511
310.519
310.627
310.772
310.93
311.09
311.243
311.382
311.497
311.58
311.623
311.623
311.58
311.497
311.382
311.243
311.09
310.93
310.772
310.627
310.519
303.526
303.562
303.611
303.664
303.717
303.769
303.815
303.854
303.881
303.896
303.896
303.881
303.854
303.815
303.769
303.717
303.664
303.611
303.562
303.526
353.733
354.29
354.986
355.727
356.472
357.184
357.826
358.357
358.738
358.937
358.937
358.738
358.357
357.826
357.184
356.472
355.727
354.986
354.29
353.733
346.576
347.047
347.647
348.289
348.934
349.551
350.107
350.566
350.896
351.068
351.068
350.896
350.566
350.107
349.551
348.934
348.289
347.647
347.047
346.576
339.417
339.807
340.314
340.856
341.401
341.923
342.393
342.782
343.06
343.206
343.206
343.06
342.782
342.393
341.923
341.401
340.856
340.314
339.807
339.417
332.257
332.571
332.984
333.427
333.873
334.3
334.684
335.002
335.23
335.349
335.349
335.23
335.002
334.684
334.3
333.873
333.427
332.984
332.571
332.257
325.096
325.337
325.657
326.002
326.349
326.681
326.98
327.227
327.404
327.496
327.496
327.404
327.227
326.98
326.681
326.349
326.002
325.657
325.337
325.096
317.935
318.105
318.334
318.58
318.828
319.065
319.278
319.455
319.581
319.647
319.647
319.581
319.455
319.278
319.065
318.828
318.58
318.334
318.105
317.935
310.773
310.875
311.012
311.16
311.309
311.451
311.579
311.685
311.761
311.801
311.801
311.761
311.685
311.579
311.451
311.309
311.16
311.012
310.875
310.773
303.611
303.645
303.691
303.741
303.791
303.838
303.881
303.917
303.942
303.956
303.956
303.942
303.917
303.881
303.838
303.791
303.741
303.691
303.645
303.611
355.184
355.707
356.358
357.048
357.738
358.394
358.983
359.468
359.815
359.995
359.995
359.815
359.468
358.983
358.394
357.738
357.048
356.358
355.707
355.184
347.831
348.273
348.835
349.433
350.03
350.598
351.108
351.528
351.828
351.985
351.985
351.828
351.528
351.108
350.598
350.03
349.433
348.835
348.273
347.831
340.477
340.844
341.318
341.823
342.328
342.809
343.24
343.595
343.849
343.981
343.981
343.849
343.595
343.24
342.809
342.328
341.823
341.318
340.844
340.477
333.123
333.418
333.805
334.218
334.631
335.024
335.377
335.667
335.875
335.983
335.983
335.875
335.667
335.377
335.024
334.631
334.218
333.805
333.418
333.123
325.769
325.996
326.296
326.617
326.938
327.244
327.518
327.744
327.905
327.989
327.989
327.905
327.744
327.518
327.244
326.938
326.617
326.296
325.996
325.769
318.415
318.576
318.79
319.019
319.249
319.467
319.663
319.824
319.94
320
320
319.94
319.824
319.663
319.467
319.249
319.019
318.79
318.576
318.415
311.062
311.157
311.286
311.423
311.561
311.693
311.81
311.907
311.976
312.012
312.012
311.976
311.907
311.81
311.693
311.561
311.423
311.286
311.157
311.062
303.708
303.74
303.783
303.829
303.875
303.919
303.959
303.991
304.014
304.026
304.026
304.014
303.991
303.959
303.919
303.875
303.829
303.783
303.74
303.708
356.811
357.3
357.907
358.546
359.181
359.782
360.319
360.76
361.073
361.237
361.237
361.073
360.76
360.319
359.782
359.181
358.546
357.907
357.3
356.811
349.238
349.652
350.175
350.729
351.279
351.8
352.265
352.647
352.919
353.06
353.06
352.919
352.647
352.265
351.8
351.279
350.729
350.175
349.652
349.238
341.666
342.009
342.451
342.918
343.384
343.825
344.218
344.541
344.771
344.89
344.89
344.771
344.541
344.218
343.825
343.384
342.918
342.451
342.009
341.666
334.095
334.371
334.731
335.114
335.494
335.855
336.177
336.441
336.629
336.727
336.727
336.629
336.441
336.177
335.855
335.494
335.114
334.731
334.371
334.095
326.525
326.737
327.016
327.313
327.609
327.89
328.14
328.346
328.492
328.568
328.568
328.492
328.346
328.14
327.89
327.609
327.313
327.016
326.737
326.525
318.955
319.105
319.304
319.516
319.728
319.929
320.107
320.254
320.358
320.413
320.413
320.358
320.254
320.107
319.929
319.728
319.516
319.304
319.105
318.955
311.386
311.475
311.594
311.722
311.849
311.97
312.077
312.165
312.228
312.26
312.26
312.228
312.165
312.077
311.97
311.849
311.722
311.594
311.475
311.386
303.817
303.846
303.886
303.929
303.972
304.012
304.048
304.078
304.099
304.11
304.11
304.099
304.078
304.048
304.012
303.972
303.929
303.886
303.846
303.817
358.617
359.073
359.635
360.224
360.806
361.355
361.843
362.241
362.524
362.67
362.67
362.524
362.241
361.843
361.355
360.806
360.224
359.635
359.073
358.617
350.801
351.186
351.671
352.182
352.686
353.162
353.584
353.929
354.174
354.302
354.302
354.174
353.929
353.584
353.162
352.686
352.182
351.671
351.186
350.801
342.987
343.306
343.715
344.147
344.574
344.976
345.333
345.625
345.832
345.94
345.94
345.832
345.625
345.333
344.976
344.574
344.147
343.715
343.306
342.987
335.174
335.431
335.765
336.118
336.467
336.796
337.089
337.327
337.497
337.585
337.585
337.497
337.327
337.089
336.796
336.467
336.118
335.765
335.431
335.174
327.363
327.561
327.819
328.094
328.366
328.622
328.849
329.035
329.167
329.235
329.235
329.167
329.035
328.849
328.622
328.366
328.094
327.819
327.561
327.363
319.554
319.693
319.878
320.074
320.268
320.451
320.614
320.746
320.84
320.889
320.889
320.84
320.746
320.614
320.451
320.268
320.074
319.878
319.693
319.554
311.745
311.828
311.939
312.057
312.173
312.283
312.381
312.461
312.517
312.547
312.547
312.517
312.461
312.381
312.283
312.173
312.057
311.939
311.828
311.745
303.937
303.965
304.002
304.041
304.081
304.117
304.15
304.177
304.196
304.206
304.206
304.196
304.177
304.15
304.117
304.081
304.041
304.002
303.965
303.937
360.605
361.027
361.547
362.088
362.62
363.118
363.559
363.918
364.172
364.303
364.303
364.172
363.918
363.559
363.118
362.62
362.088
361.547
361.027
360.605
352.521
352.878
353.326
353.795
354.256
354.688
355.07
355.381
355.601
355.715
355.715
355.601
355.381
355.07
354.688
354.256
353.795
353.326
352.878
352.521
344.44
344.736
345.114
345.51
345.901
346.266
346.59
346.853
347.039
347.135
347.135
347.039
346.853
346.59
346.266
345.901
345.51
345.114
344.736
344.44
336.362
336.6
336.908
337.233
337.552
337.851
338.116
338.331
338.483
338.562
338.562
338.483
338.331
338.116
337.851
337.552
337.233
336.908
336.6
336.362
328.286
328.469
328.708
328.961
329.209
329.442
329.648
329.815
329.933
329.995
329.995
329.933
329.815
329.648
329.442
329.209
328.961
328.708
328.469
328.286
320.213
320.342
320.513
320.693
320.87
321.037
321.184
321.303
321.388
321.432
321.432
321.388
321.303
321.184
321.037
320.87
320.693
320.513
320.342
320.213
312.141
312.218
312.32
312.428
312.535
312.635
312.723
312.795
312.846
312.872
312.872
312.846
312.795
312.723
312.635
312.535
312.428
312.32
312.218
312.141
304.07
304.095
304.13
304.166
304.202
304.235
304.265
304.289
304.306
304.315
304.315
304.306
304.289
304.265
304.235
304.202
304.166
304.13
304.095
304.07
362.775
363.166
363.644
364.139
364.624
365.075
365.473
365.795
366.022
366.139
366.139
366.022
365.795
365.473
365.075
364.624
364.139
363.644
363.166
362.775
354.398
354.729
355.141
355.57
355.99
356.382
356.726
357.005
357.202
357.304
357.304
357.202
357.005
356.726
356.382
355.99
355.57
355.141
354.729
354.398
346.026
346.3
346.648
347.011
347.366
347.698
347.989
348.225
348.392
348.478
348.478
348.392
348.225
347.989
347.698
347.366
347.011
346.648
346.3
346.026
337.658
337.879
338.162
338.459
338.75
339.021
339.26
339.453
339.589
339.66
339.66
339.589
339.453
339.26
339.021
338.75
338.459
338.162
337.879
337.658
329.294
329.463
329.683
329.914
330.14
330.351
330.537
330.687
330.793
330.848
330.848
330.793
330.687
330.537
330.351
330.14
329.914
329.683
329.463
329.294
320.932
321.052
321.209
321.374
321.535
321.686
321.819
321.926
322.002
322.042
322.042
322.002
321.926
321.819
321.686
321.535
321.374
321.209
321.052
320.932
312.573
312.644
312.738
312.837
312.934
313.025
313.105
313.169
313.215
313.238
313.238
313.215
313.169
313.105
313.025
312.934
312.837
312.738
312.644
312.573
304.214
304.238
304.27
304.303
304.336
304.366
304.393
304.414
304.43
304.437
304.437
304.43
304.414
304.393
304.366
304.336
304.303
304.27
304.238
304.214
365.125
365.485
365.924
366.377
366.817
367.225
367.582
367.871
368.074
368.179
368.179
368.074
367.871
367.582
367.225
366.817
366.377
365.924
365.485
365.125
356.431
356.735
357.114
357.506
357.888
358.242
358.552
358.802
358.978
359.068
359.068
358.978
358.802
358.552
358.242
357.888
357.506
357.114
356.735
356.431
347.743
347.996
348.315
348.646
348.969
349.269
349.531
349.743
349.892
349.969
349.969
349.892
349.743
349.531
349.269
348.969
348.646
348.315
347.996
347.743
339.061
339.264
339.524
339.796
340.06
340.305
340.52
340.693
340.815
340.878
340.878
340.815
340.693
340.52
340.305
340.06
339.796
339.524
339.264
339.061
330.384
330.54
330.742
330.953
331.158
331.349
331.516
331.651
331.746
331.795
331.795
331.746
331.651
331.516
331.349
331.158
330.953
330.742
330.54
330.384
321.71
321.821
321.965
322.115
322.262
322.399
322.518
322.615
322.682
322.717
322.717
322.682
322.615
322.518
322.399
322.262
322.115
321.965
321.821
321.71
313.04
313.106
313.192
313.283
313.371
313.453
313.525
313.582
313.623
313.644
313.644
313.623
313.582
313.525
313.453
313.371
313.283
313.192
313.106
313.04
304.371
304.393
304.422
304.452
304.482
304.509
304.533
304.553
304.566
304.573
304.573
304.566
304.553
304.533
304.509
304.482
304.452
304.422
304.393
304.371
367.646
367.977
368.379
368.792
369.191
369.559
369.881
370.139
370.32
370.413
370.413
370.32
370.139
369.881
369.559
369.191
368.792
368.379
367.977
367.646
358.609
358.89
359.237
359.594
359.94
360.26
360.538
360.762
360.919
361
361
360.919
360.762
360.538
360.26
359.94
359.594
359.237
358.89
358.609
349.582
349.814
350.107
350.409
350.702
350.973
351.209
351.398
351.531
351.6
351.6
351.531
351.398
351.209
350.973
350.702
350.409
350.107
349.814
349.582
340.563
340.75
340.988
341.236
341.475
341.697
341.89
342.045
342.154
342.21
342.21
342.154
342.045
341.89
341.697
341.475
341.236
340.988
340.75
340.563
331.55
331.694
331.879
332.071
332.258
332.43
332.58
332.701
332.786
332.829
332.829
332.786
332.701
332.58
332.43
332.258
332.071
331.879
331.694
331.55
322.543
322.644
322.776
322.914
323.047
323.17
323.278
323.364
323.425
323.456
323.456
323.425
323.364
323.278
323.17
323.047
322.914
322.776
322.644
322.543
313.539
313.6
313.679
313.762
313.842
313.916
313.98
314.032
314.069
314.087
314.087
314.069
314.032
313.98
313.916
313.842
313.762
313.679
313.6
313.539
304.538
304.559
304.585
304.613
304.64
304.664
304.686
304.703
304.716
304.722
304.722
304.716
304.703
304.686
304.664
304.64
304.613
304.585
304.559
304.538
370.311
370.616
370.984
371.36
371.722
372.054
372.342
372.573
372.735
372.818
372.818
372.735
372.573
372.342
372.054
371.722
371.36
370.984
370.616
370.311
360.909
361.167
361.484
361.81
362.124
362.412
362.662
362.863
363.003
363.075
363.075
363.003
362.863
362.662
362.412
362.124
361.81
361.484
361.167
360.909
351.52
351.733
352.001
352.277
352.543
352.787
352.999
353.168
353.287
353.348
353.348
353.287
353.168
352.999
352.787
352.543
352.277
352.001
351.733
351.52
342.143
342.315
342.533
342.759
342.976
343.176
343.35
343.489
343.586
343.636
343.636
343.586
343.489
343.35
343.176
342.976
342.759
342.533
342.315
342.143
332.776
332.908
333.077
333.253
333.422
333.578
333.713
333.821
333.896
333.935
333.935
333.896
333.821
333.713
333.578
333.422
333.253
333.077
332.908
332.776
323.417
323.51
323.631
323.756
323.877
323.989
324.085
324.162
324.217
324.244
324.244
324.217
324.162
324.085
323.989
323.877
323.756
323.631
323.51
323.417
314.063
314.119
314.192
314.267
314.34
314.407
314.465
314.511
314.544
314.56
314.56
314.544
314.511
314.465
314.407
314.34
314.267
314.192
314.119
314.063
304.714
304.732
304.757
304.782
304.806
304.829
304.848
304.864
304.875
304.88
304.88
304.875
304.864
304.848
304.829
304.806
304.782
304.757
304.732
304.714
373.052
373.333
373.67
374.013
374.342
374.642
374.902
375.109
375.254
375.328
375.328
375.254
375.109
374.902
374.642
374.342
374.013
373.67
373.333
373.052
363.263
363.5
363.791
364.089
364.374
364.635
364.86
365.04
365.166
365.23
365.23
365.166
365.04
364.86
364.635
364.374
364.089
363.791
363.5
363.263
353.495
353.692
353.938
354.19
354.431
354.652
354.843
354.996
355.102
355.157
355.157
355.102
354.996
354.843
354.652
354.431
354.19
353.938
353.692
353.495
343.748
343.906
344.107
344.313
344.511
344.692
344.848
344.973
345.06
345.105
345.105
345.06
344.973
344.848
344.692
344.511
344.313
344.107
343.906
343.748
334.017
334.139
334.294
334.455
334.609
334.75
334.872
334.969
335.037
335.072
335.072
335.037
334.969
334.872
334.75
334.609
334.455
334.294
334.139
334.017
324.3
324.386
324.497
324.611
324.722
324.822
324.91
324.979
325.028
325.053
325.053
325.028
324.979
324.91
324.822
324.722
324.611
324.497
324.386
324.3
314.592
314.644
314.71
314.779
314.845
314.906
314.958
315
315.029
315.044
315.044
315.029
315
314.958
314.906
314.845
314.779
314.71
314.644
314.592
304.891
304.908
304.93
304.953
304.976
304.996
305.013
305.027
305.037
305.042
305.042
305.037
305.027
305.013
304.996
304.976
304.953
304.93
304.908
304.891
375.694
375.953
376.264
376.579
376.879
377.153
377.389
377.577
377.707
377.774
377.774
377.707
377.577
377.389
377.153
376.879
376.579
376.264
375.953
375.694
365.503
365.723
365.992
366.265
366.527
366.765
366.97
367.133
367.246
367.305
367.305
367.246
367.133
366.97
366.765
366.527
366.265
365.992
365.723
365.503
355.356
355.538
355.765
355.997
356.218
356.42
356.594
356.733
356.829
356.879
356.879
356.829
356.733
356.594
356.42
356.218
355.997
355.765
355.538
355.356
345.245
345.392
345.577
345.767
345.949
346.115
346.257
346.371
346.45
346.491
346.491
346.45
346.371
346.257
346.115
345.949
345.767
345.577
345.392
345.245
335.167
335.279
335.423
335.571
335.713
335.842
335.953
336.042
336.103
336.135
336.135
336.103
336.042
335.953
335.842
335.713
335.571
335.423
335.279
335.167
325.113
325.193
325.295
325.401
325.503
325.595
325.675
325.738
325.782
325.805
325.805
325.782
325.738
325.675
325.595
325.503
325.401
325.295
325.193
325.113
315.077
315.125
315.187
315.25
315.311
315.367
315.415
315.453
315.479
315.493
315.493
315.479
315.453
315.415
315.367
315.311
315.25
315.187
315.125
315.077
305.053
305.069
305.089
305.111
305.131
305.15
305.166
305.179
305.188
305.192
305.192
305.188
305.179
305.166
305.15
305.131
305.111
305.089
305.069
305.053
377.769
378.013
378.305
378.601
378.882
379.137
379.357
379.531
379.652
379.714
379.714
379.652
379.531
379.357
379.137
378.882
378.601
378.305
378.013
377.769
367.197
367.404
367.658
367.915
368.16
368.383
368.575
368.727
368.832
368.886
368.886
368.832
368.727
368.575
368.383
368.16
367.915
367.658
367.404
367.197
356.718
356.891
357.105
357.324
357.532
357.722
357.885
358.014
358.104
358.15
358.15
358.104
358.014
357.885
357.722
357.532
357.324
357.105
356.891
356.718
346.315
346.454
346.63
346.809
346.981
347.137
347.27
347.377
347.451
347.489
347.489
347.451
347.377
347.27
347.137
346.981
346.809
346.63
346.454
346.315
335.972
336.079
336.216
336.356
336.49
336.611
336.716
336.799
336.857
336.886
336.886
336.857
336.799
336.716
336.611
336.49
336.356
336.216
336.079
335.972
325.675
325.751
325.848
325.949
326.044
326.132
326.206
326.266
326.307
326.329
326.329
326.307
326.266
326.206
326.132
326.044
325.949
325.848
325.751
325.675
315.41
315.455
315.514
315.574
315.632
315.684
315.729
315.765
315.79
315.802
315.802
315.79
315.765
315.729
315.684
315.632
315.574
315.514
315.455
315.41
305.163
305.179
305.198
305.218
305.238
305.255
305.27
305.282
305.291
305.295
305.295
305.291
305.282
305.27
305.255
305.238
305.218
305.198
305.179
305.163
)
;

boundaryField
{
    hotSide
    {
        type            fixedGradient;
        gradient        nonuniform List<scalar> 
400
(
511.084
512.749
516.087
521.112
527.847
536.319
546.558
558.599
572.476
588.224
605.877
625.468
647.026
670.576
696.141
723.743
753.396
785.115
818.91
854.789
520.677
522.266
525.455
530.263
536.72
544.862
554.728
566.365
579.815
595.124
612.335
631.486
652.612
675.746
700.914
728.138
757.435
788.822
822.307
857.9
531.059
532.557
535.568
540.118
546.247
554
563.431
574.597
587.556
602.363
619.07
637.726
658.373
681.047
705.778
732.591
761.506
792.537
825.695
860.987
542.057
543.45
546.254
550.506
556.255
563.562
572.497
583.131
595.537
609.784
625.936
644.05
664.176
686.354
710.62
736.999
765.513
796.174
828.994
863.978
553.365
554.639
557.212
561.129
566.455
573.268
581.656
591.709
603.516
617.161
632.721
650.263
669.842
691.507
715.294
741.231
769.338
799.629
832.112
866.792
564.511
565.658
567.982
571.543
576.421
582.713
590.529
599.977
611.166
624.195
639.153
656.118
675.154
696.31
719.627
745.132
772.847
802.783
834.946
869.337
574.856
575.876
577.954
581.16
585.594
591.374
598.629
607.49
618.082
630.521
644.909
661.33
679.856
700.541
723.425
748.536
775.895
805.51
837.385
871.52
583.637
584.542
586.397
589.285
593.323
598.646
605.405
613.748
623.818
635.744
649.639
665.595
683.687
703.972
726.492
751.275
778.337
807.687
839.327
873.251
590.062
590.88
592.565
595.21
598.945
603.923
610.306
618.261
627.94
639.485
653.015
668.628
686.402
706.396
728.652
753.197
780.047
809.207
840.678
874.454
593.467
594.237
595.829
598.342
601.913
606.703
612.884
620.629
630.1
641.44
654.775
670.206
687.812
707.652
729.769
754.189
780.927
809.989
841.372
875.071
593.467
594.237
595.829
598.342
601.913
606.703
612.884
620.629
630.1
641.44
654.775
670.206
687.812
707.652
729.769
754.189
780.927
809.989
841.372
875.071
590.062
590.88
592.565
595.21
598.945
603.923
610.306
618.261
627.94
639.485
653.015
668.628
686.402
706.396
728.652
753.197
780.047
809.207
840.678
874.454
583.637
584.542
586.397
589.285
593.323
598.646
605.405
613.748
623.818
635.744
649.639
665.595
683.687
703.972
726.492
751.275
778.337
807.687
839.327
873.251
574.856
575.876
577.954
581.16
585.594
591.374
598.629
607.49
618.082
630.521
644.909
661.33
679.856
700.541
723.425
748.536
775.895
805.51
837.385
871.52
564.511
565.658
567.982
571.543
576.421
582.713
590.529
599.977
611.166
624.195
639.153
656.118
675.154
696.31
719.627
745.132
772.847
802.783
834.946
869.337
553.365
554.639
557.212
561.129
566.455
573.268
581.656
591.709
603.516
617.161
632.721
650.263
669.842
691.507
715.294
741.231
769.338
799.629
832.112
866.792
542.057
543.45
546.254
550.506
556.255
563.562
572.497
583.131
595.537
609.784
625.936
644.05
664.176
686.354
710.62
736.999
765.513
796.174
828.994
863.978
531.059
532.557
535.568
540.118
546.247
554
563.431
574.597
587.556
602.363
619.07
637.726
658.373
681.047
705.778
732.591
761.506
792.537
825.695
860.987
520.677
522.266
525.455
530.263
536.72
544.862
554.728
566.365
579.815
595.124
612.335
631.486
652.612
675.746
700.914
728.138
757.435
788.822
822.307
857.9
511.084
512.749
516.087
521.112
527.847
536.319
546.558
558.599
572.476
588.224
605.877
625.468
647.026
670.576
696.141
723.743
753.396
785.115
818.91
854.789
)
;
    }
    coldSide
    {
        type            mixed;
        refValue        uniform 300;
        refGradient     uniform 0;
        valueFraction   uniform 0.991591;
        source          uniform 0;
        value           nonuniform List<scalar> 
400
(
300.027
300.027
300.027
300.028
300.028
300.029
300.029
300.03
300.03
300.031
300.032
300.033
300.034
300.035
300.037
300.038
300.04
300.041
300.042
300.043
300.028
300.028
300.028
300.028
300.028
300.029
300.029
300.03
300.031
300.031
300.032
300.033
300.034
300.036
300.037
300.038
300.04
300.041
300.043
300.044