/*--------------------------------*- C++ -*----------------------------------*\
| =========                 |                                                 |
| \\      /  F ield         | OpenFOAM: The Open Source CFD Toolbox           |
|  \\    /   O peration     | Version:  2212                                  |
|   \\  /    A nd           | Website:  www.openfoam.com                      |
|    \\/     M anipulation  |                                                 |
\*---------------------------------------------------------------------------*/
FoamFile
{
    version     2.0;
    format      ascii;
    arch        "LSB;label=32;scalar=64";
    class       volScalarField;
    location    "0";
    object      Tdirect;
}
// * * * * * * * * * * * * * * * * * * * * * * * * * * * * * * * * * * * * * //

dimensions      [0 0 0 1 0 0 0];

internalField   nonuniform List<scalar> 
3200
(
342.756
343.73
344.975
346.33
347.726
349.097
350.362
351.43
352.208
352.619
352.619
352.208
351.43
350.362
349.097
347.726
346.33
344.975
343.73
342.756
337.088
337.913
338.986
340.159
341.367
342.553
343.646
344.569
345.241
345.596
345.596
345.241
344.569
343.646
342.553
341.367
340.159
338.986
337.913
337.088
331.408
332.092
332.996
333.987
335.008
336.009
336.933
337.711
338.278
338.577
338.577
338.278
337.711
336.933
336.009
335.008
333.987
332.996
332.092
331.408
325.716
326.267
327.004
327.813
328.648
329.466
330.221
330.857
331.319
331.563
331.563
331.319
330.857
330.221
329.466
328.648
327.813
327.004
326.267
325.716
320.016
320.439
321.01
321.639
322.288
322.924
323.51
324.004
324.363
324.552
324.552
324.363
324.004
323.51
322.924
322.288
321.639
321.01
320.439
320.016
314.309
314.608
315.015
315.465
315.928
316.382
316.8
317.153
317.409
317.544
317.544
317.409
317.153
316.8
316.382
315.928
315.465
315.015
314.608
314.309
308.597
308.775
309.02
309.289
309.568
309.84
310.091
310.303
310.457
310.538
310.538
310.457
310.303
310.091
309.84
309.568
309.289
309.02
308.775
308.597
302.882
302.942
303.024
303.114
303.207
303.299
303.383
303.454
303.505
303.532
303.532
303.505
303.454
303.383
303.299
303.207
303.114
303.024
302.942
302.882
342.858
343.824
345.058
346.401
347.783
349.138
350.388
351.443
352.211
352.616
352.616
352.211
351.443
350.388
349.138
347.783
346.401
345.058
343.824
342.858
337.176
337.994
339.058
340.22
341.416
342.589
343.669
344.581
345.244
345.594
345.594
345.244
344.581
343.669
342.589
341.416
340.22
339.058
337.994
337.176
331.482
332.16
333.056
334.038
335.049
336.04
336.952
337.721
338.281
338.576
338.576
338.281
337.721
336.952
336.04
335.049
334.038
333.056
332.16
331.482
325.776
326.323
327.053
327.856
328.682
329.491
330.237
330.865
331.322
331.563
331.563
331.322
330.865
330.237
329.491
328.682
327.856
327.053
326.323
325.776
320.063
320.482
321.049
321.672
322.314
322.943
323.523
324.01
324.365
324.552
324.552
324.365
324.01
323.523
322.943
322.314
321.672
321.049
320.482
320.063
314.342
314.639
315.043
315.488
315.947
316.396
316.809
317.157
317.41
317.544
317.544
317.41
317.157
316.809
316.396
315.947
315.488
315.043
314.639
314.342
308.617
308.794
309.036
309.303
309.579
309.849
310.097
310.306
310.457
310.538
310.538
310.457
310.306
310.097
309.849
309.579
309.303
309.036
308.794
308.617
302.889
302.948
303.029
303.119
303.211
303.301
303.384
303.454
303.505
303.532
303.532
303.505
303.454
303.384
303.301
303.211
303.119
303.029
302.948
302.889
343.062
344.013
345.225
346.543
347.898
349.224
350.445
351.474
352.222
352.617
352.617
352.222
351.474
350.445
349.224
347.898
346.543
345.225
344.013
343.062
337.352
338.158
339.203
340.344
341.516
342.663
343.719
344.608
345.254
345.595
345.595
345.254
344.608
343.719
342.663
341.516
340.344
339.203
338.158
337.352
331.63
332.298
333.179
334.143
335.134
336.103
336.995
337.745
338.29
338.578
338.578
338.29
337.745
336.995
336.103
335.134
334.143
333.179
332.298
331.63
325.898
326.436
327.154
327.941
328.751
329.543
330.272
330.884
331.33
331.564
331.564
331.33
330.884
330.272
329.543
328.751
327.941
327.154
326.436
325.898
320.157
320.57
321.127
321.739
322.368
322.984
323.55
324.026
324.371
324.554
324.554
324.371
324.026
323.55
322.984
322.368
321.739
321.127
320.57
320.157
314.409
314.702
315.099
315.536
315.985
316.425
316.829
317.169
317.415
317.545
317.545
317.415
317.169
316.829
316.425
315.985
315.536
315.099
314.702
314.409
308.657
308.832
309.07
309.332
309.602
309.866
310.108
310.312
310.46
310.538
310.538
310.46
310.312
310.108
309.866
309.602
309.332
309.07
308.832
308.657
302.902
302.961
303.04
303.128
303.219
303.307
303.388
303.457
303.506
303.532
303.532
303.506
303.457
303.388
303.307
303.219
303.128
303.04
302.961
302.902
343.37
344.299
345.481
346.763
348.078
349.361
350.541
351.533
352.253
352.633
352.633
352.253
351.533
350.541
349.361
348.078
346.763
345.481
344.299
343.37
337.619
338.405
339.425
340.534
341.672
342.782
343.803
344.66
345.282
345.61
345.61
345.282
344.66
343.803
342.782
341.672
340.534
339.425
338.405
337.619
331.855
332.508
333.367
334.304
335.265
336.204
337.066
337.789
338.315
338.591
338.591
338.315
337.789
337.066
336.204
335.265
334.304
333.367
332.508
331.855
326.081
326.607
327.307
328.073
328.859
329.626
330.33
330.921
331.35
331.576
331.576
331.35
330.921
330.33
329.626
328.859
328.073
327.307
326.607
326.081
320.299
320.703
321.246
321.841
322.452
323.048
323.595
324.054
324.387
324.563
324.563
324.387
324.054
323.595
323.048
322.452
321.841
321.246
320.703
320.299
314.511
314.796
315.184
315.609
316.045
316.471
316.861
317.189
317.427
317.552
317.552
317.427
317.189
316.861
316.471
316.045
315.609
315.184
314.796
314.511
308.718
308.889
309.121
309.376
309.638
309.894
310.128
310.325
310.467
310.542
310.542
310.467
310.325
310.128
309.894
309.638
309.376
309.121
308.889
308.718
302.923
302.98
303.057
303.143
303.231
303.316
303.395
303.461
303.509
303.534
303.534
303.509
303.461
303.395
303.316
303.231
303.143
303.057
302.98
302.923
343.786
344.687
345.83
347.066
348.33
349.56
350.687
351.633
352.318
352.679
352.679
352.318
351.633
350.687
349.56
348.33
347.066
345.83
344.687
343.786
337.978
338.741
339.727
340.796
341.89
342.955
343.93
344.747
345.339
345.651
345.651
345.339
344.747
343.93
342.955
341.89
340.796
339.727
338.741
337.978
332.159
332.791
333.622
334.526
335.45
336.35
337.174
337.864
338.364
338.627
338.627
338.364
337.864
337.174
336.35
335.45
334.526
333.622
332.791
332.159
326.329
326.838
327.515
328.254
329.01
329.746
330.419
330.983
331.391
331.606
331.606
331.391
330.983
330.419
329.746
329.01
328.254
327.515
326.838
326.329
320.492
320.883
321.408
321.982
322.57
323.142
323.665
324.103
324.42
324.586
324.586
324.42
324.103
323.665
323.142
322.57
321.982
321.408
320.883
320.492
314.648
314.925
315.299
315.71
316.129
316.538
316.911
317.224
317.45
317.569
317.569
317.45
317.224
316.911
316.538
316.129
315.71
315.299
314.925
314.648
308.801
308.966
309.19
309.437
309.689
309.934
310.158
310.346
310.481
310.553
310.553
310.481
310.346
310.158
309.934
309.689
309.437
309.19
308.966
308.801
302.95
303.006
303.081
303.163
303.248
303.33
303.405
303.468
303.513
303.537
303.537
303.513
303.468
303.405
303.33
303.248
303.163
303.081
303.006
302.95
344.313
345.18
346.277
347.459
348.663
349.831
350.898
351.79
352.435
352.774
352.774
352.435
351.79
350.898
349.831
348.663
347.459
346.277
345.18
344.313
338.434
339.167
340.114
341.137
342.179
343.19
344.113
344.884
345.442
345.735
345.735
345.442
344.884
344.113
343.19
342.179
341.137
340.114
339.167
338.434
332.543
333.152
333.949
334.814
335.695
336.55
337.329
337.981
338.451
338.699
338.699
338.451
337.981
337.329
336.55
335.695
334.814
333.949
333.152
332.543
326.643
327.133
327.783
328.49
329.21
329.909
330.546
331.078
331.463
331.665
331.665
331.463
331.078
330.546
329.909
329.21
328.49
327.783
327.133
326.643
320.736
321.112
321.616
322.165
322.725
323.269
323.764
324.177
324.476
324.633
324.633
324.476
324.177
323.764
323.269
322.725
322.165
321.616
321.112
320.736
314.822
315.089
315.448
315.84
316.24
316.628
316.982
317.277
317.49
317.602
317.602
317.49
317.277
316.982
316.628
316.24
315.84
315.448
315.089
314.822
308.905
309.064
309.279
309.515
309.755
309.988
310.201
310.378
310.506
310.573
310.573
310.506
310.378
310.201
309.988
309.755
309.515
309.279
309.064
308.905
302.985
303.038
303.111
303.19
303.27
303.348
303.419
303.479
303.522
303.544
303.544
303.522
303.479
303.419
303.348
303.27
303.19
303.111
303.038
302.985
344.955
345.784
346.829
347.951
349.089
350.189
351.189
352.022
352.623
352.939
352.939
352.623
352.022
351.189
350.189
349.089
347.951
346.829
345.784
344.955
338.989
339.69
340.592
341.563
342.548
343.5
344.365
345.086
345.606
345.879
345.879
345.606
345.086
344.365
343.5
342.548
341.563
340.592
339.69
338.989
333.011
333.593
334.353
335.174
336.007
336.812
337.543
338.152
338.591
338.821
338.821
338.591
338.152
337.543
336.812
336.007
335.174
334.353
333.593
333.011
327.025
327.494
328.113
328.784
329.466
330.124
330.721
331.219
331.578
331.766
331.766
331.578
331.219
330.721
330.124
329.466
328.784
328.113
327.494
327.025
321.033
321.392
321.873
322.394
322.924
323.436
323.9
324.287
324.566
324.712
324.712
324.566
324.287
323.9
323.436
322.924
322.394
321.873
321.392
321.033
315.034
315.289
315.631
316.004
316.382
316.748
317.08
317.356
317.555
317.659
317.659
317.555
317.356
317.08
316.748
316.382
316.004
315.631
315.289
315.034
309.032
309.184
309.39
309.613
309.841
310.06
310.259
310.425
310.544
310.607
310.607
310.544
310.425
310.259
310.06
309.841
309.613
309.39
309.184
309.032
303.028
303.079
303.148
303.223
303.299
303.372
303.439
303.495
303.535
303.556
303.556
303.535
303.495
303.439
303.372
303.299
303.223
303.148
303.079
303.028
345.717
346.504
347.493
348.551
349.618
350.645
351.575
352.347
352.902
353.193
353.193
352.902
352.347
351.575
350.645
349.618
348.551
347.493
346.504
345.717
339.647
340.313
341.166
342.082
343.006
343.895
344.7
345.368
345.848
346.1
346.1
345.848
345.368
344.7
343.895
343.006
342.082
341.166
340.313
339.647
333.567
334.12
334.839
335.613
336.395
337.146
337.827
338.391
338.797
339.009
339.009
338.797
338.391
337.827
337.146
336.395
335.613
334.839
334.12
333.567
327.479
327.924
328.51
329.143
329.783
330.397
330.953
331.415
331.746
331.92
331.92
331.746
331.415
330.953
330.397
329.783
329.143
328.51
327.924
327.479
321.385
321.727
322.182
322.673
323.171
323.648
324.081
324.439
324.697
324.832
324.832
324.697
324.439
324.081
323.648
323.171
322.673
322.182
321.727
321.385
315.286
315.528
315.852
316.203
316.558
316.9
317.209
317.465
317.649
317.745
317.745
317.649
317.465
317.209
316.9
316.558
316.203
315.852
315.528
315.286
309.183
309.328
309.522
309.733
309.946
310.151
310.337
310.49
310.601
310.659
310.659
310.601
310.49
310.337
310.151
309.946
309.733
309.522
309.328
309.183
303.079
303.127
303.192
303.263
303.334
303.403
303.465
303.517
303.554
303.573
303.573
303.554
303.517
303.465
303.403
303.334
303.263
303.192
303.127
303.079
346.602
347.346
348.277
349.267
350.262
351.214
352.072
352.781
353.29
353.556
353.556
353.29
352.781
352.072
351.214
350.262
349.267
348.277
347.346
346.602
340.412
341.042
341.845
342.702
343.563
344.388
345.131
345.745
346.186
346.416
346.416
346.186
345.745
345.131
344.388
343.563
342.702
341.845
341.042
340.412
334.213
334.735
335.412
336.137
336.865
337.563
338.191
338.71
339.082
339.277
339.277
339.082
338.71
338.191
337.563
336.865
336.137
335.412
334.735
334.213
328.007
328.427
328.979
329.572
330.168
330.738
331.252
331.676
331.98
332.139
332.139
331.98
331.676
331.252
330.738
330.168
329.572
328.979
328.427
328.007
321.795
322.118
322.546
323.006
323.47
323.913
324.313
324.643
324.879
325.003
325.003
324.879
324.643
324.313
323.913
323.47
323.006
322.546
322.118
321.795
315.579
315.807
316.112
316.441
316.772
317.089
317.374
317.61
317.779
317.867
317.867
317.779
317.61
317.374
317.089
316.772
316.441
316.112
315.807
315.579
309.359
309.495
309.678
309.876
310.075
310.265
310.436
310.578
310.679
310.732
310.732
310.679
310.578
310.436
310.265
310.075
309.876
309.678
309.495
309.359
303.137
303.183
303.244
303.311
303.377
303.441
303.498
303.546
303.58
303.598
303.598
303.58
303.546
303.498
303.441
303.377
303.311
303.244
303.183
303.137
347.617
348.316
349.186
350.108
351.029
351.906
352.693
353.342
353.805
354.047
354.047
353.805
353.342
352.693
351.906
351.029
350.108
349.186
348.316
347.617
341.289
341.881
342.632
343.43
344.228
344.988
345.67
346.231
346.632
346.841
346.841
346.632
346.231
345.67
344.988
344.228
343.43
342.632
341.881
341.289
334.954
335.444
336.077
336.752
337.427
338.07
338.647
339.121
339.46
339.637
339.637
339.46
339.121
338.647
338.07
337.427
336.752
336.077
335.444
334.954
328.612
329.007
329.523
330.075
330.627
331.153
331.624
332.012
332.289
332.434
332.434
332.289
332.012
331.624
331.153
330.627
330.075
329.523
329.007
328.612
322.265
322.568
322.969
323.398
323.827
324.236
324.603
324.904
325.12
325.232
325.232
325.12
324.904
324.603
324.236
323.827
323.398
322.969
322.568
322.265
315.914
316.129
316.414
316.721
317.028
317.32
317.582
317.797
317.951
318.031
318.031
317.951
317.797
317.582
317.32
317.028
316.721
316.414
316.129
315.914
309.56
309.688
309.86
310.044
310.228
310.403
310.561
310.69
310.783
310.831
310.831
310.783
310.69
310.561
310.403
310.228
310.044
309.86
309.688
309.56
303.205
303.248
303.305
303.367
303.429
303.487
303.54
303.583
303.614
303.631
303.631
303.614
303.583
303.54
303.487
303.429
303.367
303.305
303.248
303.205
348.764
349.418
350.228
351.082
351.931
352.735
353.452
354.041
354.46
354.679
354.679
354.46
354.041
353.452
352.735
351.931
351.082
350.228
349.418
348.764
342.281
342.834
343.534
344.273
345.009
345.705
346.327
346.837
347.2
347.389
347.389
347.2
346.837
346.327
345.705
345.009
344.273
343.534
342.834
342.281
335.792
336.25
336.84
337.465
338.087
338.676
339.202
339.634
339.941
340.1
340.1
339.941
339.634
339.202
338.676
338.087
337.465
336.84
336.25
335.792
329.297
329.666
330.146
330.658
331.167
331.649
332.079
332.432
332.683
332.813
332.813
332.683
332.432
332.079
331.649
331.167
330.658
330.146
329.666
329.297
322.797
323.08
323.453
323.851
324.247
324.622
324.956
325.23
325.426
325.527
325.527
325.426
325.23
324.956
324.622
324.247
323.851
323.453
323.08
322.797
316.294
316.494
316.76
317.044
317.327
317.595
317.834
318.03
318.169
318.242
318.242
318.169
318.03
317.834
317.595
317.327
317.044
316.76
316.494
316.294
309.788
309.908
310.067
310.238
310.408
310.569
310.712
310.83
310.914
310.957
310.957
310.914
310.83
310.712
310.569
310.408
310.238
310.067
309.908
309.788
303.281
303.321
303.375
303.432
303.489
303.543
303.591
303.63
303.658
303.673
303.673
303.658
303.63
303.591
303.543
303.489
303.432
303.375
303.321
303.281
350.049
350.657
351.409
352.196
352.974
353.708
354.359
354.891
355.269
355.465
355.465
355.269
354.891
354.359
353.708
352.974
352.196
351.409
350.657
350.049
343.392
343.907
344.556
345.237
345.912
346.547
347.112
347.573
347.9
348.07
348.07
347.9
347.573
347.112
346.547
345.912
345.237
344.556
343.907
343.392
336.73
337.157
337.704
338.28
338.851
339.389
339.866
340.256
340.533
340.677
340.677
340.533
340.256
339.866
339.389
338.851
338.28
337.704
337.157
336.73
330.063
330.407
330.852
331.324
331.791
332.231
332.622
332.941
333.167
333.285
333.285
333.167
332.941
332.622
332.231
331.791
331.324
330.852
330.407
330.063
323.393
323.656
324.002
324.369
324.732
325.074
325.378
325.626
325.802
325.894
325.894
325.802
325.626
325.378
325.074
324.732
324.369
324.002
323.656
323.393
316.719
316.906
317.152
317.414
317.674
317.918
318.136
318.313
318.439
318.504
318.504
318.439
318.313
318.136
317.918
317.674
317.414
317.152
316.906
316.719
310.044
310.155
310.303
310.46
310.616
310.763
310.893
311
311.075
311.115
311.115
311.075
311
310.893
310.763
310.616
310.46
310.303
310.155
310.044
303.367
303.404
303.454
303.506
303.559
303.608
303.652
303.687
303.713
303.726
303.726
303.713
303.687
303.652
303.608
303.559
303.506
303.454
303.404
303.367
351.474
352.039
352.732
353.456
354.167
354.833
355.422
355.901
356.24
356.416
356.416
356.24
355.901
355.422
354.833
354.167
353.456
352.732
352.039
351.474
344.625
345.102
345.701
346.328
346.944
347.521
348.032
348.447
348.741
348.893
348.893
348.741
348.447
348.032
347.521
346.944
346.328
345.701
345.102
344.625
337.771
338.167
338.672
339.202
339.723
340.212
340.644
340.995
341.244
341.373
341.373
341.244
340.995
340.644
340.212
339.723
339.202
338.672
338.167
337.771
330.914
331.232
331.644
332.077
332.504
332.904
333.258
333.545
333.748
333.854
333.854
333.748
333.545
333.258
332.904
332.504
332.077
331.644
331.232
330.914
324.053
324.298
324.617
324.954
325.286
325.597
325.873
326.096
326.254
326.336
326.336
326.254
326.096
325.873
325.597
325.286
324.954
324.617
324.298
324.053
317.191
317.364
317.592
317.832
318.07
318.292
318.489
318.648
318.761
318.82
318.82
318.761
318.648
318.489
318.292
318.07
317.832
317.592
317.364
317.191
310.327
310.43
310.567
310.711
310.854
310.987
311.105
311.201
311.269
311.304
311.304
311.269
311.201
311.105
310.987
310.854
310.711
310.567
310.43
310.327
303.462
303.496
303.542
303.59
303.638
303.683
303.723
303.755
303.778
303.789
303.789
303.778
303.755
303.723
303.683
303.638
303.59
303.542
303.496
303.462
353.042
353.564
354.203
354.865
355.512
356.116
356.647
357.077
357.381
357.538
357.538
357.381
357.077
356.647
356.116
355.512
354.865
354.203
353.564
353.042
345.98
346.422
346.973
347.547
348.108
348.631
349.092
349.465
349.728
349.864
349.864
349.728
349.465
349.092
348.631
348.108
347.547
346.973
346.422
345.98
338.916
339.282
339.747
340.232
340.707
341.15
341.54
341.855
342.078
342.193
342.193
342.078
341.855
341.54
341.15
340.707
340.232
339.747
339.282
338.916
331.849
332.144
332.523
332.92
333.308
333.671
333.99
334.248
334.43
334.524
334.524
334.43
334.248
333.99
333.671
333.308
332.92
332.523
332.144
331.849
324.78
325.007
325.3
325.609
325.912
326.194
326.442
326.643
326.784
326.858
326.858
326.784
326.643
326.442
326.194
325.912
325.609
325.3
325.007
324.78
317.71
317.87
318.08
318.3
318.516
318.718
318.895
319.039
319.14
319.192
319.192
319.14
319.039
318.895
318.718
318.516
318.3
318.08
317.87
317.71
310.638
310.734
310.86
310.992
311.122
311.243
311.349
311.436
311.497
311.528
311.528
311.497
311.436
311.349
311.243
311.122
310.992
310.86
310.734
310.638
303.566
303.598
303.64
303.685
303.728
303.769
303.804
303.833
303.854
303.864
303.864
303.854
303.833
303.804
303.769
303.728
303.685
303.64
303.598
303.566
354.752
355.233
355.82
356.424
357.012
357.558
358.036
358.421
358.692
358.832
358.832
358.692
358.421
358.036
357.558
357.012
356.424
355.82
355.233
354.752
347.459
347.866
348.372
348.896
349.406
349.879
350.293
350.627
350.863
350.984
350.984
350.863
350.627
350.293
349.879
349.406
348.896
348.372
347.866
347.459
340.165
340.502
340.929
341.372
341.804
342.204
342.555
342.838
343.037
343.139
343.139
343.037
342.838
342.555
342.204
341.804
341.372
340.929
340.502
340.165
332.869
333.141
333.489
333.851
334.204
334.532
334.819
335.051
335.214
335.298
335.298
335.214
335.051
334.819
334.532
334.204
333.851
333.489
333.141
332.869
325.573
325.781
326.051
326.333
326.608
326.863
327.086
327.266
327.393
327.459
327.459
327.393
327.266
327.086
326.863
326.608
326.333
326.051
325.781
325.573
318.275
318.423
318.615
318.817
319.013
319.196
319.355
319.484
319.575
319.621
319.621
319.575
319.484
319.355
319.196
319.013
318.817
318.615
318.423
318.275
310.978
311.066
311.181
311.302
311.42
311.53
311.626
311.703
311.757
311.786
311.786
311.757
311.703
311.626
311.53
311.42
311.302
311.181
311.066
310.978
303.68
303.709
303.748
303.789
303.828
303.865
303.897
303.923
303.941
303.951
303.951
303.941
303.923
303.897
303.865
303.828
303.789
303.748
303.709
303.68
356.598
357.041
357.579
358.13
358.663
359.155
359.585
359.93
360.172
360.296
360.296
360.172
359.93
359.585
359.155
358.663
358.13
357.579
357.041
356.598
349.054
349.429
349.893
350.371
350.833
351.26
351.632
351.931
352.141
352.249
352.249
352.141
351.931
351.632
351.26
350.833
350.371
349.893
349.429
349.054
341.511
341.822
342.213
342.617
343.008
343.37
343.685
343.938
344.116
344.207
344.207
344.116
343.938
343.685
343.37
343.008
342.617
342.213
341.822
341.511
333.968
334.218
334.537
334.868
335.188
335.484
335.742
335.949
336.095
336.17
336.17
336.095
335.949
335.742
335.484
335.188
334.868
334.537
334.218
333.968
326.426
326.618
326.865
327.122
327.372
327.602
327.803
327.964
328.077
328.136
328.136
328.077
327.964
327.803
327.602
327.372
327.122
326.865
326.618
326.426
318.884
319.02
319.197
319.38
319.559
319.723
319.867
319.982
320.063
320.105
320.105
320.063
319.982
319.867
319.723
319.559
319.38
319.197
319.02
318.884
311.343
311.424
311.53
311.64
311.748
311.846
311.933
312.002
312.051
312.076
312.076
312.051
312.002
311.933
311.846
311.748
311.64
311.53
311.424
311.343
303.802
303.829
303.865
303.902
303.938
303.971
304
304.023
304.039
304.048
304.048
304.039
304.023
304
303.971
303.938
303.902
303.865
303.829
303.802
358.562
358.97
359.462
359.964
360.447
360.891
361.277
361.585
361.801
361.913
361.913
361.801
361.585
361.277
360.891
360.447
359.964
359.462
358.97
358.562
350.748
351.093
351.517
351.953
352.372
352.757
353.092
353.359
353.547
353.643
353.643
353.547
353.359
353.092
352.757
352.372
351.953
351.517
351.093
350.748
342.938
343.224
343.582
343.95
344.305
344.631
344.915
345.141
345.3
345.382
345.382
345.3
345.141
344.915
344.631
344.305
343.95
343.582
343.224
342.938
335.132
335.361
335.653
335.955
336.246
336.513
336.745
336.93
337.06
337.127
337.127
337.06
336.93
336.745
336.513
336.246
335.955
335.653
335.361
335.132
327.328
327.505
327.731
327.966
328.192
328.4
328.581
328.725
328.826
328.878
328.878
328.826
328.725
328.581
328.4
328.192
327.966
327.731
327.505
327.328
319.528
319.653
319.814
319.982
320.143
320.292
320.421
320.525
320.597
320.634
320.634
320.597
320.525
320.421
320.292
320.143
319.982
319.814
319.653
319.528
311.729
311.804
311.9
312.001
312.098
312.188
312.265
312.327
312.371
312.393
312.393
312.371
312.327
312.265
312.188
312.098
312.001
311.9
311.804
311.729
303.932
303.956
303.989
304.023
304.055
304.085
304.111
304.132
304.147
304.154
304.154
304.147
304.132
304.111
304.085
304.055
304.023
303.989
303.956
303.932
360.593
360.968
361.419
361.877
362.316
362.717
363.064
363.341
363.535
363.634
363.634
363.535
363.341
363.064
362.717
362.316
361.877
361.419
360.968
360.593
352.492
352.809
353.198
353.595
353.976
354.325
354.626
354.867
355.034
355.121
355.121
355.034
354.867
354.626
354.325
353.976
353.595
353.198
352.809
352.492
344.401
344.664
344.992
345.329
345.651
345.947
346.202
346.406
346.548
346.621
346.621
346.548
346.406
346.202
345.947
345.651
345.329
344.992
344.664
344.401
336.32
336.531
336.799
337.075
337.339
337.581
337.79
337.957
338.074
338.134
338.134
338.074
337.957
337.79
337.581
337.339
337.075
336.799
336.531
336.32
328.247
328.41
328.618
328.832
329.038
329.226
329.389
329.519
329.61
329.656
329.656
329.61
329.519
329.389
329.226
329.038
328.832
328.618
328.41
328.247
320.181
320.296
320.445
320.598
320.745
320.88
320.996
321.089
321.154
321.187
321.187
321.154
321.089
320.996
320.88
320.745
320.598
320.445
320.296
320.181
312.12
312.189
312.278
312.37
312.458
312.539
312.609
312.665
312.704
312.724
312.724
312.704
312.665
312.609
312.539
312.458
312.37
312.278
312.189
312.12
304.063
304.085
304.115
304.146
304.176
304.203
304.226
304.245
304.258
304.265
304.265
304.258
304.245
304.226
304.203
304.176
304.146
304.115
304.085
304.063
362.559
362.906
363.321
363.742
364.144
364.51
364.825
365.075
365.25
365.34
365.34
365.25
365.075
364.825
364.51
364.144
363.742
363.321
362.906
362.559
354.159
354.452
354.812
355.177
355.526
355.844
356.118
356.336
356.488
356.566
356.566
356.488
356.336
356.118
355.844
355.526
355.177
354.812
354.452
354.159
345.785
346.028
346.332
346.641
346.937
347.207
347.44
347.625
347.754
347.82
347.82
347.754
347.625
347.44
347.207
346.937
346.641
346.332
346.028
345.785
337.433
337.629
337.877
338.131
338.374
338.595
338.786
338.938
339.043
339.098
339.098
339.043
338.938
338.786
338.595
338.374
338.131
337.877
337.629
337.433
329.102
329.252
329.445
329.643
329.832
330.004
330.153
330.271
330.354
330.396
330.396
330.354
330.271
330.153
330.004
329.832
329.643
329.445
329.252
329.102
320.786
320.892
321.03
321.171
321.306
321.43
321.536
321.621
321.68
321.71
321.71
321.68
321.621
321.536
321.43
321.306
321.171
321.03
320.892
320.786
312.481
312.545
312.627
312.712
312.793
312.868
312.932
312.982
313.018
313.036
313.036
313.018
312.982
312.932
312.868
312.793
312.712
312.627
312.545
312.481
304.183
304.204
304.232
304.26
304.288
304.313
304.334
304.351
304.363
304.369
304.369
304.363
304.351
304.334
304.313
304.288
304.26
304.232
304.204
304.183
364.11
364.436
364.827
365.222
365.597
365.939
366.232
366.465
366.626
366.709
366.709
366.626
366.465
366.232
365.939
365.597
365.222
364.827
364.436
364.11
355.424
355.701
356.04
356.384
356.711
357.009
357.265
357.468
357.609
357.681
357.681
357.609
357.468
357.265
357.009
356.711
356.384
356.04
355.701
355.424
346.802
347.032
347.319
347.611
347.89
348.143
348.361
348.534
348.654
348.715
348.715
348.654
348.534
348.361
348.143
347.89
347.611
347.319
347.032
346.802
338.232
338.418
338.652
338.892
339.121
339.329
339.508
339.65
339.749
339.8
339.8
339.749
339.65
339.508
339.329
339.121
338.892
338.652
338.418
338.232
329.703
329.846
330.028
330.215
330.394
330.557
330.696
330.807
330.884
330.924
330.924
330.884
330.807
330.696
330.557
330.394
330.215
330.028
329.846
329.703
321.205
321.306
321.437
321.571
321.699
321.815
321.915
321.995
322.05
322.078
322.078
322.05
321.995
321.915
321.815
321.699
321.571
321.437
321.306
321.205
312.729
312.789
312.868
312.948
313.025
313.095
313.155
313.203
313.236
313.254
313.254
313.236
313.203
313.155
313.095
313.025
312.948
312.868
312.789
312.729
304.265
304.286
304.312
304.339
304.365
304.388
304.408
304.424
304.436
304.441
304.441
304.436
304.424
304.408
304.388
304.365
304.339
304.312
304.286
304.265
)
;

boundaryField
{
    hotSide
    {
        type            fixedGradient;
        gradient        nonuniform List<scalar> 
400
(
452.21
453.328
455.574
458.969
463.541
469.326
476.367
484.707
494.395
505.476
517.996
531.998
547.52
564.599
583.264
603.543
625.456
649.023
674.257
701.168
465.03
466.047
468.094
471.198
475.398
480.743
487.286
495.086
504.203
514.698
526.626
540.04
554.987
571.509
589.643
609.416
630.855
653.977
678.797
705.327
478.905
479.8
481.61
484.369
488.13
492.955
498.916
506.088
514.548
524.371
535.627
548.38
562.686
578.593
596.143
615.368
636.295
658.942
683.325
709.452
493.603
494.358
495.891
498.251
501.505
505.735
511.032
517.493
525.215
534.289
544.803
556.831
570.44
585.686
602.614
621.259
641.649
663.803
687.734
713.449
508.716
509.311
510.535
512.448
515.137
518.706
523.273
528.957
535.878
544.149
553.871
565.134
578.014
592.573
608.861
626.914
646.761
668.42
691.901
717.209
523.611
524.037
524.929
526.366
528.456
531.329
535.13
540.006
546.101
553.548
562.467
572.959
585.111
598.991
614.651
632.129
651.451
672.635
695.687
720.611
537.437
537.693
538.255
539.218
540.715
542.904
545.956
550.046
555.344
562.003
570.158
579.925
591.396
604.645
619.726
636.678
655.524
676.279
698.948
723.528
549.172
549.275
549.539
550.077
551.044
552.622
555.011
558.41
563.01
568.984
576.48
585.624
596.516
609.231
623.826
640.337
658.788
679.189
701.542
725.842
557.759
557.745
557.782
557.995
558.558
559.674
561.561
564.441
568.519
573.983
580.992
589.677
600.144
612.471
626.713
642.906
661.073
681.221
703.349
727.45
562.31
562.231
562.144
562.181
562.525
563.39
565.007
567.606
571.405
576.595
583.344
591.786
602.028
614.149
628.205
644.232
662.25
682.265
704.276
728.274
562.31
562.231
562.144
562.181
562.525
563.39
565.007
567.606
571.405
576.595
583.344
591.786
602.028
614.149
628.205
644.232
662.25
682.265
704.276
728.274
557.759
557.745
557.782
557.995
558.558
559.674
561.561
564.441
568.519
573.983
580.992
589.677
600.144
612.471
626.713
642.906
661.073
681.221
703.349
727.45
549.172
549.275
549.539
550.077
551.044
552.622
555.011
558.41
563.01
568.984
576.48
585.624
596.516
609.231
623.826
640.337
658.788
679.189
701.542
725.842
537.437
537.693
538.255
539.218
540.715
542.904
545.956
550.046
555.344
562.003
570.158
579.925
591.396
604.645
619.726
636.678
655.524
676.279
698.948
723.528
523.611
524.037
524.929
526.366
528.456
531.329
535.13
540.006
546.101
553.548
562.467
572.959
585.111
598.991
614.651
632.129
651.451
672.635
695.687
720.611
508.716
509.311
510.535
512.448
515.137
518.706
523.273
528.957
535.878
544.149
553.871
565.134
578.014
592.573
608.861
626.914
646.761
668.42
691.901
717.209
493.603
494.358
495.891
498.251
501.505
505.735
511.032
517.493
525.215
534.289
544.803
556.831
570.44
585.686
602.614
621.259
641.649
663.803
687.734
713.449
478.905
479.8
481.61
484.369
488.13
492.955
498.916
506.088
514.548
524.371
535.627
548.38
562.686
578.593
596.143
615.368
636.295
658.942
683.325
709.452
465.03
466.047
468.094
471.198
475.398
480.743
487.286
495.086
504.203
514.698
526.626
540.04
554.987
571.509
589.643
609.416
630.855
653.977
678.797
705.327
452.21
453.328
455.574
458.969
463.541
469.326
476.367
484.707
494.395
505.476
517.996
531.998
547.52
564.599
583.264
603.543
625.456
649.023
674.257
701.168
)
;
    }
    coldSide
    {
        type            mixed;
        refValue        uniform 300;
        refGradient     uniform 0;
        valueFraction   uniform 0.991591;
        source          uniform 0;
        value           nonuniform List<scalar> 
400
(
300.024
300.024
300.024
300.025
300.025
300.025
300.025
300.026
300.026
300.027
300.028
300.028
300.029
300.03
300.031
300.032
300.033
300.034
300.035
300.036
300.025
300.025
300.025
300.025
300.025
300.026
300.026
300.026
300.027
300.027
300.028
300.029
300.029
300.03
300.031
300.032
300.033
300.034