/*--------------------------------*- C++ -*----------------------------------*\
| =========                 |                                                 |
| \\      /  F ield         | OpenFOAM: The Open Source CFD Toolbox           |
|  \\    /   O peration     | Version:  2212                                  |
|   \\  /    A nd           | Website:  www.openfoam.com                      |
|    \\/     M anipulation  |                                                 |
\*---------------------------------------------------------------------------*/
FoamFile
{
    version     2.0;
    format      ascii;
    arch        "LSB;label=32;scalar=64";
    class       volScalarField;
    location    "0";
    object      T;
}
// * * * * * * * * * * * * * * * * * * * * * * * * * * * * * * * * * * * * * //

dimensions      [0 0 0 1 0 0 0];

internalField   nonuniform List<scalar> 
3200
(
349.653
348.233
347.07
346.449
346.594
346.854
347.378
347.88
348.379
348.615
348.499
348.202
347.447
346.698
345.857
345.2
344.781
344.748
345.419
346.623
343.153
341.972
340.945
340.386
340.521
340.706
341.146
341.597
342.034
342.223
342.103
341.851
341.201
340.558
339.816
339.24
338.9
338.854
339.417
340.45
336.596
335.614
334.744
334.259
334.384
334.517
334.878
335.285
335.64
335.795
335.678
335.482
334.919
334.38
333.743
333.255
332.986
332.921
333.406
334.273
329.995
329.224
328.514
328.095
328.199
328.305
328.574
328.931
329.206
329.352
329.25
329.089
328.597
328.179
327.659
327.257
327.032
326.962
327.364
328.066
323.359
322.805
322.22
321.892
321.968
322.036
322.257
322.528
322.74
322.881
322.81
322.673
322.267
321.957
321.556
321.241
321.055
320.994
321.312
321.848
316.712
316.333
315.884
315.678
315.719
315.748
315.916
316.104
316.244
316.355
316.332
316.201
315.927
315.698
315.439
315.177
315.069
315.019
315.252
315.601
310.058
309.823
309.547
309.42
309.437
309.46
309.574
309.667
309.746
309.822
309.807
309.74
309.555
309.435
309.295
309.115
309.057
309.039
309.177
309.363
303.373
303.283
303.21
303.162
303.155
303.175
303.216
303.234
303.266
303.289
303.287
303.279
303.205
303.177
303.112
303.059
303.048
303.042
303.084
303.152
349.919
348.483
347.267
346.697
346.794
347.191
347.789
348.337
348.873
349.122
349.058
348.848
348.151
347.287
346.186
345.574
345.043
345.009
345.743
346.844
343.377
342.165
341.107
340.577
340.677
340.996
341.48
341.934
342.411
342.643
342.573
342.389
341.798
341.028
340.079
339.566
339.128
339.1
339.737
340.635
336.789
335.814
334.888
334.408
334.481
334.759
335.154
335.531
335.922
336.128
336.081
335.93
335.414
334.759
333.958
333.545
333.186
333.128
333.694
334.443
330.167
329.402
328.634
328.21
328.26
328.478
328.812
329.1
329.417
329.59
329.569
329.457
329.024
328.462
327.809
327.502
327.218
327.124
327.614
328.227
323.51
322.93
322.332
321.986
322.029
322.172
322.452
322.656
322.914
323.051
323.031
322.956
322.611
322.157
321.652
321.415
321.227
321.106
321.51
321.969
316.811
316.4
315.981
315.729
315.774
315.845
316.062
316.212
316.393
316.486
316.468
316.428
316.161
315.835
315.466
315.315
315.191
315.083
315.388
315.709
310.099
309.865
309.604
309.467
309.475
309.525
309.646
309.743
309.858
309.881
309.899
309.885
309.711
309.495
309.282
309.205
309.134
309.071
309.244
309.432
303.385
303.303
303.215
303.175
303.175
303.203
303.25
303.275
303.311
303.301
303.312
303.312
303.252
303.183
303.111
303.086
303.064
303.035
303.097
303.158
350.438
348.993
347.77
347.286
347.37
347.71
348.531
349.114
349.629
349.86
350.006
349.78
349.105
348.185
347.038
346.191
345.599
345.615
346.259
347.287
343.821
342.607
341.525
341.105
341.134
341.437
342.139
342.635
343.061
343.267
343.393
343.21
342.62
341.784
340.826
340.094
339.593
339.602
340.173
341
337.177
336.141
335.23
334.857
334.873
335.111
335.723
336.109
336.487
336.64
336.774
336.618
336.107
335.389
334.586
333.971
333.568
333.579
334.052
334.7
330.494
329.636
328.916
328.583
328.6
328.774
329.284
329.579
329.898
329.995
330.12
330.008
329.569
328.991
328.315
327.821
327.505
327.524
327.881
328.419
323.758
323.104
322.552
322.266
322.291
322.415
322.814
323.02
323.277
323.336
323.457
323.368
323.022
322.59
322.043
321.667
321.422
321.421
321.71
322.129
316.995
316.549
316.145
315.964
315.947
316.026
316.321
316.46
316.655
316.683
316.76
316.711
316.474
316.146
315.727
315.485
315.313
315.308
315.536
315.842
310.213
309.951
309.714
309.609
309.575
309.627
309.808
309.887
309.994
310.012
310.065
310.037
309.901
309.702
309.418
309.301
309.202
309.196
309.35
309.516
303.429
303.341
303.259
303.228
303.213
303.221
303.291
303.317
303.339
303.346
303.38
303.366
303.326
303.244
303.157
303.121
303.081
303.078
303.137
303.197
351.075
349.636
348.583
348.142
348.304
348.801
349.408
350.148
350.681
350.923
351.118
350.826
350.193
349.151
348.146
347.148
346.512
346.457
347.032
348.028
344.35
343.145
342.258
341.863
341.955
342.382
342.894
343.521
343.982
344.155
344.339
344.084
343.541
342.636
341.767
340.927
340.367
340.334
340.825
341.647
337.597
336.606
335.874
335.506
335.591
335.932
336.338
336.874
337.262
337.421
337.557
337.345
336.863
336.114
335.376
334.67
334.221
334.185
334.59
335.257
330.792
330.025
329.435
329.103
329.167
329.447
329.788
330.203
330.523
330.647
330.769
330.567
330.178
329.582
328.965
328.4
328.052
328.03
328.325
328.857
323.988
323.395
322.944
322.66
322.711
322.952
323.192
323.523
323.761
323.858
323.951
323.804
323.496
323.009
322.534
322.119
321.836
321.857
322.045
322.449
317.18
316.744
316.395
316.21
316.237
316.436
316.588
316.84
316.986
317.056
317.116
317.016
316.792
316.457
316.104
315.816
315.625
315.639
315.759
316.043
310.323
310.076
309.84
309.766
309.759
309.87
309.988
310.137
310.197
310.265
310.278
310.239
310.089
309.885
309.659
309.518
309.372
309.408
309.484
309.632
303.464
303.376
303.286
303.284
303.278
303.303
303.35
303.392
303.425
303.442
303.454
303.432
303.391
303.311
303.243
303.19
303.142
303.147
303.187
303.226
352.009
350.606
349.711
349.21
349.391
349.801
350.598
351.35
351.971
352.311
352.494
352.175
351.488
350.34
349.296
348.253
347.732
347.531
348.137
348.92
345.172
343.973
343.232
342.766
342.904
343.265
343.925
344.564
345.068
345.377
345.522
345.245
344.654
343.673
342.763
341.89
341.435
341.275
341.793
342.412
338.286
337.272
336.679
336.261
336.377
336.695
337.208
337.755
338.156
338.435
338.543
338.288
337.81
336.998
336.223
335.474
335.127
334.984
335.424
335.911
331.369
330.544
330.094
329.741
329.816
330.094
330.468
330.927
331.238
331.464
331.547
331.341
330.971
330.316
329.64
329.05
328.784
328.653
329.024
329.399
324.437
323.814
323.489
323.198
323.241
323.463
323.723
324.075
324.314
324.497
324.534
324.397
324.125
323.597
323.072
322.592
322.42
322.312
322.597
322.891
317.477
317.055
316.83
316.606
316.649
316.788
316.953
317.212
317.387
317.514
317.533
317.452
317.254
316.874
316.505
316.138
316.037
315.972
316.158
316.378
310.503
310.254
310.094
310
310.032
310.088
310.173
310.322
310.448
310.516
310.518
310.491
310.387
310.15
309.914
309.681
309.643
309.608
309.702
309.841
303.514
303.437
303.387
303.347
303.366
303.396
303.406
303.467
303.493
303.524
303.53
303.516
303.492
303.416
303.326
303.241
303.23
303.233
303.258
303.296
353.343
351.871
350.953
350.655
350.716
351.093
351.776
352.669
353.3
353.763
353.947
353.652
352.899
351.781
350.627
349.587
349.046
348.862
349.325
350.123
346.297
345.054
344.281
344.017
344.075
344.36
344.944
345.698
346.235
346.604
346.771
346.538
345.889
344.925
343.923
343.022
342.574
342.405
342.835
343.443
339.227
338.2
337.555
337.311
337.377
337.612
338.097
338.702
339.147
339.469
339.6
339.398
338.894
338.057
337.2
336.445
336.109
335.924
336.306
336.77
332.136
331.327
330.783
330.589
330.647
330.847
331.223
331.701
332.047
332.312
332.413
332.241
331.848
331.17
330.464
329.847
329.608
329.441
329.752
330.074
325.014
324.407
323.978
323.827
323.872
324.036
324.322
324.686
324.929
325.144
325.214
325.096
324.781
324.259
323.702
323.247
323.056
322.942
323.177
323.39
317.875
317.458
317.143
317.051
317.082
317.202
317.405
317.642
317.815
317.964
318.006
317.933
317.709
317.341
316.952
316.637
316.489
316.407
316.561
316.725
310.724
310.476
310.293
310.246
310.262
310.332
310.461
310.609
310.685
310.792
310.825
310.767
310.635
310.423
310.182
309.987
309.909
309.857
309.958
310.053
303.591
303.501
303.448
303.442
303.438
303.456
303.518
303.563
303.588
303.613
303.637
303.613
303.567
303.502
303.414
303.342
303.324
303.316
303.344
303.368
354.72
353.39
352.432
352.102
352.167
352.623
353.226
354.088
354.792
355.137
355.571
355.224
354.379
353.241
352.151
351.197
350.498
350.329
350.79
351.699
347.512
346.381
345.541
345.276
345.297
345.679
346.173
346.919
347.536
347.819
348.177
347.888
347.162
346.17
345.239
344.421
343.804
343.667
344.082
344.787
340.263
339.328
338.625
338.388
338.401
338.712
339.115
339.739
340.256
340.501
340.773
340.545
339.948
339.08
338.304
337.617
337.117
336.989
337.354
337.913
332.991
332.244
331.653
331.446
331.482
331.729
332.044
332.55
332.978
333.166
333.361
333.218
332.726
331.977
331.356
330.806
330.417
330.287
330.601
331.03
325.68
325.114
324.648
324.484
324.536
324.708
324.944
325.334
325.668
325.82
325.947
325.861
325.455
324.884
324.413
323.975
323.695
323.6
323.832
324.143
318.369
317.976
317.634
317.502
317.563
317.665
317.848
318.11
318.367
318.475
318.526
318.508
318.195
317.78
317.465
317.138
316.96
316.879
317.034
317.255
311.039
310.811
310.608
310.527
310.561
310.593
310.72
310.888
311.042
311.106
311.119
311.12
310.922
310.68
310.499
310.284
310.198
310.138
310.234
310.363
303.717
303.633
303.561
303.531
303.542
303.552
303.593
303.659
303.7
303.726
303.732
303.733
303.657
303.591
303.531
303.45
303.43
303.402
303.423
303.478
356.153
354.941
354.026
353.683
353.646
354.108
354.828
355.542
356.188
356.86
357.149
356.791
355.947
354.761
353.689
352.794
352.108
351.935
352.437
353.144
348.73
347.728
346.931
346.637
346.587
346.976
347.57
348.163
348.72
349.303
349.544
349.253
348.509
347.482
346.58
345.804
345.194
345.038
345.487
346.07
341.296
340.439
339.786
339.535
339.496
339.806
340.279
340.777
341.241
341.733
341.93
341.696
341.051
340.181
339.462
338.794
338.282
338.139
338.519
339.017
333.835
333.105
332.596
332.386
332.368
332.615
332.977
333.379
333.756
334.146
334.312
334.137
333.599
332.875
332.331
331.787
331.37
331.214
331.561
331.955
326.358
325.765
325.394
325.207
325.23
325.385
325.673
325.978
326.267
326.563
326.699
326.556
326.133
325.571
325.165
324.756
324.437
324.289
324.578
324.87
318.854
318.416
318.175
318.026
318.067
318.153
318.341
318.568
318.783
318.979
319.083
318.981
318.689
318.265
317.99
317.701
317.47
317.364
317.593
317.775
311.327
311.07
310.939
310.82
310.856
310.908
311.027
311.15
311.285
311.404
311.468
311.399
311.23
310.978
310.812
310.632
310.495
310.433
310.578
310.686
303.79
303.713
303.668
303.629
303.637
303.661
303.706
303.737
303.785
303.833
303.845
303.82
303.76
303.676
303.629
303.559
303.526
303.5
303.534
303.587
357.868
356.698
355.858
355.444
355.456
355.755
356.397
357.175
357.832
358.388
358.666
358.394
357.531
356.426
355.278
354.313
353.85
353.579
354.178
354.871
350.226
349.225
348.526
348.141
348.146
348.4
348.936
349.592
350.144
350.601
350.853
350.65
349.887
348.917
347.94
347.125
346.715
346.479
347.012
347.598
342.55
341.703
341.152
340.807
340.816
340.998
341.454
341.985
342.46
342.815
343.052
342.879
342.219
341.433
340.604
339.939
339.584
339.349
339.807
340.319
334.87
334.177
333.758
333.432
333.436
333.591
333.957
334.377
334.776
335.038
335.245
335.089
334.524
333.908
333.247
332.715
332.442
332.217
332.58
333.009
327.125
326.625
326.3
326.035
326.028
326.147
326.477
326.75
327.082
327.29
327.426
327.316
326.87
326.387
325.888
325.485
325.237
325.073
325.355
325.704
319.384
319.03
318.821
318.618
318.609
318.696
318.954
319.122
319.359
319.516
319.596
319.531
319.217
318.864
318.509
318.222
318.037
317.931
318.124
318.382
311.633
311.428
311.318
311.191
311.193
311.242
311.392
311.481
311.62
311.734
311.771
311.744
311.537
311.327
311.121
310.952
310.831
310.772
310.888
311.047
303.896
303.815
303.803
303.755
303.743
303.775
303.822
303.849
303.897
303.934
303.944
303.942
303.867
303.802
303.726
303.668
303.631
303.613
303.652
303.702
359.597
358.441
357.617
357.143
357.094
357.541
358.164
358.838
359.347
359.802
360.128
359.784
359.057
357.95
356.977
356.129
355.638
355.381
355.889
356.624
351.708
350.755
350.041
349.626
349.55
349.935
350.481
351.024
351.46
351.849
352.13
351.811
351.179
350.248
349.38
348.684
348.283
348.054
348.495
349.106
343.803
343.014
342.414
342.066
341.985
342.309
342.766
343.198
343.541
343.916
344.13
343.878
343.303
342.54
341.781
341.216
340.906
340.702
341.076
341.567
335.877
335.259
334.755
334.494
334.402
334.651
335.026
335.349
335.645
335.948
336.141
335.921
335.412
334.836
334.184
333.745
333.504
333.33
333.632
334.034
327.903
327.45
327.093
326.898
326.789
326.982
327.257
327.508
327.736
327.982
328.131
327.942
327.532
327.117
326.606
326.265
326.077
325.925
326.17
326.49
319.943
319.628
319.384
319.259
319.16
319.279
319.478
319.669
319.832
319.987
320.111
319.986
319.657
319.383
319.017
318.79
318.632
318.514
318.717
318.935
311.982
311.789
311.663
311.59
311.508
311.588
311.698
311.812
311.913
311.995
312.089
312.017
311.803
311.65
311.437
311.306
311.179
311.13
311.251
311.381
304.012
303.955
303.915
303.888
303.858
303.88
303.925
303.954
303.996
304.016
304.047
304.037
303.96
303.903
303.828
303.789
303.746
303.734
303.773
303.82
361.446
360.253
359.439
359.016
358.867
359.142
359.651
360.413
360.785
361.267
361.629
361.137
360.5
359.539
358.596
357.844
357.456
357.154
357.624
358.329
353.345
352.319
351.606
351.247
351.1
351.321
351.745
352.415
352.713
353.098
353.434
352.999
352.432
351.632
350.816
350.173
349.832
349.574
349.984
350.601
345.19
344.343
343.741
343.424
343.312
343.464
343.825
344.395
344.609
344.958
345.205
344.865
344.37
343.699
343.009
342.493
342.207
341.955
342.335
342.837
336.991
336.325
335.85
335.575
335.461
335.601
335.866
336.367
336.507
336.812
336.977
336.724
336.303
335.754
335.192
334.783
334.546
334.335
334.651
335.068
328.778
328.304
327.942
327.725
327.604
327.724
327.899
328.323
328.417
328.662
328.778
328.61
328.235
327.808
327.38
327.06
326.881
326.706
326.974
327.295
320.562
320.253
319.992
319.852
319.716
319.833
319.937
320.253
320.334
320.492
320.585
320.445
320.169
319.854
319.555
319.336
319.216
319.077
319.268
319.505
312.355
312.182
312.032
311.945
311.83
311.93
311.981
312.18
312.217
312.324
312.371
312.306
312.114
311.913
311.746
311.591
311.55
311.45
311.562
311.725
304.142
304.084
304.037
304.006
303.961
303.998
304.019
304.082
304.09
304.123
304.15
304.133
304.056
303.991
303.937
303.885
303.873
303.845
303.87
303.932
363.265
362.248
361.341
360.84
360.643
360.753
361.286
361.835
362.288
362.767
362.873
362.587
361.962
361.083
360.224
359.572
359.125
359.008
359.275
360.071
354.889
354.065
353.262
352.827
352.627
352.72
353.169
353.639
354.011
354.407
354.488
354.232
353.704
352.959
352.221
351.661
351.283
351.181
351.405
352.11
346.485
345.827
345.16
344.756
344.583
344.673
345.026
345.424
345.745
346.041
346.146
345.89
345.445
344.832
344.193
343.746
343.414
343.323
343.522
344.111
338.054
337.528
337.025
336.685
336.51
336.614
336.869
337.204
337.478
337.7
337.788
337.537
337.205
336.689
336.17
335.805
335.523
335.486
335.643
336.106
329.602
329.222
328.837
328.592
328.43
328.507
328.682
328.945
329.186
329.338
329.415
329.177
328.946
328.545
328.154
327.853
327.631
327.629
327.731
328.085
321.142
320.894
320.626
320.464
320.351
320.382
320.521
320.683
320.862
320.974
321.029
320.826
320.687
320.421
320.104
319.904
319.741
319.775
319.807
320.069
312.692
312.546
312.403
312.297
312.233
312.252
312.338
312.432
312.521
312.597
312.622
312.486
312.442
312.283
312.069
311.954
311.848
311.894
311.882
312.063
304.254
304.202
304.157
304.127
304.102
304.112
304.144
304.169
304.202
304.22
304.224
304.183
304.178
304.122
304.048
304.01
303.975
303.993
303.977
304.03
365.114
364.086
363.265
362.58
362.478
362.601
362.895
363.512
363.785
364.205
364.252
363.951
363.384
362.577
361.862
361.259
360.819
360.779
361.062
361.767
356.469
355.656
354.922
354.325
354.216
354.333
354.586
355.086
355.282
355.669
355.699
355.439
354.951
354.239
353.624
353.146
352.762
352.713
352.954
353.538
347.81
347.182
346.546
346.036
345.945
346.033
346.231
346.614
346.8
347.129
347.164
346.942
346.506
345.895
345.382
345.01
344.693
344.621
344.829
345.336
339.137
338.67
338.147
337.711
337.636
337.687
337.869
338.174
338.313
338.575
338.611
338.415
338.06
337.543
337.118
336.841
336.6
336.511
336.719
337.111
330.451
330.114
329.69
329.374
329.296
329.312
329.481
329.733
329.825
330.003
330.044
329.908
329.622
329.196
328.877
328.661
328.477
328.389
328.569
328.882
321.776
321.56
321.234
321.016
320.953
320.966
321.095
321.263
321.329
321.451
321.483
321.375
321.169
320.856
320.649
320.464
320.37
320.283
320.426
320.648
313.087
312.948
312.77
312.637
312.602
312.615
312.673
312.774
312.813
312.894
312.923
312.834
312.726
312.524
312.378
312.307
312.246
312.185
312.262
312.382
304.377
304.35
304.28
304.231
304.228
304.224
304.247
304.279
304.298
304.339
304.336
304.295
304.276
304.201
304.147
304.134
304.096
304.087
304.124
304.137
367.039
365.936
365.011
364.441
364.324
364.402
364.626
365.099
365.175
365.686
365.613
365.257
364.727
364.005
363.388
362.893
362.507
362.522
362.81
363.528
358.157
357.227
356.433
355.935
355.827
355.896
356.073
356.462
356.52
356.967
356.901
356.58
356.12
355.499
354.953
354.556
354.233
354.265
354.474
355.087
349.249
348.489
347.82
347.412
347.315
347.348
347.493
347.788
347.864
348.233
348.172
347.916
347.489
346.975
346.525
346.197
345.934
345.962
346.137
346.644
340.306
339.744
339.184
338.858
338.754
338.766
338.922
339.122
339.182
339.45
339.434
339.22
338.865
338.472
338.079
337.819
337.603
337.624
337.812
338.201
331.367
330.971
330.531
330.263
330.158
330.183
330.316
330.456
330.471
330.677
330.678
330.528
330.237
329.96
329.634
329.455
329.282
329.255
329.452
329.729
322.415
322.157
321.851
321.641
321.553
321.592
321.69
321.767
321.761
321.937
321.932
321.826
321.62
321.422
321.184
321.058
320.937
320.89
321.066
321.262
313.469
313.299
313.145
313.007
312.932
312.979
313.035
313.068
313.067
313.192
313.183
313.117
312.994
312.881
312.733
312.661
312.577
312.525
312.675
312.772
304.52
304.451
304.415
304.369
304.327
304.352
304.368
304.392
304.376
304.428
304.419
304.399
304.35
304.312
304.26
304.238
304.21
304.18
304.253
304.279
368.996
367.919
367.016
366.457
366.28
366.165
366.204
366.542
366.703
366.981
366.914
366.65
366.019
365.543
364.901
364.526
364.277
364.236
364.571
365.341
359.857
358.989
358.173
357.684
357.525
357.422
357.454
357.743
357.858
358.082
358.035
357.783
357.262
356.839
356.278
355.96
355.766
355.737
356.009
356.649
350.691
350.023
349.283
348.88
348.73
348.647
348.689
348.911
348.97
349.142
349.13
348.913
348.47
348.136
347.656
347.367
347.246
347.211
347.439
347.937
341.519
340.996
340.344
340.043
339.92
339.87
339.895
340.046
340.073
340.22
340.222
340.038
339.677
339.431
339.016
338.786
338.683
338.671
338.868
339.234
332.323
331.899
331.398
331.195
331.091
331.059
331.056
331.145
331.17
331.285
331.321
331.169
330.856
330.708
330.351
330.18
330.119
330.117
330.28
330.522
323.114
322.793
322.453
322.32
322.246
322.195
322.184
322.243
322.26
322.345
322.403
322.292
322.056
321.959
321.697
321.579
321.529
321.543
321.665
321.803
313.896
313.694
313.491
313.413
313.372
313.33
313.311
313.361
313.38
313.413
313.463
313.395
313.26
313.208
313.048
312.968
312.928
312.943
313.029
313.08
304.656
304.593
304.53
304.496
304.474
304.47
304.459
304.472
304.479
304.505
304.518
304.488
304.438
304.436
304.375
304.348
304.335
304.337
304.371
304.384
370.911
369.925
368.951
368.335
368.059
367.691
367.759
368.091
368.222
368.281
368.343
368.016
367.619
366.996
366.494
366.092
365.88
365.895
366.381
367.073
361.516
360.695
359.871
359.31
359.053
358.735
358.772
359.038
359.169
359.196
359.27
358.99
358.635
358.107
357.663
357.299
357.147
357.119
357.569
358.182
352.099
351.415
350.74
350.251
350.035
349.74
349.757
349.981
350.116
350.085
350.159
349.938
349.644
349.21
348.831
348.491
348.407
348.357
348.743
349.267
342.657
342.106
341.572
341.164
340.99
340.717
340.737
340.902
341.053
340.982
341.044
340.882
340.652
340.305
339.983
339.68
339.642
339.583
339.921
340.329
333.214
332.779
332.373
332.054
331.914
331.688
331.691
331.815
331.974
331.895
331.949
331.829
331.637
331.363
331.108
330.9
330.862
330.804
331.087
331.402
323.751
323.416
323.175
322.917
322.819
322.656
322.639
322.736
322.863
322.804
322.833
322.769
322.62
322.416
322.24
322.096
322.068
322.024
322.234
322.449
314.268
314.057
313.927
313.777
313.718
313.624
313.587
313.655
313.746
313.693
313.709
313.675
313.587
313.472
313.353
313.271
313.256
313.218
313.352
313.5
304.782
304.724
304.669
304.623
304.598
304.563
304.548
304.58
304.619
304.587
304.598
304.582
304.551
304.513
304.467
304.446
304.445
304.432
304.486
304.521
372.708
371.717
370.774
370.016
369.673
369.479
369.382
369.626
369.685
369.716
369.598
369.499
369.052
368.374
368.012
367.619
367.582
367.68
368.188
368.937
363.066
362.254
361.43
360.772
360.448
360.279
360.194
360.384
360.462
360.452
360.364
360.263
359.896
359.282
359.001
358.648
358.59
358.711
359.138
359.77
353.395
352.758
352.051
351.478
351.207
351.053
350.977
351.126
351.187
351.163
351.095
351.015
350.732
350.185
349.96
349.665
349.597
349.723
350.083
350.597
343.699
343.213
342.623
342.174
341.926
341.807
341.744
341.865
341.91
341.881
341.815
341.781
341.547
341.092
340.905
340.624
340.582
340.742
340.997
341.437
333.98
333.626
333.149
332.831
332.63
332.545
332.512
332.564
332.638
332.591
332.531
332.517
332.34
331.98
331.844
331.605
331.577
331.732
331.911
332.245
324.283
324.044
323.69
323.473
323.318
323.261
323.251
323.287
323.354
323.307
323.247
323.235
323.116
322.871
322.771
322.581
322.572
322.718
322.803
323.067
314.599
314.455
314.232
314.102
314.005
313.976
313.971
313.982
314.034
314.004
313.96
313.961
313.865
313.748
313.663
313.557
313.558
313.67
313.699
313.866
304.905
304.833
304.769
304.72
304.708
304.687
304.681
304.671
304.704
304.687
304.675
304.677
304.648
304.61
304.573
304.546
304.54
304.577
304.59
304.642
374.494
373.501
372.588
371.917
371.419
371.198
370.991
371.174
371.141
371.046
370.969
370.719
370.4
369.827
369.411
369.215
369.158
369.486
370.032
370.648
364.619
363.768
362.972
362.397
361.966
361.774
361.572
361.738
361.707
361.587
361.542
361.316
361.036
360.522
360.168
360.005
359.967
360.277
360.74
361.249
354.712
354.002
353.346
352.852
352.46
352.332
352.125
352.302
352.25
352.134
352.088
351.931
351.676
351.243
350.89
350.805
350.768
351.03
351.413
351.864
344.787
344.206
343.699
343.282
342.95
342.857
342.659
342.839
342.772
342.674
342.622
342.505
342.298
341.956
341.634
341.59
341.556
341.78
342.093
342.443
334.865
334.396
334.011
333.684
333.45
333.349
333.189
333.34
333.273
333.208
333.137
333.072
332.898
332.646
332.386
332.359
332.35
332.533
332.75
333.029
324.927
324.574
324.325
324.079
323.931
323.841
323.719
323.821
323.779
323.741
323.657
323.636
323.52
323.336
323.148
323.123
323.107
323.273
323.368
323.607
314.975
314.766
314.619
314.469
314.393
314.325
314.24
314.308
314.282
314.273
314.207
314.191
314.119
314.01
313.912
313.891
313.869
313.997
314.021
314.19
305.015
304.95
304.905
304.847
304.847
304.798
304.769
304.785
304.788
304.792
304.754
304.757
304.72
304.692
304.665
304.654
304.652
304.698
304.702
304.752
376.124
375.209
374.248
373.619
373.018
372.626
372.525
372.418
372.513
372.284
372.218
371.916
371.701
371.269
370.881
370.661
370.709
371
371.637
372.385
365.985
365.219
364.4
363.871
363.317
362.981
362.899
362.799
362.877
362.677
362.589
362.335
362.158
361.776
361.445
361.217
361.288
361.573
362.096
362.742
355.834
355.2
354.55
354.075
353.605
353.325
353.256
353.167
353.221
353.067
352.982
352.742
352.615
352.295
352.003
351.768
351.851
352.124
352.547
353.099
345.696
345.166
344.652
344.267
343.9
343.633
343.585
343.519
343.565
343.436
343.356
343.169
343.086
342.813
342.574
342.355
342.423
342.677
342.99
343.444
335.563
335.145
334.731
334.464
334.164
333.94
333.9
333.865
333.906
333.79
333.711
333.591
333.561
333.301
333.131
332.949
333.007
333.224
333.445
333.79
325.419
325.119
324.822
324.622
324.423
324.258
324.211
324.212
324.218
324.147
324.085
324.015
324.007
323.799
323.667
323.556
323.579
323.735
323.908
324.141
315.278
315.101
314.918
314.808
314.694
314.575
314.55
314.558
314.537
314.513
314.476
314.438
314.425
314.313
314.217
314.164
314.165
314.25
314.366
314.508
305.115
305.063
305.001
304.968
304.924
304.891
304.87
304.877
304.87
304.867
304.849
304.842
304.828
304.799
304.758
304.748
304.758
304.782
304.816
304.87
377.448
376.422
375.49
374.793
374.161
373.724
373.676
373.436
373.374
373.276
373.064
372.94
372.75
372.18
371.981
371.824
371.863
372.299
372.851
373.631
367.098
366.233
365.428
364.79
364.267
363.875
363.824
363.622
363.565
363.492
363.289
363.187
363.02
362.512
362.337
362.187
362.244
362.607
363.094
363.781
356.743
356.03
355.356
354.816
354.381
354.046
353.988
353.84
353.754
353.715
353.528
353.435
353.302
352.865
352.715
352.563
352.632
352.968
353.353
353.939
346.429
345.82
345.281
344.858
344.482
344.23
344.168
344.036
343.962
343.962
343.784
343.696
343.599
343.227
343.11
342.986
343.041
343.333
343.616
344.121
336.123
335.633
335.208
334.916
334.592
334.426
334.359
334.251
334.204
334.217
334.053
333.997
333.919
333.638
333.529
333.406
333.471
333.721
333.91
334.317
325.817
325.455
325.16
324.958
324.72
324.619
324.533
324.458
324.45
324.464
324.337
324.296
324.243
324.057
323.949
323.859
323.923
324.104
324.223
324.519
315.514
315.297
315.124
315.009
314.847
314.815
314.746
314.669
314.698
314.703
314.613
314.6
314.573
314.45
314.374
314.325
314.388
314.495
314.544
314.718
305.203
305.132
305.074
305.029
304.97
304.969
304.944
304.914
304.928
304.931
304.894
304.896
304.886
304.834
304.815
304.791
304.819
304.868
304.87
304.931
)
;

boundaryField
{
    hotSide
    {
        type            fixedGradient;
        gradient        nonuniform List<scalar> 
400
(
518.83
520.502
525.477
533.672
544.764
558.288
573.741
590.667
608.684
627.493
646.868
666.64
686.692
706.942
727.338
747.852
768.474
789.203
810.045
831.003
497.202
499.129
504.59
513.484
525.418
539.842
556.184
573.935
592.688
612.132
632.036
652.237
672.624
693.124
713.697
734.327
755.016
775.776
796.624
817.575
484.379
486.859
492.833
502.186
514.53
529.318
545.978
564.001
582.974
602.579
622.585
642.827
663.196
683.626
704.085
724.564
745.076
765.642
786.286
807.031
479.809
483.12
489.647
499.273
511.664
526.353
542.831
560.628
579.347
598.673
618.371
638.276
658.278
678.316
698.363
718.42
738.504
758.645
778.874
799.217
481.285
485.582
492.736
502.626
514.977
529.406
545.486
562.803
580.988
599.741
618.83
638.095
657.431
676.788
696.148
715.524
734.943
754.442
774.059
793.825
486.301
491.639
499.516
509.798
522.242
536.521
552.266
569.106
586.701
604.767
623.086
641.512
659.962
678.404
696.845
715.317
733.865
752.539
771.382
790.434
492.811
499.189
507.876
518.721
531.484
545.858
561.493
578.033
595.145
612.555
630.063
647.548
664.965
682.324
699.672
717.074
734.602
752.32
770.286
788.54
499.263
506.631
516.175
527.725
541.029
555.769
571.577
588.072
604.9
621.775
638.51
655.026
671.335
687.514
703.67
719.916
736.356
753.074
770.135
787.583
504.451
512.683
523.044
535.351
549.336
564.651
580.882
597.589
614.356
630.86
646.919
662.507
677.72
692.725
707.706
722.831
738.236
754.021
770.256
786.983
507.427
516.283
527.287
540.248
554.887
570.824
587.591
604.669
621.554
637.862
653.406
668.223
682.506
696.521
710.529
724.746
739.332
754.397
770.009
786.205
507.526
516.648
527.964
541.287
556.326
572.682
589.851
607.25
624.306
640.579
655.877
670.276
684.043
697.512
710.991
724.725
738.885
753.587
768.896
784.844
504.476
513.425
524.621
537.875
552.892
569.266
586.483
603.954
621.102
637.483
652.898
667.418
681.301
694.876
708.45
722.27
736.512
751.293
766.685
782.723
498.494
506.837
517.493
530.271
544.873
560.893
577.835
595.155
612.329
628.956
644.835
659.981
674.572
688.866
703.123
717.566
732.368
747.652
763.496
779.946
490.319
497.714
507.534
519.592
533.588
549.121
565.717
582.881
600.152
617.17
633.726
649.774
665.397
680.758
696.051
711.459
727.142
743.223
759.791
776.9
481.189
487.418
496.268
507.563
520.993
536.145
552.55
569.73
587.254
604.785
622.101
639.106
655.811
672.303
688.713
705.187
721.866
738.87
756.294
774.198
472.854
477.82
485.697
496.321
509.356
524.345
540.779
558.165
576.072
594.162
612.205
630.075
647.737
665.23
682.643
700.093
717.708
735.605
753.881
772.601
467.646
471.366
478.342
488.419
501.21
516.178
532.751
550.398
568.672
587.235
605.852
624.384
642.774
661.034
679.226
697.452
715.829
734.477
753.498
772.954
468.382
471.017
477.184
486.736
499.235
514.076
530.628
548.332
566.74
585.514
604.423
623.323
642.148
660.893
679.602
698.362
717.286
736.493
756.083
776.116
477.565
479.425
484.86
493.737
505.624
519.915
535.99
553.299
571.405
589.983
608.802
627.719
646.657
665.595
684.562
703.627
722.887
742.449
762.403
782.798
495.946
497.379
502.148
510.148
521.019
534.255
549.314
565.706
583.026
600.964
619.297
637.874
656.606
675.458
694.437
713.589
732.983
752.699
772.801
793.324
)
;
    }
    coldSide
    {
        type            mixed;
        refValue        uniform 300;
        refGradient     uniform 0;
        valueFraction   uniform 0.991591;
        source          uniform 0;
        value           nonuniform List<scalar> 
400
(
300.028
300.028
300.029
300.029
300.03
300.03
300.031
300.032
300.033
300.034
300.035
300.036
300.037
300.038
300.039
300.04
300.041
300.042
300.043
300.044
300.028
300.028
300.028
300.028
300.029
300.029
300.031
300.031
300.032
300.033
300.034
300.035
300.037
300.037
300.039
300.04
300.041