/*--------------------------------*- C++ -*----------------------------------*\
| =========                 |                                                 |
| \\      /  F ield         | OpenFOAM: The Open Source CFD Toolbox           |
|  \\    /   O peration     | Version:  2212                                  |
|   \\  /    A nd           | Website:  www.openfoam.com                      |
|    \\/     M anipulation  |                                                 |
\*---------------------------------------------------------------------------*/
FoamFile
{
    version     2.0;
    format      ascii;
    arch        "LSB;label=32;scalar=64";
    class       volScalarField;
    location    "0";
    object      T;
}
// * * * * * * * * * * * * * * * * * * * * * * * * * * * * * * * * * * * * * //

dimensions      [0 0 0 1 0 0 0];

internalField   nonuniform List<scalar> 
3200
(
347.652
346.709
345.622
345.347
345.536
346.095
346.753
347.352
347.854
348.051
348.071
347.696
347.214
346.486
345.864
344.982
344.212
344.1
344.891
345.97
341.306
340.571
339.627
339.344
339.502
340.021
340.588
341.109
341.542
341.698
341.691
341.347
340.974
340.315
339.79
339.021
338.326
338.261
338.938
339.813
334.967
334.396
333.585
333.326
333.452
333.914
334.402
334.82
335.205
335.343
335.319
335.014
334.723
334.138
333.693
333.03
332.464
332.393
332.951
333.688
328.628
328.184
327.526
327.261
327.384
327.794
328.186
328.519
328.84
328.966
328.916
328.657
328.437
327.958
327.585
327.03
326.565
326.518
326.962
327.58
322.279
321.951
321.416
321.197
321.301
321.633
321.942
322.209
322.468
322.563
322.531
322.303
322.142
321.757
321.469
321.003
320.667
320.621
320.981
321.469
315.952
315.681
315.316
315.15
315.219
315.481
315.683
315.886
316.07
316.109
316.139
315.933
315.826
315.556
315.325
314.984
314.776
314.715
314.974
315.341
309.594
309.418
309.213
309.083
309.151
309.303
309.418
309.536
309.664
309.661
309.716
309.559
309.503
309.355
309.214
308.987
308.892
308.829
308.99
309.212
303.222
303.162
303.097
303.037
303.072
303.127
303.154
303.2
303.238
303.236
303.255
303.205
303.195
303.136
303.091
303.007
302.988
302.954
303.019
303.085
347.693
346.665
345.82
345.484
345.687
346.33
347.069
347.724
348.238
348.48
348.518
348.199
347.688
346.949
346.052
345.163
344.344
344.287
344.992
346.057
341.376
340.502
339.788
339.512
339.656
340.235
340.837
341.424
341.845
342.054
342.07
341.798
341.369
340.709
339.933
339.168
338.468
338.391
339.013
339.897
335.031
334.326
333.705
333.486
333.601
334.111
334.607
335.076
335.444
335.63
335.611
335.389
335.025
334.446
333.812
333.168
332.578
332.503
333.017
333.736
328.687
328.121
327.588
327.439
327.533
327.954
328.348
328.695
329.024
329.168
329.156
328.959
328.681
328.191
327.699
327.152
326.701
326.606
327.065
327.595
322.353
321.886
321.443
321.369
321.432
321.758
322.094
322.328
322.592
322.68
322.682
322.525
322.326
321.939
321.591
321.127
320.803
320.722
321.084
321.455
315.994
315.643
315.292
315.275
315.337
315.55
315.799
315.963
316.16
316.196
316.193
316.085
315.973
315.696
315.45
315.103
314.892
314.804
315.072
315.314
309.625
309.408
309.169
309.17
309.224
309.341
309.517
309.613
309.738
309.732
309.727
309.654
309.601
309.436
309.285
309.085
308.951
308.883
309.066
309.177
303.231
303.164
303.073
303.082
303.096
303.126
303.193
303.226
303.268
303.271
303.262
303.24
303.225
303.168
303.122
303.049
303.002
302.98
303.038
303.079
347.966
346.86
346.129
345.897
346.054
346.752
347.646
348.204
348.823
349.156
349.314
349.05
348.466
347.663
346.653
345.671
344.897
344.671
345.31
346.204
341.61
340.688
340.075
339.864
339.949
340.586
341.363
341.81
342.333
342.613
342.748
342.518
342.026
341.315
340.452
339.615
338.949
338.733
339.282
340.026
335.256
334.497
333.999
333.791
333.841
334.388
335.057
335.417
335.853
336.07
336.159
335.982
335.568
334.943
334.246
333.533
332.946
332.801
333.243
333.842
328.862
328.279
327.849
327.685
327.699
328.165
328.717
328.988
329.358
329.514
329.598
329.434
329.116
328.553
328.052
327.453
326.978
326.859
327.205
327.677
322.455
322.01
321.68
321.571
321.538
321.936
322.369
322.573
322.846
322.949
323.03
322.886
322.654
322.197
321.853
321.358
320.998
320.918
321.171
321.53
316.062
315.737
315.499
315.419
315.384
315.677
315.997
316.138
316.305
316.37
316.468
316.35
316.191
315.851
315.629
315.27
315.005
314.952
315.132
315.376
309.661
309.465
309.301
309.261
309.245
309.43
309.613
309.683
309.794
309.828
309.905
309.813
309.722
309.508
309.387
309.173
309.029
308.989
309.091
309.234
303.247
303.181
303.12
303.095
303.094
303.158
303.23
303.246
303.286
303.293
303.318
303.291
303.254
303.166
303.152
303.078
303.028
303.016
303.048
303.096
348.507
347.352
346.511
346.223
346.59
347.348
348.27
348.997
349.744
350.213
350.345
349.986
349.388
348.412
347.313
346.417
345.591
345.534
345.814
346.692
342.09
341.134
340.408
340.151
340.444
341.063
341.875
342.509
343.151
343.542
343.667
343.329
342.81
341.956
341.035
340.279
339.535
339.464
339.702
340.447
335.659
334.873
334.274
334.033
334.255
334.791
335.479
336.011
336.533
336.844
336.942
336.677
336.235
335.491
334.765
334.112
333.456
333.401
333.61
334.217
329.2
328.583
328.096
327.902
328.039
328.509
329.067
329.513
329.896
330.152
330.228
330.06
329.644
329.049
328.457
327.914
327.395
327.338
327.503
328.005
322.718
322.243
321.876
321.734
321.818
322.193
322.649
322.997
323.266
323.466
323.505
323.387
323.048
322.599
322.147
321.698
321.314
321.271
321.399
321.808
316.246
315.91
315.661
315.54
315.6
315.865
316.199
316.444
316.614
316.78
316.778
316.706
316.456
316.147
315.831
315.506
315.243
315.206
315.275
315.604
309.762
309.587
309.418
309.351
309.377
309.514
309.727
309.871
309.975
310.081
310.071
310.024
309.864
309.706
309.505
309.312
309.163
309.128
309.171
309.395
303.273
303.211
303.158
303.135
303.141
303.175
303.263
303.316
303.345
303.379
303.383
303.36
303.302
303.26
303.185
303.118
303.075
303.061
303.077
303.165
349.008
347.997
347.157
347.03
347.296
348.193
349.091
349.878
350.659
351.168
351.312
351.134
350.377
349.338
348.268
347.4
346.546
346.351
346.709
347.528
342.513
341.669
340.949
340.833
341.046
341.811
342.615
343.268
343.942
344.374
344.488
344.315
343.654
342.766
341.848
341.115
340.357
340.198
340.483
341.166
336.021
335.288
334.704
334.6
334.767
335.399
336.11
336.633
337.214
337.574
337.661
337.503
336.94
336.215
335.417
334.815
334.162
334.02
334.239
334.823
329.517
328.89
328.435
328.364
328.476
328.975
329.585
329.996
330.465
330.772
330.853
330.705
330.203
329.653
328.979
328.503
327.971
327.843
328.002
328.473
322.985
322.461
322.15
322.092
322.162
322.561
323.044
323.369
323.698
323.939
324.016
323.9
323.497
323.08
322.547
322.185
321.772
321.644
321.776
322.145
316.436
316.051
315.848
315.797
315.823
316.127
316.485
316.713
316.931
317.106
317.172
317.089
316.781
316.499
316.11
315.874
315.579
315.482
315.56
315.828
309.891
309.657
309.529
309.496
309.485
309.679
309.895
310.056
310.166
310.299
310.322
310.266
310.065
309.929
309.679
309.547
309.367
309.3
309.34
309.512
303.323
303.242
303.198
303.18
303.17
303.235
303.322
303.374
303.403
303.461
303.461
303.439
303.366
303.335
303.255
303.198
303.148
303.119
303.122
303.187
349.64
348.757
348.03
347.99
348.349
349.031
349.885
350.835
351.641
352.232
352.469
352.268
351.543
350.452
349.435
348.398
347.689
347.47
347.781
348.54
343.081
342.354
341.702
341.662
341.966
342.534
343.291
344.102
344.794
345.297
345.467
345.33
344.679
343.729
342.852
341.962
341.365
341.147
341.416
342.062
336.509
335.886
335.332
335.283
335.539
335.999
336.647
337.335
337.908
338.326
338.456
338.379
337.815
336.987
336.265
335.52
335.025
334.797
335.048
335.572
329.919
329.382
328.937
328.899
329.049
329.459
329.996
330.575
331.021
331.387
331.452
331.42
330.968
330.273
329.666
329.068
328.681
328.478
328.652
329.097
323.3
322.888
322.527
322.487
322.571
322.915
323.35
323.804
324.123
324.442
324.451
324.448
324.102
323.548
323.09
322.638
322.351
322.177
322.289
322.628
316.675
316.368
316.111
316.078
316.112
316.383
316.701
317.029
317.236
317.475
317.452
317.469
317.229
316.825
316.508
316.189
315.982
315.861
315.939
316.166
310.017
309.842
309.68
309.649
309.688
309.836
310.03
310.244
310.36
310.49
310.48
310.492
310.37
310.101
309.921
309.726
309.6
309.521
309.567
309.72
303.358
303.304
303.245
303.236
303.243
303.294
303.364
303.433
303.484
303.517
303.515
303.506
303.494
303.383
303.326
303.26
303.22
303.192
303.196
303.261
350.661
349.634
349.005
348.941
349.192
349.934
350.85
351.824
352.617
353.34
353.664
353.561
352.821
351.769
350.696
349.617
348.886
348.622
349.002
349.686
343.94
343.121
342.559
342.508
342.681
343.304
344.116
344.956
345.61
346.231
346.505
346.427
345.777
344.87
343.944
343.004
342.398
342.139
342.466
343.026
337.207
336.572
336.053
336.05
336.153
336.649
337.369
338.067
338.622
339.123
339.353
339.284
338.731
337.97
337.193
336.382
335.89
335.667
335.958
336.407
330.454
329.96
329.553
329.557
329.626
330.011
330.592
331.145
331.625
332.022
332.211
332.163
331.706
331.065
330.435
329.777
329.399
329.184
329.427
329.775
323.684
323.321
323.032
323.009
323.085
323.368
323.815
324.238
324.599
324.931
325.05
325.047
324.648
324.159
323.685
323.182
322.897
322.707
322.903
323.165
316.938
316.685
316.486
316.447
316.517
316.715
317.003
317.322
317.565
317.819
317.896
317.895
317.614
317.27
316.923
316.583
316.37
316.225
316.374
316.549
310.173
310.031
309.908
309.878
309.94
310.041
310.202
310.396
310.529
310.692
310.743
310.743
310.585
310.364
310.175
309.971
309.844
309.741
309.828
309.96
303.409
303.359
303.325
303.308
303.337
303.357
303.418
303.485
303.525
303.582
303.601
303.603
303.547
303.473
303.408
303.345
303.3
303.265
303.289
303.33
351.624
350.747
350.135
349.898
350.252
350.947
351.929
352.899
353.778
354.528
354.866
354.687
354.069
353.026
351.98
350.887
350.176
349.884
350.117
350.77
344.775
344.06
343.52
343.326
343.59
344.205
345.05
345.872
346.612
347.272
347.556
347.412
346.849
345.976
345.043
344.124
343.513
343.23
343.434
343.957
337.906
337.381
336.891
336.698
336.925
337.436
338.155
338.842
339.443
340
340.237
340.141
339.651
338.929
338.111
337.36
336.856
336.575
336.766
337.167
331.048
330.63
330.232
330.052
330.238
330.67
331.242
331.801
332.288
332.731
332.924
332.861
332.452
331.867
331.218
330.574
330.164
329.914
330.114
330.415
324.193
323.865
323.564
323.369
323.541
323.881
324.309
324.761
325.145
325.443
325.628
325.564
325.247
324.787
324.278
323.797
323.467
323.285
323.435
323.659
317.303
317.078
316.859
316.698
316.831
317.067
317.368
317.705
317.974
318.176
318.313
318.271
318.032
317.714
317.332
316.989
316.784
316.641
316.745
316.919
310.389
310.257
310.137
310.024
310.089
310.249
310.454
310.636
310.801
310.917
310.999
310.961
310.823
310.638
310.421
310.201
310.088
310.004
310.059
310.186
303.488
303.436
303.396
303.354
303.377
303.429
303.506
303.564
303.625
303.657
303.685
303.679
303.616
303.568
303.501
303.431
303.388
303.351
303.372
303.428
352.541
351.772
351.138
351.079
351.354
352.061
352.988
353.967
354.964
355.685
356.021
355.9
355.238
354.249
353.204
352.256
351.511
351.174
351.4
352.004
345.556
344.922
344.4
344.324
344.549
345.171
345.954
346.813
347.659
348.253
348.555
348.447
347.873
346.998
346.099
345.313
344.653
344.348
344.517
345.016
338.562
338.071
337.639
337.541
337.744
338.267
338.914
339.654
340.348
340.827
341.091
340.994
340.494
339.751
339.009
338.345
337.775
337.54
337.632
338.087
331.573
331.2
330.842
330.753
330.891
331.348
331.851
332.487
333.041
333.4
333.625
333.554
333.112
332.51
331.901
331.387
330.893
330.722
330.762
331.167
324.585
324.313
324.034
323.95
324.027
324.407
324.78
325.29
325.699
325.979
326.162
326.117
325.75
325.284
324.803
324.425
324.03
323.907
323.918
324.242
317.559
317.403
317.193
317.134
317.182
317.438
317.724
318.08
318.387
318.564
318.688
318.673
318.395
318.089
317.733
317.446
317.175
317.088
317.09
317.32
310.55
310.462
310.339
310.296
310.321
310.479
310.669
310.859
311.063
311.16
311.247
311.222
311.031
310.866
310.66
310.479
310.337
310.253
310.258
310.404
303.535
303.5
303.459
303.464
303.47
303.511
303.583
303.646
303.708
303.742
303.762
303.757
303.692
303.645
303.582
303.512
303.48
303.437
303.443
303.485
353.705
352.991
352.363
352.185
352.616
353.353
354.303
355.043
356.007
356.84
357.161
357.03
356.406
355.409
354.47
353.572
352.906
352.513
352.796
353.443
346.587
345.973
345.437
345.272
345.659
346.284
347.102
347.741
348.56
349.269
349.539
349.416
348.887
348.016
347.229
346.419
345.827
345.492
345.719
346.281
339.43
338.937
338.516
338.353
338.665
339.199
339.875
340.423
341.081
341.692
341.922
341.812
341.366
340.638
339.97
339.264
338.759
338.509
338.654
339.133
332.26
331.878
331.589
331.413
331.664
332.096
332.618
333.103
333.618
334.11
334.325
334.208
333.865
333.24
332.736
332.134
331.718
331.51
331.602
332.006
325.095
324.821
324.619
324.459
324.641
324.978
325.368
325.782
326.131
326.533
326.696
326.629
326.334
325.849
325.471
324.997
324.683
324.518
324.565
324.876
317.941
317.753
317.623
317.498
317.591
317.834
318.127
318.451
318.664
318.96
319.08
319.038
318.819
318.453
318.199
317.869
317.636
317.509
317.547
317.749
310.779
310.679
310.604
310.513
310.563
310.714
310.88
311.081
311.228
311.389
311.464
311.44
311.301
311.074
310.935
310.754
310.597
310.5
310.543
310.651
303.615
303.572
303.555
303.518
303.547
303.594
303.648
303.71
303.773
303.814
303.843
303.823
303.785
303.721
303.671
303.6
303.555
303.528
303.528
303.569
354.897
354.074
353.616
353.427
353.718
354.419
355.392
356.164
357.098
357.784
358.173
358.009
357.521
356.688
355.681
354.938
354.172
353.965
354.249
354.833
347.583
346.913
346.531
346.353
346.622
347.198
348.07
348.69
349.52
350.051
350.406
350.247
349.859
349.129
348.272
347.6
346.928
346.767
346.994
347.478
340.265
339.73
339.39
339.244
339.488
339.958
340.693
341.202
341.92
342.341
342.634
342.494
342.207
341.578
340.86
340.268
339.694
339.576
339.756
340.128
332.942
332.533
332.267
332.136
332.348
332.713
333.308
333.723
334.321
334.644
334.876
334.762
334.55
334.029
333.438
332.933
332.493
332.388
332.513
332.809
325.621
325.328
325.124
325.021
325.18
325.441
325.916
326.235
326.736
326.957
327.125
327.043
326.888
326.466
326.018
325.595
325.283
325.192
325.288
325.494
318.309
318.12
317.967
317.884
318
318.171
318.514
318.763
319.124
319.259
319.367
319.297
319.228
318.907
318.593
318.285
318.072
318.013
318.039
318.196
310.994
310.888
310.792
310.735
310.809
310.901
311.106
311.279
311.493
311.576
311.624
311.585
311.546
311.363
311.162
310.983
310.862
310.824
310.825
310.946
303.682
303.65
303.611
303.606
303.616
303.65
303.721
303.783
303.858
303.881
303.89
303.885
303.864
303.816
303.733
303.692
303.639
303.635
303.628
303.677
356.125
355.45
354.873
354.713
354.891
355.487
356.364
357.187
358.056
358.771
359.176
359.078
358.617
357.786
356.837
356.138
355.506
355.344
355.661
356.373
348.674
348.117
347.597
347.488
347.603
348.113
348.884
349.612
350.338
350.948
351.267
351.18
350.797
350.08
349.227
348.661
348.087
347.927
348.209
348.772
341.217
340.748
340.298
340.227
340.289
340.728
341.376
342.016
342.64
343.115
343.376
343.309
342.974
342.38
341.635
341.172
340.682
340.55
340.771
341.212
333.738
333.358
332.998
332.957
332.994
333.337
333.882
334.407
334.917
335.283
335.465
335.442
335.152
334.681
334.028
333.696
333.274
333.181
333.361
333.679
326.235
325.939
325.673
325.643
325.684
325.951
326.369
326.775
327.194
327.447
327.571
327.582
327.35
326.985
326.451
326.22
325.876
325.814
325.94
326.155
318.753
318.532
318.344
318.324
318.355
318.545
318.838
319.136
319.44
319.619
319.695
319.702
319.547
319.288
318.906
318.747
318.472
318.439
318.517
318.674
311.26
311.14
311.024
311.006
311.04
311.153
311.308
311.503
311.677
311.785
311.82
311.828
311.729
311.582
311.359
311.257
311.077
311.071
311.12
311.22
303.779
303.742
303.689
303.695
303.704
303.743
303.79
303.862
303.918
303.955
303.969
303.96
303.93
303.875
303.81
303.777
303.714
303.708
303.73
303.77
357.413
356.691
356.127
355.911
356.135
356.649
357.41
358.273
359.022
359.682
359.88
359.921
359.468
358.865
357.888
357.304
356.834
356.693
357.102
357.655
349.781
349.203
348.717
348.512
348.703
349.133
349.803
350.536
351.167
351.764
351.898
351.921
351.543
351.016
350.161
349.639
349.235
349.097
349.442
349.891
342.151
341.681
341.285
341.075
341.237
341.602
342.17
342.793
343.308
343.816
343.92
343.912
343.596
343.178
342.435
341.975
341.63
341.514
341.801
342.185
334.51
334.141
333.825
333.633
333.766
334.072
334.518
335.035
335.439
335.867
335.968
335.948
335.637
335.333
334.713
334.321
334.055
333.953
334.171
334.509
326.85
326.593
326.34
326.168
326.289
326.528
326.864
327.271
327.569
327.915
327.994
327.991
327.697
327.476
327.006
326.679
326.491
326.388
326.577
326.829
319.185
319.022
318.831
318.7
318.791
318.972
319.212
319.504
319.702
319.948
320.046
320.018
319.781
319.629
319.3
319.056
318.916
318.852
318.972
319.159
311.518
311.439
311.313
311.241
311.29
311.378
311.545
311.725
311.827
311.991
312.047
312.028
311.866
311.813
311.6
311.439
311.364
311.339
311.392
311.489
303.864
303.832
303.792
303.768
303.793
303.817
303.872
303.933
303.975
304.012
304.041
304.035
303.985
303.964
303.898
303.819
303.804
303.801
303.813
303.843
358.677
357.972
357.392
357.127
357.251
357.825
358.516
359.22
360.024
360.535
360.829
360.775
360.372
359.819
359.029
358.468
358.086
358.103
358.411
358.993
350.888
350.301
349.803
349.564
349.677
350.166
350.751
351.351
352.031
352.468
352.705
352.667
352.313
351.871
351.148
350.641
350.336
350.314
350.591
351.051
343.086
342.597
342.199
341.981
342.078
342.465
342.982
343.486
344.015
344.407
344.577
344.543
344.266
343.901
343.287
342.831
342.584
342.552
342.777
343.169
335.279
334.884
334.534
334.404
334.475
334.76
335.177
335.631
336.017
336.343
336.462
336.446
336.215
335.924
335.432
335.023
334.849
334.807
334.987
335.314
327.46
327.153
326.891
326.794
326.829
327.041
327.388
327.756
328.022
328.28
328.35
328.342
328.159
327.947
327.562
327.244
327.12
327.058
327.192
327.448
319.63
319.421
319.23
319.148
319.176
319.327
319.582
319.849
320.032
320.218
320.242
320.249
320.095
319.982
319.693
319.444
319.394
319.308
319.42
319.602
311.786
311.672
311.548
311.489
311.514
311.607
311.772
311.917
312.026
312.156
312.156
312.157
312.048
312.02
311.829
311.67
311.651
311.586
311.67
311.766
303.942
303.912
303.866
303.846
303.848
303.895
303.939
303.995
304.035
304.084
304.072
304.078
304.044
304.042
303.965
303.915
303.905
303.888
303.914
303.938
359.908
359.257
358.765
358.447
358.491
358.934
359.58
360.273
360.901
361.411
361.651
361.579
361.412
360.834
360.236
359.773
359.446
359.466
359.941
360.36
351.961
351.419
351.007
350.698
350.729
351.11
351.678
352.257
352.818
353.223
353.432
353.372
353.201
352.723
352.201
351.788
351.506
351.507
351.913
352.258
344.014
343.559
343.19
342.937
342.962
343.248
343.766
344.243
344.716
345.03
345.199
345.161
344.976
344.611
344.148
343.808
343.571
343.562
343.914
344.167
336.015
335.676
335.341
335.139
335.171
335.388
335.829
336.235
336.603
336.857
336.962
336.958
336.771
336.501
336.093
335.834
335.639
335.645
335.919
336.127
328.012
327.792
327.512
327.346
327.364
327.522
327.887
328.2
328.484
328.676
328.724
328.766
328.576
328.379
328.078
327.86
327.702
327.721
327.923
328.091
320
319.865
319.658
319.544
319.572
319.674
319.942
320.168
320.354
320.48
320.522
320.567
320.428
320.277
320.074
319.899
319.776
319.796
319.945
320.061
312.02
311.936
311.814
311.732
311.764
311.845
311.997
312.125
312.228
312.284
312.329
312.349
312.27
312.197
312.052
311.928
311.879
311.859
311.984
312.04
304.035
304.002
303.96
303.925
303.945
303.972
304.02
304.067
304.099
304.112
304.134
304.134
304.11
304.087
304.051
303.992
303.987
303.967
304.018
304.036
361.028
360.542
360.026
359.732
359.752
360.143
360.623
361.303
361.883
362.341
362.466
362.478
362.288
361.811
361.373
361.058
360.784
360.827
361.326
361.911
352.905
352.536
352.111
351.831
351.869
352.173
352.588
353.154
353.65
354.064
354.137
354.143
353.97
353.537
353.157
352.893
352.664
352.688
353.118
353.57
344.77
344.504
344.152
343.9
343.948
344.182
344.545
345.008
345.41
345.765
345.846
345.799
345.651
345.275
344.956
344.75
344.557
344.581
344.919
345.277
336.635
336.443
336.16
335.952
336.004
336.162
336.467
336.832
337.179
337.486
337.51
337.476
337.341
337.047
336.766
336.613
336.437
336.486
336.739
337.032
328.5
328.357
328.153
327.978
328.044
328.169
328.376
328.662
328.938
329.174
329.182
329.155
329.047
328.819
328.595
328.461
328.337
328.402
328.581
328.781
320.362
320.269
320.121
319.991
320.052
320.148
320.281
320.471
320.688
320.851
320.847
320.838
320.758
320.588
320.433
320.334
320.231
320.308
320.416
320.55
312.231
312.182
312.084
312.018
312.039
312.107
312.184
312.316
312.421
312.534
312.503
312.505
312.453
312.366
312.267
312.223
312.146
312.204
312.258
312.35
304.09
304.076
304.043
304.027
304.033
304.055
304.078
304.132
304.161
304.212
304.185
304.186
304.167
304.145
304.105
304.1
304.075
304.106
304.102
304.143
362.457
361.793
361.371
361.047
361.004
361.286
361.731
362.217
362.748
363.213
363.351
363.468
363.143
362.82
362.46
362.255
362.136
362.269
362.74
363.328
354.139
353.596
353.274
352.967
352.912
353.146
353.523
353.949
354.384
354.782
354.893
355.005
354.7
354.421
354.142
353.921
353.833
353.917
354.34
354.833
345.838
345.389
345.14
344.87
344.802
344.972
345.311
345.662
346.028
346.36
346.443
346.532
346.3
346.037
345.82
345.605
345.531
345.607
345.979
346.366
337.552
337.167
336.954
336.73
336.668
336.806
337.087
337.362
337.673
337.976
338.004
338.049
337.914
337.681
337.487
337.295
337.244
337.282
337.63
337.915
329.245
328.954
328.762
328.56
328.541
328.656
328.863
329.057
329.326
329.557
329.569
329.589
329.518
329.305
329.156
328.996
328.963
328.971
329.288
329.46
320.904
320.71
320.55
320.404
320.417
320.469
320.633
320.768
320.957
321.13
321.132
321.132
321.081
320.929
320.851
320.713
320.69
320.704
320.944
321.053
312.563
312.445
312.345
312.228
312.282
312.303
312.39
312.486
312.581
312.701
312.699
312.69
312.645
312.563
312.529
312.43
312.435
312.428
312.577
312.652
304.213
304.175
304.136
304.101
304.12
304.129
304.158
304.2
304.215
304.25
304.252
304.254
304.246
304.212
304.208
304.171
304.175
304.168
304.205
304.238
363.873
363.162
362.544
362.251
362.255
362.486
362.846
363.197
363.739
364.159
364.336
364.349
364.083
363.904
363.665
363.488
363.397
363.647
364.104
364.702
355.368
354.786
354.257
353.981
354.011
354.158
354.508
354.772
355.258
355.623
355.755
355.769
355.508
355.34
355.161
355.007
354.916
355.117
355.506
355.999
346.864
346.368
345.959
345.687
345.72
345.838
346.154
346.333
346.78
347.072
347.177
347.168
346.966
346.802
346.675
346.533
346.441
346.593
346.948
347.344
338.376
337.953
337.663
337.364
337.415
337.5
337.788
337.902
338.285
338.533
338.598
338.55
338.434
338.269
338.199
338.072
337.982
338.091
338.384
338.71
329.859
329.528
329.349
329.061
329.105
329.178
329.418
329.462
329.788
329.99
330.038
329.984
329.907
329.745
329.716
329.599
329.531
329.613
329.837
330.084
321.342
321.084
320.993
320.766
320.807
320.853
321.046
321.057
321.282
321.432
321.455
321.422
321.371
321.247
321.237
321.132
321.095
321.153
321.327
321.499
312.806
312.657
312.627
312.486
312.503
312.525
312.65
312.656
312.782
312.876
312.887
312.846
312.85
312.766
312.768
312.682
312.659
312.684
312.797
312.926
304.294
304.234
304.238
304.182
304.199
304.195
304.241
304.25
304.277
304.317
304.324
304.308
304.3
304.286
304.281
304.25
304.246
304.247
304.292
304.327
365.021
364.529
363.78
363.353
363.364
363.458
363.889
364.287
364.765
365.032
365.156
365.139
365.015
364.794
364.698
364.545
364.646
364.926
365.395
366.111
356.333
355.935
355.31
354.899
354.946
355.007
355.372
355.708
356.131
356.346
356.436
356.419
356.318
356.088
356.043
355.908
355.99
356.177
356.619
357.212
347.654
347.349
346.837
346.463
346.502
346.552
346.866
347.135
347.48
347.647
347.696
347.71
347.62
347.417
347.411
347.273
347.354
347.477
347.852
348.351
338.982
338.764
338.328
338.048
338.056
338.083
338.361
338.547
338.817
338.991
338.966
338.998
338.917
338.755
338.784
338.655
338.718
338.805
339.117
339.506
330.314
330.161
329.816
329.624
329.584
329.631
329.84
329.966
330.168
330.326
330.285
330.281
330.259
330.141
330.167
330.064
330.111
330.181
330.388
330.699
321.66
321.565
321.311
321.17
321.131
321.169
321.306
321.395
321.542
321.666
321.643
321.618
321.618
321.526
321.536
321.483
321.51
321.582
321.704
321.911
313.007
312.942
312.794
312.72
312.679
312.715
312.782
312.84
312.935
313.022
312.991
312.967
312.984
312.913
312.933
312.894
312.909
312.961
313.028
313.147
304.354
304.341
304.286
304.265
304.255
304.262
304.284
304.302
304.333
304.373
304.354
304.345
304.363
304.334
304.34
304.315
304.326
304.345
304.369
304.409
366.147
365.494
364.666
364.216
364.198
364.222
364.559
364.981
365.431
365.594
365.768
365.555
365.742
365.566
365.504
365.391
365.514
365.815
366.313
367.101
357.284
356.739
356.061
355.607
355.618
355.64
355.897
356.286
356.657
356.796
356.936
356.728
356.892
356.742
356.686
356.586
356.67
356.898
357.331
358.013
348.427
347.999
347.452
347.024
347.062
347.063
347.289
347.59
347.904
348.019
348.123
347.944
348.072
347.966
347.908
347.811
347.889
348.041
348.416
349.002
339.592
339.268
338.82
338.479
338.486
338.48
338.685
338.901
339.16
339.266
339.338
339.179
339.321
339.204
339.161
339.073
339.168
339.262
339.55
340.055
330.781
330.55
330.183
329.928
329.927
329.92
330.086
330.232
330.446
330.537
330.565
330.449
330.574
330.466
330.456
330.362
330.456
330.523
330.729
331.133
321.986
321.844
321.567
321.387
321.386
321.385
321.493
321.585
321.749
321.817
321.818
321.726
321.864
321.768
321.775
321.688
321.754
321.817
321.927
322.252
313.187
313.132
312.959
312.843
312.851
312.843
312.882
312.944
313.059
313.094
313.112
313.021
313.153
313.08
313.068
313.014
313.074
313.109
313.164
313.361
304.415
304.402
304.344
304.303
304.301
304.303
304.312
304.327
304.376
304.396
304.4
304.355
304.408
304.384
304.377
304.361
304.376
304.396
304.408
304.481
)
;

boundaryField
{
    hotSide
    {
        type            fixedGradient;
        gradient        nonuniform List<scalar> 
400
(
507.045
505.841
507.233
511.149
517.329
525.398
534.959
545.651
557.18
569.321
581.915
594.862
608.109
621.65
635.516
649.776
664.519
679.843
695.822
712.485
489.777
488.856
490.71
495.25
502.158
510.989
521.285
532.644
544.747
557.358
570.315
583.52
596.926
610.537
624.398
638.597
653.247
668.472
684.37
700.985
479.982
479.63
482.017
487.045
494.393
503.62
514.263
525.918
538.259
551.046
564.114
577.364
590.754
604.293
618.035
632.074
646.531
661.537
677.195
693.554
477.18
477.663
480.668
486.09
493.652
502.969
513.629
525.255
537.532
550.222
563.159
576.243
589.435
602.748
616.238
629.999
644.147
658.799
674.052
689.957
479.539
481.026
484.759
490.625
498.388
507.73
518.299
529.757
541.812
554.234
566.862
579.601
592.416
605.326
618.395
631.713
645.387
659.524
674.21
689.498
484.963
487.538
492.12
498.582
506.709
516.22
526.804
538.152
549.989
562.096
574.319
586.578
598.853
611.181
623.637
636.32
649.34
662.797
676.776
691.332
491.695
495.387
500.924
508.16
516.878
526.804
537.631
549.053
560.792
572.63
584.424
596.115
607.716
619.297
630.966
642.845
655.057
667.708
680.887
694.652
498.345
503.13
509.68
517.832
527.352
537.947
549.282
561.015
572.837
584.51
595.897
606.974
617.805
628.522
639.283
650.251
661.573
673.367
685.726
698.709
503.785
509.55
517.078
526.192
536.638
548.086
560.15
572.42
584.515
596.153
607.196
617.665
627.704
637.528
647.369
657.435
667.901
678.898
690.518
702.819
507.087
513.602
521.932
531.893
543.215
555.536
568.407
581.333
593.841
605.578
616.396
626.373
635.747
644.828
653.919
663.272
673.081
683.484
694.568
706.387
507.579
514.488
523.282
533.778
545.696
558.652
572.156
585.648
598.577
610.531
621.35
631.151
640.24
648.99
657.748
666.792
676.324
686.482
697.351
708.979
504.964
511.825
520.637
531.218
543.281
556.432
570.173
583.935
597.16
609.431
620.58
630.709
640.115
649.162
658.192
667.48
677.23
687.581
698.621
710.4
499.427
505.801
514.199
524.433
536.215
549.153
562.768
576.532
589.947
602.634
614.422
625.355
635.646
645.582
655.454
665.511
675.95
686.911
698.492
710.749
491.66
497.202
504.876
514.5
525.783
538.34
551.719
565.445
579.081
592.295
604.904
616.89
628.365
639.519
650.57
661.727
673.167
685.032
697.424
710.411
482.842
487.33
494.135
503.084
513.883
526.139
539.406
553.234
567.22
581.053
594.54
607.61
620.298
632.717
645.017
657.364
669.916
682.806
696.143
709.998
474.629
477.962
483.885
492.239
502.704
514.851
528.205
542.303
556.746
571.227
585.541
599.586
613.349
626.891
640.316
653.758
667.357
681.242
695.522
710.269
469.211
471.404
476.51
484.38
494.65
506.822
520.361
534.776
549.655
564.69
579.672
594.483
609.088
623.513
637.836
652.169
666.641
681.381
696.498
712.062
469.223
470.424
474.799
482.208
492.242
504.34
517.918
532.461
547.554
562.891
578.266
593.555
608.709
623.737
638.695
653.68
668.812
684.216
699.999
716.228
476.999
477.498
481.215
488.028
497.532
509.17
522.366
536.615
551.515
566.77
582.174
597.602
612.992
628.336
643.675
659.085
674.668
690.536
706.786
723.471
493.251
493.37
496.496
502.527
511.134
521.845
534.162
547.633
561.888
576.645
591.702
606.927
622.246
637.636
653.115
668.733
684.569
700.704
717.21
734.127
)
;
    }
    coldSide
    {
        type            mixed;
        refValue        uniform 300;
        refGradient     uniform 0;
        valueFraction   uniform 0.991591;
        source          uniform 0;
        value           nonuniform List<scalar> 
400
(
300.027
300.027
300.027
300.028
300.028
300.028
300.029
300.029
300.03
300.03
300.031
300.032
300.032
300.033
300.034
300.034
300.035
300.036
300.037
300.037
300.027
300.027
300.027
300.027
300.027
300.028
300.028
300.029
300.029
300.03
300.031
300.031
300.032
300.033
300.034
300.034
300.035
300.036
300.037