/*--------------------------------*- C++ -*----------------------------------*\
| =========                 |                                                 |
| \\      /  F ield         | OpenFOAM: The Open Source CFD Toolbox           |
|  \\    /   O peration     | Version:  2212                                  |
|   \\  /    A nd           | Website:  www.openfoam.com                      |
|    \\/     M anipulation  |                                                 |
\*---------------------------------------------------------------------------*/
FoamFile
{
    version     2.0;
    format      ascii;
    arch        "LSB;label=32;scalar=64";
    class       volScalarField;
    location    "0";
    object      Tdirect;
}
// * * * * * * * * * * * * * * * * * * * * * * * * * * * * * * * * * * * * * //

dimensions      [0 0 0 1 0 0 0];

internalField   nonuniform List<scalar> 
3200
(
348.495
349.209
350.122
351.116
352.14
353.145
354.073
354.857
355.427
355.729
355.729
355.427
354.857
354.073
353.145
352.14
351.116
350.122
349.209
348.495
342.046
342.651
343.438
344.298
345.185
346.054
346.856
347.533
348.026
348.286
348.286
348.026
347.533
346.856
346.054
345.185
344.298
343.438
342.651
342.046
335.591
336.093
336.756
337.483
338.232
338.967
339.644
340.215
340.631
340.851
340.851
340.631
340.215
339.644
338.967
338.232
337.483
336.756
336.093
335.591
329.132
329.536
330.076
330.67
331.282
331.883
332.436
332.902
333.242
333.421
333.421
333.242
332.902
332.436
331.883
331.282
330.67
330.076
329.536
329.132
322.668
322.978
323.398
323.859
324.335
324.801
325.231
325.593
325.857
325.996
325.996
325.857
325.593
325.231
324.801
324.335
323.859
323.398
322.978
322.668
316.201
316.421
316.72
317.049
317.389
317.722
318.029
318.288
318.476
318.575
318.575
318.476
318.288
318.029
317.722
317.389
317.049
316.72
316.421
316.201
309.733
309.864
310.043
310.241
310.445
310.645
310.829
310.984
311.097
311.156
311.156
311.097
310.984
310.829
310.645
310.445
310.241
310.043
309.864
309.733
303.263
303.306
303.366
303.433
303.501
303.568
303.63
303.682
303.72
303.74
303.74
303.72
303.682
303.63
303.568
303.501
303.433
303.366
303.306
303.263
348.651
349.36
350.264
351.249
352.263
353.257
354.174
354.948
355.511
355.809
355.809
355.511
354.948
354.174
353.257
352.263
351.249
350.264
349.36
348.651
342.181
342.781
343.562
344.414
345.291
346.151
346.944
347.612
348.099
348.356
348.356
348.099
347.612
346.944
346.151
345.291
344.414
343.562
342.781
342.181
335.706
336.203
336.861
337.581
338.322
339.049
339.718
340.283
340.693
340.91
340.91
340.693
340.283
339.718
339.049
338.322
337.581
336.861
336.203
335.706
329.225
329.626
330.162
330.75
331.356
331.95
332.497
332.957
333.292
333.469
333.469
333.292
332.957
332.497
331.95
331.356
330.75
330.162
329.626
329.225
322.741
323.048
323.464
323.921
324.392
324.854
325.279
325.636
325.896
326.034
326.034
325.896
325.636
325.279
324.854
324.392
323.921
323.464
323.048
322.741
316.253
316.471
316.767
317.094
317.43
317.76
318.063
318.318
318.504
318.602
318.602
318.504
318.318
318.063
317.76
317.43
317.094
316.767
316.471
316.253
309.764
309.894
310.071
310.267
310.469
310.667
310.849
311.003
311.114
311.173
311.173
311.114
311.003
310.849
310.667
310.469
310.267
310.071
309.894
309.764
303.273
303.317
303.376
303.442
303.509
303.576
303.637
303.688
303.725
303.745
303.745
303.725
303.688
303.637
303.576
303.509
303.442
303.376
303.317
303.273
348.964
349.662
350.551
351.518
352.511
353.484
354.38
355.134
355.683
355.973
355.973
355.683
355.134
354.38
353.484
352.511
351.518
350.551
349.662
348.964
342.452
343.043
343.81
344.646
345.506
346.348
347.122
347.774
348.248
348.498
348.498
348.248
347.774
347.122
346.348
345.506
344.646
343.81
343.043
342.452
335.935
336.424
337.071
337.777
338.504
339.215
339.869
340.42
340.82
341.031
341.031
340.82
340.42
339.869
339.215
338.504
337.777
337.071
336.424
335.935
329.412
329.807
330.333
330.911
331.505
332.086
332.62
333.07
333.396
333.569
333.569
333.396
333.07
332.62
332.086
331.505
330.911
330.333
329.807
329.412
322.886
323.189
323.597
324.046
324.508
324.96
325.375
325.724
325.977
326.111
326.111
325.977
325.724
325.375
324.96
324.508
324.046
323.597
323.189
322.886
316.357
316.571
316.863
317.183
317.513
317.835
318.132
318.381
318.562
318.657
318.657
318.562
318.381
318.132
317.835
317.513
317.183
316.863
316.571
316.357
309.826
309.954
310.129
310.321
310.519
310.713
310.891
311.04
311.149
311.206
311.206
311.149
311.04
310.891
310.713
310.519
310.321
310.129
309.954
309.826
303.294
303.337
303.395
303.46
303.526
303.591
303.651
303.701
303.737
303.756
303.756
303.737
303.701
303.651
303.591
303.526
303.46
303.395
303.337
303.294
349.436
350.117
350.984
351.925
352.889
353.83
354.695
355.423
355.951
356.23
356.23
355.951
355.423
354.695
353.83
352.889
351.925
350.984
350.117
349.436
342.86
343.437
344.185
344.999
345.833
346.648
347.396
348.025
348.481
348.722
348.722
348.481
348.025
347.396
346.648
345.833
344.999
344.185
343.437
342.86
336.279
336.758
337.388
338.075
338.781
339.469
340.101
340.632
341.017
341.22
341.22
341.017
340.632
340.101
339.469
338.781
338.075
337.388
336.758
336.279
329.694
330.079
330.592
331.154
331.731
332.294
332.81
333.244
333.558
333.724
333.724
333.558
333.244
332.81
332.294
331.731
331.154
330.592
330.079
329.694
323.105
323.401
323.799
324.236
324.684
325.121
325.522
325.859
326.103
326.232
326.232
326.103
325.859
325.522
325.121
324.684
324.236
323.799
323.401
323.105
316.513
316.723
317.007
317.318
317.639
317.951
318.237
318.478
318.652
318.744
318.744
318.652
318.478
318.237
317.951
317.639
317.318
317.007
316.723
316.513
309.92
310.045
310.215
310.402
310.595
310.782
310.954
311.098
311.203
311.258
311.258
311.203
311.098
310.954
310.782
310.595
310.402
310.215
310.045
309.92
303.325
303.367
303.424
303.487
303.551
303.614
303.672
303.72
303.755
303.774
303.774
303.755
303.72
303.672
303.614
303.551
303.487
303.424
303.367
303.325
350.068
350.729
351.567
352.474
353.401
354.303
355.13
355.823
356.326
356.591
356.591
356.326
355.823
355.13
354.303
353.401
352.474
351.567
350.729
350.068
343.407
343.966
344.689
345.474
346.276
347.057
347.773
348.372
348.807
349.035
349.035
348.807
348.372
347.773
347.057
346.276
345.474
344.689
343.966
343.407
336.741
337.205
337.814
338.477
339.156
339.816
340.42
340.926
341.293
341.486
341.486
341.293
340.926
340.42
339.816
339.156
338.477
337.814
337.205
336.741
330.071
330.445
330.941
331.483
332.038
332.577
333.071
333.485
333.784
333.942
333.942
333.784
333.485
333.071
332.577
332.038
331.483
330.941
330.445
330.071
323.398
323.685
324.07
324.491
324.922
325.342
325.725
326.047
326.279
326.402
326.402
326.279
326.047
325.725
325.342
324.922
324.491
324.07
323.685
323.398
316.723
316.926
317.2
317.501
317.809
318.108
318.382
318.612
318.778
318.865
318.865
318.778
318.612
318.382
318.108
317.809
317.501
317.2
316.926
316.723
310.046
310.167
310.331
310.512
310.697
310.877
311.041
311.179
311.278
311.331
311.331
311.278
311.179
311.041
310.877
310.697
310.512
310.331
310.167
310.046
303.368
303.408
303.463
303.524
303.586
303.646
303.701
303.747
303.781
303.798
303.798
303.781
303.747
303.701
303.646
303.586
303.524
303.463
303.408
303.368
350.864
351.5
352.304
353.171
354.054
354.911
355.694
356.348
356.821
357.07
357.07
356.821
356.348
355.694
354.911
354.054
353.171
352.304
351.5
350.864
344.095
344.634
345.328
346.078
346.843
347.584
348.261
348.827
349.236
349.451
349.451
349.236
348.827
348.261
347.584
346.843
346.078
345.328
344.634
344.095
337.323
337.769
338.354
338.988
339.635
340.261
340.833
341.311
341.656
341.838
341.838
341.656
341.311
340.833
340.261
339.635
338.988
338.354
337.769
337.323
330.546
330.906
331.382
331.901
332.429
332.942
333.409
333.8
334.082
334.23
334.23
334.082
333.8
333.409
332.942
332.429
331.901
331.382
330.906
330.546
323.767
324.043
324.413
324.816
325.227
325.625
325.989
326.292
326.511
326.626
326.626
326.511
326.292
325.989
325.625
325.227
324.816
324.413
324.043
323.767
316.986
317.182
317.445
317.733
318.027
318.311
318.57
318.787
318.943
319.026
319.026
318.943
318.787
318.57
318.311
318.027
317.733
317.445
317.182
316.986
310.204
310.32
310.479
310.651
310.828
310.998
311.154
311.284
311.378
311.427
311.427
311.378
311.284
311.154
310.998
310.828
310.651
310.479
310.32
310.204
303.421
303.459
303.512
303.57
303.629
303.687
303.739
303.782
303.814
303.83
303.83
303.814
303.782
303.739
303.687
303.629
303.57
303.512
303.459
303.421
351.826
352.433
353.2
354.023
354.858
355.664
356.398
357.009
357.45
357.681
357.681
357.45
357.009
356.398
355.664
354.858
354.023
353.2
352.433
351.826
344.927
345.442
346.103
346.816
347.538
348.236
348.871
349.4
349.781
349.981
349.981
349.781
349.4
348.871
348.236
347.538
346.816
346.103
345.442
344.927
338.025
338.452
339.009
339.612
340.223
340.813
341.349
341.796
342.118
342.287
342.287
342.118
341.796
341.349
340.813
340.223
339.612
339.009
338.452
338.025
331.121
331.464
331.919
332.411
332.911
333.393
333.832
334.197
334.46
334.598
334.598
334.46
334.197
333.832
333.393
332.911
332.411
331.919
331.464
331.121
324.214
324.477
324.83
325.213
325.601
325.976
326.317
326.601
326.805
326.912
326.912
326.805
326.601
326.317
325.976
325.601
325.213
324.83
324.477
324.214
317.305
317.492
317.743
318.016
318.294
318.562
318.805
319.008
319.154
319.23
319.23
319.154
319.008
318.805
318.562
318.294
318.016
317.743
317.492
317.305
310.395
310.507
310.657
310.821
310.988
311.149
311.295
311.417
311.504
311.55
311.55
311.504
311.417
311.295
311.149
310.988
310.821
310.657
310.507
310.395
303.485
303.522
303.572
303.627
303.683
303.737
303.786
303.827
303.856
303.872
303.872
303.856
303.827
303.786
303.737
303.683
303.627
303.572
303.522
303.485
352.957
353.534
354.26
355.036
355.819
356.572
357.254
357.82
358.227
358.44
358.44
358.227
357.82
357.254
356.572
355.819
355.036
354.26
353.534
352.957
345.906
346.395
347.021
347.692
348.37
349.022
349.613
350.103
350.455
350.639
350.639
350.455
350.103
349.613
349.022
348.37
347.692
347.021
346.395
345.906
338.852
339.258
339.785
340.353
340.926
341.478
341.977
342.391
342.688
342.844
342.844
342.688
342.391
341.977
341.478
340.926
340.353
339.785
339.258
338.852
331.796
332.123
332.553
333.017
333.486
333.937
334.345
334.683
334.926
335.054
335.054
334.926
334.683
334.345
333.937
333.486
333.017
332.553
332.123
331.796
324.739
324.989
325.323
325.684
326.048
326.399
326.716
326.979
327.168
327.267
327.267
327.168
326.979
326.716
326.399
326.048
325.684
325.323
324.989
324.739
317.68
317.857
318.095
318.353
318.613
318.864
319.09
319.278
319.413
319.484
319.484
319.413
319.278
319.09
318.864
318.613
318.353
318.095
317.857
317.68
310.62
310.726
310.869
311.023
311.18
311.33
311.466
311.579
311.66
311.703
311.703
311.66
311.579
311.466
311.33
311.18
311.023
310.869
310.726
310.62
303.56
303.595
303.643
303.695
303.748
303.798
303.844
303.881
303.908
303.923
303.923
303.908
303.881
303.844
303.798
303.748
303.695
303.643
303.595
303.56
354.261
354.806
355.489
356.215
356.945
357.643
358.273
358.793
359.166
359.361
359.361
359.166
358.793
358.273
357.643
356.945
356.215
355.489
354.806
354.261
347.034
347.496
348.085
348.714
349.345
349.95
350.495
350.946
351.269
351.438
351.438
351.269
350.946
350.495
349.95
349.345
348.714
348.085
347.496
347.034
339.805
340.188
340.685
341.216
341.751
342.262
342.723
343.104
343.377
343.52
343.52
343.377
343.104
342.723
342.262
341.751
341.216
340.685
340.188
339.805
332.575
332.884
333.288
333.723
334.16
334.578
334.955
335.267
335.49
335.606
335.606
335.49
335.267
334.955
334.578
334.16
333.723
333.288
332.884
332.575
325.344
325.581
325.895
326.233
326.573
326.898
327.191
327.433
327.606
327.697
327.697
327.606
327.433
327.191
326.898
326.573
326.233
325.895
325.581
325.344
318.112
318.28
318.504
318.745
318.988
319.22
319.43
319.602
319.726
319.791
319.791
319.726
319.602
319.43
319.22
318.988
318.745
318.504
318.28
318.112
310.88
310.98
311.114
311.259
311.405
311.544
311.67
311.774
311.848
311.887
311.887
311.848
311.774
311.67
311.544
311.405
311.259
311.114
310.98
310.88
303.647
303.68
303.725
303.774
303.823
303.87
303.912
303.947
303.972
303.985
303.985
303.972
303.947
303.912
303.87
303.823
303.774
303.725
303.68
303.647
355.741
356.254
356.892
357.569
358.244
358.887
359.465
359.94
360.28
360.457
360.457
360.28
359.94
359.465
358.887
358.244
357.569
356.892
356.254
355.741
348.315
348.749
349.3
349.885
350.47
351.028
351.528
351.939
352.233
352.387
352.387
352.233
351.939
351.528
351.028
350.47
349.885
349.3
348.749
348.315
340.888
341.247
341.712
342.207
342.702
343.173
343.596
343.944
344.193
344.323
344.323
344.193
343.944
343.596
343.173
342.702
342.207
341.712
341.247
340.888
333.46
333.749
334.128
334.533
334.938
335.324
335.669
335.954
336.157
336.263
336.263
336.157
335.954
335.669
335.324
334.938
334.533
334.128
333.749
333.46
326.032
326.254
326.548
326.862
327.177
327.477
327.746
327.968
328.126
328.208
328.208
328.126
327.968
327.746
327.477
327.177
326.862
326.548
326.254
326.032
318.603
318.76
318.97
319.195
319.42
319.634
319.826
319.984
320.097
320.156
320.156
320.097
319.984
319.826
319.634
319.42
319.195
318.97
318.76
318.603
311.175
311.268
311.394
311.529
311.664
311.793
311.908
312.003
312.071
312.106
312.106
312.071
312.003
311.908
311.793
311.664
311.529
311.394
311.268
311.175
303.746
303.777
303.819
303.865
303.91
303.953
303.992
304.023
304.046
304.058
304.058
304.046
304.023
303.992
303.953
303.91
303.865
303.819
303.777
303.746
357.401
357.88
358.475
359.101
359.723
360.313
360.839
361.271
361.579
361.739
361.739
361.579
361.271
360.839
360.313
359.723
359.101
358.475
357.88
357.401
349.751
350.156
350.669
351.212
351.751
352.262
352.718
353.092
353.358
353.497
353.497
353.358
353.092
352.718
352.262
351.751
351.212
350.669
350.156
349.751
342.101
342.437
342.87
343.328
343.785
344.217
344.603
344.919
345.144
345.261
345.261
345.144
344.919
344.603
344.217
343.785
343.328
342.87
342.437
342.101
334.452
334.722
335.075
335.45
335.823
336.177
336.492
336.751
336.935
337.031
337.031
336.935
336.751
336.492
336.177
335.823
335.45
335.075
334.722
334.452
326.802
327.01
327.284
327.575
327.866
328.141
328.386
328.587
328.731
328.805
328.805
328.731
328.587
328.386
328.141
327.866
327.575
327.284
327.01
326.802
319.154
319.301
319.496
319.704
319.911
320.108
320.283
320.427
320.529
320.583
320.583
320.529
320.427
320.283
320.108
319.911
319.704
319.496
319.301
319.154
311.505
311.593
311.71
311.835
311.959
312.077
312.183
312.269
312.331
312.362
312.362
312.331
312.269
312.183
312.077
311.959
311.835
311.71
311.593
311.505
303.857
303.886
303.925
303.967
304.009
304.048
304.084
304.113
304.133
304.144
304.144
304.133
304.113
304.084
304.048
304.009
303.967
303.925
303.886
303.857
359.242
359.689
360.24
360.818
361.388
361.926
362.404
362.794
363.071
363.215
363.215
363.071
362.794
362.404
361.926
361.388
360.818
360.24
359.689
359.242
351.344
351.722
352.198
352.698
353.193
353.659
354.073
354.411
354.651
354.776
354.776
354.651
354.411
354.073
353.659
353.193
352.698
352.198
351.722
351.344
343.448
343.761
344.162
344.585
345.003
345.398
345.748
346.034
346.237
346.343
346.343
346.237
346.034
345.748
345.398
345.003
344.585
344.162
343.761
343.448
335.552
335.804
336.131
336.477
336.82
337.142
337.429
337.663
337.829
337.915
337.915
337.829
337.663
337.429
337.142
336.82
336.477
336.131
335.804
335.552
327.658
327.851
328.105
328.374
328.64
328.891
329.114
329.296
329.425
329.493
329.493
329.425
329.296
329.114
328.891
328.64
328.374
328.105
327.851
327.658
319.765
319.901
320.082
320.274
320.465
320.644
320.803
320.933
321.026
321.074
321.074
321.026
320.933
320.803
320.644
320.465
320.274
320.082
319.901
319.765
311.872
311.953
312.062
312.177
312.292
312.399
312.495
312.573
312.629
312.657
312.657
312.629
312.573
312.495
312.399
312.292
312.177
312.062
311.953
311.872
303.98
304.007
304.043
304.082
304.12
304.156
304.188
304.215
304.233
304.243
304.243
304.233
304.215
304.188
304.156
304.12
304.082
304.043
304.007
303.98
361.269
361.683
362.192
362.722
363.244
363.732
364.164
364.516
364.765
364.894
364.894
364.765
364.516
364.164
363.732
363.244
362.722
362.192
361.683
361.269
353.098
353.448
353.887
354.347
354.799
355.222
355.597
355.901
356.117
356.229
356.229
356.117
355.901
355.597
355.222
354.799
354.347
353.887
353.448
353.098
344.929
345.22
345.59
345.978
346.361
346.719
347.036
347.294
347.476
347.571
347.571
347.476
347.294
347.036
346.719
346.361
345.978
345.59
345.22
344.929
336.763
336.997
337.299
337.617
337.93
338.223
338.482
338.693
338.842
338.92
338.92
338.842
338.693
338.482
338.223
337.93
337.617
337.299
336.997
336.763
328.599
328.778
329.013
329.26
329.503
329.732
329.933
330.097
330.213
330.274
330.274
330.213
330.097
329.933
329.732
329.503
329.26
329.013
328.778
328.599
320.437
320.564
320.73
320.907
321.081
321.244
321.388
321.506
321.588
321.631
321.631
321.588
321.506
321.388
321.244
321.081
320.907
320.73
320.564
320.437
312.275
312.351
312.451
312.557
312.662
312.76
312.846
312.917
312.967
312.992
312.992
312.967
312.917
312.846
312.76
312.662
312.557
312.451
312.351
312.275
304.115
304.14
304.174
304.209
304.244
304.277
304.306
304.33
304.346
304.355
304.355
304.346
304.33
304.306
304.277
304.244
304.209
304.174
304.14
304.115
363.48
363.863
364.331
364.817
365.292
365.734
366.124
366.44
366.662
366.777
366.777
366.662
366.44
366.124
365.734
365.292
364.817
364.331
363.863
363.48
355.011
355.335
355.739
356.16
356.571
356.955
357.293
357.566
357.759
357.859
357.859
357.759
357.566
357.293
356.955
356.571
356.16
355.739
355.335
355.011
346.546
346.814
347.155
347.511
347.859
348.184
348.47
348.701
348.865
348.949
348.949
348.865
348.701
348.47
348.184
347.859
347.511
347.155
346.814
346.546
338.084
338.3
338.578
338.869
339.154
339.42
339.654
339.844
339.977
340.046
340.046
339.977
339.844
339.654
339.42
339.154
338.869
338.578
338.3
338.084
329.626
329.792
330.007
330.234
330.455
330.662
330.844
330.992
331.096
331.149
331.149
331.096
330.992
330.844
330.662
330.455
330.234
330.007
329.792
329.626
321.17
321.287
321.441
321.602
321.761
321.909
322.039
322.144
322.219
322.257
322.257
322.219
322.144
322.039
321.909
321.761
321.602
321.441
321.287
321.17
312.715
312.785
312.878
312.975
313.07
313.159
313.237
313.3
313.345
313.368
313.368
313.345
313.3
313.237
313.159
313.07
312.975
312.878
312.785
312.715
304.262
304.286
304.317
304.349
304.381
304.411
304.437
304.458
304.473
304.481
304.481
304.473
304.458
304.437
304.411
304.381
304.349
304.317
304.286
304.262
365.873
366.227
366.657
367.1
367.532
367.932
368.282
368.565
368.764
368.867
368.867
368.764
368.565
368.282
367.932
367.532
367.1
366.657
366.227
365.873
357.081
357.38
357.751
358.135
358.509
358.856
359.16
359.405
359.578
359.667
359.667
359.578
359.405
359.16
358.856
358.509
358.135
357.751
357.38
357.081
348.295
348.542
348.855
349.18
349.497
349.791
350.048
350.255
350.401
350.477
350.477
350.401
350.255
350.048
349.791
349.497
349.18
348.855
348.542
348.295
339.513
339.713
339.968
340.234
340.493
340.733
340.944
341.113
341.233
341.295
341.295
341.233
341.113
340.944
340.733
340.493
340.234
339.968
339.713
339.513
330.736
330.889
331.087
331.294
331.496
331.683
331.846
331.979
332.071
332.12
332.12
332.071
331.979
331.846
331.683
331.496
331.294
331.087
330.889
330.736
321.963
322.071
322.212
322.36
322.504
322.637
322.755
322.849
322.915
322.95
322.95
322.915
322.849
322.755
322.637
322.504
322.36
322.212
322.071
321.963
313.191
313.256
313.341
313.429
313.516
313.596
313.667
313.723
313.763
313.784
313.784
313.763
313.723
313.667
313.596
313.516
313.429
313.341
313.256
313.191
304.422
304.443
304.472
304.501
304.53
304.557
304.581
304.6
304.613
304.62
304.62
304.613
304.6
304.581
304.557
304.53
304.501
304.472
304.443
304.422
368.44
368.766
369.16
369.564
369.955
370.316
370.631
370.884
371.061
371.153
371.153
371.061
370.884
370.631
370.316
369.955
369.564
369.16
368.766
368.44
359.3
359.575
359.915
360.265
360.605
360.918
361.191
361.41
361.564
361.643
361.643
361.564
361.41
361.191
360.918
360.605
360.265
359.915
359.575
359.3
350.168
350.396
350.682
350.979
351.266
351.531
351.762
351.948
352.078
352.145
352.145
352.078
351.948
351.762
351.531
351.266
350.979
350.682
350.396
350.168
341.043
341.226
341.46
341.702
341.938
342.155
342.344
342.496
342.603
342.658
342.658
342.603
342.496
342.344
342.155
341.938
341.702
341.46
341.226
341.043
331.924
332.065
332.246
332.435
332.618
332.787
332.934
333.052
333.135
333.178
333.178
333.135
333.052
332.934
332.787
332.618
332.435
332.246
332.065
331.924
322.81
322.91
323.039
323.174
323.305
323.426
323.531
323.615
323.675
323.705
323.705
323.675
323.615
323.531
323.426
323.305
323.174
323.039
322.91
322.81
313.7
313.76
313.837
313.918
313.997
314.069
314.133
314.183
314.219
314.237
314.237
314.219
314.183
314.133
314.069
313.997
313.918
313.837
313.76
313.7
304.592
304.612
304.638
304.665
304.692
304.716
304.737
304.754
304.766
304.772
304.772
304.766
304.754
304.737
304.716
304.692
304.665
304.638
304.612
304.592
371.154
371.453
371.813
372.182
372.536
372.862
373.145
373.371
373.53
373.611
373.611
373.53
373.371
373.145
372.862
372.536
372.182
371.813
371.453
371.154
361.641
361.894
362.205
362.524
362.832
363.114
363.36
363.556
363.694
363.764
363.764
363.694
363.556
363.36
363.114
362.832
362.524
362.205
361.894
361.641
352.141
352.35
352.613
352.883
353.143
353.383
353.59
353.757
353.873
353.933
353.933
353.873
353.757
353.59
353.383
353.143
352.883
352.613
352.35
352.141
342.652
342.82
343.034
343.255
343.469
343.665
343.835
343.971
344.066
344.115
344.115
344.066
343.971
343.835
343.665
343.469
343.255
343.034
342.82
342.652
333.172
333.302
333.468
333.64
333.806
333.958
334.091
334.197
334.271
334.309
334.309
334.271
334.197
334.091
333.958
333.806
333.64
333.468
333.302
333.172
323.7
323.792
323.91
324.033
324.152
324.261
324.356
324.431
324.484
324.512
324.512
324.484
324.431
324.356
324.261
324.152
324.033
323.91
323.792
323.7
314.234
314.289
314.36
314.433
314.505
314.57
314.627
314.673
314.705
314.721
314.721
314.705
314.673
314.627
314.57
314.505
314.433
314.36
314.289
314.234
304.771
304.789
304.813
304.838
304.862
304.884
304.903
304.918
304.929
304.934
304.934
304.929
304.918
304.903
304.884
304.862
304.838
304.813
304.789
304.771
373.944
374.219
374.549
374.885
375.207
375.502
375.756
375.959
376.101
376.174
376.174
376.101
375.959
375.756
375.502
375.207
374.885
374.549
374.219
373.944
364.037
364.269
364.555
364.846
365.126
365.381
365.602
365.779
365.902
365.965
365.965
365.902
365.779
365.602
365.381
365.126
364.846
364.555
364.269
364.037
354.152
354.345
354.585
354.832
355.069
355.285
355.473
355.622
355.727
355.78
355.78
355.727
355.622
355.473
355.285
355.069
354.832
354.585
354.345
354.152
344.286
344.441
344.637
344.839
345.033
345.211
345.364
345.487
345.572
345.616
345.616
345.572
345.487
345.364
345.211
345.033
344.839
344.637
344.441
344.286
334.436
334.555
334.708
334.865
335.016
335.154
335.273
335.369
335.435
335.47
335.47
335.435
335.369
335.273
335.154
335.016
334.865
334.708
334.555
334.436
324.599
324.684
324.792
324.905
325.013
325.112
325.197
325.265
325.313
325.337
325.337
325.313
325.265
325.197
325.112
325.013
324.905
324.792
324.684
324.599
314.772
314.823
314.888
314.955
315.02
315.08
315.131
315.172
315.201
315.215
315.215
315.201
315.172
315.131
315.08
315.02
314.955
314.888
314.823
314.772
304.951
304.968
304.99
305.013
305.034
305.054
305.071
305.085
305.095
305.1
305.1
305.095
305.085
305.071
305.054
305.034
305.013
304.99
304.968
304.951
376.631
376.885
377.19
377.499
377.793
378.062
378.293
378.477
378.605
378.671
378.671
378.605
378.477
378.293
378.062
377.793
377.499
377.19
376.885
376.631
366.317
366.532
366.796
367.064
367.32
367.553
367.754
367.914
368.025
368.082
368.082
368.025
367.914
367.754
367.553
367.32
367.064
366.796
366.532
366.317
356.045
356.223
356.446
356.673
356.89
357.088
357.259
357.394
357.489
357.537
357.537
357.489
357.394
357.259
357.088
356.89
356.673
356.446
356.223
356.045
345.809
345.953
346.135
346.321
346.499
346.662
346.802
346.913
346.99
347.03
347.03
346.99
346.913
346.802
346.662
346.499
346.321
346.135
345.953
345.809
335.606
335.716
335.857
336.002
336.141
336.268
336.377
336.464
336.524
336.555
336.555
336.524
336.464
336.377
336.268
336.141
336.002
335.857
335.716
335.606
325.427
325.505
325.606
325.71
325.809
325.899
325.977
326.04
326.083
326.105
326.105
326.083
326.04
325.977
325.899
325.809
325.71
325.606
325.505
325.427
315.266
315.313
315.373
315.436
315.495
315.55
315.597
315.634
315.66
315.673
315.673
315.66
315.634
315.597
315.55
315.495
315.436
315.373
315.313
315.266
305.116
305.132
305.152
305.173
305.193
305.211
305.227
305.239
305.248
305.253
305.253
305.248
305.239
305.227
305.211
305.193
305.173
305.152
305.132
305.116
378.742
378.981
379.268
379.557
379.833
380.083
380.298
380.469
380.588
380.649
380.649
380.588
380.469
380.298
380.083
379.833
379.557
379.268
378.981
378.742
368.04
368.243
368.491
368.744
368.984
369.202
369.39
369.539
369.642
369.696
369.696
369.642
369.539
369.39
369.202
368.984
368.744
368.491
368.243
368.04
357.431
357.6
357.81
358.025
358.229
358.415
358.574
358.701
358.789
358.835
358.835
358.789
358.701
358.574
358.415
358.229
358.025
357.81
357.6
357.431
346.898
347.034
347.207
347.383
347.55
347.703
347.834
347.939
348.011
348.048
348.048
348.011
347.939
347.834
347.703
347.55
347.383
347.207
347.034
346.898
336.426
336.53
336.664
336.802
336.933
337.052
337.154
337.236
337.292
337.321
337.321
337.292
337.236
337.154
337.052
336.933
336.802
336.664
336.53
336.426
325.999
326.073
326.169
326.267
326.361
326.446
326.52
326.578
326.619
326.639
326.639
326.619
326.578
326.52
326.446
326.361
326.267
326.169
326.073
325.999
315.604
315.649
315.706
315.765
315.822
315.873
315.917
315.952
315.977
315.989
315.989
315.977
315.952
315.917
315.873
315.822
315.765
315.706
315.649
315.604
305.229
305.243
305.263
305.283
305.301
305.319
305.334
305.345
305.353
305.358
305.358
305.353
305.345
305.334
305.319
305.301
305.283
305.263
305.243
305.229
)
;

boundaryField
{
    hotSide
    {
        type            fixedGradient;
        gradient        nonuniform List<scalar> 
400
(
515.292
516.993
520.402
525.535
532.411
541.059
551.508
563.791
577.943
593.998
611.99
631.949
653.904
677.881
703.903
731.989
762.155
794.414
828.777
865.252
524.696
526.322
529.585
534.504
541.108
549.432
559.516
571.403
585.137
600.762
618.319
637.847
659.38
682.95
708.581
736.297
766.114
798.048
832.108
868.302
534.872
536.409
539.498
544.165
550.446
558.39
568.047
579.473
592.725
607.857
624.921
643.964
665.027
688.145
713.349
740.662
770.104
801.69
835.428
871.327
545.652
547.087
549.973
554.346
560.256
567.763
576.933
587.838
600.548
615.132
631.651
650.163
670.714
693.347
718.095
744.983
774.032
805.255
838.662
874.259
556.736
558.054
560.713
564.759
570.254
577.277
585.911
596.246
608.369
622.363
638.302
656.252
676.269
698.398
722.677
749.131
777.781
808.641
841.718
877.017
567.661
568.855
571.271
574.967
580.023
586.535
594.608
604.35
615.867
629.257
644.607
661.992
681.475
703.106
726.923
752.955
781.221
811.732
844.495
879.511
577.802
578.871
581.045
584.394
589.015
595.024
602.548
611.714
622.646
635.458
650.248
667.101
686.085
707.253
730.646
756.292
784.208
814.405
846.887
881.651
586.409
587.365
589.321
592.358
596.59
602.152
609.189
617.848
628.269
640.578
654.885
671.281
689.84
710.617
733.653
758.976
786.602
816.54
848.79
883.349
592.707
593.577
595.366
598.166
602.102
607.324
613.994
622.272
632.31
644.245
658.194
674.254
692.501
712.993
735.77
760.86
788.278
818.03
850.115
884.528
596.045
596.868
598.566
601.236
605.011
610.05
616.521
624.593
634.426
646.161
659.919
675.8
693.883
714.224
736.865
761.833
789.141
818.796
850.795
885.132
596.045
596.868
598.566
601.236
605.011
610.05
616.521
624.593
634.426
646.161
659.919
675.8
693.883
714.224
736.865
761.833
789.141
818.796
850.795
885.132
592.707
593.577
595.366
598.166
602.102
607.324
613.994
622.272
632.31
644.245
658.194
674.254
692.501
712.993
735.77
760.86
788.278
818.03
850.115
884.528
586.409
587.365
589.321
592.358
596.59
602.152
609.189
617.848
628.269
640.578
654.885
671.281
689.84
710.617
733.653
758.976
786.602
816.54
848.79
883.349
577.802
578.871
581.045
584.394
589.015
595.024
602.548
611.714
622.646
635.458
650.248
667.101
686.085
707.253
730.646
756.292
784.208
814.405
846.887
881.651
567.661
568.855
571.271
574.967
580.023
586.535
594.608
604.35
615.867
629.257
644.607
661.992
681.475
703.106
726.923
752.955
781.221
811.732
844.495
879.511
556.736
558.054
560.713
564.759
570.254
577.277
585.911
596.246
608.369
622.363
638.302
656.252
676.269
698.398
722.677
749.131
777.781
808.641
841.718
877.017
545.652
547.087
549.973
554.346
560.256
567.763
576.933
587.838
600.548
615.132
631.651
650.163
670.714
693.347
718.095
744.983
774.032
805.255
838.662
874.259
534.872
536.409
539.498
544.165
550.446
558.39
568.047
579.473
592.725
607.857
624.921
643.964
665.027
688.145
713.349
740.662
770.104
801.69
835.428
871.327
524.696
526.322
529.585
534.504
541.108
549.432
559.516
571.403
585.137
600.762
618.319
637.847
659.38
682.95
708.581
736.297
766.114
798.048
832.108
868.302
515.292
516.993
520.402
525.535
532.411
541.059
551.508
563.791
577.943
593.998
611.99
631.949
653.904
677.881
703.903
731.989
762.155
794.414
828.777
865.252
)
;
    }
    coldSide
    {
        type            mixed;
        refValue        uniform 300;
        refGradient     uniform 0;
        valueFraction   uniform 0.991591;
        source          uniform 0;
        value           nonuniform List<scalar> 
400
(
300.027
300.028
300.028
300.028
300.028
300.029
300.029
300.03
300.031
300.031
300.032
300.033
300.035
300.036
300.037
300.039
300.04
300.042
300.043
300.044
300.028
300.028
300.028
300.028
300.029
300.029
300.03
300.03
300.031
300.032
300.033
300.034
300.035
300.036
300.037