/*--------------------------------*- C++ -*----------------------------------*\
| =========                 |                                                 |
| \\      /  F ield         | OpenFOAM: The Open Source CFD Toolbox           |
|  \\    /   O peration     | Version:  2212                                  |
|   \\  /    A nd           | Website:  www.openfoam.com                      |
|    \\/     M anipulation  |                                                 |
\*---------------------------------------------------------------------------*/
FoamFile
{
    version     2.0;
    format      ascii;
    arch        "LSB;label=32;scalar=64";
    class       volScalarField;
    location    "0";
    object      Tdirect;
}
// * * * * * * * * * * * * * * * * * * * * * * * * * * * * * * * * * * * * * //

dimensions      [0 0 0 1 0 0 0];

internalField   nonuniform List<scalar> 
3200
(
344.263
345.136
346.25
347.465
348.716
349.943
351.077
352.033
352.73
353.099
353.099
352.73
352.033
351.077
349.943
348.716
347.465
346.25
345.136
344.263
338.383
339.122
340.083
341.134
342.217
343.279
344.259
345.085
345.687
346.005
346.005
345.687
345.085
344.259
343.279
342.217
341.134
340.083
339.122
338.383
332.495
333.108
333.918
334.806
335.721
336.618
337.445
338.143
338.651
338.919
338.919
338.651
338.143
337.445
336.618
335.721
334.806
333.918
333.108
332.495
326.601
327.094
327.754
328.48
329.228
329.961
330.637
331.206
331.621
331.839
331.839
331.621
331.206
330.637
329.961
329.228
328.48
327.754
327.094
326.601
320.701
321.08
321.592
322.155
322.737
323.306
323.831
324.274
324.595
324.765
324.765
324.595
324.274
323.831
323.306
322.737
322.155
321.592
321.08
320.701
314.796
315.064
315.429
315.832
316.247
316.654
317.029
317.344
317.574
317.695
317.695
317.574
317.344
317.029
316.654
316.247
315.832
315.429
315.064
314.796
308.889
309.049
309.268
309.51
309.759
310.003
310.228
310.417
310.555
310.628
310.628
310.555
310.417
310.228
310.003
309.759
309.51
309.268
309.049
308.889
302.98
303.033
303.107
303.188
303.271
303.353
303.428
303.492
303.538
303.562
303.562
303.538
303.492
303.428
303.353
303.271
303.188
303.107
303.033
302.98
344.382
345.248
346.353
347.556
348.794
350.009
351.129
352.073
352.761
353.125
353.125
352.761
352.073
351.129
350.009
348.794
347.556
346.353
345.248
344.382
338.486
339.219
340.172
341.213
342.285
343.335
344.304
345.12
345.714
346.028
346.028
345.714
345.12
344.304
343.335
342.285
341.213
340.172
339.219
338.486
332.583
333.191
333.993
334.873
335.779
336.666
337.484
338.173
338.674
338.939
338.939
338.674
338.173
337.484
336.666
335.779
334.873
333.993
333.191
332.583
326.672
327.161
327.816
328.535
329.275
330
330.668
331.231
331.64
331.856
331.856
331.64
331.231
330.668
330
329.275
328.535
327.816
327.161
326.672
320.756
321.132
321.639
322.198
322.773
323.337
323.856
324.293
324.61
324.778
324.778
324.61
324.293
323.856
323.337
322.773
322.198
321.639
321.132
320.756
314.836
315.102
315.464
315.862
316.273
316.676
317.046
317.358
317.585
317.704
317.704
317.585
317.358
317.046
316.676
316.273
315.862
315.464
315.102
314.836
308.913
309.071
309.288
309.528
309.775
310.016
310.239
310.426
310.562
310.633
310.633
310.562
310.426
310.239
310.016
309.775
309.528
309.288
309.071
308.913
302.988
303.041
303.114
303.194
303.276
303.357
303.432
303.495
303.54
303.564
303.564
303.54
303.495
303.432
303.357
303.276
303.194
303.114
303.041
302.988
344.622
345.474
346.56
347.741
348.954
350.142
351.237
352.158
352.829
353.182
353.182
352.829
352.158
351.237
350.142
348.954
347.741
346.56
345.474
344.622
338.694
339.415
340.352
341.373
342.424
343.451
344.397
345.194
345.773
346.078
346.078
345.773
345.194
344.397
343.451
342.424
341.373
340.352
339.415
338.694
332.757
333.356
334.145
335.008
335.896
336.764
337.563
338.236
338.724
338.982
338.982
338.724
338.236
337.563
336.764
335.896
335.008
334.145
333.356
332.757
326.815
327.296
327.94
328.645
329.371
330.081
330.733
331.282
331.681
331.891
331.891
331.681
331.282
330.733
330.081
329.371
328.645
327.94
327.296
326.815
320.867
321.237
321.736
322.284
322.848
323.399
323.907
324.333
324.643
324.806
324.806
324.643
324.333
323.907
323.399
322.848
322.284
321.736
321.237
320.867
314.915
315.177
315.532
315.924
316.327
316.721
317.082
317.387
317.608
317.724
317.724
317.608
317.387
317.082
316.721
316.327
315.924
315.532
315.177
314.915
308.96
309.116
309.33
309.565
309.807
310.043
310.26
310.443
310.576
310.646
310.646
310.576
310.443
310.26
310.043
309.807
309.565
309.33
309.116
308.96
303.004
303.056
303.127
303.206
303.287
303.366
303.439
303.5
303.545
303.568
303.568
303.545
303.5
303.439
303.366
303.287
303.206
303.127
303.056
303.004
344.984
345.816
346.875
348.023
349.201
350.351
351.408
352.296
352.941
353.282
353.282
352.941
352.296
351.408
350.351
349.201
348.023
346.875
345.816
344.984
339.006
339.711
340.624
341.618
342.637
343.632
344.546
345.314
345.872
346.165
346.165
345.872
345.314
344.546
343.632
342.637
341.618
340.624
339.711
339.006
333.021
333.606
334.375
335.215
336.076
336.917
337.689
338.338
338.808
339.056
339.056
338.808
338.338
337.689
336.917
336.076
335.215
334.375
333.606
333.021
327.03
327.501
328.128
328.814
329.519
330.206
330.836
331.366
331.75
331.952
331.952
331.75
331.366
330.836
330.206
329.519
328.814
328.128
327.501
327.03
321.034
321.395
321.882
322.415
322.963
323.497
323.987
324.398
324.697
324.854
324.854
324.697
324.398
323.987
323.497
322.963
322.415
321.882
321.395
321.034
315.034
315.29
315.637
316.018
316.409
316.79
317.14
317.434
317.646
317.759
317.759
317.646
317.434
317.14
316.79
316.409
316.018
315.637
315.29
315.034
309.032
309.184
309.392
309.621
309.856
310.085
310.295
310.471
310.599
310.666
310.666
310.599
310.471
310.295
310.085
309.856
309.621
309.392
309.184
309.032
303.028
303.079
303.148
303.225
303.304
303.38
303.451
303.51
303.553
303.575
303.575
303.553
303.51
303.451
303.38
303.304
303.225
303.148
303.079
303.028
345.47
346.277
347.301
348.408
349.54
350.643
351.653
352.5
353.113
353.437
353.437
353.113
352.5
351.653
350.643
349.54
348.408
347.301
346.277
345.47
339.427
340.11
340.993
341.951
342.931
343.885
344.759
345.491
346.021
346.301
346.301
346.021
345.491
344.759
343.885
342.931
341.951
340.993
340.11
339.427
333.376
333.943
334.687
335.497
336.325
337.131
337.869
338.488
338.935
339.171
339.171
338.935
338.488
337.869
337.131
336.325
335.497
334.687
333.943
333.376
327.32
327.776
328.383
329.045
329.722
330.381
330.984
331.489
331.855
332.047
332.047
331.855
331.489
330.984
330.381
329.722
329.045
328.383
327.776
327.32
321.259
321.609
322.08
322.595
323.121
323.633
324.102
324.494
324.778
324.928
324.928
324.778
324.494
324.102
323.633
323.121
322.595
322.08
321.609
321.259
315.195
315.443
315.778
316.146
316.522
316.888
317.222
317.502
317.705
317.812
317.812
317.705
317.502
317.222
316.888
316.522
316.146
315.778
315.443
315.195
309.128
309.276
309.477
309.698
309.924
310.143
310.344
310.512
310.634
310.698
310.698
310.634
310.512
310.344
310.143
309.924
309.698
309.477
309.276
309.128
303.06
303.11
303.177
303.251
303.326
303.4
303.467
303.524
303.564
303.586
303.586
303.564
303.524
303.467
303.4
303.326
303.251
303.177
303.11
303.06
346.085
346.861
347.844
348.903
349.982
351.028
351.984
352.783
353.36
353.664
353.664
353.36
352.783
351.984
351.028
349.982
348.903
347.844
346.861
346.085
339.958
340.615
341.463
342.379
343.313
344.219
345.046
345.737
346.236
346.499
346.499
346.236
345.737
345.046
344.219
343.313
342.379
341.463
340.615
339.958
333.824
334.37
335.084
335.859
336.648
337.414
338.112
338.696
339.118
339.339
339.339
339.118
338.696
338.112
337.414
336.648
335.859
335.084
334.37
333.824
327.686
328.125
328.707
329.341
329.986
330.612
331.183
331.66
332.004
332.185
332.185
332.004
331.66
331.183
330.612
329.986
329.341
328.707
328.125
327.686
321.544
321.881
322.332
322.825
323.326
323.813
324.257
324.627
324.895
325.035
325.035
324.895
324.627
324.257
323.813
323.326
322.825
322.332
321.881
321.544
315.398
315.637
315.958
316.31
316.669
317.016
317.333
317.597
317.788
317.889
317.889
317.788
317.597
317.333
317.016
316.669
316.31
315.958
315.637
315.398
309.25
309.392
309.586
309.797
310.012
310.221
310.411
310.57
310.684
310.744
310.744
310.684
310.57
310.411
310.221
310.012
309.797
309.586
309.392
309.25
303.101
303.148
303.213
303.284
303.356
303.426
303.49
303.543
303.581
303.601
303.601
303.581
303.543
303.49
303.426
303.356
303.284
303.213
303.148
303.101
346.83
347.573
348.509
349.514
350.534
351.519
352.415
353.161
353.7
353.982
353.982
353.7
353.161
352.415
351.519
350.534
349.514
348.509
347.573
346.83
340.602
341.231
342.038
342.909
343.791
344.644
345.419
346.065
346.531
346.775
346.775
346.531
346.065
345.419
344.644
343.791
342.909
342.038
341.231
340.602
334.369
334.89
335.571
336.306
337.053
337.774
338.429
338.974
339.368
339.574
339.574
339.368
338.974
338.429
337.774
337.053
336.306
335.571
334.89
334.369
328.131
328.55
329.105
329.706
330.317
330.906
331.442
331.888
332.209
332.377
332.377
332.209
331.888
331.442
330.906
330.317
329.706
329.105
328.55
328.131
321.889
322.211
322.642
323.109
323.584
324.042
324.458
324.805
325.054
325.185
325.185
325.054
324.805
324.458
324.042
323.584
323.109
322.642
322.211
321.889
315.645
315.872
316.179
316.513
316.852
317.179
317.477
317.724
317.902
317.996
317.996
317.902
317.724
317.477
317.179
316.852
316.513
316.179
315.872
315.645
309.398
309.534
309.718
309.919
310.122
310.319
310.497
310.646
310.753
310.809
310.809
310.753
310.646
310.497
310.319
310.122
309.919
309.718
309.534
309.398
303.15
303.196
303.258
303.325
303.393
303.459
303.519
303.568
303.604
303.623
303.623
303.604
303.568
303.519
303.459
303.393
303.325
303.258
303.196
303.15
347.712
348.417
349.303
350.251
351.207
352.127
352.96
353.651
354.149
354.409
354.409
354.149
353.651
352.96
352.127
351.207
350.251
349.303
348.417
347.712
341.364
341.961
342.726
343.546
344.374
345.171
345.892
346.49
346.92
347.146
347.146
346.92
346.49
345.892
345.171
344.374
343.546
342.726
341.961
341.364
335.012
335.507
336.152
336.845
337.545
338.219
338.828
339.334
339.697
339.888
339.888
339.697
339.334
338.828
338.219
337.545
336.845
336.152
335.507
335.012
328.656
329.055
329.58
330.147
330.72
331.27
331.769
332.182
332.479
332.635
332.635
332.479
332.182
331.769
331.27
330.72
330.147
329.58
329.055
328.656
322.297
322.603
323.011
323.451
323.897
324.325
324.712
325.034
325.264
325.385
325.385
325.264
325.034
324.712
324.325
323.897
323.451
323.011
322.603
322.297
315.936
316.152
316.443
316.758
317.076
317.382
317.658
317.888
318.053
318.139
318.139
318.053
317.888
317.658
317.382
317.076
316.758
316.443
316.152
315.936
309.573
309.702
309.876
310.065
310.257
310.44
310.606
310.744
310.843
310.895
310.895
310.843
310.744
310.606
310.44
310.257
310.065
309.876
309.702
309.573
303.209
303.252
303.311
303.374
303.438
303.5
303.555
303.601
303.635
303.652
303.652
303.635
303.601
303.555
303.5
303.438
303.374
303.311
303.252
303.209
348.733
349.399
350.233
351.12
352.011
352.864
353.633
354.268
354.724
354.963
354.963
354.724
354.268
353.633
352.864
352.011
351.12
350.233
349.399
348.733
342.247
342.811
343.53
344.298
345.07
345.809
346.474
347.025
347.419
347.625
347.625
347.419
347.025
346.474
345.809
345.07
344.298
343.53
342.811
342.247
335.758
336.225
336.831
337.481
338.134
338.758
339.321
339.786
340.12
340.294
340.294
340.12
339.786
339.321
338.758
338.134
337.481
336.831
336.225
335.758
329.265
329.642
330.136
330.667
331.201
331.712
332.172
332.552
332.825
332.967
332.967
332.825
332.552
332.172
331.712
331.201
330.667
330.136
329.642
329.265
322.77
323.059
323.443
323.855
324.271
324.668
325.026
325.321
325.533
325.644
325.644
325.533
325.321
325.026
324.668
324.271
323.855
323.443
323.059
322.77
316.274
316.478
316.752
317.046
317.343
317.627
317.882
318.094
318.245
318.324
318.324
318.245
318.094
317.882
317.627
317.343
317.046
316.752
316.478
316.274
309.776
309.898
310.062
310.239
310.417
310.587
310.741
310.868
310.958
311.006
311.006
310.958
310.868
310.741
310.587
310.417
310.239
310.062
309.898
309.776
303.277
303.318
303.373
303.432
303.492
303.549
303.6
303.643
303.673
303.689
303.689
303.673
303.643
303.6
303.549
303.492
303.432
303.373
303.318
303.277
349.897
350.524
351.304
352.13
352.955
353.741
354.446
355.026
355.441
355.658
355.658
355.441
355.026
354.446
353.741
352.955
352.13
351.304
350.524
349.897
343.254
343.784
344.457
345.172
345.887
346.568
347.178
347.681
348.04
348.228
348.228
348.04
347.681
347.178
346.568
345.887
345.172
344.457
343.784
343.254
336.608
337.047
337.615
338.219
338.824
339.4
339.916
340.341
340.645
340.803
340.803
340.645
340.341
339.916
339.4
338.824
338.219
337.615
337.047
336.608
329.96
330.314
330.776
331.27
331.765
332.236
332.659
333.006
333.254
333.384
333.384
333.254
333.006
332.659
332.236
331.765
331.27
330.776
330.314
329.96
323.31
323.582
323.94
324.325
324.71
325.076
325.404
325.675
325.868
325.968
325.968
325.868
325.675
325.404
325.076
324.71
324.325
323.94
323.582
323.31
316.659
316.851
317.107
317.381
317.656
317.918
318.153
318.346
318.484
318.556
318.556
318.484
318.346
318.153
317.918
317.656
317.381
317.107
316.851
316.659
310.007
310.122
310.275
310.44
310.605
310.762
310.903
311.019
311.102
311.145
311.145
311.102
311.019
310.903
310.762
310.605
310.44
310.275
310.122
310.007
303.355
303.393
303.444
303.499
303.555
303.608
303.655
303.694
303.721
303.736
303.736
303.721
303.694
303.655
303.608
303.555
303.499
303.444
303.393
303.355
351.21
351.795
352.522
353.287
354.047
354.767
355.41
355.937
356.313
356.509
356.509
356.313
355.937
355.41
354.767
354.047
353.287
352.522
351.795
351.21
344.389
344.884
345.511
346.174
346.832
347.456
348.013
348.47
348.795
348.965
348.965
348.795
348.47
348.013
347.456
346.832
346.174
345.511
344.884
344.389
337.567
337.977
338.506
339.066
339.623
340.151
340.622
341.008
341.283
341.427
341.427
341.283
341.008
340.622
340.151
339.623
339.066
338.506
337.977
337.567
330.743
331.074
331.504
331.962
332.418
332.85
333.236
333.552
333.776
333.894
333.894
333.776
333.552
333.236
332.85
332.418
331.962
331.504
331.074
330.743
323.919
324.172
324.506
324.863
325.217
325.553
325.853
326.099
326.274
326.365
326.365
326.274
326.099
325.853
325.553
325.217
324.863
324.506
324.172
323.919
317.093
317.273
317.511
317.766
318.019
318.259
318.473
318.649
318.774
318.839
318.839
318.774
318.649
318.473
318.259
318.019
317.766
317.511
317.273
317.093
310.268
310.375
310.518
310.671
310.823
310.967
311.096
311.201
311.276
311.315
311.315
311.276
311.201
311.096
310.967
310.823
310.671
310.518
310.375
310.268
303.442
303.478
303.526
303.577
303.628
303.676
303.719
303.755
303.78
303.793
303.793
303.78
303.755
303.719
303.676
303.628
303.577
303.526
303.478
303.442
352.674
353.219
353.892
354.597
355.295
355.951
356.535
357.012
357.35
357.526
357.526
357.35
357.012
356.535
355.951
355.295
354.597
353.892
353.219
352.674
345.655
346.116
346.697
347.308
347.912
348.481
348.987
349.4
349.693
349.846
349.846
349.693
349.4
348.987
348.481
347.912
347.308
346.697
346.116
345.655
338.636
339.018
339.508
340.025
340.536
341.017
341.445
341.795
342.043
342.172
342.172
342.043
341.795
341.445
341.017
340.536
340.025
339.508
339.018
338.636
331.617
331.924
332.324
332.746
333.164
333.559
333.909
334.194
334.397
334.503
334.503
334.397
334.194
333.909
333.559
333.164
332.746
332.324
331.924
331.617
324.597
324.834
325.143
325.472
325.797
326.104
326.376
326.598
326.756
326.838
326.838
326.756
326.598
326.376
326.104
325.797
325.472
325.143
324.834
324.597
317.578
317.745
317.966
318.201
318.433
318.652
318.847
319.006
319.118
319.177
319.177
319.118
319.006
318.847
318.652
318.433
318.201
317.966
317.745
317.578
310.559
310.658
310.791
310.932
311.071
311.203
311.32
311.415
311.483
311.518
311.518
311.483
311.415
311.32
311.203
311.071
310.932
310.791
310.658
310.559
303.539
303.573
303.617
303.664
303.711
303.755
303.794
303.826
303.849
303.861
303.861
303.849
303.826
303.794
303.755
303.711
303.664
303.617
303.573
303.539
354.291
354.797
355.419
356.067
356.704
357.301
357.828
358.258
358.562
358.719
358.719
358.562
358.258
357.828
357.301
356.704
356.067
355.419
354.797
354.291
347.054
347.482
348.018
348.58
349.132
349.649
350.106
350.478
350.742
350.878
350.878
350.742
350.478
350.106
349.649
349.132
348.58
348.018
347.482
347.054
339.818
340.172
340.625
341.099
341.566
342.004
342.391
342.706
342.929
343.044
343.044
342.929
342.706
342.391
342.004
341.566
341.099
340.625
340.172
339.818
332.582
332.868
333.236
333.625
334.007
334.365
334.682
334.939
335.122
335.216
335.216
335.122
334.939
334.682
334.365
334.007
333.625
333.236
332.868
332.582
325.347
325.567
325.853
326.155
326.452
326.731
326.977
327.178
327.319
327.393
327.393
327.319
327.178
326.977
326.731
326.452
326.155
325.853
325.567
325.347
318.114
318.269
318.473
318.688
318.901
319.1
319.276
319.419
319.521
319.573
319.573
319.521
319.419
319.276
319.1
318.901
318.688
318.473
318.269
318.114
310.88
310.973
311.095
311.225
311.352
311.472
311.578
311.664
311.725
311.756
311.756
311.725
311.664
311.578
311.472
311.352
311.225
311.095
310.973
310.88
303.647
303.678
303.719
303.762
303.805
303.845
303.881
303.91
303.93
303.941
303.941
303.93
303.91
303.881
303.845
303.805
303.762
303.719
303.678
303.647
356.065
356.533
357.105
357.698
358.278
358.819
359.295
359.68
359.952
360.093
360.093
359.952
359.68
359.295
358.819
358.278
357.698
357.105
356.533
356.065
348.588
348.984
349.477
349.991
350.494
350.963
351.375
351.709
351.945
352.067
352.067
351.945
351.709
351.375
350.963
350.494
349.991
349.477
348.984
348.588
341.113
341.441
341.857
342.292
342.718
343.114
343.463
343.746
343.946
344.049
344.049
343.946
343.746
343.463
343.114
342.718
342.292
341.857
341.441
341.113
333.64
333.904
334.244
334.599
334.948
335.272
335.558
335.79
335.953
336.037
336.037
335.953
335.79
335.558
335.272
334.948
334.599
334.244
333.904
333.64
326.17
326.372
326.636
326.912
327.183
327.436
327.658
327.838
327.965
328.031
328.031
327.965
327.838
327.658
327.436
327.183
326.912
326.636
326.372
326.17
318.701
318.844
319.032
319.229
319.423
319.604
319.762
319.891
319.982
320.029
320.029
319.982
319.891
319.762
319.604
319.423
319.229
319.032
318.844
318.701
311.233
311.318
311.431
311.549
311.666
311.774
311.87
311.947
312.001
312.03
312.03
312.001
311.947
311.87
311.774
311.666
311.549
311.431
311.318
311.233
303.765
303.794
303.832
303.871
303.91
303.947
303.979
304.005
304.023
304.032
304.032
304.023
304.005
303.979
303.947
303.91
303.871
303.832
303.794
303.765
357.993
358.425
358.95
359.492
360.019
360.507
360.935
361.281
361.524
361.649
361.649
361.524
361.281
360.935
360.507
360.019
359.492
358.95
358.425
357.993
350.255
350.62
351.073
351.543
351.999
352.423
352.794
353.094
353.304
353.413
353.413
353.304
353.094
352.794
352.423
351.999
351.543
351.073
350.62
350.255
342.521
342.823
343.205
343.603
343.989
344.348
344.662
344.915
345.094
345.186
345.186
345.094
344.915
344.662
344.348
343.989
343.603
343.205
342.823
342.521
334.79
335.034
335.345
335.67
335.987
336.28
336.538
336.745
336.891
336.966
336.966
336.891
336.745
336.538
336.28
335.987
335.67
335.345
335.034
334.79
327.063
327.25
327.492
327.744
327.991
328.219
328.419
328.581
328.694
328.753
328.753
328.694
328.581
328.419
328.219
327.991
327.744
327.492
327.25
327.063
319.338
319.471
319.643
319.823
319.999
320.163
320.306
320.421
320.502
320.544
320.544
320.502
320.421
320.306
320.163
319.999
319.823
319.643
319.471
319.338
311.615
311.694
311.798
311.906
312.012
312.11
312.196
312.265
312.314
312.339
312.339
312.314
312.265
312.196
312.11
312.012
311.906
311.798
311.694
311.615
303.894
303.92
303.954
303.991
304.026
304.059
304.088
304.111
304.128
304.136
304.136
304.128
304.111
304.088
304.059
304.026
303.991
303.954
303.92
303.894
360.069
360.466
360.948
361.442
361.919
362.36
362.745
363.054
363.271
363.383
363.383
363.271
363.054
362.745
362.36
361.919
361.442
360.948
360.466
360.069
352.049
352.384
352.8
353.228
353.642
354.025
354.358
354.626
354.814
354.911
354.911
354.814
354.626
354.358
354.025
353.642
353.228
352.8
352.384
352.049
344.034
344.313
344.663
345.025
345.376
345.7
345.982
346.209
346.368
346.45
346.45
346.368
346.209
345.982
345.7
345.376
345.025
344.663
344.313
344.034
336.026
336.25
336.536
336.832
337.119
337.384
337.615
337.801
337.931
337.998
337.998
337.931
337.801
337.615
337.384
337.119
336.832
336.536
336.25
336.026
328.023
328.195
328.416
328.646
328.87
329.076
329.256
329.401
329.502
329.554
329.554
329.502
329.401
329.256
329.076
328.87
328.646
328.416
328.195
328.023
320.023
320.145
320.303
320.467
320.627
320.774
320.903
321.006
321.079
321.116
321.116
321.079
321.006
320.903
320.774
320.627
320.467
320.303
320.145
320.023
312.026
312.099
312.194
312.292
312.388
312.477
312.554
312.616
312.66
312.682
312.682
312.66
312.616
312.554
312.477
312.388
312.292
312.194
312.099
312.026
304.031
304.055
304.087
304.12
304.152
304.182
304.208
304.229
304.243
304.251
304.251
304.243
304.229
304.208
304.182
304.152
304.12
304.087
304.055
304.031
362.272
362.637
363.077
363.527
363.96
364.358
364.704
364.98
365.174
365.273
365.273
365.174
364.98
364.704
364.358
363.96
363.527
363.077
362.637
362.272
353.948
354.257
354.637
355.027
355.403
355.748
356.047
356.287
356.455
356.542
356.542
356.455
356.287
356.047
355.748
355.403
355.027
354.637
354.257
353.948
345.635
345.891
346.211
346.541
346.859
347.152
347.405
347.609
347.751
347.824
347.824
347.751
347.609
347.405
347.152
346.859
346.541
346.211
345.891
345.635
337.331
337.537
337.798
338.068
338.329
338.568
338.776
338.942
339.059
339.118
339.118
339.059
338.942
338.776
338.568
338.329
338.068
337.798
337.537
337.331
329.034
329.192
329.395
329.605
329.808
329.994
330.156
330.286
330.376
330.423
330.423
330.376
330.286
330.156
329.994
329.808
329.605
329.395
329.192
329.034
320.744
320.856
321.001
321.151
321.296
321.429
321.545
321.637
321.702
321.735
321.735
321.702
321.637
321.545
321.429
321.296
321.151
321.001
320.856
320.744
312.459
312.526
312.612
312.702
312.79
312.87
312.939
312.995
313.034
313.054
313.054
313.034
312.995
312.939
312.87
312.79
312.702
312.612
312.526
312.459
304.176
304.198
304.227
304.258
304.287
304.314
304.337
304.356
304.369
304.375
304.375
304.369
304.356
304.337
304.314
304.287
304.258
304.227
304.198
304.176
364.544
364.88
365.283
365.694
366.087
366.447
366.758
367.006
367.179
367.268
367.268
367.179
367.006
366.758
366.447
366.087
365.694
365.283
364.88
364.544
355.899
356.183
356.531
356.887
357.229
357.541
357.811
358.026
358.177
358.254
358.254
358.177
358.026
357.811
357.541
357.229
356.887
356.531
356.183
355.899
347.271
347.507
347.801
348.102
348.392
348.656
348.885
349.067
349.195
349.26
349.26
349.195
349.067
348.885
348.656
348.392
348.102
347.801
347.507
347.271
338.66
338.85
339.09
339.336
339.573
339.79
339.977
340.127
340.231
340.285
340.285
340.231
340.127
339.977
339.79
339.573
339.336
339.09
338.85
338.66
330.062
330.208
330.394
330.586
330.77
330.939
331.085
331.202
331.283
331.325
331.325
331.283
331.202
331.085
330.939
330.77
330.586
330.394
330.208
330.062
321.475
321.578
321.711
321.849
321.98
322.101
322.206
322.289
322.347
322.377
322.377
322.347
322.289
322.206
322.101
321.98
321.849
321.711
321.578
321.475
312.897
312.958
313.038
313.12
313.199
313.272
313.335
313.385
313.42
313.438
313.438
313.42
313.385
313.335
313.272
313.199
313.12
313.038
312.958
312.897
304.323
304.343
304.37
304.397
304.424
304.448
304.469
304.486
304.498
304.504
304.504
304.498
304.486
304.469
304.448
304.424
304.397
304.37
304.343
304.323
366.739
367.049
367.422
367.799
368.159
368.486
368.769
368.993
369.15
369.23
369.23
369.15
368.993
368.769
368.486
368.159
367.799
367.422
367.049
366.739
357.76
358.023
358.345
358.672
358.985
359.27
359.515
359.711
359.847
359.917
359.917
359.847
359.711
359.515
359.27
358.985
358.672
358.345
358.023
357.76
348.816
349.034
349.306
349.584
349.849
350.091
350.299
350.465
350.58
350.64
350.64
350.58
350.465
350.299
350.091
349.849
349.584
349.306
349.034
348.816
339.903
340.079
340.301
340.528
340.746
340.944
341.115
341.251
341.346
341.394
341.394
341.346
341.251
341.115
340.944
340.746
340.528
340.301
340.079
339.903
331.016
331.151
331.324
331.501
331.671
331.825
331.958
332.064
332.138
332.176
332.176
332.138
332.064
331.958
331.825
331.671
331.501
331.324
331.151
331.016
322.15
322.246
322.369
322.496
322.617
322.728
322.823
322.899
322.951
322.979
322.979
322.951
322.899
322.823
322.728
322.617
322.496
322.369
322.246
322.15
313.299
313.356
313.43
313.506
313.579
313.646
313.703
313.748
313.78
313.797
313.797
313.78
313.748
313.703
313.646
313.579
313.506
313.43
313.356
313.299
304.457
304.476
304.501
304.526
304.551
304.573
304.592
304.608
304.618
304.624
304.624
304.618
304.608
304.592
304.573
304.551
304.526
304.501
304.476
304.457
368.468
368.76
369.11
369.464
369.801
370.106
370.369
370.578
370.723
370.797
370.797
370.723
370.578
370.369
370.106
369.801
369.464
369.11
368.76
368.468
359.171
359.419
359.722
360.03
360.324
360.59
360.82
361.002
361.128
361.193
361.193
361.128
361.002
360.82
360.59
360.324
360.03
359.722
359.419
359.171
349.95
350.157
350.414
350.676
350.925
351.152
351.347
351.502
351.61
351.665
351.665
351.61
351.502
351.347
351.152
350.925
350.676
350.414
350.157
349.95
340.794
340.96
341.17
341.385
341.59
341.777
341.937
342.064
342.153
342.198
342.198
342.153
342.064
341.937
341.777
341.59
341.385
341.17
340.96
340.794
331.687
331.815
331.978
332.146
332.306
332.452
332.577
332.676
332.745
332.781
332.781
332.745
332.676
332.577
332.452
332.306
332.146
331.978
331.815
331.687
322.618
322.709
322.825
322.945
323.06
323.164
323.254
323.325
323.375
323.4
323.4
323.375
323.325
323.254
323.164
323.06
322.945
322.825
322.709
322.618
313.575
313.63
313.7
313.772
313.841
313.904
313.958
314.001
314.03
314.046
314.046
314.03
314.001
313.958
313.904
313.841
313.772
313.7
313.63
313.575
304.549
304.567
304.591
304.615
304.638
304.659
304.677
304.691
304.701
304.707
304.707
304.701
304.691
304.677
304.659
304.638
304.615
304.591
304.567
304.549
)
;

boundaryField
{
    hotSide
    {
        type            fixedGradient;
        gradient        nonuniform List<scalar> 
400
(
469.577
470.888
473.519
477.488
482.821
489.55
497.713
507.349
518.502
531.212
545.521
561.467
579.084
598.404
619.455
642.26
666.84
693.209
721.381
751.366
481.062
482.282
484.734
488.443
493.443
499.777
507.494
516.647
527.289
539.474
553.252
568.671
585.772
604.594
625.169
647.522
671.676
697.647
725.449
755.092
493.492
494.603
496.842
500.242
504.849
510.718
517.913
526.503
536.556
548.14
561.316
576.142
592.669
610.94
630.992
652.854
676.549
702.095
729.505
758.787
506.659
507.644
509.636
512.678
516.83
522.166
528.767
536.72
546.112
557.025
569.536
583.713
599.616
617.294
636.789
658.131
681.346
706.45
733.455
762.368
520.197
521.04
522.755
525.396
529.042
533.786
539.733
546.99
555.664
565.857
577.659
591.151
606.401
623.464
642.385
663.197
685.925
710.586
737.188
765.736
533.541
534.232
535.65
537.864
540.974
545.094
550.355
556.888
564.822
574.277
585.36
598.161
612.759
629.214
647.572
667.868
690.127
714.361
740.58
768.783
545.927
546.465
547.587
549.378
551.956
555.463
560.053
565.882
573.103
581.851
592.25
604.401
618.389
634.279
652.119
671.944
693.775
717.626
743.501
771.397
556.439
556.84
557.696
559.106
561.209
564.169
568.165
573.375
579.97
588.105
597.913
609.507
622.976
638.387
655.791
675.222
696.699
720.233
745.825
773.47
564.132
564.428
565.08
566.199
567.94
570.486
574.033
578.778
584.905
592.583
601.955
613.138
626.226
641.289
658.377
677.524
698.746
722.053
747.443
774.91
568.208
568.447
568.988
569.949
571.494
573.815
577.12
581.613
587.49
594.924
604.062
615.027
627.914
642.793
659.715
678.711
699.8
722.989
748.274
775.648
568.208
568.447
568.988
569.949
571.494
573.815
577.12
581.613
587.49
594.924
604.062
615.027
627.914
642.793
659.715
678.711
699.8
722.989
748.274
775.648
564.132
564.428
565.08
566.199
567.94
570.486
574.033
578.778
584.905
592.583
601.955
613.138
626.226
641.289
658.377
677.524
698.746
722.053
747.443
774.91
556.439
556.84
557.696
559.106
561.209
564.169
568.165
573.375
579.97
588.105
597.913
609.507
622.976
638.387
655.791
675.222
696.699
720.233
745.825
773.47
545.927
546.465
547.587
549.378
551.956
555.463
560.053
565.882
573.103
581.851
592.25
604.401
618.389
634.279
652.119
671.944
693.775
717.626
743.501
771.397
533.541
534.232
535.65
537.864
540.974
545.094
550.355
556.888
564.822
574.277
585.36
598.161
612.759
629.214
647.572
667.868
690.127
714.361
740.58
768.783
520.197
521.04
522.755
525.396
529.042
533.786
539.733
546.99
555.664
565.857
577.659
591.151
606.401
623.464
642.385
663.197
685.925
710.586
737.188
765.736
506.659
507.644
509.636
512.678
516.83
522.166
528.767
536.72
546.112
557.025
569.536
583.713
599.616
617.294
636.789
658.131
681.346
706.45
733.455
762.368
493.492
494.603
496.842
500.242
504.849
510.718
517.913
526.503
536.556
548.14
561.316
576.142
592.669
610.94
630.992
652.854
676.549
702.095
729.505
758.787
481.062
482.282
484.734
488.443
493.443
499.777
507.494
516.647
527.289
539.474
553.252
568.671
585.772
604.594
625.169
647.522
671.676
697.647
725.449
755.092
469.577
470.888
473.519
477.488
482.821
489.55
497.713
507.349
518.502
531.212
545.521
561.467
579.084
598.404
619.455
642.26
666.84
693.209
721.381
751.366
)
;
    }
    coldSide
    {
        type            mixed;
        refValue        uniform 300;
        refGradient     uniform 0;
        valueFraction   uniform 0.991591;
        source          uniform 0;
        value           nonuniform List<scalar> 
400
(
300.025
300.025
300.025
300.025
300.026
300.026
300.026
300.027
300.028
300.028
300.029
300.03
300.031
300.032
300.033
300.034
300.035
300.036
300.037
300.038
300.026
300.026
300.026
300.026
300.026
300.026
300.027
300.027
300.028
300.029
300.029
300.03
300.031