/*--------------------------------*- C++ -*----------------------------------*\
| =========                 |                                                 |
| \\      /  F ield         | OpenFOAM: The Open Source CFD Toolbox           |
|  \\    /   O peration     | Version:  2212                                  |
|   \\  /    A nd           | Website:  www.openfoam.com                      |
|    \\/     M anipulation  |                                                 |
\*---------------------------------------------------------------------------*/
FoamFile
{
    version     2.0;
    format      ascii;
    arch        "LSB;label=32;scalar=64";
    class       volScalarField;
    location    "./ITHACAoutput/true/12.5";
    object      error;
}
// * * * * * * * * * * * * * * * * * * * * * * * * * * * * * * * * * * * * * //

dimensions      [0 0 0 1 0 0 0];

internalField   nonuniform List<scalar> 
3200
(
4.08743
3.93232
3.91563
4.41737
5.37257
5.67365
3.71375
5.087
5.78713
7.75961
6.62895
6.57295
7.27656
7.95435
5.26834
5.39401
5.99011
5.01987
4.71895
5.35413
3.1318
3.73126
3.89964
1.8928
3.22849
5.17794
5.24745
3.54243
3.60862
6.02685
5.67528
4.11372
4.88433
5.07212
3.78127
2.5541
3.30152
2.43292
5.35255
3.53256
3.52904
4.25627
3.18753
2.02291
3.45078
4.34856
4.22168
2.63281
3.20205
3.81759
4.51624
6.28328
5.75226
5.26578
3.97544
3.28891
4.20362
3.1889
2.99937
0.579585
1.66895
2.62204
1.59017
2.71575
2.53959
4.9229
3.86394
3.2071
2.34507
2.9659
4.24876
3.7341
2.84304
1.90397
1.58894
0.389271
2.79987
1.80745
1.38711
1.68203
1.94174
2.12545
3.37862
0.773619
0.759323
3.33994
0.927757
4.15044
1.82711
2.79134
4.59985
1.50509
1.03712
2.50157
2.70353
2.8106
0.134197
2.2238
1.89962
0.266861
0.515958
2.91631
3.23658
2.10655
1.37136
2.5488
1.95777
2.48145
1.81168
1.95886
1.07305
2.14128
2.02143
1.12196
1.91365
2.14622
0.570677
1.05194
2.428
0.845364
-0.211645
2.13704
0.630584
-0.0837974
1.71243
-0.385334
0.00589729
3.38507
2.28863
2.10492
0.569959
1.25024
1.07255
-0.11209
0.432255
0.180538
-1.75351
1.70459
1.49419
0.237252
1.28354
-0.106958
-1.79237
0.114489
-0.694191
0.185964
0.693844
-0.152869
1.06637
-0.115841
0.449611
-0.143203
2.14925
-1.68864
0.693687
-0.521348
-0.13938
1.4308
0.208718
-0.563944
4.14348
1.66443
2.8525
4.9548
4.4597
4.5618
7.24044
4.29463
7.23729
8.55479
5.84349
5.74182
4.70691
4.93969
5.46365
5.02064
2.55341
2.07503
4.2515
3.01253
2.68303
1.67951
4.47235
-0.125428
4.89779
0.290529
4.72352
0.845017
4.41138
0.227452
0.649014
2.90696
-0.10303
3.65865
-0.362736
3.44839
0.300392
2.69167
0.26599
0.679136
1.37087
2.6688
3.95507
1.99918
3.13406
4.51526
4.68493
3.5211
5.31866
4.04651
3.40183
2.48161
3.73738
4.23322
1.46019
2.82997
1.67774
-0.707857
2.1829
3.97134
2.47754
3.34214
2.2771
2.78723
2.97458
1.49016
4.05522
0.630828
4.28211
2.32655
4.38727
2.54037
2.14865
3.31929
0.982824
1.37732
3.13287
2.16918
2.20987
2.91365
2.32715
2.97556
0.264267
1.89002
2.78859
1.20667
2.82665
5.30827
1.77841
4.34677
1.53171
4.22558
4.26134
1.73818
2.42431
2.38621
2.27264
0.699746
-0.940507
2.28318
1.97905
-0.00967011
1.88887
-0.983024
0.995806
1.64189
-0.0816742
1.51962
3.0753
2.45663
1.84387
2.30174
1.24371
1.44913
1.95601
0.635915
1.20621
0.794917
-1.0605
1.27842
0.923332
0.112769
1.02352
1.6145
2.71655
-0.8549
1.86558
1.61563
-0.816467
0.0468782
-1.08201
0.767554
1.09678
1.62171
-2.07825
-2.06027
1.83049
2.67691
2.30124
0.679658
-0.316027
0.295556
-0.310193
-1.77528
0.479358
-1.70303
0.266133
0.355379
-0.517614
0.0825208
1.9121
1.13182
-0.536441
-0.133101
-1.8687
-0.617426
0.274082
0.134091
-1.26071
1.04561
2.57064
3.75888
4.88579
2.96134
3.9442
4.95041
4.5633
5.1743
2.62387
4.13071
4.66337
7.27075
4.60549
3.23535
1.74997
3.7017
3.08503
3.46
5.40098
0.405932
2.67565
0.934414
2.81795
1.79885
3.05986
3.63599
4.25016
3.88892
5.38549
4.55595
4.87627
3.83039
4.10798
3.52022
2.90719
3.75617
1.35543
2.36178
2.07898
0.401229
0.467237
-0.902928
1.33622
3.25771
1.34486
3.03437
3.889
4.68052
5.63871
3.68184
4.37753
3.26962
5.13067
4.68775
2.18139
2.89969
0.0926946
3.60991
2.04674
2.13643
1.33279
1.45696
0.644723
1.19357
1.67051
3.08843
1.61513
2.04618
3.09788
3.62442
3.32813
2.22782
1.69981
3.33397
3.07207
0.00201303
1.51133
4.76672
0.555508
0.788633
0.247335
1.29825
0.996024
2.78192
2.22554
2.23314
-0.981104
2.8799
1.00551
2.94549
0.922626
0.4874
-0.372307
2.42798
1.65863
0.146751
2.16551
0.654338
3.49082
1.87131
0.437808
0.318086
0.523683
-0.675433
0.882918
-0.519791
1.6578
1.23611
2.99677
1.55467
-0.0372128
2.81602
1.35732
1.29052
2.27639
0.278392
1.29834
-0.682382
-0.00690059
1.24057
-1.02774
1.07899
-0.115779
-0.45782
-0.486054
1.73392
-0.777413
1.53921
0.306414
-0.570893
2.57274
1.37045
0.361373
0.615226
0.402748
-1.42652
2.5743
2.27784
-0.915416
1.37404
0.315203
-0.391418
0.626104
-1.68158
-1.80187
1.78379
0.254131
-0.0159876
0.800822
0.695319
-0.282519
-0.115218
1.16158
0.788569
1.79902
0.527832
1.68277
-0.71781
0.566544
0.244253
2.17334
2.84545
2.98415
0.781363
2.46143
2.93263
3.96343
4.94706
2.15896
2.96851
2.71542
4.81757
1.81114
1.85819
3.40915
1.82231
2.59929
2.51126
-0.858127
1.52727
1.71373
-0.604243
1.38507
0.71554
1.8803
0.322021
5.83706
0.32525
4.34102
-0.0281148
0.0482528
1.11129
0.420993
1.64143
0.449038
3.54284
-0.373384
2.52418
-0.167149
0.398721
0.810654
0.954758
3.66736
0.494644
1.4311
0.00937197
3.58158
1.99914
2.80852
4.58325
5.08729
2.00722
0.857118
0.900963
3.01967
2.59316
2.51676
0.429713
-0.435496
0.0079541
0.274565
1.34145
1.66319
1.88091
1.19847
0.820193
-1.3943
2.11452
1.06319
2.33434
1.76459
1.42424
1.97552
2.66394
-0.638257
1.30631
1.83053
0.375515
0.294894
0.258296
1.5732
3.28831
1.1552
-0.239672
-0.247987
1.83686
2.58768
3.33016
0.229172
1.78045
1.63873
0.765002
2.57376
1.18217
1.1712
-0.00185328
2.42503
0.44649
3.56477
1.09312
1.95548
1.2678
0.983093
1.48892
-0.489517
-0.480722
3.23933
1.30677
2.65457
-0.519437
-0.531441
1.26999
-0.123112
-1.55806
1.33123
-0.259947
2.42904
1.67703
-0.049009
0.526429
-1.74445
1.01859
1.8133
-0.793363
-1.10184
-1.23258
-0.0401389
1.89054
0.831255
0.0357211
0.688569
-0.508599
0.860571
-0.475073
1.91917
0.374891
0.946094
0.583604
0.200673
1.08508
1.08658
-0.625367
0.547671
-2.7927
1.54941
2.40016
-0.0832764
0.37284
-0.621997
0.335227
-0.241009
0.841502
1.87103
0.726077
2.11817
0.583019
0.365145
-0.199324
-1.32631
0.00022882
1.43472
2.23262
-0.479354
2.00796
1.91692
0.957465
1.85338
1.86168
1.77607
3.73038
3.30287
2.12726
1.17091
1.71762
3.18693
0.689123
1.46692
1.05018
0.452538
0.52572
-0.103383
0.00358291
2.69068
0.519153
1.56503
4.05773
2.68902
2.50317
4.72534
3.07286
0.898294
2.23015
1.52335
2.86593
2.26874
2.16614
0.0269711
0.999066
-0.0544818
-0.812939
0.0565852
3.21491
1.06516
-1.1152
2.07998
0.722877
1.64747
2.23643
0.450819
1.6529
1.36843
3.76259
1.55459
-3.29166e-05
0.885267
-0.160436
2.5214
0.0677903
0.793326
2.02973
0.156284
0.341236
-0.793309
1.07176
1.65724
-0.052577
2.07936
2.30293
0.305273
1.24563
2.255
0.573113
2.89789
1.30579
2.89786
3.31187
-0.173581
0.412676
1.31135
-0.776867
1.05308
-0.253177
-0.295822
-0.223076
-0.885121
1.19481
2.44017
-0.0335427
-0.135915
-1.00727
0.950088
0.862443
0.438678
0.681196
0.574809
0.686324
1.82226
-0.418658
-0.34676
-1.05481
0.752167
1.88562
-0.537837
-1.15104
-0.849643
-0.488592
2.88737
-1.66863
2.24785
-0.308029
2.21808
2.38158
0.452321
1.74005
-0.89213
1.97912
-0.249057
-0.821674
-0.600029
0.66175
1.38803
0.178714
-1.13545
0.0029772
1.00468
0.70473
1.59699
1.38487
0.252214
0.792596
0.454882
-0.27545
-0.219194
0.493989
0.00975945
0.504224
-0.632903
-0.667609
0.0206086
0.122537
-0.0152285
-1.29515
1.31424
-0.750285
0.748144
0.726332
0.759256
-2.03738
0.46316
-1.57142
-3.16684
-1.45891
-0.121878
-0.226435
0.237644
-0.00564434
-0.691254
-1.63961
0.173785
1.06735
0.62528
-0.390046
-0.799408
2.01657
-0.244051
0.90225
2.02549
1.88153
2.0408
3.83088
1.17998
1.03823
1.47028
3.18498
0.115201
0.719199
2.46795
-0.427564
1.13729
-0.713276
0.336245
1.04161
0.796856
1.24641
1.02979
0.0433439
0.975064
0.0544053
2.0184
-0.499526
0.165687
1.66944
0.579941
0.755612
0.23385
0.381697
-0.0525787
0.532926
-0.142378
-0.212042
0.534596
0.296786
0.794392
-0.703784
1.21811
2.1391
2.45704
-0.607041
0.322972
2.39425
1.00636
2.18385
2.00475
1.31853
0.580327
0.59417
-0.473518
0.612213
-0.33395
-2.06352
0.804488
0.189663
-4.02438
1.81404
-0.0955799
0.263835
0.737895
-0.275851
2.10339
1.03301
-0.233463
1.77815
0.68645
1.84537
0.973187
0.625681
2.22706
-0.656109
-1.73777
0.31486
-1.61957
1.50544
2.12859
-2.15586
0.272646
0.223957
1.1786
0.265738
0.875377
-0.335778
0.647728
2.00667
1.8426
-0.792387
1.68774
-1.35584
1.2444
-1.1426
0.574948
-0.43176
0.197409
-0.467886
0.114207
-0.429939
1.69302
0.21831
-0.532174
0.266099
1.93637
-0.358831
0.298834
0.628547
0.465954
0.332535
-0.14915
2.78215
-1.18907
0.23425
-0.728856
-2.19995
2.61583
-0.504758
2.18908
-0.680747
-0.540909
3.47422
0.957803
0.698351
0.714137
-0.00738908
1.30536
-2.48176
-1.1651
-0.902307
1.06765
0.0820334
-2.88457
-0.388569
-1.28156
1.21993
0.0934569
0.441928
-0.31099
-0.237418
-0.787979
1.80994
0.0518257
-0.171368
-0.327774
-0.488736
0.238983
2.2196
-0.0636777
0.437851
0.586255
-0.265441
-0.608775
1.68368
0.0130646
-0.656895
-0.0258924
2.4835
-0.0542795
2.89832
0.812964
1.13301
0.00249148
1.61355
3.64068
0.417059
1.50881
1.48486
1.04424
1.32145
2.25759
0.369593
-1.22162
1.97572
0.126627
-0.720897
0.562034
-0.29503
0.0460082
-0.304564
1.23728
-1.24643
0.634948
1.78552
2.73473
1.98278
2.42735
1.50386
0.698647
2.62492
-0.602564
-0.0944464
-1.4967
1.6728
-0.879921
0.869997
0.957986
-0.765142
-0.987108
0.598508
0.533348
0.829371
1.25168
1.24425
1.79578
1.53709
0.0986525
-0.977629
-0.703859
3.32522
2.11121
2.89717
0.646704
-0.0769111
0.82136
0.0146867
1.42191
0.0705358
-0.195135
1.45971
-0.242431
2.49121
-0.444184
1.25094
-0.238165
0.0286724
1.32528
0.660383
0.643519
0.215819
0.235571
0.542199
1.0794
0.0749863
1.49867
2.21313
-0.724787
1.42951
-0.114634
0.678672
-0.709978
0.414886
1.35191
-0.823439
-0.371274
0.915626
1.6274
1.26287
-0.815237
1.75993
0.555998
-0.733445
-0.735907
2.53203
1.37865
-0.250971
-1.29868
-1.24685
-0.347443
0.178458
-0.512824
-0.881563
1.60036
-1.52775
1.03241
0.654409
0.59866
1.60203
-0.565449
1.18902
0.357489
-0.565775
0.424381
1.54564
1.23126
-0.777067
0.379961
1.26977
-0.279362
-0.452893
-0.548481
0.507207
-0.0344186
2.11005
0.600717
0.622369
-1.13823
1.87486
0.944567
-0.780349
-1.39505
0.28653
0.426197
0.503084
-1.43367
0.69935
1.08966
0.369954
-0.541921
0.252417
1.46614
0.0232166
1.14467
1.02621
0.051137
1.48488
-1.4814
-0.298402
-1.28243
1.10553
0.161756
0.00414181
0.226139
3.40864
0.81339
-0.251714
-0.775914
0.408938
0.581815
-1.41973
-1.24348
-1.09312
0.743716
-0.31139
1.79039
1.92762
1.87195
-0.150647
0.922249
0.0402222
0.283864
-0.643597
-1.35464
0.475935
-0.491131
0.150758
-1.60385
1.07328
0.188466
1.2175
1.46581
-0.00103426
1.24689
-0.209947
1.03087
-0.0585929
0.244076
-0.978719
0.109564
0.947805
0.372963
-0.338314
-0.0073106
-0.426378
0.0117577
1.33787
-0.995781
-1.91299
-0.81663
-1.83016
0.823478
3.53082
1.26788
-0.0331352
1.64303
-0.141325
0.980995
0.529202
0.311366
2.69136
-0.823681
-1.5941
-0.68316
-3.08447
-1.26249
-0.0688482
-1.03847
-3.68972
0.0820966
-0.869272
1.16892
1.03316
0.847017
1.12641
2.42142
0.534093
1.72982
0.12551
0.369382
0.828346
0.406979
-1.37087
0.184775
-0.202785
-1.07533
0.572623
-0.825063
-0.00233848
-0.642564
-0.105503
-0.377892
-1.25178
0.278491
-0.225697
1.23826
-0.103291
0.174779
-0.978481
-0.208914
-0.164938
-0.339826
-1.30917
1.34074
-0.183197
-0.309458
0.331115
0.549225
0.339096
-1.24208
-0.868991
-0.590851
0.264863
1.56616
1.72857
-1.05381
1.4996
-0.481452
-1.0403
0.996398
-0.160162
-0.0907379
0.956744
0.88124
-2.18709
-0.769019
0.438293
1.02462
-0.295308
1.53548
-0.987046
-0.0344885
1.88143
-1.41638
-1.57369
0.0493
-0.266736
0.294134
0.3794
2.61976
0.189167
1.56116
1.34293
1.54194
-1.82943
1.19472
-1.56054
-0.921882
-2.69275
0.459948
-2.05654
1.92256
-0.350097
1.38485
1.39446
-0.0968958
0.360587
2.12719
-0.64751
-0.883603
-0.282669
1.26364
1.48197
-0.532651
0.0844436
-0.88311
-0.64265
-0.0177152
-1.02851
-0.910503
-2.9216
0.374608
0.101494
0.900813
-0.849966
0.238078
0.116847
0.249324
-0.41431
-1.2983
-1.72228
-0.637384
-1.03105
-0.867426
-0.734513
-2.58242
-2.45805
-1.59615
-0.333634
-0.535451
-0.76755
0.134932
-0.893489
-0.697086
1.41948
-0.801333
-1.23364
0.00557029
0.878206
-1.65796
-2.14706
-0.150394
-0.931184
-0.48725
0.0625752
-0.276956
0.0306243
-0.992521
1.02995
0.408127
1.06081
-1.8907
-2.09115
0.704193
-0.737311
-2.06717
-0.359218
-1.0105
0.101746
-1.43387
-2.21957
2.64182
-1.00787
-2.38122
-0.526304
-0.981252
-0.768394
-1.76061
-1.02385
-0.830652
1.07259
-1.7222
-0.324968
1.41629
-2.5709
-0.544945
1.04917
-0.221721
0.240031
0.641509
-2.26495
-0.46088
-0.738926
-2.29141
-2.16678
-2.95102
-0.448076
-1.90712
-1.36891
-1.20301
-0.740914
-1.44278
-1.65613
1.01603
0.877671
-0.937292
0.782554
0.320879
-0.514318
0.515365
-1.66168
-0.311485
-0.104044
-0.866222
-0.824
0.384655
-1.98791
-1.40367
-0.423295
0.247697
-0.724802
-0.903865
0.628398
-1.33138
1.10604
0.352807
-0.653076
-0.609398
2.48527
0.624822
-0.88817
-2.03112
-1.61888
-0.533792
-1.75856
-1.12622
0.427533
0.608753
-0.48489
-0.495976
-0.310019
-0.565356
-1.81512
0.271958
0.913474
-1.58133
0.267245
1.5828
-0.175347
-1.01007
-0.331053
2.9926
0.0580479
0.36207
0.646029
0.79703
-0.184962
-2.19745
-0.503204
0.421568
-3.03478
0.747262
-0.821515
0.948291
0.307641
-1.61139
0.222856
-1.83803
-1.39194
-0.206921
1.44225
2.3659
1.94929
0.61482
-1.40642
-0.573746
0.659187
1.15268
-0.0334774
-1.4882
0.429641
1.28281
-0.571432
-0.903333
-0.786292
-4.02368
-1.33206
0.698114
-0.726655
0.0863561
-0.778462
-1.81427
-0.427868
-2.42379
1.21875
-1.13231
-2.16635
-1.41051
-0.340757
1.82063
-0.221261
-1.13193
-0.0512731
0.826991
0.401658
-2.33086
-0.13079
0.502259
0.71422
-0.0222108
-1.62491
0.0275036
-0.289643
0.203453
-0.161116
0.125759
1.78673
-0.762323
-0.920999
-0.742531
0.584371
-2.19423
-1.87184
-0.307826
-1.77365
-1.50022
0.502069
0.829148
-0.73767
-1.74406
1.4893
0.857966
-1.29377
-0.902872
-0.724722
0.0456606
-3.24773
1.20541
-1.79662
0.496125
0.518879
0.545575
-0.964109
-0.847993
-0.926361
1.05523
0.348088
-1.00014
-0.0329755
0.827661
-0.38463
-0.0417486
0.0493146
0.570516
-1.69245
-1.20021
-1.6411
0.553224
-0.766657
-1.14666
-0.444709
-0.904096
-1.14477
0.392251
0.625096
-2.0171
0.940832
0.0228906
-1.88767
-0.434431
-0.702865
0.0272028
-1.94099
-2.26272
-1.6417
-1.72905
-1.36329
-0.398904
-1.62869
-2.92452
-1.29845
-0.0622888
2.52786
0.488403
0.573733
-1.05033
-2.27259
-1.03776
2.09472
-0.944653
-0.413422
-1.52684
0.304829
0.463372
-2.52738
-2.90722
-0.589968
0.222483
1.93881
1.53484
0.124247
-1.11402
1.30843
-0.101675
-1.99054
0.705835
0.769634
1.15316
-0.446359
-0.935125
0.771663
-1.16155
-1.2257
-1.45616
-0.0291767
0.689808
-0.99629
0.43903
-0.321858
0.5149
-1.18571
0.0879441
-0.208672
0.38449
-0.183094
-0.446813
1.52149
-2.03215
-2.15747
-0.0632434
0.396573
0.0259124
-0.888905
-1.21092
-0.98368
0.0864367
-0.410694
-1.06523
-2.05575
-1.37251
-0.0840854
-1.04249
-1.74645
-1.10189
-0.551294
-1.78769
1.12834
0.131527
-1.96407
-0.639556
-2.54028
-0.316483
0.574713
-1.51033
-1.5642
-0.200123
-1.42756
0.422036
0.92209
-1.51161
2.29135
0.363273
-0.577293
-1.55789
0.103228
0.489264
-0.0378291
-0.232136
-2.57916
0.274428
-1.47041
0.126328
-1.92103
-0.00396906
-0.124263
0.211566
-0.916348
-0.204477
-1.28144
-2.85022
0.511992
-2.29176
-1.50725
-0.852199
-0.294838
0.994929
-1.16048
-0.940056
-1.49856
-1.13201
-0.792843
-1.30004
0.170242
-0.978388
-2.09659
-1.58685
-1.71501
-0.488317
-3.11312
-1.99156
0.0337405
-0.21144
-0.31891
-0.105595
-0.999578
-0.629767
0.103274
-1.31984
-1.97709
-3.13094
-0.592788
-0.720188
-1.28539
-1.07867
-1.0764
-1.15598
0.0757441
1.12841
-0.948055
-1.03458
-0.7071
-0.43391
0.402071
0.267346
0.669265
-0.496193
-0.408134
-1.83586
-1.40423
-2.91467
-0.138122
-2.1213
-1.43757
1.1519
0.935235
-1.16635
-0.574549
-0.467238
-0.46402
0.386766
-0.49121
-1.09449
-1.02198
1.01596
-0.205282
0.918619
-0.0403283
-1.01758
-0.207087
0.633913
-0.108355
0.0644204
-0.414412
-1.29031
-2.15003
1.26075
-0.355354
-0.660203
0.574598
0.516995
-0.572537
-0.799927
0.222544
0.921006
-1.43312
0.420807
2.53651
-2.30909
-0.283782
-0.582564
0.864267
-1.24273
-0.537378
-1.43377
0.120109
-1.86923
-0.856848
-0.862774
-0.661275
0.57882
0.458344
-0.943107
0.910031
0.969486
2.32544
-0.330806
-0.0705147
-0.0687319
0.81977
0.266493
0.665071
-1.52919
-0.301572
1.76869
0.124527
-1.95322
-1.70213
-0.0679494
-2.26593
0.363189
-1.31628
-0.863761
-2.33122
-0.502747
-1.78715
-2.80877
-4.10138
-2.87377
-2.49771
0.308611
-0.541509
-1.48601
-0.802662
-0.774529
-2.47649
-1.13212
-2.26783
-0.00270131
-1.64445
-1.35214
0.551635
0.276011
-2.7798
-1.45389
-1.72868
-1.72761
0.578888
-0.482828
-2.69703
-1.22865
-0.936478
-1.41227
-2.17136
-1.5202
-0.803928
-0.395076
-2.6629
-1.7109
-1.61829
-0.488541
-1.00994
-1.47451
-0.643618
-2.42087
-1.69714
0.492986
1.2908
-1.87491
0.0740506
-0.261217
-0.587865
-2.0939
-1.9234
-0.557495
-1.74962
-1.42163
-1.54349
-1.99931
-0.359992
0.0867451
1.40623
0.909369
-2.28827
-1.18602
-0.376861
-0.0345524
-1.71591
-0.596564
0.259246
0.00299463
-0.74446
0.856904
-0.581837
-1.63085
-1.48136
-2.74691
-0.464617
0.203138
-0.415172
1.86136
0.832384
-0.564993
-0.771494
-2.05373
-1.30747
-0.768544
-1.84578
-1.22134
-0.227484
-1.34159
0.150516
-1.29198
0.149618
0.919412
0.439386
-3.26217
-0.00197361
-2.40098
-0.357022
0.599439
-0.875774
-1.06907
0.696405
-2.57324
0.10938
-0.583051
-1.31069
-1.87807
-2.10865
0.158705
-0.0933956
0.799595
-0.787736
-2.98617
-1.69444
-2.88373
-1.23444
-1.23825
0.327295
-0.287115
0.213563
-0.33228
-1.57371
0.221532
-0.494981
-0.499882
0.513303
0.342008
0.192137
-0.950758
-2.85738
0.978312
-0.844683
0.124826
-0.575892
0.343631
-0.574211
-1.14581
-0.4898
-0.385214
-0.617239
1.41062
1.1243
1.3235
-0.466139
-0.243588
0.270726
-0.252479
0.818151
-1.58021
0.901274
-1.45016
-0.243812
-0.247251
-1.05349
0.483739
-2.48598
-1.50669
0.278456
-2.59406
-0.569242
-0.566892
-0.411544
-2.6845
-1.26625
-0.463387
-1.05249
-2.7644
-1.39561
0.714798
-1.49811
-1.0502
-0.829226
-2.06449
-3.23675
-1.25596
0.126293
-0.925837
0.315369
-0.950179
-0.302019
-1.57446
-0.406022
-1.98384
-0.018278
-0.520286
0.0747203
0.108152
-2.01695
0.392241
-3.14678
0.133299
-2.65333
-0.0344187
-1.5966
-0.285211
-1.6245
0.358839
0.135521
0.448527
-1.13329
-2.40986
-1.68636
-3.33259
-3.01818
-1.21122
-1.88622
-2.82714
-1.42466
-0.448115
-1.79994
-0.478508
-0.333485
-0.559566
-2.41993
-1.98044
-0.229526
-3.51829
0.5474
-0.775811
-1.99554
-1.85317
0.370323
-1.68951
-2.22173
-1.32026
-1.70634
-1.26865
-2.823
-0.455471
-1.67664
-1.5909
-2.47638
-0.544258
-1.12204
-0.532715
-0.547892
-0.842768
1.07517
-1.09867
-1.17143
-0.71404
0.548407
0.929448
-0.592283
-0.463066
-0.372159
-1.18756
-1.27653
-0.997624
-1.14307
-1.07174
-0.820885
-1.04901
0.0644163
-4.6553
-0.807228
-1.42194
-1.74472
-0.978324
-0.0607029
-3.60371
-1.71297
-0.0420223
-0.862665
-1.05262
1.18927
-1.83404
-0.694373
-1.77229
-2.05581
-0.484957
-2.41866
-1.7244
-0.800621
0.136593
-0.598635
0.276716
-0.321829
-0.664202
-0.0950508
-2.55377
0.569367
-1.87966
-0.955267
-0.932325
-1.59254
-0.382533
2.02571
-1.08367
-0.763378
-1.04658
-0.252806
0.792499
-1.73594
-0.327161
-2.11929
0.955115
-0.129657
-0.94459
0.181582
-0.951912
0.347885
-0.397758
0.10245
-0.305879
-0.624524
-0.213236
-0.77728
-0.253457
-1.3425
-0.931335
-0.92438
-0.263029
1.403
-0.634668
-0.383225
-2.97926
-1.38861
0.129418
-2.5164
-0.444447
-2.85484
-3.03574
-0.180383
-2.38801
-1.79247
-1.32767
-1.34243
0.20178
-2.63455
-2.63586
-1.4925
-0.650916
-1.10738
0.681015
-1.75807
0.104782
-2.6355
0.721613
-1.97447
-0.141921
-1.07038
-2.50635
-0.97246
-1.20139
-0.892178
-2.75346
-0.68726
-1.3116
-1.32441
-1.58779
-2.83368
-3.02117
-2.71231
0.375383
-1.64102
-0.692225
-0.437673
-1.27261
-0.443883
-1.42364
1.25812
-2.64389
-2.25916
-1.65105
-1.26533
-0.209959
-3.93152
-0.155438
-2.94789
-0.824273
-2.50989
-0.535644
0.487512
0.455987
-1.38323
0.768254
-1.61472
-1.0144
-1.76285
-1.30476
0.431795
-1.80019
-0.0405637
-0.257534
-1.30913
-0.465562
-1.28584
0.00923775
-2.76521
-0.840941
-2.19911
-0.706182
-3.1877
-2.3957
-1.50728
-1.14684
-1.56187
-0.482935
-0.729546
-1.61016
-1.34263
-0.740541
-1.84251
-1.56392
-0.398765
0.124017
-2.65308
-2.11488
-1.38824
-0.403582
-0.533957
-0.275531
-1.93667
-2.87765
-0.565138
-0.846157
-0.114127
0.715712
-1.08407
-1.22287
-2.35283
-1.12007
-1.26009
-1.8801
-1.57128
-2.01836
-1.48932
-0.458493
0.860108
-3.15402
-1.00882
0.252867
-1.64575
-0.165172
0.10578
0.0387553
-0.916146
-0.475113
-0.46624
-2.18202
1.15626
0.698475
1.03704
-0.153394
-1.34109
-0.208628
-1.57122
-0.0750641
-0.464335
-1.58637
0.76365
-0.718672
0.394353
-0.29551
0.793912
-1.00072
-1.59497
-0.0274096
-0.322864
-0.664876
0.0929623
0.77475
-0.607145
-0.650259
-0.953065
0.504088
-1.75496
-1.31619
-2.18306
-1.3807
-0.0948493
-0.211681
0.252433
0.741285
-0.106875
-0.0417877
-1.3632
-0.904189
-0.662384
-1.55954
-0.360381
-1.87038
-1.56816
1.04268
-3.23987
-1.83949
-1.85081
-1.64129
-2.41885
-1.15136
-2.50358
-1.74884
-2.77722
-0.554598
-1.34316
-1.55004
0.3403
-2.13798
0.147816
-1.96692
-0.0403053
-2.03904
-0.829149
-1.51412
-0.903899
-0.954095
-2.02507
-0.113707
-3.06684
-0.076492
-2.54259
-0.180639
-1.07206
0.116228
-0.845332
0.0534158
0.984545
0.809301
0.714238
0.643478
-2.56806
-2.59312
-0.436531
-0.28031
-2.46253
-2.17262
-0.871874
-3.1505
-2.44474
-1.78544
-1.62147
-0.728858
-1.6737
1.19171
-1.28088
2.75436
1.45364
-0.299827
1.17218
-1.44288
0.306356
-2.4492
-0.599094
-2.71954
-1.16758
-1.82578
-2.37558
-0.290632
-0.759454
-1.30398
-0.416855
-1.48086
-0.0225313
0.439362
0.0588333
0.194507
-0.643376
1.13007
0.128703
-1.57803
-1.16635
-2.05929
-0.172909
-0.9629
-1.45043
-1.51901
-1.46718
-1.01972
0.676591
0.613029
-1.29532
-2.81422
-1.1457
-1.00178
-2.14164
-0.989791
-1.78112
-2.0416
-1.2505
-1.388
0.963081
0.248546
-0.521345
-0.60609
-0.18575
-2.82003
0.658911
0.0275604
-0.903478
0.278834
0.572592
-0.946885
-0.685279
-1.13994
-1.54814
1.82718
0.421678
0.9516
-0.871027
-0.419478
-0.836558
0.359578
-1.3905
0.392701
-0.349496
0.199654
1.5477
-1.39917
0.323162
0.381205
2.06232
-1.84119
-1.93367
-1.42085
-1.00359
-2.39619
-0.263547
-2.19927
0.439612
-0.824973
-2.50827
-2.72049
-0.0408796
-0.804314
0.0710885
-0.309193
-1.17224
-1.34114
-1.161
-0.502593
-0.344946
-1.12424
-0.480543
0.234181
0.320567
-0.911307
-2.35169
-0.176528
-4.04356
-1.27177
-1.34361
-0.401856
-0.27229
-1.06807
-1.32372
-0.400092
-1.57831
-1.19077
-1.43067
-1.25382
-1.94117
-0.976881
-1.92838
-1.57354
-1.51937
1.86567
-0.0615669
-0.655017
-1.23799
-1.31414
0.231414
0.782599
0.270283
-1.24303
-1.27053
0.450737
-2.65091
-2.02686
-1.85377
-3.44708
0.287986
0.207129
-1.24455
0.0791207
-0.311166
-0.747723
0.46049
1.27438
0.0823181
-0.222822
0.222966
-1.28963
-0.86222
-2.03558
-1.30358
-0.341548
-2.60338
-1.88939
-1.47822
0.0709355
-0.534054
-1.67998
-1.85509
-1.75091
-0.449905
-2.19855
-0.263686
-0.353331
-0.48327
0.367808
-0.249318
-1.81869
-0.0586917
-2.48396
0.52511
-0.786991
-1.18301
-1.41591
-1.89446
-0.395904
-2.00674
-1.78659
-2.29044
-0.568588
0.221087
0.807804
-0.452393
-0.680593
-1.14414
-0.568121
-0.182634
-1.51297
-1.46995
0.25809
-1.70457
-0.634618
-1.03245
-1.7743
-1.68007
-1.81254
0.0490504
-1.90277
-1.4721
-2.77694
-1.9218
0.552801
0.266786
-0.452299
-0.714389
-1.09356
0.91765
-1.14868
-1.66298
-0.0572433
-1.68168
-0.00427765
-0.699001
0.329401
-0.551481
0.347125
-0.805558
0.0553242
0.464171
-0.285427
-1.77964
1.52195
0.169307
0.501251
-0.819244
-1.89984
-1.0631
-2.38506
0.664516
-1.65446
0.624865
-1.93202
0.776599
1.67283
-0.0366648
0.916848
-1.53048
0.0548283
0.153095
-0.527894
-0.442415
0.840549
-0.468684
-0.606001
1.57889
-0.730353
-0.392547
-0.314024
1.56475
-0.780334
1.91784
0.957961
0.384473
0.692415
-0.73581
-1.07861
0.557824
0.946126
-0.955572
0.966458
-0.282977
0.676037
1.27232
-0.272973
-1.22671
-1.29313
-0.708416
1.44348
-0.265129
-3.0037
-1.37383
-1.4442
-3.76588
-1.13585
-0.544091
-1.49439
-1.09645
0.30457
-1.1245
-0.343779
-0.914823
0.271389
-0.374141
-0.26641
0.416315
-1.9408
-0.160207
-0.291965
0.519244
0.390825
-0.279132
0.353902
-1.1589
-1.10439
-1.32794
0.285269
-2.80162
-0.291681
-0.90107
-0.0451255
-2.36621
-1.76865
-1.91127
0.0635608
-1.86478
0.525603
-1.14039
-1.05625
-1.34914
-2.00346
-2.72809
-0.649966
-0.497712
-2.48015
-0.932274
0.517128
0.27453
-2.00581
-0.157346
-1.79634
-0.916054
-0.478879
0.191187
-0.0576092
0.718666
-1.77818
0.180828
1.23885
-1.37416
-0.520485
-2.59524
-0.564094
-1.52932
-1.1049
0.565721
0.0950573
-0.429043
-0.178103
-0.291441
0.676943
-0.670879
-0.921054
-0.17263
-1.54271
-0.293663
-4.03711
0.445458
-0.166737
0.00336424
-0.907432
0.21349
-1.91946
-0.0599815
-1.00946
-1.21038
-1.59529
-1.01067
-0.892134
-0.183991
1.18134
-1.9031
-1.08726
-1.42856
-2.01311
-0.458579
0.840063
1.04253
0.368689
-1.17135
-0.447787
0.935923
0.150557
0.0942014
-0.223245
-1.11843
-0.876505
-1.77133
-2.59038
0.294422
-0.0326375
1.38862
-0.190547
-0.933719
-0.337741
0.510259
-1.00264
1.21613
-0.581654
0.130123
-1.71645
-1.6589
-0.853709
-0.397588
-0.759873
-0.881805
0.723032
-0.505987
-1.63439
1.04665
-0.0221937
-0.905619
0.351927
-0.688629
-1.41524
0.0357681
0.500762
-1.63668
-0.133329
-2.17426
1.46466
1.26285
1.25882
1.10756
0.112082
-0.739592
0.197961
-1.13357
-1.15321
-0.365777
-1.07603
0.350114
0.283937
1.30159
0.0814219
-1.3098
0.241399
-0.260792
-2.25073
-0.595488
-1.69798
-2.45927
-2.51245
-1.65702
-1.44766
0.639858
-0.136474
1.1796
1.45209
-0.197002
-0.566479
-0.485105
1.48797
-2.49699
-0.227402
-1.26154
-1.18713
-0.459903
-0.132784
-0.157105
-0.553741
-1.11812
-1.58913
-1.00303
-1.28552
-0.39612
0.427392
0.294731
0.255658
-0.381787
-1.14955
0.547748
1.49243
0.0860653
-1.48223
1.19133
1.28072
-1.55169
1.94502
-1.47081
-2.0935
-0.313031
-1.1803
0.0116769
0.389742
-1.51345
-1.932
-1.62161
0.0901483
0.412893
0.119888
-0.368219
0.629307
2.15207
-1.34492
-0.349483
-1.43118
-0.51709
-1.19115
0.10067
-1.17706
-0.667391
-0.493524
-1.80507
-2.48065
-0.999996
-1.43433
-1.12185
-0.981996
0.43799
-0.865355
-0.362839
-1.66334
0.354384
0.875637
-0.153174
-0.319333
1.15513
0.00322145
-0.440102
-0.947313
-0.534746
-0.106057
-2.08547
0.238159
-1.38434
-1.69385
2.03036
0.820945
1.51055
-0.800503
-0.801258
0.46836
-2.14713
-0.463424
1.79156
-2.01709
-1.29102
0.397901
-0.916618
0.858631
-0.515789
-0.529598
-1.47344
-0.676237
-2.61019
-1.84782
-1.45386
-0.977106
0.442334
0.0572493
-1.29082
0.607701
1.27647
0.179354
-0.243651
1.01186
-1.8063
0.518246
0.384748
0.905427
0.175024
0.567199
-0.897027
1.91268
0.583226
-0.17122
-1.89264
0.30413
-1.46083
0.540457
-0.820227
-0.387647
1.46455
-0.364104
-1.74831
-1.52305
-1.68818
-1.47355
0.517679
-0.395615
-0.958175
0.749044
1.85506
-1.37373
1.49313
-0.266678
-0.0192396
2.68956
0.0357995
-0.568057
0.241386
2.04843
0.0855693
2.10762
-1.21468
0.607604
0.805654
0.197202
0.713378
-1.09916
-2.72116
-0.0924495
1.67077
-1.66365
-1.93397
0.119721
-0.995108
-1.40765
0.759173
2.3521
0.473104
1.19011
0.480674
0.821966
0.160847
0.623605
-0.234334
-0.120216
0.357362
-0.680198
0.0733853
0.141902
0.990261
0.137358
-1.3706
0.0128508
0.660522
-0.3778
0.537815
-0.153576
0.58533
-1.22974
-0.55646
0.379659
1.30382
-0.0470548
-0.3279
-0.780747
1.49805
-0.668621
-1.64059
-0.961457
0.907089
-2.74027
-1.66263
-0.603468
-0.0556454
0.832827
0.112486
3.03069
1.34261
-0.220014
0.92563
1.03878
0.0592999
2.19377
-0.497281
-1.36719
0.220195
-1.06925
-1.88402
0.993205
-1.09155
1.04665
0.411193
-0.0477013
0.34996
0.305664
0.613373
-0.272158
1.37636
-1.01373
0.0753518
-1.07326
0.290141
-0.480828
-0.381322
-1.34432
0.0852438
0.835047
-1.59356
-1.86537
0.14314
-1.61093
-0.41289
-0.841153
-0.203891
-0.209241
-1.08153
-2.06995
2.13113
-0.389259
-0.477608
-0.944023
-1.84479
1.13166
-2.15798
0.724687
-1.78219
-0.258967
-0.693839
0.0905281
0.950694
1.49614
1.72323
0.400708
-0.976291
0.595417
1.01401
-0.0182999
0.128329
-0.336162
2.45415
-0.445417
0.720901
0.00786889
1.8838
-0.672982
0.862658
0.119328
-2.13051
-0.108681
-0.708351
-0.197706
-0.804673
-0.647904
-1.04737
1.48514
-2.14476
0.326727
-0.0830426
0.0225769
0.475018
-1.58941
-0.762025
-1.00631
1.23191
-0.00221546
-1.99695
-0.841531
-3.3059
0.652442
-1.75438
0.299935
-0.673165
-0.662363
0.474162
-1.77785
-0.645508
-2.98518
-2.61822
2.87759
1.73482
2.99813
1.40901
0.386831
1.9145
-1.21487
0.818527
-1.36876
-0.541297
-0.368999
-0.159557
-0.861402
-0.18412
-0.22914
-0.0942988
0.638776
-1.49004
3.20715
2.46475
2.04643
0.372306
1.88874
1.30581
2.17759
2.86313
1.15599
-0.373377
0.346105
0.518222
0.658989
1.95561
-0.778141
1.78999
1.51155
0.519005
0.688521
-1.09858
-0.107663
2.40754
0.114934
-1.53248
1.35747
1.77157
1.84732
-0.0510193
1.60249
-0.405279
1.23786
-0.345
-1.28377
-1.43838
-2.52458
-1.3039
0.882241
-0.2061
2.41879
-2.57936
0.873352
1.03345
-0.852923
-0.803177
0.0593557
-0.236628
-2.16581
0.675467
-0.0971782
1.78232
-0.663553
0.315345
0.0320412
0.164851
0.576792
0.821138
0.276316
0.371476
-1.37492
1.58509
1.45583
-1.45001
-0.481818
0.560526
1.27726
-0.9681
1.25415
-2.11067
0.113863
1.86525
0.765374
0.0419543
0.542052
-0.857317
-0.259497
-0.361326
0.740783
-1.68188
-0.715279
1.73629
1.14224
1.14842
-0.615871
0.485678
-0.114871
0.531737
1.75409
0.995574
0.82543
0.739728
-0.762337
-1.06449
1.31977
-2.06243
1.02941
0.533752
1.21288
0.00376126
0.705936
0.589787
-1.32398
1.35005
-1.17873
-0.285534
1.12695
0.46391
-0.14296
2.02282
-0.765714
-0.834583
0.25467
-0.76744
-0.646725
1.10925
-0.0301058
1.11792
0.422816
0.579714
-0.583235
0.49264
1.11809
-1.39943
0.257221
0.912699
-2.24691
0.246803
-1.71629
-0.85784
0.755072
-0.194447
-0.374181
1.21839
1.04734
1.10151
0.297606
1.34667
0.177982
-2.00628
-0.0369466
0.908761
-1.80512
0.116608
)
;

boundaryField
{
    hotSide
    {
        type            calculated;
        value           nonuniform List<scalar> 
400
(
3.3163
3.36737
1.78461
1.37244
0.614031
-0.22004
-0.90066
-1.68488
-0.965578
0.161285
-2.10475
-1.16012
-2.656
-4.19015
-1.31867
-2.25854
-0.745911
-1.21705
0.464106
1.20562
3.17675
0.903759
2.98803
2.05938