/*--------------------------------*- C++ -*----------------------------------*\
| =========                 |                                                 |
| \\      /  F ield         | OpenFOAM: The Open Source CFD Toolbox           |
|  \\    /   O peration     | Version:  2212                                  |
|   \\  /    A nd           | Website:  www.openfoam.com                      |
|    \\/     M anipulation  |                                                 |
\*---------------------------------------------------------------------------*/
FoamFile
{
    version     2.0;
    format      ascii;
    arch        "LSB;label=32;scalar=64";
    class       volScalarField;
    location    "./ITHACAoutput/true/12.5";
    object      trueState;
}
// * * * * * * * * * * * * * * * * * * * * * * * * * * * * * * * * * * * * * //

dimensions      [0 0 0 1 0 0 0];

internalField   nonuniform List<scalar> 
3200
(
318.74
319.098
319.556
320.055
320.568
321.072
321.538
321.931
322.217
322.368
322.368
322.217
321.931
321.538
321.072
320.568
320.055
319.556
319.098
318.74
316.257
316.56
316.955
317.386
317.831
318.267
318.669
319.009
319.256
319.386
319.386
319.256
319.009
318.669
318.267
317.831
317.386
316.955
316.56
316.257
313.768
314.02
314.352
314.717
315.093
315.461
315.801
316.087
316.296
316.406
316.406
316.296
316.087
315.801
315.461
315.093
314.717
314.352
314.02
313.768
311.274
311.477
311.748
312.046
312.353
312.654
312.931
313.165
313.336
313.425
313.425
313.336
313.165
312.931
312.654
312.353
312.046
311.748
311.477
311.274
308.776
308.932
309.142
309.373
309.612
309.846
310.062
310.243
310.375
310.445
310.445
310.375
310.243
310.062
309.846
309.612
309.373
309.142
308.932
308.776
306.274
306.384
306.534
306.699
306.87
307.037
307.191
307.32
307.415
307.465
307.465
307.415
307.32
307.191
307.037
306.87
306.699
306.534
306.384
306.274
303.77
303.836
303.925
304.025
304.127
304.227
304.32
304.397
304.454
304.484
304.484
304.454
304.397
304.32
304.227
304.127
304.025
303.925
303.836
303.77
301.264
301.286
301.316
301.349
301.383
301.417
301.448
301.474
301.493
301.503
301.503
301.493
301.474
301.448
301.417
301.383
301.349
301.316
301.286
301.264
318.791
319.147
319.601
320.095
320.603
321.102
321.562
321.95
322.232
322.381
322.381
322.232
321.95
321.562
321.102
320.603
320.095
319.601
319.147
318.791
316.302
316.603
316.994
317.421
317.861
318.293
318.69
319.026
319.269
319.398
319.398
319.269
319.026
318.69
318.293
317.861
317.421
316.994
316.603
316.302
313.806
314.056
314.385
314.746
315.118
315.483
315.818
316.101
316.307
316.416
316.416
316.307
316.101
315.818
315.483
315.118
314.746
314.385
314.056
313.806
311.305
311.506
311.775
312.07
312.374
312.672
312.946
313.177
313.345
313.434
313.434
313.345
313.177
312.946
312.672
312.374
312.07
311.775
311.506
311.305
308.8
308.954
309.163
309.392
309.628
309.86
310.073
310.252
310.383
310.452
310.452
310.383
310.252
310.073
309.86
309.628
309.392
309.163
308.954
308.8
306.291
306.401
306.549
306.713
306.882
307.047
307.199
307.327
307.42
307.469
307.469
307.42
307.327
307.199
307.047
306.882
306.713
306.549
306.401
306.291
303.78
303.845
303.934
304.033
304.134
304.233
304.325
304.401
304.457
304.487
304.487
304.457
304.401
304.325
304.233
304.134
304.033
303.934
303.845
303.78
301.267
301.289
301.319
301.352
301.386
301.419
301.45
301.475
301.494
301.504
301.504
301.494
301.475
301.45
301.419
301.386
301.352
301.319
301.289
301.267
318.895
319.245
319.691
320.176
320.674
321.162
321.611
321.99
322.265
322.41
322.41
322.265
321.99
321.611
321.162
320.674
320.176
319.691
319.245
318.895
316.391
316.688
317.072
317.492
317.923
318.345
318.733
319.061
319.298
319.424
319.424
319.298
319.061
318.733
318.345
317.923
317.492
317.072
316.688
316.391
313.882
314.127
314.452
314.806
315.171
315.527
315.855
316.131
316.332
316.438
316.438
316.332
316.131
315.855
315.527
315.171
314.806
314.452
314.127
313.882
311.367
311.565
311.829
312.119
312.417
312.708
312.976
313.202
313.365
313.452
313.452
313.365
313.202
312.976
312.708
312.417
312.119
311.829
311.565
311.367
308.848
309
309.205
309.43
309.662
309.888
310.096
310.271
310.399
310.466
310.466
310.399
310.271
310.096
309.888
309.662
309.43
309.205
309
308.848
306.326
306.433
306.579
306.74
306.905
307.067
307.216
307.341
307.432
307.479
307.479
307.432
307.341
307.216
307.067
306.905
306.74
306.579
306.433
306.326
303.801
303.865
303.953
304.049
304.148
304.245
304.335
304.41
304.464
304.493
304.493
304.464
304.41
304.335
304.245
304.148
304.049
303.953
303.865
303.801
301.274
301.296
301.325
301.357
301.391
301.423
301.453
301.478
301.496
301.506
301.506
301.496
301.478
301.453
301.423
301.391
301.357
301.325
301.296
301.274
319.052
319.394
319.828
320.3
320.784
321.256
321.69
322.055
322.32
322.459
322.459
322.32
322.055
321.69
321.256
320.784
320.3
319.828
319.394
319.052
316.527
316.816
317.191
317.599
318.018
318.426
318.802
319.117
319.346
319.467
319.467
319.346
319.117
318.802
318.426
318.018
317.599
317.191
316.816
316.527
313.996
314.236
314.552
314.897
315.251
315.596
315.913
316.179
316.372
316.474
316.474
316.372
316.179
315.913
315.596
315.251
314.897
314.552
314.236
313.996
311.461
311.654
311.911
312.193
312.482
312.765
313.024
313.241
313.399
313.482
313.482
313.399
313.241
313.024
312.765
312.482
312.193
311.911
311.654
311.461
308.921
309.069
309.269
309.488
309.713
309.932
310.133
310.302
310.425
310.489
310.489
310.425
310.302
310.133
309.932
309.713
309.488
309.269
309.069
308.921
306.378
306.483
306.625
306.781
306.942
307.099
307.242
307.363
307.45
307.496
307.496
307.45
307.363
307.242
307.099
306.942
306.781
306.625
306.483
306.378
303.832
303.895
303.98
304.074
304.17
304.264
304.351
304.423
304.475
304.503
304.503
304.475
304.423
304.351
304.264
304.17
304.074
303.98
303.895
303.832
301.285
301.306
301.334
301.366
301.398
301.43
301.458
301.483
301.5
301.509
301.509
301.5
301.483
301.458
301.43
301.398
301.366
301.334
301.306
301.285
319.262
319.594
320.014
320.469
320.934
321.386
321.801
322.149
322.401
322.534
322.534
322.401
322.149
321.801
321.386
320.934
320.469
320.014
319.594
319.262
316.709
316.989
317.352
317.746
318.148
318.54
318.898
319.199
319.417
319.532
319.532
319.417
319.199
318.898
318.54
318.148
317.746
317.352
316.989
316.709
314.15
314.383
314.688
315.021
315.361
315.692
315.995
316.249
316.433
316.53
316.53
316.433
316.249
315.995
315.692
315.361
315.021
314.688
314.383
314.15
311.586
311.774
312.023
312.295
312.573
312.843
313.091
313.298
313.448
313.527
313.527
313.448
313.298
313.091
312.843
312.573
312.295
312.023
311.774
311.586
309.018
309.162
309.355
309.567
309.783
309.993
310.186
310.347
310.463
310.525
310.525
310.463
310.347
310.186
309.993
309.783
309.567
309.355
309.162
309.018
306.447
306.549
306.687
306.838
306.992
307.142
307.28
307.395
307.478
307.522
307.522
307.478
307.395
307.28
307.142
306.992
306.838
306.687
306.549
306.447
303.874
303.935
304.017
304.108
304.2
304.291
304.373
304.442
304.492
304.518
304.518
304.492
304.442
304.373
304.291
304.2
304.108
304.017
303.935
303.874
301.299
301.319
301.347
301.377
301.408
301.438
301.466
301.489
301.506
301.515
301.515
301.506
301.489
301.466
301.438
301.408
301.377
301.347
301.319
301.299
319.528
319.847
320.25
320.685
321.128
321.558
321.951
322.279
322.516
322.641
322.641
322.516
322.279
321.951
321.558
321.128
320.685
320.25
319.847
319.528
316.939
317.209
317.557
317.933
318.317
318.689
319.028
319.312
319.517
319.625
319.625
319.517
319.312
319.028
318.689
318.317
317.933
317.557
317.209
316.939
314.344
314.568
314.861
315.179
315.504
315.818
316.105
316.345
316.518
316.609
316.609
316.518
316.345
316.105
315.818
315.504
315.179
314.861
314.568
314.344
311.745
311.925
312.164
312.424
312.689
312.946
313.181
313.377
313.518
313.592
313.592
313.518
313.377
313.181
312.946
312.689
312.424
312.164
311.925
311.745
309.142
309.28
309.466
309.668
309.874
310.074
310.256
310.408
310.518
310.576
310.576
310.518
310.408
310.256
310.074
309.874
309.668
309.466
309.28
309.142
306.535
306.633
306.766
306.91
307.057
307.2
307.33
307.439
307.517
307.558
307.558
307.517
307.439
307.33
307.2
307.057
306.91
306.766
306.633
306.535
303.927
303.985
304.064
304.151
304.239
304.325
304.403
304.468
304.516
304.54
304.54
304.516
304.468
304.403
304.325
304.239
304.151
304.064
303.985
303.927
301.316
301.336
301.363
301.392
301.421
301.45
301.476
301.498
301.514
301.522
301.522
301.514
301.498
301.476
301.45
301.421
301.392
301.363
301.336
301.316
319.851
320.155
320.54
320.953
321.371
321.776
322.144
322.45
322.671
322.787
322.787
322.671
322.45
322.144
321.776
321.371
320.953
320.54
320.155
319.851
317.218
317.476
317.807
318.165
318.527
318.877
319.196
319.461
319.652
319.752
319.752
319.652
319.461
319.196
318.877
318.527
318.165
317.807
317.476
317.218
314.58
314.794
315.073
315.375
315.682
315.978
316.247
316.471
316.632
316.717
316.717
316.632
316.471
316.247
315.978
315.682
315.375
315.073
314.794
314.58
311.938
312.11
312.338
312.585
312.835
313.077
313.297
313.48
313.612
313.681
313.681
313.612
313.48
313.297
313.077
312.835
312.585
312.338
312.11
311.938
309.291
309.424
309.601
309.792
309.987
310.175
310.346
310.489
310.591
310.645
310.645
310.591
310.489
310.346
310.175
309.987
309.792
309.601
309.424
309.291
306.642
306.736
306.862
306.999
307.138
307.273
307.395
307.496
307.569
307.608
307.608
307.569
307.496
307.395
307.273
307.138
306.999
306.862
306.736
306.642
303.991
304.047
304.122
304.205
304.288
304.369
304.442
304.503
304.547
304.57
304.57
304.547
304.503
304.442
304.369
304.288
304.205
304.122
304.047
303.991
301.338
301.357
301.382
301.409
301.438
301.465
301.489
301.51
301.524
301.532
301.532
301.524
301.51
301.489
301.465
301.438
301.409
301.382
301.357
301.338
320.231
320.521
320.885
321.274
321.667
322.044
322.386
322.67
322.875
322.982
322.982
322.875
322.67
322.386
322.044
321.667
321.274
320.885
320.521
320.231
317.547
317.792
318.106
318.443
318.783
319.11
319.406
319.652
319.829
319.921
319.921
319.829
319.652
319.406
319.11
318.783
318.443
318.106
317.792
317.547
314.858
315.061
315.326
315.611
315.898
316.175
316.425
316.633
316.782
316.86
316.86
316.782
316.633
316.425
316.175
315.898
315.611
315.326
315.061
314.858
312.165
312.329
312.544
312.777
313.012
313.239
313.443
313.613
313.735
313.799
313.799
313.735
313.613
313.443
313.239
313.012
312.777
312.544
312.329
312.165
309.468
309.594
309.761
309.942
310.125
310.301
310.46
310.592
310.687
310.736
310.736
310.687
310.592
310.46
310.301
310.125
309.942
309.761
309.594
309.468
306.769
306.857
306.977
307.106
307.237
307.362
307.476
307.57
307.638
307.673
307.673
307.638
307.57
307.476
307.362
307.237
307.106
306.977
306.857
306.769
304.067
304.12
304.191
304.269
304.347
304.423
304.491
304.548
304.588
304.609
304.609
304.588
304.548
304.491
304.423
304.347
304.269
304.191
304.12
304.067
301.363
301.381
301.405
301.431
301.457
301.483
301.505
301.524
301.538
301.545
301.545
301.538
301.524
301.505
301.483
301.457
301.431
301.405
301.381
301.363
320.672
320.946
321.288
321.652
322.018
322.368
322.684
322.945
323.132
323.23
323.23
323.132
322.945
322.684
322.368
322.018
321.652
321.288
320.946
320.672
317.928
318.16
318.455
318.771
319.088
319.391
319.664
319.89
320.052
320.137
320.137
320.052
319.89
319.664
319.391
319.088
318.771
318.455
318.16
317.928
315.18
315.372
315.621
315.888
316.156
316.413
316.644
316.835
316.972
317.043
317.043
316.972
316.835
316.644
316.413
316.156
315.888
315.621
315.372
315.18
312.428
312.583
312.786
313.004
313.223
313.433
313.622
313.778
313.89
313.949
313.949
313.89
313.778
313.622
313.433
313.223
313.004
312.786
312.583
312.428
309.673
309.792
309.949
310.119
310.289
310.452
310.599
310.721
310.808
310.853
310.853
310.808
310.721
310.599
310.452
310.289
310.119
309.949
309.792
309.673
306.915
306.999
307.111
307.232
307.354
307.47
307.575
307.662
307.724
307.757
307.757
307.724
307.662
307.575
307.47
307.354
307.232
307.111
306.999
306.915
304.154
304.205
304.272
304.345
304.418
304.488
304.551
304.603
304.64
304.66
304.66
304.64
304.603
304.551
304.488
304.418
304.345
304.272
304.205
304.154
301.393
301.41
301.432
301.456
301.481
301.504
301.526
301.543
301.555
301.562
301.562
301.555
301.543
301.526
301.504
301.481
301.456
301.432
301.41
301.393
321.174
321.432
321.752
322.091
322.43
322.753
323.042
323.281
323.451
323.54
323.54
323.451
323.281
323.042
322.753
322.43
322.091
321.752
321.432
321.174
318.363
318.581
318.857
319.151
319.444
319.724
319.975
320.181
320.329
320.405
320.405
320.329
320.181
319.975
319.724
319.444
319.151
318.857
318.581
318.363
315.548
315.728
315.961
316.209
316.458
316.694
316.906
317.081
317.206
317.271
317.271
317.206
317.081
316.906
316.694
316.458
316.209
315.961
315.728
315.548
312.729
312.874
313.064
313.267
313.47
313.663
313.837
313.98
314.082
314.135
314.135
314.082
313.98
313.837
313.663
313.47
313.267
313.064
312.874
312.729
309.907
310.018
310.165
310.323
310.481
310.632
310.766
310.877
310.957
310.998
310.998
310.957
310.877
310.766
310.632
310.481
310.323
310.165
310.018
309.907
307.082
307.16
307.265
307.378
307.491
307.599
307.695
307.774
307.831
307.86
307.86
307.831
307.774
307.695
307.599
307.491
307.378
307.265
307.16
307.082
304.255
304.302
304.365
304.432
304.5
304.565
304.623
304.67
304.704
304.722
304.722
304.704
304.67
304.623
304.565
304.5
304.432
304.365
304.302
304.255
301.426
301.442
301.463
301.486
301.509
301.53
301.55
301.566
301.577
301.583
301.583
301.577
301.566
301.55
301.53
301.509
301.486
301.463
301.442
301.426
321.74
321.981
322.279
322.593
322.905
323.201
323.465
323.681
323.836
323.916
323.916
323.836
323.681
323.465
323.201
322.905
322.593
322.279
321.981
321.74
318.853
319.056
319.313
319.586
319.856
320.112
320.341
320.529
320.662
320.732
320.732
320.662
320.529
320.341
320.112
319.856
319.586
319.313
319.056
318.853
315.962
316.13
316.347
316.577
316.806
317.023
317.216
317.375
317.488
317.547
317.547
317.488
317.375
317.216
317.023
316.806
316.577
316.347
316.13
315.962
313.067
313.203
313.38
313.568
313.755
313.932
314.091
314.22
314.313
314.361
314.361
314.313
314.22
314.091
313.932
313.755
313.568
313.38
313.203
313.067
310.169
310.274
310.411
310.557
310.703
310.841
310.964
311.065
311.136
311.174
311.174
311.136
311.065
310.964
310.841
310.703
310.557
310.411
310.274
310.169
307.269
307.343
307.441
307.545
307.649
307.748
307.836
307.908
307.959
307.986
307.986
307.959
307.908
307.836
307.748
307.649
307.545
307.441
307.343
307.269
304.367
304.411
304.47
304.533
304.595
304.654
304.707
304.751
304.781
304.797
304.797
304.781
304.751
304.707
304.654
304.595
304.533
304.47
304.411
304.367
301.464
301.479
301.498
301.519
301.54
301.56
301.578
301.592
301.603
301.608
301.608
301.603
301.592
301.578
301.56
301.54
301.519
301.498
301.479
301.464
322.371
322.595
322.871
323.161
323.447
323.717
323.956
324.152
324.291
324.363
324.363
324.291
324.152
323.956
323.717
323.447
323.161
322.871
322.595
322.371
319.398
319.588
319.826
320.077
320.325
320.559
320.767
320.936
321.057
321.119
321.119
321.057
320.936
320.767
320.559
320.325
320.077
319.826
319.588
319.398
316.423
316.58
316.781
316.993
317.203
317.401
317.577
317.72
317.822
317.875
317.875
317.822
317.72
317.577
317.401
317.203
316.993
316.781
316.58
316.423
313.444
313.571
313.734
313.908
314.08
314.242
314.385
314.503
314.586
314.629
314.629
314.586
314.503
314.385
314.242
314.08
313.908
313.734
313.571
313.444
310.463
310.56
310.687
310.822
310.955
311.081
311.193
311.284
311.349
311.383
311.383
311.349
311.284
311.193
311.081
310.955
310.822
310.687
310.56
310.463
307.479
307.547
307.638
307.734
307.83
307.92
308
308.065
308.111
308.135
308.135
308.111
308.065
308
307.92
307.83
307.734
307.638
307.547
307.479
304.493
304.534
304.588
304.646
304.704
304.758
304.806
304.845
304.873
304.887
304.887
304.873
304.845
304.806
304.758
304.704
304.646
304.588
304.534
304.493
301.506
301.52
301.538
301.558
301.577
301.595
301.611
301.624
301.633
301.638
301.638
301.633
301.624
301.611
301.595
301.577
301.558
301.538
301.52
301.506
323.067
323.275
323.53
323.796
324.058
324.303
324.52
324.696
324.821
324.885
324.885
324.821
324.696
324.52
324.303
324.058
323.796
323.53
323.275
323.067
320.001
320.177
320.397
320.628
320.854
321.067
321.255
321.407
321.515
321.572
321.572
321.515
321.407
321.255
321.067
320.854
320.628
320.397
320.177
320.001
316.932
317.078
317.264
317.459
317.65
317.83
317.989
318.118
318.21
318.257
318.257
318.21
318.118
317.989
317.83
317.65
317.459
317.264
317.078
316.932
313.861
313.978
314.129
314.289
314.446
314.593
314.723
314.829
314.903
314.942
314.942
314.903
314.829
314.723
314.593
314.446
314.289
314.129
313.978
313.861
310.786
310.876
310.994
311.118
311.24
311.354
311.456
311.538
311.596
311.626
311.626
311.596
311.538
311.456
311.354
311.24
311.118
310.994
310.876
310.786
307.71
307.774
307.857
307.946
308.033
308.115
308.187
308.246
308.288
308.309
308.309
308.288
308.246
308.187
308.115
308.033
307.946
307.857
307.774
307.71
304.632
304.67
304.72
304.773
304.826
304.875
304.918
304.954
304.979
304.991
304.991
304.979
304.954
304.918
304.875
304.826
304.773
304.72
304.67
304.632
301.553
301.565
301.582
301.6
301.618
301.634
301.649
301.661
301.669
301.673
301.673
301.669
301.661
301.649
301.634
301.618
301.6
301.582
301.565
301.553
323.83
324.022
324.257
324.501
324.739
324.961
325.157
325.315
325.427
325.484
325.484
325.427
325.315
325.157
324.961
324.739
324.501
324.257
324.022
323.83
320.661
320.824
321.027
321.238
321.444
321.637
321.806
321.943
322.04
322.09
322.09
322.04
321.943
321.806
321.637
321.444
321.238
321.027
320.824
320.661
317.49
317.625
317.796
317.974
318.149
318.312
318.455
318.572
318.653
318.696
318.696
318.653
318.572
318.455
318.312
318.149
317.974
317.796
317.625
317.49
314.317
314.425
314.565
314.71
314.853
314.987
315.104
315.199
315.266
315.301
315.301
315.266
315.199
315.104
314.987
314.853
314.71
314.565
314.425
314.317
311.141
311.224
311.332
311.446
311.557
311.661
311.752
311.826
311.878
311.905
311.905
311.878
311.826
311.752
311.661
311.557
311.446
311.332
311.224
311.141
307.963
308.022
308.099
308.18
308.26
308.334
308.399
308.452
308.489
308.508
308.508
308.489
308.452
308.399
308.334
308.26
308.18
308.099
308.022
307.963
304.784
304.819
304.865
304.914
304.962
305.006
305.045
305.077
305.1
305.111
305.111
305.1
305.077
305.045
305.006
304.962
304.914
304.865
304.819
304.784
301.604
301.615
301.631
301.647
301.663
301.678
301.691
301.702
301.71
301.713
301.713
301.71
301.702
301.691
301.678
301.663
301.647
301.631
301.615
301.604
324.659
324.836
325.052
325.275
325.491
325.692
325.867
326.009
326.109
326.161
326.161
326.109
326.009
325.867
325.692
325.491
325.275
325.052
324.836
324.659
321.379
321.529
321.715
321.907
322.095
322.269
322.421
322.544
322.631
322.676
322.676
322.631
322.544
322.421
322.269
322.095
321.907
321.715
321.529
321.379
318.096
318.221
318.377
318.54
318.699
318.847
318.976
319.08
319.153
319.191
319.191
319.153
319.08
318.976
318.847
318.699
318.54
318.377
318.221
318.096
314.812
314.912
315.04
315.173
315.303
315.424
315.529
315.615
315.674
315.705
315.705
315.674
315.615
315.529
315.424
315.303
315.173
315.04
314.912
314.812
311.526
311.603
311.702
311.806
311.907
312
312.083
312.149
312.196
312.22
312.22
312.196
312.149
312.083
312
311.907
311.806
311.702
311.603
311.526
308.238
308.292
308.363
308.437
308.509
308.576
308.635
308.683
308.716
308.733
308.733
308.716
308.683
308.635
308.576
308.509
308.437
308.363
308.292
308.238
304.949
304.981
305.024
305.068
305.112
305.152
305.187
305.216
305.236
305.246
305.246
305.236
305.216
305.187
305.152
305.112
305.068
305.024
304.981
304.949
301.659
301.67
301.684
301.699
301.714
301.727
301.739
301.748
301.755
301.759
301.759
301.755
301.748
301.739
301.727
301.714
301.699
301.684
301.67
301.659
325.551
325.714
325.912
326.115
326.311
326.492
326.65
326.777
326.866
326.912
326.912
326.866
326.777
326.65
326.492
326.311
326.115
325.912
325.714
325.551
322.15
322.288
322.458
322.634
322.804
322.961
323.098
323.208
323.285
323.325
323.325
323.285
323.208
323.098
322.961
322.804
322.634
322.458
322.288
322.15
318.747
318.862
319.005
319.154
319.298
319.431
319.547
319.64
319.705
319.739
319.739
319.705
319.64
319.547
319.431
319.298
319.154
319.005
318.862
318.747
315.344
315.436
315.553
315.675
315.792
315.901
315.996
316.072
316.126
316.154
316.154
316.126
316.072
315.996
315.901
315.792
315.675
315.553
315.436
315.344
311.939
312.009
312.1
312.195
312.287
312.371
312.445
312.505
312.546
312.568
312.568
312.546
312.505
312.445
312.371
312.287
312.195
312.1
312.009
311.939
308.533
308.583
308.648
308.715
308.781
308.841
308.894
308.937
308.966
308.982
308.982
308.966
308.937
308.894
308.841
308.781
308.715
308.648
308.583
308.533
305.126
305.156
305.195
305.235
305.275
305.311
305.343
305.368
305.386
305.395
305.395
305.386
305.368
305.343
305.311
305.275
305.235
305.195
305.156
305.126
301.718
301.728
301.741
301.755
301.768
301.78
301.791
301.8
301.805
301.809
301.809
301.805
301.8
301.791
301.78
301.768
301.755
301.741
301.728
301.718
326.496
326.646
326.827
327.012
327.19
327.353
327.495
327.609
327.688
327.729
327.729
327.688
327.609
327.495
327.353
327.19
327.012
326.827
326.646
326.496
322.965
323.092
323.248
323.408
323.563
323.704
323.827
323.926
323.995
324.03
324.03
323.995
323.926
323.827
323.704
323.563
323.408
323.248
323.092
322.965
319.435
319.54
319.672
319.807
319.938
320.058
320.162
320.245
320.304
320.334
320.334
320.304
320.245
320.162
320.058
319.938
319.807
319.672
319.54
319.435
315.904
315.989
316.096
316.207
316.314
316.413
316.498
316.566
316.614
316.639
316.639
316.614
316.566
316.498
316.413
316.314
316.207
316.096
315.989
315.904
312.374
312.439
312.522
312.608
312.692
312.768
312.835
312.888
312.925
312.944
312.944
312.925
312.888
312.835
312.768
312.692
312.608
312.522
312.439
312.374
308.843
308.889
308.948
309.01
309.07
309.124
309.172
309.21
309.236
309.25
309.25
309.236
309.21
309.172
309.124
309.07
309.01
308.948
308.889
308.843
305.312
305.339
305.375
305.412
305.448
305.481
305.509
305.532
305.548
305.556
305.556
305.548
305.532
305.509
305.481
305.448
305.412
305.375
305.339
305.312
301.781
301.79
301.802
301.814
301.826
301.837
301.847
301.854
301.86
301.863
301.863
301.86
301.854
301.847
301.837
301.826
301.814
301.802
301.79
301.781
327.471
327.608
327.774
327.943
328.104
328.252
328.38
328.482
328.553
328.589
328.589
328.553
328.482
328.38
328.252
328.104
327.943
327.774
327.608
327.471
323.802
323.919
324.062
324.208
324.348
324.476
324.587
324.676
324.737
324.769
324.769
324.737
324.676
324.587
324.476
324.348
324.208
324.062
323.919
323.802
320.137
320.234
320.355
320.478
320.597
320.706
320.8
320.875
320.927
320.954
320.954
320.927
320.875
320.8
320.706
320.597
320.478
320.355
320.234
320.137
316.475
316.553
316.652
316.753
316.85
316.939
317.016
317.078
317.12
317.142
317.142
317.12
317.078
317.016
316.939
316.85
316.753
316.652
316.553
316.475
312.815
312.875
312.952
313.03
313.106
313.176
313.235
313.283
313.317
313.334
313.334
313.317
313.283
313.235
313.176
313.106
313.03
312.952
312.875
312.815
309.157
309.2
309.254
309.31
309.365
309.414
309.457
309.491
309.515
309.527
309.527
309.515
309.491
309.457
309.414
309.365
309.31
309.254
309.2
309.157
305.5
305.525
305.558
305.592
305.624
305.654
305.68
305.701
305.715
305.722
305.722
305.715
305.701
305.68
305.654
305.624
305.592
305.558
305.525
305.5
301.844
301.852
301.863
301.874
301.885
301.895
301.904
301.911
301.916
301.918
301.918
301.916
301.911
301.904
301.895
301.885
301.874
301.863
301.852
301.844
328.411
328.538
328.691
328.846
328.994
329.128
329.244
329.336
329.401
329.434
329.434
329.401
329.336
329.244
329.128
328.994
328.846
328.691
328.538
328.411
324.6
324.708
324.84
324.974
325.103
325.22
325.32
325.401
325.457
325.485
325.485
325.457
325.401
325.32
325.22
325.103
324.974
324.84
324.708
324.6
320.799
320.889
321.001
321.115
321.224
321.323
321.408
321.476
321.524
321.548
321.548
321.524
321.476
321.408
321.323
321.224
321.115
321.001
320.889
320.799
317.008
317.081
317.172
317.265
317.354
317.436
317.506
317.562
317.601
317.621
317.621
317.601
317.562
317.506
317.436
317.354
317.265
317.172
317.081
317.008
313.225
313.28
313.351
313.424
313.493
313.557
313.611
313.655
313.685
313.701
313.701
313.685
313.655
313.611
313.557
313.493
313.424
313.351
313.28
313.225
309.447
309.486
309.537
309.589
309.638
309.684
309.723
309.754
309.776
309.787
309.787
309.776
309.754
309.723
309.684
309.638
309.589
309.537
309.486
309.447
305.673
305.696
305.727
305.758
305.788
305.815
305.839
305.857
305.87
305.877
305.877
305.87
305.857
305.839
305.815
305.788
305.758
305.727
305.696
305.673
301.901
301.909
301.919
301.93
301.94
301.949
301.957
301.963
301.968
301.97
301.97
301.968
301.963
301.957
301.949
301.94
301.93
301.919
301.909
301.901
329.15
329.27
329.414
329.559
329.697
329.823
329.931
330.016
330.076
330.106
330.106
330.076
330.016
329.931
329.823
329.697
329.559
329.414
329.27
329.15
325.203
325.305
325.43
325.556
325.677
325.786
325.88
325.955
326.007
326.034
326.034
326.007
325.955
325.88
325.786
325.677
325.556
325.43
325.305
325.203
321.285
321.37
321.475
321.583
321.685
321.778
321.858
321.922
321.966
321.989
321.989
321.966
321.922
321.858
321.778
321.685
321.583
321.475
321.37
321.285
317.39
317.458
317.544
317.633
317.717
317.793
317.859
317.911
317.948
317.966
317.966
317.948
317.911
317.859
317.793
317.717
317.633
317.544
317.458
317.39
313.512
313.564
313.632
313.7
313.766
313.826
313.877
313.918
313.947
313.961
313.961
313.947
313.918
313.877
313.826
313.766
313.7
313.632
313.564
313.512
309.647
309.684
309.732
309.782
309.829
309.872
309.908
309.938
309.958
309.968
309.968
309.958
309.938
309.908
309.872
309.829
309.782
309.732
309.684
309.647
305.791
305.814
305.842
305.872
305.9
305.926
305.948
305.966
305.978
305.984
305.984
305.978
305.966
305.948
305.926
305.9
305.872
305.842
305.814
305.791
301.941
301.948
301.958
301.968
301.977
301.986
301.993
301.999
302.003
302.005
302.005
302.003
301.999
301.993
301.986
301.977
301.968
301.958
301.948
301.941
)
;

boundaryField
{
    hotSide
    {
        type            fixedGradient;
        gradient        nonuniform List<scalar> 
400
(
198.131
198.694
199.826
201.532
203.823
206.714
210.218
214.353
219.136
224.585
230.715
237.542
245.082
253.346
262.346
272.093
282.593
293.853
305.88
318.676
202.847
203.373
204.431
206.031
208.185
210.914
214.235
218.171
222.745
227.977
233.889
240.501
247.829
255.888
264.693
274.253
284.579
295.676
307.55
320.206
207.951
208.433
209.403
210.876
212.869
215.406
218.514
222.219
226.551
231.536
237.201
243.569
250.661
258.494
267.084
276.443
286.58
297.503
309.216
321.723
213.359
213.788
214.657
215.983
217.79
220.108
222.971
226.414
230.474
235.185
240.576
246.678
253.514
261.104
269.465
278.61
288.55
299.291
310.838
323.194
218.918
219.29
220.044
221.205
222.804
224.879
227.474
230.632
234.397
238.812
243.912
249.732
256.3
263.637
271.763
280.691
290.431
300.989
312.371
324.577
224.398
224.707
225.34
226.326
227.704
229.523
231.836
234.697
238.158
242.27
247.075
252.611
258.911
265.998
273.893
282.609
292.156
302.54
313.764
325.828
229.484
229.731
230.242
231.054
232.214
233.781
235.819
238.39
241.559
245.38
249.904
255.174
261.223
268.078
275.76
284.282
293.654
303.88
314.963
326.902
233.801
233.991
234.393
235.049
236.014
237.356
239.15
241.467
244.379
247.948
252.23
257.27
263.106
269.765
277.268
285.629
294.855
304.951
315.918
327.753
236.96
237.107
237.426
237.961
238.778
239.951
241.56
243.686
246.405
249.787
253.89
258.762
264.441
270.957
278.33
286.574
295.695
305.698
316.582
328.344
238.634
238.758
239.031
239.501
240.237
241.318
242.827
244.85
247.467
250.748
254.755
259.537
265.134
271.575
278.879
287.061
296.128
306.083
316.924
328.648
238.634
238.758
239.031
239.501
240.237
241.318
242.827
244.85
247.467
250.748
254.755
259.537
265.134
271.575
278.879
287.061
296.128
306.083
316.924
328.648
236.96
237.107
237.426
237.961
238.778
239.951
241.56
243.686
246.405
249.787
253.89
258.762
264.441
270.957
278.33
286.574
295.695
305.698
316.582
328.344
233.801
233.991
234.393
235.049
236.014
237.356
239.15
241.467
244.379
247.948
252.23
257.27
263.106
269.765
277.268
285.629
294.855
304.951
315.918
327.753
229.484
229.731
230.242
231.054
232.214
233.781
235.819
238.39
241.559
245.38
249.904
255.174
261.223
268.078
275.76
284.282
293.654
303.88
314.963
326.902
224.398
224.707
225.34
226.326
227.704
229.523
231.836
234.697
238.158
242.27
247.075
252.611
258.911
265.998
273.893
282.609
292.156
302.54
313.764
325.828
218.918
219.29
220.044
221.205
222.804
224.879
227.474
230.632
234.397
238.812
243.912
249.732
256.3
263.637
271.763
280.691
290.431
300.989
312.371
324.577
213.359
213.788
214.657
215.983
217.79
220.108
222.971
226.414
230.474
235.185
240.576
246.678
253.514
261.104
269.465
278.61
288.55
299.291
310.838
323.194
207.951
208.433
209.403
210.876
212.869
215.406
218.514
222.219
226.551
231.536
237.201
243.569
250.661
258.494
267.084
276.443
286.58
297.503
309.216
321.723
202.847
203.373
204.431
206.031
208.185
210.914
214.235
218.171
222.745
227.977
233.889
240.501
247.829
255.888
264.693
274.253
284.579
295.676
307.55
320.206
198.131
198.694
199.826
201.532
203.823
206.714
210.218
214.353
219.136
224.585
230.715
237.542
245.082
253.346
262.346
272.093
282.593
293.853
305.88
318.676
)
;
    }
    coldSide
    {
        type            mixed;
        refValue        uniform 300;
        refGradient     uniform 0;
        valueFraction   uniform 0.991591;
        source          uniform 0;
        value           nonuniform List<scalar> 
400
(
300.011
300.011
300.011
300.011
300.011
300.011
300.011
300.011
300.012
300.012
300.012
300.013
300.013
300.013
300.014
300.014
300.015
300.016
300.016
300.016
300.011
300.011
300.011
300.011
300.011
300.011
300.011
300.012
300.012
300.012
300.012
300.013
300.013
300.014
300.014