/*--------------------------------*- C++ -*----------------------------------*\
| =========                 |                                                 |
| \\      /  F ield         | OpenFOAM: The Open Source CFD Toolbox           |
|  \\    /   O peration     | Version:  2212                                  |
|   \\  /    A nd           | Website:  www.openfoam.com                      |
|    \\/     M anipulation  |                                                 |
\*---------------------------------------------------------------------------*/
FoamFile
{
    version     2.0;
    format      ascii;
    arch        "LSB;label=32;scalar=64";
    class       volScalarField;
    location    "0";
    object      relativeErrorField;
}
// * * * * * * * * * * * * * * * * * * * * * * * * * * * * * * * * * * * * * //

dimensions      [0 0 0 1 0 0 0];

internalField   nonuniform List<scalar> 
3200
(
0.00684337
0.000630979
0.00480168
0.00875604
0.0105389
0.0113584
0.0113327
0.011269
0.0107745
0.00994415
0.00953504
0.00885984
0.00866433
0.00824956
0.00764282
0.00654535
0.00450109
0.000980832
0.00430315
0.0105016
0.00580288
0.000249144
0.0043389
0.00761153
0.00934752
0.0104069
0.0103887
0.0101821
0.00962617
0.00905487
0.00843872
0.00820531
0.00754097
0.00747088
0.00668229
0.00581274
0.00437106
0.00117223
0.00353083
0.00849932
0.00465968
6.91549e-05
0.00404167
0.00652983
0.00827175
0.0089
0.00900286
0.0085509
0.0083392
0.00782804
0.00756241
0.00700768
0.00681754
0.00671966
0.00616333
0.00536197
0.00390669
0.00123076
0.00282171
0.00688777
0.0035165
5.7808e-05
0.00342654
0.00563776
0.00731502
0.00727842
0.00763777
0.00735772
0.00719227
0.00679979
0.00631831
0.00599887
0.00570004
0.00541979
0.00544987
0.00439986
0.00317606
0.00113813
0.00211606
0.00557022
0.00260839
0.000285472
0.00260874
0.00476782
0.00542992
0.00614209
0.00615149
0.00577839
0.00558768
0.00524816
0.00499308
0.00491017
0.00453542
0.00442458
0.00409395
0.00403914
0.00280563
0.00103154
0.00173598
0.00427465
0.0016906
9.21222e-05
0.00180816
0.00329602
0.00423095
0.00442673
0.00435747
0.00459154
0.0043431
0.00387396
0.00355041
0.00328191
0.00324182
0.00324533
0.00319078
0.00266462
0.00193779
0.000725685
0.00129181
0.00303116
0.0012158
4.2998e-05
0.00091596
0.00211816
0.00255263
0.00276464
0.00281623
0.00260555
0.00252414
0.00256386
0.00229333
0.0019707
0.0019543
0.00204996
0.00211533
0.00178928
0.00107981
0.00056854
0.000710218
0.00185286
0.000369419
3.176e-05
0.000204893
0.000551057
0.00076302
0.00105242
0.000708576
0.00106438
0.00108447
0.00098487
0.000901173
0.000722945
0.000686639
0.000581732
0.000601667
0.000507062
0.000359401
0.000231209
0.000266496
0.000261286
0.00675769
0.000783392
0.00477525
0.0081883
0.0101101
0.0106258
0.0107066
0.0102022
0.00956924
0.00883676
0.0082425
0.00766089
0.00737274
0.00697886
0.00668556
0.00600853
0.00383589
0.000661874
0.00450692
0.0105619
0.00601388
0.000575521
0.00416692
0.00737074
0.00901944
0.00976876
0.00987224
0.00935017
0.00859548
0.00785917
0.00737228
0.00676559
0.0064196
0.00645264
0.00620551
0.00550604
0.0037835
0.00106981
0.00357532
0.00885395
0.00455678
0.000184692
0.00379678
0.00650102
0.00772552
0.00836424
0.00813499
0.00827794
0.00749683
0.00686594
0.00660096
0.00615187
0.00600907
0.00559181
0.00556021
0.00477735
0.00354228
0.00101213
0.0028487
0.00708253
0.00358915
0.000268295
0.00309423
0.00566701
0.00659168
0.00713207
0.00710845
0.00697979
0.00642535
0.00593583
0.00540777
0.00517465
0.00494426
0.0050772
0.00479341
0.00406447
0.00326336
0.000971924
0.00204612
0.0055627
0.00273357
1.34031e-05
0.00257493
0.00457202
0.00545201
0.00573512
0.0058455
0.00512213
0.00516254
0.00458541
0.00430083
0.00401351
0.00436265
0.00418096
0.00386443
0.00347478
0.00247216
0.000890122
0.00187873
0.00421175
0.00214351
4.45951e-05
0.00213729
0.00353195
0.00392816
0.00422303
0.00391009
0.00394624
0.00382125
0.00360012
0.00304683
0.00323487
0.00311594
0.00286212
0.00282126
0.00244918
0.00164187
0.000274925
0.00116968
0.00313549
0.00137663
1.51947e-05
0.00125048
0.00215505
0.00252747
0.00253401
0.00255393
0.00254752
0.00223766
0.00211028
0.00214593
0.00188653
0.00183335
0.00178934
0.0017771
0.0014355
0.00121539
0.000312506
0.000622664
0.0017548
0.000438395
6.13047e-05
0.000390074
0.000719949
0.000857036
0.000947666
0.000993996
0.000556461
0.00107137
0.000674352
0.000866264
0.000899901
0.000413814
0.00042112
0.000542277
0.000553881
0.000432629
7.50475e-05
0.000305614
0.000641552
0.00733814
0.00140928
0.00393805
0.00722269
0.00905365
0.00963608
0.0094126
0.00881727
0.00791709
0.00713936
0.00638353
0.00603454
0.00548141
0.00547587
0.00544971
0.00484107
0.0031403
8.01942e-05
0.00514693
0.010947
0.00624241
0.000868572
0.00365372
0.00666656
0.00829511
0.00856913
0.00846108
0.00791688
0.00702532
0.00613752
0.00565146
0.00542342
0.00487963
0.00506756
0.00487226
0.00437183
0.00298126
0.000356407
0.00416681
0.00914883
0.00500523
0.000506104
0.00342398
0.00587927
0.00699302
0.00765626
0.00751713
0.00675284
0.00605241
0.0055095
0.00489446
0.00436376
0.00451547
0.00451839
0.00469788
0.00380506
0.00289474
0.000523368
0.00353275
0.00764085
0.00404088
0.000637848
0.00268661
0.00492165
0.00593115
0.00630743
0.00607243
0.00587789
0.00549216
0.00476773
0.00437387
0.00400419
0.00388127
0.00386019
0.00391012
0.00357985
0.00238107
0.000455152
0.00268128
0.00599381
0.00276234
0.000227827
0.00218129
0.00389173
0.00484378
0.00524805
0.00488795
0.00478651
0.00405955
0.00377579
0.00347124
0.00318257
0.0031029
0.00324264
0.00303135
0.00284878
0.00186205
0.000436448
0.00195762
0.00456677
0.00214486
0.000132041
0.00158815
0.00305238
0.00364916
0.00396827
0.00378763
0.00350914
0.00309143
0.00250625
0.00262707
0.00240855
0.00238238
0.00229133
0.00222162
0.00199384
0.00160539
0.000365799
0.0013779
0.00333845
0.00102258
2.41676e-06
0.0011625
0.00165529
0.00202762
0.00224466
0.00217602
0.00208493
0.0019718
0.0016678
0.00136787
0.0015642
0.00155796
0.00155507
0.00107235
0.00120761
0.000939876
0.000398467
0.00100442
0.00183344
0.00044632
0.000241723
0.00047751
0.000578741
0.000506257
0.000926356
0.00081476
0.000894365
0.000489519
0.000698032
0.000601037
0.000671152
0.000510551
0.000360668
0.00038642
0.000506465
0.000261183
0.000179403
6.1574e-05
0.000555477
0.0081742
0.00223631
0.00307226
0.00623897
0.00804646
0.00807382
0.00783576
0.00686482
0.00566919
0.00486679
0.00403708
0.00352261
0.00359574
0.0034381
0.00368343
0.00330669
0.0018337
0.00132328
0.0060075
0.01163
0.00686585
0.00189908
0.00275546
0.00551039
0.00697651
0.00728793
0.00699494
0.00604696
0.00520423
0.00442574
0.00359361
0.00329055
0.00315351
0.00335215
0.00331547
0.00303201
0.00158673
0.00109129
0.00491024
0.00985383
0.00547817
0.00140145
0.00227446
0.00476719
0.00612696
0.0062967
0.00614906
0.00546138
0.00463981
0.00363212
0.00329511
0.00309185
0.00299676
0.0029892
0.00302696
0.00282969
0.00166136
0.000391035
0.00419833
0.00798552
0.00442844
0.000817993
0.00223297
0.00403699
0.00528039
0.00543403
0.00513834
0.00464208
0.00403017
0.00311986
0.00303699
0.0024034
0.00260178
0.00266535
0.00262917
0.00237884
0.00145593
0.00036928
0.00340256
0.00622654
0.00321237
0.000784459
0.00179531
0.00336704
0.00399661
0.00430891
0.00440258
0.00388123
0.00299069
0.00259584
0.00211
0.00196853
0.00210775
0.00224897
0.0021001
0.00203756
0.00135942
0.000302949
0.00249042
0.00479844
0.002241
0.000423994
0.00139791
0.00240754
0.00323797
0.00342866
0.00289718
0.00276019
0.00228267
0.00190258
0.00175982
0.00152958
0.00160688
0.00151405
0.00177572
0.00141882
0.00104155
3.90574e-05
0.00170846
0.00367544
0.00166061
0.000444929
0.000707278
0.0013822
0.00173093
0.00208278
0.00210282
0.00179493
0.00154757
0.00117411
0.000919185
0.000991645
0.000760658
0.00101283
0.000841172
0.000863169
0.000711044
9.77564e-05
0.00126293
0.00215107
0.000537102
9.42689e-05
0.000158652
0.000272876
0.000443901
0.000654144
0.00056822
0.000402735
0.000294537
0.000404629
0.000350248
0.00021662
0.000304948
0.000243691
0.000298308
0.000258364
1.65063e-05
0.000146296
0.000435788
0.000687047
0.00918677
0.00355014
0.00163526
0.00456141
0.00625298
0.00620827
0.00581085
0.00487491
0.00346481
0.0020583
0.00149217
0.00112876
0.00113588
0.00130865
0.00163728
0.00156747
9.86117e-05
0.00273836
0.00731692
0.0126421
0.00772516
0.00301394
0.00137877
0.00436456
0.00551157
0.00581085
0.0053585
0.00447925
0.00315902
0.00225434
0.00158044
0.000927253
0.00115982
0.00151472
0.00153846
0.00138752
0.000333883
0.00221164
0.00632639
0.0107012
0.00637889
0.00218363
0.00131852
0.0034413
0.00489549
0.00490428
0.00469801
0.00382925
0.00287197
0.00204653
0.00139743
0.00119367
0.00105407
0.00131895
0.00134874
0.00139987
0.000349843
0.00176053
0.00531412
0.009038
0.00507458
0.00154046
0.000970916
0.00313789
0.00407253
0.00410467
0.00421619
0.00346174
0.00244425
0.0017661
0.00122828
0.00108152
0.00107364
0.0010684
0.00156992
0.00136184
0.000456379
0.00114072
0.0040636
0.007266
0.00403961
0.00155048
0.00111616
0.00288196
0.00331327
0.00358845
0.00335565
0.00263308
0.00206507
0.00133661
0.000978599
0.000654902
0.000966463
0.00107592
0.001217
0.00104069
0.000398974
0.00081881
0.00306983
0.00550247
0.00273149
0.000969645
0.000929412
0.00185217
0.00240828
0.00239959
0.00238603
0.00193271
0.00163056
0.0010459
0.000814488
0.00104949
0.000805281
0.000867825
0.000959715
0.000767897
1.82779e-05
0.000439034
0.00227377
0.00396611
0.00169826
0.000428559
0.000394635
0.00112893
0.00160695
0.00152665
0.00129223
0.00124963
0.00090624
0.000784725
0.000627014
0.000471502
0.000415828
0.000251146
0.000436108
0.000439945
0.000294081
0.000537964
0.00129659
0.00249846
0.000564897
8.96622e-05
0.000300683
0.000125631
0.000526056
0.000600349
0.00048725
0.000328309
0.000625003
0.000400575
0.000239476
5.28619e-05
0.000142296
0.000232737
5.44869e-06
0.000192406
0.000225086
0.000173373
0.000285808
0.000745756
0.0105395
0.00490329
0.000422484
0.00286955
0.00451926
0.00464608
0.00378189
0.00279192
0.00128329
0.000117127
0.00112307
0.00139556
0.00140042
0.000798747
0.00039572
0.000530852
0.00151457
0.00424969
0.00860804
0.014203
0.00913388
0.00418146
0.000166247
0.00294219
0.00390575
0.00409989
0.00375542
0.00280531
0.00137889
0.000131234
0.000664293
0.00119669
0.00107377
0.000300481
9.05468e-06
0.000223371
0.00125112
0.0037655
0.00774044
0.011998
0.00722012
0.00327149
9.66816e-05
0.00264232
0.00371421
0.00358207
0.00309057
0.00212584
0.00133622
0.000243612
0.000497921
0.00105626
0.000674657
0.000429443
0.00010108
0.000197393
0.0010409
0.00305883
0.0061488
0.00973725
0.00609432
0.00284262
0.000453784
0.00192777
0.00309689
0.00301154
0.00280681
0.00203761
0.00113453
8.31255e-05
0.000611089
0.000847434
0.000474772
0.000207411
4.14585e-05
0.000113349
0.000523477
0.00246103
0.00489222
0.00809471
0.00478781
0.00235013
0.000307812
0.00157612
0.00251061
0.00259266
0.00223073
0.00180501
0.000683732
0.000272742
0.000331861
0.00051285
0.000248911
0.000187509
0.000298325
0.000215582
0.000374282
0.00178926
0.00394761
0.00614465
0.00327823
0.00161125
0.000384776
0.00109504
0.00187131
0.00176657
0.00144893
0.00124367
0.000844817
0.000269146
0.000251659
0.000336061
0.000441834
0.000307522
0.000392524
0.000163528
0.000155767
0.00152941
0.00284491
0.00453939
0.00198934
0.000745971
5.96348e-05
0.000748251
0.00103779
0.00106609
0.00106316
0.000830555
0.000526981
0.000293222
0.000477784
0.00035014
0.000262089
0.000105934
0.00028069
0.000200257
8.62444e-05
0.000659692
0.00181827
0.00282053
0.000447477
0.000301743
8.96008e-05
0.000479575
0.000133485
0.000287341
0.000494694
0.000322051
0.000232537
0.000106525
4.85151e-05
5.11038e-05
0.000188154
8.08699e-05
3.85679e-06
0.000190203
0.000235017
0.000462652
0.000624349
0.000909769
0.011668
0.00648373
0.00198751
0.00115024
0.00263453
0.00284017
0.00203645
0.000779287
0.000754044
0.00229685
0.00351172
0.00380664
0.00332083
0.00289906
0.00241699
0.00256531
0.0035039
0.00628902
0.0102702
0.0151319
0.00988569
0.00574243
0.00147565
0.00116661
0.00252333
0.00249204
0.00188438
0.000547422
0.000595313
0.00194597
0.00276884
0.0030388
0.00297484
0.00242025
0.00205752
0.00179067
0.00266029
0.00518483
0.00871176
0.0126592
0.00825811
0.00438312
0.000974761
0.00115361
0.0020551
0.0022484
0.00178555
0.000556664
0.000237425
0.00152771
0.00231114
0.0028392
0.00258466
0.00200744
0.00151689
0.00153692
0.00223529
0.00444893
0.00740938
0.0109291
0.00671848
0.00366069
0.000923795
0.000924863
0.00189839
0.00196396
0.00151475
0.000833297
0.000348224
0.00127728
0.00202979
0.00209212
0.00208294
0.00164378
0.000883657
0.00118506
0.00172881
0.00353742
0.00600702
0.00889743
0.00541194
0.00281834
0.000869336
0.000811575
0.00164816
0.00162786
0.0011675
0.00057547
7.49205e-05
0.00084106
0.00137152
0.00146736
0.00158768
0.00107202
0.000871238
0.00108436
0.00144396
0.00269284
0.00461148
0.00686168
0.00376084
0.00203653
0.000706858
0.000286616
0.000941754
0.0010192
0.00085557
0.000555143
0.000287359
0.000756269
0.00105676
0.00110526
0.000994891
0.000891755
0.000673613
0.000579705
0.000916212
0.00182085
0.00341773
0.00508847
0.00236603
0.00110619
0.000419638
0.000339425
0.000867729
0.000627468
0.000716288
0.00031326
9.35773e-05
0.000356391
0.000512103
0.000457489
0.000662241
0.000584946
0.000390304
0.00077824
0.000689619
0.00130372
0.00193237
0.00295596
0.000853494
0.000390312
0.000268434
0.000284926
0.000136937
2.72509e-05
0.000219368
3.74956e-05
0.000103635
7.35427e-05
0.000179234
0.000131235
0.000304333
0.000307014
5.75111e-05
0.000363301
0.000158643
0.000207371
0.000761056
0.000829337
0.0129188
0.00791093
0.00356763
0.000886304
0.000941528
0.00102057
0.00034329
0.00130142
0.00286592
0.00430659
0.00544577
0.00569901
0.00558604
0.00484575
0.00420707
0.00403929
0.00507692
0.00760495
0.0114527
0.0161835
0.0109908
0.00671814
0.00317776
0.000376342
0.000787137
0.00116116
0.000431076
0.00075051
0.00213553
0.00387452
0.00449981
0.00488265
0.00477867
0.00392259
0.00343454
0.00344957
0.00421524
0.00634309
0.010012
0.013905
0.00925015
0.00575318
0.00254517
6.02971e-05
0.000846087
0.000887445
0.000484923
0.000717353
0.00192304
0.00325116
0.00384995
0.00424864
0.00386985
0.00302487
0.00283308
0.00269336
0.00355851
0.00522173
0.00850081
0.0117206
0.00756886
0.00466483
0.00199685
0.000200817
0.0009415
0.00101415
0.000509279
0.00035948
0.0013666
0.00249873
0.00317193
0.0032988
0.00321085
0.00287755
0.00221004
0.00202635
0.0027301
0.00432768
0.00681236
0.00961767
0.00583388
0.00376658
0.00147784
0.000169574
0.000635511
0.000610915
0.00032288
0.000376229
0.00103102
0.00208729
0.00221964
0.00252746
0.00233372
0.00214375
0.00191429
0.00169958
0.00218957
0.00347631
0.00539314
0.00730237
0.00446282
0.0024985
0.000920673
6.78576e-06
0.000454873
0.000861928
0.000351765
0.000502332
0.000764244
0.00157766
0.00191194
0.00181556
0.00166211
0.0014417
0.00145328
0.0012291
0.00177263
0.00247206
0.00364796
0.00538133
0.00245706
0.00148138
0.000708214
8.19729e-06
0.000402644
0.000148744
6.66248e-05
0.000115477
0.000610817
0.00081516
0.00101624
0.00121775
0.00110442
0.0010426
0.00079504
0.00088985
0.000980729
0.00146417
0.00240044
0.00340873
0.000694589
0.000548682
0.000195185
0.000119593
0.000255305
0.000191843
6.29742e-05
9.07391e-05
0.000152835
0.000151322
0.000233025
0.000551164
0.000537996
0.000198155
0.000256695
0.000105459
0.000314174
0.000505987
0.000657559
0.00106711
0.0139441
0.00921674
0.00493906
0.00214261
0.000597784
0.000304948
0.00122581
0.00255711
0.00426333
0.00580003
0.00706398
0.00740368
0.00698291
0.0062044
0.0054167
0.00551387
0.00667793
0.00898167
0.0127909
0.0171914
0.0120694
0.0077954
0.00417502
0.00141344
0.000332838
1.10377e-05
0.000955597
0.00185135
0.00353463
0.00503616
0.0060505
0.00626664
0.00588365
0.00520071
0.00472554
0.0045744
0.00542198
0.00758469
0.0110533
0.0149135
0.00996967
0.00672479
0.00343239
0.00113574
0.00021691
0.000260324
0.0005595
0.0018563
0.00291698
0.00435681
0.00504523
0.00520178
0.00516211
0.00435881
0.0039868
0.00400356
0.00445762
0.0063597
0.00914562
0.0122788
0.0083041
0.00557968
0.00281675
0.00109309
0.000210119
2.25722e-05
0.000722931
0.00155429
0.00263696
0.00362764
0.00436526
0.00414526
0.00398373
0.00364988
0.00340986
0.00319374
0.00391259
0.00519627
0.0076265
0.0100569
0.00622877
0.00433913
0.00224941
0.000807151
3.38179e-05
0.000103587
0.000240159
0.00119835
0.00186943
0.00279079
0.00336398
0.00379226
0.00334209
0.00247172
0.00267706
0.00249376
0.00293642
0.00392679
0.00563025
0.00778007
0.00462726
0.00317124
0.00151924
0.000736363
5.84256e-05
2.61196e-05
0.000135236
0.000705894
0.00114731
0.00221731
0.002413
0.00236948
0.00256808
0.00195091
0.00166938
0.00159823
0.00214145
0.00289378
0.00448384
0.00570697
0.00287397
0.00194664
0.000784677
0.000201752
7.97918e-05
9.1598e-06
0.000197357
0.00031256
0.000765575
0.0012251
0.00157174
0.00160069
0.00168468
0.0011307
0.000995668
0.00116576
0.00130998
0.00151677
0.00252969
0.00355127
0.00104257
0.000506117
0.000336418
0.000138489
0.000311379
2.8336e-05
0.000149628
2.19619e-05
0.000347245
0.000355721
0.000484878
0.000546844
0.000494601
0.000426634
0.000128308
0.000362672
0.000494349
0.000731572
0.00075257
0.00111107
0.014794
0.00997362
0.00611392
0.00339228
0.00189842
0.00151015
0.00206369
0.00349631
0.00515291
0.00661986
0.00784055
0.00849536
0.00784049
0.00700045
0.0064515
0.00662399
0.00744043
0.00977603
0.0130827
0.017546
0.0126928
0.00892697
0.00515655
0.00272474
0.00136477
0.0011881
0.00171611
0.00289675
0.00448571
0.00596564
0.00704149
0.00726774
0.00661995
0.00620041
0.00526645
0.00562276
0.00651936
0.00858121
0.0115612
0.0151387
0.0104827
0.0074796
0.00460696
0.00263431
0.000807413
0.00104574
0.00151417
0.00237914
0.00377169
0.00501599
0.00583118
0.00607542
0.00581887
0.00530982
0.00478101
0.00461862
0.00535071
0.00724719
0.00969904
0.0126756
0.00899095
0.00591949
0.00369899
0.00164508
0.000876768
0.000611862
0.00106177
0.00199001
0.00301054
0.0039865
0.00484696
0.00506887
0.00477142
0.00422845
0.00376803
0.00370025
0.00453894
0.00599522
0.00811766
0.0104679
0.00674588
0.00486527
0.00266869
0.00139376
0.000598645
0.00040445
0.00084006
0.00175435
0.0025103
0.0031518
0.00376432
0.00404908
0.00356099
0.00314595
0.00305773
0.00298996
0.00345626
0.00464742
0.00613209
0.00812833
0.0048635
0.00370074
0.00218118
0.000781956
0.000394276
0.000619407
0.00057278
0.00110264
0.00179214
0.00246778
0.00295624
0.00253116
0.00268466
0.00245386
0.00206346
0.00204062
0.00226977
0.00329769
0.00446725
0.00598218
0.00282878
0.00178892
0.00122244
0.000736062
0.000230108
0.000194652
0.000404171
0.000863089
0.00121986
0.00124863
0.00162548
0.00175928
0.00155479
0.00157143
0.00131523
0.00124323
0.00153626
0.00225579
0.00283202
0.00361494
0.00102281
0.000600676
0.000383958
0.000151106
6.49137e-05
0.000152285
0.000193588
0.000202852
0.000259729
0.000703363
0.000452883
0.000432513
0.0002261
0.00046189
0.000283524
0.000381166
0.000521937
0.000860145
0.000893325
0.00105146
0.0150686
0.0109237
0.00675118
0.00392397
0.00256154
0.00189812
0.002842
0.00408198
0.00557231
0.00716771
0.00800267
0.00858978
0.00824839
0.00732743
0.00674799
0.00674873
0.0081114
0.0103141
0.0134875
0.017681
0.0133233
0.00916121
0.00580194
0.0034644
0.00219248
0.00150013
0.0024084
0.00342892
0.00488058
0.00595734
0.00713142
0.00736886
0.00721908
0.00658679
0.00585658
0.00610039
0.00695022
0.0089951
0.0120283
0.0154042
0.0108962
0.00781098
0.0050318
0.00290961
0.00160969
0.00149595
0.0017136
0.00291289
0.00409304
0.00524812
0.00599296
0.00621293
0.0058665
0.00526101
0.00492395
0.00506591
0.00572031
0.00744922
0.00987592
0.0127743
0.00921426
0.00664678
0.00426833
0.00242773
0.00150437
0.00103097
0.00147924
0.00219624
0.00330635
0.00439423
0.00494506
0.00512818
0.00513707
0.00448941
0.00400716
0.00406783
0.00470988
0.00605595
0.00828939
0.0106593
0.00703814
0.00518522
0.00324489
0.00184727
0.00106624
0.00101975
0.00103848
0.00187547
0.00268886
0.00346287
0.00393815
0.00397991
0.003904
0.00360346
0.0033175
0.00328529
0.00364111
0.00468921
0.00627168
0.00830274
0.00509315
0.00365791
0.00246764
0.00139852
0.00067079
0.000600175
0.000904788
0.00143344
0.00180237
0.00248905
0.00278711
0.00300994
0.00277291
0.00261816
0.00228331
0.00223152
0.0027306
0.00364406
0.00489461
0.00601479
0.00338358
0.00232293
0.00142103
0.000600567
0.000377774
0.000364391
0.000396826
0.000909762
0.000936997
0.00154171
0.00157005
0.0019643
0.00146127
0.0018098
0.00137864
0.00137473
0.00159611
0.00210617
0.00303849
0.00369354
0.00119344
0.000885242
0.000269467
0.000452243
0.000207815
0.000202805
0.000162624
5.86318e-05
0.000315131
0.000547506
0.000599296
0.000764074
0.000480826
0.000567949
0.000391196
0.000393873
0.000534124
0.000917298
0.00108022
0.00126384
0.0151856
0.0108642
0.0072439
0.00426972
0.00279714
0.00254447
0.00277792
0.0038776
0.00519257
0.00653541
0.00773075
0.00809234
0.00771978
0.00699383
0.00692261
0.00685808
0.0080536
0.0100952
0.0134857
0.0171623
0.013081
0.00935547
0.0062631
0.00383415
0.00220086
0.00185949
0.00220473
0.00310542
0.00459821
0.00580337
0.00662771
0.00686895
0.00658315
0.00617004
0.00588916
0.00588807
0.00668711
0.0087775
0.011537
0.0149977
0.0108116
0.00817659
0.00510595
0.0031147
0.00183723
0.00152061
0.0018584
0.00277363
0.00378504
0.0048811
0.00559052
0.00588678
0.0056277
0.00515133
0.00490359
0.00496635
0.00567911
0.00747541
0.00974711
0.0124766
0.00927432
0.00656424
0.00439618
0.00263444
0.00137265
0.00128906
0.00174862
0.00226971
0.00335955
0.00398899
0.00476293
0.00479478
0.00484835
0.00435583
0.00401291
0.0042759
0.00446344
0.00610655
0.00816568
0.0106074
0.00714942
0.00505603
0.00330539
0.00185734
0.00112006
0.00106693
0.00116221
0.00162542
0.00259817
0.00335974
0.00381343
0.00377508
0.00359467
0.00342336
0.00310451
0.00314218
0.00378005
0.00476298
0.00635833
0.00794792
0.00501446
0.0036909
0.00253056
0.00135684
0.00081998
0.000589966
0.00103694
0.00138556
0.00195389
0.00235001
0.00263295
0.00277691
0.00254529
0.00229135
0.00246641
0.00239541
0.00245372
0.00333526
0.00475007
0.0057337
0.00313865
0.00233433
0.00140951
0.000858531
0.000487845
0.000424287
0.000593725
0.000697873
0.00101123
0.0015406
0.00173995
0.00181313
0.00142559
0.00154002
0.00135186
0.00132104
0.00141852
0.0021632
0.00289364
0.00363837
0.0011373
0.000868913
0.000530145
0.00032752
0.000161694
0.000158616
0.000178425
0.000131596
0.000359367
0.00075855
0.000513793
0.000464522
0.000465992
0.000379518
0.00056477
0.000335621
0.000536849
0.000626362
0.000816146
0.00126126
0.0145077
0.0105402
0.00678302
0.00421816
0.00266966
0.00207986
0.00234375
0.00330497
0.00427804
0.00569294
0.00668306
0.00697552
0.00683948
0.00613322
0.00595449
0.00634605
0.00747209
0.00960639
0.0129181
0.016404
0.0125576
0.00907466
0.00601616
0.00364067
0.00199511
0.00152961
0.00198911
0.00282408
0.00382307
0.00497964
0.00577663
0.00598875
0.0056887
0.00543988
0.00530317
0.00541125
0.00638367
0.00820704
0.0110717
0.0141981
0.0105992
0.00754092
0.00523017
0.00303923
0.00184128
0.00115185
0.0017468
0.0023351
0.00324025
0.00452551
0.00478839
0.00491044
0.00503984
0.00470573
0.00415007
0.00434285
0.00521162
0.00683402
0.00934981
0.0119197
0.00889383
0.00651846
0.00421052
0.00250879
0.00156286
0.00107068
0.00129731
0.00197736
0.00290972
0.00356768
0.00421216
0.00418365
0.00425422
0.00357723
0.0035213
0.00368469
0.00438841
0.00547646
0.00774224
0.00969456
0.00681466
0.00513407
0.0031273
0.00195201
0.00094703
0.000900079
0.000965459
0.00157208
0.00210303
0.00291372
0.00320087
0.00349121
0.00303875
0.00299711
0.00301866
0.00274299
0.0032322
0.00450704
0.00601287
0.00757354
0.0051387
0.00362014
0.00243624
0.00150447
0.000494042
0.000647997
0.000603673
0.00103535
0.00134394
0.00182442
0.00234355
0.00226462
0.00231353
0.00202131
0.00209936
0.0019158
0.00247694
0.00332324
0.00428452
0.00578184
0.00271821
0.00219132
0.00137195
0.000687296
0.00037235
0.000312148
0.000476007
0.000691079
0.000725566
0.0013666
0.00151853
0.00136955
0.00136483
0.00147592
0.00137725
0.00123028
0.00148503
0.00191649
0.00281217
0.00341369
0.00118667
0.000672941
0.000344491
0.000313369
0.000305681
8.79074e-05
8.98552e-05
0.000374062
0.000311699
0.00052241
0.000431958
0.000607982
0.000344393
0.000440061
0.000365019
0.000524986
0.000375213
0.000687187
0.000904768
0.00113217
0.0138624
0.00975196
0.00609743
0.00334025
0.00186876
0.00112333
0.00136156
0.00210197
0.00319039
0.004116
0.00499418
0.0052735
0.00478307
0.00485933
0.00455301
0.00509341
0.0064095
0.00838132
0.0114454
0.0152908
0.0119104
0.00842322
0.00524793
0.00271436
0.00163648
0.00107782
0.00123983
0.00181993
0.00267699
0.00374052
0.00411983
0.00465696
0.00423008
0.00402516
0.00408245
0.00428117
0.005472
0.00742153
0.00993193
0.0132124
0.0100415
0.00725537
0.00438438
0.00242385
0.00110113
0.000673108
0.000842223
0.00141228
0.00215696
0.00298335
0.00372662
0.00373079
0.00377244
0.00337625
0.00333226
0.00361008
0.00463514
0.00599305
0.00833602
0.0109256
0.0079513
0.00604068
0.00371536
0.00201006
0.00109455
0.000427866
0.000727446
0.000969645
0.0018316
0.00250499
0.00295078
0.00312557
0.0030838
0.00282408
0.00285875
0.00264618
0.00356209
0.00501922
0.00693083
0.00922181
0.0064047
0.00446075
0.00262019
0.00133089
0.000499329
0.000516274
0.000461055
0.000874269
0.00136073
0.00193641
0.00224657
0.00236783
0.0023395
0.00220328
0.00209533
0.0022355
0.00284617
0.00389676
0.00532866
0.00702783
0.00473717
0.00330326
0.00206493
0.000977477
0.000612653
0.000101254
0.000573746
0.00068285
0.00095738
0.0015778
0.00170726
0.00158684
0.00181237
0.00162217
0.0014458
0.00150392
0.0018808
0.00278923
0.00375394
0.00514278
0.00268252
0.00210715
0.00103427
0.000440721
0.000449691
0.000188221
2.29113e-05
0.000291824
0.000543537
0.000782035
0.000941731
0.00112092
0.00108266
0.000842347
0.00111705
0.00113416
0.00129213
0.00191907
0.00250478
0.00297168
0.000979679
0.000712396
0.00058392
0.000347657
0.000116921
5.32667e-05
0.00020326
0.000211746
0.000171098
0.000224328
0.000391557
0.000603007
0.000493707
0.000399557
0.000416704
0.000241095
0.000682899
0.000581866
0.000856919
0.00100822
0.0124985
0.0084408
0.00488335
0.0021908
0.000614742
0.000176149
0.000160432
0.000371069
0.00125718
0.00188654
0.00248672
0.00296512
0.00280101
0.00255905
0.00287279
0.00330222
0.00463229
0.00681244
0.0100003
0.0135018
0.0102649
0.00735494
0.00426614
0.00193041
0.000434632
0.000215259
0.000109707
0.00010147
0.000909215
0.00161665
0.00208393
0.00246013
0.00239089
0.00224132
0.00219243
0.00254915
0.00365931
0.00584629
0.0084636
0.0114073
0.00900321
0.00626117
0.00358675
0.0015454
5.58563e-05
0.000464667
0.000369256
5.90423e-06
0.00074953
0.00118877
0.00162632
0.00194409
0.00197793
0.00182947
0.00194886
0.00221208
0.00321247
0.00476475
0.0073433
0.00958418
0.00700638
0.00520018
0.00274788
0.00132546
0.000127195
0.000283246
0.000166378
7.31838e-05
0.000683353
0.00109546
0.00148245
0.00165891
0.00154679
0.0016403
0.00161905
0.00179539
0.00247175
0.0039366
0.00606284
0.00807536
0.00574799
0.00402749
0.00211499
0.00119575
2.87435e-05
0.000467093
0.000384248
0.000148997
0.000206466
0.000684905
0.00118265
0.00144099
0.00133421
0.00131404
0.00125401
0.00139216
0.00205251
0.00305427
0.00467028
0.00615718
0.00419379
0.00291576
0.0018671
0.000895774
4.19411e-05
0.000285978
0.00031193
0.000127438
0.000278706
0.000528328
0.000876714
0.000946203
0.000893101
0.000732456
0.000832064
0.00104885
0.00143188
0.00232915
0.00335885
0.00447508
0.00234035
0.00148828
0.000968787
0.0005863
1.38499e-05
7.68112e-05
0.000176039
3.59321e-05
6.54878e-05
0.000202102
0.000615711
0.000325021
0.000611808
0.000616237
0.0004973
0.00035768
0.000810721
0.00155246
0.00203096
0.00250023
0.000833909
0.000544177
0.000265916
1.1846e-05
0.000140128
0.000143606
5.41201e-05
5.81016e-05
1.38299e-05
6.88691e-05
2.38829e-05
0.000124143
9.59158e-05
0.000406998
0.000280438
6.85972e-05
0.000280833
0.000426442
0.000807406
0.00100708
0.0103199
0.00665892
0.00337625
0.000698798
0.00116033
0.00205189
0.00212949
0.00182672
0.0010626
0.000754796
1.75159e-05
0.000259305
0.000132251
0.000303719
0.000735572
0.00112359
0.00238497
0.00484458
0.00764164
0.0112914
0.00890502
0.00573752
0.00276714
0.000396309
0.00118781
0.00206463
0.00205381
0.00178703
0.00117495
0.000676699
0.000137612
0.000142411
0.000200489
3.97284e-05
0.000210123
0.00087343
0.00192402
0.00397597
0.00677088
0.00933257
0.0073211
0.00491612
0.00226663
0.000392216
0.000997568
0.00172711
0.00186214
0.00165323
0.000942971
0.000902501
0.000236452
6.01721e-05
0.000137324
2.58799e-05
0.000137426
0.000427755
0.00158731
0.00308892
0.00562478
0.00789828
0.00625907
0.0038196
0.00174276
0.000183639
0.00113653
0.00150002
0.00179656
0.00122235
0.00115715
0.000721108
0.00034091
5.69601e-05
0.00014901
9.2605e-06
7.7215e-05
0.000542744
0.00143755
0.0027486
0.00451184
0.00654868
0.00480447
0.00314802
0.00139867
0.000180765
0.000722667
0.00117576
0.00112789
0.00110978
0.000791601
0.00035574
0.000296854
2.78454e-05
5.18215e-05
0.000220688
4.1229e-05
0.000178035
0.000708147
0.00205432
0.00375476
0.0049452
0.00361168
0.00257398
0.00109962
0.000123636
0.000611986
0.00106124
0.00101253
0.000776982
0.000820194
0.00038569
0.000356282
0.000325221
4.10619e-05
6.48994e-05
9.78055e-05
5.60443e-05
0.000758316
0.00150639
0.00255933
0.00392558
0.00202672
0.00143552
0.000492247
0.000144765
0.000651709
0.000579497
0.000717651
0.000689975
0.000565191
0.000325505
3.53714e-05
5.05226e-05
0.000147361
0.000293679
0.00010889
0.000192712
0.000391941
0.00107536
0.00165337
0.0022931
0.000773532
0.000649836
0.000155724
0.000244511
3.76346e-05
0.000149796
0.000385403
0.000107956
6.11648e-05
0.000287163
0.000125906
2.88159e-05
7.1038e-05
0.000101494
0.000100555
0.000100839
6.20844e-05
0.000442066
0.000551756
0.000635567
0.00820438
0.00471359
0.00133713
0.00139338
0.00325964
0.00418731
0.00457889
0.00433653
0.0039424
0.00345666
0.00305627
0.00308062
0.00299918
0.00244234
0.00227847
0.00154495
0.000118478
0.00226082
0.00509635
0.0086506
0.00679203
0.00401449
0.000774835
0.00153657
0.00280168
0.00387313
0.00421502
0.00424566
0.00364725
0.00334267
0.00291642
0.00256326
0.00239942
0.00235242
0.00206445
0.00180708
0.000319351
0.00152656
0.00457082
0.00714707
0.00557701
0.00329097
0.00071425
0.00131558
0.00277828
0.00353577
0.00358799
0.00366862