/*--------------------------------*- C++ -*----------------------------------*\
| =========                 |                                                 |
| \\      /  F ield         | OpenFOAM: The Open Source CFD Toolbox           |
|  \\    /   O peration     | Version:  2212                                  |
|   \\  /    A nd           | Website:  www.openfoam.com                      |
|    \\/     M anipulation  |                                                 |
\*---------------------------------------------------------------------------*/
FoamFile
{
    version     2.0;
    format      ascii;
    arch        "LSB;label=32;scalar=64";
    class       volScalarField;
    location    "0";
    object      stateMean;
}
// * * * * * * * * * * * * * * * * * * * * * * * * * * * * * * * * * * * * * //

dimensions      [0 0 0 1 0 0 0];

internalField   nonuniform List<scalar> 
3200
(
351.689
350.105
348.947
348.368
348.571
349.096
349.857
350.513
351.15
351.69
351.835
351.83
351.436
350.948
350.408
349.978
349.863
350.287
351.39
352.967
344.768
343.361
342.427
342
342.121
342.46
343.116
343.736
344.328
344.738
344.952
344.822
344.653
344.128
343.749
343.342
343.117
343.516
344.487
345.692
337.805
336.626
335.829
335.581
335.601
335.985
336.499
337.116
337.526
337.878
337.969
337.979
337.706
337.274
336.913
336.586
336.467
336.777
337.599
338.554
330.838
329.99
329.32
329.072
329.016
329.515
329.845
330.318
330.649
330.924
331.085
331.046
330.869
330.583
330.122
329.982
329.887
330.076
330.707
331.515
323.948
323.267
322.858
322.535
322.707
322.856
323.203
323.619
323.895
324.119
324.202
324.116
324.024
323.764
323.521
323.158
323.171
323.368
323.92
324.486
317.054
316.67
316.371
316.168
316.149
316.358
316.63
316.766
316.998
317.228
317.331
317.336
317.195
316.984
316.751
316.646
316.599
316.714
317.108
317.478
310.303
310.046
309.896
309.685
309.716
309.814
309.949
310.141
310.258
310.294
310.379
310.43
310.343
310.187
310.016
309.953
310.007
310.004
310.253
310.5
303.44
303.374
303.351
303.3
303.291
303.259
303.414
303.348
303.373
303.419
303.444
303.482
303.462
303.452
303.395
303.369
303.358
303.343
303.445
303.407
351.835
350.327
349.119
348.721
348.867
349.491
350.205
351.01
351.692
352.193
352.404
352.37
352.013
351.525
350.882
350.312
350.251
350.562
351.631
353.164
344.992
343.619
342.626
342.217
342.36
342.798
343.405
344.129
344.786
345.25
345.42
345.422
345.147
344.591
344.032
343.574
343.454
343.692
344.649
345.966
337.898
336.835
336.03
335.704
335.893
336.267
336.888
337.298
337.897
338.287
338.378
338.355
338.069
337.752
337.218
336.891
336.704
336.97
337.732
338.747
330.967
330.2
329.527
329.156
329.343
329.646
330.099
330.516
330.973
331.28
331.456
331.389
331.193
330.774
330.423
330.181
329.952
330.229
330.786
331.617
324.069
323.434
322.944
322.67
322.769
323.053
323.363
323.889
324.087
324.388
324.48
324.462
324.137
323.904
323.66
323.41
323.351
323.49
324.046
324.547
317.256
316.742
316.32
316.144
316.294
316.469
316.815
317.012
317.203
317.353
317.53
317.39
317.276
317.149
316.914
316.763
316.744
316.911
317.127
317.57
310.388
310.072
309.825
309.704
309.754
309.913
310.056
310.183
310.37
310.457
310.446
310.479
310.405
310.294
310.148
310.093
309.996
310.116
310.26
310.505
303.473
303.356
303.306
303.26
303.273
303.299
303.335
303.51
303.385
303.521
303.463
303.437
303.553
303.509
303.422
303.365
303.347
303.401
303.468
303.535
352.388
350.886
349.737
349.37
349.532
350.114
350.921
351.744
352.509
353.021
353.289
353.178
352.928
352.315
351.594
351.017
350.807
351.148
352.195
353.65
345.375
344.014
343.085
342.728
342.864
343.452
344.119
344.837
345.532
346.045
346.214
346.09
345.893
345.296
344.733
344.221
343.999
344.22
345.147
346.372
338.306
337.193
336.395
336.141
336.355
336.708
337.287
337.995
338.558
338.915
339.125
339.134
338.756
338.306
337.712
337.435
337.15
337.374
338.213
339.193
331.325
330.526
329.857
329.589
329.738
330.086
330.598
331.029
331.424
331.805
331.937
331.92
331.694
331.334
330.882
330.518
330.43
330.595
331.201
331.97
324.241
323.67
323.223
323.036
323.103
323.34
323.796
324.112
324.556
324.758
324.857
324.842
324.66
324.331
324.061
323.751
323.694
323.789
324.229
324.825
317.372
316.911
316.603
316.401
316.481
316.642
316.941
317.233
317.513
317.778
317.739
317.731
317.592
317.417
317.198
317.007
316.86
316.991
317.306
317.75
310.347
310.136
309.917
309.922
309.968
310.058
310.225
310.376
310.5
310.641
310.734
310.626
310.539
310.419
310.423
310.223
310.144
310.154
310.447
310.598
303.498
303.471
303.301
303.323
303.399
303.325
303.408
303.424
303.577
303.529
303.558
303.522
303.541
303.545
303.489
303.399
303.42
303.392
303.417
303.532
353.209
351.687
350.532
350.183
350.329
351.084
351.872
352.807
353.663
354.175
354.47
354.426
353.969
353.432
352.638
352.003
351.736
352.077
353.01
354.42
346.045
344.811
343.82
343.533
343.704
344.259
344.969
345.809
346.474
346.942
347.232
347.141
346.816
346.234
345.636
345.07
344.888
345.146
345.847
347.072
338.85
337.869
337.143
336.861
336.975
337.478
338.042
338.708
339.301
339.811
339.926
339.829
339.547
339.116
338.588
338.093
337.913
338.044
338.812
339.695
331.769
330.891
330.302
330.163
330.22
330.628
331.147
331.665
332.125
332.564
332.592
332.668
332.345
331.97
331.56
331.183
331.018
331.163
331.746
332.363
324.631
324.088
323.578
323.425
323.587
323.842
324.139
324.582
325.072
325.306
325.465
325.405
325.16
324.84
324.56
324.223
324.077
324.258
324.64
325.145
317.578
317.173
316.828
316.763
316.76
316.955
317.357
317.597
317.892
318.088
318.133
318.132
317.964
317.797
317.48
317.338
317.196
317.26
317.581
318.033
310.65
310.375
310.157
310.101
310.15
310.194
310.328
310.542
310.704
310.866
310.945
310.877
310.863
310.667
310.58
310.42
310.309
310.347
310.629
310.802
303.561
303.461
303.431
303.447
303.448
303.435
303.509
303.599
303.661
303.642
303.659
303.684
303.628
303.608
303.543
303.505
303.535
303.435
303.564
303.606
354.271
352.834
351.697
351.405
351.562
352.312
353.126
354.023
354.935
355.652
355.854
355.767
355.353
354.725
353.933
353.219
352.98
353.238
354.159
355.484
346.952
345.789
344.866
344.475
344.731
345.263
346.003
346.797
347.611
348.113
348.349
348.39
347.953
347.34
346.747
346.161
345.869
346.106
346.931
347.976
339.671
338.636
337.951
337.774
337.833
338.367
338.93
339.638
340.264
340.703
340.925
340.837
340.585
340.081
339.576
339.02
338.821
338.993
339.694
340.568
332.404
331.541
331.116
330.841
330.983
331.412
331.777
332.365
332.949
333.304
333.484
333.404
333.162
332.826
332.256
331.883
331.731
331.816
332.376
333.129
325.228
324.657
324.107
323.878
324.09
324.342
324.731
325.228
325.604
325.942
326.059
326.064
325.772
325.473
325.114
324.829
324.684
324.735
325.149
325.701
317.967
317.575
317.197
317.15
317.225
317.472
317.7
318.032
318.264
318.522
318.595
318.449
318.391
318.184
317.931
317.747
317.733
317.631
317.988
318.359
310.802
310.508
310.386
310.306
310.31
310.481
310.689
310.814
311.003
311.084
311.133
311.138
311.074
311.013
310.82
310.672
310.566
310.676
310.777
311.05
303.616
303.505
303.432
303.535
303.464
303.491
303.57
303.656
303.593
303.675
303.724
303.767
303.799
303.647
303.675
303.566
303.505
303.576
303.565
303.671
355.635
354.174
353.254
352.8
352.936
353.59
354.534
355.421
356.345
357.049
357.408
357.301
356.915
356.164
355.381
354.726
354.351
354.606
355.48
356.924
348.207
346.941
346.122
345.659
345.948
346.486
347.157
347.95
348.782
349.394
349.672
349.682
349.304
348.571
347.915
347.382
347.113
347.367
348.17
349.195
340.605
339.636
338.975
338.63
338.793
339.349
339.984
340.703
341.254
341.777
342.03
342.072
341.659
341.184
340.535
340.123
339.88
340.045
340.611
341.456
333.273
332.49
331.787
331.722
331.764
332.212
332.662
333.237
333.769
334.241
334.473
334.431
334.076
333.667
333.201
332.833
332.537
332.755
333.17
333.935
325.883
325.319
324.758
324.675
324.708
325.006
325.42
325.808
326.353
326.581
326.778
326.743
326.478
326.209
325.754
325.595
325.31
325.439
325.837
326.323
318.435
318.066
317.648
317.658
317.65
317.916
318.23
318.472
318.728
318.978
319.144
319.104
319.01
318.79
318.354
318.194
318.056
318.256
318.457
318.836
311.07
310.779
310.658
310.585
310.639
310.77
310.899
311.077
311.249
311.362
311.602
311.522
311.418
311.263
311.015
310.9
310.845
310.882
311.112
311.328
303.64
303.628
303.552
303.481
303.634
303.635
303.615
303.702
303.755
303.808
303.855
303.81
303.743
303.79
303.721
303.733
303.556
303.719
303.726
303.78
357.107
355.778
354.817
354.379
354.534
355.12
356.005
356.954
357.863
358.604
359.038
358.954
358.418
357.765
356.992
356.383
356.03
356.34
357.116
358.329
349.396
348.386
347.45
347.116
347.235
347.816
348.547
349.446
350.158
350.794
351.082
351.013
350.677
350.05
349.402
348.736
348.446
348.737
349.415
350.356
341.741
340.778
340.078
339.848
340.041
340.457
341.053
341.839
342.374
342.954
343.222
343.265
342.913
342.349
341.742
341.265
341.002
341.259
341.805
342.646
334.121
333.388
332.851
332.639
332.723
333.096
333.604
334.13
334.741
335.165
335.416
335.324
335.106
334.659
334.046
333.751
333.523
333.72
334.167
334.844
326.583
325.957
325.613
325.379
325.424
325.737
326.166
326.591
326.971
327.31
327.484
327.427
327.298
326.897
326.552
326.314
326.113
326.206
326.54
327.054
318.944
318.548
318.332
318.24
318.258
318.453
318.704
318.966
319.354
319.566
319.662
319.615
319.461
319.261
318.993
318.743
318.623
318.686
318.988
319.366
311.399
311.099
311.009
310.907
310.88
311.086
311.178
311.403
311.601
311.721
311.77
311.715
311.707
311.583
311.402
311.392
311.227
311.284
311.355
311.582
303.834
303.725
303.729
303.605
303.696
303.79
303.755
303.866
303.911
303.914
303.946
303.92
303.947
303.915
303.799
303.848
303.74
303.71
303.837
303.827
358.811
357.514
356.57
356.252
356.242
356.829
357.63
358.682
359.578
360.269
360.678
360.593
360.217
359.487
358.697
358.018
357.744
358.004
358.77
359.968
350.87
349.79
349.074
348.649
348.798
349.201
349.94
350.755
351.529
352.291
352.51
352.493
352.167
351.464
350.808
350.277
349.987
350.175
350.935
351.882
343
342.145
341.487
341.105
341.265
341.701
342.248
342.999
343.656
344.24
344.445
344.453
344.079
343.45
342.974
342.474
342.298
342.399
343.08
343.839
335.156
334.458
333.923
333.705
333.707
334.052
334.555
335.122
335.659
336.143
336.369
336.307
336.078
335.688
335.13
334.698
334.549
334.7
335.173
335.837
327.305
326.838
326.367
326.235
326.272
326.566
326.92
327.364
327.734
328.161
328.204
328.223
328.005
327.727
327.392
327.034
326.894
327.018
327.368
327.783
319.584
319.104
318.797
318.713
318.783
318.858
319.207
319.633
319.827
320.145
320.252
320.163
320.004
319.779
319.597
319.32
319.28
319.291
319.47
319.876
311.678
311.462
311.337
311.241
311.247
311.449
311.586
311.663
311.955
312.054
312.117
312.145
312.043
311.932
311.743
311.649
311.549
311.573
311.748
311.974
303.87
303.855
303.786
303.734
303.734
303.796
303.91
303.95
303.99
304.002
304.027
304.112
304.086
303.951
303.932
303.844
303.865
303.881
303.888
303.983
360.628
359.398
358.436
358.034
358.08
358.547
359.393
360.299
361.218
361.932
362.387
362.348
361.89
361.18
360.38
359.839
359.655
359.878
360.671
361.783
352.502
351.394
350.616
350.167
350.308
350.69
351.468
352.152
353.008
353.676
354.033
353.969
353.569
352.958
352.343
351.793
351.569
351.806
352.53
353.492
344.306
343.516
342.8
342.45
342.574
343.007
343.488
344.246
344.834
345.447
345.683
345.62
345.382
344.792
344.285
343.871
343.587
343.8
344.342
345.093
336.267
335.613
335.023
334.804
334.866
335.146
335.69
336.224
336.77
337.199
337.447
337.276
337.039
336.671
336.281
335.865
335.747
335.818
336.296
336.852
328.107
327.685
327.26
327.067
327.092
327.314
327.667
328.179
328.541
328.917
329.105
329.172
328.881
328.398
328.224
327.897
327.763
327.808
328.106
328.613
320.116
319.79
319.448
319.395
319.378
319.557
319.764
320.088
320.33
320.726
320.788
320.721
320.683
320.345
320.082
319.869
319.843
319.886
320.208
320.46
312.095
311.889
311.637
311.574
311.606
311.742
311.91
312.03
312.233
312.408
312.516
312.493
312.459
312.201
312.055
311.994
311.919
311.865
312.07
312.306
304.072
303.937
303.921
303.901
303.804
303.928
304.017
304.007
304.127
304.139
304.178
304.187
304.15
304.102
303.976
304.009
304.009
304.041
304.012
304.092
362.579
361.281
360.426
360.006
360.024
360.412
361.086
361.992
362.869
363.545
363.986
364.076
363.559
362.865
362.191
361.722
361.459
361.738
362.393
363.562
354.145
353.186
352.319
351.947
351.951
352.345
352.941
353.695
354.497
355.146
355.526
355.479
355.008
354.521
353.78
353.447
353.279
353.52
354.108
355
345.684
344.953
344.351
344.082
343.86
344.329
344.836
345.42
346.104
346.64
346.921
346.899
346.605
346.143
345.614
345.17
345.014
345.256
345.713
346.434
337.479
336.691
336.259
335.903
335.977
336.204
336.638
337.184
337.695
338.111
338.4
338.388
338.12
337.703
337.264
336.925
336.873
337.029
337.427
337.973
329.038
328.606
328.129
327.97
327.967
328.15
328.513
328.994
329.373
329.651
329.852
329.878
329.587
329.27
329.02
328.751
328.646
328.777
329.02
329.49
320.736
320.494
320.181
319.918
319.978
320.226
320.368
320.667
320.981
321.246
321.402
321.218
321.174
320.971
320.688
320.505
320.394
320.538
320.738
321.093
312.407
312.16
312.087
312.046
311.999
312.093
312.253
312.474
312.641
312.679
312.797
312.809
312.69
312.617
312.442
312.315
312.295
312.409
312.485
312.652
304.175
304.073
304.041
304.007
304.019
304.08
304.124
304.154
304.189
304.334
304.258
304.242
304.161
304.205
304.12
304.115
304.12
304.185
304.161
304.184
364.521
363.429
362.419
361.917
361.936
362.18
362.954
363.758
364.55
365.261
365.564
365.644
365.267
364.577
363.933
363.447
363.426
363.702
364.351
365.459
355.96
354.833
354.074
353.697
353.692
353.866
354.561
355.229
355.962
356.458
356.874
356.843
356.571
356.039
355.405
355.071
354.926
355.199
355.841
356.691
347.172
346.39
345.79
345.436
345.363
345.678
346.07
346.744
347.337
347.833
348.091
348.07
347.765
347.296
346.862
346.555
346.404
346.622
347.099
347.817
338.654
338.016
337.506
337.197
337.191
337.322
337.732
338.186
338.712
339.158
339.344
339.327
339.178
338.747
338.325
338.055
337.964
338.107
338.567
339.139
329.987
329.551
329.14
328.92
328.902
329.112
329.32
329.759
330.145
330.461
330.618
330.57
330.427
330.163
329.868
329.631
329.509
329.613
329.907
330.402
321.418
321.08
320.859
320.688
320.625
320.763
321.004
321.292
321.494
321.758
321.854
321.882
321.722
321.554
321.303
321.125
321.114
321.235
321.476
321.712
312.945
312.687
312.501
312.347
312.38
312.473
312.569
312.8
312.859
313.074
313.083
313.18
312.973
313.01
312.79
312.691
312.658
312.715
312.91
313.042
304.349
304.279
304.124
304.215
304.174
304.205
304.221
304.178
304.309
304.388
304.403
304.445
304.342
304.345
304.262
304.231
304.239
304.321
304.338
304.37
366.605
365.414
364.56
363.958
363.893
364.242
364.72
365.441
366.147
366.755
367.191
367.204
366.839
366.254
365.833
365.367
365.33
365.592
366.362
367.319
357.641
356.638
355.936
355.489
355.316
355.578
356.04
356.637
357.366
357.897
358.19
358.173
357.874
357.449
357.008
356.624
356.499
356.826
357.408
358.318
348.633
347.983
347.253
346.912
346.814
347.028
347.432
347.985
348.502
348.969
349.215
349.232
348.975
348.574
348.2
347.897
347.799
348.072
348.525
349.207
339.892
339.187
338.726
338.415
338.27
338.507
338.897
339.265
339.771
340.054
340.316
340.257
340.138
339.779
339.428
339.25
339.033
339.302
339.727
340.341
330.969
330.44
330.073
329.817
329.793
329.982
330.195
330.497
330.925
331.231
331.381
331.313
331.147
330.941
330.653
330.459
330.45
330.553
330.868
331.232
322.067
321.755
321.532
321.312
321.296
321.369
321.644
321.862
322.121
322.288
322.379
322.386
322.235
322.047
321.972
321.802
321.664
321.79
322.095
322.297
313.273
313.089
312.888
312.811
312.79
312.858
312.989
313.085
313.228
313.418
313.48
313.479
313.313
313.285
313.148
313.05
312.986
313.124
313.264
313.429
304.467
304.408
304.334
304.305
304.285
304.314
304.346
304.354
304.438
304.568
304.493
304.47
304.456
304.407
304.438
304.338
304.368
304.364
304.392
304.505
368.6
367.501
366.555
366.057
365.92
366.106
366.557
367.198
367.758
368.382
368.745
368.745
368.491
367.943
367.521
367.262
367.243
367.583
368.366
369.289
359.393
358.447
357.721
357.255
357.04
357.221
357.692
358.24
358.774
359.279
359.564
359.548
359.263
358.924
358.567
358.257
358.231
358.5
359.156
359.975
350.196
349.376
348.879
348.438
348.335
348.39
348.856
349.273
349.738
350.264
350.356
350.32
350.215
349.887
349.433
349.205
349.192
349.436
350.003
350.653
341.1
340.489
339.957
339.642
339.578
339.651
339.941
340.345
340.784
341.072
341.291
341.217
341.118
340.715
340.483
340.297
340.279
340.386
340.903
341.371
331.896
331.49
331.02
330.836
330.703
330.875
331.061
331.396
331.667
331.986
332.081
332.126
331.881
331.733
331.575
331.296
331.258
331.475
331.78
332.147
322.847
322.463
322.22
322.065
321.883
322.066
322.169
322.404
322.572
322.762
322.929
322.869
322.816
322.626
322.533
322.34
322.378
322.505
322.677
323.053
313.585
313.482
313.308
313.181
313.168
313.23
313.351
313.476
313.528
313.75
313.798
313.73
313.688
313.664
313.563
313.436
313.431
313.479
313.677
313.803
304.63
304.495
304.423
304.442
304.468
304.429
304.453
304.559
304.554
304.625
304.598
304.644
304.55
304.56
304.513
304.535
304.461
304.527
304.565
304.613
370.803
369.617
368.664
368.053
367.903
367.992
368.399
368.931
369.514
369.949
370.273
370.281
369.918
369.686
369.253
369.087
369.179
369.501
370.237
371.325
361.271
360.293
359.492
358.932
358.883
358.998
359.332
359.765
360.231
360.695
360.831
360.942
360.63
360.332
360.075
359.831
359.919
360.269
360.833
361.736
351.782
351.034
350.313
349.921
349.746
349.861
350.156
350.544
350.939
351.298
351.558
351.49
351.371
351.042
350.791
350.622
350.693
350.874
351.41
352.09
342.235
341.764
341.202
340.861
340.784
340.775
341.068
341.306
341.71
341.996
342.148
342.151
342.026
341.783
341.603
341.312
341.389
341.645
342.066
342.666
332.889
332.383
331.951
331.71
331.616
331.791
331.922
332.179
332.426
332.662
332.765
332.76
332.665
332.5
332.315
332.191
332.212
332.373
332.67
333.096
323.522
323.157
322.884
322.666
322.679
322.635
322.894
323.015
323.165
323.396
323.438
323.368
323.38
323.232
323.068
322.966
322.957
323.118
323.302
323.653
314.056
313.933
313.673
313.566
313.647
313.638
313.65
313.787
313.902
313.995
314.045
314.083
314.035
313.907
313.929
313.862
313.833
313.95
314.058
314.147
304.729
304.667
304.653
304.608
304.492
304.568
304.636
304.655
304.655
304.678
304.729
304.787
304.741
304.696
304.679
304.601
304.71
304.652
304.711
304.738
372.935
371.731
370.774
370.144
369.915
369.951
370.244
370.671
371.163
371.48
371.703
371.796
371.572
371.251
371.079
370.909
371.046
371.486
372.306
373.304
362.957
362.157
361.352
360.827
360.595
360.644
360.931
361.208
361.642
361.97
362.139
362.202
362.035
361.78
361.513
361.357
361.45
361.921
362.556
363.367
353.341
352.584
351.905
351.455
351.192
351.249
351.493
351.795
352.176
352.392
352.546
352.596
352.489
352.266
352.097
351.949
352.04
352.318
352.963
353.544
343.481
343.029
342.401
342.134
341.936
341.992
342.205
342.376
342.733
342.924
343.057
343.067
342.931
342.823
342.643
342.507
342.526
342.807
343.323
343.845
333.889
333.444
332.971
332.836
332.593
332.601
332.762
333.048
333.143
333.342
333.508
333.554
333.442
333.327
333.173
333.066
333.12
333.283
333.657
334.025
324.216
323.892
323.669
323.477
323.319
323.322
323.409
323.546
323.732
323.841
323.954
323.948
323.876
323.747
323.683
323.644
323.65
323.818
324.035
324.307
314.469
314.255
314.161
314.114
313.997
314.043
314.069
314.182
314.224
314.284
314.413
314.305
314.363
314.318
314.223
314.113
314.185
314.344
314.425
314.519
304.859
304.788
304.727
304.674
304.737
304.672
304.751
304.733
304.766
304.746
304.774
304.8
304.78
304.859
304.801
304.715
304.756
304.776
304.868
304.912
374.94
373.849
372.954
372.29
371.918
371.881
372.11
372.429
372.859
373.049
373.324
373.353
373.16
373.017
372.92
372.768
372.917
373.5
374.214
375.3
364.895
363.976
363.18
362.609
362.312
362.25
362.476
362.753
363.101
363.347
363.543
363.58
363.475
363.208
363.075
363.06
363.162
363.618
364.35
365.049
354.8
354.139
353.441
353.023
352.768
352.727
352.868
353.093
353.451
353.521
353.756
353.764
353.727
353.517
353.386
353.271
353.445
353.731
354.389
355.003
344.898
344.213
343.692
343.356
343.095
343.147
343.2
343.522
343.632
343.827
343.958
344.01
343.891
343.821
343.69
343.671
343.787
344.037
344.45
344.998
334.874
334.438
334.004
333.751
333.6
333.586
333.723
333.826
334
334.181
334.201
334.256
334.18
334.026
333.993
333.9
333.927
334.222
334.64
334.921
324.953
324.7
324.328
324.122
323.991
323.944
324.046
324.191
324.226
324.392
324.401
324.386
324.43
324.353
324.32
324.171
324.328
324.46
324.695
325.055
314.926
314.789
314.556
314.421
314.327
314.409
314.417
314.468
314.536
314.627
314.718
314.73
314.639
314.551
314.557
314.593
314.59
314.739
314.858
315.01
305.026
305.005
304.875
304.925
304.861
304.846
304.791
304.89
304.914
305.026
304.9
304.942
304.901
304.878
304.923
304.903
304.869
304.963
304.975
304.984
377.111
376.051
375.083
374.362
373.951
373.869
373.952
374.228
374.505
374.754
374.905
374.829
374.731
374.754
374.586
374.594
374.84
375.429
376.194
377.278
366.681
365.877
364.952
364.37
364.159
363.999
364.074
364.222
364.554
364.723
364.879
364.95
364.897
364.755
364.66
364.522
364.814
365.226
366.08
366.81
356.334
355.697
354.998
354.499
354.192
354.118
354.269
354.376
354.686
354.853
354.879
354.941
354.844
354.76
354.657
354.634
354.758
355.245
355.799
356.558
346.086
345.512
344.915
344.608
344.326
344.272
344.325
344.502
344.635
344.834
344.934
344.956
344.902
344.729
344.694
344.724
344.866
345.155
345.687
346.123
335.837
335.383
334.917
334.679
334.495
334.475
334.541
334.588
334.807
334.929
334.948
334.938
334.867
334.822
334.682
334.776
334.881
335.171
335.522
335.964
325.584
325.355
324.969
324.784
324.659
324.681
324.649
324.731
324.796
324.917
324.998
324.941
324.919
324.906
324.848
324.872
324.931
325.063
325.307
325.647
315.372
315.187
314.939
314.802
314.874
314.804
314.835
314.89
314.895
314.984
314.982
315.018
315.005
314.848
314.979
314.903
314.953
315.016
315.195
315.376
305.171
305.088
304.996
304.956
304.984
304.956
304.941
304.959
305.022
304.998
305.05
305.027
305.068
304.985
305.009
305.001
305.041
305.068
305.08
305.15
379.112
378.054
376.988
376.366
375.936
375.688
375.804
375.907
376.085
376.344
376.449
376.464
376.401
376.302
376.262
376.365
376.736
377.288
378.199
379.249
368.445
367.539
366.756
366.085
365.813
365.648
365.573
365.798
365.9
366.08
366.21
366.335
366.195
366.11
366.118
366.199
366.507
366.959
367.714
368.575
357.91
357.172
356.436
355.881
355.587
355.564
355.454
355.665
355.843
355.913
356.017
356.062
356.007
355.919
355.854
355.959
356.233
356.669
357.187
357.852
347.36
346.65
346.153
345.749
345.573
345.408
345.416
345.541
345.646
345.831
345.927
345.844
345.845
345.8
345.675
345.751
345.943
346.33
346.771
347.298
336.799
336.381
335.929
335.5
335.445
335.28
335.288
335.317
335.477
335.535
335.699
335.651
335.615
335.561
335.605
335.592
335.689
335.982
336.347
336.806
326.304
325.914
325.638
325.397
325.222
325.22
325.242
325.278
325.308
325.41
325.502
325.517
325.49
325.413
325.467
325.403
325.569
325.695
326.028
326.275
315.734
315.572
315.389
315.262
315.236
315.213
315.18
315.208
315.163
315.29
315.345
315.322
315.312
315.265
315.185
315.326
315.364
315.435
315.653
315.811
305.291
305.184
305.182
304.996
305.116
305.097
305.054
305.067
305.086
305.146
305.165
305.095
305.12
305.11
305.156
305.092
305.168
305.231
305.286
305.332
381.022
379.922
378.899
378.267
377.76
377.498
377.513
377.57
377.643
377.787
377.893
377.948
377.887
377.943
377.908
378.126
378.467
379.043
379.995
380.875
370.088
369.215
368.288
367.745
367.352
367.155
367.043
367.14
367.227
367.37
367.455
367.579
367.485
367.472
367.511
367.603
367.844
368.366
369.172
370.044
359.156
358.453
357.669
357.239
356.924
356.785
356.74
356.771
356.98
356.945
357.113
357.053
357.059
357.065
357.091
357.231
357.404
357.809
358.543
359.162
348.361
347.791
347.299
346.801
346.533
346.377
346.373
346.439
346.51
346.558
346.713
346.703
346.649
346.699
346.604
346.718
346.942
347.287
347.785
348.333
337.587
337.157
336.704
336.35
336.184
336.052
336.028
336.096
336.206
336.232
336.279
336.347
336.342
336.249
336.266
336.358
336.466
336.736
337.189
337.635
326.882
326.595
326.291
325.97
325.897
325.759
325.769
325.753
325.839
325.908
325.934
325.895
325.913
325.859
325.915
325.945
326.071
326.317
326.517
326.791
316.146
315.951
315.722
315.626
315.506
315.446
315.45
315.45
315.56
315.521
315.543
315.648
315.536
315.501
315.543
315.546
315.655
315.738
315.888
316.106
305.515
305.315
305.213
305.2
305.189
305.187
305.178
305.164
305.288
305.206
305.208
305.229
305.261
305.204
305.217
305.296
305.22
305.305
305.326
305.418
382.469
381.381
380.324
379.622
379.073
378.819
378.625
378.771
378.843
378.968
379.002
379.066
379.115
379.071
379.154
379.346
379.747
380.393
381.367
382.333
371.206
370.317
369.422
368.795
368.383
368.196
368.114
368.12
368.246
368.385
368.43
368.403
368.462
368.448
368.517
368.705
368.954
369.524
370.378
371.151
360.18
359.451
358.694
358.175
357.862
357.66
357.581
357.6
357.617
357.712
357.844
357.818
357.893
357.798
357.93
357.96
358.279
358.788
359.379
360.07
349.151
348.539
347.899
347.511
347.283
347.092
347.042
347.143
347.146
347.234
347.25
347.29
347.321
347.308
347.252
347.427
347.61
348.012
348.537
349.011
338.162
337.731
337.299
336.952
336.738
336.519
336.577
336.55
336.618
336.703
336.682
336.66
336.729
336.814
336.742
336.862
336.994
337.271
337.704
338.019
327.199
326.93
326.55
326.371
326.267
326.099
326.138
326.124
326.064
326.184
326.15
326.21
326.305
326.25
326.191
326.313
326.427
326.73
326.912
327.208
316.297
316.098
316.002
315.851
315.783
315.726
315.767
315.722
315.767
315.666
315.729
315.839
315.742
315.682
315.798
315.855
315.91
315.991
316.128
316.36
305.525
305.408
305.383
305.329
305.253
305.216
305.284
305.247
305.258
305.248
305.31
305.285
305.367
305.321
305.302
305.189
305.381
305.336
305.397
305.528
)
;

boundaryField
{
    hotSide
    {
        type            fixedGradient;
        gradient        nonuniform List<scalar> 
400
(
321.511
322.87
325.591
329.677
335.133
341.965
350.181
359.788
370.794
383.208
397.037
412.289
428.971
447.088
466.647
487.651
510.105
534.011
559.372
586.191
323.738
325.08
327.767
331.802
337.194
343.949
352.078
361.591
372.498
384.81
398.537
413.687
430.268
448.289
467.755
488.672
511.043
534.872
560.161
586.913
326.149
327.47
330.116
334.091
339.406
346.071
354.099
363.503
374.296
386.491
400.101
415.136
431.606
449.52
468.885
489.706
511.988
535.735
560.948
587.63
328.704
330
332.597
336.503
341.73
348.292
356.205
365.485
376.15
388.215
401.695
416.604
432.954
450.753
470.009
490.73
512.919
536.579
561.714
588.325
331.33
332.599
335.142
338.97
344.099
350.546
358.332
367.477
378.003
389.928
403.271
418.047
434.27
451.949
471.095
491.712
513.807
537.382
562.439
588.978
333.918
335.158
337.643
341.389
346.414
352.74
360.392
369.397
379.779
391.562
404.765
419.407
435.503
453.065
472.101
492.618
514.622
538.114
563.096
589.569
336.321
337.531
339.959
343.622
348.544
354.751
362.274
371.142
381.385
393.031
406.101
420.618
436.595
454.047
472.983
493.409
515.33
538.747
563.663
590.076
338.36
339.543
341.92
345.509
350.339
356.44
363.847
372.595
382.718
394.244
407.2
421.608
437.485
454.844
473.695
494.045
515.897
539.253
564.114
590.478
339.852
341.015
343.352
346.885
351.645
357.665
364.985
373.643
383.675
395.113
407.984
422.312
438.116
455.407
474.197
494.491
516.294
539.606
564.428
590.758
340.643
341.795
344.11
347.613
352.334
358.311
365.584
374.193
384.176
395.567
408.393
422.679
438.443
455.699
474.456
494.722
516.498
539.788
564.589
590.901
340.643
341.795
344.11
347.613
352.334
358.311
365.584
374.193
384.176
395.567
408.393
422.679
438.443
455.699
474.456
494.722
516.498
539.788
564.589
590.901
339.852
341.015
343.352
346.885
351.645
357.665
364.985
373.643
383.675
395.113
407.984
422.312
438.116
455.407
474.197
494.491
516.294
539.606
564.428
590.758
338.36
339.543
341.92
345.509
350.339
356.44
363.847
372.595
382.718
394.244
407.2
421.608
437.485
454.844
473.695
494.045
515.897
539.253
564.114
590.478
336.321
337.531
339.959
343.622
348.544
354.751
362.274
371.142
381.385
393.031
406.101
420.618
436.595
454.047
472.983
493.409
515.33
538.747
563.663
590.076
333.918
335.158
337.643
341.389
346.414
352.74
360.392
369.397
379.779
391.562
404.765
419.407
435.503
453.065
472.101
492.618
514.622
538.114
563.096
589.569
331.33
332.599
335.142
338.97
344.099
350.546
358.332
367.477
378.003
389.928
403.271
418.047
434.27
451.949
471.095
491.712
513.807
537.382
562.439
588.978
328.704
330
332.597
336.503
341.73
348.292
356.205
365.485
376.15
388.215
401.695
416.604
432.954
450.753
470.009
490.73
512.919
536.579
561.714
588.325
326.149
327.47
330.116
334.091
339.406
346.071
354.099
363.503
374.296
386.491
400.101
415.136
431.606
449.52
468.885
489.706
511.988
535.735
560.948
587.63
323.738
325.08
327.767
331.802
337.194
343.949
352.078
361.591
372.498
384.81
398.537
413.687
430.268
448.289
467.755
488.672
511.043
534.872
560.161
586.913
321.511
322.87
325.591
329.677
335.133
341.965
350.181
359.788
370.794
383.208
397.037
412.289
428.971
447.088
466.647
487.651
510.105
534.011
559.372
586.191
)
;
    }
    coldSide
    {
        type            mixed;
        refValue        uniform 300;
        refGradient     uniform 0;
        valueFraction   uniform 0.991591;
        source          uniform 0;
        value           nonuniform List<scalar> 
400
(
300.029
300.029
300.029
300.03
300.03
300.031
300.032
300.033
300.034
300.035
300.037
300.038
300.039
300.04
300.041
300.042
300.043
300.044
300.046
300.046
300.028
300.028
300.029
300.029
300.029
300.031
300.031
300.032
300.033
300.034
300.036
300.037
300.038
300.039
300.04
300.042
300.043
300.044
300.045
300.045
300.028
300.028
300.028