/*--------------------------------*- C++ -*----------------------------------*\
| =========                 |                                                 |
| \\      /  F ield         | OpenFOAM: The Open Source CFD Toolbox           |
|  \\    /   O peration     | Version:  2212                                  |
|   \\  /    A nd           | Website:  www.openfoam.com                      |
|    \\/     M anipulation  |                                                 |
\*---------------------------------------------------------------------------*/
FoamFile
{
    version     2.0;
    format      ascii;
    arch        "LSB;label=32;scalar=64";
    class       volScalarField;
    location    "0";
    object      Ttrue;
}
// * * * * * * * * * * * * * * * * * * * * * * * * * * * * * * * * * * * * * //

dimensions      [0 0 0 1 0 0 0];

internalField   nonuniform List<scalar> 
3200
(
343.569
343.812
344.122
344.459
344.807
345.148
345.464
345.729
345.923
346.026
346.026
345.923
345.729
345.464
345.148
344.807
344.459
344.122
343.812
343.569
337.841
338.047
338.314
338.606
338.907
339.202
339.475
339.705
339.872
339.96
339.96
339.872
339.705
339.475
339.202
338.907
338.606
338.314
338.047
337.841
332.079
332.25
332.475
332.722
332.976
333.225
333.455
333.649
333.791
333.865
333.865
333.791
333.649
333.455
333.225
332.976
332.722
332.475
332.25
332.079
326.289
326.426
326.609
326.811
327.019
327.223
327.411
327.569
327.684
327.745
327.745
327.684
327.569
327.411
327.223
327.019
326.811
326.609
326.426
326.289
320.475
320.581
320.723
320.88
321.042
321.2
321.346
321.469
321.558
321.606
321.606
321.558
321.469
321.346
321.2
321.042
320.88
320.723
320.581
320.475
314.645
314.719
314.821
314.933
315.048
315.161
315.265
315.353
315.417
315.451
315.451
315.417
315.353
315.265
315.161
315.048
314.933
314.821
314.719
314.645
308.802
308.846
308.907
308.974
309.044
309.111
309.174
309.227
309.265
309.285
309.285
309.265
309.227
309.174
309.111
309.044
308.974
308.907
308.846
308.802
302.951
302.966
302.987
303.009
303.032
303.055
303.076
303.094
303.106
303.113
303.113
303.106
303.094
303.076
303.055
303.032
303.009
302.987
302.966
302.951
343.751
343.992
344.299
344.634
344.978
345.316
345.627
345.89
346.081
346.182
346.182
346.081
345.89
345.627
345.316
344.978
344.634
344.299
343.992
343.751
337.999
338.203
338.468
338.758
339.056
339.348
339.617
339.844
340.009
340.096
340.096
340.009
339.844
339.617
339.348
339.056
338.758
338.468
338.203
337.999
332.213
332.382
332.606
332.85
333.102
333.349
333.576
333.768
333.907
333.98
333.98
333.907
333.768
333.576
333.349
333.102
332.85
332.606
332.382
332.213
326.399
326.535
326.717
326.916
327.122
327.324
327.51
327.666
327.78
327.84
327.84
327.78
327.666
327.51
327.324
327.122
326.916
326.717
326.535
326.399
320.561
320.666
320.807
320.962
321.122
321.279
321.423
321.544
321.633
321.679
321.679
321.633
321.544
321.423
321.279
321.122
320.962
320.807
320.666
320.561
314.706
314.78
314.881
314.991
315.106
315.218
315.321
315.407
315.47
315.504
315.504
315.47
315.407
315.321
315.218
315.106
314.991
314.881
314.78
314.706
308.838
308.883
308.943
309.01
309.078
309.145
309.207
309.259
309.297
309.317
309.317
309.297
309.259
309.207
309.145
309.078
309.01
308.943
308.883
308.838
302.964
302.978
302.999
303.021
303.044
303.066
303.087
303.105
303.117
303.124
303.124
303.117
303.105
303.087
303.066
303.044
303.021
302.999
302.978
302.964
344.117
344.354
344.655
344.984
345.321
345.651
345.956
346.212
346.398
346.497
346.497
346.398
346.212
345.956
345.651
345.321
344.984
344.655
344.354
344.117
338.316
338.517
338.777
339.061
339.353
339.639
339.902
340.124
340.285
340.37
340.37
340.285
340.124
339.902
339.639
339.353
339.061
338.777
338.517
338.316
332.482
332.648
332.868
333.108
333.354
333.596
333.818
334.005
334.141
334.212
334.212
334.141
334.005
333.818
333.596
333.354
333.108
332.868
332.648
332.482
326.618
326.752
326.931
327.127
327.329
327.526
327.708
327.861
327.971
328.03
328.03
327.971
327.861
327.708
327.526
327.329
327.127
326.931
326.752
326.618
320.732
320.835
320.974
321.126
321.283
321.436
321.577
321.696
321.782
321.827
321.827
321.782
321.696
321.577
321.436
321.283
321.126
320.974
320.835
320.732
314.828
314.901
315
315.109
315.221
315.33
315.431
315.516
315.577
315.609
315.609
315.577
315.516
315.431
315.33
315.221
315.109
315
314.901
314.828
308.912
308.955
309.015
309.08
309.147
309.213
309.273
309.324
309.361
309.381
309.381
309.361
309.324
309.273
309.213
309.147
309.08
309.015
308.955
308.912
302.988
303.003
303.023
303.045
303.067
303.089
303.109
303.126
303.139
303.145
303.145
303.139
303.126
303.109
303.089
303.067
303.045
303.023
303.003
302.988
344.665
344.896
345.191
345.51
345.837
346.157
346.451
346.698
346.877
346.972
346.972
346.877
346.698
346.451
346.157
345.837
345.51
345.191
344.896
344.665
338.792
338.988
339.242
339.518
339.802
340.078
340.333
340.546
340.701
340.783
340.783
340.701
340.546
340.333
340.078
339.802
339.518
339.242
338.988
338.792
332.885
333.047
333.261
333.495
333.734
333.968
334.183
334.363
334.494
334.563
334.563
334.494
334.363
334.183
333.968
333.734
333.495
333.261
333.047
332.885
326.949
327.079
327.254
327.445
327.64
327.832
328.007
328.154
328.261
328.317
328.317
328.261
328.154
328.007
327.832
327.64
327.445
327.254
327.079
326.949
320.989
321.09
321.225
321.373
321.525
321.674
321.81
321.925
322.008
322.051
322.051
322.008
321.925
321.81
321.674
321.525
321.373
321.225
321.09
320.989
315.012
315.083
315.18
315.286
315.394
315.5
315.598
315.679
315.738
315.77
315.77
315.738
315.679
315.598
315.5
315.394
315.286
315.18
315.083
315.012
309.022
309.065
309.123
309.186
309.252
309.315
309.374
309.423
309.458
309.477
309.477
309.458
309.423
309.374
309.315
309.252
309.186
309.123
309.065
309.022
303.025
303.039
303.059
303.08
303.102
303.123
303.143
303.159
303.171
303.177
303.177
303.171
303.159
303.143
303.123
303.102
303.08
303.059
303.039
303.025
345.397
345.621
345.906
346.214
346.529
346.835
347.116
347.352
347.522
347.612
347.612
347.522
347.352
347.116
346.835
346.529
346.214
345.906
345.621
345.397
339.428
339.618
339.863
340.13
340.402
340.667
340.91
341.114
341.261
341.339
341.339
341.261
341.114
340.91
340.667
340.402
340.13
339.863
339.618
339.428
333.423
333.581
333.788
334.013
334.243
334.467
334.672
334.844
334.969
335.034
335.034
334.969
334.844
334.672
334.467
334.243
334.013
333.788
333.581
333.423
327.39
327.516
327.685
327.869
328.057
328.241
328.408
328.549
328.65
328.704
328.704
328.65
328.549
328.408
328.241
328.057
327.869
327.685
327.516
327.39
321.333
321.43
321.561
321.704
321.85
321.993
322.123
322.232
322.311
322.352
322.352
322.311
322.232
322.123
321.993
321.85
321.704
321.561
321.43
321.333
315.258
315.326
315.42
315.522
315.626
315.728
315.821
315.899
315.955
315.985
315.985
315.955
315.899
315.821
315.728
315.626
315.522
315.42
315.326
315.258
309.17
309.211
309.267
309.328
309.391
309.452
309.508
309.555
309.589
309.606
309.606
309.589
309.555
309.508
309.452
309.391
309.328
309.267
309.211
309.17
303.075
303.088
303.107
303.128
303.149
303.169
303.188
303.204
303.215
303.221
303.221
303.215
303.204
303.188
303.169
303.149
303.128
303.107
303.088
303.075
346.314
346.53
346.803
347.098
347.398
347.689
347.954
348.177
348.337
348.422
348.422
348.337
348.177
347.954
347.689
347.398
347.098
346.803
346.53
346.314
340.224
340.406
340.642
340.897
341.157
341.408
341.638
341.83
341.969
342.042
342.042
341.969
341.83
341.638
341.408
341.157
340.897
340.642
340.406
340.224
334.097
334.249
334.448
334.663
334.882
335.095
335.29
335.452
335.569
335.631
335.631
335.569
335.452
335.29
335.095
334.882
334.663
334.448
334.249
334.097
327.942
328.064
328.226
328.402
328.581
328.755
328.914
329.047
329.142
329.193
329.193
329.142
329.047
328.914
328.755
328.581
328.402
328.226
328.064
327.942
321.762
321.856
321.982
322.119
322.258
322.393
322.517
322.62
322.694
322.733
322.733
322.694
322.62
322.517
322.393
322.258
322.119
321.982
321.856
321.762
315.565
315.631
315.721
315.819
315.918
316.015
316.103
316.176
316.23
316.257
316.257
316.23
316.176
316.103
316.015
315.918
315.819
315.721
315.631
315.565
309.355
309.394
309.448
309.507
309.566
309.624
309.677
309.721
309.753
309.77
309.77
309.753
309.721
309.677
309.624
309.566
309.507
309.448
309.394
309.355
303.137
303.15
303.168
303.188
303.208
303.227
303.245
303.26
303.27
303.276
303.276
303.27
303.26
303.245
303.227
303.208
303.188
303.168
303.15
303.137
347.417
347.624
347.884
348.163
348.447
348.721
348.97
349.177
349.327
349.406
349.406
349.327
349.177
348.97
348.721
348.447
348.163
347.884
347.624
347.417
341.181
341.355
341.58
341.822
342.067
342.304
342.52
342.7
342.829
342.897
342.897
342.829
342.7
342.52
342.304
342.067
341.822
341.58
341.355
341.181
334.908
335.053
335.242
335.447
335.654
335.855
336.037
336.189
336.298
336.355
336.355
336.298
336.189
336.037
335.855
335.654
335.447
335.242
335.053
334.908
328.606
328.722
328.877
329.044
329.214
329.378
329.526
329.65
329.74
329.787
329.787
329.74
329.65
329.526
329.378
329.214
329.044
328.877
328.722
328.606
322.279
322.369
322.489
322.619
322.751
322.878
322.994
323.09
323.159
323.196
323.196
323.159
323.09
322.994
322.878
322.751
322.619
322.489
322.369
322.279
315.935
315.998
316.083
316.176
316.27
316.361
316.444
316.513
316.562
316.588
316.588
316.562
316.513
316.444
316.361
316.27
316.176
316.083
315.998
315.935
309.577
309.615
309.666
309.721
309.778
309.833
309.882
309.924
309.953
309.969
309.969
309.953
309.924
309.882
309.833
309.778
309.721
309.666
309.615
309.577
303.211
303.224
303.241
303.26
303.279
303.297
303.313
303.327
303.337
303.343
303.343
303.337
303.327
303.313
303.297
303.279
303.26
303.241
303.224
303.211
348.707
348.903
349.149
349.413
349.679
349.934
350.166
350.358
350.497
350.569
350.569
350.497
350.358
350.166
349.934
349.679
349.413
349.149
348.903
348.707
342.3
342.466
342.679
342.907
343.137
343.358
343.559
343.725
343.845
343.908
343.908
343.845
343.725
343.559
343.358
343.137
342.907
342.679
342.466
342.3
335.856
335.994
336.173
336.366
336.561
336.748
336.918
337.058
337.159
337.212
337.212
337.159
337.058
336.918
336.748
336.561
336.366
336.173
335.994
335.856
329.383
329.493
329.639
329.797
329.956
330.109
330.248
330.363
330.445
330.489
330.489
330.445
330.363
330.248
330.109
329.956
329.797
329.639
329.493
329.383
322.884
322.969
323.082
323.205
323.329
323.448
323.556
323.645
323.709
323.743
323.743
323.709
323.645
323.556
323.448
323.329
323.205
323.082
322.969
322.884
316.367
316.427
316.508
316.595
316.684
316.769
316.846
316.91
316.955
316.979
316.979
316.955
316.91
316.846
316.769
316.684
316.595
316.508
316.427
316.367
309.837
309.872
309.921
309.973
310.027
310.078
310.124
310.162
310.19
310.204
310.204
310.19
310.162
310.124
310.078
310.027
309.973
309.921
309.872
309.837
303.298
303.31
303.326
303.344
303.362
303.379
303.394
303.407
303.417
303.421
303.421
303.417
303.407
303.394
303.379
303.362
303.344
303.326
303.31
303.298
350.185
350.37
350.602
350.848
351.096
351.333
351.547
351.724
351.851
351.917
351.917
351.851
351.724
351.547
351.333
351.096
350.848
350.602
350.37
350.185
343.583
343.739
343.939
344.153
344.368
344.573
344.758
344.911
345.021
345.078
345.078
345.021
344.911
344.758
344.573
344.368
344.153
343.939
343.739
343.583
336.943
337.073
337.242
337.422
337.604
337.777
337.934
338.063
338.156
338.204
338.204
338.156
338.063
337.934
337.777
337.604
337.422
337.242
337.073
336.943
330.272
330.377
330.515
330.662
330.811
330.953
331.081
331.186
331.262
331.302
331.302
331.262
331.186
331.081
330.953
330.811
330.662
330.515
330.377
330.272
323.577
323.657
323.764
323.879
323.994
324.105
324.204
324.286
324.345
324.376
324.376
324.345
324.286
324.204
324.105
323.994
323.879
323.764
323.657
323.577
316.862
316.919
316.995
317.077
317.16
317.239
317.31
317.368
317.41
317.432
317.432
317.41
317.368
317.31
317.239
317.16
317.077
316.995
316.919
316.862
310.134
310.168
310.214
310.263
310.312
310.36
310.403
310.438
310.463
310.476
310.476
310.463
310.438
310.403
310.36
310.312
310.263
310.214
310.168
310.134
303.398
303.409
303.425
303.441
303.458
303.474
303.488
303.5
303.508
303.513
303.513
303.508
303.5
303.488
303.474
303.458
303.441
303.425
303.409
303.398
351.852
352.026
352.243
352.472
352.702
352.92
353.116
353.278
353.393
353.453
353.453
353.393
353.278
353.116
352.92
352.702
352.472
352.243
352.026
351.852
345.029
345.177
345.364
345.563
345.761
345.951
346.12
346.26
346.36
346.412
346.412
346.36
346.26
346.12
345.951
345.761
345.563
345.364
345.177
345.029
338.169
338.291
338.449
338.617
338.785
338.945
339.088
339.207
339.291
339.335
339.335
339.291
339.207
339.088
338.945
338.785
338.617
338.449
338.291
338.169
331.276
331.375
331.503
331.641
331.778
331.909
332.027
332.123
332.192
332.228
332.228
332.192
332.123
332.027
331.909
331.778
331.641
331.503
331.375
331.276
324.358
324.434
324.534
324.641
324.748
324.849
324.941
325.016
325.07
325.098
325.098
325.07
325.016
324.941
324.849
324.748
324.641
324.534
324.434
324.358
317.421
317.475
317.546
317.622
317.698
317.771
317.836
317.89
317.928
317.948
317.948
317.928
317.89
317.836
317.771
317.698
317.622
317.546
317.475
317.421
310.47
310.502
310.544
310.59
310.636
310.68
310.719
310.751
310.774
310.786
310.786
310.774
310.751
310.719
310.68
310.636
310.59
310.544
310.502
310.47
303.511
303.521
303.536
303.551
303.566
303.581
303.594
303.605
303.613
303.617
303.617
303.613
303.605
303.594
303.581
303.566
303.551
303.536
303.521
303.511
353.709
353.872
354.074
354.286
354.498
354.698
354.877
355.023
355.128
355.182
355.182
355.128
355.023
354.877
354.698
354.498
354.286
354.074
353.872
353.709
346.641
346.779
346.953
347.137
347.32
347.494
347.649
347.776
347.866
347.913
347.913
347.866
347.776
347.649
347.494
347.32
347.137
346.953
346.779
346.641
339.534
339.648
339.795
339.951
340.106
340.253
340.384
340.491
340.567
340.607
340.607
340.567
340.491
340.384
340.253
340.106
339.951
339.795
339.648
339.534
332.395
332.487
332.606
332.734
332.86
332.981
333.088
333.176
333.238
333.271
333.271
333.238
333.176
333.088
332.981
332.86
332.734
332.606
332.487
332.395
325.229
325.3
325.393
325.492
325.59
325.684
325.767
325.835
325.884
325.909
325.909
325.884
325.835
325.767
325.684
325.59
325.492
325.393
325.3
325.229
318.044
318.094
318.16
318.231
318.301
318.368
318.427
318.476
318.511
318.529
318.529
318.511
318.476
318.427
318.368
318.301
318.231
318.16
318.094
318.044
310.844
310.874
310.914
310.956
310.998
311.038
311.074
311.103
311.124
311.135
311.135
311.124
311.103
311.074
311.038
310.998
310.956
310.914
310.874
310.844
303.636
303.646
303.659
303.673
303.688
303.701
303.713
303.723
303.73
303.734
303.734
303.73
303.723
303.713
303.701
303.688
303.673
303.659
303.646
303.636
355.757
355.908
356.096
356.292
356.485
356.668
356.83
356.963
357.057
357.106
357.106
357.057
356.963
356.83
356.668
356.485
356.292
356.096
355.908
355.757
348.418
348.547
348.708
348.878
349.046
349.204
349.345
349.46
349.541
349.584
349.584
349.541
349.46
349.345
349.204
349.046
348.878
348.708
348.547
348.418
341.04
341.146
341.282
341.426
341.568
341.702
341.821
341.918
341.987
342.023
342.023
341.987
341.918
341.821
341.702
341.568
341.426
341.282
341.146
341.04
333.628
333.713
333.824
333.942
334.058
334.168
334.265
334.345
334.401
334.43
334.43
334.401
334.345
334.265
334.168
334.058
333.942
333.824
333.713
333.628
326.189
326.255
326.341
326.432
326.523
326.608
326.684
326.746
326.789
326.812
326.812
326.789
326.746
326.684
326.608
326.523
326.432
326.341
326.255
326.189
318.73
318.777
318.838
318.903
318.968
319.029
319.083
319.127
319.158
319.175
319.175
319.158
319.127
319.083
319.029
318.968
318.903
318.838
318.777
318.73
311.257
311.284
311.321
311.36
311.399
311.436
311.468
311.495
311.514
311.523
311.523
311.514
311.495
311.468
311.436
311.399
311.36
311.321
311.284
311.257
303.774
303.784
303.796
303.809
303.822
303.834
303.845
303.854
303.86
303.864
303.864
303.86
303.854
303.845
303.834
303.822
303.809
303.796
303.784
303.774
357.996
358.136
358.309
358.489
358.666
358.832
358.979
359.099
359.183
359.227
359.227
359.183
359.099
358.979
358.832
358.666
358.489
358.309
358.136
357.996
350.361
350.48
350.63
350.786
350.939
351.083
351.21
351.314
351.387
351.425
351.425
351.387
351.314
351.21
351.083
350.939
350.786
350.63
350.48
350.361
342.686
342.784
342.91
343.042
343.172
343.294
343.401
343.489
343.551
343.583
343.583
343.551
343.489
343.401
343.294
343.172
343.042
342.91
342.784
342.686
334.976
335.055
335.158
335.266
335.372
335.472
335.56
335.631
335.682
335.708
335.708
335.682
335.631
335.56
335.472
335.372
335.266
335.158
335.055
334.976
327.239
327.3
327.379
327.463
327.546
327.623
327.692
327.747
327.787
327.807
327.807
327.787
327.747
327.692
327.623
327.546
327.463
327.379
327.3
327.239
319.48
319.524
319.58
319.64
319.699
319.755
319.804
319.843
319.872
319.886
319.886
319.872
319.843
319.804
319.755
319.699
319.64
319.58
319.524
319.48
311.707
311.733
311.767
311.803
311.839
311.872
311.901
311.925
311.942
311.951
311.951
311.942
311.925
311.901
311.872
311.839
311.803
311.767
311.733
311.707
303.925
303.934
303.945
303.957
303.969
303.981
303.99
303.998
304.004
304.007
304.007
304.004
303.998
303.99
303.981
303.969
303.957
303.945
303.934
303.925
360.425
360.555
360.714
360.879
361.04
361.19
361.323
361.43
361.505
361.544
361.544
361.505
361.43
361.323
361.19
361.04
360.879
360.714
360.555
360.425
352.469
352.579
352.716
352.859
352.999
353.129
353.244
353.337
353.402
353.436
353.436
353.402
353.337
353.244
353.129
352.999
352.859
352.716
352.579
352.469
344.471
344.562
344.678
344.799
344.917
345.027
345.124
345.203
345.258
345.287
345.287
345.258
345.203
345.124
345.027
344.917
344.799
344.678
344.562
344.471
336.438
336.511
336.605
336.704
336.801
336.891
336.971
337.035
337.081
337.104
337.104
337.081
337.035
336.971
336.891
336.801
336.704
336.605
336.511
336.438
328.377
328.433
328.506
328.583
328.658
328.729
328.79
328.84
328.876
328.894
328.894
328.876
328.84
328.79
328.729
328.658
328.583
328.506
328.433
328.377
320.294
320.334
320.386
320.441
320.495
320.545
320.589
320.625
320.65
320.663
320.663
320.65
320.625
320.589
320.545
320.495
320.441
320.386
320.334
320.294
312.196
312.22
312.251
312.284
312.317
312.347
312.373
312.395
312.41
312.418
312.418
312.41
312.395
312.373
312.347
312.317
312.284
312.251
312.22
312.196
304.089
304.097
304.108
304.119
304.13
304.14
304.149
304.156
304.161
304.164
304.164
304.161
304.156
304.149
304.14
304.13
304.119
304.108
304.097
304.089
363.039
363.159
363.305
363.455
363.602
363.738
363.857
363.953
364.02
364.055
364.055
364.02
363.953
363.857
363.738
363.602
363.455
363.305
363.159
363.039
354.736
354.838
354.964
355.095
355.222
355.339
355.442
355.526
355.584
355.615
355.615
355.584
355.526
355.442
355.339
355.222
355.095
354.964
354.838
354.736
346.391
346.475
346.581
346.692
346.799
346.899
346.986
347.057
347.106
347.132
347.132
347.106
347.057
346.986
346.899
346.799
346.692
346.581
346.475
346.391
338.01
338.077
338.164
338.254
338.342
338.424
338.496
338.553
338.594
338.615
338.615
338.594
338.553
338.496
338.424
338.342
338.254
338.164
338.077
338.01
329.6
329.652
329.719
329.789
329.858
329.921
329.977
330.022
330.054
330.07
330.07
330.054
330.022
329.977
329.921
329.858
329.789
329.719
329.652
329.6
321.169
321.205
321.253
321.303
321.352
321.398
321.437
321.47
321.492
321.504
321.504
321.492
321.47
321.437
321.398
321.352
321.303
321.253
321.205
321.169
312.722
312.743
312.772
312.802
312.832
312.859
312.883
312.902
312.916
312.923
312.923
312.916
312.902
312.883
312.859
312.832
312.802
312.772
312.743
312.722
304.265
304.273
304.282
304.293
304.302
304.312
304.32
304.326
304.331
304.333
304.333
304.331
304.326
304.32
304.312
304.302
304.293
304.282
304.273
304.265
365.827
365.937
366.071
366.208
366.341
366.464
366.571
366.656
366.717
366.748
366.748
366.717
366.656
366.571
366.464
366.341
366.208
366.071
365.937
365.827
357.153
357.246
357.362
357.481
357.596
357.702
357.795
357.869
357.922
357.949
357.949
357.922
357.869
357.795
357.702
357.596
357.481
357.362
357.246
357.153
348.436
348.513
348.61
348.711
348.809
348.899
348.977
349.04
349.084
349.107
349.107
349.084
349.04
348.977
348.899
348.809
348.711
348.61
348.513
348.436
339.683
339.745
339.824
339.907
339.987
340.06
340.125
340.176
340.212
340.231
340.231
340.212
340.176
340.125
340.06
339.987
339.907
339.824
339.745
339.683
330.901
330.949
331.011
331.075
331.137
331.194
331.244
331.285
331.313
331.327
331.327
331.313
331.285
331.244
331.194
331.137
331.075
331.011
330.949
330.901
322.098
322.132
322.176
322.222
322.266
322.307
322.343
322.372
322.392
322.402
322.402
322.392
322.372
322.343
322.307
322.266
322.222
322.176
322.132
322.098
313.28
313.3
313.327
313.354
313.381
313.405
313.427
313.444
313.456
313.462
313.462
313.456
313.444
313.427
313.405
313.381
313.354
313.327
313.3
313.28
304.453
304.459
304.468
304.477
304.486
304.495
304.502
304.508
304.512
304.514
304.514
304.512
304.508
304.502
304.495
304.486
304.477
304.468
304.459
304.453
368.757
368.859
368.981
369.106
369.227
369.337
369.433
369.51
369.564
369.592
369.592
369.564
369.51
369.433
369.337
369.227
369.106
368.981
368.859
368.757
359.688
359.774
359.88
359.988
360.093
360.189
360.272
360.339
360.385
360.409
360.409
360.385
360.339
360.272
360.189
360.093
359.988
359.88
359.774
359.688
350.577
350.649
350.738
350.83
350.918
350.999
351.07
351.126
351.166
351.186
351.186
351.166
351.126
351.07
350.999
350.918
350.83
350.738
350.649
350.577
341.433
341.49
341.563
341.638
341.71
341.777
341.835
341.881
341.913
341.93
341.93
341.913
341.881
341.835
341.777
341.71
341.638
341.563
341.49
341.433
332.261
332.305
332.361
332.42
332.476
332.528
332.573
332.609
332.634
332.647
332.647
332.634
332.609
332.573
332.528
332.476
332.42
332.361
332.305
332.261
323.069
323.1
323.14
323.182
323.222
323.259
323.292
323.317
323.335
323.345
323.345
323.335
323.317
323.292
323.259
323.222
323.182
323.14
323.1
323.069
313.863
313.881
313.905
313.93
313.955
313.977
313.996
314.012
314.022
314.028
314.028
314.022
314.012
313.996
313.977
313.955
313.93
313.905
313.881
313.863
304.648
304.654
304.662
304.671
304.679
304.686
304.693
304.698
304.701
304.703
304.703
304.701
304.698
304.693
304.686
304.679
304.671
304.662
304.654
304.648
371.754
371.847
371.96
372.074
372.183
372.283
372.369
372.438
372.487
372.511
372.511
372.487
372.438
372.369
372.283
372.183
372.074
371.96
371.847
371.754
362.269
362.348
362.445
362.544
362.639
362.726
362.801
362.861
362.902
362.924
362.924
362.902
362.861
362.801
362.726
362.639
362.544
362.445
362.348
362.269
352.749
352.814
352.896
352.98
353.06
353.134
353.197
353.248
353.283
353.302
353.302
353.283
353.248
353.197
353.134
353.06
352.98
352.896
352.814
352.749
343.2
343.253
343.32
343.388
343.454
343.514
343.566
343.608
343.637
343.652
343.652
343.637
343.608
343.566
343.514
343.454
343.388
343.32
343.253
343.2
333.63
333.671
333.722
333.776
333.827
333.874
333.915
333.947
333.97
333.981
333.981
333.97
333.947
333.915
333.874
333.827
333.776
333.722
333.671
333.63
324.044
324.073
324.11
324.148
324.185
324.218
324.247
324.27
324.286
324.295
324.295
324.286
324.27
324.247
324.218
324.185
324.148
324.11
324.073
324.044
314.447
314.464
314.486
314.509
314.531
314.551
314.569
314.583
314.593
314.598
314.598
314.593
314.583
314.569
314.551
314.531
314.509
314.486
314.464
314.447
304.844
304.849
304.857
304.864
304.872
304.879
304.884
304.889
304.892
304.894
304.894
304.892
304.889
304.884
304.879
304.872
304.864
304.857
304.849
304.844
374.623
374.71
374.813
374.918
375.018
375.109
375.188
375.25
375.294
375.316
375.316
375.294
375.25
375.188
375.109
375.018
374.918
374.813
374.71
374.623
364.71
364.783
364.873
364.964
365.051
365.13
365.198
365.252
365.29
365.31
365.31
365.29
365.252
365.198
365.13
365.051
364.964
364.873
364.783
364.71
354.78
354.841
354.917
354.994
355.067
355.135
355.193
355.239
355.271
355.287
355.287
355.271
355.239
355.193
355.135
355.067
354.994
354.917
354.841
354.78
344.839
344.888
344.95
345.013
345.074
345.129
345.176
345.214
345.24
345.254
345.254
345.24
345.214
345.176
345.129
345.074
345.013
344.95
344.888
344.839
334.89
334.928
334.976
335.025
335.072
335.115
335.152
335.182
335.202
335.213
335.213
335.202
335.182
335.152
335.115
335.072
335.025
334.976
334.928
334.89
324.937
324.963
324.998
325.033
325.067
325.097
325.124
325.145
325.16
325.167
325.167
325.16
325.145
325.124
325.097
325.067
325.033
324.998
324.963
324.937
314.98
314.996
315.016
315.038
315.058
315.076
315.092
315.105
315.114
315.118
315.118
315.114
315.105
315.092
315.076
315.058
315.038
315.016
314.996
314.98
305.022
305.027
305.034
305.041
305.048
305.054
305.059
305.064
305.067
305.068
305.068
305.067
305.064
305.059
305.054
305.048
305.041
305.034
305.027
305.022
376.861
376.942
377.04
377.138
377.232
377.317
377.39
377.448
377.488
377.509
377.509
377.488
377.448
377.39
377.317
377.232
377.138
377.04
376.942
376.861
366.542
366.611
366.696
366.782
366.863
366.937
367.001
367.052
367.087
367.105
367.105
367.087
367.052
367.001
366.937
366.863
366.782
366.696
366.611
366.542
356.259
356.316
356.388
356.46
356.53
356.593
356.647
356.69
356.72
356.735
356.735
356.72
356.69
356.647
356.593
356.53
356.46
356.388
356.316
356.259
346.003
346.049
346.108
346.168
346.225
346.276
346.321
346.356
346.381
346.394
346.394
346.381
346.356
346.321
346.276
346.225
346.168
346.108
346.049
346.003
335.769
335.804
335.85
335.896
335.941
335.981
336.016
336.044
336.063
336.073
336.073
336.063
336.044
336.016
335.981
335.941
335.896
335.85
335.804
335.769
325.55
325.576
325.608
325.641
325.673
325.702
325.727
325.747
325.761
325.768
325.768
325.761
325.747
325.727
325.702
325.673
325.641
325.608
325.576
325.55
315.343
315.358
315.378
315.398
315.417
315.434
315.449
315.461
315.47
315.474
315.474
315.47
315.461
315.449
315.434
315.417
315.398
315.378
315.358
315.343
305.143
305.148
305.154
305.161
305.167
305.173
305.178
305.182
305.185
305.186
305.186
305.185
305.182
305.178
305.173
305.167
305.161
305.154
305.148
305.143
)
;

boundaryField
{
    hotSide
    {
        type            fixedGradient;
        gradient        nonuniform List<scalar> 
400
(
454.996
456.917
460.761
466.534
474.242
483.895
495.502
509.076
524.628
542.169
561.711
583.264
606.839
632.443
660.085
689.772
721.507
755.297
791.145
829.052
458.189
460.085
463.879
469.58
477.195
486.738
498.222
511.661
527.071
544.466
563.861
585.268
608.699
634.165
661.674
691.234
722.852
756.531
792.276
830.088
461.645
463.511
467.246
472.86
480.366
489.78
501.119
514.402
529.648
546.876
566.103
587.345
610.616
635.929
663.293
692.717
724.207
757.768
793.403
831.116
465.306
467.136
470.803
476.318
483.698
492.963
504.137
517.242
532.304
549.346
568.388
589.45
612.548
637.696
664.905
694.184
725.541
758.979
794.501
832.111
469.07
470.861
474.45
479.854
487.093
496.194
507.185
520.098
534.96
551.802
570.647
591.518
614.434
639.411
666.461
695.593
726.814
760.128
795.539
833.048
472.78
474.529
478.036
483.321
490.411
499.338
510.139
522.85
537.507
554.143
572.788
593.467
616.202
641.01
667.903
696.892
727.982
761.178
796.482
833.895
476.224
477.93
481.355
486.522
493.464
502.221
512.835
525.351
539.809
556.249
574.703
595.202
617.767
642.418
669.167
698.025
728.996
762.086
797.295
834.622
479.147
480.815
484.165
489.227
496.037
504.642
515.091
527.434
541.718
557.987
576.278
596.622
619.043
643.56
670.188
698.936
729.809
762.811
797.941
835.198
481.286
482.925
486.219
491.199
497.908
506.398
516.722
528.936
543.091
559.233
577.402
597.631
619.946
644.367
670.907
699.576
730.378
763.317
798.391
835.598
482.419
484.042
487.305
492.241
498.896
507.324
517.58
529.724
543.809
559.883
577.988
598.156
620.416
644.785
671.279
699.906
730.672
763.577
798.622
835.804
482.419
484.042
487.305
492.241
498.896
507.324
517.58
529.724
543.809
559.883
577.988
598.156
620.416
644.785
671.279
699.906
730.672
763.577
798.622
835.804
481.286
482.925
486.219
491.199
497.908
506.398
516.722
528.936
543.091
559.233
577.402
597.631
619.946
644.367
670.907
699.576
730.378
763.317
798.391
835.598
479.147
480.815
484.165
489.227
496.037
504.642
515.091
527.434
541.718
557.987
576.278
596.622
619.043
643.56
670.188
698.936
729.809
762.811
797.941
835.198
476.224
477.93
481.355
486.522
493.464
502.221
512.835
525.351
539.809
556.249
574.703
595.202
617.767
642.418
669.167
698.025
728.996
762.086
797.295
834.622
472.78
474.529
478.036
483.321
490.411
499.338
510.139
522.85
537.507
554.143
572.788
593.467
616.202
641.01
667.903
696.892
727.982
761.178
796.482
833.895
469.07
470.861
474.45
479.854
487.093
496.194
507.185
520.098
534.96
551.802
570.647
591.518
614.434
639.411
666.461
695.593
726.814
760.128
795.539
833.048
465.306
467.136
470.803
476.318
483.698
492.963
504.137
517.242
532.304
549.346
568.388
589.45
612.548
637.696
664.905
694.184
725.541
758.979
794.501
832.111
461.645
463.511
467.246
472.86
480.366
489.78
501.119
514.402
529.648
546.876
566.103
587.345
610.616
635.929
663.293
692.717
724.207
757.768
793.403
831.116
458.189
460.085
463.879
469.58
477.195
486.738
498.222
511.661
527.071
544.466
563.861
585.268
608.699
634.165
661.674
691.234
722.852
756.531
792.276
830.088
454.996
456.917
460.761
466.534
474.242
483.895
495.502
509.076
524.628
542.169
561.711
583.264
606.839
632.443
660.085
689.772
721.507
755.297
791.145
829.052
)
;
    }
    coldSide
    {
        type            mixed;
        refValue        uniform 300;
        refGradient     uniform 0;
        valueFraction   uniform 0.991591;
        source          uniform 0;
        value           nonuniform List<scalar> 
400
(
300.025
300.025
300.025
300.025
300.026
300.026
300.027
300.028
300.029
300.03
300.031
300.032
300.033
300.034
300.036
300.037
300.039
300.041
300.042
300.043
300.025
300.025
300.025
300.026
300.026
300.026
300.027
300.028
300.029
300.03
300.031
300.032
300.033
300.034