/*--------------------------------*- C++ -*----------------------------------*\
| =========                 |                                                 |
| \\      /  F ield         | OpenFOAM: The Open Source CFD Toolbox           |
|  \\    /   O peration     | Version:  2212                                  |
|   \\  /    A nd           | Website:  www.openfoam.com                      |
|    \\/     M anipulation  |                                                 |
\*---------------------------------------------------------------------------*/
FoamFile
{
    version     2.0;
    format      ascii;
    arch        "LSB;label=32;scalar=64";
    class       volScalarField;
    location    "0";
    object      T;
}
// * * * * * * * * * * * * * * * * * * * * * * * * * * * * * * * * * * * * * //

dimensions      [0 0 0 1 0 0 0];

internalField   nonuniform List<scalar> 
3200
(
342.592
343.314
344.238
345.483
346.032
346.581
347.07
347.64
347.774
347.536
347.542
347.065
346.924
346.233
345.87
344.811
344.02
343.103
341.786
340.86
337.006
337.654
338.407
339.542
339.996
340.472
340.88
341.376
341.504
341.304
341.316
340.922
340.785
340.17
339.833
338.942
338.215
337.434
336.305
335.533
331.366
331.981
332.599
333.543
333.913
334.322
334.698
335.068
335.203
334.989
335.045
334.751
334.615
333.991
333.755
333.091
332.388
331.716
330.764
330.214
325.703
326.248
326.753
327.506
327.792
328.121
328.437
328.76
328.854
328.676
328.705
328.479
328.394
327.808
327.686
327.155
326.532
326
325.205
324.841
320.039
320.478
320.861
321.419
321.653
321.911
322.143
322.451
322.483
322.36
322.379
322.205
322.134
321.652
321.559
321.169
320.604
320.238
319.657
319.419
314.36
314.658
314.94
315.313
315.479
315.699
315.818
316.044
316.116
316.014
316.025
315.901
315.814
315.465
315.406
315.134
314.679
314.473
314.087
313.9
308.655
308.826
308.963
309.191
309.334
309.453
309.502
309.656
309.705
309.628
309.62
309.542
309.482
309.298
309.254
309.072
308.807
308.711
308.472
308.353
302.889
302.954
303.001
303.085
303.149
303.171
303.197
303.254
303.26
303.224
303.227
303.223
303.167
303.123
303.11
303.058
302.938
302.927
302.825
302.805
343.408
344.067
345.176
346.284
346.924
347.433
347.897
348.384
348.427
348.444
348.222
348.103
347.617
346.908
346.477
345.715
344.67
343.617
342.541
341.748
337.64
338.2
339.194
340.207
340.697
341.162
341.571
342.001
342
342.04
341.803
341.733
341.33
340.718
340.345
339.727
338.783
337.864
336.962
336.269
331.842
332.362
333.206
334.103
334.443
334.887
335.213
335.557
335.554
335.611
335.37
335.312
335.04
334.493
334.175
333.717
332.877
332.087
331.37
330.784
326.061
326.548
327.23
327.956
328.221
328.582
328.865
329.11
329.095
329.16
328.932
328.901
328.726
328.23
327.999
327.689
326.913
326.289
325.724
325.238
320.305
320.696
321.215
321.776
322
322.273
322.469
322.655
322.663
322.684
322.482
322.472
322.374
321.975
321.829
321.572
320.936
320.487
320.047
319.665
314.49
314.806
315.141
315.548
315.734
315.941
316.075
316.161
316.189
316.204
316.04
316.02
315.983
315.729
315.643
315.444
315.001
314.679
314.361
314.056
308.704
308.917
309.112
309.319
309.438
309.601
309.658
309.701
309.725
309.765
309.63
309.617
309.596
309.429
309.424
309.298
309.034
308.841
308.646
308.459
302.906
302.993
303.055
303.118
303.158
303.224
303.238
303.244
303.27
303.27
303.23
303.235
303.211
303.169
303.174
303.118
303.018
302.962
302.892
302.839
344.332
345.171
346.258
347.28
348.005
348.534
349.166
349.586
349.611
349.741
349.504
349.366
348.745
348.117
347.673
346.97
345.731
344.545
343.334
342.487
338.47
339.155
340.143
341.01
341.664
342.14
342.669
343
343.045
343.118
342.874
342.767
342.252
341.711
341.383
340.814
339.702
338.597
337.614
336.884
332.551
333.139
333.979
334.773
335.309
335.709
336.14
336.414
336.438
336.477
336.247
336.174
335.735
335.298
335.054
334.603
333.649
332.65
331.846
331.234
326.627
327.151
327.857
328.523
328.948
329.245
329.584
329.803
329.809
329.835
329.6
329.584
329.23
328.897
328.726
328.333
327.594
326.75
326.075
325.582
320.714
321.149
321.691
322.248
322.56
322.788
323.023
323.21
323.174
323.196
322.974
323.03
322.746
322.52
322.401
322.101
321.551
320.806
320.28
319.918
314.778
315.123
315.49
315.9
316.152
316.301
316.449
316.607
316.581
316.582
316.435
316.465
316.267
316.133
316.034
315.833
315.436
314.863
314.466
314.236
308.861
309.097
309.349
309.542
309.725
309.774
309.861
309.987
309.939
309.973
309.875
309.908
309.795
309.683
309.641
309.504
309.284
308.917
308.674
308.549
302.985
303.059
303.143
303.216
303.255
303.266
303.301
303.34
303.329
303.323
303.328
303.328
303.281
303.261
303.235
303.186
303.103
302.976
302.902
302.879
345.575
346.38
347.347
348.312
349.001
349.678
350.582
350.661
350.985
350.866
350.507
350.532
349.828
349.219
348.788
348.232
346.8
345.682
344.541
343.707
339.513
340.226
341.013
341.887
342.517
343.117
343.867
343.959
344.197
344.095
343.767
343.804
343.19
342.679
342.332
341.825
340.6
339.613
338.646
337.889
333.499
334.033
334.682
335.436
336.009
336.507
337.118
337.237
337.412
337.351
337.049
337.113
336.562
336.134
335.867
335.425
334.4
333.549
332.705
332.039
327.477
327.879
328.402
329.006
329.459
329.9
330.373
330.492
330.611
330.606
330.321
330.398
329.942
329.559
329.354
329.019
328.163
327.49
326.745
326.219
321.367
321.694
322.134
322.598
322.963
323.273
323.658
323.701
323.896
323.83
323.573
323.639
323.326
323.004
322.87
322.606
321.921
321.414
320.825
320.439
315.305
315.506
315.857
316.157
316.462
316.627
316.899
316.925
317.088
317.046
316.853
316.867
316.673
316.415
316.353
316.151
315.696
315.32
314.926
314.584
309.185
309.26
309.551
309.663
309.902
309.994
310.129
310.176
310.263
310.251
310.124
310.119
310.02
309.83
309.832
309.699
309.424
309.213
308.969
308.733
303.06
303.095
303.195
303.228
303.323
303.345
303.382
303.389
303.428
303.442
303.404
303.387
303.361
303.283
303.314
303.248
303.159
303.104
303.02
302.927
346.643
347.577
348.408
349.336
350.336
350.811
351.494
351.663
352.049
352.143
351.802
351.596
351.224
350.637
349.903
349.129
348.021
346.898
345.786
344.654
340.482
341.26
341.944
342.772
343.631
344.032
344.676
344.805
345.135
345.197
344.937
344.734
344.455
343.889
343.264
342.599
341.591
340.638
339.737
338.753
334.301
334.963
335.495
336.205
336.933
337.321
337.871
337.927
338.154
338.215
338.042
337.811
337.661
337.124
336.628
336.052
335.183
334.395
333.581
332.82
328.112
328.631
329.033
329.675
330.23
330.559
331.009
331.083
331.183
331.175
331.138
330.911
330.808
330.403
329.992
329.497
328.821
328.136
327.432
326.868
321.915
322.289
322.637
323.118
323.538
323.785
324.117
324.201
324.196
324.224
324.184
324.051
323.985
323.631
323.387
322.903
322.378
321.896
321.316
320.917
315.674
315.93
316.205
316.525
316.863
316.997
317.195
317.289
317.281
317.302
317.258
317.234
317.163
316.919
316.706
316.358
315.959
315.658
315.215
314.954
309.411
309.586
309.743
309.896
310.154
310.216
310.3
310.377
310.383
310.396
310.35
310.353
310.326
310.182
310.018
309.834
309.546
309.415
309.126
308.986
303.141
303.211
303.289
303.321
303.388
303.427
303.449
303.485
303.468
303.482
303.465
303.468
303.475
303.421
303.349
303.304
303.188
303.137
303.065
303.019
347.639
348.531
349.664
350.39
351.194
352.137
352.66
352.908
353.042
353.086
353.142
352.789
352.144
351.816
350.85
350.076
349.204
347.831
346.747
345.734
341.334
342.094
343.064
343.658
344.387
345.187
345.639
345.823
346.023
346.021
346.098
345.765
345.202
344.929
344.104
343.432
342.708
341.457
340.519
339.709
334.998
335.654
336.455
336.935
337.573
338.227
338.606
338.743
338.941
338.99
339.006
338.71
338.306
338.042
337.317
336.789
336.18
335.112
334.307
333.655
328.635
329.185
329.812
330.273
330.786
331.296
331.581
331.683
331.857
331.952
331.918
331.685
331.372
331.101
330.574
330.142
329.697
328.729
328.102
327.553
322.281
322.676
323.172
323.63
323.987
324.341
324.579
324.617
324.769
324.915
324.833
324.641
324.44
324.204
323.776
323.478
323.137
322.361
321.88
321.448
315.921
316.162
316.584
316.947
317.199
317.402
317.576
317.62
317.675
317.856
317.758
317.6
317.47
317.289
316.976
316.783
316.531
316.011
315.665
315.359
309.542
309.716
309.975
310.171
310.344
310.459
310.576
310.634
310.609
310.735
310.695
310.602
310.46
310.376
310.208
310.088
309.939
309.618
309.435
309.201
303.184
303.259
303.331
303.414
303.494
303.496
303.538
303.578
303.562
303.604
303.588
303.575
303.512
303.467
303.413
303.395
303.346
303.232
303.159
303.066
348.473
349.558
350.649
351.451
352.307
353.159
353.584
354.112
354.102
354.211
354.11
353.86
353.389
352.878
351.872
351.11
350.193
348.882
347.647
346.589
342.067
342.964
343.883
344.594
345.301
346.087
346.468
346.904
346.878
346.982
346.91
346.685
346.282
345.814
344.96
344.32
343.563
342.338
341.353
340.414
335.615
336.374
337.165
337.774
338.363
339.013
339.372
339.688
339.682
339.783
339.699
339.502
339.174
338.782
338.074
337.492
336.914
335.848
334.999
334.276
329.163
329.759
330.429
330.956
331.422
331.966
332.26
332.497
332.514
332.552
332.485
332.28
332.058
331.756
331.171
330.713
330.241
329.366
328.659
328.099
322.684
323.177
323.652
324.137
324.469
324.875
325.081
325.283
325.329
325.306
325.25
325.087
324.904
324.681
324.245
323.962
323.603
322.848
322.286
321.901
316.212
316.612
316.883
317.267
317.527
317.784
317.895
318.064
318.102
318.088
318.035
317.965
317.799
317.624
317.336
317.148
316.914
316.319
315.904
315.701
309.726
309.983
310.119
310.37
310.522
310.651
310.721
310.885
310.89
310.865
310.826
310.801
310.712
310.573
310.411
310.287
310.207
309.8
309.529
309.475
303.251
303.335
303.4
303.468
303.528
303.564
303.597
303.678
303.662
303.632
303.635
303.619
303.597
303.54
303.474
303.469
303.414
303.293
303.199
303.187
349.449
350.555
351.549
352.62
353.521
354.387
354.742
355.195
355.322
355.24
354.968
354.885
354.369
353.814
353.138
352.161
351.116
349.882
348.709
347.4
342.862
343.815
344.675
345.567
346.41
347.14
347.482
347.859
347.958
347.896
347.648
347.581
347.172
346.672
346.042
345.248
344.374
343.245
342.229
341.113
336.288
337.123
337.815
338.528
339.275
339.873
340.176
340.498
340.628
340.574
340.331
340.285
339.907
339.532
338.971
338.347
337.614
336.584
335.711
334.819
329.718
330.434
330.895
331.55
332.158
332.623
332.854
333.168
333.252
333.208
333.059
332.998
332.66
332.393
331.938
331.406
330.823
329.967
329.181
328.503
323.157
323.726
323.979
324.549
325.011
325.355
325.571
325.818
325.899
325.846
325.75
325.719
325.411
325.215
324.883
324.478
324.004
323.279
322.703
322.227
316.56
317.012
317.077
317.535
317.865
318.096
318.296
318.468
318.491
318.453
318.422
318.365
318.168
318.037
317.805
317.502
317.185
316.643
316.246
315.925
309.937
310.23
310.243
310.478
310.75
310.849
310.973
311.106
311.087
311.099
311.04
311.036
310.935
310.819
310.713
310.507
310.317
309.972
309.732
309.611
303.329
303.435
303.441
303.492
303.596
303.626
303.692
303.72
303.688
303.74
303.698
303.702
303.673
303.622
303.595
303.515
303.473
303.332
303.24
303.216
350.285
351.478
352.441
353.465
354.436
355.348
355.751
356.102
356.233
356.239
356.15
355.73
355.358
354.571
354.115
353.184
351.853
351.007
349.572
348.514
343.564
344.639
345.455
346.351
347.148
347.977
348.319
348.637
348.795
348.806
348.675
348.335
347.96
347.319
346.927
346.149
344.94
344.187
342.981
342.094
336.887
337.743
338.497
339.262
339.882
340.61
340.907
341.162
341.306
341.336
341.235
340.951
340.599
340.061
339.706
339.045
338.074
337.405
336.374
335.654
330.185
330.837
331.452
332.191
332.666
333.275
333.47
333.654
333.78
333.86
333.766
333.55
333.229
332.808
332.516
331.918
331.161
330.611
329.741
329.21
323.484
323.965
324.458
325.107
325.412
325.927
325.998
326.177
326.31
326.33
326.274
326.094
325.905
325.547
325.334
324.8
324.268
323.815
323.137
322.716
316.802
317.089
317.485
317.971
318.141
318.525
318.588
318.718
318.829
318.769
318.808
318.658
318.515
318.274
318.098
317.712
317.337
317.016
316.541
316.228
310.107
310.255
310.479
310.806
310.889
311.128
311.176
311.22
311.295
311.277
311.31
311.243
311.14
310.964
310.859
310.646
310.428
310.218
309.957
309.724
303.389
303.435
303.516
303.612
303.653
303.749
303.758
303.758
303.782
303.789
303.78
303.782
303.755
303.683
303.638
303.572
303.499
303.411
303.342
303.266
351.157
351.83
353.235
354.356
355.317
355.978
356.656
356.92
357.141
357.037
356.925
356.702
356.143
355.629
355.058
353.974
352.809
351.724
350.348
349.269
344.386
344.91
346.144
347.133
347.956
348.542
349.078
349.343
349.503
349.447
349.365
349.151
348.669
348.233
347.775
346.813
345.776
344.862
343.647
342.752
337.596
337.996
339.034
339.904
340.592
341.1
341.514
341.756
341.906
341.852
341.773
341.566
341.208
340.837
340.4
339.619
338.743
337.966
336.953
336.198
330.798
331.093
331.974
332.685
333.231
333.669
333.946
334.179
334.305
334.262
334.141
333.999
333.748
333.42
333.076
332.431
331.69
331.059
330.242
329.647
324.006
324.193
324.873
325.45
325.883
326.213
326.427
326.583
326.707
326.667
326.517
326.446
326.243
325.993
325.733
325.234
324.699
324.133
323.527
323.134
317.173
317.296
317.753
318.21
318.486
318.772
318.942
319
319.085
319.074
318.938
318.884
318.775
318.579
318.4
318.04
317.663
317.232
316.778
316.573
310.356
310.39
310.657
310.925
311.09
311.3
311.396
311.405
311.479
311.482
311.345
311.341
311.272
311.178
311.05
310.84
310.608
310.329
310.068
309.969
303.463
303.493
303.574
303.646
303.708
303.791
303.83
303.811
303.853
303.839
303.797
303.787
303.778
303.751
303.704
303.621
303.548
303.465
303.375
303.359
351.763
352.746
354.011
355.074
356
356.837
357.312
357.68
357.789
357.979
357.581
357.518
356.944
356.371
355.718
354.666
353.374
352.305
351.065
350.031
344.909
345.736
346.829
347.726
348.54
349.233
349.638
349.989
350.095
350.274
349.943
349.878
349.341
348.881
348.33
347.381
346.275
345.345
344.291
343.426
338.069
338.743
339.607
340.389
341.099
341.653
341.993
342.27
342.447
342.579
342.308
342.236
341.781
341.38
340.929
340.146
339.165
338.365
337.468
336.782
331.197
331.727
332.424
333.022
333.648
334.135
334.345
334.584
334.756
334.835
334.64
334.558
334.25
333.826
333.546
332.845
332.087
331.378
330.657
330.105
324.303
324.702
325.235
325.695
326.167
326.599
326.748
326.888
327.071
327.061
326.947
326.893
326.674
326.285
326.142
325.59
324.96
324.392
323.83
323.41
317.397
317.696
318.08
318.351
318.683
319.036
319.095
319.215
319.375
319.32
319.281
319.212
319.044
318.789
318.72
318.308
317.859
317.416
317.023
316.72
310.474
310.622
310.9
311.033
311.232
311.435
311.442
311.527
311.629
311.605
311.579
311.554
311.447
311.301
311.25
310.99
310.718
310.485
310.205
310.052
303.51
303.565
303.674
303.703
303.771
303.812
303.859
303.859
303.89
303.894
303.89
303.87
303.85
303.79
303.787
303.689
303.585
303.507
303.421
303.376
352.453
353.48
354.751
355.889
356.592
357.402
358.088
358.419
358.637
358.677
358.391
358.297
357.852
357.136
356.385
355.268
354.231
352.869
351.707
350.448
345.49
346.368
347.464
348.465
349.028
349.75
350.35
350.646
350.846
350.829
350.604
350.511
350.12
349.539
348.926
347.917
347.005
345.834
344.871
343.735
338.544
339.225
340.188
341.022
341.516
342.093
342.632
342.857
343.027
343.004
342.819
342.729
342.43
341.892
341.402
340.561
339.785
338.798
337.993
337.035
331.585
332.062
332.91
333.603
333.955
334.482
334.899
335.065
335.208
335.176
335.04
334.937
334.72
334.274
333.939
333.213
332.534
331.724
331.138
330.364
324.552
324.926
325.595
326.152
326.383
326.785
327.126
327.287
327.427
327.408
327.277
327.175
327.009
326.616
326.422
325.863
325.302
324.662
324.223
323.645
317.536
317.821
318.278
318.732
318.828
319.123
319.37
319.517
319.633
319.601
319.483
319.431
319.328
318.986
318.883
318.486
318.086
317.65
317.296
316.901
310.541
310.739
310.992
311.256
311.333
311.474
311.632
311.736
311.835
311.798
311.723
311.66
311.651
311.386
311.347
311.126
310.839
310.606
310.398
310.147
303.552
303.612
303.681
303.785
303.802
303.838
303.899
303.933
303.979
303.982
303.92
303.925
303.899
303.815
303.807
303.73
303.626
303.549
303.501
303.396
352.829
354.113
355.219
356.333
357.272
358.1
358.8
359.163
359.258
359.437
359.009
358.803
358.426
357.718
356.725
355.878
354.679
353.48
352.203
351.004
345.844
346.866
347.899
348.846
349.659
350.344
350.961
351.295
351.401
351.566
351.175
350.96
350.63
350.017
349.191
348.468
347.387
346.362
345.265
344.284
338.811
339.635
340.594
341.37
342.045
342.617
343.15
343.408
343.506
343.668
343.329
343.129
342.829
342.313
341.65
341.049
340.14
339.281
338.325
337.504
331.803
332.396
333.221
333.867
334.432
334.887
335.31
335.487
335.597
335.731
335.476
335.294
335.055
334.619
334.111
333.642
332.853
332.157
331.396
330.725
324.783
325.184
325.824
326.368
326.779
327.111
327.492
327.6
327.667
327.784
327.617
327.446
327.281
326.937
326.563
326.203
325.569
325.031
324.483
323.947
317.766
317.992
318.443
318.853
319.122
319.351
319.623
319.729
319.769
319.86
319.747
319.607
319.514
319.208
318.993
318.765
318.275
317.919
317.523
317.129
310.708
310.823
311.115
311.307
311.521
311.632
311.823
311.864
311.853
311.951
311.857
311.772
311.722
311.551
311.394
311.237
310.972
310.785
310.533
310.302
303.599
303.644
303.718
303.777
303.882
303.907
303.965
303.991
303.959
304.025
303.958
303.933
303.923
303.879
303.826
303.767
303.686
303.6
303.541
303.442
353.349
354.349
355.69
356.715
357.915
358.417
359.129
359.744
359.733
359.835
359.662
359.279
358.975
358.233
357.363
356.257
355.045
354.073
352.584
351.317
346.197
347.083
348.254
349.151
350.213
350.626
351.251
351.793
351.767
351.884
351.736
351.398
351.117
350.47
349.735
348.735
347.713
346.861
345.629
344.55
339.083
339.779
340.847
341.658
342.504
342.852
343.396
343.816
343.786
343.912
343.826
343.545
343.286
342.675
342.087
341.233
340.35
339.641
338.676
337.795
332.002
332.488
333.408
334.164
334.732
335.064
335.527
335.848
335.79
335.923
335.843
335.603
335.424
334.922
334.5
333.678
333.002
332.428
331.654
331.008
324.919
325.24
325.978
326.61
327.017
327.297
327.622
327.892
327.812
327.95
327.861
327.675
327.564
327.185
326.861
326.204
325.693
325.245
324.676
324.163
317.828
318.066
318.581
319.015
319.336
319.51
319.754
319.945
319.876
319.971
319.914
319.77
319.698
319.435
319.202
318.734
318.368
318.029
317.648
317.277
310.701
310.862
311.167
311.391
311.608
311.709
311.876
311.977
311.928
311.992
311.959
311.871
311.852
311.692
311.534
311.262
311.075
310.82
310.615
310.381
303.606
303.639
303.767
303.808
303.907
303.919
303.98
304.001
303.989
304.014
304.018
303.97
303.974
303.924
303.887
303.774
303.729
303.624
303.559
303.49
353.653
354.865
356.151
357.158
358.289
358.928
359.838
360.148
360.324
360.352
360.296
359.841
359.292
358.597
357.916
356.762
355.549
354.42
352.958
351.697
346.528
347.484
348.658
349.559
350.548
351.099
351.868
352.175
352.262
352.338
352.258
351.851
351.402
350.791
350.251
349.188
348.163
347.202
345.891
344.864
339.385
340.156
341.161
341.958
342.81
343.274
343.91
344.208
344.202
344.305
344.249
343.907
343.514
342.986
342.533
341.622
340.739
339.948
338.848
338.054
332.257
332.853
333.68
334.307
334.989
335.445
335.874
336.218
336.144
336.213
336.226
335.928
335.652
335.159
334.844
334.108
333.325
332.706
331.782
331.222
325.139
325.565
326.186
326.652
327.218
327.592
327.908
328.247
328.125
328.162
328.206
327.966
327.772
327.364
327.132
326.568
325.906
325.451
324.722
324.329
318.012
318.296
318.71
319.033
319.476
319.704
319.976
320.219
320.102
320.108
320.18
319.987
319.885
319.567
319.381
318.97
318.478
318.175
317.688
317.399
310.827
311.01
311.257
311.429
311.714
311.823
312.014
312.138
312.093
312.052
312.094
311.984
311.941
311.752
311.641
311.367
311.051
310.927
310.65
310.505
303.64
303.689
303.776
303.847
303.919
303.957
304.014
304.051
304.06
304.042
304.051
304.013
304.005
303.921
303.892
303.809
303.681
303.662
303.561
303.522
354.036
355.111
356.568
357.668
358.494
359.206
359.971
360.393
360.407
360.623
360.535
360.014
359.552
359.038
358.084
356.909
355.787
354.621
353.083
352.009
346.86
347.757
349.083
349.961
350.712
351.335
352.011
352.339
352.383
352.585
352.517
352.03
351.619
351.139
350.339
349.358
348.359
347.393
346.039
345.12
339.679
340.414
341.599
342.286
342.9
343.432
344.005
344.322
344.373
344.514
344.466
344.042
343.657
343.247
342.552
341.812
340.956
340.085
338.958
338.216
332.532
333.072
334.067
334.629
335.125
335.56
335.98
336.316
336.336
336.418
336.398
336.032
335.748
335.389
334.794
334.215
333.465
332.775
331.898
331.306
325.324
325.729
326.524
326.963
327.336
327.712
327.98
328.29
328.276
328.335
328.315
328.052
327.832
327.541
327.045
326.602
326.073
325.52
324.823
324.36
318.126
318.42
318.986
319.268
319.515
319.799
319.969
320.241
320.235
320.239
320.227
320.047
319.927
319.66
319.325
318.989
318.641
318.24
317.734
317.426
310.909
311.077
311.395
311.557
311.692
311.889
311.979
312.188
312.154
312.135
312.141
312.027
311.948
311.834
311.583
311.389
311.188
310.969
310.69
310.459
303.665
303.727
303.823
303.88
303.897
303.979
304.03
304.089
304.065
304.057
304.072
304.058
303.99
303.973
303.867
303.817
303.745
303.678
303.582
303.506
354.261
355.235
356.616
357.86
358.647
359.482
360.151
360.34
360.831
360.828
360.746
360.334
359.798
359.08
358.373
357.139
356.181
354.7
353.359
352.183
347.04
347.865
349.055
350.121
350.849
351.564
352.15
352.358
352.775
352.737
352.639
352.296
351.837
351.173
350.588
349.531
348.714
347.417
346.295
345.319
339.821
340.529
341.488
342.421
343.051
343.653
344.143
344.331
344.705
344.658
344.489
344.251
343.867
343.313
342.774
341.916
341.21
340.161
339.211
338.383
332.606
333.155
333.907
334.729
335.244
335.747
336.152
336.274
336.606
336.57
336.439
336.219
335.866
335.418
334.984
334.352
333.688
332.899
332.113
331.43
325.382
325.769
326.37
327.032
327.448
327.795
328.164
328.205
328.452
328.492
328.419
328.223
327.895
327.541
327.22
326.781
326.18
325.613
324.966
324.476
318.113
318.369
318.799
319.31
319.581
319.853
320.133
320.16
320.331
320.348
320.313
320.176
319.974
319.677
319.432
319.12
318.701
318.317
317.845
317.456
310.861
311.031
311.283
311.582
311.75
311.879
312.08
312.125
312.217
312.193
312.23
312.109
311.993
311.811
311.655
311.451
311.228
310.991
310.706
310.456
303.655
303.719
303.801
303.891
303.941
303.959
304.025
304.054
304.106
304.1
304.101
304.061
304.023
303.974
303.911
303.822
303.761
303.688
303.588
303.512
354.378
355.525
356.62
357.718
358.718
359.521
360.099
360.582
360.681
360.758
360.701
360.524
359.739
358.929
358.512
357.318
356.326
354.908
353.384
352.295
347.148
348.127
349.071
350.01
350.908
351.588
352.071
352.529
352.611
352.688
352.587
352.472
351.784
351.086
350.731
349.677
348.884
347.598
346.294
345.403
339.888
340.688
341.52
342.353
343.085
343.647
344.103
344.473
344.535
344.606
344.475
344.446
343.863
343.247
342.938
342.02
341.414
340.287
339.195
338.47
332.653
333.269
334.011
334.705
335.246
335.747
336.131
336.415
336.463
336.505
336.4
336.406
335.901
335.373
335.145
334.384
333.925
332.937
332.058
331.564
325.423
325.894
326.479
327.036
327.488
327.842
328.13
328.355
328.372
328.388
328.353
328.333
327.968
327.507
327.337
326.754
326.426
325.627
324.92
324.607
318.19
318.521
318.941
319.341
319.71
319.94
320.146
320.239
320.269
320.298
320.239
320.259
319.982
319.678
319.539
319.129
318.907
318.267
317.793
317.633
310.936
311.138
311.364
311.62
311.862
311.962
312.107
312.154
312.177
312.179
312.145
312.192
311.999
311.827
311.753
311.502
311.374
310.977
310.701
310.591
303.657
303.743
303.816
303.913
303.996
304.012
304.065
304.084
304.096
304.083
304.07
304.104
304.014
303.963
303.931
303.859
303.809
303.698
303.596
303.538
354.208
355.642
356.63
357.727
358.751
359.426
360.291
360.539
360.62
360.828
360.772
360.482
359.911
359.18
358.559
357.38
356.507
354.848
353.471
352.259
347.015
348.25
349.06
350.052
350.874
351.529
352.263
352.477
352.541
352.757
352.646
352.436
351.935
351.293
350.772
349.759
349.008
347.586
346.346
345.375
339.837
340.87
341.475
342.343
342.984
343.676
344.218
344.422
344.536
344.656
344.526
344.34
343.992
343.433
342.991
342.13
341.516
340.307
339.208
338.458
332.631
333.486
333.918
334.677
335.096
335.824
336.217
336.364
336.518
336.549
336.429
336.257
336.043
335.578
335.164
334.496
333.959
333.026
332.085
331.521
325.405
326.059
326.396
326.947
327.272
327.894
328.2
328.323
328.438
328.426
328.329
328.195
328.054
327.71
327.368
326.851
326.393
325.694
324.961
324.565
318.155
318.628
318.89
319.241
319.466
319.944
320.192
320.237
320.359
320.338
320.246
320.166
320.07
319.787
319.547
319.201
318.869
318.358
317.853
317.608
310.902
311.17
311.35
311.528
311.695
311.998
312.109
312.12
312.244
312.248
312.138
312.109
312.071
311.869
311.753
311.547
311.32
311.021
310.707
310.587
303.653
303.728
303.792
303.859
303.922
304.03
304.04
304.044
304.093
304.108
304.081
304.047
304.042
303.972
303.931
303.874
303.772
303.692
303.587
303.551
354.299
355.534
356.427
357.772
358.815
359.451
360.318
360.587
360.647
361.183
360.539
360.376
360.003
359.27
358.527
357.376
356.358
354.926
353.557
352.319
347.149
348.11
348.861
350.031
351.001
351.594
352.259
352.556
352.557
353.01
352.483
352.342
352.016
351.382
350.78
349.723
348.845
347.596
346.415
345.421
339.931
340.79
341.345
342.308
343.186
343.725
344.207
344.549
344.552
344.833
344.428
344.251
344.032
343.497
342.967
342.115
341.344
340.27
339.291
338.467
332.694
333.39
333.838
334.585
335.363
335.833
336.147
336.465
336.488
336.67
336.363
336.167
336.018
335.627
335.138
334.461
333.824
332.963
332.204
331.503
325.442
325.993
326.291
326.894
327.537
327.945
328.15
328.392
328.403
328.517
328.261
328.104
328.005
327.721
327.316
326.789
326.254
325.658
325.088
324.515
318.181
318.602
318.786
319.22
319.669
320.031
320.159
320.256
320.298
320.367
320.199
320.069
319.999
319.822
319.525
319.133
318.721
318.317
317.92
317.52
310.908
311.203
311.278
311.553
311.796
312.039
312.123
312.157
312.193
312.232
312.128
312.069
312.005
311.924
311.745
311.49
311.236
310.982
310.765
310.515
303.639
303.776
303.764
303.881
303.963
304.039
304.058
304.077
304.089
304.109
304.049
304.043
304.024
304.01
303.947
303.844
303.757
303.66
303.599
303.545
)
;

boundaryField
{
    hotSide
    {
        type            fixedGradient;
        gradient        nonuniform List<scalar> 
400
(
442.707
455.848
468.576
480.837
492.573
503.73
514.255
524.095
533.204
541.534
549.044
555.694
561.45
566.281
570.161
573.069
574.989
575.909
575.823
574.73
454.272
467.773
480.854
493.454
505.518
516.987
527.809
537.929
547.298
555.869
563.599
570.446
576.376
581.357
585.361
588.368
590.359
591.325
591.257
590.156
464.575
478.399
491.794
504.699
517.055
528.805
539.893
550.264
559.867
568.654
576.581
583.607
589.693
594.809
598.926
602.022
604.08
605.087
605.038
603.931
473.549
487.655
501.325
514.497
527.109
539.105
550.426
561.017
570.826
579.803
587.904
595.085
601.31
606.545
610.763
613.939
616.056
617.101
617.069
615.958
481.137
495.484
509.387
522.785
535.616
547.821
559.34
570.119
580.103
589.243
597.492
604.808
611.151
616.489
620.792
624.037
626.206
627.286
627.27
626.157
487.297
501.839
515.933
529.516
542.526
554.901
566.583
577.515
587.643
596.917
605.288
612.714
619.155
624.577
628.952
632.255
634.467
635.577
635.575
634.462
491.995
506.687
520.928
534.653
547.8
560.307
572.114
583.165
593.404
602.781
611.246
618.758
625.275
630.764
635.195
638.544
640.791
641.924
641.935
640.824
495.21
510.006
524.348
538.172
551.414
564.012
575.907
587.04
597.357
606.805
615.338
622.91
629.481
635.017
639.489
642.87
645.143
646.294
646.316
645.208
496.93
511.784
526.182
540.059
553.354
566.003
577.946
589.126
599.486
608.976
617.546
625.152
631.755
637.319
641.814
645.216
647.505
648.669
648.699
647.595
497.157
512.02
526.427
540.315
553.619
566.278
578.231
589.42
599.79
609.289
617.868
625.483
632.094
637.666
642.169
645.578
647.873
649.043
649.078
647.979
495.896
510.722
525.093
538.946
552.218
564.846
576.769
587.932
598.277
607.753
616.313
623.911
630.507
636.067
640.561
643.964
646.256
647.426
647.464
646.37
493.167
507.909
522.199
535.974
549.17
561.727
573.583
584.682
594.969
604.392
612.902
620.457
627.017
632.545
637.014
640.397
642.677
643.839
643.877
642.789
488.996
503.609
517.773
531.426
544.506
556.951
568.702
579.702
589.897
599.236
607.67
615.157
621.657
627.135
631.561
634.913
637.17
638.319
638.354
637.273
483.417
497.855
511.851
525.341
538.263
550.559
562.168
573.035
583.106
592.33
600.66
608.054
614.472
619.881
624.25
627.557
629.782
630.913
630.942
629.868
476.473
490.694
504.479
517.764
530.491
542.599
554.031
564.731
574.647
583.728
591.928
599.205
605.521
610.842
615.139
618.389
620.573
621.68
621.7
620.635
468.214
482.177
495.71
508.753
521.247
533.132
544.352
554.854
564.584
573.494
581.539
588.677
594.87
600.086
604.296
607.478
609.613
610.69
610.7
609.643
458.698
472.364
485.608
498.371
510.596
522.224
533.201
543.473
552.989
561.703
569.568
576.545
582.598
587.693
591.803
594.906
596.984
598.025
598.023
596.975
447.992
461.323
474.242
486.691
498.613
509.953
520.656
530.67
539.946
548.438
556.102
562.899
568.792
573.751
577.748
580.762
582.776
583.778
583.762
582.726
436.168
449.13
461.691
473.793
485.382
496.403
506.804
516.535
525.546
533.794
541.236
547.834
553.552
558.361
562.234
565.15
567.094
568.052
568.02
566.997
423.307
435.869
448.041
459.767
470.994
481.669
491.743
501.165
509.89
517.873
525.074
531.456
536.985
541.631
545.37
548.181
550.048
550.96
550.912
549.902
)
;
    }
    coldSide
    {
        type            mixed;
        refValue        uniform 300;
        refGradient     uniform 0;
        valueFraction   uniform 0.991591;
        source          uniform 0;
        value           nonuniform List<scalar> 
400
(
300.024
300.024
300.025
300.026
300.026
300.027
300.027
300.028
300.028
300.029
300.03
300.03
300.03
300.03
300.031
300.031
300.031
300.031
300.031
300.031
300.025
300.025
300.026
300.026
300.027
300.027
300.028
300.029
300.029
300.029
300.03
300.03
300.031
300.031
300.031
300.031
300.031
300.031
300.031