/*--------------------------------*- C++ -*----------------------------------*\
| =========                 |                                                 |
| \\      /  F ield         | OpenFOAM: The Open Source CFD Toolbox           |
|  \\    /   O peration     | Version:  2212                                  |
|   \\  /    A nd           | Website:  www.openfoam.com                      |
|    \\/     M anipulation  |                                                 |
\*---------------------------------------------------------------------------*/
FoamFile
{
    version     2.0;
    format      ascii;
    arch        "LSB;label=32;scalar=64";
    class       volScalarField;
    location    "0";
    object      T;
}
// * * * * * * * * * * * * * * * * * * * * * * * * * * * * * * * * * * * * * //

dimensions      [0 0 0 1 0 0 0];

internalField   nonuniform List<scalar> 
3200
(
326.981
326.512
325.903
325.803
326.153
326.665
327.253
327.741
328.139
328.483
328.617
328.304
327.973
327.483
326.858
326.278
325.843
325.869
326.278
326.648
323.532
323.132
322.642
322.524
322.854
323.275
323.808
324.263
324.593
324.865
324.998
324.715
324.418
324.014
323.497
322.945
322.578
322.598
322.997
323.269
320.024
319.682
319.291
319.172
319.48
319.824
320.278
320.69
320.949
321.161
321.304
321.042
320.795
320.465
320.043
319.538
319.234
319.246
319.591
319.844
316.46
316.176
315.885
315.747
316.033
316.309
316.684
317.022
317.246
317.409
317.522
317.298
317.091
316.853
316.518
316.09
315.827
315.837
316.129
316.333
312.848
312.619
312.443
312.276
312.507
312.739
313.031
313.286
313.456
313.6
313.678
313.502
313.347
313.162
312.908
312.572
312.362
312.389
312.611
312.772
309.176
309.056
308.937
308.764
308.943
309.144
309.339
309.519
309.63
309.755
309.798
309.666
309.557
309.438
309.231
309.019
308.873
308.872
309.064
309.163
305.517
305.46
305.385
305.246
305.385
305.513
305.623
305.722
305.787
305.879
305.893
305.813
305.731
305.674
305.542
305.441
305.35
305.335
305.473
305.527
301.855
301.836
301.808
301.757
301.813
301.847
301.889
301.909
301.942
301.975
301.984
301.952
301.921
301.899
301.851
301.828
301.801
301.796
301.845
301.871
327.144
326.542
326.067
326.073
326.391
326.969
327.592
328.046
328.545
328.857
328.999
328.734
328.473
327.899
327.189
326.572
326.164
326.083
326.381
326.729
323.685
323.18
322.761
322.78
323.026
323.54
324.114
324.467
324.934
325.214
325.291
325.104
324.883
324.367
323.766
323.213
322.861
322.817
323.049
323.366
320.156
319.738
319.379
319.384
319.6
320.03
320.556
320.825
321.233
321.485
321.539
321.376
321.201
320.744
320.243
319.787
319.487
319.455
319.636
319.89
316.567
316.229
315.957
315.936
316.115
316.473
316.903
317.121
317.472
317.673
317.719
317.582
317.448
317.074
316.641
316.293
316.014
316.037
316.16
316.335
312.914
312.665
312.477
312.452
312.591
312.857
313.187
313.367
313.632
313.801
313.839
313.74
313.647
313.352
312.989
312.738
312.503
312.553
312.631
312.76
309.24
309.06
308.933
308.941
309.034
309.213
309.445
309.572
309.774
309.903
309.926
309.856
309.787
309.581
309.31
309.136
308.95
308.999
309.07
309.137
305.546
305.457
305.383
305.395
305.442
305.54
305.695
305.761
305.877
305.959
305.975
305.935
305.882
305.761
305.597
305.521
305.377
305.41
305.467
305.516
301.858
301.841
301.804
301.808
301.83
301.857
301.911
301.945
301.978
301.994
302.016
301.989
301.97
301.93
301.876
301.855
301.8
301.82
301.838
301.853
327.477
326.854
326.578
326.525
326.866
327.306
328.081
328.604
329.148
329.6
329.584
329.454
329.115
328.493
327.693
327.148
326.555
326.407
326.705
327.039
323.966
323.459
323.193
323.17
323.484
323.826
324.51
324.974
325.455
325.838
325.842
325.721
325.414
324.896
324.189
323.724
323.222
323.094
323.347
323.624
320.389
319.987
319.762
319.737
320.013
320.285
320.891
321.266
321.68
321.997
322.025
321.908
321.609
321.212
320.617
320.248
319.791
319.71
319.913
320.123
316.782
316.456
316.257
316.261
316.467
316.669
317.194
317.491
317.845
318.087
318.113
317.999
317.749
317.455
316.989
316.677
316.274
316.231
316.404
316.554
313.099
312.863
312.697
312.704
312.868
313.007
313.428
313.66
313.941
314.124
314.149
314.054
313.876
313.618
313.298
313.046
312.715
312.685
312.826
312.916
309.372
309.242
309.104
309.108
309.183
309.329
309.618
309.771
309.975
310.112
310.132
310.075
309.947
309.744
309.551
309.355
309.104
309.09
309.189
309.233
305.652
305.582
305.491
305.481
305.506
305.616
305.794
305.868
306.013
306.08
306.094
306.066
305.99
305.861
305.773
305.624
305.48
305.466
305.547
305.555
301.899
301.888
301.844
301.84
301.847
301.883
301.944
301.974
302.013
302.043
302.045
302.042
302.013
301.971
301.939
301.889
301.84
301.828
301.868
301.865
328.24
327.48
327.168
327.166
327.499
327.953
328.61
329.381
329.916
330.344
330.48
330.176
329.816
329.246
328.42
327.798
327.183
326.903
327.211
327.569
324.64
323.997
323.746
323.728
324.025
324.4
324.988
325.661
326.108
326.483
326.602
326.336
326.029
325.541
324.832
324.322
323.758
323.547
323.814
324.103
320.965
320.432
320.234
320.226
320.478
320.753
321.272
321.857
322.212
322.545
322.644
322.401
322.143
321.751
321.165
320.747
320.256
320.079
320.319
320.534
317.219
316.808
316.655
316.667
316.858
317.042
317.506
317.975
318.268
318.56
318.62
318.429
318.215
317.898
317.431
317.068
316.682
316.55
316.734
316.895
313.437
313.111
313.013
313.043
313.168
313.277
313.678
314.027
314.26
314.515
314.54
314.389
314.218
314.003
313.63
313.34
313.049
312.958
313.088
313.196
309.623
309.403
309.319
309.355
309.437
309.503
309.79
310.053
310.215
310.418
310.404
310.3
310.205
310.033
309.772
309.548
309.358
309.303
309.402
309.473
305.788
305.655
305.591
305.623
305.704
305.711
305.876
306.063
306.158
306.279
306.255
306.204
306.141
306.031
305.896
305.747
305.614
305.597
305.667
305.706
301.941
301.896
301.871
301.883
301.929
301.906
301.976
302.025
302.069
302.107
302.103
302.077
302.063
302.023
301.987
301.942
301.882
301.868
301.903
301.902
328.881
328.29
327.921
327.919
328.214
328.832
329.531
330.103
330.785
331.183
331.344
331.131
330.727
330.128
329.082
328.417
327.905
327.558
327.889
328.08
325.214
324.734
324.41
324.396
324.665
325.172
325.789
326.281
326.883
327.213
327.366
327.167
326.805
326.313
325.382
324.823
324.403
324.106
324.393
324.561
321.467
321.116
320.808
320.807
321.009
321.444
321.951
322.374
322.885
323.157
323.297
323.12
322.827
322.401
321.605
321.157
320.833
320.572
320.783
320.94
317.644
317.388
317.127
317.133
317.297
317.628
318.056
318.394
318.834
319.026
319.141
318.996
318.741
318.414
317.781
317.404
317.173
316.95
317.119
317.241
313.779
313.572
313.392
313.397
313.514
313.754
314.092
314.364
314.712
314.859
314.941
314.834
314.628
314.368
313.886
313.607
313.412
313.241
313.391
313.475
309.88
309.715
309.611
309.62
309.683
309.845
310.094
310.284
310.537
310.64
310.705
310.648
310.485
310.306
309.954
309.776
309.64
309.498
309.599
309.657
305.936
305.838
305.804
305.801
305.817
305.926
306.074
306.187
306.331
306.414
306.433
306.418
306.334
306.198
306.002
305.898
305.824
305.722
305.783
305.816
301.983
301.963
301.947
301.942
301.953
301.995
302.037
302.071
302.125
302.15
302.157
302.157
302.124
302.072
302.019
301.981
301.952
301.92
301.941
301.956
329.733
329.194
328.834
328.814
329.037
329.628
330.391
330.96
331.611
332.088
332.276
332.008
331.57
330.852
329.965
329.324
328.633
328.363
328.513
328.897
325.976
325.51
325.19
325.175
325.366
325.877
326.563
327.015
327.593
327.996
328.16
327.933
327.559
326.936
326.163
325.638
325.042
324.811
324.957
325.244
322.132
321.749
321.451
321.452
321.613
322.049
322.639
323.007
323.466
323.805
323.964
323.763
323.471
322.928
322.295
321.864
321.369
321.173
321.296
321.521
318.207
317.913
317.663
317.647
317.794
318.137
318.617
318.919
319.297
319.574
319.696
319.53
319.295
318.873
318.352
317.994
317.618
317.45
317.544
317.72
314.228
314.021
313.821
313.784
313.892
314.162
314.522
314.77
315.073
315.269
315.397
315.238
315.063
314.761
314.348
314.04
313.778
313.666
313.723
313.861
310.189
310.064
309.921
309.895
309.935
310.145
310.401
310.585
310.792
310.931
311.037
310.904
310.804
310.57
310.27
310.048
309.894
309.792
309.848
309.933
306.128
306.073
305.98
305.967
305.967
306.112
306.264
306.367
306.491
306.568
306.644
306.537
306.51
306.359
306.15
306.036
305.945
305.899
305.923
305.982
302.056
302.04
302
302.005
301.998
302.042
302.109
302.13
302.188
302.196
302.227
302.197
302.184
302.126
302.066
302.025
301.995
301.987
301.988
302.022
330.727
330.164
329.737
329.851
330.036
330.597
331.343
332.013
332.572
333.007
333.306
333.087
332.508
331.743
330.982
330.318
329.533
329.171
329.276
329.692
326.844
326.345
325.991
326.098
326.232
326.731
327.374
327.957
328.43
328.777
329.048
328.876
328.377
327.725
327.069
326.485
325.839
325.523
325.598
325.939
322.882
322.447
322.132
322.215
322.338
322.763
323.309
323.804
324.215
324.493
324.705
324.573
324.17
323.624
323.057
322.568
322.05
321.748
321.855
322.097
318.81
318.46
318.199
318.238
318.366
318.711
319.165
319.585
319.93
320.147
320.301
320.206
319.88
319.43
318.974
318.58
318.169
317.898
318.016
318.174
314.7
314.407
314.22
314.227
314.339
314.605
314.962
315.293
315.584
315.722
315.844
315.76
315.526
315.201
314.836
314.516
314.227
313.98
314.088
314.217
310.538
310.331
310.211
310.203
310.297
310.469
310.722
310.967
311.165
311.253
311.357
311.277
311.14
310.918
310.64
310.392
310.22
310.014
310.11
310.178
306.359
306.225
306.141
306.155
306.196
306.299
306.46
306.59
306.718
306.761
306.818
306.783
306.698
306.574
306.408
306.251
306.165
306.016
306.093
306.118
302.135
302.094
302.051
302.067
302.068
302.113
302.163
302.21
302.259
302.264
302.283
302.271
302.243
302.216
302.144
302.097
302.066
302.016
302.048
302.06
331.728
331.147
330.816
330.84
331.005
331.501
332.302
333.018
333.517
334.111
334.236
334.044
333.445
332.614
331.82
331.114
330.521
330.227
330.174
330.567
327.714
327.23
326.929
326.958
327.069
327.51
328.208
328.83
329.262
329.772
329.888
329.717
329.2
328.479
327.814
327.182
326.657
326.445
326.379
326.705
323.611
323.215
322.945
322.966
323.069
323.432
324.023
324.546
324.903
325.338
325.431
325.316
324.887
324.257
323.714
323.183
322.707
322.558
322.487
322.75
319.411
319.096
318.88
318.909
318.986
319.262
319.762
320.184
320.489
320.823
320.919
320.837
320.468
319.981
319.517
319.099
318.684
318.556
318.515
318.717
315.16
314.92
314.748
314.791
314.839
315.059
315.427
315.747
315.986
316.25
316.332
316.27
315.99
315.623
315.272
314.937
314.619
314.509
314.46
314.612
310.85
310.714
310.574
310.607
310.635
310.812
311.047
311.297
311.432
311.633
311.707
311.651
311.454
311.194
310.978
310.703
310.486
310.419
310.369
310.476
306.54
306.458
306.348
306.385
306.404
306.522
306.655
306.796
306.869
306.988
307.043
307.011
306.889
306.726
306.608
306.448
306.332
306.286
306.235
306.3
302.203
302.159
302.129
302.136
302.156
302.187
302.241
302.282
302.314
302.35
302.366
302.353
302.307
302.247
302.221
302.167
302.137
302.106
302.102
302.126
332.775
332.232
331.951
332.018
332.149
332.598
333.264
333.859
334.535
335.009
335.132
335.033
334.356
333.699
332.856
332.095
331.54
331.25
331.224
331.422
328.634
328.15
327.925
327.975
328.065
328.472
329.032
329.573
330.14
330.551
330.682
330.585
329.997
329.42
328.691
328.048
327.586
327.325
327.289
327.478
324.388
323.984
323.797
323.865
323.91
324.244
324.708
325.176
325.651
326.003
326.145
326.025
325.549
325.06
324.426
323.904
323.541
323.296
323.262
323.406
320.054
319.744
319.604
319.633
319.655
319.951
320.331
320.706
321.089
321.39
321.512
321.41
320.996
320.634
320.084
319.688
319.381
319.176
319.157
319.233
315.682
315.454
315.362
315.367
315.361
315.587
315.899
316.176
316.45
316.71
316.805
316.742
316.388
316.141
315.708
315.411
315.154
315.003
314.974
315.004
311.235
311.093
311.027
311.046
311.016
311.168
311.407
311.614
311.795
311.999
312.055
312.013
311.746
311.578
311.266
311.059
310.877
310.753
310.761
310.749
306.769
306.682
306.646
306.662
306.627
306.73
306.87
306.991
307.096
307.225
307.269
307.238
307.066
306.975
306.785
306.673
306.555
306.48
306.499
306.469
302.27
302.244
302.224
302.237
302.23
302.267
302.312
302.345
302.385
302.426
302.433
302.435
302.365
302.339
302.283
302.241
302.204
302.173
302.185
302.159
333.89
333.312
333.008
333.039
333.258
333.713
334.311
334.935
335.575
335.905
336.138
335.925
335.304
334.666
333.855
333.079
332.532
332.328
332.272
332.393
329.61
329.1
328.852
328.893
329.071
329.446
329.978
330.528
331.064
331.335
331.549
331.364
330.813
330.267
329.582
328.922
328.469
328.277
328.212
328.323
325.202
324.798
324.612
324.648
324.78
325.101
325.533
326.032
326.472
326.668
326.849
326.697
326.237
325.767
325.189
324.655
324.275
324.091
324.055
324.147
320.732
320.426
320.273
320.291
320.38
320.668
320.997
321.424
321.796
321.933
322.068
321.964
321.563
321.189
320.718
320.306
319.999
319.82
319.808
319.864
316.199
316
315.857
315.859
315.932
316.146
316.394
316.746
317.031
317.127
317.225
317.18
316.816
316.565
316.171
315.879
315.636
315.503
315.462
315.512
311.62
311.473
311.368
311.377
311.409
311.558
311.759
312.011
312.199
312.278
312.338
312.321
312.043
311.903
311.581
311.389
311.197
311.104
311.077
311.135
306.997
306.91
306.83
306.851
306.863
306.977
307.104
307.23
307.339
307.379
307.416
307.418
307.248
307.175
306.957
306.856
306.736
306.676
306.67
306.704
302.355
302.325
302.285
302.303
302.305
302.35
302.385
302.424
302.463
302.477
302.491
302.478
302.431
302.407
302.333
302.297
302.264
302.236
302.236
302.251
335.073
334.439
334.194
334.176
334.303
334.694
335.291
335.907
336.417
336.737
337.011
336.768
336.207
335.575
334.76
333.963
333.5
333.22
333.272
333.336
330.662
330.103
329.883
329.88
329.963
330.308
330.824
331.371
331.768
332.073
332.316
332.114
331.614
331.085
330.366
329.652
329.303
329.046
329.113
329.124
326.123
325.654
325.463
325.467
325.526
325.827
326.254
326.705
327.023
327.318
327.514
327.365
326.923
326.47
325.873
325.238
324.977
324.75
324.827
324.829
321.496
321.09
320.961
320.961
321.004
321.254
321.584
321.955
322.188
322.459
322.633
322.512
322.182
321.765
321.291
320.748
320.56
320.384
320.445
320.421
316.784
316.479
316.392
316.396
316.41
316.619
316.858
317.139
317.319
317.546
317.683
317.588
317.344
316.994
316.619
316.22
316.053
315.953
316.003
315.956
312.028
311.818
311.767
311.755
311.745
311.923
312.094
312.301
312.404
312.581
312.674
312.602
312.457
312.186
311.92
311.648
311.506
311.45
311.468
311.458
307.244
307.134
307.087
307.076
307.07
307.176
307.278
307.409
307.453
307.584
307.624
307.579
307.506
307.343
307.175
307.027
306.938
306.896
306.912
306.901
302.436
302.387
302.375
302.379
302.38
302.405
302.441
302.496
302.491
302.538
302.555
302.529
302.517
302.459
302.404
302.362
302.328
302.314
302.321
302.322
336.275
335.788
335.498
335.259
335.433
335.885
336.307
336.794
337.226
337.558
337.923
337.596
337.057
336.432
335.634
334.915
334.483
334.259
334.266
334.367
331.678
331.3
331.04
330.826
330.951
331.367
331.719
332.096
332.495
332.781
333.118
332.83
332.359
331.849
331.169
330.498
330.129
329.972
329.978
330.057
326.976
326.668
326.446
326.283
326.373
326.735
327.002
327.324
327.658
327.917
328.207
327.956
327.557
327.147
326.585
325.989
325.671
325.544
325.574
325.628
322.189
321.934
321.759
321.635
321.723
322.002
322.203
322.441
322.737
322.967
323.221
323.008
322.686
322.346
321.887
321.388
321.125
321.025
321.086
321.098
317.329
317.134
317.008
316.911
316.99
317.186
317.348
317.527
317.736
317.926
318.149
317.983
317.714
317.449
317.094
316.7
316.508
316.442
316.495
316.485
312.408
312.269
312.198
312.116
312.174
312.292
312.442
312.578
312.72
312.835
313.006
312.89
312.711
312.518
312.252
311.963
311.844
311.792
311.86
311.823
307.453
307.387
307.345
307.298
307.323
307.401
307.494
307.577
307.647
307.717
307.842
307.747
307.66
307.538
307.373
307.211
307.132
307.108
307.158
307.121
302.501
302.481
302.462
302.449
302.459
302.47
302.519
302.541
302.566
302.586
302.632
302.596
302.577
302.527
302.479
302.423
302.394
302.383
302.394
302.39
337.277
336.896
336.536
336.499
336.643
336.967
337.308
337.743
338.16
338.458
338.562
338.335
337.862
337.337
336.591
335.893
335.471
335.293
335.242
335.41
332.563
332.249
331.954
331.905
331.993
332.309
332.601
332.965
333.317
333.601
333.68
333.501
333.078
332.653
331.998
331.397
331.021
330.866
330.853
330.97
327.721
327.487
327.245
327.186
327.246
327.531
327.759
328.078
328.367
328.622
328.715
328.546
328.187
327.844
327.279
326.76
326.451
326.328
326.34
326.399
322.809
322.633
322.439
322.372
322.404
322.647
322.825
323.103
323.308
323.549
323.656
323.496
323.198
322.925
322.459
322.03
321.784
321.68
321.682
321.731
317.807
317.709
317.54
317.485
317.51
317.696
317.829
318.037
318.192
318.426
318.512
318.36
318.112
317.933
317.57
317.243
317.034
316.974
316.971
316.982
312.765
312.699
312.589
312.531
312.54
312.692
312.786
312.914
313.036
313.229
313.287
313.159
312.997
312.857
312.604
312.375
312.218
312.183
312.198
312.162
307.678
307.638
307.586
307.553
307.541
307.622
307.697
307.749
307.848
307.966
308.003
307.906
307.828
307.733
307.583
307.477
307.36
307.335
307.346
307.303
302.578
302.558
302.536
302.539
302.526
302.557
302.586
302.606
302.626
302.677
302.69
302.664
302.621
302.575
302.543
302.512
302.461
302.462
302.467
302.451
338.457
338.144
337.798
337.656
337.668
337.906
338.216
338.644
339.056
339.23
339.116
339.068
338.454
338.004
337.398
336.769
336.385
336.225
336.185
336.356
333.604
333.349
333.068
332.907
332.924
333.15
333.416
333.775
334.123
334.268
334.197
334.129
333.609
333.251
332.724
332.163
331.858
331.722
331.643
331.81
328.63
328.454
328.194
328.037
328.073
328.255
328.494
328.81
329.074
329.203
329.148
329.073
328.645
328.366
327.901
327.437
327.193
327.066
326.97
327.147
323.568
323.437
323.211
323.071
323.104
323.256
323.481
323.744
323.925
324.045
323.971
323.904
323.581
323.383
322.965
322.616
322.368
322.305
322.19
322.364
318.416
318.32
318.127
318.025
318.056
318.186
318.37
318.57
318.692
318.801
318.726
318.676
318.431
318.283
317.941
317.698
317.466
317.458
317.352
317.477
313.203
313.14
312.988
312.938
312.952
313.034
313.174
313.31
313.392
313.477
313.428
313.405
313.244
313.111
312.87
312.708
312.538
312.521
312.445
312.526
307.955
307.909
307.845
307.792
307.793
307.832
307.943
308.005
308.045
308.113
308.079
308.076
307.989
307.889
307.743
307.651
307.554
307.556
307.487
307.537
302.676
302.653
302.64
302.618
302.615
302.629
302.668
302.685
302.701
302.725
302.705
302.707
302.679
302.641
302.599
302.577
302.537
302.541
302.512
302.521
339.584
339.25
339.013
338.859
338.831
338.888
339.118
339.507
339.784
339.907
339.96
339.591
339.288
338.766
338.127
337.688
337.392
337.022
337.073
337.26
334.616
334.33
334.102
333.99
333.945
333.996
334.184
334.529
334.789
334.884
334.939
334.59
334.34
333.908
333.324
332.964
332.732
332.408
332.45
332.599
329.496
329.251
329.054
329.005
328.952
328.969
329.124
329.419
329.672
329.76
329.787
329.485
329.264
328.905
328.414
328.082
327.936
327.659
327.692
327.817
324.268
324.074
323.88
323.896
323.816
323.838
323.96
324.22
324.409
324.508
324.503
324.265
324.108
323.818
323.388
323.131
323.033
322.78
322.816
322.926
318.928
318.794
318.674
318.676
318.613
318.601
318.725
318.943
319.058
319.171
319.139
318.962
318.843
318.625
318.261
318.087
318.025
317.826
317.839
317.958
313.567
313.459
313.391
313.382
313.346
313.326
313.443
313.584
313.66
313.768
313.708
313.598
313.516
313.366
313.069
312.976
312.921
312.801
312.795
312.882
308.156
308.089
308.065
308.059
308.028
308.032
308.092
308.189
308.224
308.3
308.243
308.195
308.139
308.052
307.87
307.809
307.771
307.721
307.689
307.745
302.732
302.708
302.705
302.71
302.691
302.7
302.7
302.751
302.751
302.785
302.765
302.755
302.734
302.696
302.639
302.626
302.598
302.595
302.583
302.6
340.905
340.496
340.14
340.001
339.981
339.881
340.037
340.335
340.696
340.692
340.656
340.312
340.083
339.51
339.002
338.57
338.255
338.031
338.082
338.366
335.752
335.404
335.089
334.995
334.963
334.865
334.994
335.265
335.589
335.551
335.549
335.235
335.038
334.551
334.115
333.743
333.472
333.292
333.317
333.566
330.443
330.186
329.902
329.827
329.804
329.714
329.816
330.047
330.331
330.298
330.269
330.017
329.882
329.45
329.093
328.766
328.553
328.402
328.44
328.616
325.033
324.856
324.608
324.562
324.551
324.434
324.521
324.712
324.974
324.957
324.927
324.714
324.603
324.242
323.948
323.687
323.517
323.398
323.451
323.565
319.56
319.427
319.227
319.21
319.194
319.071
319.168
319.307
319.529
319.529
319.478
319.322
319.245
318.942
318.716
318.52
318.401
318.282
318.331
318.415
314.048
313.932
313.794
313.773
313.786
313.671
313.757
313.848
313.997
314.018
313.962
313.876
313.83
313.606
313.424
313.267
313.214
313.097
313.133
313.199
308.466
308.396
308.316
308.286
308.311
308.222
308.267
308.339
308.425
308.437
308.399
308.35
308.336
308.193
308.09
307.991
307.963
307.883
307.903
307.935
302.85
302.816
302.803
302.786
302.788
302.768
302.771
302.799
302.822
302.822
302.817
302.807
302.798
302.75
302.723
302.682
302.673
302.642
302.653
302.666
341.958
341.529
341.304
340.916
340.93
340.853
340.888
341.267
341.464
341.484
341.354
341.096
340.87
340.399
339.873
339.492
339.192
339.036
338.942
339.285
336.676
336.301
336.133
335.774
335.785
335.694
335.746
336.072
336.264
336.295
336.164
335.93
335.75
335.314
334.895
334.586
334.308
334.171
334.094
334.352
331.263
330.948
330.828
330.494
330.485
330.39
330.47
330.754
330.917
330.942
330.818
330.614
330.474
330.086
329.778
329.505
329.275
329.162
329.096
329.288
325.728
325.479
325.395
325.107
325.089
325
325.06
325.301
325.455
325.499
325.377
325.207
325.094
324.747
324.528
324.323
324.11
324.028
323.977
324.122
320.115
319.951
319.848
319.643
319.593
319.515
319.586
319.773
319.918
319.949
319.841
319.714
319.61
319.314
319.185
319.035
318.862
318.796
318.773
318.855
314.419
314.324
314.232
314.09
314.021
313.982
314.039
314.182
314.294
314.315
314.238
314.133
314.049
313.827
313.751
313.666
313.559
313.472
313.47
313.527
308.698
308.638
308.562
308.496
308.423
308.416
308.445
308.526
308.61
308.615
308.573
308.492
308.439
308.314
308.28
308.234
308.171
308.113
308.11
308.16
302.928
302.906
302.871
302.851
302.83
302.821
302.837
302.857
302.892
302.894
302.883
302.845
302.826
302.786
302.774
302.762
302.747
302.727
302.727
302.729
343.114
342.744
342.381
341.95
341.739
341.867
341.84
342.106
342.221
342.141
342.102
341.87
341.601
341.112
340.712
340.373
340.025
339.953
340.054
340.262
337.683
337.37
337.063
336.683
336.485
336.6
336.59
336.823
336.934
336.868
336.838
336.619
336.396
335.96
335.624
335.326
335.011
334.995
335.063
335.233
332.101
331.852
331.598
331.299
331.095
331.197
331.189
331.391
331.5
331.449
331.404
331.205
331.026
330.658
330.378
330.131
329.862
329.848
329.907
330.071
326.401
326.224
326.027
325.789
325.609
325.684
325.685
325.855
325.912
325.913
325.863
325.71
325.531
325.242
325.023
324.82
324.584
324.589
324.641
324.774
320.628
320.493
320.35
320.141
320.032
320.074
320.078
320.215
320.241
320.273
320.213
320.124
319.95
319.731
319.56
319.42
319.211
319.244
319.282
319.364
314.785
314.702
314.593
314.419
314.345
314.404
314.408
314.484
314.512
314.539
314.491
314.445
314.309
314.14
314.014
313.929
313.764
313.84
313.833
313.869
308.907
308.848
308.79
308.668
308.64
308.678
308.671
308.706
308.731
308.736
308.718
308.692
308.623
308.51
308.424
308.396
308.284
308.346
308.317
308.326
302.984
302.969
302.953
302.91
302.906
302.918
302.911
302.913
302.93
302.934
302.931
302.92
302.897
302.853
302.829
302.811
302.791
302.816
302.805
302.783
344.117
343.724
343.264
342.851
342.733
342.747
342.736
342.772
342.801
342.849
342.749
342.504
342.191
341.76
341.45
341.149
340.901
340.714
340.955
341.086
338.569
338.231
337.832
337.451
337.352
337.351
337.357
337.382
337.43
337.458
337.379
337.17
336.911
336.516
336.241
336.011
335.788
335.63
335.829
335.926
332.864
332.59
332.241
331.908
331.827
331.809
331.851
331.87
331.892
331.929
331.86
331.695
331.473
331.145
330.873
330.711
330.516
330.382
330.549
330.641
327.047
326.833
326.528
326.249
326.187
326.163
326.237
326.235
326.249
326.274
326.213
326.115
325.911
325.651
325.407
325.271
325.126
325.036
325.155
325.234
321.14
320.975
320.726
320.502
320.471
320.424
320.519
320.525
320.515
320.518
320.493
320.423
320.258
320.035
319.867
319.765
319.643
319.569
319.676
319.719
315.182
315.043
314.834
314.715
314.688
314.627
314.702
314.726
314.698
314.702
314.695
314.656
314.556
314.365
314.258
314.177
314.084
314.035
314.114
314.148
309.149
309.065
308.914
308.847
308.849
308.805
308.84
308.861
308.849
308.838
308.846
308.833
308.759
308.648
308.598
308.532
308.482
308.45
308.503
308.524
303.076
303.037
302.988
302.974
302.975
302.954
302.975
302.976
302.964
302.967
302.968
302.967
302.939
302.898
302.891
302.861
302.843
302.843
302.855
302.87
344.796
344.355
343.785
343.602
343.422
343.388
343.328
343.15
343.175
343.315
343.213
342.994
342.901
342.413
341.951
341.684
341.513
341.468
341.625
341.764
339.133
338.753
338.257
338.071
337.925
337.871
337.862
337.695
337.72
337.856
337.776
337.583
337.495
337.071
336.673
336.439
336.295
336.253
336.387
336.487
333.315
332.995
332.616
332.406
332.327
332.243
332.262
332.115
332.118
332.242
332.223
332.023
331.965
331.579
331.26
331.058
330.932
330.882
331.017
331.101
327.38
327.14
326.836
326.659
326.606
326.497
326.531
326.409
326.429
326.529
326.534
326.351
326.31
325.955
325.726
325.565
325.503
325.424
325.541
325.593
321.373
321.207
320.964
320.832
320.802
320.669
320.741
320.626
320.641
320.728
320.74
320.592
320.569
320.257
320.111
319.987
319.941
319.877
319.955
320.014
315.296
315.199
315.04
314.945
314.904
314.802
314.869
314.764
314.794
314.86
314.87
314.778
314.76
314.529
314.417
314.361
314.318
314.259
314.315
314.357
309.186
309.155
309.061
309.004
308.948
308.892
308.961
308.87
308.913
308.939
308.962
308.895
308.877
308.744
308.689
308.646
308.63
308.587
308.61
308.639
303.081
303.073
303.04
303.02
302.99
302.978
303.013
302.968
302.988
303.005
303
302.978
302.98
302.929
302.919
302.903
302.902
302.882
302.889
302.899
)
;

boundaryField
{
    hotSide
    {
        type            fixedGradient;
        gradient        nonuniform List<scalar> 
400
(
270.214
271.536
274.676
279.584
286.07
293.864
302.677
312.245
322.347
332.812
343.509
354.342
365.245
376.171
387.092
397.991
408.862
419.706
430.528
441.334
260.158
261.659
265.106
270.436
277.421
285.742
295.066
305.101
315.611
326.417
337.387
348.428
359.478
370.496
381.462
392.367
403.212
414.005
424.759
435.486
255.077
256.932
260.704
266.323
273.561
282.1
291.608
301.79
312.406
323.275
334.264
345.279
356.261
367.174
378.002
388.744
399.408
410.008
420.564
431.093
254.64
257.012
261.136
266.94
274.226
282.72
292.124
302.165
312.613
323.284
334.047
344.807
355.506
366.112
376.616
387.023
397.347
407.61
417.837
428.05
257.558
260.54
265.065
271.055
278.343
286.702
295.88
305.634
315.748
326.047
336.401
346.721
356.951
367.07
377.076
386.984
396.818
406.609
416.384
426.174
262.367
265.996
270.981
277.235
284.607
292.9
301.892
311.361
321.107
330.964
340.808
350.56
360.181
369.664
379.024
388.292
397.507
406.708
415.933
425.214
267.856
272.135
277.635
284.257
291.85
300.224
309.164
318.453
327.891
337.318
346.619
355.733
364.646
373.38
381.98
390.501
399
407.53
416.137
424.859
273.093
277.992
284.035
291.11
299.055
307.671
316.727
325.985
335.23
344.29
353.061
361.507
369.654
377.57
385.34
393.054
400.792
408.621
416.594
424.751
277.333
282.773
289.329
296.882
305.258
314.235
323.551
332.928
342.107
350.89
359.175
366.965
374.341
381.431
388.375
395.299
402.307
409.478
416.869
424.518
279.981
285.805
292.756
300.709
309.483
318.834
328.465
338.042
347.25
355.849
363.736
370.954
377.652
384.026
390.266
396.534
402.949
409.599
416.54
423.806
280.609
286.582
293.706
301.856
310.844
320.416
330.248
339.969
349.216
357.715
365.359
372.221
378.499
384.435
390.255
396.139
402.216
408.577
415.277
422.35
279.036
284.872
291.878
299.93
308.837
318.342
328.118
337.791
346.998
355.466
363.087
369.93
376.19
382.109
387.911
393.779
399.848
406.21
412.925
420.027
275.392
280.808
287.416
295.089
303.638
312.807
322.288
331.739
340.838
349.344
357.149
364.289
370.909
377.203
383.366
389.569
395.942
402.583
409.558
416.906
270.127
274.904
280.916
288.04
296.087
304.812
313.926
323.128
332.142
340.761
348.874
356.48
363.661
370.551
377.302
384.059
390.947
398.063
405.481
413.245
263.988
267.992
273.319
279.856
287.414
295.746
304.576
313.624
322.642
331.44
339.906
348.006
355.776
363.3
370.691
378.069
385.548
393.226
401.179
409.458
258.003
261.179
265.823
271.83
279
287.071
295.753
304.767
313.872
322.884
331.686
340.225
348.508
356.588
364.549
372.495
380.531
388.759
397.256
406.075
253.502
255.87
259.883
265.443
272.329
280.242
288.862
297.896
307.101
316.295
325.358
334.229
342.899
351.403
359.808
368.207
376.703
385.402
394.386
403.707
252.056
253.719
257.171
262.322
268.927
276.653
285.156
294.132
303.337
312.594
321.784
330.844
339.755
348.539
357.254
365.982
374.826
383.893
393.268
403
255.056
256.199
259.153
263.841
270.022
277.369
285.543
294.248
303.251
312.38
321.518
330.601
339.603
348.536
357.444
366.401
375.498
384.833
394.486
404.499
262.945
263.771
266.287
270.43
276.001
282.726
290.313
298.498
307.068
315.86
324.761
333.703
342.652
351.612
360.611
369.707
378.97
388.478
398.292
408.444
)
;
    }
    coldSide
    {
        type            mixed;
        refValue        uniform 300;
        refGradient     uniform 0;
        valueFraction   uniform 0.991591;
        source          uniform 0;
        value           nonuniform List<scalar> 
400
(
300.016
300.016
300.016
300.016
300.017
300.017
300.018
300.019
300.019
300.02
300.02
300.021
300.022
300.022
300.023
300.024
300.025
300.025
300.026
300.026
300.015
300.015
300.016
300.016
300.017
300.017
300.018
300.018
300.019
300.02
300.02
300.021
300.022
300.022
300.023
300.024
300.024
300.025
300.026