/*--------------------------------*- C++ -*----------------------------------*\
| =========                 |                                                 |
| \\      /  F ield         | OpenFOAM: The Open Source CFD Toolbox           |
|  \\    /   O peration     | Version:  2212                                  |
|   \\  /    A nd           | Website:  www.openfoam.com                      |
|    \\/     M anipulation  |                                                 |
\*---------------------------------------------------------------------------*/
FoamFile
{
    version     2.0;
    format      ascii;
    arch        "LSB;label=32;scalar=64";
    class       volScalarField;
    location    "0";
    object      Tdirect;
}
// * * * * * * * * * * * * * * * * * * * * * * * * * * * * * * * * * * * * * //

dimensions      [0 0 0 1 0 0 0];

internalField   nonuniform List<scalar> 
3200
(
336.786
337.256
337.855
338.508
339.181
339.842
340.451
340.966
341.341
341.539
341.539
341.341
340.966
340.451
339.842
339.181
338.508
337.855
337.256
336.786
332.003
332.4
332.917
333.482
334.065
334.636
335.163
335.608
335.931
336.102
336.102
335.931
335.608
335.163
334.636
334.065
333.482
332.917
332.4
332.003
327.168
327.498
327.933
328.411
328.903
329.386
329.831
330.206
330.479
330.623
330.623
330.479
330.206
329.831
329.386
328.903
328.411
327.933
327.498
327.168
322.291
322.556
322.911
323.301
323.704
324.098
324.462
324.768
324.991
325.109
325.109
324.991
324.768
324.462
324.098
323.704
323.301
322.911
322.556
322.291
317.378
317.582
317.857
318.161
318.473
318.78
319.062
319.3
319.473
319.564
319.564
319.473
319.3
319.062
318.78
318.473
318.161
317.857
317.582
317.378
312.438
312.583
312.779
312.996
313.219
313.438
313.639
313.809
313.933
313.998
313.998
313.933
313.809
313.639
313.438
313.219
312.996
312.779
312.583
312.438
307.479
307.565
307.683
307.813
307.947
308.078
308.199
308.301
308.375
308.415
308.415
308.375
308.301
308.199
308.078
307.947
307.813
307.683
307.565
307.479
302.508
302.537
302.577
302.62
302.665
302.709
302.75
302.784
302.809
302.822
302.822
302.809
302.784
302.75
302.709
302.665
302.62
302.577
302.537
302.508
336.912
337.378
337.972
338.62
339.286
339.939
340.541
341.05
341.42
341.615
341.615
341.42
341.05
340.541
339.939
339.286
338.62
337.972
337.378
336.912
332.112
332.507
333.019
333.579
334.156
334.721
335.241
335.681
336
336.169
336.169
336
335.681
335.241
334.721
334.156
333.579
333.019
332.507
332.112
327.261
327.588
328.02
328.493
328.98
329.458
329.898
330.268
330.538
330.68
330.68
330.538
330.268
329.898
329.458
328.98
328.493
328.02
327.588
327.261
322.367
322.63
322.982
323.369
323.767
324.157
324.517
324.819
325.039
325.155
325.155
325.039
324.819
324.517
324.157
323.767
323.369
322.982
322.63
322.367
317.438
317.64
317.913
318.213
318.523
318.826
319.105
319.34
319.511
319.601
319.601
319.511
319.34
319.105
318.826
318.523
318.213
317.913
317.64
317.438
312.481
312.624
312.819
313.033
313.254
313.471
313.67
313.838
313.96
314.024
314.024
313.96
313.838
313.67
313.471
313.254
313.033
312.819
312.624
312.481
307.505
307.59
307.707
307.836
307.968
308.098
308.218
308.319
308.392
308.43
308.43
308.392
308.319
308.218
308.098
307.968
307.836
307.707
307.59
307.505
302.517
302.546
302.585
302.628
302.672
302.716
302.756
302.79
302.814
302.827
302.827
302.814
302.79
302.756
302.716
302.672
302.628
302.585
302.546
302.517
337.165
337.624
338.208
338.843
339.496
340.135
340.723
341.219
341.58
341.77
341.77
341.58
341.219
340.723
340.135
339.496
338.843
338.208
337.624
337.165
332.332
332.72
333.224
333.774
334.338
334.891
335.4
335.829
336.14
336.304
336.304
336.14
335.829
335.4
334.891
334.338
333.774
333.224
332.72
332.332
327.448
327.77
328.194
328.658
329.136
329.603
330.033
330.394
330.657
330.796
330.796
330.657
330.394
330.033
329.603
329.136
328.658
328.194
327.77
327.448
322.52
322.779
323.125
323.505
323.895
324.277
324.628
324.923
325.138
325.251
325.251
325.138
324.923
324.628
324.277
323.895
323.505
323.125
322.779
322.52
317.557
317.756
318.024
318.319
318.622
318.919
319.192
319.421
319.588
319.676
319.676
319.588
319.421
319.192
318.919
318.622
318.319
318.024
317.756
317.557
312.566
312.707
312.898
313.109
313.326
313.537
313.732
313.896
314.015
314.077
314.077
314.015
313.896
313.732
313.537
313.326
313.109
312.898
312.707
312.566
307.556
307.64
307.755
307.881
308.011
308.139
308.255
308.354
308.425
308.463
308.463
308.425
308.354
308.255
308.139
308.011
307.881
307.755
307.64
307.556
302.534
302.562
302.601
302.643
302.687
302.729
302.768
302.801
302.825
302.838
302.838
302.825
302.801
302.768
302.729
302.687
302.643
302.601
302.562
302.534
337.546
337.993
338.563
339.181
339.814
340.433
341.001
341.479
341.826
342.009
342.009
341.826
341.479
341.001
340.433
339.814
339.181
338.563
337.993
337.546
332.663
333.042
333.533
334.068
334.616
335.151
335.643
336.056
336.356
336.514
336.514
336.356
336.056
335.643
335.151
334.616
334.068
333.533
333.042
332.663
327.728
328.043
328.456
328.908
329.372
329.824
330.239
330.588
330.841
330.974
330.974
330.841
330.588
330.239
329.824
329.372
328.908
328.456
328.043
327.728
322.75
323.003
323.34
323.71
324.088
324.458
324.797
325.082
325.289
325.398
325.398
325.289
325.082
324.797
324.458
324.088
323.71
323.34
323.003
322.75
317.736
317.93
318.192
318.479
318.773
319.061
319.324
319.546
319.706
319.791
319.791
319.706
319.546
319.324
319.061
318.773
318.479
318.192
317.93
317.736
312.694
312.832
313.019
313.223
313.434
313.639
313.827
313.985
314.1
314.16
314.16
314.1
313.985
313.827
313.639
313.434
313.223
313.019
312.832
312.694
307.633
307.715
307.827
307.95
308.076
308.2
308.313
308.407
308.476
308.512
308.512
308.476
308.407
308.313
308.2
308.076
307.95
307.827
307.715
307.633
302.56
302.587
302.625
302.666
302.709
302.75
302.788
302.819
302.842
302.855
302.855
302.842
302.819
302.788
302.75
302.709
302.666
302.625
302.587
302.56
338.055
338.489
339.04
339.635
340.244
340.837
341.381
341.836
342.166
342.34
342.34
342.166
341.836
341.381
340.837
340.244
339.635
339.04
338.489
338.055
333.106
333.473
333.948
334.464
334.991
335.504
335.974
336.368
336.653
336.803
336.803
336.653
336.368
335.974
335.504
334.991
334.464
333.948
333.473
333.106
328.104
328.409
328.809
329.245
329.69
330.124
330.521
330.853
331.094
331.221
331.221
331.094
330.853
330.521
330.124
329.69
329.245
328.809
328.409
328.104
323.058
323.303
323.63
323.986
324.35
324.704
325.029
325.3
325.497
325.601
325.601
325.497
325.3
325.029
324.704
324.35
323.986
323.63
323.303
323.058
317.976
318.164
318.418
318.694
318.978
319.253
319.505
319.716
319.869
319.949
319.949
319.869
319.716
319.505
319.253
318.978
318.694
318.418
318.164
317.976
312.866
313
313.18
313.378
313.58
313.777
313.957
314.107
314.216
314.274
314.274
314.216
314.107
313.957
313.777
313.58
313.378
313.18
313
312.866
307.736
307.816
307.924
308.043
308.164
308.282
308.391
308.481
308.546
308.581
308.581
308.546
308.481
308.391
308.282
308.164
308.043
307.924
307.816
307.736
302.595
302.621
302.658
302.697
302.738
302.778
302.814
302.844
302.866
302.878
302.878
302.866
302.844
302.814
302.778
302.738
302.697
302.658
302.621
302.595
338.695
339.113
339.641
340.211
340.791
341.354
341.868
342.298
342.609
342.772
342.772
342.609
342.298
341.868
341.354
340.791
340.211
339.641
339.113
338.695
333.662
334.016
334.472
334.965
335.467
335.954
336.399
336.771
337.039
337.181
337.181
337.039
336.771
336.399
335.954
335.467
334.965
334.472
334.016
333.662
328.576
328.869
329.253
329.67
330.095
330.507
330.882
331.196
331.423
331.542
331.542
331.423
331.196
330.882
330.507
330.095
329.67
329.253
328.869
328.576
323.445
323.681
323.994
324.335
324.682
325.019
325.326
325.583
325.768
325.865
325.865
325.768
325.583
325.326
325.019
324.682
324.335
323.994
323.681
323.445
318.278
318.459
318.702
318.967
319.237
319.499
319.737
319.936
320.08
320.156
320.156
320.08
319.936
319.737
319.499
319.237
318.967
318.702
318.459
318.278
313.082
313.21
313.384
313.573
313.766
313.952
314.123
314.265
314.368
314.422
314.422
314.368
314.265
314.123
313.952
313.766
313.573
313.384
313.21
313.082
307.866
307.943
308.047
308.16
308.276
308.388
308.491
308.576
308.638
308.67
308.67
308.638
308.576
308.491
308.388
308.276
308.16
308.047
307.943
307.866
302.638
302.664
302.699
302.737
302.775
302.813
302.847
302.876
302.897
302.907
302.907
302.897
302.876
302.847
302.813
302.775
302.737
302.699
302.664
302.638
339.468
339.867
340.371
340.912
341.46
341.99
342.472
342.873
343.163
343.315
343.315
343.163
342.873
342.472
341.99
341.46
340.912
340.371
339.867
339.468
334.334
334.672
335.106
335.574
336.049
336.508
336.925
337.272
337.523
337.654
337.654
337.523
337.272
336.925
336.508
336.049
335.574
335.106
334.672
334.334
329.146
329.426
329.792
330.188
330.59
330.977
331.33
331.623
331.835
331.946
331.946
331.835
331.623
331.33
330.977
330.59
330.188
329.792
329.426
329.146
323.913
324.138
324.437
324.76
325.088
325.406
325.694
325.933
326.106
326.197
326.197
326.106
325.933
325.694
325.406
325.088
324.76
324.437
324.138
323.913
318.642
318.815
319.047
319.298
319.554
319.8
320.024
320.21
320.345
320.415
320.415
320.345
320.21
320.024
319.8
319.554
319.298
319.047
318.815
318.642
313.343
313.465
313.63
313.81
313.992
314.168
314.328
314.461
314.557
314.608
314.608
314.557
314.461
314.328
314.168
313.992
313.81
313.63
313.465
313.343
308.023
308.096
308.195
308.303
308.412
308.518
308.614
308.694
308.752
308.782
308.782
308.752
308.694
308.614
308.518
308.412
308.303
308.195
308.096
308.023
302.691
302.715
302.748
302.785
302.821
302.857
302.889
302.916
302.935
302.945
302.945
302.935
302.916
302.889
302.857
302.821
302.785
302.748
302.715
302.691
340.375
340.755
341.231
341.741
342.256
342.75
343.198
343.57
343.838
343.978
343.978
343.838
343.57
343.198
342.75
342.256
341.741
341.231
340.755
340.375
335.123
335.444
335.855
336.296
336.742
337.17
337.558
337.88
338.111
338.233
338.233
338.111
337.88
337.558
337.17
336.742
336.296
335.855
335.444
335.123
329.815
330.082
330.428
330.801
331.178
331.54
331.868
332.14
332.336
332.438
332.438
332.336
332.14
331.868
331.54
331.178
330.801
330.428
330.082
329.815
324.461
324.676
324.958
325.263
325.571
325.868
326.136
326.358
326.518
326.601
326.601
326.518
326.358
326.136
325.868
325.571
325.263
324.958
324.676
324.461
319.07
319.234
319.454
319.691
319.93
320.161
320.369
320.542
320.666
320.731
320.731
320.666
320.542
320.369
320.161
319.93
319.691
319.454
319.234
319.07
313.649
313.765
313.922
314.091
314.262
314.427
314.575
314.699
314.788
314.834
314.834
314.788
314.699
314.575
314.427
314.262
314.091
313.922
313.765
313.649
308.207
308.276
308.37
308.472
308.575
308.673
308.763
308.837
308.89
308.918
308.918
308.89
308.837
308.763
308.673
308.575
308.472
308.37
308.276
308.207
302.752
302.776
302.807
302.841
302.876
302.909
302.939
302.964
302.981
302.991
302.991
302.981
302.964
302.939
302.909
302.876
302.841
302.807
302.776
302.752
341.42
341.778
342.227
342.704
343.183
343.642
344.056
344.398
344.643
344.771
344.771
344.643
344.398
344.056
343.642
343.183
342.704
342.227
341.778
341.42
336.031
336.334
336.721
337.134
337.549
337.947
338.305
338.601
338.813
338.924
338.924
338.813
338.601
338.305
337.947
337.549
337.134
336.721
336.334
336.031
330.586
330.837
331.163
331.513
331.864
332.2
332.503
332.753
332.932
333.026
333.026
332.932
332.753
332.503
332.2
331.864
331.513
331.163
330.837
330.586
325.093
325.296
325.562
325.847
326.134
326.409
326.657
326.861
327.008
327.085
327.085
327.008
326.861
326.657
326.409
326.134
325.847
325.562
325.296
325.093
319.562
319.718
319.924
320.146
320.369
320.583
320.776
320.935
321.048
321.108
321.108
321.048
320.935
320.776
320.583
320.369
320.146
319.924
319.718
319.562
314.001
314.111
314.258
314.417
314.576
314.729
314.867
314.98
315.062
315.104
315.104
315.062
314.98
314.867
314.729
314.576
314.417
314.258
314.111
314.001
308.419
308.484
308.573
308.668
308.764
308.855
308.938
309.006
309.055
309.081
309.081
309.055
309.006
308.938
308.855
308.764
308.668
308.573
308.484
308.419
302.824
302.845
302.875
302.907
302.939
302.97
302.997
303.02
303.037
303.045
303.045
303.037
303.02
302.997
302.97
302.939
302.907
302.875
302.845
302.824
342.604
342.94
343.36
343.804
344.248
344.671
345.05
345.363
345.586
345.702
345.702
345.586
345.363
345.05
344.671
344.248
343.804
343.36
342.94
342.604
337.06
337.345
337.707
338.092
338.476
338.843
339.171
339.441
339.635
339.735
339.735
339.635
339.441
339.171
338.843
338.476
338.092
337.707
337.345
337.06
331.459
331.695
332
332.326
332.651
332.961
333.238
333.467
333.63
333.716
333.716
333.63
333.467
333.238
332.961
332.651
332.326
332
331.695
331.459
325.809
326
326.248
326.514
326.78
327.034
327.261
327.448
327.582
327.651
327.651
327.582
327.448
327.261
327.034
326.78
326.514
326.248
326
325.809
320.12
320.266
320.459
320.666
320.873
321.07
321.247
321.392
321.496
321.55
321.55
321.496
321.392
321.247
321.07
320.873
320.666
320.459
320.266
320.12
314.401
314.504
314.642
314.789
314.937
315.078
315.204
315.308
315.382
315.421
315.421
315.382
315.308
315.204
315.078
314.937
314.789
314.642
314.504
314.401
308.659
308.721
308.803
308.892
308.981
309.065
309.141
309.203
309.248
309.271
309.271
309.248
309.203
309.141
309.065
308.981
308.892
308.803
308.721
308.659
302.904
302.925
302.952
302.982
303.012
303.04
303.066
303.086
303.101
303.109
303.109
303.101
303.086
303.066
303.04
303.012
302.982
302.952
302.925
302.904
343.929
344.244
344.634
345.046
345.455
345.842
346.188
346.472
346.674
346.779
346.779
346.674
346.472
346.188
345.842
345.455
345.046
344.634
344.244
343.929
338.212
338.479
338.816
339.172
339.526
339.862
340.162
340.407
340.582
340.673
340.673
340.582
340.407
340.162
339.862
339.526
339.172
338.816
338.479
338.212
332.436
332.657
332.941
333.243
333.543
333.826
334.08
334.288
334.436
334.513
334.513
334.436
334.288
334.08
333.826
333.543
333.243
332.941
332.657
332.436
326.611
326.789
327.02
327.267
327.512
327.744
327.952
328.122
328.243
328.306
328.306
328.243
328.122
327.952
327.744
327.512
327.267
327.02
326.789
326.611
320.745
320.882
321.061
321.253
321.444
321.624
321.786
321.918
322.012
322.061
322.061
322.012
321.918
321.786
321.624
321.444
321.253
321.061
320.882
320.745
314.848
314.944
315.072
315.209
315.345
315.475
315.59
315.684
315.751
315.786
315.786
315.751
315.684
315.59
315.475
315.345
315.209
315.072
314.944
314.848
308.928
308.985
309.062
309.144
309.226
309.304
309.373
309.43
309.47
309.491
309.491
309.47
309.43
309.373
309.304
309.226
309.144
309.062
308.985
308.928
302.994
303.013
303.039
303.067
303.094
303.12
303.143
303.162
303.176
303.183
303.183
303.176
303.162
303.143
303.12
303.094
303.067
303.039
303.013
302.994
345.397
345.69
346.052
346.432
346.807
347.16
347.474
347.731
347.913
348.007
348.007
347.913
347.731
347.474
347.16
346.807
346.432
346.052
345.69
345.397
339.488
339.737
340.049
340.378
340.703
341.009
341.281
341.503
341.661
341.743
341.743
341.661
341.503
341.281
341.009
340.703
340.378
340.049
339.737
339.488
333.519
333.725
333.988
334.266
334.541
334.8
335.031
335.218
335.352
335.421
335.421
335.352
335.218
335.031
334.8
334.541
334.266
333.988
333.725
333.519
327.499
327.665
327.879
328.107
328.332
328.544
328.732
328.886
328.995
329.051
329.051
328.995
328.886
328.732
328.544
328.332
328.107
327.879
327.665
327.499
321.437
321.564
321.731
321.907
322.083
322.247
322.394
322.513
322.598
322.642
322.642
322.598
322.513
322.394
322.247
322.083
321.907
321.731
321.564
321.437
315.343
315.433
315.551
315.678
315.803
315.921
316.025
316.111
316.171
316.203
316.203
316.171
316.111
316.025
315.921
315.803
315.678
315.551
315.433
315.343
309.225
309.279
309.35
309.426
309.501
309.572
309.635
309.686
309.723
309.741
309.741
309.723
309.686
309.635
309.572
309.501
309.426
309.35
309.279
309.225
303.094
303.112
303.136
303.161
303.186
303.21
303.231
303.248
303.261
303.267
303.267
303.261
303.248
303.231
303.21
303.186
303.161
303.136
303.112
303.094
347.009
347.281
347.616
347.964
348.307
348.628
348.912
349.143
349.306
349.391
349.391
349.306
349.143
348.912
348.628
348.307
347.964
347.616
347.281
347.009
340.89
341.12
341.409
341.711
342.008
342.286
342.532
342.732
342.874
342.947
342.947
342.874
342.732
342.532
342.286
342.008
341.711
341.409
341.12
340.89
334.708
334.899
335.142
335.398
335.649
335.885
336.093
336.262
336.382
336.444
336.444
336.382
336.262
336.093
335.885
335.649
335.398
335.142
334.899
334.708
328.474
328.628
328.826
329.035
329.24
329.433
329.604
329.742
329.84
329.891
329.891
329.84
329.742
329.604
329.433
329.24
329.035
328.826
328.628
328.474
322.197
322.315
322.469
322.631
322.791
322.941
323.074
323.181
323.258
323.297
323.297
323.258
323.181
323.074
322.941
322.791
322.631
322.469
322.315
322.197
315.886
315.97
316.08
316.196
316.31
316.417
316.512
316.589
316.643
316.672
316.672
316.643
316.589
316.512
316.417
316.31
316.196
316.08
315.97
315.886
309.552
309.602
309.668
309.737
309.806
309.87
309.927
309.974
310.006
310.023
310.023
310.006
309.974
309.927
309.87
309.806
309.737
309.668
309.602
309.552
303.204
303.22
303.242
303.266
303.289
303.31
303.329
303.345
303.356
303.361
303.361
303.356
303.345
303.329
303.31
303.289
303.266
303.242
303.22
303.204
348.766
349.018
349.325
349.645
349.956
350.247
350.503
350.711
350.857
350.933
350.933
350.857
350.711
350.503
350.247
349.956
349.645
349.325
349.018
348.766
342.417
342.63
342.895
343.172
343.442
343.694
343.916
344.096
344.223
344.288
344.288
344.223
344.096
343.916
343.694
343.442
343.172
342.895
342.63
342.417
336.004
336.18
336.404
336.638
336.867
337.08
337.268
337.42
337.527
337.583
337.583
337.527
337.42
337.268
337.08
336.867
336.638
336.404
336.18
336.004
329.536
329.678
329.861
330.052
330.239
330.414
330.568
330.692
330.78
330.825
330.825
330.78
330.692
330.568
330.414
330.239
330.052
329.861
329.678
329.536
323.025
323.134
323.275
323.424
323.57
323.706
323.825
323.922
323.99
324.026
324.026
323.99
323.922
323.825
323.706
323.57
323.424
323.275
323.134
323.025
316.479
316.556
316.657
316.763
316.867
316.964
317.05
317.119
317.168
317.193
317.193
317.168
317.119
317.05
316.964
316.867
316.763
316.657
316.556
316.479
309.908
309.954
310.015
310.079
310.141
310.199
310.251
310.292
310.322
310.337
310.337
310.322
310.292
310.251
310.199
310.141
310.079
310.015
309.954
309.908
303.323
303.338
303.359
303.38
303.401
303.421
303.438
303.452
303.462
303.467
303.467
303.462
303.452
303.438
303.421
303.401
303.38
303.359
303.338
303.323
350.664
350.897
351.179
351.471
351.754
352.017
352.247
352.433
352.564
352.631
352.631
352.564
352.433
352.247
352.017
351.754
351.471
351.179
350.897
350.664
344.066
344.263
344.507
344.759
345.005
345.233
345.432
345.593
345.707
345.765
345.765
345.707
345.593
345.432
345.233
345.005
344.759
344.507
344.263
344.066
337.402
337.565
337.771
337.984
338.192
338.385
338.554
338.691
338.787
338.836
338.836
338.787
338.691
338.554
338.385
338.192
337.984
337.771
337.565
337.402
330.683
330.814
330.981
331.156
331.326
331.484
331.623
331.734
331.813
331.853
331.853
331.813
331.734
331.623
331.484
331.326
331.156
330.981
330.814
330.683
323.918
324.018
324.148
324.284
324.417
324.54
324.647
324.734
324.795
324.827
324.827
324.795
324.734
324.647
324.54
324.417
324.284
324.148
324.018
323.918
317.118
317.189
317.281
317.379
317.473
317.561
317.638
317.7
317.744
317.766
317.766
317.744
317.7
317.638
317.561
317.473
317.379
317.281
317.189
317.118
310.292
310.335
310.39
310.449
310.505
310.558
310.604
310.642
310.668
310.681
310.681
310.668
310.642
310.604
310.558
310.505
310.449
310.39
310.335
310.292
303.452
303.466
303.485
303.504
303.523
303.541
303.556
303.569
303.578
303.582
303.582
303.578
303.569
303.556
303.541
303.523
303.504
303.485
303.466
303.452
352.696
352.91
353.169
353.435
353.692
353.929
354.136
354.302
354.418
354.479
354.479
354.418
354.302
354.136
353.929
353.692
353.435
353.169
352.91
352.696
345.831
346.011
346.235
346.465
346.688
346.893
347.073
347.217
347.318
347.37
347.37
347.318
347.217
347.073
346.893
346.688
346.465
346.235
346.011
345.831
338.897
339.047
339.236
339.43
339.619
339.793
339.945
340.067
340.153
340.197
340.197
340.153
340.067
339.945
339.793
339.619
339.43
339.236
339.047
338.897
331.907
332.028
332.182
332.341
332.495
332.638
332.762
332.862
332.932
332.968
332.968
332.932
332.862
332.762
332.638
332.495
332.341
332.182
332.028
331.907
324.871
324.964
325.083
325.207
325.327
325.438
325.535
325.613
325.667
325.695
325.695
325.667
325.613
325.535
325.438
325.327
325.207
325.083
324.964
324.871
317.799
317.865
317.95
318.038
318.124
318.204
318.273
318.328
318.367
318.387
318.387
318.367
318.328
318.273
318.204
318.124
318.038
317.95
317.865
317.799
310.702
310.741
310.792
310.845
310.897
310.944
310.986
311.019
311.043
311.055
311.055
311.043
311.019
310.986
310.944
310.897
310.845
310.792
310.741
310.702
303.589
303.602
303.619
303.637
303.654
303.67
303.684
303.695
303.703
303.707
303.707
303.703
303.695
303.684
303.67
303.654
303.637
303.619
303.602
303.589
354.839
355.035
355.272
355.514
355.747
355.961
356.147
356.296
356.4
356.453
356.453
356.4
356.296
356.147
355.961
355.747
355.514
355.272
355.035
354.839
347.687
347.853
348.058
348.268
348.47
348.655
348.816
348.945
349.036
349.082
349.082
349.036
348.945
348.816
348.655
348.47
348.268
348.058
347.853
347.687
340.468
340.606
340.778
340.956
341.127
341.284
341.42
341.53
341.606
341.646
341.646
341.606
341.53
341.42
341.284
341.127
340.956
340.778
340.606
340.468
333.192
333.303
333.444
333.589
333.729
333.858
333.97
334.059
334.122
334.154
334.154
334.122
334.059
333.97
333.858
333.729
333.589
333.444
333.303
333.192
325.87
325.955
326.065
326.178
326.287
326.387
326.474
326.544
326.592
326.617
326.617
326.592
326.544
326.474
326.387
326.287
326.178
326.065
325.955
325.87
318.513
318.573
318.651
318.732
318.81
318.882
318.944
318.994
319.028
319.046
319.046
319.028
318.994
318.944
318.882
318.81
318.732
318.651
318.573
318.513
311.131
311.166
311.213
311.262
311.308
311.352
311.389
311.419
311.44
311.451
311.451
311.44
311.419
311.389
311.352
311.308
311.262
311.213
311.166
311.131
303.733
303.745
303.76
303.777
303.792
303.807
303.819
303.829
303.836
303.84
303.84
303.836
303.829
303.819
303.807
303.792
303.777
303.76
303.745
303.733
357.034
357.215
357.432
357.653
357.864
358.058
358.225
358.359
358.452
358.5
358.5
358.452
358.359
358.225
358.058
357.864
357.653
357.432
357.215
357.034
349.581
349.734
349.921
350.113
350.296
350.464
350.609
350.725
350.806
350.848
350.848
350.806
350.725
350.609
350.464
350.296
350.113
349.921
349.734
349.581
342.063
342.19
342.348
342.51
342.666
342.808
342.931
343.029
343.098
343.133
343.133
343.098
343.029
342.931
342.808
342.666
342.51
342.348
342.19
342.063
334.492
334.594
334.723
334.856
334.984
335.1
335.201
335.281
335.338
335.366
335.366
335.338
335.281
335.201
335.1
334.984
334.856
334.723
334.594
334.492
326.879
326.957
327.057
327.16
327.26
327.35
327.429
327.492
327.535
327.558
327.558
327.535
327.492
327.429
327.35
327.26
327.16
327.057
326.957
326.879
319.232
319.287
319.359
319.432
319.503
319.568
319.624
319.669
319.7
319.717
319.717
319.7
319.669
319.624
319.568
319.503
319.432
319.359
319.287
319.232
311.561
311.594
311.637
311.682
311.724
311.763
311.797
311.824
311.843
311.852
311.852
311.843
311.824
311.797
311.763
311.724
311.682
311.637
311.594
311.561
303.877
303.888
303.903
303.917
303.932
303.945
303.956
303.965
303.971
303.975
303.975
303.971
303.965
303.956
303.945
303.932
303.917
303.903
303.888
303.877
359.139
359.306
359.506
359.709
359.903
360.079
360.231
360.352
360.436
360.479
360.479
360.436
360.352
360.231
360.079
359.903
359.709
359.506
359.306
359.139
351.374
351.515
351.689
351.865
352.033
352.186
352.318
352.423
352.496
352.534
352.534
352.496
352.423
352.318
352.186
352.033
351.865
351.689
351.515
351.374
343.558
343.675
343.821
343.971
344.113
344.243
344.355
344.444
344.507
344.538
344.538
344.507
344.444
344.355
344.243
344.113
343.971
343.821
343.675
343.558
335.699
335.794
335.913
336.036
336.153
336.259
336.351
336.424
336.475
336.501
336.501
336.475
336.424
336.351
336.259
336.153
336.036
335.913
335.794
335.699
327.807
327.88
327.973
328.068
328.159
328.242
328.314
328.371
328.411
328.431
328.431
328.411
328.371
328.314
328.242
328.159
328.068
327.973
327.88
327.807
319.89
319.941
320.008
320.076
320.141
320.201
320.252
320.293
320.321
320.336
320.336
320.321
320.293
320.252
320.201
320.141
320.076
320.008
319.941
319.89
311.955
311.985
312.025
312.066
312.105
312.141
312.172
312.196
312.213
312.222
312.222
312.213
312.196
312.172
312.141
312.105
312.066
312.025
311.985
311.955
304.009
304.019
304.032
304.046
304.059
304.071
304.081
304.09
304.095
304.098
304.098
304.095
304.09
304.081
304.071
304.059
304.046
304.032
304.019
304.009
360.78
360.937
361.126
361.316
361.497
361.661
361.803
361.915
361.993
362.033
362.033
361.993
361.915
361.803
361.661
361.497
361.316
361.126
360.937
360.78
352.72
352.853
353.016
353.182
353.34
353.483
353.607
353.705
353.773
353.808
353.808
353.773
353.705
353.607
353.483
353.34
353.182
353.016
352.853
352.72
344.645
344.756
344.894
345.035
345.169
345.291
345.396
345.479
345.537
345.567
345.567
345.537
345.479
345.396
345.291
345.169
345.035
344.894
344.756
344.645
336.556
336.646
336.759
336.874
336.985
337.085
337.171
337.24
337.287
337.312
337.312
337.287
337.24
337.171
337.085
336.985
336.874
336.759
336.646
336.556
328.455
328.523
328.611
328.702
328.788
328.866
328.933
328.987
329.024
329.043
329.043
329.024
328.987
328.933
328.866
328.788
328.702
328.611
328.523
328.455
320.342
320.391
320.454
320.519
320.58
320.637
320.685
320.723
320.75
320.763
320.763
320.75
320.723
320.685
320.637
320.58
320.519
320.454
320.391
320.342
312.223
312.252
312.289
312.328
312.365
312.399
312.428
312.451
312.467
312.475
312.475
312.467
312.451
312.428
312.399
312.365
312.328
312.289
312.252
312.223
304.098
304.107
304.12
304.133
304.146
304.157
304.167
304.174
304.18
304.183
304.183
304.18
304.174
304.167
304.157
304.146
304.133
304.12
304.107
304.098
)
;

boundaryField
{
    hotSide
    {
        type            fixedGradient;
        gradient        nonuniform List<scalar> 
400
(
377.958
379.264
381.882
385.821
391.095
397.722
405.721
415.114
425.924
438.174
451.884
467.077
483.77
501.98
521.723
543.011
565.854
590.262
616.241
643.797
384.136
385.394
387.916
391.715
396.81
403.224
410.983
420.116
430.651
442.618
456.043
470.952
487.368
505.31
524.797
545.841
568.456
592.65
618.429
645.801
390.822
392.022
394.429
398.062
402.945
409.109
416.588
425.418
435.637
447.28
460.381
474.971
491.078
508.724
527.929
548.71
571.077
595.042
620.611
647.789
397.906
399.037
401.311
404.752
409.391
415.267
422.426
430.914
440.777
452.059
464.803
479.044
494.815
512.142
531.048
551.548
573.658
597.385
622.736
649.715
405.188
406.243
408.368
411.593
415.96
421.518
428.325
436.439
445.916
456.811
469.173
483.045
498.465
515.461
534.058
554.274
576.121
599.61
624.744
651.527
412.367
413.34
415.305
418.301
422.378
427.602
434.04
441.763
450.842
461.34
473.315
486.816
501.885
518.554
536.848
556.787
578.381
601.641
626.569
653.166
419.03
419.921
421.727
424.494
428.286
433.179
439.257
446.602
455.296
465.415
477.022
490.173
504.914
521.279
539.294
558.979
580.344
603.397
628.14
654.572
424.685
425.502
427.165
429.727
433.264
437.863
443.62
450.632
458.991
468.779
480.068
492.92
507.381
523.489
541.27
560.742
581.917
604.8
629.39
655.687
428.823
429.584
431.137
433.543
436.885
441.261
446.777
453.539
461.646
471.188
482.243
494.873
509.13
525.05
542.661
561.98
583.018
605.779
630.261
656.462
431.016
431.746
433.239
435.56
438.797
443.052
448.437
455.064
463.036
472.447
483.376
495.889
510.037
525.859
543.38
562.619
583.585
606.282
630.708
656.859
431.016
431.746
433.239
435.56
438.797
443.052
448.437
455.064
463.036
472.447
483.376
495.889
510.037
525.859
543.38
562.619
583.585
606.282
630.708
656.859
428.823
429.584
431.137
433.543
436.885
441.261
446.777
453.539
461.646
471.188
482.243
494.873
509.13
525.05
542.661
561.98
583.018
605.779
630.261
656.462
424.685
425.502
427.165
429.727
433.264
437.863
443.62
450.632
458.991
468.779
480.068
492.92
507.381
523.489
541.27
560.742
581.917
604.8
629.39
655.687
419.03
419.921
421.727
424.494
428.286
433.179
439.257
446.602
455.296
465.415
477.022
490.173
504.914
521.279
539.294
558.979
580.344
603.397
628.14
654.572
412.367
413.34
415.305
418.301
422.378
427.602
434.04
441.763
450.842
461.34
473.315
486.816
501.885
518.554
536.848
556.787
578.381
601.641
626.569
653.166
405.188
406.243
408.368
411.593
415.96
421.518
428.325
436.439
445.916
456.811
469.173
483.045
498.465
515.461
534.058
554.274
576.121
599.61
624.744
651.527
397.906
399.037
401.311
404.752
409.391
415.267
422.426
430.914
440.777
452.059
464.803
479.044
494.815
512.142
531.048
551.548
573.658
597.385
622.736
649.715
390.822
392.022
394.429
398.062
402.945
409.109
416.588
425.418
435.637
447.28
460.381
474.971
491.078
508.724
527.929
548.71
571.077
595.042
620.611
647.789
384.136
385.394
387.916
391.715
396.81
403.224
410.983
420.116
430.651
442.618
456.043
470.952
487.368
505.31
524.797
545.841
568.456
592.65
618.429
645.801
377.958
379.264
381.882
385.821
391.095
397.722
405.721
415.114
425.924
438.174
451.884
467.077
483.77
501.98
521.723
543.011
565.854
590.262
616.241
643.797
)
;
    }
    coldSide
    {
        type            mixed;
        refValue        uniform 300;
        refGradient     uniform 0;
        valueFraction   uniform 0.991591;
        source          uniform 0;
        value           nonuniform List<scalar> 
400
(
300.021
300.021
300.021
300.022
300.022
300.022
300.023
300.023
300.024
300.024
300.025
300.026
300.027
300.028
300.029
300.03
300.031
300.033
300.034
300.034
300.021
300.021
300.022
300.022
300.022
300.022
300.023
300.023
300.024
300.025
300.025
300.026
300.027
300.028
300.029
300.03
300.031
300.033
300.034