/*--------------------------------*- C++ -*----------------------------------*\
| =========                 |                                                 |
| \\      /  F ield         | OpenFOAM: The Open Source CFD Toolbox           |
|  \\    /   O peration     | Version:  2212                                  |
|   \\  /    A nd           | Website:  www.openfoam.com                      |
|    \\/     M anipulation  |                                                 |
\*---------------------------------------------------------------------------*/
FoamFile
{
    version     2.0;
    format      ascii;
    arch        "LSB;label=32;scalar=64";
    class       volScalarField;
    location    "0";
    object      Ttrue;
}
// * * * * * * * * * * * * * * * * * * * * * * * * * * * * * * * * * * * * * //

dimensions      [0 0 0 1 0 0 0];

internalField   nonuniform List<scalar> 
3200
(
360.04
361.102
362.419
363.838
365.297
366.73
368.054
369.174
369.99
370.422
370.422
369.99
369.174
368.054
366.73
365.297
363.838
362.419
361.102
360.04
353.724
354.607
355.719
356.921
358.156
359.369
360.49
361.437
362.127
362.492
362.492
362.127
361.437
360.49
359.369
358.156
356.921
355.719
354.607
353.724
346.782
347.5
348.42
349.416
350.439
351.444
352.371
353.155
353.726
354.028
354.028
353.726
353.155
352.371
351.444
350.439
349.416
348.42
347.5
346.782
339.248
339.816
340.553
341.353
342.176
342.982
343.727
344.355
344.813
345.055
345.055
344.813
344.355
343.727
342.982
342.176
341.353
340.553
339.816
339.248
331.176
331.607
332.171
332.783
333.413
334.031
334.601
335.082
335.432
335.617
335.617
335.432
335.082
334.601
334.031
333.413
332.783
332.171
331.607
331.176
322.645
322.947
323.344
323.777
324.221
324.657
325.06
325.399
325.646
325.777
325.777
325.646
325.399
325.06
324.657
324.221
323.777
323.344
322.947
322.645
313.757
313.936
314.172
314.43
314.695
314.954
315.194
315.396
315.543
315.621
315.621
315.543
315.396
315.194
314.954
314.695
314.43
314.172
313.936
313.757
304.639
304.698
304.777
304.863
304.951
305.038
305.118
305.185
305.235
305.261
305.261
305.235
305.185
305.118
305.038
304.951
304.863
304.777
304.698
304.639
360.106
361.16
362.465
363.871
365.315
366.732
368.04
369.146
369.952
370.378
370.378
369.952
369.146
368.04
366.732
365.315
363.871
362.465
361.16
360.106
353.781
354.656
355.758
356.949
358.172
359.371
360.478
361.413
362.095
362.455
362.455
362.095
361.413
360.478
359.371
358.172
356.949
355.758
354.656
353.781
346.828
347.541
348.452
349.439
350.452
351.446
352.362
353.136
353.7
353.997
353.997
353.7
353.136
352.362
351.446
350.452
349.439
348.452
347.541
346.828
339.285
339.849
340.58
341.372
342.186
342.984
343.72
344.34
344.792
345.031
345.031
344.792
344.34
343.72
342.984
342.186
341.372
340.58
339.849
339.285
331.205
331.632
332.191
332.798
333.421
334.032
334.595
335.07
335.416
335.599
335.599
335.416
335.07
334.595
334.032
333.421
332.798
332.191
331.632
331.205
322.666
322.965
323.359
323.787
324.227
324.658
325.056
325.391
325.635
325.764
325.764
325.635
325.391
325.056
324.658
324.227
323.787
323.359
322.965
322.666
313.769
313.946
314.181
314.436
314.698
314.955
315.192
315.391
315.537
315.613
315.613
315.537
315.391
315.192
314.955
314.698
314.436
314.181
313.946
313.769
304.643
304.702
304.78
304.865
304.952
305.038
305.117
305.184
305.232
305.258
305.258
305.232
305.184
305.117
305.038
304.952
304.865
304.78
304.702
304.643
360.24
361.277
362.56
363.94
365.354
366.74
368.018
369.096
369.881
370.295
370.295
369.881
369.096
368.018
366.74
365.354
363.94
362.56
361.277
360.24
353.893
354.755
355.838
357.007
358.205
359.378
360.46
361.372
362.035
362.386
362.386
362.035
361.372
360.46
359.378
358.205
357.007
355.838
354.755
353.893
346.922
347.623
348.519
349.487
350.48
351.452
352.347
353.102
353.651
353.941
353.941
353.651
353.102
352.347
351.452
350.48
349.487
348.519
347.623
346.922
339.36
339.915
340.633
341.411
342.209
342.989
343.708
344.313
344.754
344.986
344.986
344.754
344.313
343.708
342.989
342.209
341.411
340.633
339.915
339.36
331.262
331.683
332.232
332.828
333.439
334.036
334.586
335.05
335.387
335.565
335.565
335.387
335.05
334.586
334.036
333.439
332.828
332.232
331.683
331.262
322.706
323
323.388
323.808
324.239
324.661
325.05
325.377
325.615
325.74
325.74
325.615
325.377
325.05
324.661
324.239
323.808
323.388
323
322.706
313.793
313.967
314.198
314.448
314.705
314.957
315.188
315.383
315.524
315.599
315.599
315.524
315.383
315.188
314.957
314.705
314.448
314.198
313.967
313.793
304.651
304.709
304.786
304.869
304.955
305.039
305.116
305.181
305.228
305.253
305.253
305.228
305.181
305.116
305.039
304.955
304.869
304.786
304.709
304.651
360.443
361.456
362.706
364.048
365.42
366.761
367.995
369.034
369.789
370.188
370.188
369.789
369.034
367.995
366.761
365.42
364.048
362.706
361.456
360.443
354.065
354.906
355.963
357.099
358.262
359.397
360.441
361.32
361.959
362.296
362.296
361.959
361.32
360.441
359.397
358.262
357.099
355.963
354.906
354.065
347.064
347.749
348.622
349.564
350.527
351.468
352.333
353.06
353.588
353.867
353.867
353.588
353.06
352.333
351.468
350.527
349.564
348.622
347.749
347.064
339.474
340.016
340.716
341.473
342.247
343.002
343.696
344.28
344.704
344.928
344.928
344.704
344.28
343.696
343.002
342.247
341.473
340.716
340.016
339.474
331.35
331.76
332.296
332.875
333.468
334.046
334.578
335.025
335.349
335.52
335.52
335.349
335.025
334.578
334.046
333.468
332.875
332.296
331.76
331.35
322.768
323.055
323.433
323.842
324.26
324.669
325.044
325.359
325.588
325.709
325.709
325.588
325.359
325.044
324.669
324.26
323.842
323.433
323.055
322.768
313.83
314
314.225
314.468
314.718
314.961
315.184
315.372
315.509
315.58
315.58
315.509
315.372
315.184
314.961
314.718
314.468
314.225
314
313.83
304.663
304.72
304.795
304.876
304.959
305.04
305.115
305.178
305.223
305.247
305.247
305.223
305.178
305.115
305.04
304.959
304.876
304.795
304.72
304.663
360.718
361.7
362.909
364.203
365.521
366.806
367.985
368.974
369.692
370.071
370.071
369.692
368.974
367.985
366.806
365.521
364.203
362.909
361.7
360.718
354.298
355.113
356.135
357.231
358.348
359.436
360.433
361.271
361.878
362.198
362.198
361.878
361.271
360.433
359.436
358.348
357.231
356.135
355.113
354.298
347.256
347.921
348.765
349.673
350.599
351.5
352.327
353.02
353.522
353.787
353.787
353.522
353.02
352.327
351.5
350.599
349.673
348.765
347.921
347.256
339.628
340.154
340.831
341.561
342.305
343.029
343.692
344.248
344.652
344.864
344.864
344.652
344.248
343.692
343.029
342.305
341.561
340.831
340.154
339.628
331.468
331.866
332.384
332.943
333.512
334.067
334.575
335.001
335.309
335.472
335.472
335.309
335.001
334.575
334.067
333.512
332.943
332.384
331.866
331.468
322.851
323.13
323.495
323.889
324.292
324.683
325.042
325.342
325.56
325.675
325.675
325.56
325.342
325.042
324.683
324.292
323.889
323.495
323.13
322.851
313.88
314.045
314.262
314.497
314.737
314.97
315.183
315.362
315.492
315.56
315.56
315.492
315.362
315.183
314.97
314.737
314.497
314.262
314.045
313.88
304.679
304.734
304.807
304.885
304.965
305.043
305.115
305.174
305.218
305.24
305.24
305.218
305.174
305.115
305.043
304.965
304.885
304.807
304.734
304.679
361.069
362.014
363.174
364.411
365.668
366.887
368.001
368.934
369.609
369.964
369.964
369.609
368.934
368.001
366.887
365.668
364.411
363.174
362.014
361.069
354.595
355.38
356.36
357.408
358.472
359.505
360.448
361.238
361.809
362.11
362.11
361.809
361.238
360.448
359.505
358.472
357.408
356.36
355.38
354.595
347.502
348.142
348.952
349.82
350.703
351.558
352.34
352.993
353.466
353.715
353.715
353.466
352.993
352.34
351.558
350.703
349.82
348.952
348.142
347.502
339.826
340.332
340.982
341.679
342.388
343.075
343.703
344.228
344.607
344.807
344.807
344.607
344.228
343.703
343.075
342.388
341.679
340.982
340.332
339.826
331.619
332.002
332.499
333.034
333.576
334.103
334.584
334.985
335.276
335.429
335.429
335.276
334.985
334.584
334.103
333.576
333.034
332.499
332.002
331.619
322.958
323.226
323.576
323.954
324.337
324.709
325.048
325.332
325.537
325.645
325.645
325.537
325.332
325.048
324.709
324.337
323.954
323.576
323.226
322.958
313.943
314.102
314.31
314.535
314.764
314.985
315.187
315.356
315.478
315.542
315.542
315.478
315.356
315.187
314.985
314.764
314.535
314.31
314.102
313.943
304.701
304.754
304.823
304.898
304.974
305.048
305.116
305.172
305.213
305.234
305.234
305.213
305.172
305.116
305.048
304.974
304.898
304.823
304.754
304.701
361.5
362.404
363.509
364.683
365.87
367.017
368.061
368.931
369.56
369.89
369.89
369.56
368.931
368.061
367.017
365.87
364.683
363.509
362.404
361.5
354.96
355.71
356.644
357.639
358.644
359.616
360.5
361.237
361.769
362.048
362.048
361.769
361.237
360.5
359.616
358.644
357.639
356.644
355.71
354.96
347.805
348.416
349.188
350.012
350.846
351.651
352.383
352.994
353.434
353.665
353.665
353.434
352.994
352.383
351.651
350.846
350.012
349.188
348.416
347.805
340.068
340.552
341.171
341.834
342.503
343.15
343.738
344.229
344.582
344.768
344.768
344.582
344.229
343.738
343.15
342.503
341.834
341.171
340.552
340.068
331.805
332.171
332.645
333.152
333.665
334.16
334.611
334.986
335.257
335.399
335.399
335.257
334.986
334.611
334.16
333.665
333.152
332.645
332.171
331.805
323.089
323.345
323.679
324.037
324.4
324.75
325.068
325.333
325.524
325.624
325.624
325.524
325.333
325.068
324.75
324.4
324.037
323.679
323.345
323.089
314.021
314.173
314.372
314.585
314.801
315.009
315.199
315.357
315.471
315.53
315.53
315.471
315.357
315.199
315.009
314.801
314.585
314.372
314.173
314.021
304.727
304.777
304.844
304.915
304.987
305.056
305.12
305.172
305.21
305.23
305.23
305.21
305.172
305.12
305.056
304.987
304.915
304.844
304.777
304.727
362.016
362.875
363.921
365.027
366.139
367.21
368.18
368.986
369.566
369.87
369.87
369.566
368.986
368.18
367.21
366.139
365.027
363.921
362.875
362.016
355.397
356.11
356.994
357.93
358.873
359.78
360.602
361.284
361.775
362.033
362.033
361.775
361.284
360.602
359.78
358.873
357.93
356.994
356.11
355.397
348.166
348.747
349.478
350.254
351.036
351.788
352.468
353.034
353.44
353.654
353.654
353.44
353.034
352.468
351.788
351.036
350.254
349.478
348.747
348.166
340.359
340.819
341.405
342.028
342.657
343.26
343.807
344.261
344.588
344.759
344.759
344.588
344.261
343.807
343.26
342.657
342.028
341.405
340.819
340.359
332.027
332.375
332.823
333.301
333.783
334.245
334.664
335.012
335.262
335.393
335.393
335.262
335.012
334.664
334.245
333.783
333.301
332.823
332.375
332.027
323.246
323.49
323.806
324.143
324.483
324.81
325.105
325.351
325.528
325.62
325.62
325.528
325.351
325.105
324.81
324.483
324.143
323.806
323.49
323.246
314.115
314.259
314.447
314.648
314.851
315.045
315.222
315.368
315.473
315.528
315.528
315.473
315.368
315.222
315.045
314.851
314.648
314.447
314.259
314.115
304.758
304.806
304.869
304.936
305.003
305.068
305.127
305.176
305.211
305.23
305.23
305.211
305.176
305.127
305.068
305.003
304.936
304.869
304.806
304.758
362.622
363.433
364.417
365.452
366.488
367.48
368.375
369.115
369.646
369.924
369.924
369.646
369.115
368.375
367.48
366.488
365.452
364.417
363.433
362.622
355.909
356.583
357.414
358.291
359.17
360.01
360.768
361.395
361.845
362.08
362.08
361.845
361.395
360.768
360.01
359.17
358.291
357.414
356.583
355.909
348.591
349.139
349.827
350.554
351.282
351.979
352.607
353.126
353.499
353.694
353.694
353.499
353.126
352.607
351.979
351.282
350.554
349.827
349.139
348.591
340.7
341.134
341.685
342.269
342.855
343.414
343.919
344.336
344.636
344.792
344.792
344.636
344.336
343.919
343.414
342.855
342.269
341.685
341.134
340.7
332.288
332.617
333.039
333.486
333.935
334.364
334.75
335.07
335.299
335.419
335.419
335.299
335.07
334.75
334.364
333.935
333.486
333.039
332.617
332.288
323.43
323.66
323.958
324.274
324.59
324.893
325.166
325.392
325.554
325.638
325.638
325.554
325.392
325.166
324.893
324.59
324.274
323.958
323.66
323.43
314.224
314.361
314.538
314.726
314.915
315.095
315.258
315.392
315.489
315.539
315.539
315.489
315.392
315.258
315.095
314.915
314.726
314.538
314.361
314.224
304.795
304.84
304.899
304.962
305.025
305.085
305.139
305.184
305.216
305.233
305.233
305.216
305.184
305.139
305.085
305.025
304.962
304.899
304.84
304.795
363.322
364.084
365.004
365.968
366.927
367.84
368.66
369.335
369.818
370.071
370.071
369.818
369.335
368.66
367.84
366.927
365.968
365.004
364.084
363.322
356.502
357.134
357.912
358.729
359.542
360.316
361.01
361.583
361.992
362.206
362.206
361.992
361.583
361.01
360.316
359.542
358.729
357.912
357.134
356.502
349.081
349.597
350.24
350.917
351.591
352.233
352.809
353.283
353.622
353.799
353.799
353.622
353.283
352.809
352.233
351.591
350.917
350.24
349.597
349.081
341.094
341.502
342.018
342.561
343.103
343.619
344.082
344.463
344.735
344.877
344.877
344.735
344.463
344.082
343.619
343.103
342.561
342.018
341.502
341.094
332.59
332.899
333.293
333.71
334.125
334.521
334.875
335.167
335.376
335.485
335.485
335.376
335.167
334.875
334.521
334.125
333.71
333.293
332.899
332.59
323.643
323.859
324.138
324.432
324.725
325.004
325.255
325.461
325.608
325.685
325.685
325.608
325.461
325.255
325.004
324.725
324.432
324.138
323.859
323.643
314.351
314.479
314.645
314.82
314.995
315.161
315.311
315.433
315.521
315.567
315.567
315.521
315.433
315.311
315.161
314.995
314.82
314.645
314.479
314.351
304.837
304.88
304.935
304.993
305.052
305.107
305.157
305.198
305.227
305.243
305.243
305.227
305.198
305.157
305.107
305.052
304.993
304.935
304.88
304.837
364.12
364.833
365.69
366.582
367.465
368.301
369.048
369.661
370.098
370.326
370.326
370.098
369.661
369.048
368.301
367.465
366.582
365.69
364.833
364.12
357.178
357.77
358.494
359.25
359.999
360.708
361.341
361.86
362.23
362.423
362.423
362.23
361.86
361.341
360.708
359.999
359.25
358.494
357.77
357.178
349.642
350.124
350.722
351.349
351.97
352.558
353.083
353.514
353.82
353.98
353.98
353.82
353.514
353.083
352.558
351.97
351.349
350.722
350.124
349.642
341.544
341.925
342.405
342.909
343.408
343.881
344.303
344.649
344.895
345.024
345.024
344.895
344.649
344.303
343.881
343.408
342.909
342.405
341.925
341.544
332.935
333.223
333.591
333.977
334.359
334.721
335.045
335.31
335.499
335.597
335.597
335.499
335.31
335.045
334.721
334.359
333.977
333.591
333.223
332.935
323.887
324.089
324.348
324.62
324.891
325.146
325.375
325.562
325.695
325.765
325.765
325.695
325.562
325.375
325.146
324.891
324.62
324.348
324.089
323.887
314.496
314.616
314.77
314.933
315.094
315.246
315.382
315.494
315.573
315.615
315.615
315.573
315.494
315.382
315.246
315.094
314.933
314.77
314.616
314.496
304.885
304.925
304.977
305.031
305.085
305.136
305.181
305.218
305.245
305.259
305.259
305.245
305.218
305.181
305.136
305.085
305.031
304.977
304.925
304.885
365.022
365.686
366.48
367.302
368.112
368.874
369.552
370.105
370.499
370.703
370.703
370.499
370.105
369.552
368.874
368.112
367.302
366.48
365.686
365.022
357.941
358.493
359.164
359.861
360.547
361.194
361.768
362.237
362.571
362.744
362.744
362.571
362.237
361.768
361.194
360.547
359.861
359.164
358.493
357.941
350.274
350.723
351.278
351.856
352.425
352.962
353.438
353.827
354.103
354.247
354.247
354.103
353.827
353.438
352.962
352.425
351.856
351.278
350.723
350.274
342.052
342.407
342.852
343.317
343.774
344.205
344.588
344.901
345.123
345.239
345.239
345.123
344.901
344.588
344.205
343.774
343.317
342.852
342.407
342.052
333.324
333.593
333.933
334.289
334.64
334.97
335.264
335.503
335.674
335.762
335.762
335.674
335.503
335.264
334.97
334.64
334.289
333.933
333.593
333.324
324.161
324.35
324.59
324.841
325.089
325.322
325.53
325.699
325.819
325.881
325.881
325.819
325.699
325.53
325.322
325.089
324.841
324.59
324.35
324.161
314.66
314.772
314.914
315.064
315.212
315.351
315.474
315.575
315.647
315.684
315.684
315.647
315.575
315.474
315.351
315.212
315.064
314.914
314.772
314.66
304.94
304.977
305.025
305.075
305.124
305.171
305.212
305.245
305.269
305.282
305.282
305.269
305.245
305.212
305.171
305.124
305.075
305.025
304.977
304.94
366.03
366.647
367.38
368.135
368.874
369.567
370.179
370.677
371.03
371.213
371.213
371.03
370.677
370.179
369.567
368.874
368.135
367.38
366.647
366.03
358.796
359.307
359.927
360.567
361.194
361.781
362.3
362.723
363.022
363.177
363.177
363.022
362.723
362.3
361.781
361.194
360.567
359.927
359.307
358.796
350.982
351.399
351.911
352.442
352.962
353.449
353.88
354.23
354.478
354.606
354.606
354.478
354.23
353.88
353.449
352.962
352.442
351.911
351.399
350.982
342.621
342.95
343.361
343.788
344.206
344.597
344.944
345.225
345.424
345.528
345.528
345.424
345.225
344.944
344.597
344.206
343.788
343.361
342.95
342.621
333.76
334.009
334.324
334.65
334.971
335.271
335.536
335.752
335.905
335.984
335.984
335.905
335.752
335.536
335.271
334.971
334.65
334.324
334.009
333.76
324.469
324.644
324.865
325.096
325.323
325.535
325.722
325.875
325.982
326.038
326.038
325.982
325.875
325.722
325.535
325.323
325.096
324.865
324.644
324.469
314.843
314.947
315.079
315.216
315.351
315.478
315.589
315.68
315.744
315.778
315.778
315.744
315.68
315.589
315.478
315.351
315.216
315.079
314.947
314.843
305.001
305.036
305.08
305.126
305.171
305.213
305.25
305.28
305.302
305.313
305.313
305.302
305.28
305.25
305.213
305.171
305.126
305.08
305.036
305.001
367.149
367.719
368.394
369.085
369.758
370.385
370.937
371.384
371.699
371.863
371.863
371.699
371.384
370.937
370.385
369.758
369.085
368.394
367.719
367.149
359.744
360.217
360.787
361.373
361.944
362.475
362.943
363.322
363.59
363.728
363.728
363.59
363.322
362.943
362.475
361.944
361.373
360.787
360.217
359.744
351.768
352.153
352.625
353.111
353.584
354.025
354.413
354.727
354.949
355.064
355.064
354.949
354.727
354.413
354.025
353.584
353.111
352.625
352.153
351.768
343.252
343.556
343.935
344.325
344.706
345.061
345.373
345.625
345.804
345.896
345.896
345.804
345.625
345.373
345.061
344.706
344.325
343.935
343.556
343.252
334.243
334.474
334.763
335.062
335.354
335.626
335.865
336.059
336.196
336.266
336.266
336.196
336.059
335.865
335.626
335.354
335.062
334.763
334.474
334.243
324.811
324.972
325.176
325.387
325.594
325.786
325.955
326.091
326.188
326.238
326.238
326.188
326.091
325.955
325.786
325.594
325.387
325.176
324.972
324.811
315.047
315.142
315.264
315.39
315.513
315.627
315.728
315.809
315.867
315.897
315.897
315.867
315.809
315.728
315.627
315.513
315.39
315.264
315.142
315.047
305.069
305.101
305.141
305.184
305.225
305.263
305.296
305.324
305.343
305.353
305.353
305.343
305.324
305.296
305.263
305.225
305.184
305.141
305.101
305.069
368.381
368.906
369.526
370.157
370.768
371.334
371.83
372.23
372.512
372.657
372.657
372.512
372.23
371.83
371.334
370.768
370.157
369.526
368.906
368.381
360.787
361.223
361.747
362.282
362.8
363.28
363.7
364.04
364.279
364.402
364.402
364.279
364.04
363.7
363.28
362.8
362.282
361.747
361.223
360.787
352.632
352.987
353.42
353.864
354.294
354.692
355.041
355.323
355.521
355.623
355.623
355.521
355.323
355.041
354.692
354.294
353.864
353.42
352.987
352.632
343.946
344.227
344.575
344.931
345.277
345.597
345.878
346.104
346.263
346.346
346.346
346.263
346.104
345.878
345.597
345.277
344.931
344.575
344.227
343.946
334.775
334.988
335.253
335.527
335.792
336.037
336.252
336.426
336.548
336.611
336.611
336.548
336.426
336.252
336.037
335.792
335.527
335.253
334.988
334.775
325.186
325.335
325.522
325.715
325.903
326.076
326.228
326.351
326.437
326.482
326.482
326.437
326.351
326.228
326.076
325.903
325.715
325.522
325.335
325.186
315.271
315.359
315.47
315.585
315.697
315.8
315.891
315.964
316.015
316.042
316.042
316.015
315.964
315.891
315.8
315.697
315.585
315.47
315.359
315.271
305.144
305.173
305.21
305.249
305.286
305.321
305.351
305.375
305.392
305.401
305.401
305.392
305.375
305.351
305.321
305.286
305.249
305.21
305.173
305.144
369.724
370.208
370.775
371.35
371.904
372.414
372.859
373.217
373.468
373.597
373.597
373.468
373.217
372.859
372.414
371.904
371.35
370.775
370.208
369.724
361.924
362.326
362.805
363.293
363.762
364.195
364.573
364.876
365.089
365.199
365.199
365.089
364.876
364.573
364.195
363.762
363.293
362.805
362.326
361.924
353.575
353.901
354.298
354.702
355.092
355.451
355.765
356.016
356.193
356.284
356.284
356.193
356.016
355.765
355.451
355.092
354.702
354.298
353.901
353.575
344.703
344.962
345.28
345.605
345.918
346.207
346.459
346.661
346.803
346.877
346.877
346.803
346.661
346.459
346.207
345.918
345.605
345.28
344.962
344.703
335.355
335.55
335.794
336.043
336.283
336.505
336.698
336.853
336.962
337.018
337.018
336.962
336.853
336.698
336.505
336.283
336.043
335.794
335.55
335.355
325.595
325.732
325.904
326.08
326.25
326.406
326.543
326.652
326.729
326.769
326.769
326.729
326.652
326.543
326.406
326.25
326.08
325.904
325.732
325.595
315.514
315.595
315.698
315.802
315.904
315.997
316.078
316.144
316.189
316.213
316.213
316.189
316.144
316.078
315.997
315.904
315.802
315.698
315.595
315.514
305.225
305.252
305.286
305.321
305.355
305.386
305.413
305.435
305.45
305.458
305.458
305.45
305.435
305.413
305.386
305.355
305.321
305.286
305.252
305.225
371.172
371.617
372.136
372.659
373.16
373.62
374.019
374.339
374.562
374.678
374.678
374.562
374.339
374.019
373.62
373.16
372.659
372.136
371.617
371.172
363.149
363.518
363.957
364.4
364.826
365.216
365.554
365.826
366.015
366.113
366.113
366.015
365.826
365.554
365.216
364.826
364.4
363.957
363.518
363.149
354.588
354.888
355.251
355.619
355.972
356.296
356.577
356.802
356.96
357.041
357.041
356.96
356.802
356.577
356.296
355.972
355.619
355.251
354.888
354.588
345.516
345.754
346.045
346.341
346.625
346.885
347.111
347.292
347.419
347.484
347.484
347.419
347.292
347.111
346.885
346.625
346.341
346.045
345.754
345.516
335.977
336.157
336.379
336.606
336.824
337.024
337.197
337.336
337.433
337.483
337.483
337.433
337.336
337.197
337.024
336.824
336.606
336.379
336.157
335.977
326.034
326.16
326.317
326.477
326.631
326.772
326.895
326.993
327.062
327.097
327.097
327.062
326.993
326.895
326.772
326.631
326.477
326.317
326.16
326.034
315.776
315.85
315.944
316.039
316.131
316.215
316.288
316.346
316.387
316.408
316.408
316.387
316.346
316.288
316.215
316.131
316.039
315.944
315.85
315.776
305.312
305.337
305.368
305.4
305.431
305.459
305.483
305.503
305.517
305.524
305.524
305.517
305.503
305.483
305.459
305.431
305.4
305.368
305.337
305.312
372.697
373.106
373.581
374.057
374.511
374.926
375.284
375.57
375.77
375.873
375.873
375.77
375.57
375.284
374.926
374.511
374.057
373.581
373.106
372.697
364.434
364.773
365.175
365.579
365.965
366.317
366.621
366.864
367.033
367.12
367.12
367.033
366.864
366.621
366.317
365.965
365.579
365.175
364.773
364.434
355.648
355.924
356.256
356.592
356.912
357.204
357.457
357.658
357.799
357.871
357.871
357.799
357.658
357.457
357.204
356.912
356.592
356.256
355.924
355.648
346.364
346.582
346.849
347.119
347.376
347.612
347.815
347.977
348.09
348.148
348.148
348.09
347.977
347.815
347.612
347.376
347.119
346.849
346.582
346.364
336.624
336.789
336.993
337.2
337.398
337.578
337.734
337.859
337.945
337.99
337.99
337.945
337.859
337.734
337.578
337.398
337.2
336.993
336.789
336.624
326.49
326.606
326.75
326.896
327.035
327.163
327.273
327.361
327.422
327.454
327.454
327.422
327.361
327.273
327.163
327.035
326.896
326.75
326.606
326.49
316.047
316.115
316.201
316.288
316.371
316.447
316.513
316.565
316.602
316.621
316.621
316.602
316.565
316.513
316.447
316.371
316.288
316.201
316.115
316.047
305.403
305.426
305.454
305.483
305.511
305.536
305.558
305.576
305.588
305.594
305.594
305.588
305.576
305.558
305.536
305.511
305.483
305.454
305.426
305.403
374.212
374.589
375.026
375.462
375.875
376.252
376.576
376.834
377.013
377.105
377.105
377.013
376.834
376.576
376.252
375.875
375.462
375.026
374.589
374.212
365.697
366.01
366.38
366.75
367.102
367.422
367.697
367.916
368.069
368.147
368.147
368.069
367.916
367.697
367.422
367.102
366.75
366.38
366.01
365.697
356.679
356.934
357.24
357.548
357.84
358.106
358.335
358.517
358.644
358.709
358.709
358.644
358.517
358.335
358.106
357.84
357.548
357.24
356.934
356.679
347.181
347.383
347.629
347.877
348.112
348.326
348.511
348.658
348.76
348.812
348.812
348.76
348.658
348.511
348.326
348.112
347.877
347.629
347.383
347.181
337.244
337.396
337.585
337.775
337.955
338.12
338.261
338.374
338.453
338.493
338.493
338.453
338.374
338.261
338.12
337.955
337.775
337.585
337.396
337.244
326.924
327.031
327.164
327.298
327.426
327.542
327.642
327.722
327.777
327.806
327.806
327.777
327.722
327.642
327.542
327.426
327.298
327.164
327.031
326.924
316.304
316.367
316.446
316.526
316.602
316.672
316.732
316.779
316.812
316.829
316.829
316.812
316.779
316.732
316.672
316.602
316.526
316.446
316.367
316.304
305.488
305.509
305.536
305.563
305.588
305.611
305.631
305.647
305.658
305.664
305.664
305.658
305.647
305.631
305.611
305.588
305.563
305.536
305.509
305.488
375.45
375.803
376.212
376.619
377.004
377.353
377.653
377.891
378.056
378.141
378.141
378.056
377.891
377.653
377.353
377.004
376.619
376.212
375.803
375.45
366.69
366.984
367.331
367.678
368.006
368.304
368.559
368.762
368.903
368.976
368.976
368.903
368.762
368.559
368.304
368.006
367.678
367.331
366.984
366.69
357.464
357.704
357.993
358.281
358.555
358.803
359.016
359.185
359.303
359.363
359.363
359.303
359.185
359.016
358.803
358.555
358.281
357.993
357.704
357.464
347.788
347.979
348.211
348.444
348.665
348.865
349.037
349.174
349.269
349.317
349.317
349.269
349.174
349.037
348.865
348.665
348.444
348.211
347.979
347.788
337.694
337.839
338.017
338.196
338.366
338.52
338.652
338.757
338.83
338.868
338.868
338.83
338.757
338.652
338.52
338.366
338.196
338.017
337.839
337.694
327.235
327.336
327.462
327.589
327.709
327.818
327.912
327.986
328.038
328.064
328.064
328.038
327.986
327.912
327.818
327.709
327.589
327.462
327.336
327.235
316.486
316.546
316.621
316.697
316.768
316.834
316.889
316.934
316.965
316.981
316.981
316.965
316.934
316.889
316.834
316.768
316.697
316.621
316.546
316.486
305.549
305.569
305.594
305.619
305.643
305.665
305.683
305.698
305.709
305.714
305.714
305.709
305.698
305.683
305.665
305.643
305.619
305.594
305.569
305.549
)
;

boundaryField
{
    hotSide
    {
        type            fixedGradient;
        gradient        nonuniform List<scalar> 
400
(
453.559
454.425
456.169
458.817
462.404
466.977
472.586
479.287
487.14
496.202
506.529
518.176
531.19
545.616
561.492
578.85
597.718
618.119
640.07
663.585
469.534
470.273
471.769
474.055
477.18
481.203
486.192
492.22
499.362
507.693
517.282
528.196
540.494
554.227
569.439
586.168
604.445
624.292
645.728
668.767
486.823
487.411
488.611
490.468
493.045
496.42
500.684
505.93
512.253
519.747
528.499
538.589
550.087
563.054
577.539
593.585
611.224
630.479
651.37
673.907
505.138
505.551
506.407
507.766
509.711
512.344
515.781
520.141
525.544
532.106
539.933
549.12
559.75
571.892
585.602
600.926
617.896
636.536
656.864
678.888
523.969
524.184
524.654
525.456
526.697
528.508
531.034
534.426
538.831
544.391
551.232
559.466
569.187
580.473
593.386
607.973
624.266
642.289
662.056
683.573
542.53
542.533
542.591
542.799
543.293
544.237
545.809
548.194
551.57
556.103
561.943
569.217
578.031
588.471
600.601
614.47
630.11
647.541
666.774
687.811
559.758
559.55
559.196
558.814
558.57
558.66
559.299
560.705
563.087
566.638
571.527
577.897
585.863
595.517
606.926
620.138
635.185
652.082
670.837
691.447
574.381
573.981
573.256
572.345
571.44
570.77
570.582
571.127
572.64
575.337
579.405
584.999
592.242
601.231
612.034
624.699
639.252
655.709
674.07
694.33
585.081
584.536
583.527
582.211
580.803
579.557
578.745
578.642
579.505
581.567
585.027
590.049
596.764
605.268
615.632
627.9
642.099
658.24
676.321
696.333
590.752
590.126
588.963
587.427
585.746
584.187
583.038
582.586
583.1
584.822
587.958
592.677
599.111
607.359
617.491
629.552
643.566
659.542
677.477
697.36
590.752
590.126
588.963
587.427
585.746
584.187
583.038
582.586
583.1
584.822
587.958
592.677
599.111
607.359
617.491
629.552
643.566
659.542
677.477
697.36
585.081
584.536
583.527
582.211
580.803
579.557
578.745
578.642
579.505
581.567
585.027
590.049
596.764
605.268
615.632
627.9
642.099
658.24
676.321
696.333
574.381
573.981
573.256
572.345
571.44
570.77
570.582
571.127
572.64
575.337
579.405
584.999
592.242
601.231
612.034
624.699
639.252
655.709
674.07
694.33
559.758
559.55
559.196
558.814
558.57
558.66
559.299
560.705
563.087
566.638
571.527
577.897
585.863
595.517
606.926
620.138
635.185
652.082
670.837
691.447
542.53
542.533
542.591
542.799
543.293
544.237
545.809
548.194
551.57
556.103
561.943
569.217
578.031
588.471
600.601
614.47
630.11
647.541
666.774
687.811
523.969
524.184
524.654
525.456
526.697
528.508
531.034
534.426
538.831
544.391
551.232
559.466
569.187
580.473
593.386
607.973
624.266
642.289
662.056
683.573
505.138
505.551
506.407
507.766
509.711
512.344
515.781
520.141
525.544
532.106
539.933
549.12
559.75
571.892
585.602
600.926
617.896
636.536
656.864
678.888
486.823
487.411
488.611
490.468
493.045
496.42
500.684
505.93
512.253
519.747
528.499
538.589
550.087
563.054
577.539
593.585
611.224
630.479
651.37
673.907
469.534
470.273
471.769
474.055
477.18
481.203
486.192
492.22
499.362
507.693
517.282
528.196
540.494
554.227
569.439
586.168
604.445
624.292
645.728
668.767
453.559
454.425
456.169
458.817
462.404
466.977
472.586
479.287
487.14
496.202
506.529
518.176
531.19
545.616
561.492
578.85
597.718
618.119
640.07
663.585
)
;
    }
    coldSide
    {
        type            mixed;
        refValue        uniform 300;
        refGradient     uniform 0;
        valueFraction   uniform 0.991591;
        source          uniform 0;
        value           nonuniform List<scalar> 
400
(
300.039
300.039
300.039
300.039
300.039
300.04
300.04
300.04
300.04
300.041
300.041
300.042
300.042
300.043
300.043
300.044
300.045
300.045
300.046
300.047
300.04
300.04
300.04
300.04
300.04
300.04
300.04
300.04
300.041
300.041
300.041
300.042
300.042
300.043
300.044
300.044
300.045
300.046
300.046
300.047
300.04
300.04
300.04
300.04
300.04
300.041
300.041