/*--------------------------------*- C++ -*----------------------------------*\
| =========                 |                                                 |
| \\      /  F ield         | OpenFOAM: The Open Source CFD Toolbox           |
|  \\    /   O peration     | Version:  2212                                  |
|   \\  /    A nd           | Website:  www.openfoam.com                      |
|    \\/     M anipulation  |                                                 |
\*---------------------------------------------------------------------------*/
FoamFile
{
    version     2.0;
    format      ascii;
    arch        "LSB;label=32;scalar=64";
    class       volScalarField;
    location    "0";
    object      Tdirect;
}
// * * * * * * * * * * * * * * * * * * * * * * * * * * * * * * * * * * * * * //

dimensions      [0 0 0 1 0 0 0];

internalField   nonuniform List<scalar> 
3200
(
342.545
343.653
345.069
346.611
348.2
349.759
351.198
352.413
353.298
353.766
353.766
353.298
352.413
351.198
349.759
348.2
346.611
345.069
343.653
342.545
336.932
337.871
339.092
340.426
341.8
343.149
344.393
345.443
346.207
346.61
346.61
346.207
345.443
344.393
343.149
341.8
340.426
339.092
337.871
336.932
331.296
332.074
333.103
334.23
335.391
336.53
337.581
338.466
339.111
339.452
339.452
339.111
338.466
337.581
336.53
335.391
334.23
333.103
332.074
331.296
325.638
326.265
327.103
328.024
328.974
329.904
330.762
331.485
332.012
332.289
332.289
332.012
331.485
330.762
329.904
328.974
328.024
327.103
326.265
325.638
319.964
320.445
321.095
321.811
322.549
323.272
323.939
324.5
324.908
325.124
325.124
324.908
324.5
323.939
323.272
322.549
321.811
321.095
320.445
319.964
314.277
314.617
315.081
315.592
316.118
316.635
317.11
317.511
317.803
317.956
317.956
317.803
317.511
317.11
316.635
316.118
315.592
315.081
314.617
314.277
308.579
308.783
309.061
309.367
309.684
309.994
310.279
310.52
310.694
310.787
310.787
310.694
310.52
310.279
309.994
309.684
309.367
309.061
308.783
308.579
302.877
302.945
303.038
303.14
303.246
303.35
303.446
303.526
303.585
303.616
303.616
303.585
303.526
303.446
303.35
303.246
303.14
303.038
302.945
302.877
342.63
343.73
345.134
346.662
348.234
349.776
351.198
352.398
353.272
353.733
353.733
353.272
352.398
351.198
349.776
348.234
346.662
345.134
343.73
342.63
337.006
337.937
339.148
340.469
341.83
343.164
344.393
345.43
346.184
346.582
346.582
346.184
345.43
344.393
343.164
341.83
340.469
339.148
337.937
337.006
331.358
332.13
333.15
334.267
335.416
336.543
337.581
338.456
339.092
339.428
339.428
339.092
338.456
337.581
336.543
335.416
334.267
333.15
332.13
331.358
325.689
326.311
327.142
328.055
328.994
329.915
330.763
331.477
331.996
332.271
332.271
331.996
331.477
330.763
329.915
328.994
328.055
327.142
326.311
325.689
320.004
320.481
321.126
321.835
322.565
323.28
323.939
324.494
324.897
325.11
325.11
324.897
324.494
323.939
323.28
322.565
321.835
321.126
320.481
320.004
314.305
314.643
315.102
315.608
316.13
316.641
317.111
317.507
317.794
317.946
317.946
317.794
317.507
317.111
316.641
316.13
315.608
315.102
314.643
314.305
308.596
308.798
309.074
309.377
309.691
309.997
310.279
310.517
310.69
310.781
310.781
310.69
310.517
310.279
309.997
309.691
309.377
309.074
308.798
308.596
302.882
302.95
303.042
303.144
303.249
303.351
303.446
303.526
303.583
303.614
303.614
303.583
303.526
303.446
303.351
303.249
303.144
303.042
302.95
302.882
342.803
343.885
345.265
346.764
348.305
349.814
351.203
352.373
353.225
353.674
353.674
353.225
352.373
351.203
349.814
348.305
346.764
345.265
343.885
342.803
337.155
338.072
339.261
340.559
341.892
343.197
344.398
345.409
346.145
346.533
346.533
346.145
345.409
344.398
343.197
341.892
340.559
339.261
338.072
337.155
331.484
332.244
333.246
334.342
335.469
336.571
337.586
338.439
339.06
339.387
339.387
339.06
338.439
337.586
336.571
335.469
334.342
333.246
332.244
331.484
325.792
326.404
327.221
328.116
329.037
329.938
330.767
331.464
331.97
332.237
332.237
331.97
331.464
330.767
329.938
329.037
328.116
327.221
326.404
325.792
320.083
320.553
321.187
321.883
322.599
323.299
323.942
324.484
324.877
325.084
325.084
324.877
324.484
323.942
323.299
322.599
321.883
321.187
320.553
320.083
314.362
314.694
315.146
315.643
316.154
316.654
317.113
317.5
317.78
317.928
317.928
317.78
317.5
317.113
316.654
316.154
315.643
315.146
314.694
314.362
308.63
308.829
309.1
309.398
309.705
310.005
310.281
310.513
310.681
310.77
310.77
310.681
310.513
310.281
310.005
309.705
309.398
309.1
308.829
308.63
302.894
302.96
303.051
303.151
303.254
303.354
303.447
303.524
303.581
303.61
303.61
303.581
303.524
303.447
303.354
303.254
303.151
303.051
302.96
302.894
343.064
344.121
345.466
346.925
348.42
349.88
351.222
352.351
353.17
353.602
353.602
353.17
352.351
351.222
349.88
348.42
346.925
345.466
344.121
343.064
337.381
338.276
339.436
340.698
341.992
343.255
344.416
345.391
346.099
346.472
346.472
346.099
345.391
344.416
343.255
341.992
340.698
339.436
338.276
337.381
331.674
332.417
333.394
334.46
335.554
336.621
337.601
338.424
339.022
339.336
339.336
339.022
338.424
337.601
336.621
335.554
334.46
333.394
332.417
331.674
325.947
326.545
327.341
328.213
329.107
329.979
330.78
331.452
331.94
332.196
332.196
331.94
331.452
330.78
329.979
329.107
328.213
327.341
326.545
325.947
320.204
320.663
321.281
321.958
322.653
323.331
323.953
324.475
324.853
325.053
325.053
324.853
324.475
323.953
323.331
322.653
321.958
321.281
320.663
320.204
314.448
314.772
315.213
315.696
316.193
316.677
317.121
317.493
317.764
317.906
317.906
317.764
317.493
317.121
316.677
316.193
315.696
315.213
314.772
314.448
308.682
308.876
309.14
309.43
309.728
310.019
310.285
310.509
310.671
310.757
310.757
310.671
310.509
310.285
310.019
309.728
309.43
309.14
308.876
308.682
302.911
302.976
303.064
303.161
303.261
303.359
303.448
303.523
303.577
303.606
303.606
303.577
303.523
303.448
303.359
303.261
303.161
303.064
302.976
302.911
343.418
344.443
345.743
347.15
348.587
349.987
351.269
352.345
353.124
353.535
353.535
353.124
352.345
351.269
349.987
348.587
347.15
345.743
344.443
343.418
337.687
338.554
339.676
340.893
342.137
343.348
344.457
345.387
346.06
346.415
346.415
346.06
345.387
344.457
343.348
342.137
340.893
339.676
338.554
337.687
331.932
332.652
333.597
334.625
335.677
336.7
337.637
338.422
338.99
339.29
339.29
338.99
338.422
337.637
336.7
335.677
334.625
333.597
332.652
331.932
326.158
326.737
327.507
328.348
329.208
330.044
330.809
331.451
331.915
332.159
332.159
331.915
331.451
330.809
330.044
329.208
328.348
327.507
326.737
326.158
320.368
320.812
321.41
322.063
322.731
323.381
323.976
324.474
324.835
325.024
325.024
324.835
324.474
323.976
323.381
322.731
322.063
321.41
320.812
320.368
314.564
314.879
315.305
315.771
316.249
316.713
317.138
317.493
317.75
317.886
317.886
317.75
317.493
317.138
316.713
316.249
315.771
315.305
314.879
314.564
308.752
308.94
309.195
309.475
309.762
310.041
310.296
310.509
310.663
310.745
310.745
310.663
310.509
310.296
310.041
309.762
309.475
309.195
308.94
308.752
302.934
302.997
303.083
303.177
303.273
303.366
303.451
303.523
303.575
303.602
303.602
303.575
303.523
303.451
303.366
303.273
303.177
303.083
302.997
302.934
343.868
344.854
346.103
347.448
348.817
350.146
351.36
352.374
353.108
353.494
353.494
353.108
352.374
351.36
350.146
348.817
347.448
346.103
344.854
343.868
338.075
338.91
339.987
341.151
342.337
343.487
344.536
345.414
346.048
346.381
346.381
346.048
345.414
344.536
343.487
342.337
341.151
339.987
338.91
338.075
332.26
332.953
333.86
334.843
335.846
336.818
337.705
338.445
338.981
339.262
339.262
338.981
338.445
337.705
336.818
335.846
334.843
333.86
332.953
332.26
326.426
326.983
327.723
328.527
329.346
330.141
330.865
331.471
331.908
332.138
332.138
331.908
331.471
330.865
330.141
329.346
328.527
327.723
326.983
326.426
320.576
321.004
321.577
322.202
322.839
323.457
324.02
324.49
324.83
325.008
325.008
324.83
324.49
324.02
323.457
322.839
322.202
321.577
321.004
320.576
314.713
315.016
315.425
315.871
316.326
316.767
317.169
317.505
317.747
317.874
317.874
317.747
317.505
317.169
316.767
316.326
315.871
315.425
315.016
314.713
308.841
309.022
309.267
309.535
309.808
310.073
310.315
310.516
310.662
310.738
310.738
310.662
310.516
310.315
310.073
309.808
309.535
309.267
309.022
308.841
302.964
303.025
303.107
303.197
303.288
303.377
303.458
303.525
303.574
303.6
303.6
303.574
303.525
303.458
303.377
303.288
303.197
303.107
303.025
302.964
344.419
345.362
346.551
347.828
349.123
350.373
351.511
352.459
353.143
353.502
353.502
353.143
352.459
351.511
350.373
349.123
347.828
346.551
345.362
344.419
338.552
339.35
340.376
341.481
342.601
343.684
344.668
345.488
346.079
346.39
346.39
346.079
345.488
344.668
343.684
342.601
341.481
340.376
339.35
338.552
332.662
333.324
334.189
335.122
336.07
336.985
337.817
338.51
339.009
339.271
339.271
339.009
338.51
337.817
336.985
336.07
335.122
334.189
333.324
332.662
326.754
327.287
327.992
328.755
329.53
330.278
330.958
331.524
331.931
332.145
332.145
331.931
331.524
330.958
330.278
329.53
328.755
327.992
327.287
326.754
320.83
321.24
321.786
322.379
322.982
323.563
324.092
324.532
324.848
325.015
325.015
324.848
324.532
324.092
323.563
322.982
322.379
321.786
321.24
320.83
314.895
315.184
315.574
315.998
316.428
316.843
317.221
317.535
317.761
317.879
317.879
317.761
317.535
317.221
316.843
316.428
315.998
315.574
315.184
314.895
308.95
309.123
309.357
309.611
309.87
310.119
310.346
310.534
310.67
310.741
310.741
310.67
310.534
310.346
310.119
309.87
309.611
309.357
309.123
308.95
303.001
303.059
303.137
303.222
303.309
303.392
303.468
303.531
303.577
303.601
303.601
303.577
303.531
303.468
303.392
303.309
303.222
303.137
303.059
303.001
345.076
345.972
347.098
348.301
349.515
350.683
351.741
352.619
353.251
353.582
353.582
353.251
352.619
351.741
350.683
349.515
348.301
347.098
345.972
345.076
339.12
339.878
340.849
341.89
342.942
343.953
344.869
345.628
346.175
346.461
346.461
346.175
345.628
344.869
343.953
342.942
341.89
340.849
339.878
339.12
333.142
333.771
334.589
335.469
336.358
337.213
337.987
338.629
339.09
339.332
339.332
339.09
338.629
337.987
337.213
336.358
335.469
334.589
333.771
333.142
327.146
327.652
328.319
329.038
329.765
330.465
331.097
331.622
331.999
332.196
332.196
331.999
331.622
331.097
330.465
329.765
329.038
328.319
327.652
327.146
321.135
321.523
322.041
322.6
323.165
323.709
324.2
324.608
324.901
325.055
325.055
324.901
324.608
324.2
323.709
323.165
322.6
322.041
321.523
321.135
315.112
315.387
315.756
316.155
316.559
316.947
317.298
317.59
317.799
317.908
317.908
317.799
317.59
317.298
316.947
316.559
316.155
315.756
315.387
315.112
309.081
309.245
309.466
309.706
309.948
310.182
310.392
310.567
310.693
310.759
310.759
310.693
310.567
310.392
310.182
309.948
309.706
309.466
309.245
309.081
303.045
303.099
303.173
303.254
303.335
303.413
303.484
303.543
303.585
303.607
303.607
303.585
303.543
303.484
303.413
303.335
303.254
303.173
303.099
303.045
345.845
346.691
347.75
348.877
350.008
351.091
352.067
352.875
353.454
353.756
353.756
353.454
352.875
352.067
351.091
350.008
348.877
347.75
346.691
345.845
339.784
340.5
341.414
342.389
343.369
344.307
345.152
345.851
346.351
346.613
346.613
346.351
345.851
345.152
344.307
343.369
342.389
341.414
340.5
339.784
333.702
334.297
335.066
335.891
336.719
337.512
338.227
338.817
339.241
339.462
339.462
339.241
338.817
338.227
337.512
336.719
335.891
335.066
334.297
333.702
327.604
328.082
328.709
329.383
330.061
330.71
331.294
331.777
332.122
332.303
332.303
332.122
331.777
331.294
330.71
330.061
329.383
328.709
328.082
327.604
321.49
321.857
322.344
322.868
323.395
323.899
324.354
324.729
324.998
325.138
325.138
324.998
324.729
324.354
323.899
323.395
322.868
322.344
321.857
321.49
315.366
315.626
315.973
316.347
316.723
317.084
317.408
317.676
317.868
317.968
317.968
317.868
317.676
317.408
317.084
316.723
316.347
315.973
315.626
315.366
309.233
309.388
309.596
309.821
310.047
310.263
310.458
310.619
310.734
310.795
310.795
310.734
310.619
310.458
310.263
310.047
309.821
309.596
309.388
309.233
303.096
303.147
303.217
303.292
303.368
303.441
303.506
303.56
303.599
303.619
303.619
303.599
303.56
303.506
303.441
303.368
303.292
303.217
303.147
303.096
346.73
347.525
348.516
349.565
350.613
351.61
352.506
353.243
353.77
354.045
354.045
353.77
353.243
352.506
351.61
350.613
349.565
348.516
347.525
346.73
340.549
341.222
342.077
342.985
343.893
344.757
345.532
346.17
346.626
346.864
346.864
346.626
346.17
345.532
344.757
343.893
342.985
342.077
341.222
340.549
334.349
334.907
335.627
336.395
337.162
337.893
338.549
339.089
339.474
339.675
339.675
339.474
339.089
338.549
337.893
337.162
336.395
335.627
334.907
334.349
328.131
328.581
329.168
329.795
330.423
331.021
331.557
331.999
332.314
332.478
332.478
332.314
331.999
331.557
331.021
330.423
329.795
329.168
328.581
328.131
321.9
322.245
322.701
323.189
323.677
324.142
324.559
324.902
325.147
325.275
325.275
325.147
324.902
324.559
324.142
323.677
323.189
322.701
322.245
321.9
315.659
315.903
316.227
316.576
316.925
317.257
317.555
317.8
317.975
318.066
318.066
317.975
317.8
317.555
317.257
316.925
316.576
316.227
315.903
315.659
309.409
309.554
309.749
309.959
310.168
310.368
310.546
310.693
310.799
310.853
310.853
310.799
310.693
310.546
310.368
310.168
309.959
309.749
309.554
309.409
303.155
303.203
303.268
303.339
303.409
303.476
303.536
303.585
303.62
303.638
303.638
303.62
303.585
303.536
303.476
303.409
303.339
303.268
303.203
303.155
347.737
348.481
349.403
350.374
351.34
352.254
353.07
353.74
354.217
354.465
354.465
354.217
353.74
353.07
352.254
351.34
350.374
349.403
348.481
347.737
341.42
342.049
342.845
343.686
344.522
345.314
346.021
346.601
347.014
347.229
347.229
347.014
346.601
346.021
345.314
344.522
343.686
342.845
342.049
341.42
335.084
335.606
336.276
336.987
337.695
338.365
338.963
339.453
339.803
339.984
339.984
339.803
339.453
338.963
338.365
337.695
336.987
336.276
335.606
335.084
328.732
329.152
329.699
330.28
330.859
331.407
331.896
332.297
332.583
332.732
332.732
332.583
332.297
331.896
331.407
330.859
330.28
329.699
329.152
328.732
322.367
322.689
323.114
323.566
324.016
324.442
324.823
325.134
325.356
325.472
325.472
325.356
325.134
324.823
324.442
324.016
323.566
323.114
322.689
322.367
315.992
316.22
316.522
316.845
317.167
317.471
317.743
317.966
318.124
318.207
318.207
318.124
317.966
317.743
317.471
317.167
316.845
316.522
316.22
315.992
309.609
309.745
309.926
310.12
310.313
310.496
310.66
310.793
310.889
310.938
310.938
310.889
310.793
310.66
310.496
310.313
310.12
309.926
309.745
309.609
303.222
303.267
303.328
303.393
303.457
303.519
303.574
303.618
303.65
303.667
303.667
303.65
303.618
303.574
303.519
303.457
303.393
303.328
303.267
303.222
348.87
349.562
350.417
351.313
352.198
353.032
353.773
354.379
354.808
355.032
355.032
354.808
354.379
353.773
353.032
352.198
351.313
350.417
349.562
348.87
342.399
342.985
343.723
344.499
345.266
345.989
346.631
347.155
347.527
347.721
347.721
347.527
347.155
346.631
345.989
345.266
344.499
343.723
342.985
342.399
335.911
336.397
337.019
337.675
338.324
338.935
339.478
339.922
340.237
340.4
340.4
340.237
339.922
339.478
338.935
338.324
337.675
337.019
336.397
335.911
329.408
329.799
330.306
330.842
331.373
331.874
332.318
332.681
332.938
333.072
333.072
332.938
332.681
332.318
331.874
331.373
330.842
330.306
329.799
329.408
322.892
323.192
323.586
324.003
324.416
324.805
325.15
325.433
325.633
325.737
325.737
325.633
325.433
325.15
324.805
324.416
324.003
323.586
323.192
322.892
316.367
316.579
316.859
317.157
317.452
317.731
317.977
318.179
318.322
318.396
318.396
318.322
318.179
317.977
317.731
317.452
317.157
316.859
316.579
316.367
309.834
309.961
310.129
310.308
310.485
310.652
310.8
310.921
311.007
311.052
311.052
311.007
310.921
310.8
310.652
310.485
310.308
310.129
309.961
309.834
303.297
303.339
303.396
303.456
303.515
303.571
303.621
303.661
303.69
303.705
303.705
303.69
303.661
303.621
303.571
303.515
303.456
303.396
303.339
303.297
350.133
350.775
351.565
352.388
353.196
353.954
354.624
355.169
355.555
355.755
355.755
355.555
355.169
354.624
353.954
353.196
352.388
351.565
350.775
350.133
343.492
344.035
344.717
345.429
346.13
346.787
347.368
347.84
348.174
348.348
348.348
348.174
347.84
347.368
346.787
346.13
345.429
344.717
344.035
343.492
336.834
337.285
337.859
338.462
339.055
339.61
340.102
340.501
340.784
340.931
340.931
340.784
340.501
340.102
339.61
339.055
338.462
337.859
337.285
336.834
330.162
330.525
330.993
331.486
331.971
332.426
332.828
333.155
333.386
333.506
333.506
333.386
333.155
332.828
332.426
331.971
331.486
330.993
330.525
330.162
323.478
323.757
324.12
324.503
324.88
325.234
325.547
325.801
325.981
326.074
326.074
325.981
325.801
325.547
325.234
324.88
324.503
324.12
323.757
323.478
316.785
316.982
317.241
317.515
317.784
318.037
318.261
318.442
318.571
318.637
318.637
318.571
318.442
318.261
318.037
317.784
317.515
317.241
316.982
316.785
310.085
310.203
310.358
310.522
310.684
310.836
310.97
311.08
311.157
311.197
311.197
311.157
311.08
310.97
310.836
310.684
310.522
310.358
310.203
310.085
303.381
303.42
303.472
303.527
303.582
303.633
303.678
303.714
303.74
303.754
303.754
303.74
303.714
303.678
303.633
303.582
303.527
303.472
303.42
303.381
351.529
352.123
352.85
353.603
354.34
355.026
355.63
356.12
356.465
356.644
356.644
356.465
356.12
355.63
355.026
354.34
353.603
352.85
352.123
351.529
344.699
345.202
345.829
346.481
347.12
347.715
348.239
348.663
348.962
349.117
349.117
348.962
348.663
348.239
347.715
347.12
346.481
345.829
345.202
344.699
337.854
338.271
338.799
339.351
339.891
340.395
340.838
341.197
341.45
341.581
341.581
341.45
341.197
340.838
340.395
339.891
339.351
338.799
338.271
337.854
330.995
331.331
331.762
332.213
332.655
333.067
333.43
333.723
333.931
334.038
334.038
333.931
333.723
333.43
333.067
332.655
332.213
331.762
331.331
330.995
324.126
324.383
324.717
325.068
325.412
325.733
326.015
326.243
326.405
326.488
326.488
326.405
326.243
326.015
325.733
325.412
325.068
324.717
324.383
324.126
317.247
317.429
317.668
317.918
318.164
318.393
318.595
318.758
318.873
318.933
318.933
318.873
318.758
318.595
318.393
318.164
317.918
317.668
317.429
317.247
310.363
310.471
310.614
310.765
310.912
311.05
311.171
311.269
311.338
311.374
311.374
311.338
311.269
311.171
311.05
310.912
310.765
310.614
310.471
310.363
303.474
303.51
303.558
303.609
303.658
303.704
303.745
303.778
303.801
303.813
303.813
303.801
303.778
303.745
303.704
303.658
303.609
303.558
303.51
303.474
353.058
353.606
354.273
354.962
355.63
356.251
356.794
357.233
357.541
357.701
357.701
357.541
357.233
356.794
356.251
355.63
354.962
354.273
353.606
353.058
346.022
346.485
347.061
347.657
348.237
348.775
349.246
349.626
349.893
350.031
350.031
349.893
349.626
349.246
348.775
348.237
347.657
347.061
346.485
346.022
338.971
339.355
339.84
340.344
340.835
341.291
341.689
342.011
342.237
342.354
342.354
342.237
342.011
341.689
341.291
340.835
340.344
339.84
339.355
338.971
331.908
332.217
332.613
333.025
333.427
333.799
334.126
334.389
334.574
334.67
334.67
334.574
334.389
334.126
333.799
333.427
333.025
332.613
332.217
331.908
324.834
325.072
325.379
325.699
326.012
326.302
326.556
326.761
326.905
326.979
326.979
326.905
326.761
326.556
326.302
326.012
325.699
325.379
325.072
324.834
317.753
317.921
318.14
318.369
318.592
318.8
318.981
319.128
319.231
319.284
319.284
319.231
319.128
318.981
318.8
318.592
318.369
318.14
317.921
317.753
310.666
310.766
310.898
311.035
311.17
311.294
311.403
311.491
311.553
311.585
311.585
311.553
311.491
311.403
311.294
311.17
311.035
310.898
310.766
310.666
303.576
303.609
303.653
303.699
303.744
303.786
303.823
303.852
303.873
303.884
303.884
303.873
303.852
303.823
303.786
303.744
303.699
303.653
303.609
303.576
354.716
355.221
355.832
356.459
357.066
357.626
358.114
358.506
358.781
358.923
358.923
358.781
358.506
358.114
357.626
357.066
356.459
355.832
355.221
354.716
347.454
347.881
348.408
348.952
349.478
349.963
350.387
350.727
350.965
351.089
351.089
350.965
350.727
350.387
349.963
349.478
348.952
348.408
347.881
347.454
340.18
340.534
340.978
341.438
341.883
342.294
342.653
342.941
343.143
343.247
343.247
343.143
342.941
342.653
342.294
341.883
341.438
340.978
340.534
340.18
332.895
333.179
333.542
333.918
334.283
334.619
334.912
335.148
335.313
335.399
335.399
335.313
335.148
334.912
334.619
334.283
333.918
333.542
333.179
332.895
325.601
325.819
326.101
326.393
326.677
326.939
327.167
327.35
327.479
327.545
327.545
327.479
327.35
327.167
326.939
326.677
326.393
326.101
325.819
325.601
318.3
318.455
318.655
318.864
319.067
319.254
319.417
319.548
319.64
319.688
319.688
319.64
319.548
319.417
319.254
319.067
318.864
318.655
318.455
318.3
310.995
311.087
311.207
311.333
311.454
311.567
311.665
311.744
311.799
311.827
311.827
311.799
311.744
311.665
311.567
311.454
311.333
311.207
311.087
310.995
303.686
303.717
303.757
303.799
303.84
303.878
303.91
303.937
303.955
303.965
303.965
303.955
303.937
303.91
303.878
303.84
303.799
303.757
303.717
303.686
356.486
356.95
357.509
358.081
358.63
359.135
359.574
359.925
360.171
360.297
360.297
360.171
359.925
359.574
359.135
358.63
358.081
357.509
356.95
356.486
348.981
349.373
349.856
350.351
350.828
351.266
351.646
351.951
352.164
352.274
352.274
352.164
351.951
351.646
351.266
350.828
350.351
349.856
349.373
348.981
341.466
341.791
342.199
342.617
343.021
343.392
343.714
343.972
344.153
344.246
344.246
344.153
343.972
343.714
343.392
343.021
342.617
342.199
341.791
341.466
333.944
334.205
334.537
334.88
335.211
335.514
335.778
335.989
336.137
336.213
336.213
336.137
335.989
335.778
335.514
335.211
334.88
334.537
334.205
333.944
326.415
326.615
326.873
327.14
327.397
327.633
327.839
328.003
328.118
328.177
328.177
328.118
328.003
327.839
327.633
327.397
327.14
326.873
326.615
326.415
318.88
319.022
319.206
319.397
319.581
319.75
319.896
320.014
320.096
320.138
320.138
320.096
320.014
319.896
319.75
319.581
319.397
319.206
319.022
318.88
311.342
311.427
311.537
311.652
311.762
311.864
311.952
312.023
312.072
312.097
312.097
312.072
312.023
311.952
311.864
311.762
311.652
311.537
311.427
311.342
303.802
303.831
303.868
303.906
303.943
303.977
304.007
304.03
304.047
304.055
304.055
304.047
304.03
304.007
303.977
303.943
303.906
303.868
303.831
303.802
358.322
358.748
359.261
359.782
360.282
360.738
361.133
361.448
361.668
361.781
361.781
361.668
361.448
361.133
360.738
360.282
359.782
359.261
358.748
358.322
350.557
350.918
351.361
351.813
352.246
352.642
352.985
353.258
353.449
353.547
353.547
353.449
353.258
352.985
352.642
352.246
351.813
351.361
350.918
350.557
342.789
343.088
343.461
343.844
344.211
344.547
344.837
345.069
345.231
345.314
345.314
345.231
345.069
344.837
344.547
344.211
343.844
343.461
343.088
342.789
335.018
335.259
335.564
335.877
336.177
336.452
336.69
336.88
337.012
337.081
337.081
337.012
336.88
336.69
336.452
336.177
335.877
335.564
335.259
335.018
327.245
327.43
327.667
327.91
328.144
328.359
328.544
328.692
328.795
328.848
328.848
328.795
328.692
328.544
328.359
328.144
327.91
327.667
327.43
327.245
319.471
319.602
319.771
319.945
320.112
320.265
320.398
320.504
320.577
320.615
320.615
320.577
320.504
320.398
320.265
320.112
319.945
319.771
319.602
319.471
311.696
311.774
311.876
311.98
312.081
312.173
312.252
312.316
312.36
312.383
312.383
312.36
312.316
312.252
312.173
312.081
311.98
311.876
311.774
311.696
303.921
303.947
303.981
304.016
304.05
304.08
304.107
304.128
304.143
304.151
304.151
304.143
304.128
304.107
304.08
304.05
304.016
303.981
303.947
303.921
360.103
360.497
360.97
361.449
361.906
362.322
362.68
362.965
363.164
363.266
363.266
363.164
362.965
362.68
362.322
361.906
361.449
360.97
360.497
360.103
352.068
352.402
352.81
353.226
353.623
353.985
354.296
354.544
354.717
354.805
354.805
354.717
354.544
354.296
353.985
353.623
353.226
352.81
352.402
352.068
344.043
344.32
344.665
345.017
345.354
345.661
345.925
346.136
346.282
346.357
346.357
346.282
346.136
345.925
345.661
345.354
345.017
344.665
344.32
344.043
336.027
336.25
336.532
336.821
337.097
337.349
337.565
337.738
337.858
337.92
337.92
337.858
337.738
337.565
337.349
337.097
336.821
336.532
336.25
336.027
328.02
328.191
328.41
328.635
328.85
329.046
329.215
329.35
329.443
329.491
329.491
329.443
329.35
329.215
329.046
328.85
328.635
328.41
328.191
328.02
320.019
320.14
320.297
320.457
320.611
320.752
320.873
320.969
321.036
321.07
321.07
321.036
320.969
320.873
320.752
320.611
320.457
320.297
320.14
320.019
312.023
312.096
312.189
312.286
312.378
312.463
312.535
312.593
312.634
312.654
312.654
312.634
312.593
312.535
312.463
312.378
312.286
312.189
312.096
312.023
304.03
304.054
304.086
304.118
304.149
304.177
304.202
304.221
304.235
304.242
304.242
304.235
304.221
304.202
304.177
304.149
304.118
304.086
304.054
304.03
361.511
361.882
362.327
362.776
363.203
363.591
363.924
364.189
364.373
364.468
364.468
364.373
364.189
363.924
363.591
363.203
362.776
362.327
361.882
361.511
353.216
353.531
353.917
354.308
354.68
355.019
355.31
355.541
355.701
355.784
355.784
355.701
355.541
355.31
355.019
354.68
354.308
353.917
353.531
353.216
344.966
345.228
345.555
345.887
346.204
346.492
346.739
346.936
347.072
347.142
347.142
347.072
346.936
346.739
346.492
346.204
345.887
345.555
345.228
344.966
336.752
336.964
337.23
337.503
337.764
338
338.204
338.365
338.477
338.535
338.535
338.477
338.365
338.204
338
337.764
337.503
337.23
336.964
336.752
328.566
328.728
328.936
329.149
329.352
329.536
329.695
329.821
329.909
329.954
329.954
329.909
329.821
329.695
329.536
329.352
329.149
328.936
328.728
328.566
320.4
320.515
320.663
320.816
320.961
321.093
321.207
321.298
321.36
321.393
321.393
321.36
321.298
321.207
321.093
320.961
320.816
320.663
320.515
320.4
312.248
312.317
312.406
312.498
312.585
312.665
312.733
312.788
312.825
312.845
312.845
312.825
312.788
312.733
312.665
312.585
312.498
312.406
312.317
312.248
304.105
304.128
304.158
304.188
304.218
304.244
304.267
304.286
304.298
304.305
304.305
304.298
304.286
304.267
304.244
304.218
304.188
304.158
304.128
304.105
)
;

boundaryField
{
    hotSide
    {
        type            fixedGradient;
        gradient        nonuniform List<scalar> 
400
(
446.758
447.703
449.607
452.491
456.388
461.34
467.394
474.601
483.015
492.689
503.674
516.019
529.769
544.963
561.638
579.822
599.54
620.814
643.659
668.088
461.358
462.188
463.864
466.418
469.892
474.342
479.829
486.421
494.185
503.191
513.502
525.177
538.272
552.833
568.901
586.51
605.688
626.456
648.83
672.824
477.158
477.851
479.257
481.417
484.391
488.25
493.074
498.951
505.967
514.208
523.753
534.676
547.04
560.9
576.304
593.289
611.883
632.11
653.986
677.522
493.898
494.429
495.521
497.227
499.623
502.803
506.872
511.938
518.114
525.503
534.202
544.3
555.871
568.978
583.673
599.997
617.981
637.646
659.008
682.074
511.108
511.459
512.197
513.394
515.147
517.575
520.812
524.994
530.258
536.731
544.529
553.755
564.496
576.821
590.787
606.438
623.803
642.904
663.753
686.356
528.071
528.229
528.59
529.244
530.315
531.951
534.316
537.577
541.9
547.435
554.318
562.667
572.579
584.13
597.381
612.376
629.144
647.704
668.065
690.229
543.817
543.781
543.766
543.881
544.277
545.132
546.644
549.011
552.426
557.063
563.078
570.6
579.736
590.569
603.162
617.556
633.782
651.854
671.778
693.552
557.18
556.97
556.617
556.248
556.039
556.2
556.956
558.536
561.156
565.013
570.277
577.091
585.567
595.792
607.83
621.724
637.499
655.168
674.733
696.187
566.96
566.616
566.004
565.265
564.596
564.23
564.416
565.404
567.43
570.707
575.415
581.706
589.699
599.481
611.118
624.65
640.101
657.482
676.79
698.018
572.142
571.725
570.972
570.032
569.114
568.462
568.34
569.009
570.716
573.682
578.094
584.108
591.844
601.393
612.818
626.16
641.442
658.671
677.847
698.956
572.142
571.725
570.972
570.032
569.114
568.462
568.34
569.009
570.716
573.682
578.094
584.108
591.844
601.393
612.818
626.16
641.442
658.671
677.847
698.956
566.96
566.616
566.004
565.265
564.596
564.23
564.416
565.404
567.43
570.707
575.415
581.706
589.699
599.481
611.118
624.65
640.101
657.482
676.79
698.018
557.18
556.97
556.617
556.248
556.039
556.2
556.956
558.536
561.156
565.013
570.277
577.091
585.567
595.792
607.83
621.724
637.499
655.168
674.733
696.187
543.817
543.781
543.766
543.881
544.277
545.132
546.644
549.011
552.426
557.063
563.078
570.6
579.736
590.569
603.162
617.556
633.782
651.854
671.778
693.552
528.071
528.229
528.59
529.244
530.315
531.951
534.316
537.577
541.9
547.435
554.318
562.667
572.579
584.13
597.381
612.376
629.144
647.704
668.065
690.229
511.108
511.459
512.197
513.394
515.147
517.575
520.812
524.994
530.258
536.731
544.529
553.755
564.496
576.821
590.787
606.438
623.803
642.904
663.753
686.356
493.898
494.429
495.521
497.227
499.623
502.803
506.872
511.938
518.114
525.503
534.202
544.3
555.871
568.978
583.673
599.997
617.981
637.646
659.008
682.074
477.158
477.851
479.257
481.417
484.391
488.25
493.074
498.951
505.967
514.208
523.753
534.676
547.04
560.9
576.304
593.289
611.883
632.11
653.986
677.522
461.358
462.188
463.864
466.418
469.892
474.342
479.829
486.421
494.185
503.191
513.502
525.177
538.272
552.833
568.901
586.51
605.688
626.456
648.83
672.824
446.758
447.703
449.607
452.491
456.388
461.34
467.394
474.601
483.015
492.689
503.674
516.019
529.769
544.963
561.638
579.822
599.54
620.814
643.659
668.088
)
;
    }
    coldSide
    {
        type            mixed;
        refValue        uniform 300;
        refGradient     uniform 0;
        valueFraction   uniform 0.991591;
        source          uniform 0;
        value           nonuniform List<scalar> 
400
(
300.024
300.024
300.024
300.024
300.025
300.025
300.025
300.026
300.026
300.027
300.027
300.028
300.028
300.029
300.03
300.031
300.032
300.033
300.034
300.035
300.025
300.025
300.025
300.025
300.025
300.025
300.026
300.026
300.026
300.027
300.027
300.028
300.029
300.03
300.03
300.031
300.032
300.033
300.034
300.035