/*--------------------------------*- C++ -*----------------------------------*\
| =========                 |                                                 |
| \\      /  F ield         | OpenFOAM: The Open Source CFD Toolbox           |
|  \\    /   O peration     | Version:  2212                                  |
|   \\  /    A nd           | Website:  www.openfoam.com                      |
|    \\/     M anipulation  |                                                 |
\*---------------------------------------------------------------------------*/
FoamFile
{
    version     2.0;
    format      ascii;
    arch        "LSB;label=32;scalar=64";
    class       volScalarField;
    location    "0";
    object      Tdirect;
}
// * * * * * * * * * * * * * * * * * * * * * * * * * * * * * * * * * * * * * //

dimensions      [0 0 0 1 0 0 0];

internalField   nonuniform List<scalar> 
3200
(
319.35
319.551
319.807
320.086
320.374
320.656
320.917
321.137
321.297
321.382
321.382
321.297
321.137
320.917
320.656
320.374
320.086
319.807
319.551
319.35
316.892
317.062
317.283
317.525
317.774
318.018
318.243
318.433
318.572
318.645
318.645
318.572
318.433
318.243
318.018
317.774
317.525
317.283
317.062
316.892
314.384
314.525
314.711
314.915
315.125
315.331
315.522
315.682
315.799
315.86
315.86
315.799
315.682
315.522
315.331
315.125
314.915
314.711
314.525
314.384
311.831
311.944
312.096
312.263
312.435
312.603
312.759
312.89
312.985
313.035
313.035
312.985
312.89
312.759
312.603
312.435
312.263
312.096
311.944
311.831
309.242
309.329
309.447
309.577
309.71
309.841
309.962
310.064
310.138
310.177
310.177
310.138
310.064
309.962
309.841
309.71
309.577
309.447
309.329
309.242
306.625
306.687
306.771
306.863
306.959
307.052
307.138
307.211
307.264
307.292
307.292
307.264
307.211
307.138
307.052
306.959
306.863
306.771
306.687
306.625
303.988
304.025
304.075
304.13
304.188
304.244
304.296
304.339
304.371
304.388
304.388
304.371
304.339
304.296
304.244
304.188
304.13
304.075
304.025
303.988
301.338
301.35
301.367
301.386
301.405
301.424
301.441
301.456
301.466
301.472
301.472
301.466
301.456
301.441
301.424
301.405
301.386
301.367
301.35
301.338
319.421
319.621
319.875
320.151
320.436
320.715
320.973
321.19
321.348
321.431
321.431
321.348
321.19
320.973
320.715
320.436
320.151
319.875
319.621
319.421
316.955
317.123
317.342
317.582
317.828
318.069
318.292
318.48
318.616
318.689
318.689
318.616
318.48
318.292
318.069
317.828
317.582
317.342
317.123
316.955
314.437
314.576
314.761
314.963
315.171
315.375
315.563
315.722
315.837
315.898
315.898
315.837
315.722
315.563
315.375
315.171
314.963
314.761
314.576
314.437
311.875
311.987
312.138
312.303
312.473
312.64
312.793
312.923
313.017
313.066
313.066
313.017
312.923
312.793
312.64
312.473
312.303
312.138
311.987
311.875
309.276
309.363
309.479
309.608
309.74
309.87
309.989
310.089
310.162
310.201
310.201
310.162
310.089
309.989
309.87
309.74
309.608
309.479
309.363
309.276
306.65
306.711
306.794
306.886
306.98
307.073
307.158
307.229
307.282
307.309
307.309
307.282
307.229
307.158
307.073
306.98
306.886
306.794
306.711
306.65
304.002
304.039
304.089
304.144
304.201
304.256
304.307
304.35
304.382
304.398
304.398
304.382
304.35
304.307
304.256
304.201
304.144
304.089
304.039
304.002
301.343
301.355
301.372
301.39
301.409
301.428
301.445
301.46
301.47
301.476
301.476
301.47
301.46
301.445
301.428
301.409
301.39
301.372
301.355
301.343
319.564
319.76
320.01
320.281
320.56
320.833
321.085
321.297
321.451
321.532
321.532
321.451
321.297
321.085
320.833
320.56
320.281
320.01
319.76
319.564
317.079
317.245
317.46
317.695
317.937
318.173
318.391
318.574
318.707
318.777
318.777
318.707
318.574
318.391
318.173
317.937
317.695
317.46
317.245
317.079
314.543
314.68
314.862
315.06
315.264
315.464
315.648
315.802
315.914
315.974
315.974
315.914
315.802
315.648
315.464
315.264
315.06
314.862
314.68
314.543
311.962
312.073
312.22
312.383
312.55
312.713
312.863
312.989
313.081
313.129
313.129
313.081
312.989
312.863
312.713
312.55
312.383
312.22
312.073
311.962
309.344
309.43
309.544
309.67
309.8
309.927
310.043
310.141
310.213
310.25
310.25
310.213
310.141
310.043
309.927
309.8
309.67
309.544
309.43
309.344
306.698
306.759
306.84
306.93
307.023
307.114
307.197
307.267
307.318
307.344
307.344
307.318
307.267
307.197
307.114
307.023
306.93
306.84
306.759
306.698
304.032
304.068
304.117
304.171
304.227
304.281
304.331
304.373
304.403
304.419
304.419
304.403
304.373
304.331
304.281
304.227
304.171
304.117
304.068
304.032
301.353
301.365
301.381
301.399
301.418
301.436
301.453
301.467
301.477
301.483
301.483
301.477
301.467
301.453
301.436
301.418
301.399
301.381
301.365
301.353
319.779
319.97
320.213
320.477
320.748
321.013
321.256
321.46
321.608
321.686
321.686
321.608
321.46
321.256
321.013
320.748
320.477
320.213
319.97
319.779
317.267
317.428
317.638
317.867
318.101
318.33
318.54
318.717
318.845
318.912
318.912
318.845
318.717
318.54
318.33
318.101
317.867
317.638
317.428
317.267
314.702
314.837
315.013
315.207
315.405
315.598
315.775
315.924
316.033
316.09
316.09
316.033
315.924
315.775
315.598
315.405
315.207
315.013
314.837
314.702
312.093
312.201
312.345
312.503
312.665
312.823
312.968
313.09
313.178
313.225
313.225
313.178
313.09
312.968
312.823
312.665
312.503
312.345
312.201
312.093
309.447
309.53
309.642
309.765
309.89
310.013
310.126
310.22
310.289
310.325
310.325
310.289
310.22
310.126
310.013
309.89
309.765
309.642
309.53
309.447
306.772
306.831
306.911
306.998
307.088
307.176
307.256
307.324
307.373
307.398
307.398
307.373
307.324
307.256
307.176
307.088
306.998
306.911
306.831
306.772
304.076
304.111
304.159
304.212
304.266
304.318
304.367
304.407
304.436
304.452
304.452
304.436
304.407
304.367
304.318
304.266
304.212
304.159
304.111
304.076
301.368
301.38
301.396
301.413
301.431
301.449
301.465
301.479
301.488
301.494
301.494
301.488
301.479
301.465
301.449
301.431
301.413
301.396
301.38
301.368
320.065
320.251
320.486
320.741
321.001
321.255
321.487
321.682
321.823
321.897
321.897
321.823
321.682
321.487
321.255
321.001
320.741
320.486
320.251
320.065
317.517
317.674
317.877
318.097
318.323
318.542
318.743
318.911
319.033
319.097
319.097
319.033
318.911
318.743
318.542
318.323
318.097
317.877
317.674
317.517
314.916
315.046
315.217
315.403
315.594
315.779
315.949
316.091
316.194
316.248
316.248
316.194
316.091
315.949
315.779
315.594
315.403
315.217
315.046
314.916
312.269
312.373
312.513
312.665
312.821
312.972
313.111
313.227
313.311
313.355
313.355
313.311
313.227
313.111
312.972
312.821
312.665
312.513
312.373
312.269
309.584
309.665
309.773
309.891
310.012
310.13
310.238
310.328
310.393
310.428
310.428
310.393
310.328
310.238
310.13
310.012
309.891
309.773
309.665
309.584
306.87
306.927
307.004
307.089
307.175
307.259
307.336
307.401
307.447
307.472
307.472
307.447
307.401
307.336
307.259
307.175
307.089
307.004
306.927
306.87
304.135
304.169
304.216
304.266
304.318
304.369
304.415
304.454
304.482
304.496
304.496
304.482
304.454
304.415
304.369
304.318
304.266
304.216
304.169
304.135
301.388
301.399
301.415
301.432
301.449
301.466
301.481
301.494
301.504
301.509
301.509
301.504
301.494
301.481
301.466
301.449
301.432
301.415
301.399
301.388
320.426
320.604
320.83
321.073
321.321
321.562
321.782
321.966
322.098
322.168
322.168
322.098
321.966
321.782
321.562
321.321
321.073
320.83
320.604
320.426
317.831
317.983
318.177
318.388
318.603
318.811
319.001
319.16
319.275
319.335
319.335
319.275
319.16
319.001
318.811
318.603
318.388
318.177
317.983
317.831
315.183
315.309
315.473
315.651
315.833
316.009
316.169
316.303
316.4
316.451
316.451
316.4
316.303
316.169
316.009
315.833
315.651
315.473
315.309
315.183
312.489
312.59
312.724
312.869
313.018
313.162
313.293
313.402
313.482
313.523
313.523
313.482
313.402
313.293
313.162
313.018
312.869
312.724
312.59
312.489
309.756
309.834
309.938
310.051
310.166
310.278
310.38
310.465
310.527
310.559
310.559
310.527
310.465
310.38
310.278
310.166
310.051
309.938
309.834
309.756
306.994
307.049
307.123
307.203
307.286
307.366
307.439
307.499
307.543
307.566
307.566
307.543
307.499
307.439
307.366
307.286
307.203
307.123
307.049
306.994
304.21
304.242
304.287
304.335
304.385
304.433
304.476
304.513
304.539
304.553
304.553
304.539
304.513
304.476
304.433
304.385
304.335
304.287
304.242
304.21
301.413
301.424
301.438
301.455
301.471
301.487
301.502
301.514
301.523
301.528
301.528
301.523
301.514
301.502
301.487
301.471
301.455
301.438
301.424
301.413
320.86
321.03
321.245
321.477
321.711
321.937
322.143
322.315
322.439
322.504
322.504
322.439
322.315
322.143
321.937
321.711
321.477
321.245
321.03
320.86
318.21
318.355
318.541
318.741
318.944
319.14
319.318
319.466
319.573
319.63
319.63
319.573
319.466
319.318
319.14
318.944
318.741
318.541
318.355
318.21
315.506
315.626
315.782
315.952
316.123
316.289
316.44
316.565
316.655
316.703
316.703
316.655
316.565
316.44
316.289
316.123
315.952
315.782
315.626
315.506
312.754
312.851
312.979
313.117
313.257
313.393
313.516
313.618
313.692
313.731
313.731
313.692
313.618
313.516
313.393
313.257
313.117
312.979
312.851
312.754
309.964
310.038
310.137
310.244
310.353
310.459
310.554
310.634
310.691
310.722
310.722
310.691
310.634
310.554
310.459
310.353
310.244
310.137
310.038
309.964
307.142
307.195
307.265
307.342
307.42
307.495
307.564
307.621
307.662
307.683
307.683
307.662
307.621
307.564
307.495
307.42
307.342
307.265
307.195
307.142
304.299
304.33
304.373
304.419
304.466
304.511
304.552
304.586
304.611
304.624
304.624
304.611
304.586
304.552
304.511
304.466
304.419
304.373
304.33
304.299
301.443
301.453
301.467
301.483
301.498
301.514
301.527
301.539
301.547
301.551
301.551
301.547
301.539
301.527
301.514
301.498
301.483
301.467
301.453
301.443
321.368
321.531
321.734
321.952
322.172
322.384
322.575
322.734
322.848
322.908
322.908
322.848
322.734
322.575
322.384
322.172
321.952
321.734
321.531
321.368
318.655
318.792
318.968
319.156
319.347
319.53
319.696
319.833
319.932
319.984
319.984
319.932
319.833
319.696
319.53
319.347
319.156
318.968
318.792
318.655
315.885
315.998
316.147
316.306
316.467
316.622
316.762
316.878
316.962
317.006
317.006
316.962
316.878
316.762
316.622
316.467
316.306
316.147
315.998
315.885
313.066
313.158
313.278
313.409
313.54
313.667
313.781
313.877
313.945
313.981
313.981
313.945
313.877
313.781
313.667
313.54
313.409
313.278
313.158
313.066
310.207
310.277
310.371
310.472
310.575
310.673
310.762
310.836
310.889
310.917
310.917
310.889
310.836
310.762
310.673
310.575
310.472
310.371
310.277
310.207
307.317
307.367
307.434
307.506
307.579
307.649
307.713
307.766
307.804
307.823
307.823
307.804
307.766
307.713
307.649
307.579
307.506
307.434
307.367
307.317
304.404
304.434
304.474
304.517
304.561
304.604
304.642
304.673
304.696
304.708
304.708
304.696
304.673
304.642
304.604
304.561
304.517
304.474
304.434
304.404
301.478
301.488
301.501
301.516
301.531
301.545
301.557
301.568
301.576
301.58
301.58
301.576
301.568
301.557
301.545
301.531
301.516
301.501
301.488
301.478
321.953
322.106
322.298
322.502
322.707
322.903
323.08
323.226
323.331
323.386
323.386
323.331
323.226
323.08
322.903
322.707
322.502
322.298
322.106
321.953
319.166
319.295
319.461
319.637
319.815
319.984
320.137
320.264
320.355
320.402
320.402
320.355
320.264
320.137
319.984
319.815
319.637
319.461
319.295
319.166
316.32
316.427
316.566
316.716
316.866
317.009
317.139
317.246
317.322
317.362
317.362
317.322
317.246
317.139
317.009
316.866
316.716
316.566
316.427
316.32
313.424
313.51
313.624
313.746
313.869
313.986
314.092
314.179
314.242
314.275
314.275
314.242
314.179
314.092
313.986
313.869
313.746
313.624
313.51
313.424
310.487
310.553
310.641
310.736
310.832
310.923
311.005
311.073
311.122
311.147
311.147
311.122
311.073
311.005
310.923
310.832
310.736
310.641
310.553
310.487
307.517
307.564
307.627
307.695
307.763
307.828
307.887
307.936
307.971
307.989
307.989
307.971
307.936
307.887
307.828
307.763
307.695
307.627
307.564
307.517
304.525
304.553
304.591
304.631
304.672
304.711
304.747
304.776
304.797
304.808
304.808
304.797
304.776
304.747
304.711
304.672
304.631
304.591
304.553
304.525
301.518
301.528
301.54
301.554
301.568
301.581
301.593
301.602
301.609
301.613
301.613
301.609
301.602
301.593
301.581
301.568
301.554
301.54
301.528
301.518
322.615
322.759
322.938
323.128
323.318
323.498
323.661
323.794
323.889
323.939
323.939
323.889
323.794
323.661
323.498
323.318
323.128
322.938
322.759
322.615
319.743
319.865
320.02
320.184
320.349
320.505
320.645
320.761
320.844
320.887
320.887
320.844
320.761
320.645
320.505
320.349
320.184
320.02
319.865
319.743
316.811
316.913
317.043
317.182
317.321
317.453
317.572
317.67
317.74
317.776
317.776
317.74
317.67
317.572
317.453
317.321
317.182
317.043
316.913
316.811
313.828
313.91
314.016
314.13
314.243
314.352
314.449
314.529
314.586
314.616
314.616
314.586
314.529
314.449
314.352
314.243
314.13
314.016
313.91
313.828
310.803
310.865
310.948
311.036
311.125
311.209
311.284
311.346
311.391
311.414
311.414
311.391
311.346
311.284
311.209
311.125
311.036
310.948
310.865
310.803
307.744
307.788
307.847
307.91
307.973
308.034
308.087
308.132
308.164
308.18
308.18
308.164
308.132
308.087
308.034
307.973
307.91
307.847
307.788
307.744
304.661
304.688
304.723
304.761
304.799
304.835
304.867
304.894
304.913
304.923
304.923
304.913
304.894
304.867
304.835
304.799
304.761
304.723
304.688
304.661
301.564
301.573
301.585
301.597
301.61
301.622
301.633
301.642
301.648
301.652
301.652
301.648
301.642
301.633
301.622
301.61
301.597
301.585
301.573
301.564
323.354
323.489
323.656
323.832
324.006
324.172
324.32
324.441
324.527
324.572
324.572
324.527
324.441
324.32
324.172
324.006
323.832
323.656
323.489
323.354
320.389
320.503
320.647
320.799
320.95
321.094
321.222
321.327
321.402
321.441
321.441
321.402
321.327
321.222
321.094
320.95
320.799
320.647
320.503
320.389
317.361
317.456
317.577
317.706
317.834
317.955
318.064
318.152
318.216
318.249
318.249
318.216
318.152
318.064
317.955
317.834
317.706
317.577
317.456
317.361
314.281
314.357
314.456
314.561
314.666
314.765
314.854
314.926
314.978
315.005
315.005
314.978
314.926
314.854
314.765
314.666
314.561
314.456
314.357
314.281
311.156
311.215
311.291
311.373
311.455
311.532
311.601
311.657
311.698
311.719
311.719
311.698
311.657
311.601
311.532
311.455
311.373
311.291
311.215
311.156
307.997
308.039
308.093
308.152
308.21
308.265
308.315
308.355
308.384
308.399
308.399
308.384
308.355
308.315
308.265
308.21
308.152
308.093
308.039
307.997
304.814
304.838
304.871
304.906
304.941
304.975
305.004
305.028
305.046
305.055
305.055
305.046
305.028
305.004
304.975
304.941
304.906
304.871
304.838
304.814
301.615
301.624
301.635
301.646
301.658
301.669
301.679
301.687
301.693
301.696
301.696
301.693
301.687
301.679
301.669
301.658
301.646
301.635
301.624
301.615
324.172
324.297
324.452
324.614
324.774
324.925
325.059
325.169
325.247
325.287
325.287
325.247
325.169
325.059
324.925
324.774
324.614
324.452
324.297
324.172
321.102
321.208
321.342
321.482
321.621
321.752
321.869
321.964
322.031
322.066
322.066
322.031
321.964
321.869
321.752
321.621
321.482
321.342
321.208
321.102
317.969
318.057
318.17
318.288
318.406
318.517
318.615
318.695
318.752
318.782
318.782
318.752
318.695
318.615
318.517
318.406
318.288
318.17
318.057
317.969
314.781
314.851
314.943
315.04
315.137
315.227
315.308
315.373
315.42
315.444
315.444
315.42
315.373
315.308
315.227
315.137
315.04
314.943
314.851
314.781
311.547
311.601
311.672
311.748
311.823
311.893
311.956
312.007
312.043
312.062
312.062
312.043
312.007
311.956
311.893
311.823
311.748
311.672
311.601
311.547
308.277
308.316
308.367
308.421
308.474
308.524
308.569
308.606
308.632
308.645
308.645
308.632
308.606
308.569
308.524
308.474
308.421
308.367
308.316
308.277
304.982
305.005
305.036
305.068
305.1
305.131
305.157
305.179
305.195
305.203
305.203
305.195
305.179
305.157
305.131
305.1
305.068
305.036
305.005
304.982
301.672
301.68
301.69
301.701
301.711
301.722
301.731
301.738
301.743
301.746
301.746
301.743
301.738
301.731
301.722
301.711
301.701
301.69
301.68
301.672
325.068
325.184
325.327
325.476
325.622
325.76
325.881
325.98
326.05
326.086
326.086
326.05
325.98
325.881
325.76
325.622
325.476
325.327
325.184
325.068
321.885
321.983
322.107
322.236
322.363
322.481
322.587
322.672
322.733
322.764
322.764
322.733
322.672
322.587
322.481
322.363
322.236
322.107
321.983
321.885
318.635
318.717
318.821
318.93
319.037
319.138
319.227
319.299
319.351
319.377
319.377
319.351
319.299
319.227
319.138
319.037
318.93
318.821
318.717
318.635
315.329
315.394
315.479
315.568
315.656
315.739
315.811
315.871
315.913
315.934
315.934
315.913
315.871
315.811
315.739
315.656
315.568
315.479
315.394
315.329
311.975
312.025
312.091
312.161
312.229
312.293
312.35
312.396
312.428
312.445
312.445
312.428
312.396
312.35
312.293
312.229
312.161
312.091
312.025
311.975
308.584
308.62
308.667
308.716
308.765
308.811
308.852
308.885
308.908
308.92
308.92
308.908
308.885
308.852
308.811
308.765
308.716
308.667
308.62
308.584
305.167
305.188
305.217
305.246
305.276
305.303
305.327
305.347
305.361
305.368
305.368
305.361
305.347
305.327
305.303
305.276
305.246
305.217
305.188
305.167
301.734
301.741
301.75
301.76
301.77
301.779
301.788
301.794
301.799
301.801
301.801
301.799
301.794
301.788
301.779
301.77
301.76
301.75
301.741
301.734
326.042
326.15
326.281
326.418
326.551
326.676
326.785
326.874
326.936
326.968
326.968
326.936
326.874
326.785
326.676
326.551
326.418
326.281
326.15
326.042
322.736
322.827
322.94
323.058
323.174
323.282
323.376
323.453
323.507
323.535
323.535
323.507
323.453
323.376
323.282
323.174
323.058
322.94
322.827
322.736
319.36
319.435
319.531
319.631
319.728
319.82
319.9
319.965
320.011
320.035
320.035
320.011
319.965
319.9
319.82
319.728
319.631
319.531
319.435
319.36
315.924
315.985
316.063
316.145
316.225
316.3
316.365
316.419
316.456
316.475
316.475
316.456
316.419
316.365
316.3
316.225
316.145
316.063
315.985
315.924
312.44
312.487
312.547
312.611
312.673
312.731
312.783
312.824
312.853
312.868
312.868
312.853
312.824
312.783
312.731
312.673
312.611
312.547
312.487
312.44
308.918
308.951
308.994
309.039
309.084
309.125
309.162
309.192
309.212
309.223
309.223
309.212
309.192
309.162
309.125
309.084
309.039
308.994
308.951
308.918
305.368
305.388
305.413
305.441
305.467
305.492
305.514
305.532
305.545
305.551
305.551
305.545
305.532
305.514
305.492
305.467
305.441
305.413
305.388
305.368
301.801
301.808
301.816
301.826
301.835
301.843
301.85
301.856
301.86
301.863
301.863
301.86
301.856
301.85
301.843
301.835
301.826
301.816
301.808
301.801
327.094
327.193
327.314
327.438
327.559
327.672
327.77
327.849
327.905
327.934
327.934
327.905
327.849
327.77
327.672
327.559
327.438
327.314
327.193
327.094
323.653
323.737
323.841
323.949
324.054
324.151
324.237
324.305
324.354
324.379
324.379
324.354
324.305
324.237
324.151
324.054
323.949
323.841
323.737
323.653
320.14
320.21
320.298
320.389
320.478
320.56
320.632
320.691
320.732
320.753
320.753
320.732
320.691
320.632
320.56
320.478
320.389
320.298
320.21
320.14
316.566
316.622
316.694
316.769
316.841
316.909
316.968
317.016
317.049
317.066
317.066
317.049
317.016
316.968
316.909
316.841
316.769
316.694
316.622
316.566
312.942
312.985
313.04
313.098
313.155
313.207
313.253
313.29
313.317
313.33
313.33
313.317
313.29
313.253
313.207
313.155
313.098
313.04
312.985
312.942
309.277
309.307
309.347
309.389
309.429
309.467
309.5
309.526
309.545
309.554
309.554
309.545
309.526
309.5
309.467
309.429
309.389
309.347
309.307
309.277
305.584
305.602
305.626
305.651
305.675
305.698
305.718
305.733
305.745
305.75
305.75
305.745
305.733
305.718
305.698
305.675
305.651
305.626
305.602
305.584
301.874
301.88
301.888
301.896
301.904
301.912
301.918
301.924
301.928
301.93
301.93
301.928
301.924
301.918
301.912
301.904
301.896
301.888
301.88
301.874
328.216
328.307
328.418
328.532
328.641
328.743
328.831
328.902
328.952
328.978
328.978
328.952
328.902
328.831
328.743
328.641
328.532
328.418
328.307
328.216
324.631
324.708
324.804
324.902
324.998
325.086
325.162
325.224
325.267
325.289
325.289
325.267
325.224
325.162
325.086
324.998
324.902
324.804
324.708
324.631
320.972
321.036
321.117
321.2
321.281
321.355
321.42
321.472
321.509
321.528
321.528
321.509
321.472
321.42
321.355
321.281
321.2
321.117
321.036
320.972
317.25
317.302
317.367
317.435
317.501
317.562
317.615
317.658
317.688
317.703
317.703
317.688
317.658
317.615
317.562
317.501
317.435
317.367
317.302
317.25
313.475
313.515
313.566
313.619
313.67
313.717
313.759
313.792
313.815
313.827
313.827
313.815
313.792
313.759
313.717
313.67
313.619
313.566
313.515
313.475
309.659
309.687
309.724
309.762
309.798
309.832
309.862
309.885
309.902
309.911
309.911
309.902
309.885
309.862
309.832
309.798
309.762
309.724
309.687
309.659
305.814
305.831
305.853
305.875
305.897
305.918
305.935
305.95
305.96
305.965
305.965
305.96
305.95
305.935
305.918
305.897
305.875
305.853
305.831
305.814
301.951
301.957
301.964
301.971
301.979
301.986
301.992
301.996
302
302.001
302.001
302
301.996
301.992
301.986
301.979
301.971
301.964
301.957
301.951
329.396
329.48
329.581
329.685
329.784
329.876
329.955
330.019
330.063
330.086
330.086
330.063
330.019
329.955
329.876
329.784
329.685
329.581
329.48
329.396
325.658
325.729
325.817
325.906
325.993
326.072
326.141
326.196
326.235
326.254
326.254
326.235
326.196
326.141
326.072
325.993
325.906
325.817
325.729
325.658
321.844
321.903
321.977
322.052
322.126
322.193
322.251
322.298
322.331
322.347
322.347
322.331
322.298
322.251
322.193
322.126
322.052
321.977
321.903
321.844
317.965
318.012
318.073
318.135
318.195
318.25
318.297
318.336
318.362
318.376
318.376
318.362
318.336
318.297
318.25
318.195
318.135
318.073
318.012
317.965
314.033
314.069
314.116
314.164
314.211
314.253
314.291
314.32
314.341
314.352
314.352
314.341
314.32
314.291
314.253
314.211
314.164
314.116
314.069
314.033
310.058
310.084
310.117
310.152
310.185
310.216
310.242
310.264
310.279
310.286
310.286
310.279
310.264
310.242
310.216
310.185
310.152
310.117
310.084
310.058
306.054
306.069
306.089
306.11
306.13
306.148
306.164
306.177
306.186
306.191
306.191
306.186
306.177
306.164
306.148
306.13
306.11
306.089
306.069
306.054
302.031
302.037
302.043
302.05
302.057
302.063
302.068
302.073
302.076
302.077
302.077
302.076
302.073
302.068
302.063
302.057
302.05
302.043
302.037
302.031
330.601
330.678
330.771
330.866
330.956
331.039
331.11
331.167
331.207
331.228
331.228
331.207
331.167
331.11
331.039
330.956
330.866
330.771
330.678
330.601
326.701
326.767
326.847
326.929
327.007
327.079
327.141
327.191
327.225
327.243
327.243
327.225
327.191
327.141
327.079
327.007
326.929
326.847
326.767
326.701
322.726
322.78
322.848
322.917
322.984
323.044
323.097
323.139
323.168
323.183
323.183
323.168
323.139
323.097
323.044
322.984
322.917
322.848
322.78
322.726
318.686
318.73
318.785
318.842
318.896
318.946
318.989
319.023
319.047
319.06
319.06
319.047
319.023
318.989
318.946
318.896
318.842
318.785
318.73
318.686
314.593
314.626
314.669
314.713
314.756
314.795
314.828
314.855
314.874
314.883
314.883
314.874
314.855
314.828
314.795
314.756
314.713
314.669
314.626
314.593
310.458
310.482
310.513
310.544
310.575
310.602
310.626
310.645
310.659
310.666
310.666
310.659
310.645
310.626
310.602
310.575
310.544
310.513
310.482
310.458
306.294
306.308
306.327
306.346
306.364
306.38
306.395
306.406
306.414
306.418
306.418
306.414
306.406
306.395
306.38
306.364
306.346
306.327
306.308
306.294
302.112
302.117
302.123
302.129
302.135
302.141
302.146
302.149
302.152
302.154
302.154
302.152
302.149
302.146
302.141
302.135
302.129
302.123
302.117
302.112
331.75
331.822
331.907
331.994
332.077
332.152
332.217
332.269
332.305
332.323
332.323
332.305
332.269
332.217
332.152
332.077
331.994
331.907
331.822
331.75
327.684
327.745
327.819
327.894
327.966
328.031
328.088
328.133
328.164
328.18
328.18
328.164
328.133
328.088
328.031
327.966
327.894
327.819
327.745
327.684
323.548
323.598
323.661
323.724
323.785
323.841
323.889
323.927
323.953
323.967
323.967
323.953
323.927
323.889
323.841
323.785
323.724
323.661
323.598
323.548
319.352
319.392
319.443
319.495
319.545
319.591
319.63
319.662
319.683
319.695
319.695
319.683
319.662
319.63
319.591
319.545
319.495
319.443
319.392
319.352
315.107
315.138
315.177
315.218
315.257
315.292
315.323
315.347
315.364
315.373
315.373
315.364
315.347
315.323
315.292
315.257
315.218
315.177
315.138
315.107
310.823
310.845
310.873
310.902
310.93
310.956
310.978
310.995
311.007
311.013
311.013
311.007
310.995
310.978
310.956
310.93
310.902
310.873
310.845
310.823
306.512
306.525
306.542
306.56
306.577
306.592
306.605
306.615
306.623
306.627
306.627
306.623
306.615
306.605
306.592
306.577
306.56
306.542
306.525
306.512
302.185
302.189
302.195
302.201
302.206
302.212
302.216
302.219
302.222
302.223
302.223
302.222
302.219
302.216
302.212
302.206
302.201
302.195
302.189
302.185
332.64
332.707
332.787
332.869
332.946
333.016
333.077
333.125
333.158
333.175
333.175
333.158
333.125
333.077
333.016
332.946
332.869
332.787
332.707
332.64
328.417
328.474
328.543
328.614
328.682
328.743
328.796
328.838
328.867
328.882
328.882
328.867
328.838
328.796
328.743
328.682
328.614
328.543
328.474
328.417
324.142
324.189
324.248
324.309
324.366
324.418
324.463
324.498
324.523
324.536
324.536
324.523
324.498
324.463
324.418
324.366
324.309
324.248
324.189
324.142
319.821
319.86
319.908
319.957
320.004
320.047
320.084
320.113
320.134
320.144
320.144
320.134
320.113
320.084
320.047
320.004
319.957
319.908
319.86
319.821
315.462
315.492
315.529
315.568
315.604
315.638
315.667
315.69
315.705
315.714
315.714
315.705
315.69
315.667
315.638
315.604
315.568
315.529
315.492
315.462
311.072
311.093
311.12
311.147
311.174
311.198
311.218
311.235
311.246
311.252
311.252
311.246
311.235
311.218
311.198
311.174
311.147
311.12
311.093
311.072
306.66
306.672
306.688
306.705
306.721
306.735
306.748
306.758
306.764
306.768
306.768
306.764
306.758
306.748
306.735
306.721
306.705
306.688
306.672
306.66
302.234
302.238
302.244
302.249
302.254
302.259
302.263
302.267
302.269
302.27
302.27
302.269
302.267
302.263
302.259
302.254
302.249
302.244
302.238
302.234
)
;

boundaryField
{
    hotSide
    {
        type            fixedGradient;
        gradient        nonuniform List<scalar> 
400
(
191.968
192.673
194.083
196.205
199.043
202.605
206.899
211.936
217.724
224.273
231.593
239.691
248.578
258.258
268.74
280.028
292.127
305.04
318.771
333.321
194.609
195.292
196.662
198.724
201.485
204.956
209.149
214.074
219.744
226.172
233.37
241.348
250.115
259.682
270.054
281.238
293.238
306.06
319.706
334.178
197.467
198.125
199.446
201.437
204.108
207.472
211.544
216.34
221.875
228.165
235.224
243.066
251.701
261.141
271.393
282.464
294.359
307.083
320.639
335.028
200.494
201.124
202.388
204.296
206.863
210.104
214.04
218.689
224.072
230.208
237.114
244.806
253.298
262.602
272.725
283.677
295.462
308.084
321.547
335.851
203.607
204.204
205.404
207.22
209.67
212.776
216.561
221.05
226.268
232.239
238.982
246.517
254.858
264.02
274.012
284.842
296.515
309.035
322.405
336.625
206.675
207.237
208.369
210.087
212.414
215.376
219.003
223.326
228.374
234.175
240.752
248.128
256.32
265.342
275.205
285.916
297.481
309.903
323.185
337.326
209.523
210.05
211.114
212.734
214.939
217.76
221.233
225.394
230.278
235.916
242.337
249.563
257.615
266.507
276.25
286.853
298.32
310.654
323.857
337.927
211.94
212.435
213.438
214.971
217.066
219.762
223.098
227.117
231.857
237.354
243.639
250.737
258.669
267.451
277.095
287.607
298.992
311.253
324.391
338.404
213.709
214.18
215.136
216.602
218.614
221.214
224.447
228.359
232.992
238.384
244.568
251.572
259.417
268.119
277.689
288.136
299.463
311.672
324.763
338.735
214.646
215.104
216.034
217.464
219.431
221.98
225.157
229.011
233.586
238.922
245.053
252.006
259.805
268.464
277.997
288.409
299.705
311.887
324.954
338.904
214.646
215.104
216.034
217.464
219.431
221.98
225.157
229.011
233.586
238.922
245.053
252.006
259.805
268.464
277.997
288.409
299.705
311.887
324.954
338.904
213.709
214.18
215.136
216.602
218.614
221.214
224.447
228.359
232.992
238.384
244.568
251.572
259.417
268.119
277.689
288.136
299.463
311.672
324.763
338.735
211.94
212.435
213.438
214.971
217.066
219.762
223.098
227.117
231.857
237.354
243.639
250.737
258.669
267.451
277.095
287.607
298.992
311.253
324.391
338.404
209.523
210.05
211.114
212.734
214.939
217.76
221.233
225.394
230.278
235.916
242.337
249.563
257.615
266.507
276.25
286.853
298.32
310.654
323.857
337.927
206.675
207.237
208.369
210.087
212.414
215.376
219.003
223.326
228.374
234.175
240.752
248.128
256.32
265.342
275.205
285.916
297.481
309.903
323.185
337.326
203.607
204.204
205.404
207.22
209.67
212.776
216.561
221.05
226.268
232.239
238.982
246.517
254.858
264.02
274.012
284.842
296.515
309.035
322.405
336.625
200.494
201.124
202.388
204.296
206.863
210.104
214.04
218.689
224.072
230.208
237.114
244.806
253.298
262.602
272.725
283.677
295.462
308.084
321.547
335.851
197.467
198.125
199.446
201.437
204.108
207.472
211.544
216.34
221.875
228.165
235.224
243.066
251.701
261.141
271.393
282.464
294.359
307.083
320.639
335.028
194.609
195.292
196.662
198.724
201.485
204.956
209.149
214.074
219.744
226.172
233.37
241.348
250.115
259.682
270.054
281.238
293.238
306.06
319.706
334.178
191.968
192.673
194.083
196.205
199.043
202.605
206.899
211.936
217.724
224.273
231.593
239.691
248.578
258.258
268.74
280.028
292.127
305.04
318.771
333.321
)
;
    }
    coldSide
    {
        type            mixed;
        refValue        uniform 300;
        refGradient     uniform 0;
        valueFraction   uniform 0.991591;
        source          uniform 0;
        value           nonuniform List<scalar> 
400
(
300.011
300.011
300.011
300.012
300.012
300.012
300.012
300.012
300.013
300.013
300.014
300.014
300.015
300.015
300.016
300.016
300.017
300.018
300.018
300.019
300.011
300.011
300.011
300.012
300.012
300.012
300.012
300.013
300.013