/*--------------------------------*- C++ -*----------------------------------*\
| =========                 |                                                 |
| \\      /  F ield         | OpenFOAM: The Open Source CFD Toolbox           |
|  \\    /   O peration     | Version:  2212                                  |
|   \\  /    A nd           | Website:  www.openfoam.com                      |
|    \\/     M anipulation  |                                                 |
\*---------------------------------------------------------------------------*/
FoamFile
{
    version     2.0;
    format      ascii;
    arch        "LSB;label=32;scalar=64";
    class       volScalarField;
    location    "0";
    object      T;
}
// * * * * * * * * * * * * * * * * * * * * * * * * * * * * * * * * * * * * * //

dimensions      [0 0 0 1 0 0 0];

internalField   nonuniform List<scalar> 
3200
(
341.764
342.584
343.598
344.254
345.101
345.71
346.107
346.375
346.453
346.366
346.604
346.786
346.301
345.789
345.244
344.642
344.066
343.215
342.255
341.288
336.187
336.898
337.81
338.386
339.105
339.634
340.006
340.269
340.315
340.235
340.461
340.617
340.186
339.749
339.25
338.704
338.279
337.495
336.685
335.889
330.578
331.175
332.034
332.54
333.101
333.581
333.904
334.169
334.188
334.073
334.253
334.403
334.029
333.693
333.243
332.779
332.448
331.739
331.103
330.444
325.015
325.483
326.191
326.64
327.078
327.511
327.746
327.994
327.991
327.917
328.07
328.156
327.866
327.589
327.273
326.814
326.619
326.008
325.491
324.99
319.428
319.748
320.303
320.726
321.041
321.429
321.605
321.785
321.775
321.757
321.863
321.888
321.702
321.516
321.267
320.845
320.743
320.247
319.87
319.46
313.858
314.083
314.475
314.838
315.042
315.291
315.463
315.574
315.563
315.577
315.661
315.67
315.549
315.406
315.194
314.918
314.842
314.46
314.218
313.893
308.314
308.445
308.689
308.895
309.062
309.16
309.305
309.347
309.357
309.323
309.432
309.445
309.366
309.24
309.132
308.93
308.916
308.679
308.53
308.341
302.77
302.849
302.904
302.969
303.031
303.07
303.103
303.124
303.131
303.105
303.177
303.163
303.13
303.101
303.066
302.993
303.004
302.913
302.866
302.799
342.724
343.897
344.714
345.539
346.096
346.995
347.371
347.791
347.732
347.914
347.951
347.936
347.52
347.161
346.487
345.864
345.229
344.253
343.341
342.325
336.982
337.989
338.721
339.454
339.912
340.742
341.037
341.401
341.337
341.49
341.611
341.582
341.249
340.902
340.297
339.721
339.209
338.361
337.548
336.706
331.221
332.101
332.718
333.411
333.779
334.441
334.709
335.053
334.991
335.026
335.23
335.202
334.911
334.612
334.132
333.564
333.194
332.486
331.76
331.046
325.519
326.255
326.733
327.374
327.61
328.124
328.383
328.712
328.635
328.609
328.84
328.796
328.561
328.303
327.953
327.421
327.153
326.574
326
325.392
319.834
320.404
320.767
321.288
321.46
321.812
322.074
322.374
322.283
322.239
322.403
322.389
322.208
321.986
321.786
321.273
321.115
320.673
320.241
319.77
314.178
314.578
314.819
315.186
315.334
315.584
315.783
316.02
315.931
315.859
315.99
316.026
315.865
315.702
315.584
315.162
315.094
314.765
314.456
314.152
308.496
308.76
308.878
309.088
309.206
309.339
309.485
309.625
309.554
309.475
309.599
309.667
309.544
309.415
309.359
309.12
309.062
308.859
308.681
308.525
302.842
302.924
302.967
303.021
303.065
303.129
303.194
303.215
303.209
303.209
303.219
303.237
303.205
303.155
303.133
303.068
303.04
302.97
302.912
302.867
344.519
345.32
346.116
347.22
347.873
348.587
348.92
349.256
349.321
349.314
349.601
349.208
349.382
348.588
347.926
347.506
346.839
345.682
344.945
344.08
338.517
339.244
339.93
340.87
341.443
342.07
342.327
342.647
342.655
342.64
342.958
342.59
342.754
342.054
341.538
341.15
340.559
339.55
338.982
338.192
332.592
333.158
333.748
334.57
335.069
335.579
335.712
336.054
336.046
336.017
336.378
335.998
336.174
335.541
335.153
334.807
334.321
333.461
333.023
332.312
326.616
327.091
327.598
328.265
328.687
329.076
329.172
329.532
329.518
329.397
329.742
329.429
329.585
329.108
328.782
328.49
328.082
327.433
327.061
326.429
320.68
321.01
321.475
321.959
322.348
322.578
322.684
322.983
322.959
322.864
323.091
322.893
322.994
322.641
322.368
322.152
321.853
321.34
321.122
320.584
314.745
314.98
315.371
315.689
315.971
316.107
316.183
316.443
316.405
316.309
316.495
316.393
316.442
316.17
315.959
315.848
315.609
315.209
315.096
314.704
308.838
308.98
309.239
309.441
309.604
309.653
309.684
309.887
309.845
309.77
309.903
309.865
309.884
309.681
309.585
309.499
309.367
309.089
309.027
308.833
302.97
303.006
303.088
303.176
303.212
303.235
303.224
303.318
303.301
303.284
303.333
303.307
303.319
303.263
303.211
303.193
303.138
303.045
303.013
302.962
345.907
346.886
347.93
348.99
349.595
350.132
350.62
351.001
351.251
351.454
351.521
351.011
350.906
350.317
349.615
348.985
348.374
347.456
346.531
345.61
339.684
340.584
341.454
342.343
342.899
343.369
343.763
344.114
344.352
344.515
344.564
344.142
344.044
343.559
342.955
342.356
341.895
341.103
340.316
339.531
333.483
334.291
335.01
335.744
336.269
336.633
336.965
337.345
337.474
337.62
337.665
337.289
337.243
336.821
336.313
335.803
335.407
334.765
334.101
333.425
327.347
328.014
328.61
329.188
329.613
329.944
330.215
330.593
330.607
330.731
330.8
330.489
330.434
330.083
329.726
329.288
328.954
328.442
327.919
327.355
321.23
321.771
322.232
322.661
323.024
323.303
323.496
323.809
323.746
323.814
323.928
323.672
323.621
323.402
323.127
322.774
322.514
322.084
321.767
321.271
315.184
315.598
315.907
316.139
316.454
316.656
316.793
317.003
316.941
316.963
317.068
316.914
316.88
316.715
316.524
316.271
316.065
315.782
315.607
315.217
309.092
309.377
309.516
309.648
309.878
310.026
310.095
310.218
310.161
310.173
310.258
310.171
310.155
310.029
309.918
309.75
309.657
309.461
309.37
309.16
303.038
303.136
303.193
303.236
303.328
303.375
303.381
303.406
303.398
303.431
303.42
303.408
303.399
303.354
303.317
303.267
303.247
303.183
303.144
303.08
347.39
348.464
349.615
350.41
351.272
351.965
352.629
352.966
352.997
353.095
353.264
352.87
352.476
351.994
351.486
350.893
350.106
348.906
347.956
347.064
341.038
341.92
342.906
343.604
344.356
344.983
345.497
345.852
345.883
345.958
346.079
345.762
345.442
345.018
344.489
344.065
343.378
342.334
341.559
340.765
334.706
335.388
336.201
336.794
337.473
338.029
338.468
338.773
338.815
338.831
338.899
338.678
338.384
338.1
337.61
337.211
336.658
335.776
335.173
334.467
328.393
328.911
329.54
330.015
330.657
331.085
331.404
331.707
331.773
331.733
331.8
331.647
331.345
331.136
330.754
330.408
329.936
329.291
328.789
328.185
322.04
322.431
322.929
323.315
323.806
324.173
324.363
324.63
324.682
324.637
324.72
324.603
324.404
324.222
323.888
323.612
323.23
322.746
322.38
321.929
315.717
315.994
316.374
316.642
316.998
317.252
317.352
317.568
317.615
317.578
317.591
317.572
317.438
317.304
317.059
316.844
316.56
316.246
316.006
315.607
309.423
309.58
309.841
310.005
310.187
310.336
310.393
310.527
310.589
310.555
310.554
310.579
310.45
310.374
310.245
310.143
309.964
309.759
309.594
309.348
303.178
303.199
303.291
303.358
303.398
303.451
303.49
303.529
303.569
303.528
303.528
303.536
303.494
303.472
303.414
303.406
303.342
303.286
303.228
303.14
348.795
349.951
351.204
352.107
352.887
353.67
354.124
354.649
354.798
354.807
354.896
354.559
354.413
353.724
353.165
352.451
351.687
350.672
349.595
348.67
342.186
343.212
344.283
345.062
345.753
346.434
346.819
347.259
347.458
347.404
347.46
347.2
347.061
346.505
346.018
345.384
344.735
343.862
342.918
342.123
335.637
336.485
337.441
338.067
338.639
339.211
339.576
339.921
340.138
340.029
340.047
339.87
339.735
339.319
338.843
338.364
337.787
337.03
336.288
335.627
329.116
329.836
330.592
331.103
331.573
332.044
332.351
332.622
332.796
332.713
332.717
332.619
332.448
332.159
331.7
331.357
330.842
330.243
329.699
329.137
322.622
323.186
323.767
324.202
324.52
324.92
325.149
325.396
325.48
325.404
325.403
325.374
325.205
324.977
324.622
324.339
323.941
323.504
323.119
322.651
316.161
316.536
316.96
317.311
317.5
317.751
317.942
318.151
318.191
318.125
318.137
318.148
317.982
317.826
317.559
317.361
317.08
316.815
316.521
316.148
309.705
309.918
310.201
310.42
310.52
310.625
310.759
310.904
310.898
310.856
310.88
310.867
310.783
310.695
310.507
310.416
310.263
310.106
309.925
309.696
303.245
303.304
303.428
303.531
303.527
303.558
303.6
303.667
303.648
303.653
303.661
303.635
303.615
303.586
303.497
303.492
303.459
303.37
303.351
303.265
350.778
351.698
352.706
353.756
354.565
355.287
355.877
356.39
356.695
356.637
356.558
356.298
356.053
355.62
355.146
354.312
353.335
352.328
351.21
350.292
343.959
344.733
345.556
346.487
347.166
347.853
348.386
348.794
349.049
348.993
348.93
348.743
348.507
348.13
347.718
346.995
346.103
345.298
344.366
343.569
337.101
337.738
338.471
339.258
339.828
340.455
340.89
341.212
341.455
341.418
341.311
341.208
340.985
340.637
340.302
339.705
338.95
338.286
337.52
336.879
330.272
330.818
331.437
332.046
332.554
333.098
333.392
333.736
333.875
333.859
333.745
333.658
333.488
333.21
332.902
332.428
331.796
331.296
330.685
330.14
323.506
323.922
324.464
324.903
325.307
325.717
325.944
326.213
326.305
326.297
326.191
326.159
326.038
325.796
325.545
325.146
324.716
324.301
323.894
323.429
316.77
317.067
317.482
317.785
318.05
318.328
318.504
318.69
318.784
318.814
318.661
318.674
318.608
318.445
318.235
317.918
317.649
317.387
317.069
316.745
310.04
310.227
310.468
310.704
310.822
310.994
311.1
311.183
311.269
311.334
311.183
311.225
311.17
311.061
310.957
310.732
310.589
310.46
310.25
310.068
303.386
303.432
303.503
303.594
303.602
303.703
303.715
303.737
303.773
303.786
303.743
303.763
303.743
303.705
303.65
303.585
303.536
303.507
303.436
303.374
352.116
353.071
354.22
355.467
356.106
356.954
357.462
357.983
358.301
358.287
358.203
358.18
357.679
357.398
356.805
355.941
354.933
354.049
352.816
351.755
345.098
345.837
346.895
347.94
348.516
349.287
349.698
350.165
350.456
350.367
350.351
350.33
349.946
349.667
349.184
348.42
347.549
346.851
345.751
344.865
338.116
338.67
339.572
340.5
340.953
341.659
342.01
342.357
342.614
342.512
342.537
342.526
342.224
341.918
341.61
340.863
340.201
339.634
338.696
337.966
331.19
331.591
332.299
333.073
333.443
334.043
334.332
334.595
334.799
334.707
334.774
334.734
334.488
334.24
334.051
333.405
332.853
332.405
331.647
331.073
324.251
324.561
325.089
325.687
325.98
326.44
326.646
326.922
327.031
326.953
326.989
326.959
326.794
326.597
326.491
325.958
325.542
325.183
324.62
324.192
317.294
317.547
317.921
318.336
318.553
318.879
319.015
319.25
319.28
319.223
319.26
319.227
319.1
318.967
318.939
318.523
318.243
318.01
317.611
317.287
310.377
310.553
310.75
311.021
311.114
311.34
311.433
311.542
311.557
311.548
311.557
311.534
311.418
311.404
311.37
311.142
310.94
310.838
310.595
310.36
303.481
303.523
303.601
303.694
303.715
303.809
303.838
303.845
303.887
303.864
303.886
303.849
303.822
303.838
303.797
303.728
303.651
303.648
303.571
303.47
353.323
354.492
355.386
356.85
357.604
358.399
359.094
359.537
359.856
359.646
359.679
359.548
359.579
358.929
358.321
357.408
356.531
355.503
354.305
353.372
346.186
347.115
347.904
349.224
349.797
350.542
351.09
351.481
351.781
351.589
351.582
351.479
351.533
351.039
350.53
349.704
348.987
348.099
347.035
346.315
339.031
339.818
340.455
341.571
342.049
342.714
343.145
343.508
343.798
343.591
343.559
343.47
343.574
343.175
342.707
342.054
341.423
340.681
339.775
339.217
331.913
332.525
333.028
333.958
334.336
334.921
335.241
335.561
335.826
335.629
335.583
335.513
335.629
335.284
334.916
334.341
333.88
333.269
332.523
332.071
324.821
325.244
325.613
326.35
326.675
327.148
327.398
327.64
327.914
327.668
327.61
327.585
327.743
327.433
327.159
326.698
326.312
325.845
325.292
324.932
317.776
318.029
318.223
318.809
319.022
319.39
319.568
319.73
319.969
319.747
319.665
319.688
319.784
319.582
319.374
319.077
318.824
318.446
318.061
317.8
310.691
310.841
310.904
311.293
311.393
311.64
311.767
311.844
311.997
311.891
311.764
311.791
311.857
311.739
311.623
311.447
311.315
311.061
310.842
310.683
303.591
303.606
303.628
303.783
303.809
303.89
303.945
303.967
304.002
303.996
303.944
303.952
303.962
303.956
303.903
303.842
303.779
303.694
303.636
303.574
354.736
355.641
356.71
358.059
359.125
359.74
360.474
361.207
361.398
361.334
361.368
361.254
360.875
360.263
359.856
358.923
358.001
356.801
355.509
354.417
347.383
348.117
349.088
350.222
351.07
351.665
352.306
352.935
353.109
353.083
353.066
352.978
352.66
352.128
351.791
350.971
350.214
349.167
348.076
347.158
340.066
340.651
341.467
342.412
343.071
343.63
344.191
344.685
344.848
344.889
344.812
344.729
344.484
344.053
343.726
343.053
342.401
341.593
340.662
339.932
332.778
333.218
333.85
334.64
335.114
335.635
336.144
336.502
336.583
336.696
336.57
336.532
336.349
336.044
335.715
335.171
334.635
334.02
333.266
332.698
325.482
325.805
326.269
326.922
327.252
327.676
328.101
328.316
328.358
328.524
328.357
328.356
328.216
328.037
327.728
327.358
326.956
326.471
325.887
325.443
318.216
318.449
318.743
319.209
319.422
319.832
320.075
320.2
320.232
320.412
320.255
320.239
320.164
320.008
319.788
319.552
319.311
318.918
318.518
318.194
310.901
311.059
311.239
311.546
311.63
311.921
312.052
312.108
312.111
312.286
312.169
312.163
312.127
312.009
311.899
311.747
311.624
311.36
311.123
310.924
303.653
303.716
303.755
303.857
303.89
303.991
304.053
304.06
304.073
304.116
304.073
304.068
304.069
304.04
303.97
303.93
303.899
303.821
303.718
303.661
356.072
356.796
358.277
359.56
360.324
361.204
361.746
362.433
362.794
362.763
363.115
362.835
362.408
361.874
361.148
360.187
359.287
358.33
356.938
355.862
348.493
349.131
350.396
351.531
352.132
352.951
353.41
354.067
354.332
354.362
354.593
354.358
353.985
353.529
352.908
352.123
351.334
350.507
349.306
348.368
340.937
341.505
342.578
343.519
343.987
344.71
345.102
345.717
345.887
345.953
346.11
345.901
345.635
345.207
344.7
344.047
343.392
342.652
341.684
340.905
333.467
333.93
334.812
335.515
335.888
336.482
336.845
337.377
337.497
337.574
337.671
337.51
337.321
336.922
336.525
336.052
335.474
334.817
334.057
333.414
326.029
326.359
327.069
327.624
327.835
328.277
328.655
329.006
329.121
329.212
329.251
329.142
329.001
328.68
328.38
328.053
327.557
327.027
326.449
325.961
318.601
318.816
319.341
319.759
319.885
320.158
320.483
320.71
320.753
320.825
320.912
320.789
320.662
320.479
320.278
320.059
319.691
319.288
318.917
318.546
311.167
311.28
311.62
311.893
311.936
312.102
312.303
312.436
312.447
312.458
312.563
312.488
312.378
312.283
312.225
312.069
311.828
311.595
311.382
311.146
303.732
303.782
303.872
303.993
303.992
304.05
304.114
304.162
304.172
304.174
304.217
304.186
304.155
304.121
304.1
304.064
303.972
303.897
303.795
303.742
356.98
358.202
359.715
360.647
361.513
362.785
363.122
363.707
364.108
364.038
364.248
364.158
363.604
363.228
362.54
361.635
360.747
359.422
358.078
357.135
349.332
350.381
351.667
352.437
353.211
354.335
354.567
355.154
355.48
355.437
355.607
355.48
355.033
354.737
354.132
353.345
352.582
351.503
350.273
349.483
341.695
342.554
343.67
344.31
344.955
345.879
346.067
346.59
346.87
346.873
347.021
346.853
346.489
346.307
345.779
345.065
344.456
343.515
342.521
341.867
334.05
334.819
335.704
336.184
336.739
337.477
337.637
338.081
338.309
338.289
338.454
338.284
337.995
337.867
337.413
336.768
336.377
335.55
334.766
334.257
326.429
327.052
327.77
328.134
328.544
329.102
329.248
329.572
329.788
329.734
329.875
329.761
329.515
329.396
329.086
328.574
328.266
327.651
326.995
326.668
318.822
319.288
319.874
320.104
320.401
320.788
320.885
321.139
321.284
321.191
321.316
321.24
321.076
320.982
320.774
320.384
320.168
319.735
319.289
319.058
311.29
311.57
311.95
312.053
312.267
312.488
312.568
312.677
312.812
312.716
312.8
312.757
312.674
312.626
312.486
312.215
312.102
311.85
311.599
311.456
303.784
303.885
304
304.053
304.108
304.195
304.218
304.249
304.326
304.254
304.281
304.288
304.269
304.233
304.192
304.096
304.043
303.966
303.901
303.865
357.849
359.444
360.816
361.713
362.565
363.931
364.148
364.885
365.153
365.369
365.523
365.284
364.989
364.477
363.843
362.933
361.901
360.601
359.142
357.935
350.018
351.408
352.587
353.397
354.124
355.298
355.455
356.112
356.324
356.523
356.7
356.434
356.217
355.792
355.275
354.506
353.565
352.512
351.189
350.162
342.225
343.388
344.38
345.176
345.698
346.671
346.856
347.385
347.569
347.698
347.896
347.622
347.472
347.151
346.695
346.038
345.277
344.426
343.272
342.414
334.481
335.413
336.275
336.908
337.294
338.11
338.312
338.68
338.831
338.943
339.151
338.863
338.831
338.539
338.158
337.584
336.995
336.317
335.332
334.68
326.799
327.482
328.221
328.669
328.988
329.591
329.741
330.069
330.161
330.244
330.431
330.198
330.181
329.98
329.638
329.254
328.754
328.233
327.46
326.954
319.16
319.624
320.158
320.435
320.695
321.087
321.197
321.462
321.523
321.565
321.749
321.595
321.556
321.401
321.15
320.903
320.527
320.151
319.621
319.223
311.529
311.744
312.1
312.257
312.437
312.679
312.719
312.884
312.898
312.929
313.06
312.967
312.922
312.843
312.701
312.546
312.341
312.09
311.787
311.512
303.868
303.94
304.071
304.094
304.174
304.247
304.279
304.325
304.321
304.343
304.364
304.335
304.328
304.292
304.264
304.2
304.15
304.045
303.959
303.846
358.868
360.262
361.628
362.948
363.828
364.538
365.333
365.88
366.345
366.521
366.466
366.31
365.961
365.378
364.84
363.775
362.863
361.602
360.185
359.192
350.905
352.108
353.33
354.402
355.178
355.808
356.504
356.985
357.353
357.534
357.479
357.375
357.089
356.582
356.131
355.179
354.368
353.311
352.094
351.287
343.019
344.008
345.072
345.937
346.586
347.123
347.741
348.075
348.422
348.59
348.541
348.463
348.221
347.771
347.42
346.591
345.91
345.084
344.038
343.382
335.167
335.933
336.802
337.512
338.021
338.457
339.024
339.254
339.528
339.696
339.668
339.592
339.434
339.044
338.722
338.05
337.464
336.91
336.03
335.46
327.314
327.893
328.603
329.135
329.546
329.835
330.287
330.494
330.719
330.816
330.824
330.734
330.623
330.366
330.095
329.567
329.076
328.739
328.052
327.578
319.513
319.889
320.449
320.788
321.104
321.249
321.597
321.75
321.912
321.998
322.044
321.924
321.86
321.693
321.504
321.119
320.744
320.512
320.107
319.686
311.709
311.903
312.302
312.459
312.669
312.713
312.991
313.093
313.128
313.192
313.244
313.122
313.137
312.987
312.921
312.695
312.455
312.31
312.117
311.813
303.915
303.986
304.132
304.176
304.249
304.252
304.352
304.391
304.396
304.426
304.425
304.394
304.397
304.345
304.336
304.248
304.179
304.106
304.061
303.944
359.887
361.153
362.397
363.699
364.909
365.737
366.571
367.002
367.244
367.489
367.293
367.366
367.062
366.446
365.739
364.878
363.659
362.579
361.068
359.936
351.853
352.914
353.988
355.127
356.121
356.819
357.6
357.933
358.166
358.399
358.224
358.3
358.011
357.524
356.899
356.149
355.11
354.172
352.842
351.903
343.838
344.708
345.587
346.632
347.356
347.893
348.697
348.877
349.119
349.373
349.175
349.257
349.006
348.623
348.078
347.487
346.585
345.767
344.641
343.904
335.821
336.559
337.242
338.142
338.638
339.086
339.848
339.887
340.132
340.39
340.175
340.258
340.089
339.741
339.266
338.829
338.075
337.388
336.534
335.903
327.847
328.422
328.945
329.644
330.049
330.366
330.975
330.963
331.191
331.421
331.189
331.268
331.157
330.92
330.514
330.178
329.64
329.039
328.444
327.931
319.936
320.335
320.643
321.179
321.43
321.708
322.145
322.104
322.257
322.438
322.256
322.306
322.225
322.059
321.798
321.534
321.131
320.727
320.342
319.958
311.999
312.193
312.426
312.712
312.858
313.045
313.27
313.257
313.358
313.456
313.372
313.395
313.342
313.238
313.062
312.962
312.695
312.447
312.255
311.999
304.021
304.095
304.159
304.257
304.315
304.387
304.428
304.439
304.49
304.52
304.468
304.497
304.464
304.437
304.388
304.341
304.273
304.188
304.103
304.035
360.619
361.939
363.291
364.374
365.653
366.927
367.682
367.865
368.118
368.535
368.101
368.204
367.899
367.413
366.517
365.513
364.488
363.351
362
360.514
352.516
353.572
354.763
355.646
356.772
357.916
358.585
358.701
358.92
359.291
358.896
358.97
358.775
358.317
357.521
356.688
355.84
354.828
353.693
352.424
344.459
345.245
346.233
347.026
347.946
348.907
349.478
349.599
349.783
350.099
349.747
349.831
349.698
349.28
348.611
347.898
347.141
346.306
345.423
344.38
336.418
336.989
337.747
338.428
339.139
339.962
340.415
340.571
340.722
340.979
340.695
340.714
340.608
340.253
339.708
339.12
338.503
337.805
337.143
336.284
328.358
328.742
329.311
329.875
330.4
331.051
331.418
331.582
331.668
331.877
331.625
331.618
331.534
331.247
330.829
330.382
329.863
329.39
328.898
328.174
320.252
320.468
320.923
321.292
321.656
322.176
322.475
322.55
322.639
322.791
322.581
322.602
322.52
322.292
322.015
321.668
321.293
320.981
320.682
320.118
312.178
312.28
312.577
312.79
312.996
313.317
313.515
313.507
313.593
313.687
313.522
313.554
313.542
313.359
313.203
313
312.797
312.595
312.48
312.103
304.102
304.101
304.192
304.294
304.349
304.463
304.535
304.529
304.553
304.585
304.529
304.521
304.539
304.461
304.423
304.369
304.289
304.227
304.184
304.028
361.366
362.479
363.936
365.27
366.409
367.318
368.171
368.741
369.04
369.23
368.966
368.982
368.708
368.06
367.232
366.189
364.974
363.941
362.689
361.319
353.128
354.036
355.267
356.435
357.424
358.24
358.997
359.408
359.73
359.878
359.584
359.664
359.451
358.88
358.137
357.322
356.211
355.365
354.239
353.168
344.896
345.622
346.664
347.668
348.506
349.229
349.787
350.188
350.473
350.591
350.277
350.362
350.197
349.771
349.126
348.467
347.475
346.827
345.858
345.011
336.709
337.31
338.113
338.945
339.63
340.255
340.651
341.006
341.262
341.348
341.041
341.115
340.987
340.675
340.143
339.673
338.791
338.307
337.469
336.827
328.545
329.004
329.627
330.272
330.775
331.366
331.605
331.88
332.094
332.127
331.891
331.896
331.846
331.6
331.205
330.841
330.146
329.765
329.155
328.609
320.406
320.704
321.16
321.607
321.995
322.411
322.576
322.751
322.932
322.972
322.782
322.769
322.762
322.564
322.236
322.049
321.519
321.212
320.847
320.447
312.253
312.422
312.706
312.991
313.213
313.455
313.572
313.667
313.776
313.82
313.652
313.676
313.697
313.557
313.327
313.242
312.942
312.732
312.505
312.268
304.096
304.153
304.253
304.353
304.435
304.525
304.543
304.582
304.63
304.628
304.575
304.596
304.589
304.543
304.466
304.437
304.357
304.265
304.172
304.118
361.645
363.028
364.278
365.726
366.775
367.713
368.717
369.273
369.605
369.723
369.679
369.657
369.315
368.618
367.864
366.82
365.686
364.551
363.085
362.095
353.358
354.479
355.607
356.842
357.778
358.555
359.406
359.972
360.221
360.247
360.216
360.24
359.913
359.385
358.688
357.805
356.834
355.862
354.613
353.823
345.077
346.002
346.975
348.033
348.795
349.49
350.143
350.654
350.889
350.862
350.832
350.884
350.595
350.176
349.558
348.812
348.022
347.212
346.138
345.562
336.862
337.6
338.4
339.283
339.842
340.444
340.945
341.39
341.589
341.551
341.466
341.582
341.352
341.014
340.476
339.919
339.26
338.597
337.701
337.34
328.647
329.236
329.839
330.523
330.932
331.43
331.826
332.18
332.291
332.288
332.206
332.256
332.148
331.876
331.496
331.01
330.51
329.98
329.315
329.07
320.501
320.906
321.304
321.813
322.067
322.401
322.742
322.98
323.037
323.086
322.99
323.001
322.94
322.748
322.494
322.119
321.814
321.386
320.966
320.784
312.322
312.539
312.776
313.122
313.234
313.432
313.695
313.806
313.824
313.854
313.828
313.817
313.776
313.691
313.479
313.263
313.107
312.854
312.625
312.47
304.134
304.209
304.266
304.405
304.435
304.509
304.595
304.606
304.626
304.64
304.643
304.656
304.605
304.583
304.493
304.45
304.406
304.308
304.236
304.177
362.334
363.432
364.787
366.048
367.239
368.17
368.996
369.758
369.879
370.295
370.148
370.136
369.641
369.413
368.35
367.103
366.117
364.843
363.255
362.22
353.921
354.845
356.033
357.122
358.186
358.978
359.681
360.393
360.462
360.823
360.636
360.702
360.219
360.103
359.108
358.038
357.21
356.085
354.753
353.958
345.526
346.324
347.295
348.219
349.183
349.842
350.413
351.041
351.079
351.417
351.189
351.296
350.866
350.829
349.95
349.031
348.322
347.36
346.264
345.698
337.154
337.844
338.626
339.377
340.194
340.748
341.179
341.697
341.773
342.042
341.777
341.92
341.594
341.547
340.819
340.035
339.452
338.736
337.82
337.42
328.851
329.415
330.014
330.585
331.192
331.658
331.99
332.382
332.469
332.687
332.439
332.544
332.394
332.287
331.747
331.079
330.589
330.132
329.364
329.164
320.572
321.012
321.432
321.85
322.243
322.573
322.837
323.11
323.184
323.304
323.128
323.162
323.209
323.042
322.654
322.195
321.867
321.565
320.974
320.863
312.352
312.642
312.895
313.138
313.342
313.575
313.711
313.897
313.9
313.996
313.903
313.881
313.963
313.832
313.611
313.335
313.142
312.927
312.611
312.561
304.136
304.235
304.334
304.42
304.444
304.556
304.577
304.67
304.646
304.691
304.674
304.649
304.689
304.639
304.555
304.477
304.422
304.323
304.227
304.213
362.437
363.513
364.99
366.259
367.537
368.59
369.453
369.936
370.365
370.597
370.357
370.498
369.932
369.429
368.815
367.631
366.435
364.976
363.673
362.614
354.065
354.907
356.167
357.262
358.423
359.313
360.063
360.509
360.849
361.105
360.871
360.997
360.514
360.064
359.575
358.545
357.506
356.2
355.106
354.267
345.721
346.357
347.433
348.312
349.35
350.088
350.738
351.166
351.43
351.618
351.39
351.516
351.165
350.737
350.351
349.475
348.592
347.527
346.558
345.916
337.36
337.858
338.803
339.459
340.315
340.968
341.468
341.864
341.995
342.162
341.976
342.07
341.866
341.455
341.136
340.429
339.68
338.889
338.024
337.58
329.008
329.409
330.168
330.636
331.342
331.854
332.242
332.598
332.613
332.742
332.561
332.689
332.544
332.212
331.93
331.408
330.806
330.264
329.528
329.196
320.673
321.004
321.542
321.843
322.377
322.729
323.026
323.309
323.287
323.372
323.19
323.307
323.266
323
322.841
322.443
321.979
321.61
321.13
320.864
312.401
312.589
312.933
313.095
313.454
313.639
313.832
313.991
313.99
314.02
313.908
313.99
313.969
313.81
313.739
313.502
313.162
312.948
312.699
312.491
304.138
304.226
304.33
304.387
304.536
304.583
304.638
304.683
304.694
304.685
304.653
304.673
304.695
304.636
304.596
304.518
304.418
304.332
304.246
304.197
)
;

boundaryField
{
    hotSide
    {
        type            fixedGradient;
        gradient        nonuniform List<scalar> 
400
(
442.838
461.017
478.953
496.568
513.779
530.507
546.672
562.195
576.998
591.007
604.15
616.359
627.57
637.725
646.769
654.656
661.342
666.793
670.982
673.886
453.434
472.149
490.619
508.764
526.499
543.741
560.409
576.421
591.697
606.16
619.736
632.355
643.951
654.462
663.835
672.018
678.968
684.65
689.033
692.096
462.85
482.053
501.01
519.637
537.85
555.563
572.691
589.151
604.861
619.741
633.715
646.712
658.663
669.505
679.181
687.64
694.837
700.734
705.301
708.516
471.046
490.685
510.078
529.138
547.78
565.915
583.457
600.321
616.421
631.678
646.013
659.352
671.625
682.767
692.721
701.432
708.855
714.952
719.69
723.046
477.991
498.012
517.786
537.227
556.245
574.752
592.658
609.877
626.323
641.913
656.567
670.21
682.769
694.179
704.38
713.318
720.945
727.222
732.116
735.602
483.666
504.011
524.11
543.875
563.214
582.038
600.256
617.781
634.523
650.4
665.329
679.234
692.041
703.684
714.101
723.237
731.044
737.48
742.512
746.115
488.057
508.666
529.031
549.061
568.664
587.749
606.225
624.001
640.989
657.103
672.261
686.385
699.4
711.239
721.838
731.141
739.1
745.672
750.824
754.53
491.157
511.97
532.539
552.774
572.582
591.869
610.545
628.518
645.699
662
677.339
691.635
704.816
716.81
727.555
736.994
745.076
751.761
757.012
760.804
492.967
513.92
534.632
555.01
574.96
594.391
613.209
631.321
648.639
665.075
680.544
694.967
708.268
720.378
731.231
740.772
748.948
755.719
761.048
764.909
493.491
514.521
535.311
555.769
575.801
595.313
614.213
632.407
649.807
666.323
681.872
696.372
709.749
721.931
732.854
742.462
750.702
757.531
762.915
766.826
492.737
513.78
534.584
555.058
575.108
594.64
613.562
631.78
649.204
665.746
681.322
695.851
709.257
721.469
732.423
742.061
750.332
757.193
762.609
766.551
490.718
511.708
532.463
552.889
572.894
592.384
611.267
629.449
646.841
663.354
678.905
693.412
706.8
718.999
729.944
739.577
747.848
754.712
760.135
764.089
487.447
508.321
528.962
549.277
569.175
588.561
607.344
625.431
642.734
659.163
674.637
689.073
702.397
714.539
725.435
735.027
743.264
750.104
755.51
759.456
482.944
503.638
524.102
544.243
563.97
583.192
601.815
619.75
636.906
653.198
668.542
682.858
696.073
708.115
718.922
728.437
736.609
743.396
748.761
752.68
477.229
497.681
517.905
537.811
557.307
576.304
594.709
612.433
629.389
645.489
660.653
674.801
687.86
699.761
710.441
719.844
727.919
734.625
739.927
743.799
470.327
490.477
510.401
530.011
549.217
567.93
586.06
603.518
620.219
636.077
651.011
664.944
677.804
689.523
700.038
709.294
717.243
723.842
729.058
732.864
462.268
482.057
501.622
520.878
539.737
558.11
575.909
593.049
609.442
625.008
639.665
653.339
665.957
677.454
687.768
696.846
704.638
711.105
716.214
719.937
453.087
472.458
491.609
510.456
528.912
546.891
564.308
581.076
597.114
612.339
626.674
640.045
652.382
663.62
673.7
682.568
690.177
696.488
701.469
705.093
442.824
461.724
480.407
498.792
516.794
534.329
551.312
567.662
583.297
598.138
612.109
625.137
637.155
648.099
657.912
666.542
673.943
680.076
684.91
688.421
431.526
449.905
468.072
485.945
503.444
520.487
536.992
552.878
568.067
582.481
596.048
608.697
620.361
630.98
640.497
648.862
656.031
661.966
666.638
670.021
)
;
    }
    coldSide
    {
        type            mixed;
        refValue        uniform 300;
        refGradient     uniform 0;
        valueFraction   uniform 0.991591;
        source          uniform 0;
        value           nonuniform List<scalar> 
400
(
300.023
300.024
300.025
300.026
300.027
300.027
300.028
300.029
300.03
300.031
300.031
300.032
300.033
300.033
300.034
300.034
300.034
300.035
300.035
300.035
300.024
300.025
300.025
300.026
300.027
300.028
300.029
300.03
300.03
300.031
300.032
300.033
300.033
300.034
300.034
300.034
300.035
300.035
300.036
300.036
300.024
300.025