/*--------------------------------*- C++ -*----------------------------------*\
| =========                 |                                                 |
| \\      /  F ield         | OpenFOAM: The Open Source CFD Toolbox           |
|  \\    /   O peration     | Version:  2212                                  |
|   \\  /    A nd           | Website:  www.openfoam.com                      |
|    \\/     M anipulation  |                                                 |
\*---------------------------------------------------------------------------*/
FoamFile
{
    version     2.0;
    format      ascii;
    arch        "LSB;label=32;scalar=64";
    class       volScalarField;
    location    "0";
    object      Tdirect;
}
// * * * * * * * * * * * * * * * * * * * * * * * * * * * * * * * * * * * * * //

dimensions      [0 0 0 1 0 0 0];

internalField   nonuniform List<scalar> 
3200
(
317.129
317.316
317.555
317.815
318.083
318.347
318.59
318.795
318.944
319.023
319.023
318.944
318.795
318.59
318.347
318.083
317.815
317.555
317.316
317.129
314.848
315.007
315.213
315.438
315.67
315.898
316.108
316.285
316.414
316.482
316.482
316.414
316.285
316.108
315.898
315.67
315.438
315.213
315.007
314.848
312.568
312.699
312.873
313.063
313.259
313.452
313.629
313.779
313.887
313.945
313.945
313.887
313.779
313.629
313.452
313.259
313.063
312.873
312.699
312.568
310.287
310.392
310.534
310.689
310.85
311.007
311.152
311.274
311.363
311.41
311.41
311.363
311.274
311.152
311.007
310.85
310.689
310.534
310.392
310.287
308.004
308.086
308.195
308.316
308.441
308.563
308.676
308.77
308.839
308.876
308.876
308.839
308.77
308.676
308.563
308.441
308.316
308.195
308.086
308.004
305.721
305.779
305.857
305.943
306.032
306.119
306.2
306.267
306.317
306.343
306.343
306.317
306.267
306.2
306.119
306.032
305.943
305.857
305.779
305.721
303.437
303.471
303.518
303.57
303.624
303.676
303.724
303.765
303.794
303.81
303.81
303.794
303.765
303.724
303.676
303.624
303.57
303.518
303.471
303.437
301.152
301.164
301.179
301.197
301.215
301.232
301.248
301.262
301.272
301.277
301.277
301.272
301.262
301.248
301.232
301.215
301.197
301.179
301.164
301.152
317.191
317.376
317.613
317.871
318.137
318.397
318.637
318.84
318.987
319.065
319.065
318.987
318.84
318.637
318.397
318.137
317.871
317.613
317.376
317.191
314.902
315.059
315.263
315.487
315.716
315.942
316.149
316.324
316.451
316.519
316.519
316.451
316.324
316.149
315.942
315.716
315.487
315.263
315.059
314.902
312.613
312.744
312.916
313.104
313.298
313.489
313.664
313.812
313.919
313.976
313.976
313.919
313.812
313.664
313.489
313.298
313.104
312.916
312.744
312.613
310.324
310.429
310.569
310.723
310.882
311.037
311.18
311.301
311.389
311.435
311.435
311.389
311.301
311.18
311.037
310.882
310.723
310.569
310.429
310.324
308.033
308.114
308.223
308.342
308.466
308.587
308.698
308.792
308.86
308.896
308.896
308.86
308.792
308.698
308.587
308.466
308.342
308.223
308.114
308.033
305.742
305.799
305.876
305.962
306.05
306.136
306.216
306.283
306.331
306.357
306.357
306.331
306.283
306.216
306.136
306.05
305.962
305.876
305.799
305.742
303.449
303.483
303.53
303.581
303.634
303.686
303.734
303.774
303.803
303.818
303.818
303.803
303.774
303.734
303.686
303.634
303.581
303.53
303.483
303.449
301.156
301.168
301.183
301.201
301.218
301.236
301.252
301.265
301.275
301.28
301.28
301.275
301.265
301.252
301.236
301.218
301.201
301.183
301.168
301.156
317.315
317.498
317.731
317.984
318.244
318.499
318.733
318.931
319.075
319.15
319.15
319.075
318.931
318.733
318.499
318.244
317.984
317.731
317.498
317.315
315.01
315.164
315.365
315.584
315.809
316.03
316.232
316.403
316.527
316.593
316.593
316.527
316.403
316.232
316.03
315.809
315.584
315.365
315.164
315.01
312.704
312.832
313.002
313.187
313.377
313.563
313.734
313.879
313.983
314.039
314.039
313.983
313.879
313.734
313.563
313.377
313.187
313.002
312.832
312.704
310.398
310.501
310.639
310.791
310.946
311.098
311.238
311.356
311.441
311.486
311.486
311.441
311.356
311.238
311.098
310.946
310.791
310.639
310.501
310.398
308.091
308.17
308.277
308.395
308.516
308.634
308.743
308.834
308.901
308.936
308.936
308.901
308.834
308.743
308.634
308.516
308.395
308.277
308.17
308.091
305.783
305.839
305.915
305.999
306.086
306.17
306.248
306.313
306.36
306.385
306.385
306.36
306.313
306.248
306.17
306.086
305.999
305.915
305.839
305.783
303.474
303.508
303.553
303.604
303.656
303.706
303.753
303.792
303.821
303.835
303.835
303.821
303.792
303.753
303.706
303.656
303.604
303.553
303.508
303.474
301.165
301.176
301.191
301.208
301.225
301.242
301.258
301.271
301.281
301.286
301.286
301.281
301.271
301.258
301.242
301.225
301.208
301.191
301.176
301.165
317.502
317.681
317.908
318.154
318.406
318.653
318.879
319.07
319.208
319.281
319.281
319.208
319.07
318.879
318.653
318.406
318.154
317.908
317.681
317.502
315.171
315.322
315.518
315.731
315.95
316.163
316.359
316.524
316.643
316.706
316.706
316.643
316.524
316.359
316.163
315.95
315.731
315.518
315.322
315.171
312.841
312.966
313.131
313.311
313.496
313.676
313.842
313.981
314.081
314.135
314.135
314.081
313.981
313.842
313.676
313.496
313.311
313.131
312.966
312.841
310.51
310.611
310.745
310.892
311.043
311.191
311.326
311.439
311.522
311.565
311.565
311.522
311.439
311.326
311.191
311.043
310.892
310.745
310.611
310.51
308.178
308.255
308.36
308.474
308.591
308.706
308.811
308.899
308.963
308.997
308.997
308.963
308.899
308.811
308.706
308.591
308.474
308.36
308.255
308.178
305.845
305.9
305.974
306.056
306.14
306.222
306.297
306.36
306.405
306.429
306.429
306.405
306.36
306.297
306.222
306.14
306.056
305.974
305.9
305.845
303.511
303.544
303.589
303.638
303.688
303.737
303.782
303.82
303.847
303.862
303.862
303.847
303.82
303.782
303.737
303.688
303.638
303.589
303.544
303.511
301.177
301.188
301.203
301.219
301.236
301.253
301.268
301.281
301.29
301.295
301.295
301.29
301.281
301.268
301.253
301.236
301.219
301.203
301.188
301.177
317.752
317.925
318.145
318.382
318.625
318.861
319.078
319.259
319.391
319.46
319.46
319.391
319.259
319.078
318.861
318.625
318.382
318.145
317.925
317.752
315.388
315.534
315.724
315.929
316.139
316.344
316.531
316.688
316.802
316.861
316.861
316.802
316.688
316.531
316.344
316.139
315.929
315.724
315.534
315.388
313.024
313.145
313.305
313.478
313.656
313.829
313.987
314.12
314.216
314.266
314.266
314.216
314.12
313.987
313.829
313.656
313.478
313.305
313.145
313.024
310.659
310.757
310.887
311.029
311.174
311.316
311.445
311.553
311.632
311.673
311.673
311.632
311.553
311.445
311.316
311.174
311.029
310.887
310.757
310.659
308.294
308.369
308.47
308.58
308.693
308.803
308.904
308.988
309.049
309.081
309.081
309.049
308.988
308.904
308.803
308.693
308.58
308.47
308.369
308.294
305.928
305.981
306.053
306.132
306.213
306.291
306.363
306.423
306.466
306.489
306.489
306.466
306.423
306.363
306.291
306.213
306.132
306.053
305.981
305.928
303.561
303.593
303.636
303.683
303.732
303.779
303.822
303.858
303.884
303.898
303.898
303.884
303.858
303.822
303.779
303.732
303.683
303.636
303.593
303.561
301.194
301.204
301.219
301.235
301.251
301.267
301.281
301.293
301.302
301.307
301.307
301.302
301.293
301.281
301.267
301.251
301.235
301.219
301.204
301.194
318.066
318.233
318.444
318.671
318.902
319.126
319.331
319.502
319.626
319.691
319.691
319.626
319.502
319.331
319.126
318.902
318.671
318.444
318.233
318.066
315.66
315.8
315.982
316.179
316.379
316.573
316.75
316.899
317.006
317.062
317.062
317.006
316.899
316.75
316.573
316.379
316.179
315.982
315.8
315.66
313.253
313.37
313.523
313.69
313.859
314.023
314.173
314.298
314.388
314.436
314.436
314.388
314.298
314.173
314.023
313.859
313.69
313.523
313.37
313.253
310.847
310.941
311.066
311.202
311.34
311.474
311.597
311.699
311.773
311.812
311.812
311.773
311.699
311.597
311.474
311.34
311.202
311.066
310.941
310.847
308.44
308.512
308.609
308.715
308.822
308.927
309.022
309.101
309.159
309.189
309.189
309.159
309.101
309.022
308.927
308.822
308.715
308.609
308.512
308.44
306.032
306.084
306.153
306.228
306.305
306.379
306.447
306.504
306.545
306.566
306.566
306.545
306.504
306.447
306.379
306.305
306.228
306.153
306.084
306.032
303.624
303.654
303.696
303.741
303.787
303.832
303.873
303.907
303.931
303.944
303.944
303.931
303.907
303.873
303.832
303.787
303.741
303.696
303.654
303.624
301.215
301.225
301.239
301.254
301.27
301.285
301.298
301.31
301.318
301.322
301.322
301.318
301.31
301.298
301.285
301.27
301.254
301.239
301.225
301.215
318.445
318.604
318.805
319.021
319.239
319.45
319.642
319.802
319.918
319.978
319.978
319.918
319.802
319.642
319.45
319.239
319.021
318.805
318.604
318.445
315.987
316.122
316.295
316.482
316.671
316.854
317.02
317.158
317.258
317.311
317.311
317.258
317.158
317.02
316.854
316.671
316.482
316.295
316.122
315.987
313.53
313.642
313.788
313.946
314.106
314.26
314.401
314.518
314.602
314.646
314.646
314.602
314.518
314.401
314.26
314.106
313.946
313.788
313.642
313.53
311.074
311.164
311.282
311.411
311.542
311.669
311.783
311.879
311.948
311.984
311.984
311.948
311.879
311.783
311.669
311.542
311.411
311.282
311.164
311.074
308.616
308.685
308.778
308.878
308.98
309.078
309.167
309.241
309.295
309.323
309.323
309.295
309.241
309.167
309.078
308.98
308.878
308.778
308.685
308.616
306.158
306.207
306.273
306.344
306.417
306.487
306.551
306.604
306.642
306.662
306.662
306.642
306.604
306.551
306.487
306.417
306.344
306.273
306.207
306.158
303.699
303.729
303.768
303.811
303.855
303.897
303.935
303.967
303.99
304.002
304.002
303.99
303.967
303.935
303.897
303.855
303.811
303.768
303.729
303.699
301.24
301.25
301.263
301.278
301.292
301.306
301.319
301.33
301.337
301.341
301.341
301.337
301.33
301.319
301.306
301.292
301.278
301.263
301.25
301.24
318.889
319.041
319.231
319.434
319.639
319.836
320.014
320.163
320.269
320.325
320.325
320.269
320.163
320.014
319.836
319.639
319.434
319.231
319.041
318.889
316.372
316.5
316.664
316.839
317.017
317.188
317.342
317.471
317.563
317.611
317.611
317.563
317.471
317.342
317.188
317.017
316.839
316.664
316.5
316.372
313.855
313.962
314.1
314.248
314.398
314.543
314.673
314.782
314.86
314.901
314.901
314.86
314.782
314.673
314.543
314.398
314.248
314.1
313.962
313.855
311.339
311.425
311.537
311.659
311.782
311.9
312.006
312.095
312.159
312.192
312.192
312.159
312.095
312.006
311.9
311.782
311.659
311.537
311.425
311.339
308.823
308.888
308.976
309.07
309.166
309.257
309.341
309.409
309.459
309.485
309.485
309.459
309.409
309.341
309.257
309.166
309.07
308.976
308.888
308.823
306.306
306.352
306.414
306.482
306.55
306.616
306.675
306.724
306.759
306.778
306.778
306.759
306.724
306.675
306.616
306.55
306.482
306.414
306.352
306.306
303.788
303.816
303.853
303.894
303.935
303.974
304.01
304.039
304.06
304.071
304.071
304.06
304.039
304.01
303.974
303.935
303.894
303.853
303.816
303.788
301.27
301.279
301.292
301.305
301.319
301.332
301.344
301.354
301.361
301.365
301.365
301.361
301.354
301.344
301.332
301.319
301.305
301.292
301.279
301.27
319.4
319.543
319.722
319.912
320.103
320.286
320.45
320.587
320.684
320.736
320.736
320.684
320.587
320.45
320.286
320.103
319.912
319.722
319.543
319.4
316.814
316.935
317.089
317.253
317.419
317.577
317.72
317.838
317.922
317.967
317.967
317.922
317.838
317.72
317.577
317.419
317.253
317.089
316.935
316.814
314.229
314.329
314.459
314.598
314.738
314.872
314.993
315.093
315.164
315.201
315.201
315.164
315.093
314.993
314.872
314.738
314.598
314.459
314.329
314.229
311.645
311.725
311.831
311.945
312.06
312.169
312.268
312.349
312.408
312.438
312.438
312.408
312.349
312.268
312.169
312.06
311.945
311.831
311.725
311.645
309.06
309.122
309.204
309.293
309.382
309.467
309.544
309.607
309.652
309.676
309.676
309.652
309.607
309.544
309.467
309.382
309.293
309.204
309.122
309.06
306.475
306.519
306.578
306.641
306.704
306.765
306.82
306.865
306.898
306.915
306.915
306.898
306.865
306.82
306.765
306.704
306.641
306.578
306.519
306.475
303.89
303.916
303.951
303.989
304.027
304.064
304.097
304.124
304.143
304.154
304.154
304.143
304.124
304.097
304.064
304.027
303.989
303.951
303.916
303.89
301.304
301.313
301.324
301.337
301.35
301.362
301.373
301.382
301.389
301.392
301.392
301.389
301.382
301.373
301.362
301.35
301.337
301.324
301.313
301.304
319.978
320.112
320.279
320.456
320.633
320.802
320.953
321.077
321.166
321.213
321.213
321.166
321.077
320.953
320.802
320.633
320.456
320.279
320.112
319.978
317.314
317.427
317.572
317.725
317.878
318.024
318.155
318.263
318.34
318.38
318.38
318.34
318.263
318.155
318.024
317.878
317.725
317.572
317.427
317.314
314.652
314.746
314.867
314.997
315.127
315.25
315.361
315.452
315.517
315.551
315.551
315.517
315.452
315.361
315.25
315.127
314.997
314.867
314.746
314.652
311.99
312.066
312.165
312.271
312.377
312.478
312.569
312.643
312.696
312.724
312.724
312.696
312.643
312.569
312.478
312.377
312.271
312.165
312.066
311.99
309.329
309.387
309.464
309.546
309.629
309.707
309.778
309.836
309.877
309.899
309.899
309.877
309.836
309.778
309.707
309.629
309.546
309.464
309.387
309.329
306.667
306.708
306.763
306.822
306.881
306.937
306.987
307.029
307.058
307.074
307.074
307.058
307.029
306.987
306.937
306.881
306.822
306.763
306.708
306.667
304.005
304.03
304.063
304.098
304.133
304.167
304.197
304.222
304.24
304.249
304.249
304.24
304.222
304.197
304.167
304.133
304.098
304.063
304.03
304.005
301.343
301.351
301.362
301.374
301.386
301.397
301.407
301.415
301.421
301.424
301.424
301.421
301.415
301.407
301.397
301.386
301.374
301.362
301.351
301.343
320.624
320.749
320.905
321.069
321.232
321.386
321.524
321.637
321.718
321.76
321.76
321.718
321.637
321.524
321.386
321.232
321.069
320.905
320.749
320.624
317.873
317.979
318.113
318.255
318.397
318.53
318.65
318.748
318.817
318.854
318.854
318.817
318.748
318.65
318.53
318.397
318.255
318.113
317.979
317.873
315.124
315.212
315.325
315.446
315.565
315.678
315.779
315.862
315.921
315.952
315.952
315.921
315.862
315.779
315.678
315.565
315.446
315.325
315.212
315.124
312.377
312.447
312.54
312.638
312.736
312.828
312.911
312.979
313.027
313.052
313.052
313.027
312.979
312.911
312.828
312.736
312.638
312.54
312.447
312.377
309.629
309.684
309.755
309.832
309.908
309.98
310.044
310.097
310.134
310.154
310.154
310.134
310.097
310.044
309.98
309.908
309.832
309.755
309.684
309.629
306.882
306.92
306.971
307.026
307.08
307.132
307.178
307.215
307.242
307.256
307.256
307.242
307.215
307.178
307.132
307.08
307.026
306.971
306.92
306.882
304.134
304.157
304.187
304.22
304.253
304.284
304.311
304.334
304.35
304.358
304.358
304.35
304.334
304.311
304.284
304.253
304.22
304.187
304.157
304.134
301.386
301.393
301.404
301.415
301.426
301.436
301.445
301.453
301.458
301.461
301.461
301.458
301.453
301.445
301.436
301.426
301.415
301.404
301.393
301.386
321.339
321.456
321.6
321.751
321.901
322.041
322.166
322.269
322.341
322.379
322.379
322.341
322.269
322.166
322.041
321.901
321.751
321.6
321.456
321.339
318.491
318.59
318.715
318.846
318.975
319.097
319.206
319.294
319.357
319.39
319.39
319.357
319.294
319.206
319.097
318.975
318.846
318.715
318.59
318.491
315.647
315.729
315.834
315.945
316.054
316.158
316.249
316.324
316.377
316.405
316.405
316.377
316.324
316.249
316.158
316.054
315.945
315.834
315.729
315.647
312.804
312.87
312.956
313.046
313.136
313.22
313.295
313.357
313.4
313.423
313.423
313.4
313.357
313.295
313.22
313.136
313.046
312.956
312.87
312.804
309.962
310.012
310.079
310.149
310.219
310.285
310.343
310.391
310.424
310.442
310.442
310.424
310.391
310.343
310.285
310.219
310.149
310.079
310.012
309.962
307.119
307.155
307.202
307.253
307.302
307.349
307.391
307.425
307.449
307.462
307.462
307.449
307.425
307.391
307.349
307.302
307.253
307.202
307.155
307.119
304.276
304.298
304.326
304.356
304.386
304.415
304.44
304.46
304.475
304.482
304.482
304.475
304.46
304.44
304.415
304.386
304.356
304.326
304.298
304.276
301.434
301.441
301.45
301.46
301.47
301.48
301.488
301.495
301.5
301.502
301.502
301.5
301.495
301.488
301.48
301.47
301.46
301.45
301.441
301.434
322.123
322.231
322.364
322.503
322.64
322.768
322.881
322.973
323.038
323.072
323.072
323.038
322.973
322.881
322.768
322.64
322.503
322.364
322.231
322.123
319.17
319.262
319.377
319.497
319.615
319.726
319.824
319.904
319.96
319.99
319.99
319.96
319.904
319.824
319.726
319.615
319.497
319.377
319.262
319.17
316.22
316.297
316.393
316.495
316.595
316.689
316.772
316.84
316.887
316.912
316.912
316.887
316.84
316.772
316.689
316.595
316.495
316.393
316.297
316.22
313.273
313.334
313.413
313.496
313.578
313.655
313.723
313.778
313.817
313.838
313.838
313.817
313.778
313.723
313.655
313.578
313.496
313.413
313.334
313.273
310.326
310.373
310.434
310.499
310.563
310.623
310.675
310.718
310.749
310.765
310.765
310.749
310.718
310.675
310.623
310.563
310.499
310.434
310.373
310.326
307.379
307.413
307.456
307.503
307.548
307.591
307.629
307.659
307.681
307.692
307.692
307.681
307.659
307.629
307.591
307.548
307.503
307.456
307.413
307.379
304.433
304.453
304.479
304.507
304.534
304.56
304.582
304.601
304.614
304.621
304.621
304.614
304.601
304.582
304.56
304.534
304.507
304.479
304.453
304.433
301.486
301.493
301.501
301.511
301.52
301.528
301.536
301.542
301.547
301.549
301.549
301.547
301.542
301.536
301.528
301.52
301.511
301.501
301.493
301.486
322.976
323.076
323.199
323.326
323.45
323.566
323.668
323.751
323.809
323.839
323.839
323.809
323.751
323.668
323.566
323.45
323.326
323.199
323.076
322.976
319.908
319.993
320.099
320.209
320.317
320.417
320.506
320.577
320.628
320.654
320.654
320.628
320.577
320.506
320.417
320.317
320.209
320.099
319.993
319.908
316.844
316.915
317.004
317.097
317.188
317.273
317.348
317.409
317.452
317.474
317.474
317.452
317.409
317.348
317.273
317.188
317.097
317.004
316.915
316.844
313.783
313.84
313.912
313.988
314.063
314.133
314.194
314.244
314.279
314.297
314.297
314.279
314.244
314.194
314.133
314.063
313.988
313.912
313.84
313.783
310.723
310.766
310.822
310.882
310.94
310.994
311.042
311.08
311.107
311.122
311.122
311.107
311.08
311.042
310.994
310.94
310.882
310.822
310.766
310.723
307.663
307.693
307.734
307.776
307.817
307.856
307.89
307.918
307.937
307.947
307.947
307.937
307.918
307.89
307.856
307.817
307.776
307.734
307.693
307.663
304.603
304.621
304.645
304.671
304.696
304.719
304.739
304.756
304.768
304.774
304.774
304.768
304.756
304.739
304.719
304.696
304.671
304.645
304.621
304.603
301.543
301.549
301.557
301.566
301.574
301.582
301.589
301.594
301.598
301.6
301.6
301.598
301.594
301.589
301.582
301.574
301.566
301.557
301.549
301.543
323.897
323.989
324.102
324.218
324.331
324.436
324.527
324.601
324.653
324.68
324.68
324.653
324.601
324.527
324.436
324.331
324.218
324.102
323.989
323.897
320.705
320.783
320.88
320.981
321.079
321.17
321.249
321.313
321.358
321.382
321.382
321.358
321.313
321.249
321.17
321.079
320.981
320.88
320.783
320.705
317.517
317.582
317.664
317.749
317.832
317.909
317.977
318.031
318.069
318.089
318.089
318.069
318.031
317.977
317.909
317.832
317.749
317.664
317.582
317.517
314.333
314.385
314.452
314.522
314.59
314.652
314.708
314.752
314.783
314.799
314.799
314.783
314.752
314.708
314.652
314.59
314.522
314.452
314.385
314.333
311.15
311.19
311.242
311.296
311.349
311.398
311.441
311.475
311.5
311.512
311.512
311.5
311.475
311.441
311.398
311.349
311.296
311.242
311.19
311.15
307.968
307.996
308.033
308.072
308.11
308.145
308.175
308.2
308.217
308.226
308.226
308.217
308.2
308.175
308.145
308.11
308.072
308.033
307.996
307.968
304.786
304.803
304.825
304.848
304.871
304.892
304.911
304.925
304.936
304.941
304.941
304.936
304.925
304.911
304.892
304.871
304.848
304.825
304.803
304.786
301.604
301.61
301.617
301.625
301.633
301.64
301.646
301.651
301.655
301.656
301.656
301.655
301.651
301.646
301.64
301.633
301.625
301.617
301.61
301.604
324.881
324.967
325.07
325.176
325.278
325.373
325.455
325.521
325.568
325.592
325.592
325.568
325.521
325.455
325.373
325.278
325.176
325.07
324.967
324.881
321.556
321.628
321.717
321.809
321.898
321.98
322.051
322.109
322.149
322.17
322.17
322.149
322.109
322.051
321.98
321.898
321.809
321.717
321.628
321.556
318.236
318.296
318.371
318.449
318.524
318.593
318.654
318.702
318.737
318.754
318.754
318.737
318.702
318.654
318.593
318.524
318.449
318.371
318.296
318.236
314.92
314.968
315.029
315.093
315.154
315.211
315.261
315.301
315.329
315.343
315.343
315.329
315.301
315.261
315.211
315.154
315.093
315.029
314.968
314.92
311.606
311.643
311.691
311.74
311.788
311.832
311.871
311.902
311.923
311.935
311.935
311.923
311.902
311.871
311.832
311.788
311.74
311.691
311.643
311.606
308.294
308.32
308.353
308.389
308.423
308.455
308.482
308.504
308.52
308.528
308.528
308.52
308.504
308.482
308.455
308.423
308.389
308.353
308.32
308.294
304.982
304.997
305.017
305.039
305.059
305.078
305.095
305.108
305.117
305.122
305.122
305.117
305.108
305.095
305.078
305.059
305.039
305.017
304.997
304.982
301.67
301.675
301.682
301.689
301.696
301.702
301.708
301.712
301.715
301.717
301.717
301.715
301.712
301.708
301.702
301.696
301.689
301.682
301.675
301.67
325.92
325.998
326.092
326.189
326.282
326.367
326.441
326.5
326.542
326.563
326.563
326.542
326.5
326.441
326.367
326.282
326.189
326.092
325.998
325.92
322.452
322.518
322.599
322.683
322.764
322.838
322.902
322.953
322.989
323.008
323.008
322.989
322.953
322.902
322.838
322.764
322.683
322.599
322.518
322.452
318.991
319.046
319.115
319.186
319.254
319.316
319.371
319.414
319.445
319.461
319.461
319.445
319.414
319.371
319.316
319.254
319.186
319.115
319.046
318.991
315.536
315.58
315.636
315.694
315.75
315.801
315.846
315.881
315.906
315.919
315.919
315.906
315.881
315.846
315.801
315.75
315.694
315.636
315.58
315.536
312.084
312.118
312.161
312.206
312.25
312.29
312.324
312.352
312.372
312.382
312.382
312.372
312.352
312.324
312.29
312.25
312.206
312.161
312.118
312.084
308.634
308.658
308.689
308.721
308.752
308.781
308.806
308.826
308.84
308.847
308.847
308.84
308.826
308.806
308.781
308.752
308.721
308.689
308.658
308.634
305.186
305.2
305.219
305.238
305.257
305.274
305.289
305.301
305.309
305.313
305.313
305.309
305.301
305.289
305.274
305.257
305.238
305.219
305.2
305.186
301.738
301.743
301.749
301.756
301.762
301.768
301.773
301.777
301.78
301.781
301.781
301.78
301.777
301.773
301.768
301.762
301.756
301.749
301.743
301.738
326.984
327.056
327.143
327.231
327.315
327.392
327.459
327.512
327.549
327.568
327.568
327.549
327.512
327.459
327.392
327.315
327.231
327.143
327.056
326.984
323.366
323.427
323.502
323.578
323.651
323.718
323.776
323.822
323.854
323.871
323.871
323.854
323.822
323.776
323.718
323.651
323.578
323.502
323.427
323.366
319.759
319.809
319.872
319.937
319.999
320.055
320.104
320.144
320.171
320.185
320.185
320.171
320.144
320.104
320.055
319.999
319.937
319.872
319.809
319.759
316.159
316.2
316.251
316.304
316.355
316.402
316.442
316.474
316.496
316.508
316.508
316.496
316.474
316.442
316.402
316.355
316.304
316.251
316.2
316.159
312.566
312.597
312.637
312.678
312.718
312.754
312.786
312.81
312.828
312.837
312.837
312.828
312.81
312.786
312.754
312.718
312.678
312.637
312.597
312.566
308.977
308.999
309.028
309.057
309.086
309.112
309.134
309.152
309.164
309.171
309.171
309.164
309.152
309.134
309.112
309.086
309.057
309.028
308.999
308.977
305.391
305.405
305.422
305.439
305.456
305.472
305.485
305.496
305.504
305.507
305.507
305.504
305.496
305.485
305.472
305.456
305.439
305.422
305.405
305.391
301.807
301.811
301.817
301.823
301.829
301.834
301.839
301.842
301.845
301.846
301.846
301.845
301.842
301.839
301.834
301.829
301.823
301.817
301.811
301.807
328.007
328.074
328.153
328.234
328.311
328.382
328.442
328.49
328.524
328.541
328.541
328.524
328.49
328.442
328.382
328.311
328.234
328.153
328.074
328.007
324.234
324.29
324.359
324.429
324.496
324.557
324.61
324.652
324.681
324.696
324.696
324.681
324.652
324.61
324.557
324.496
324.429
324.359
324.29
324.234
320.479
320.526
320.584
320.644
320.7
320.752
320.797
320.832
320.857
320.87
320.87
320.857
320.832
320.797
320.752
320.7
320.644
320.584
320.526
320.479
316.739
316.777
316.825
316.873
316.92
316.963
316.999
317.028
317.049
317.059
317.059
317.049
317.028
316.999
316.963
316.92
316.873
316.825
316.777
316.739
313.011
313.04
313.077
313.115
313.152
313.185
313.213
313.236
313.252
313.26
313.26
313.252
313.236
313.213
313.185
313.152
313.115
313.077
313.04
313.011
309.292
309.313
309.339
309.366
309.392
309.416
309.437
309.453
309.464
309.47
309.47
309.464
309.453
309.437
309.416
309.392
309.366
309.339
309.313
309.292
305.579
305.592
305.607
305.624
305.639
305.654
305.666
305.676
305.682
305.686
305.686
305.682
305.676
305.666
305.654
305.639
305.624
305.607
305.592
305.579
301.87
301.874
301.879
301.885
301.89
301.895
301.899
301.902
301.904
301.906
301.906
301.904
301.902
301.899
301.895
301.89
301.885
301.879
301.874
301.87
328.809
328.872
328.947
329.023
329.095
329.16
329.217
329.261
329.292
329.308
329.308
329.292
329.261
329.217
329.16
329.095
329.023
328.947
328.872
328.809
324.888
324.941
325.006
325.072
325.135
325.193
325.242
325.281
325.308
325.322
325.322
325.308
325.281
325.242
325.193
325.135
325.072
325.006
324.941
324.888
321.006
321.05
321.105
321.161
321.214
321.263
321.305
321.338
321.361
321.373
321.373
321.361
321.338
321.305
321.263
321.214
321.161
321.105
321.05
321.006
317.153
317.188
317.234
317.28
317.324
317.364
317.398
317.425
317.444
317.454
317.454
317.444
317.425
317.398
317.364
317.324
317.28
317.234
317.188
317.153
313.323
313.35
313.385
313.421
313.456
313.487
313.514
313.535
313.55
313.557
313.557
313.55
313.535
313.514
313.487
313.456
313.421
313.385
313.35
313.323
309.51
309.529
309.554
309.58
309.604
309.627
309.646
309.661
309.672
309.677
309.677
309.672
309.661
309.646
309.627
309.604
309.58
309.554
309.529
309.51
305.708
305.719
305.734
305.75
305.765
305.778
305.79
305.799
305.805
305.809
305.809
305.805
305.799
305.79
305.778
305.765
305.75
305.734
305.719
305.708
301.913
301.916
301.922
301.927
301.932
301.936
301.94
301.943
301.945
301.946
301.946
301.945
301.943
301.94
301.936
301.932
301.927
301.922
301.916
301.913
)
;

boundaryField
{
    hotSide
    {
        type            fixedGradient;
        gradient        nonuniform List<scalar> 
400
(
182.537
183.211
184.56
186.589
189.304
192.71
196.816
201.631
207.164
213.423
220.418
228.157
236.646
245.894
255.905
266.685
278.238
290.568
303.677
317.567
184.999
185.654
186.965
188.938
191.581
194.902
198.913
203.624
209.048
215.195
222.076
229.701
238.08
247.221
257.13
267.813
279.275
291.519
304.549
318.365
187.664
188.295
189.56
191.468
194.026
197.248
201.147
205.737
211.035
217.052
223.804
231.303
239.559
248.581
258.378
268.956
280.32
292.473
305.418
319.158
190.487
191.091
192.303
194.134
196.595
199.702
203.474
207.928
213.083
218.957
225.567
232.926
241.048
249.944
259.621
270.088
281.348
293.406
306.265
319.925
193.389
193.962
195.115
196.86
199.213
202.193
205.824
210.129
215.131
220.851
227.308
234.521
242.503
251.266
260.821
271.174
282.33
294.293
307.065
320.647
196.25
196.791
197.88
199.533
201.77
204.617
208.102
212.251
217.094
222.656
228.959
236.024
243.866
252.499
261.933
272.175
283.23
295.102
307.792
321.301
198.905
199.413
200.439
202.001
204.125
206.84
210.181
214.18
218.869
224.279
230.436
237.361
245.073
253.585
262.908
273.049
284.013
295.802
308.419
321.861
201.159
201.637
202.606
204.087
206.108
208.707
211.92
215.786
220.342
225.62
231.65
238.456
246.056
254.465
263.695
273.751
284.64
296.361
308.917
322.305
202.808
203.264
204.189
205.607
207.552
210.061
213.178
216.944
221.4
226.58
232.517
239.234
246.753
255.088
264.249
274.245
285.078
296.751
309.264
322.614
203.682
204.126
205.027
206.411
208.313
210.775
213.84
217.552
221.954
227.082
232.968
239.639
247.115
255.41
264.536
274.499
285.304
296.952
309.442
322.772
203.682
204.126
205.027
206.411
208.313
210.775
213.84
217.552
221.954
227.082
232.968
239.639
247.115
255.41
264.536
274.499
285.304
296.952
309.442
322.772
202.808
203.264
204.189
205.607
207.552
210.061
213.178
216.944
221.4
226.58
232.517
239.234
246.753
255.088
264.249
274.245
285.078
296.751
309.264
322.614
201.159
201.637
202.606
204.087
206.108
208.707
211.92
215.786
220.342
225.62
231.65
238.456
246.056
254.465
263.695
273.751
284.64
296.361
308.917
322.305
198.905
199.413
200.439
202.001
204.125
206.84
210.181
214.18
218.869
224.279
230.436
237.361
245.073
253.585
262.908
273.049
284.013
295.802
308.419
321.861
196.25
196.791
197.88
199.533
201.77
204.617
208.102
212.251
217.094
222.656
228.959
236.024
243.866
252.499
261.933
272.175
283.23
295.102
307.792
321.301
193.389
193.962
195.115
196.86
199.213
202.193
205.824
210.129
215.131
220.851
227.308
234.521
242.503
251.266
260.821
271.174
282.33
294.293
307.065
320.647
190.487
191.091
192.303
194.134
196.595
199.702
203.474
207.928
213.083
218.957
225.567
232.926
241.048
249.944
259.621
270.088
281.348
293.406
306.265
319.925
187.664
188.295
189.56
191.468
194.026
197.248
201.147
205.737
211.035
217.052
223.804
231.303
239.559
248.581
258.378
268.956
280.32
292.473
305.418
319.158
184.999
185.654
186.965
188.938
191.581
194.902
198.913
203.624
209.048
215.195
222.076
229.701
238.08
247.221
257.13
267.813
279.275
291.519
304.549
318.365
182.537
183.211
184.56
186.589
189.304
192.71
196.816
201.631
207.164
213.423
220.418
228.157
236.646
245.894
255.905
266.685
278.238
290.568
303.677
317.567
)
;
    }
    coldSide
    {
        type            mixed;
        refValue        uniform 300;
        refGradient     uniform 0;
        valueFraction   uniform 0.991591;
        source          uniform 0;
        value           nonuniform List<scalar> 
400
(
300.01
300.01
300.01
300.01
300.01
300.01
300.01
300.011
300.011
300.011
300.012
300.012
300.012
300.013
300.013
300.014
300.015
300.015
300.016
300.016
300.01
300.01
300.01
300.01
300.01
300.01
300.011
300.011
300.011
300.011
300.012
300.012
300.013
300.013
300.014
300.014
300.015
300.015
300.016