/*--------------------------------*- C++ -*----------------------------------*\
| =========                 |                                                 |
| \\      /  F ield         | OpenFOAM: The Open Source CFD Toolbox           |
|  \\    /   O peration     | Version:  2212                                  |
|   \\  /    A nd           | Website:  www.openfoam.com                      |
|    \\/     M anipulation  |                                                 |
\*---------------------------------------------------------------------------*/
FoamFile
{
    version     2.0;
    format      ascii;
    arch        "LSB;label=32;scalar=64";
    class       volScalarField;
    location    "./ITHACAoutput/true/3.4";
    object      error;
}
// * * * * * * * * * * * * * * * * * * * * * * * * * * * * * * * * * * * * * //

dimensions      [0 0 0 1 0 0 0];

internalField   nonuniform List<scalar> 
3200
(
-3.43805
-1.36565
0.268028
1.32413
2.50644
4.11141
2.66707
3.75754
2.97962
3.59899
2.67463
4.20903
3.60478
4.55178
3.83509
2.94921
2.186
-0.133904
-0.883653
-1.1227
-3.31136
-2.52341
1.40694
1.37811
-0.202976
3.6776
4.04693
4.33123
0.630633
4.65724
2.34261
2.42755
2.09247
2.8721
3.06788
2.06415
2.23289
0.768059
-1.58062
-1.9577
-2.56455
-1.78679
-0.386932
-0.308432
2.22969
2.74739
3.65756
3.00283
1.86653
4.31031
5.21972
2.1128
3.56109
2.03775
1.43388
1.11134
1.49424
1.55187
-1.60347
-0.179669
-1.62064
-1.11912
1.1086
-0.671807
2.2135
2.25019
2.10589
4.49975
1.5074
3.11344
4.52854
3.74521
2.18536
1.95553
-0.510796
0.0220352
1.39147
0.469212
-1.02044
-0.224681
-3.06385
0.600312
-0.688802
1.02126
2.29858
2.16218
5.59106
0.0597317
2.98698
0.797355
3.66472
0.2114
2.61963
0.636506
1.41341
2.10856
2.12957
-0.561995
-1.75438
-0.350255
-1.5108
-1.00841
-0.637834
1.50587
-0.915442
0.25257
1.8109
-0.041728
1.23949
1.18515
3.22342
0.220169
2.96356
3.30116
0.191504
0.274349
0.764418
-1.80378
-1.85112
-0.344629
-0.749175
-1.03186
-1.0578
-0.645624
1.28684
0.615393
1.89909
0.175265
-0.0500681
0.290834
-0.372157
2.21709
0.505984
0.57588
2.72831
0.692916
0.920984
1.0017
-0.704343
-0.0637536
-0.896943
0.00860398
-0.956291
-0.490082
0.406363
-1.53683
1.61683
0.216173
0.916265
-0.288269
1.61566
-1.84384
0.529844
-0.83542
1.26348
-0.268913
1.72014
0.484625
-1.166
-1.52152
-3.05534
-1.72311
-1.44046
0.0901665
3.22684
5.26825
4.9734
2.72742
3.40787
3.76753
2.90675
3.48251
2.92156
4.87528
4.46056
1.02049
1.76466
0.834176
-1.99085
-3.815
-3.64445
-0.225024
-0.655576
0.490872
0.955796
-0.00451283
3.34276
0.4116
2.93646
-0.179096
0.107953
3.52984
-0.105521
3.49021
0.506052
2.48579
0.281025
2.47511
0.0911461
-0.863537
-1.48959
-1.34783
0.606448
2.30671
3.27484
2.57788
3.16452
3.99501
2.73224
4.93508
2.57162
2.69949
2.73438
2.81346
2.25327
1.79694
2.65018
0.195714
-0.156964
-0.880783
-1.90494
-1.37154
-2.10323
1.90182
1.07985
0.994786
1.23511
2.70233
4.37539
2.14923
2.43403
3.62899
3.09343
2.71724
2.26288
0.820228
2.32075
1.09108
-0.253679
-0.268193
-3.11119
0.353578
0.49792
1.61625
-0.00777909
4.06036
2.58977
3.26071
1.12772
0.110766
1.95315
2.11542
-0.256909
2.17112
0.983504
2.81838
0.443951
1.75102
0.692804
-0.502533
-1.7055
-1.96246
0.913492
1.66471
1.68889
-1.27168
1.16291
1.71115
0.0661245
0.723198
0.806694
2.75595
1.31381
1.28977
0.475195
0.341221
3.11284
-0.638375
-1.58689
-2.06012
0.778554
-0.211426
1.61329
-0.500301
0.104032
-1.38268
-1.00537
2.63402
1.44167
1.3736
0.453144
1.06907
0.154364
-0.104446
1.75959
1.50066
0.195087
1.74369
-0.545569
0.181942
0.229601
0.221521
-1.78218
-1.57151
-0.370902
0.741364
1.77671
1.79745
2.38899
1.4875
0.212321
-0.520391
0.633233
0.721205
1.4376
-0.309769
1.72071
0.25118
-0.560338
0.11444
-6.22441
-3.03782
-1.6192
0.767259
1.8842
3.48572
1.79228
1.80107
3.28055
3.37128
4.85659
3.09869
2.83761
4.29582
2.0974
1.17124
-0.00108366
0.49955
-0.887473
-3.82109
-3.27831
-1.63761
0.416022
2.07033
1.67954
4.03716
1.66214
2.64044
1.65404
3.50961
1.84329
2.57698
3.77477
3.1552
4.38631
1.67489
2.54642
2.77639
-1.16347
-2.4967
-2.55873
-3.39599
-1.85745
0.911061
1.49791
4.47559
3.7353
0.535678
2.55063
1.16917
1.50926
2.10288
1.85029
0.837393
0.939776
-0.352252
0.635803
1.36379
-0.687017
-2.21255
-1.19343
-1.40954
-1.33515
-1.05495
0.265689
1.80495
0.702524
1.10343
2.84162
0.91662
1.08501
1.27465
2.32545
1.50265
-0.216226
1.38472
1.71626
0.722588
-0.37291
-1.05726
-1.42323
0.276918
1.67702
2.25992
-0.639549
-0.13577
2.31616
1.03358
0.306069
3.66529
2.48932
2.04018
0.456001
1.25861
2.61849
1.13917
-1.73819
0.388958
0.350738
-1.08756
-3.87599
-1.83412
1.2415
-0.550843
0.0687636
1.33278
2.44367
0.302335
1.75879
0.216704
0.397553
1.28054
0.936151
1.9259
-0.69963
-1.2425
-0.782028
0.173294
1.33131
-1.69882
-1.91582
0.872973
0.520014
0.686738
-1.21045
0.0910911
1.17623
-0.267681
0.178353
1.4648
-0.0238568
3.54555
0.46457
1.21952
-0.0972824
1.8511
2.56101
-1.28024
-0.862222
-0.826075
0.634219
-0.0701197
1.19662
-1.59687
-0.201224
0.466884
2.10203
-1.21592
0.694781
1.08843
0.176251
0.720102
0.730087
-0.1718
-1.4842
-1.10441
0.488739
0.0398085
1.16832
-0.541394
-5.34334
-3.48998
0.148446
0.739368
1.87876
1.39299
4.63065
2.59305
3.63773
1.94397
0.278944
-0.782198
0.891877
2.67785
1.7014
0.424619
1.67516
-0.850976
-1.43851
-2.52415
-2.29208
-0.413614
-0.226343
0.128714
-0.545486
0.231366
2.71995
0.223475
2.2448
0.181669
-0.324998
0.113383
0.299919
1.99603
-0.312012
1.36574
-0.416307
-0.303071
0.506536
-2.6667
-2.81697
-0.486756
0.589068
0.495711
2.19524
-0.146548
2.11966
-0.424399
2.0303
0.872279
2.90903
0.595494
-0.634723
0.981197
0.514596
1.54891
1.3225
1.91993
-1.8515
-0.952965
-1.37063
-0.27642
0.852584
0.305278
1.89487
2.53782
0.910067
1.27657
1.63648
1.16727
0.917178
0.682746
0.308173
1.92545
-1.0668
-0.265534
2.96466
0.00241205
1.26997
-0.820296
-2.97935
1.15898
0.612876
-0.0129603
0.492993
-0.250194
-1.26594
-1.67958
-0.961097
1.62765
1.51986
0.193291
2.46435
2.07521
1.56633
0.671933
0.503364
0.758598
0.960055
0.985236
-2.74308
-1.88486
0.444616
0.318302
-0.943168
1.96651
0.268584
-0.119984
0.589114
-0.833504
-0.469267
2.15564
-0.198051
-0.231984
1.76922
0.215056
1.00497
0.828961
-0.399553
-0.0899372
0.0124663
-0.135154
0.790156
-1.36294
-0.921749
-1.23732
1.69394
1.07427
-0.211363
0.929388
-1.59423
-0.473543
0.451619
0.448749
-0.927767
-0.375971
0.333185
-1.09396
-0.399376
0.0932491
1.16426
-0.17215
0.583352
1.42103
-0.432754
2.60067
-0.99534
1.43262
-3.60822
0.0423883
1.58489
2.74014
-0.953851
0.0258166
-0.398908
-0.269575
0.68306
0.12359
-0.12077
-1.72318
-5.32438
-2.8141
-1.01938
1.69635
2.18893
2.38592
1.04955
-0.366235
1.85295
-0.331616
0.0393227
0.15217
0.50556
1.63422
1.00508
1.71327
-0.405413
0.297929
-1.69745
-3.29003
-4.01673
-2.92416
-2.19762
-0.268118
0.600542
0.562693
0.88697
0.218174
1.57991
-0.130955
1.08272
-0.775939
-0.443253
0.983689
2.28533
0.259601
-1.85516
-0.708729
-0.842329
-2.01219
-3.43048
-3.2223
0.517637
0.381544
-1.01554
-0.615717
0.853529
-0.346332
-0.486703
1.42793
-0.192056
0.616032
1.1997
2.65308
-0.26107
1.47165
-0.232563
-0.604074
-1.04934
-1.28769
-1.76459
-2.7349
0.0603621
0.66564
2.31562
0.595849
0.512944
0.767663
3.14903
0.61699
-1.24495
-0.253095
1.80513
0.0162634
0.794724
0.972517
0.607585
-1.36025
1.08974
-1.55244
-2.34457
-1.41493
0.32287
0.457633
-1.16835
0.0189503
0.375974
-0.623943
1.5105
0.409185
1.2493
2.84799
-0.444433
1.28062
-0.0746945
-1.42666
2.54855
0.0582195
-0.722804
0.410598
-0.415741
-1.50204
-0.527166
-0.365066
0.586762
1.99748
-0.312255
1.51064
-0.47425
1.61751
-0.655864
0.404181
1.81637
-1.04795
2.30218
0.21195
0.746969
0.744217
-0.151121
-0.38834
-0.0749312
-1.28144
-1.06871
0.201697
0.83545
2.19642
1.45934
2.53031
0.109364
-1.37885
0.920249
0.280613
-2.01809
-1.74051
2.58832
-0.151914
0.518473
-0.750232
-1.65852
-1.30861
1.12931
-0.403867
-0.0214711
-0.106163
0.565261
0.102231
0.755438
1.92735
-0.880567
1.15407
-2.07224
1.62346
-1.30366
0.289478
0.573318
0.351315
0.804113
0.387056
-0.442298
-0.988953
-3.61136
-2.22674
0.852623
-0.665273
0.121404
-1.04279
0.893109
0.376226
-0.202627
0.481155
1.45259
0.458374
0.875475
2.41592
-0.270182
0.427277
-0.60268
-1.16928
1.03078
-3.6999
-2.98699
-0.0755273
-2.51608
-0.137912
1.29317
-0.140492
1.27187
0.0884968
-0.683459
-0.45991
-0.507318
-3.52341
0.0234217
1.70309
0.240241
0.453917
0.0375497
1.85283
-0.35438
-0.809589
-3.22317
-0.834539
0.11183
-1.59919
1.303
2.28736
1.67411
-0.713054
-0.967337
-0.5513
0.390459
-0.806318
-0.0410286
-0.686541
1.15814
0.266995
-1.0964
0.309061
-1.14698
-0.420127
-3.00053
-0.40312
1.42061
-0.709302
0.216314
0.182003
-1.64981
0.670555
0.332046
0.0228876
-0.221529
-0.199379
0.824184
-0.294018
0.469639
-0.231098
-1.00212
-0.643871
-2.52097
-1.44593
-1.92331
-2.72559
-2.35111
0.113527
0.0354075
-1.20378
0.735894
-1.34457
-0.385159
0.229863
-0.582308
1.0269
-0.329018
0.141085
2.25313
0.687482
0.162071
0.947636
-0.160647
-2.47636
-2.45857
-2.21858
0.19486
-1.14005
0.268875
-1.29766
1.06438
1.40508
1.24028
0.606564
0.0511629
-1.06246
-0.620049
0.96816
-0.943945
0.537769
-0.326483
1.11456
-0.648186
-2.30468
0.610412
-2.11248
-0.357242
-0.859646
0.698032
0.366101
2.39078
-0.535024
0.105067
0.0706513
2.55526
0.118073
-0.156347
-0.416304
-0.129735
-1.50402
-1.22545
-0.915147
-0.0855502
-0.296272
1.20229
1.04027
-0.299627
-1.64157
-0.979196
0.802006
1.1018
0.740066
1.00285
-0.222847
-0.451239
-0.180075
-0.361661
0.714165
0.761837
0.608942
0.00688999
0.519176
1.37529
-0.329825
-4.0899
-5.46251
-2.59865
-0.0674653
-0.709342
3.88281
3.43621
1.04811
-0.850175
-0.58128
-2.52169
1.41286
-0.383975
-0.325221
1.20489
0.369186
-0.652121
-0.37378
-1.458
-3.7735
-5.31061
-4.67235
-1.51272
1.03801
1.51896
1.98708
0.999051
2.47955
1.40976
-1.05448
-0.996548
-1.78105
-1.86093
-0.481706
-1.91724
0.676535
-0.457851
-0.438301
-4.81115
-4.25878
-4.06462
-3.17886
0.00941582
-0.324498
-0.0816195
0.274189
0.567333
-1.0959
-0.557796
0.460543
1.2228
-0.39518
-1.67793
1.1024
-1.38473
0.327804
0.399757
-1.50134
0.944912
-1.28772
-2.6055
-2.06532
0.037932
-1.50471
0.188459
0.496788
-0.189635
3.10336
-1.02646
-0.867647
-0.515084
0.349803
-0.401492
0.158038
1.19778
-0.114248
0.545098
-0.466175
-0.71754
-2.64634
-1.6776
-3.17182
-1.5818
-0.517045
-0.128677
-0.648165
-0.404983
-0.776772
-0.564263
1.73494
-0.947553
-0.198009
0.88354
1.37987
-0.619057
-0.377011
-2.05242
1.49649
-0.673939
-1.47369
-1.70791
-0.504309
0.887151
-0.415572
0.952593
1.38194
-0.360887
-1.36349
-0.320216
0.136563
-0.245866
0.510695
-0.199257
0.230408
-0.500582
0.917308
0.490564
1.19715
-1.23458
0.609359
-2.7235
-1.43353
-1.99228
-0.257767
-0.293329
-0.367099
-1.54235
-1.14447
-0.942353
1.21026
1.40217
-0.141113
-0.833901
-0.266652
0.558596
-0.715037
1.08387
0.0352493
-1.58703
-0.319125
-0.122894
-0.297037
-2.13927
0.23722
-0.265392
-1.15863
-1.26467
0.574732
0.796319
0.227395
-1.48774
-0.754458
0.0294126
-0.902702
1.02377
-0.944364
-1.66408
0.0208548
-2.43153
-0.787878
-6.73568
-5.26723
-2.73112
-0.870419
0.793114
0.307403
-0.974393
-1.62481
-0.862241
0.594644
-3.69011
-1.95336
-2.40217
-0.929373
-0.00777785
-0.844353
0.541789
-1.39812
-2.60629
-4.14297
-5.50754
-0.160739
-0.404137
-0.832271
-1.08165
0.715903
-0.0242603
0.067239
-0.240323
-0.0719967
0.152725
-0.0094053
-0.102319
0.722016
0.0606118
1.44413
-0.264515
-2.49475
-0.535752
-2.5417
-3.56365
-1.09125
-3.2791
-2.82743
-1.97256
-0.653875
-1.30086
0.340988
-1.71305
-1.37964
-3.47399
-1.25221
-2.04631
-1.31503
0.0735112
1.25713
0.626813
-1.46734
-1.18278
-3.06598
-3.31357
-1.93726
-0.728724
0.0461131
0.76875
2.31618
-0.577294
0.412748
-1.66022
-0.310099
0.413575
0.99078
-1.81076
1.16429
-0.0296415
-0.730848
-0.183963
-1.13016
-0.676128
-1.25184
-0.989162
-1.62496
0.391627
1.22502
-1.72304
-0.0802253
-1.99985
0.145447
-0.245609
-1.51709
-1.78334
0.310904
-1.60916
-0.646431
-1.91199
0.658396
-1.15893
0.313665
0.139517
-1.80038
0.0310114
-0.035815
-0.562171
0.684274
1.12856
0.806915
0.160233
-0.701669
0.134059
-1.50852
0.691179
-0.505121
-0.504501
-0.469943
-1.81795
1.33152
-0.851745
0.308378
-2.14563
0.658408
-1.54406
-1.79352
-2.10906
0.169822
0.42286
-0.854313
-1.03796
0.665547
-1.19662
0.151085
1.40127
-0.543453
-0.403107
0.585216
-0.276426
-2.13176
0.585686
0.601897
-0.63111
-1.19747
-0.676423
-1.92063
-1.94088
0.410321
0.0386561
0.380432
-1.24211
0.738965
0.0963605
0.361155
-1.69425
-0.863406
-0.333848
0.383241
0.69914
-0.277542
1.29361
-0.734695
0.48758
-1.16473
-6.47887
-4.51142
-4.15567
-2.32647
-0.508405
-0.814327
-0.878565
-0.965937
-0.16324
0.228381
-1.51281
-1.70485
-0.655821
-2.77951
-0.577098
-1.41008
-0.881362
-1.8938
-2.75335
-3.42311
-4.27442
-1.79896
-2.60664
-0.869649
-0.424955
0.746971
-0.807408
-0.0529128
-1.91442
-1.21942
-1.0342
-3.96026
-1.65202
-0.517545
-0.215969
0.572397
-3.51426
-0.606405
-2.74824
-2.10276
-4.29508
-2.07019
-3.64212
-0.273907
0.709713
-1.4996
-0.26693
-1.26322
-1.76438
-2.94412
-0.673926
-0.609919
-0.0283942
-0.557084
-0.923535
-1.4885
0.213903
-2.12902
-1.86784
-4.57762
-1.30839
-2.10363
-1.49647
-0.476404
-0.302028
-0.555987
-0.493295
-1.40489
-0.83958
-0.267117
-1.73011
-1.30307
-1.35955
-1.88136
0.020985
-1.61082
-1.74327
-0.998742
-4.11371
-1.54879
-3.23392
-1.83875
-2.32158
-2.21924
2.08686
-0.965615
-1.52231
-0.67452
-0.758415
-2.1778
-0.837815
0.723876
-0.368036
-1.43048
-2.43106
-0.113439
-1.77553
-2.04671
0.25293
-2.74932
-2.44016
-1.26353
-2.18427
-0.479268
0.780941
-1.51747
-0.338148
-1.13272
1.38729
-0.0107496
-0.700211
-0.170822
-1.16251
-1.17096
3.01762
-0.0803312
-0.682764
1.77446
-1.9674
-0.249822
-0.429049
-1.67102
-1.25145
1.21175
-1.09742
-3.05451
-0.667819
-2.26792
0.167627
-0.290981
0.177856
-0.765848
-3.34148
-0.379274
-0.209108
-2.37801
0.251656
-0.857122
0.0758434
0.375602
0.648646
-1.66413
-0.190081
0.348678
-2.40122
1.58218
1.31342
0.302864
-2.51979
-0.481077
1.08492
1.29813
-0.301587
-1.71184
-0.00135138
0.707706
0.429361
-0.879815
-1.24685
0.0811495
-8.08782
-1.31815
-2.42471
0.252187
-0.898077
-2.61877
-1.03516
-3.0405
-2.40342
-0.86384
-1.18499
-3.06673
-1.45757
-0.974962
-0.317192
-1.9193
-3.28359
-2.64829
-2.04546
-3.72451
-5.01145
-0.174294
-1.88451
0.226153
-2.18821
-0.145226
-0.971104
-0.00340392
-2.11834
-0.423147
-0.485763
-3.52795
-0.477365
-1.71077
-0.59168
0.137963
0.093515
-1.77695
-0.250018
-4.74357
-3.87471
-2.575
-0.449146
-1.74149
-0.514146
-0.5255
-2.31119
-1.42983
-1.42263
-2.76017
-3.07052
-3.23407
-0.618779
-1.56616
1.03882
0.240624
-0.498535
-0.29041
-2.66418
-3.61884
-2.72032
-3.64095
-0.381119
-1.38262
-0.39852
0.133625
-0.96238
-1.22021
-2.36184
-1.82757
-0.890635
-2.64209
1.14766
-2.4603
-2.79498
-1.06936
0.0787388
-1.1623
-3.2872
-0.565936
-2.71708
-4.32
-1.87071
-1.65171
-0.599671
-0.737169
1.13091
0.843496
-1.78657
-1.52752
0.762369
-2.67669
1.04151
-0.673174
-0.0560831
0.787116
1.34597
-0.956827
-1.43834
-1.12592
-2.62389
-0.667867
-0.361947
-0.031671
-0.279142
0.114432
-1.65489
-0.12775
-1.60982
-1.04627
-0.190939
-1.12637
-0.658031
0.820525
-0.990689
-1.11583
-2.22415
-2.45378
-0.260934
-2.58049
-2.04372
0.185835
-0.111651
0.902317
0.0335316
-0.109575
0.0941661
1.74697
0.133854
-1.29678
-0.973241
0.046457
-2.19518
-0.828491
-0.39503
-0.523487
0.499075
-1.26048
-0.600898
-0.343113
1.28706
-0.439914
0.872989
-1.30085
1.09094
-0.509917
1.23046
1.13063
1.85406
-0.254934
-0.888507
2.54624
-0.0094481
-0.998873
-0.467774
-1.26594
0.0968136
0.186786
0.16122
0.310025
-5.61149
-4.94589
-3.21551
-2.22973
-2.15884
-0.543177
-0.0129702
-2.95145
-1.44268
-2.53664
-1.28352
-1.58387
-3.13407
-1.50524
-0.790667
-2.6026
-2.57086
-3.55223
-2.13824
-3.60277
-5.18518
-0.388665
-2.89824
-0.0526842
-0.201979
-0.0437041
-2.6192
0.229858
-0.54266
0.261935
-0.365784
-2.18379
-0.0935217
-1.87861
-0.13242
-1.82984
0.221933
-0.0528551
-0.380158
-3.46492
-5.39432
-1.48748
1.17739
-2.06317
-0.220603
-1.12744
-0.945861
-2.07502
-1.08336
-2.03523
-1.8018
-0.953359
-2.32577
0.294568
-0.0344943
-0.362607
0.391287
-3.28873
-3.60688
-0.660711
-2.64916
-3.75276
-1.30417
-1.48357
0.715843
0.00226791
-0.442755
-2.19616
0.596096
-1.27875
-3.00768
1.5229
-1.98033
-2.38386
-1.44963
-2.78521
1.23342
-0.416479
-1.56452
-1.30134
-1.95092
-1.55392
-2.70274
0.406505
0.661638
0.690583
-1.09086
-0.114233
-1.10185
-2.30354
-1.13819
-2.99201
-2.99905
0.485695
-0.219177
-0.753612
-0.756639
1.56611
-1.28023
-0.779851
-3.34693
-1.90492
-0.678256
-2.49498
-0.546722
0.314011
1.62909
-0.0815891
-1.86645
-1.50789
1.04868
-2.31639
-0.516618
-0.150589
-1.17131
-1.15072
3.15567
0.326681
-1.49809
-1.38805
0.477418
-0.153305
-0.357905
-1.49698
-1.71883
0.636904
0.591178
0.0597889
-2.21507
0.930479
-0.0607661
-1.99515
-1.21812
0.347788
-1.49771
-0.526626
-0.152969
0.0899944
-1.89164
-1.01184
0.267924
0.239707
-0.495795
-0.221986
-0.998965
-0.384508
-0.703843
-3.15503
0.649302
-0.355233
0.327691
1.31683
-0.643722
0.799717
-1.22199
-1.40898
0.521242
-0.262429
-0.43047
0.209617
-4.93881
-2.46489
-2.78395
-1.45091
0.831573
-0.268982
-1.84494
-0.180015
-2.51677
-4.53115
-3.99523
-3.24079
-3.31716
-2.6896
-1.19363
0.612286
-1.21194
-0.507287
-4.70706
-6.09509
-4.51539
-0.432718
-1.37311
-3.29615
-1.00003
-2.06674
0.500053
0.109017
-2.0111
-2.60752
-2.94366
-5.40513
-1.42437
-0.98541
-0.00682727
-2.53748
-0.113198
-1.13301
-1.02842
-2.40554
-3.35667
-1.7042
-1.17089
-1.7935
0.141048
1.17656
-0.678366
-0.962033
-4.42306
0.246844
-1.15555
-2.57964
-3.37974
-0.109833
-2.00228
-2.12857
-1.37148
0.576195
-2.1817
-2.90263
-2.72578
-2.41687
-2.97697
-0.184576
0.926501
-1.97353
2.37091
-0.395848
-1.31892
-1.56996
-2.18374
-2.4412
-2.52445
0.840718
-1.1182
0.767034
-0.555051
-1.87807
-1.26475
-1.14237
-2.71898
-2.31336
-1.70142
0.443965
-0.984605
0.0627455
-1.23442
1.2168
-0.386791
-2.89473
-2.00709
1.29666
-0.5536
-1.41519
-0.868971
0.562883
0.0491835
-1.18267
0.0985739
-2.78103
-0.416467
0.248417
-0.618753
0.374791
-0.103712
0.116196
0.00219102
-1.48282
-0.268274
-2.25979
-1.51442
-0.174511
-0.0520112
-1.33277
0.604444
0.621759
-1.54606
-0.0166246
0.635263
-2.72577
0.342335
0.781523
-2.59144
-0.491981
-0.131231
-0.739523
0.815776
0.499667
-1.77434
-0.0994017
-0.365852
1.92064
1.17863
-0.355284
-2.85593
0.618295
0.363676
-0.0586155
0.867176
-0.348833
0.138311
-0.682739
0.528035
-0.853196
-0.941568
-1.20003
-0.685612
-0.1169
-1.41382
-1.17015
-0.738966
-0.722174
-2.03719
1.35207
-0.354711
2.20755
-0.127798
1.55731
0.984313
0.590703
-4.04091
-2.44954
-3.71506
0.167345
-1.25657
-2.38202
-1.58466
-2.06858
-0.806045
-1.73698
-1.79008
-2.79169
-4.01462
-3.51389
-1.40376
-0.302318
-1.03463
-0.387818
-1.78023
-4.62367
-3.72634
-0.275397
-1.73196
-0.092551
-2.8134
0.545968
-1.78808
-0.479821
-0.384066
-0.981544
-0.219169
-4.07171
0.0920609
-1.12464
0.284847
0.552265
0.366151
-1.41238
-0.508531
-1.62874
-4.44135
-4.17395
-2.9186
1.6333
2.29632
-1.29469
0.153875
-2.28772
-1.99874
-2.19049
-4.34455
-2.42921
0.00842294
-1.85109
-1.13038
0.856061
-0.198174
-1.15305
-2.4559
-0.938123
-2.8543
-0.29018
-0.780463
-2.10786
-0.272985
0.51949
-0.178887
0.745304
0.53488
-2.08896
-0.523935
0.055812
-1.3534
-0.0264771
-0.917104
-0.168554
-1.01702
-1.54904
0.698506
0.737213
-1.35567
-1.82367
-2.29312
0.399295
0.217617
-1.23481
-1.78319
-0.775751
-1.9003
-1.54751
0.798718
-0.0982215
-1.13152
-0.00976635
0.265131
-0.260062
1.56624
-0.086674
0.471921
-0.572947
-2.58414
-0.744961
-2.65154
-2.03895
-1.35643
-1.11389
0.30826
0.00215325
-2.24198
-1.43864
0.383621
0.136915
1.48908
0.500753
-0.538182
-1.43315
-0.147036
-0.102723
-0.140498
-0.887007
-1.23647
0.896534
-1.63447
2.2739
0.139003
-0.590061
1.47195
0.0462855
0.87675
-3.31774
-1.94045
0.362819
0.242018
-0.981377
1.27679
-0.422459
0.374746
-1.13694
-0.793827
-3.4488
-1.28424
0.880287
2.56315
-1.61153
1.36018
0.726267
0.599806
-1.38215
1.12546
1.00021
-1.61494
-0.0983651
0.0692272
-2.57037
-0.484206
0.270998
1.79991
-0.0770027
1.95362
1.21746
-2.50946
-4.66321
-1.58326
-1.67258
-0.799574
-3.87393
-0.362665
-1.17652
-0.0278813
-0.843891
-2.14371
-1.77735
1.07743
-2.83674
-2.27412
0.247425
-0.782152
-2.42725
-3.16154
-3.32217
-4.69261
-4.421
-1.14375
-3.15055
-0.123847
-0.10682
-2.11157
-2.1089
-2.83979
-2.24603
-0.719617
-0.495926
-2.14879
0.95897
-2.97872
-1.58212
0.569241
-0.98794
-1.12385
-4.23652
-6.60715
-4.39111
-0.194049
-1.48278
-1.00275
1.46736
-0.868291
-0.96016
-2.83155
-1.17685
-1.53001
-2.74595
-1.88451
-1.3289
0.188947
0.276306
-1.7977
-0.614329
-2.39718
-2.14744
-3.01451
-2.50753
-2.17687
0.321272
0.580679
0.0336295
-0.512706
1.33875
0.142365
-0.405326
-0.66163
-0.326299
-1.64807
-1.04408
-1.34828
-2.80828
0.894454
-3.40552
-2.9483
-1.15693
-0.977345
-2.61111
-0.347956
-1.64102
-1.3728
-0.0383665
0.143197
1.2535
-0.639019
-1.50017
0.0822955
-1.46352
0.627902
0.463243
-1.10355
1.60945
0.629815
0.498935
-3.55726
0.00470712
-2.19933
-2.25851
1.30499
0.603874
-1.22038
1.65441
0.496739
-0.485316
1.08292
0.188434
0.789553
0.8372
-1.81254
-0.503229
0.692991
0.923567
1.05032
0.8468
-2.32116
-0.557288
0.147068
-0.452609
-1.13
-1.16471
-2.24029
0.959277
-0.0585493
1.3118
0.803202
-1.52883
-0.822452
0.930289
-0.134317
0.758892
0.535806
0.469487
-1.02165
-1.78569
-0.422773
1.27102
0.640065
-0.179908
0.703406
-1.09827
-0.00804816
1.34198
-0.650532
-0.800723
0.250866
-0.0917279
0.782488
0.839598
0.207865
0.299659
1.18512
-0.549245
0.84878
2.45845
-1.59649
0.126595
-3.60501
-2.73931
-1.92589
1.97508
-1.39043
-0.411693
-0.228872
0.298147
-0.846058
-1.12441
-0.997678
-0.8035
-0.4161
-0.318142
-0.93996
-1.53213
-0.554172
-0.97032
-0.0537918
-2.80511
-2.0546
-0.577747
-0.307015
-1.17972
-1.05075
-0.594372
-1.25884
-0.653536
-0.70772
0.220705
0.408761
-0.320766
0.210901
-0.444988
-0.509614
0.843115
0.0973514
-0.663793
0.460297
0.468051
-3.11802
-1.21759
-1.47869
-1.7809
1.70768
1.50671
1.68309
0.583607
-0.0328879
0.274824
0.0773362
-1.71239
1.37795
0.168117
-0.602194
-1.2211
1.45499
-0.928876
-1.97895
-2.22757
-1.86111
-3.49574
-0.942383
-0.400488
0.212682
0.47681
0.58907
1.1938
-0.30534
0.304057
-2.79666
-0.706653
1.38096
0.716354
-2.07085
-0.787267
0.59666
2.03504
-2.39819
-0.839785
-2.67855
-1.06135
-0.752023
-0.75831
-1.07407
1.03967
-0.464627
1.03743
-1.05086
-0.554354
-0.819793
1.0614
0.867036
1.59391
-0.341364
0.924826
-0.525016
-1.57017
-0.856874
-0.250733
-1.02823
-1.78615
-0.470611
-1.81778
-1.44762
-0.520718
0.527736
-1.50571
-0.118065
-0.573395
-1.04642
-0.652532
-0.651343
1.01407
0.733374
0.885466
0.871401
-0.491964
1.75022
0.573789
-1.34831
-0.891516
1.66261
0.563501
0.245659
0.183812
-0.0423681
1.87766
0.79772
0.234999
2.68988
0.0283832
0.599594
-2.75863
-0.384589
0.477396
-0.123411
0.425292
2.05875
-1.92953
-2.15624
1.23131
-0.0126332
-0.514999
1.08294
-0.219374
-0.862828
0.231949
-0.0934703
0.0684814
0.440566
-0.285729
-2.07763
1.58271
0.935867
-0.65186
-0.610733
1.63087
-0.532231
-1.62141
-2.84546
-1.98979
0.5377
-1.32071
1.4569
0.387515
-0.432949
-1.51263
0.689504
-1.03362
-1.45901
0.596614
-0.536557
-1.20244
1.59464
0.63428
1.06717
1.55771
-0.481734
-1.40138
-0.461815
-2.86447
-1.19316
-0.171203
1.97692
2.44467
2.20883
0.517235
0.552364
1.65213
0.827377
-0.9494
1.07849
-0.735405
0.476957
0.0127374
-0.497762
-0.587408
-1.74908
0.148758
-1.31756
-0.265998
-1.43052
1.48493
-0.21419
0.704646
-0.0682439
-0.213551
-2.45226
1.23457
0.396578
0.703549
0.424239
-0.0523127
2.44915
-0.0703764
1.25857
1.30092
-1.4102
-1.63568
-1.25106
-1.39807
0.689258
-1.52583
2.71595
1.52947
2.79222
1.3567
1.28256
0.279084
0.243236
0.385127
1.2378
1.53762
0.296379
1.60426
-0.730018
-0.424183
-0.746969
1.73517
-0.487533
-0.948688
-1.23474
-1.73567
-0.7127
0.753226
0.935642
0.598996
-2.03805
0.0455049
0.64345
0.624151
0.522467
-0.159132
0.540175
0.235471
0.369197
0.357351
-0.503234
-0.530868
1.01534
0.386319
0.895811
-0.628212
0.0355577
-0.740101
-0.212441
1.85081
-0.320338
-1.59674
-0.970163
0.940045
-1.41678
-0.828844
-0.256908
0.866465
-1.71161
1.08152
-0.753911
-1.61538
-1.75477
-2.21985
-1.12139
-0.487651
-0.808242
-0.390126
1.26195
-1.7185
-0.834469
-1.86502
1.01529
0.323988
0.372691
0.47799
-1.29092
1.05971
0.282418
1.52663
-0.7019
-0.106444
-0.028894
-0.185932
0.197018
-1.76781
1.83036
-1.55768
-1.10796
0.292251
-0.650696
0.551008
1.80256
0.550956
1.15614
-0.604595
-0.705666
0.135777
2.16998
-0.973794
-1.19871
-0.516834
-2.24016
-3.9623
-0.150078
0.623577
0.845899
2.63162
1.45754
3.08024
1.57231
0.7097
1.11578
-0.736174
-0.594232
1.43777
1.4548
3.636
2.99424
0.760956
0.599239
-2.45107
-1.90885
0.137047
-0.179275
0.448838
2.10341
0.217385
1.99891
-0.10727
-0.328803
0.0214529
-0.365631
1.02194
0.351392
1.5594
0.543025
1.19403
0.115121
2.44979
0.0726222
-1.74728
-1.402
-2.75434
0.857542
-1.07055
1.40718
-0.283693
1.15766
2.25625
-0.997201
-0.197314
-0.549204
2.48877
1.5505
-0.880136
1.54891
2.10357
0.944572
-0.52663
-1.58544
-1.55271
0.430019
-0.596992
1.68441
1.49688
-1.14715
1.0487
0.0827233
1.06264
1.21452
1.69169
0.6548
1.0233
1.3058
-1.1255
-0.344383
2.15504
0.854638
0.449062
-1.7509
-1.79566
-1.83142
-0.082427
-0.106459
1.07623
0.811284
0.819574
1.82949
0.971934
-0.440161
0.219021
-0.930228
0.872179
0.594047
-0.399377
0.782112
1.11476
-0.361035
-0.301243
0.911126
0.316385
0.980317
-1.84273
-0.90804
0.472482
-0.667961
-0.0278676
0.350109
0.988883
-0.196766
-0.926759
0.218479
-0.158664
-0.405315
0.792684
0.260884
-0.126358
0.16914
0.650153
-1.41326
-0.94166
-1.03275
-1.25488
-0.536387
-1.30852
2.0125
-0.727089
0.274717
0.945221
-0.340452
-0.495683
-0.610822
-2.26581
-0.949062
-0.525634
1.07895
1.00398
-0.277065
0.658338
-1.25926
-0.818514
-0.408453
-1.03247
-0.940679
-0.230549
0.723857
3.50326
-0.0120373
-0.675647
-0.072422
-0.536234
0.717191
-0.105571
0.38816
-0.681566
-0.528559
0.44882
1.40114
-1.3564
2.40102
-1.36697
-1.00512
3.59743
0.232935
-0.0738431
1.68796
3.27132
0.830422
1.63627
2.42358
1.38184
2.26344
2.43478
1.55123
3.63547
3.4627
1.8226
3.45467
0.571883
1.56595
1.30401
-2.01741
-0.543052
0.423738
0.733231
2.93037
3.77514
2.85964
1.33891
0.645131
1.42967
0.48689
1.14879
1.19376
2.35572
1.83951
4.27775
1.56104
1.26136
0.978432
-0.637391
-0.0734653
0.325095
1.06042
0.667183
1.79313
2.64154
0.443712
2.01751
0.711737
1.28318
0.386307
0.83415
-0.158627
2.00471
1.34418
2.39754
0.177145
0.0404539
1.39262
0.845938
-0.979412
-0.349258
2.01624
2.30076
0.348772
-0.208592
0.969489
0.55836
0.904751
2.85012
1.68267
-0.714295
1.16582
1.9813
1.06877
2.09506
3.22693
1.45773
2.24209
0.363012
-1.34614
0.967123
-0.0750898
1.58671
-0.730721
1.59368
-0.568767
0.498883
-0.540266
0.50804
1.59953
-0.599666
1.91374
3.52384
1.67847
0.479095
3.25224
-0.921524
0.251088
-1.15613
0.64754
-0.713322
2.69937
1.30365
0.460465
0.879066
0.721529
0.899555
1.13259
-0.194742
-0.414719
-0.0553253
2.10009
1.83569
1.41948
-0.55721
-0.354649
-0.610563
0.675619
-1.04656
2.40052
-0.413214
-0.651947
2.06726
-1.02811
0.371879
-1.12157
2.16798
1.22171
1.07527
0.615054
0.839868
-0.657163
-0.371096
0.454603
-1.17603
-0.425239
-0.258786
0.0275777
-0.261502
-0.0812667
0.777671
-0.442487
-1.67306
-2.05929
-0.245452
-0.706068
1.11848
-1.11343
-1.01717
-0.344419
0.816446
-1.30775
1.28693
0.671999
-1.37937
0.0333171
-0.0348391
0.833153
2.50645
0.500022
0.481537
1.96642
1.51406
2.33559
1.12302
2.02338
4.18931
2.63264
4.21792
3.73298
3.72395
2.72926
2.35441
2.64047
3.45957
0.731629
3.1175
0.355343
1.10223
-2.41679
0.0993867
1.4403
0.113121
0.5987
0.397218
2.05507
0.436105
1.79633
0.267203
0.404456
2.23522
0.676601
5.1574
0.331135
5.38373
0.619336
0.899887
0.0127801
-1.34326
2.1241
-0.0926417
1.25455
1.82188
2.80886
2.72186
0.504489
3.70871
3.09425
2.35061
5.04488
1.53199
3.55763
1.96335
1.38213
3.31752
1.36092
2.04114
1.83317
0.968655
-1.20166
2.68116
-0.681712
1.16881
1.38716
1.32922
1.67393
1.61062
3.44627
1.36827
-0.200988
1.58951
3.39603
3.2063
3.15403
2.60922
2.62573
2.44195
1.37598
0.518124
1.08206
0.591537
0.113982
0.330643
1.82403
2.7643
2.77345
0.737279
1.57084
1.15577
1.90659
-0.548971
1.26886
2.38897
3.43317
2.44777
2.42816
0.738354
1.8199
1.28314
1.46178
0.838524
0.972662
2.60807
1.68382
0.00508562
3.04658
0.0125971
-0.570129
1.51042
2.19777
1.85931
1.09427
2.42728
0.886288
1.33305
1.37334
1.31084
1.17131
1.3762
0.0778621
0.95836
0.461926
-2.88264
-2.42645
2.34823
0.230532
0.492426
0.396828
2.00746
1.51088
-0.890981
0.0907112
0.796807
0.685275
-0.0124064
0.260213
-1.02209
-1.69605
-0.11626
0.777162
-0.414375
-0.245467
2.32819
0.293385
-1.2741
-0.589487
0.100297
1.54023
-0.172069
-0.197348
-0.0880013
-0.616461
0.156481
-0.246474
-0.00757457
0.312493
0.816836
-1.26251
-0.0458335
1.47487
1.95971
1.95718
2.94866
4.20295
4.55789
3.75226
2.90739
4.25965
3.67974
3.54343
4.96321
3.18522
5.02373
4.27658
3.77953
4.96171
0.913539
2.32526
2.70222
-0.412085
2.80076
3.41906
2.98795
2.54539
5.10252
3.57909
2.58855
3.71698
2.74156
2.70635
5.10036
2.42845
3.29082
3.8487
3.95876
2.22647
2.1751
2.13121
1.88228
0.43763
-0.00643222
2.62939
3.07685
2.7071
3.59066
0.673705
4.29384
4.23382
4.25861
1.45655
0.863503
1.62204
2.89252
2.1711
4.4119
3.325
2.16891
2.25495
0.224327
-0.13782
1.52053
1.3824
0.87471
1.11565
3.21892
3.17066
2.14116
0.545064
1.24102
3.42679
0.688057
0.646238
2.14439
1.99192
4.00405
3.41772
3.49714
1.44535
1.97035
0.28823
2.2538
1.53498
1.82766
1.75881
3.85481
2.68534
1.03336
2.03113
4.12225
1.26835
0.39525
3.11747
1.84997
-0.74549
2.46112
0.187393
1.55756
1.14926
1.04965
0.640789
1.66067
-0.612733
1.43352
1.40137
2.92634
0.0584873
1.68458
2.41613
2.329
3.24356
2.3279
0.650206
-0.288093
2.61045
3.03481
0.51849
1.28919
1.28765
-0.453391
1.73965
1.95901
-1.40518
-0.945897
-0.0999426
-0.342553
1.46363
-0.427093
2.0468
0.0739353
0.83204
0.33631
0.858424
0.476466
0.651206
2.27066
1.07675
0.540834
0.884873
-0.75925
0.231442
0.375518
1.75162
-0.427172
3.89773
-2.20311
2.73796
0.868607
-0.0474274
-1.56679
0.425611
1.80063
0.00914175
0.30412
1.30737
1.45879
1.13294
1.45995
-1.82027
0.202816
)
;

boundaryField
{
    hotSide
    {
        type            calculated;
        value           nonuniform List<scalar> 
400
(
-2.53698
-2.15481
-5.32492
-4.44528
-4.42802
-2.7168
-3.19705
-5.84424
-5.58831
-7.19741
-4.72029
-4.04568
-3.14452
-1.60833
-2.69751
-1.92984
-1.31458
-0.0676354
1.45141
2.44222
-0.405273
-0.763746
-2.08042
-2.53535
-1.86289
-1.27937
-4.51915
-4.32778
-3.57548
-0.385081
-4.01477
-1.53455