/*--------------------------------*- C++ -*----------------------------------*\
| =========                 |                                                 |
| \\      /  F ield         | OpenFOAM: The Open Source CFD Toolbox           |
|  \\    /   O peration     | Version:  2212                                  |
|   \\  /    A nd           | Website:  www.openfoam.com                      |
|    \\/     M anipulation  |                                                 |
\*---------------------------------------------------------------------------*/
FoamFile
{
    version     2.0;
    format      ascii;
    arch        "LSB;label=32;scalar=64";
    class       volScalarField;
    location    "0";
    object      relativeErrorField;
}
// * * * * * * * * * * * * * * * * * * * * * * * * * * * * * * * * * * * * * //

dimensions      [0 0 0 1 0 0 0];

internalField   nonuniform List<scalar> 
3200
(
0.00999672
0.00396061
0.00077477
0.00381391
0.00719291
0.0117565
0.00760132
0.0106795
0.00845147
0.0101974
0.00757832
0.0119386
0.0102454
0.0129729
0.0109664
0.00846355
0.00629639
0.000387066
0.00256274
0.00326445
0.00979443
0.0074472
0.00414025
0.00404267
0.000593501
0.0107194
0.0117616
0.0125571
0.00182508
0.0134657
0.00677328
0.00702543
0.00606649
0.00834719
0.00894218
0.00603557
0.00655013
0.00226019
0.00466479
0.00579054
0.00771886
0.00536783
0.00115953
0.000921788
0.00664515
0.00816579
0.0108438
0.00888394
0.00551371
0.0127224
0.0154066
0.00624119
0.0105355
0.00604144
0.00426179
0.00331214
0.00446572
0.00465053
0.0048171
0.000540772
0.00496523
0.00342343
0.00338428
0.00204623
0.00672639
0.00682238
0.00637156
0.0135905
0.00454695
0.00938514
0.0136508
0.0112972
0.00660042
0.00591664
0.00154869
6.69606e-05
0.00423824
0.00143239
0.00312158
0.000688369
0.00955831
0.00187055
0.00214279
0.00317136
0.00712473
0.0066899
0.0172704
0.00018425
0.00920441
0.00245575
0.0112868
0.000651433
0.00808059
0.00196613
0.00437315
0.00653575
0.00661302
0.00174831
0.00546658
0.00109269
0.00480102
0.00320174
0.00202275
0.00476932
0.00289547
0.00079781
0.00571331
0.000131517
0.0039037
0.00373109
0.010148
0.000693407
0.00934044
0.010415
0.000604916
0.000867741
0.00242103
0.00572029
0.00587737
0.00109516
0.00242592
0.00333952
0.00342101
0.00208632
0.00415499
0.00198541
0.00612241
0.000564676
0.000161239
0.000936376
0.00119821
0.00713992
0.0016302
0.00185656
0.00880221
0.00223731
0.00297615
0.00323955
0.00227954
0.000206442
0.00296063
2.83949e-05
0.00315517
0.00161653
0.00134001
0.00506638
0.00532877
0.000712312
0.00301873
0.000949654
0.0053225
0.00607473
0.00174589
0.00275339
0.00416527
0.00088676
0.00567385
0.00159896
0.00384805
0.00502224
0.00888092
0.00499573
0.00416265
0.000259642
0.00925831
0.0150619
0.0141726
0.007751
0.00966547
0.0106743
0.00823552
0.00987716
0.00830272
0.013893
0.0127527
0.00292795
0.0050815
0.00241061
0.00577197
0.011089
0.0107765
0.000663918
0.0019287
0.00143964
0.00279423
1.31518e-05
0.00971392
0.0011932
0.00849767
0.000517798
0.000312111
0.0102148
0.000305898
0.0101424
0.0014748
0.00726711
0.000824197
0.00728174
0.00026892
0.00255344
0.00448228
0.00404815
0.00181697
0.00689257
0.00975844
0.00766096
0.00938107
0.0118184
0.00807055
0.0145657
0.00759006
0.00797383
0.00808908
0.00834037
0.00669628
0.00535456
0.00791888
0.000586375
0.000471434
0.00265033
0.00583504
0.00419475
0.00641946
0.00579176
0.00328102
0.00301577
0.00373661
0.00816124
0.0131974
0.0064784
0.00733685
0.0109461
0.00934241
0.00822054
0.00686011
0.00249218
0.00706757
0.0033302
0.00077586
0.000821503
0.0097044
0.00110156
0.00154876
0.00501837
2.41097e-05
0.0125619
0.00799907
0.0100576
0.00347495
0.000341135
0.00601526
0.00651844
0.00079243
0.00670598
0.00304275
0.008735
0.00137844
0.00544645
0.0021584
0.0015675
0.00541907
0.00623018
0.00289665
0.00527192
0.00534141
0.00401668
0.00366876
0.00539294
0.000208249
0.00227673
0.00253959
0.00867945
0.00414067
0.00406896
0.00150094
0.00107917
0.00985795
0.00202426
0.00503786
0.00654584
0.00252086
0.000684212
0.00521715
0.00161663
0.000335885
0.0044607
0.00324107
0.00848622
0.00464266
0.00442242
0.00145893
0.00344278
0.000497326
0.000336708
0.00567664
0.00484516
0.000630387
0.00563886
0.00176556
0.000589106
0.000757847
0.000731047
0.00587996
0.00518352
0.00122305
0.00244399
0.00585566
0.00592276
0.0078707
0.0049003
0.000699454
0.00171447
0.00208656
0.00237694
0.00473921
0.00102147
0.00567564
0.000828722
0.00184918
0.000377733
0.0180802
0.00880181
0.00467646
0.00220827
0.0054037
0.00996211
0.00510599
0.00511733
0.00930286
0.00955036
0.013758
0.00878715
0.00806243
0.0122383
0.00599433
0.00335902
3.1189e-06
0.00144277
0.00257137
0.0110992
0.00968804
0.00482897
0.00122331
0.00606919
0.00490815
0.0117619
0.0048289
0.00765304
0.00478587
0.0101457
0.00532864
0.00745633
0.0109408
0.0091666
0.0127791
0.00489457
0.00746485
0.00816394
0.00343082
0.00737823
0.00769544
0.0101948
0.00556265
0.00272124
0.00446205
0.013297
0.0110708
0.00158443
0.00753316
0.00345039
0.00445405
0.00621075
0.0054728
0.00248189
0.00279208
0.0010493
0.00189907
0.00408425
0.00206243
0.00665431
0.00365405
0.00430925
0.00407366
0.00321168
0.000807046
0.0054706
0.00212498
0.00333199
0.00857022
0.0027627
0.00327023
0.00384429
0.0070221
0.00454518
0.000655357
0.00420618
0.00522497
0.00220468
0.00114006
0.00323714
0.00443783
0.000862456
0.00521477
0.00701512
0.00198171
0.000419966
0.00715294
0.00318771
0.000943039
0.0112874
0.00766599
0.00628606
0.00140637
0.00388692
0.00809955
0.00352986
0.0053956
0.00120948
0.00109237
0.00339117
0.0123126
0.00582138
0.00393591
0.00174412
0.000217442
0.00420912
0.00770848
0.000952772
0.00553869
0.000682178
0.00125149
0.00403261
0.00295017
0.0060752
0.00220954
0.00392899
0.00247612
0.000549392
0.0042255
0.00539653
0.00620227
0.0028247
0.00168144
0.00221881
0.00390777
0.000293847
0.00379163
0.000862366
0.000574333
0.00471589
7.68062e-05
0.0114174
0.00149667
0.00393118
0.000313819
0.00597602
0.00827449
0.00413958
0.00278991
0.00267433
0.00209327
0.000231392
0.00394785
0.00526695
0.000663515
0.00153909
0.00692766
0.00400651
0.00228898
0.0035856
0.000580622
0.0023724
0.00240566
0.000566202
0.00489268
0.00364167
0.001612
0.000131335
0.00385541
0.0017869
0.0155051
0.0101022
0.000428356
0.00212634
0.00538451
0.00397892
0.0131863
0.00736499
0.0103129
0.00550572
0.000790023
0.00221752
0.00253318
0.00762549
0.00485985
0.00121695
0.00481756
0.00245559
0.00416396
0.00732448
0.00676745
0.00121863
0.000665049
0.000377068
0.00159315
0.000673732
0.00789899
0.000647517
0.00649359
0.000525063
0.000939314
0.000327984
0.000869013
0.00579665
0.00090857
0.00398879
0.00121957
0.000890493
0.0014924
0.00787354
0.00846556
0.00146019
0.00176295
0.00147976
0.00653596
0.000435208
0.00628014
0.00125496
0.0059951
0.00257376
0.00858344
0.00175839
0.00187689
0.00290709
0.00152821
0.00461162
0.00394784
0.00574593
0.0055542
0.00286385
0.00419391
0.000844561
0.00259987
0.000928929
0.00575333
0.00768913
0.00275197
0.00385394
0.00493466
0.00351761
0.00276396
0.00205876
0.000930369
0.0058224
0.0032322
0.000806231
0.00902117
7.35528e-06
0.00388022
0.00250998
0.00928535
0.00360789
0.00190493
4.0215e-05
0.00152708
0.000773686
0.00390868
0.00517913
0.00296084
0.00501179
0.00467992
0.000595469
0.00759902
0.00640736
0.00484363
0.00208136
0.00156191
0.00235787
0.00298864
0.00307055
0.00871054
0.00598035
0.00140911
0.00100755
0.00298172
0.00620926
0.000847101
0.000378066
0.00185501
0.00262361
0.0014771
0.00678769
0.000624054
0.000731667
0.00558631
0.000679875
0.00318112
0.00262721
0.00126772
0.000285592
4.03493e-05
0.000437227
0.00255443
0.00440281
0.00297529
0.00399091
0.00545995
0.00346061
0.00068059
0.00299198
0.0051323
0.00152481
0.00145483
0.00144642
0.00299247
0.00121359
0.00107632
0.00353657
0.00129199
0.000301816
0.0038424
0.000568047
0.00192445
0.00468668
0.00142689
0.00857277
0.00328024
0.00472039
0.0118872
0.000139636
0.00522097
0.00902731
0.00314288
8.50813e-05
0.00131495
0.000888851
0.0022528
0.000407718
0.000398506
0.005687
0.015429
0.00813529
0.00293805
0.00487333
0.00626764
0.00680978
0.00298679
0.00103967
0.00525082
0.000938842
0.000111327
0.000431212
0.00143518
0.00465063
0.00286866
0.00490567
0.00116469
0.000858688
0.00490717
0.00953384
0.0118453
0.00860562
0.00645037
0.000784716
0.00175252
0.00163741
0.00257437
0.000631864
0.00456851
0.000378359
0.00312825
0.00224372
0.00128373
0.00285509
0.00665021
0.000757575
0.00542962
0.00208023
0.00247892
0.00593394
0.0102986
0.00965691
0.00154778
0.00113804
0.00302145
0.00182743
0.0025276
0.0010237
0.00143667
0.00421204
0.000566518
0.00181843
0.00354611
0.00785669
0.000774848
0.0043785
0.000693673
0.00180624
0.00314477
0.00386578
0.00539474
0.00834929
0.000183931
0.00202411
0.0070267
0.00180441
0.00155046
0.00231679
0.00949298
0.00185886
0.00375078
0.000762974
0.00544785
4.9159e-05
0.00240666
0.00295108
0.00184758
0.00414484
0.00332682
0.00474614
0.00730203
0.00440181
0.00100294
0.00141925
0.00361735
5.85776e-05
0.00116047
0.00192346
0.00465235
0.0012597
0.00384605
0.00877182
0.00137008
0.00395273
0.00023089
0.00441713
0.00790377
0.00018085
0.00224863
0.00127878
0.00131951
0.00476349
0.00167001
0.00115512
0.00185435
0.00630525
0.000984598
0.00475903
0.00149309
0.00509067
0.00206415
0.00127249
0.00572221
0.00330438
0.00726705
0.00066983
0.00236352
0.00235761
0.000479255
0.00123255
0.000242453
0.00414429
0.00345403
0.000651401
0.00269618
0.00708319
0.0047031
0.00815003
0.000352119
0.00443853
0.00296229
0.000903484
0.00650019
0.00560922
0.00834702
0.000490259
0.00167447
0.00242472
0.00536382
0.00423423
0.00372668
0.00133252
7.08256e-05
0.000350108
0.00186366
0.000336973
0.00248949
0.00635026
0.0029009
0.00380163
0.00682619
0.00534826
0.0042953
0.000953953
0.00188976
0.00115828
0.00265182
0.00127676
0.00145932
0.00326349
0.0104469
0.00642676
0.00245372
0.00190862
0.000347202
0.00297319
0.00253936
0.00106725
0.000573835
0.00136143
0.00411009
0.00129811
0.00248347
0.00686916
0.00077034
0.00122197
0.00172904
0.003365
0.00297499
0.010703
0.00879521
0.000221952
0.00737526
0.000403151
0.00376974
0.000408452
0.00368865
0.000256133
0.0019752
0.00132811
0.00146501
0.0101826
6.77887e-05
0.00493927
0.00069845
0.00132322
0.000109767
0.00543112
0.00104142
0.00238384
0.00966365
0.00249793
0.000333999
0.004765
0.00387318
0.00678342
0.00495431
0.00210647
0.00285404
0.00162548
0.00115125
0.00237897
0.000121205
0.00203172
0.0034346
0.000793643
0.00326688
0.000923065
0.00343313
0.00125962
0.00916328
0.0012294
0.00432463
0.00215502
0.0006559
0.000550798
0.00498402
0.00202276
0.00100057
6.89301e-05
0.000667173
0.000600799
0.00248619
0.00088822
0.00142127
0.000700726
0.00304467
0.00196007
0.00768825
0.0044157
0.00598489
0.00847234
0.00729781
0.000351838
0.00010956
0.00371906
0.00227037
0.00414342
0.00118591
0.000707436
0.00179214
0.00316182
0.0010139
0.000435273
0.00696104
0.00212724
0.000502285
0.00294145
0.00049936
0.00770586
0.00779835
0.0070317
0.000616959
0.00360548
0.000849356
0.00409461
0.0033551
0.00442528
0.00390386
0.00190858
0.000160986
0.00334414
0.00195284
0.0030518
0.0029785
0.00169877
0.00103253
0.00352887
0.0020544
0.00731022
0.00197434
0.00682951
0.0011542
0.00277547
0.00225209
0.00118035
0.00770333
0.00172301
0.000338232
0.000227396
0.00822428
0.000380103
0.000503503
0.00134138
0.000418281
0.00485246
0.0039565
0.00295672
0.000276578
0.000958277
0.00396698
0.00343185
0.000988252
0.00541306
0.0032281
0.00264334
0.00363066
0.00243823
0.00330356
0.000734049
0.00148636
0.000593202
0.00119153
0.00235332
0.00251095
0.00200749
2.27197e-05
0.00171238
0.00453707
0.00108826
0.0118064
0.0157344
0.0074647
0.000193227
0.00202558
0.011056
0.00975892
0.00297021
0.00240556
0.00164339
0.00712928
0.00399766
0.00108814
0.000923636
0.00343082
0.00105424
0.00186773
0.0010737
0.00419967
0.0108931
0.0156083
0.0137066
0.00442694
0.00302984
0.00442205
0.00577026
0.00289448
0.00717013
0.00407104
0.00304289
0.00287571
0.00514321
0.00538127
0.00139561
0.00556746
0.00196956
0.00133642
0.00128268
0.0141138
0.0125169
0.0121671
0.00950055
2.80824e-05
0.000965648
0.000242336
0.000812319
0.00167747
0.00323501
0.00164462
0.00135703
0.00360308
0.00116515
0.0049531
0.00325954
0.00410243
0.000973282
0.00118961
0.0044777
0.00282403
0.0038547
0.00794645
0.00629074
0.000115337
0.00456677
0.000570891
0.00150216
0.000572463
0.00935548
0.00309135
0.0026117
0.00155045
0.00105348
0.00121035
0.000477079
0.0036218
0.000346087
0.00165436
0.00141747
0.00218555
0.00807098
0.00521484
0.00984958
0.00490533
0.00160105
0.000397857
0.00200117
0.00124872
0.00239248
0.00173659
0.00533728
0.00291501
0.000609396
0.00272133
0.0042547
0.0019113
0.00116568
0.00635537
0.00464077
0.00209281
0.00458099
0.00541321
0.00159723
0.00280697
0.00131346
0.00300749
0.00435842
0.00113709
0.0042927
0.00100757
0.00042957
0.000773391
0.00160692
0.000627325
0.000725975
0.00157875
0.00289609
0.00155049
0.0037878
0.0039101
0.00193136
0.0088049
0.00463242
0.00643411
0.000831916
0.000946055
0.00118322
0.00496833
0.00368485
0.00303302
0.00389457
0.00451213
0.000454181
0.0026849
0.000858957
0.00180044
0.00230616
0.00349808
0.000113838
0.00512848
0.00103171
0.000405427
0.000979773
0.00705491
0.000782126
0.000874812
0.00381834
0.00416698
0.00189338
0.00262304
0.000748983
0.00490024
0.00248516
9.68956e-05
0.00297432
0.00337391
0.00311291
0.00548657
6.8775e-05
0.00802038
0.0025992
0.019396
0.0151362
0.00782792
0.0024879
0.00226064
0.000873864
0.00276326
0.00459855
0.00243682
0.0016793
0.010421
0.00552048
0.00679865
0.00263558
2.21103e-05
0.00240669
0.00154858
0.00400729
0.00748957
0.0119301
0.0161519
0.000470558
0.0011804
0.00242496
0.00314382
0.00207588
7.0197e-05
0.000194213
0.000693269
0.000207554
0.00044028
2.71318e-05
0.000295537
0.00208915
0.000175754
0.00419738
0.000770709
0.00728664
0.00156839
0.00745401
0.0106476
0.00325556
0.00976346
0.00840095
0.00584852
0.00193475
0.00384205
0.00100556
0.00504622
0.00406174
0.0102277
0.0036887
0.00603452
0.00388391
0.000217513
0.00372729
0.00186241
0.00436898
0.0035286
0.00916061
0.0100902
0.00589189
0.0022127
0.000139772
0.00232602
0.00699622
0.00174109
0.00124325
0.00499621
0.000932759
0.00124401
0.00298163
0.00545423
0.00351144
8.95345e-05
0.00221134
0.000557606
0.00343163
0.00205634
0.00381201
0.00307104
0.0050401
0.00121314
0.00378944
0.00532252
0.000247484
0.00616176
0.000447687
0.000755438
0.00466446
0.00548306
0.000956268
0.00495299
0.00199173
0.00589825
0.00203381
0.00358499
0.000971634
0.000432735
0.00558961
9.82023e-05
0.000113334
0.00177728
0.00216112
0.00356064
0.00254334
0.000504594
0.00220801
0.000421636
0.0047432
0.00217325
0.00158867
0.00158757
0.00147991
0.00573005
0.004201
0.00269003
0.000974927
0.00678972
0.00208495
0.00498911
0.0057927
0.0068079
0.000547831
0.00136326
0.00275255
0.00334242
0.00214222
0.00385035
0.00048606
0.00450808
0.00174866
0.00129749
0.00188451
0.000890632
0.00687257
0.00188938
0.00194288
0.00203835
0.00386921
0.00223109
0.00633404
0.00639953
0.00135264
0.000127404
0.00125358
0.00409217
0.00243417
0.000317378
0.00118945
0.00557995
0.00284376
0.0010997
0.0012626
0.00230377
0.000914731
0.00426444
0.00242247
0.00160799
0.00384172
0.0186033
0.0129287
0.0118803
0.00663378
0.00144594
0.00231028
0.00248699
0.00272932
0.000460638
0.000644015
0.004266
0.00481084
0.00185306
0.00786808
0.00163725
0.00401035
0.00251315
0.00541404
0.00789051
0.00982904
0.012504
0.00525368
0.00759614
0.00252852
0.00123274
0.00216214
0.0023325
0.000152611
0.00551515
0.00351083
0.00297757
0.0114089
0.00476473
0.00149512
0.000625134
0.00166045
0.0102178
0.00176716
0.00802596
0.00615125
0.0128052
0.00616322
0.0108231
0.000812359
0.00210073
0.0044304
0.000787281
0.00372053
0.00519136
0.00865802
0.00198187
0.00179458
8.36284e-05
0.00164306
0.00272849
0.00440591
0.000634397
0.00632672
0.00556078
0.0136476
0.00397703
0.00638678
0.00453647
0.00144182
0.000912576
0.00167727
0.00148604
0.00422726
0.00252415
0.000802722
0.00519922
0.00391761
0.00409082
0.00566756
6.33063e-05
0.00486709
0.00527595
0.00302763
0.0124896
0.00470773
0.010026
0.00569538
0.0071822
0.00685666
0.00643921
0.00297578
0.0046861
0.00207444
0.0023309
0.00669091
0.00257403
0.00222475
0.00113187
0.00440343
0.00749193
0.000350026
0.00548574
0.00633184
0.000783428
0.00852358
0.0077191
0.00399436
0.00689898
0.00151232
0.0024619
0.00477941
0.00106416
0.00356227
0.00436075
3.37813e-05
0.00220046
0.000536954
0.00365595
0.00368504
0.00950429
0.000253242
0.00215446
0.0056046
0.00621948
0.000790275
0.00138544
0.00539372
0.00403727
0.00390691
0.0035362
0.009837
0.00214962
0.00729709
0.000539185
0.000935812
0.000571998
0.0024634
0.0107513
0.00122083
0.000673429
0.00766265
0.000811384
0.00276513
0.000244808
0.00121286
0.00213901
0.00548697
0.000626618
0.00114922
0.00791269
0.00521269
0.0043265
0.000997513
0.00829833
0.00158423
0.00357271
0.00427507
0.000993306
0.00563893
4.45229e-06
0.00233209
0.00141515
0.00290039
0.0041111
0.000267603
0.0231477
0.00376572
0.00691128
0.000717099
0.0025476
0.00741186
0.00292385
0.00857367
0.00676914
0.00243145
0.00333539
0.00863732
0.00411008
0.00275382
0.000897745
0.00544452
0.00933695
0.00754856
0.00584353
0.0106597
0.0146181
0.000507605
0.0054774
0.000655931
0.00633325
0.000419481
0.00279996
9.79994e-06
0.0060923
0.00121629
0.00139628
0.0101463
0.00137434
0.00493262
0.00170904
0.000399301
0.000271229
0.00516477
0.000728142
0.0138367
0.0115234
0.00764788
0.0013317
0.005154
0.00151886
0.00154972
0.00680521
0.00420469
0.00417971
0.00810561
0.009017
0.00950178
0.00181964
0.00461149
0.00306353
0.00071084
0.00147544
0.000861053
0.00791275
0.0107625
0.00825178
0.0110323
0.00115317
0.00417709
0.00120215
0.0004025
0.00289509
0.00366681
0.00709205
0.00548559
0.00267331
0.00793359
0.0034488
0.00740123
0.00841896
0.00322576
0.00023788
0.00351683
0.00996043
0.0017167
0.00840989
0.0133598
0.00577872
0.00509606
0.00184793
0.00226904
0.0034774
0.00259144
0.00548549
0.00468862
0.00234004
0.00821853
0.00319978
0.00206991
0.000172626
0.00242556
0.00415275
0.00295569
0.00444815
0.00348494
0.00829043
0.00210889
0.00114196
9.98351e-05
0.00087915
0.000360097
0.00520374
0.000401455
0.00505666
0.00328572
0.000599623
0.00353808
0.00206787
0.00258011
0.00311753
0.00351427
0.00701108
0.00774176
0.000823937
0.0081533
0.00659458
0.000599417
0.000359951
0.00290741
0.000107986
0.000352693
0.000302957
0.0056183
0.000430363
0.00416877
0.00312869
0.000149367
0.00705978
0.00266547
0.0012715
0.00168585
0.0016081
0.00406366
0.00193822
0.00110714
0.0042432
0.00145013
0.00287723
0.00428658
0.00359422
0.00167968
0.00405253
0.00372325
0.006105
0.000839397
0.0029255
0.00838416
3.11133e-05
0.00328979
0.00154086
0.00417078
0.000319022
0.000615615
0.000531447
0.0010221
0.0160017
0.0140797
0.00913451
0.00632013
0.00610577
0.00153306
3.65392e-05
0.00830218
0.00405377
0.00712368
0.00360452
0.0044505
0.00881589
0.00424053
0.00223158
0.00736085
0.00728706
0.010091
0.00608704
0.0102737
0.0150762
0.00112841
0.00839886
0.000152376
0.000583039
0.000125926
0.00753446
0.000660331
0.00155746
0.000751391
0.00104929
0.00626758
0.000268667
0.00540406
0.000381546
0.00528208
0.000641886
0.000153169
0.00110371
0.0100745
0.0159983
0.00440604
0.00348197
0.00609126
0.000650211
0.00331778
0.00277951
0.0060906
0.00317727
0.00596633
0.00528201
0.002796
0.0068266
0.000865617
0.000101508
0.00106876
0.00115523
0.00972596
0.0106839
0.00195951
0.00801737
0.0113457
0.00393766
0.00447299
0.00215526
6.81917e-06
0.00132971
0.00658926
0.00178727
0.00383268
0.00901467
0.0045661
0.00594169
0.00715937
0.00435878
0.00838574
0.0037188
0.00125747
0.00472998
0.00393835
0.00602742
0.00479705
0.00833473
0.00125218
0.00203581
0.00212264
0.00334983
0.000350519
0.0033791
0.00706238
0.00348957
0.00917579
0.00920241
0.00149147
0.000673683
0.00231881
0.00233072
0.0048296
0.00395216
0.00240937
0.0105608
0.00600726
0.00213728
0.00785561
0.00171999
0.00098712
0.00511767
0.000256162
0.00585769
0.00473139
0.00329051
0.00726977
0.00162201
0.000473065
0.00368212
0.00362015
0.00993584
0.00102942
0.00472432
0.00437981
0.00153925
0.000494096
0.00115298
0.00482005
0.00553158
0.00204873
0.00190084
0.000192176
0.007118
0.00298966
0.000195244
0.0064113
0.00391533
0.00111826
0.00481769
0.0016948
0.000492537
0.000289914
0.00609669
0.00326229
0.000883053
0.000789956
0.00163364
0.000731311
0.00329043
0.00126631
0.00231763
0.0103878
0.00213761
0.00116943
0.00107876
0.00433521
0.00211942
0.00263333
0.00402438
0.00464095
0.00171718
0.000864698
0.00141862
0.000690876
0.0140264
0.00698934
0.0078787
0.00409778
0.0023439
0.000756733
0.00518173
0.000504904
0.00705217
0.0126902
0.0111893
0.00908091
0.00930391
0.00755407
0.00335807
0.00172581
0.00342286
0.00143565
0.0133471
0.0173103
0.0130818
0.00125194
0.00396589
0.009503
0.00287803
0.00593806
0.0014346
0.000312382
0.00575773
0.00746196
0.00842389
0.0154747
0.00408144
0.00282704
1.96158e-05
0.00730275
0.000326357
0.00327242
0.00297543
0.0069692
0.0099244
0.00503287
0.00345281
0.00528057
0.000414651
0.00345382
0.00198882
0.00281752
0.0129443
0.000722124
0.00338046
0.00754942
0.00989829
0.000322004
0.00587775
0.00625753
0.00403803
0.00169912
0.00644304
0.00858198
0.008228
0.00728863
0.00896671
0.000555227
0.00278346
0.00592184
0.00710664
0.00118549
0.00394747
0.00469732
0.00653375
0.00730642
0.00756024
0.00251999
0.00335532
0.00230437
0.00166966
0.00565679
0.00381415
0.00344835
0.0083832
0.00712729
0.00523686
0.00136508
0.00302433
0.000192545
0.00378481
0.00372819
0.00118452
0.00886259
0.00614498
0.00397093
0.00169619
0.00433906
0.00266659
0.00172896
0.000151227
0.00364016
0.000303699
0.00857451
0.00131215
0.000782261
0.00194706
0.00117849
0.000325868
0.000364837
6.87514e-06
0.00465055
0.000841079
0.00708346
0.00474705
0.000547117
0.000163122
0.00418206
0.00189786
0.00195359
0.00486141
5.23135e-05
0.00200043
0.00858804
0.00110271
0.00251659
0.00834108
0.00158281
0.000422006
0.00237709
0.00262119
0.00160499
0.00569813
0.000319182
0.00117476
0.00616794
0.00378591
0.00114157
0.00917994
0.00198828
0.00117002
0.000188666
0.0027924
0.00112365
0.000455718
0.00224928
0.00173935
0.00280999
0.00310056
0.00395108
0.00225707
0.0003848
0.00465351
0.00385134
0.00243217
0.00237699
0.0067058
0.00445107
0.00116788
0.00726941
0.000420903
0.0051298
0.00324282
0.00194629
0.0114251
0.00691564
0.0104697
0.000470733
0.00352823
0.00667687
0.00443514
0.00578245
0.00225125
0.00484912
0.00499736
0.00779706
0.0112224
0.00983469
0.00393478
0.000848856
0.00291036
0.00109294
0.00502602
0.0130728
0.0107532
0.000793723
0.00498384
0.000265883
0.00806936
0.00156357
0.00511395
0.00137081
0.00109641
0.00280094
0.000625421
0.0116237
0.000263012
0.00321651
0.00081576
0.001584
0.00105189
0.00406422
0.00146564
0.0047001
0.0130867
0.0122857
0.00857905
0.00479415
0.00673088
0.00378996
0.000449923
0.00668289
0.00583484
0.00639243
0.0126785
0.00709152
2.46051e-05
0.00541248
0.00330899
0.00250925
0.000581692
0.00338931
0.00722878
0.00276424
0.00859153
0.000872683
0.0023445
0.00632445
0.000818111
0.00155516
0.000535004
0.00222726
0.00159754
0.00623734
0.0015644
0.000166696
0.00404448
7.9186e-05
0.00274547
0.000505142
0.00305148
0.00465329
0.00210067
0.00221903
0.00417042
0.00560623
0.00704309
0.00122524
0.000667137
0.0037822
0.00545765
0.00237279
0.00580988
0.00473018
0.0024414
0.000300297
0.00346099
2.9891e-05
0.000812089
0.000797256
0.00480601
0.000266211
0.00145076
0.00176254
0.0081284
0.00234211
0.00833083
0.00640169
0.0042559
0.00349268
0.000966025
6.74478e-06
0.00702046
0.00450412
0.00120105
0.00042873
0.00466436
0.00156926
0.00168751
0.00449661
0.000461651
0.000322742
0.000441716
0.00279008
0.00397885
0.00288409
0.00525587
0.00730894
0.000446607
0.00189508
0.00472577
0.00014856
0.00281351
0.0106456
0.00622627
0.00116429
0.000776793
0.00315076
0.00410062
0.00135733
0.00120454
0.003656
0.00255369
0.0110979
0.00422993
0.00289912
0.00844026
0.00530587
0.00447767
0.00239054
0.00197405
0.00454842
0.00370345
0.00329117
0.00531394
0.00032368
0.000227815
0.00845944
0.00159378
0.000892118
0.00592613
0.000253564
0.00643404
0.00401
0.00706053
0.0131027
0.00444136
0.00468397
0.00223546
0.0108141
0.00101101
0.00327623
7.75804e-05
0.00234721
0.00596254
0.00494552
0.0030003
0.00790805
0.00634822
0.000691754
0.00219038
0.00680891
0.00888329
0.00934716
0.0134833
0.0126882
0.00327781
0.0090154
0.000353874
0.000304805
0.00601802
0.00600456
0.00808006
0.00638838
0.0020468
0.00141106
0.00611815
0.00273308
0.00849959
0.00452066
0.0016289
0.00283128
0.00322542
0.0121728
0.0193961
0.012878
0.000568386
0.00433756
0.00292961
0.00428194
0.00253116
0.00279661
0.00824245
0.00342468
0.00445238
0.00799326
0.00548892
0.00387388
0.000551372
0.000807253
0.00525879
0.00179942
0.0070303
0.00630407
0.00904561
0.00751822
0.00652006
0.000961213
0.00173549
0.00010041
0.00152949
0.00399091
0.000424192
0.0012074
0.00197088
0.000972238
0.00491303
0.00311466
0.00402566
0.00839317
0.00267611
0.0102
0.00883975
0.00347159
0.00299917
0.00800761
0.00106621
0.00502409
0.00419938
0.00011727
0.000437389
0.00382661
0.00194999
0.00457688
0.000251076
0.00446599
0.00191682
0.00141495
0.00337308
0.00492328
0.00192822
0.00152884
0.0109092
1.44447e-05
0.00690552
0.00708809
0.00409311
0.00189286
0.00382294
0.00517957
0.00155439
0.00151802
0.0033863
0.000589146
0.00246856
0.00261793
0.00566944
0.0015747
0.0021696
0.00289315
0.00329226
0.00265599
0.00728469
0.00174979
0.000472727
0.00145443
0.00362984
0.00373989
0.00719087
0.00307798
0.000187806
0.00420674
0.00257527
0.00490138
0.00263676
0.00298275
0.000430733
0.00243426
0.00171921
0.00150695
0.00328052
0.00573611
0.00135855
0.00408551
0.0021074
0.000592285
0.00231544
0.00361473
2.64855e-05
0.00441574
0.00214033
0.00263424
0.000825256
0.000301742
0.00257402
0.00276197
0.000683841
0.000985916
0.00389961
0.00180749
0.00279359
0.00809261
0.0052559
0.000416809
0.0100894
0.00765717
0.00537536
0.00550417
0.00386905
0.00114401
0.000635215
0.000826672
0.00234425
0.00311442
0.00276338
0.00222634
0.00115372
0.000882976
0.00261194
0.00426337
0.00154437
0.00270827
0.000150363
0.00785075
0.005876
0.00165055
0.000875946
0.00336127
0.00298984
0.00168917
0.0035737
0.0018537
0.00200618
0.000625434
0.00115835
0.000909276
0.000598204
0.00126327
0.00144829
0.00239903
0.000277375
0.00189387
0.00131501
0.00133859
0.00911651
0.0035568
0.00431459
0.00519027
0.00497117
0.00438146
0.00488981
0.00169426
9.54259e-05
0.000797196
0.000224333
0.00496856
0.00400029
0.000488423
0.00175116
0.00355471
0.00424042
0.00271032
0.00578087
0.00651301
0.00556585
0.0104466
0.00281353
0.00119449
0.000633733
0.00141949
0.00175233
0.003549
0.000907335
0.000903316
0.00830854
0.00209986
0.00410543
0.00213097
0.00616506
0.00234584
0.00177959
0.00607571
0.00716669
0.00251146
0.00819769
0.00324634
0.00229848
0.00231588
0.00327769
0.00317045
0.00141599
0.00316008
0.00319985
0.00168769
0.0024958
0.00323194
0.00264104
0.00485757
0.00104098
0.00282224
0.0016034
0.00479907
0.00262092
0.000767367
0.00322216
0.00559489
0.00147332
0.00568755
0.00452685
0.00162748
0.00164867
0.00470218
0.000368609
0.00178995
0.00326656
0.00203726
0.00203407
0.003168
0.00229213
0.00276893
0.00272648
0.00154017
0.00548235
0.00179808
0.00432874
0.00286146
0.0053346
0.00180739
0.000787661
0.000589172
0.000135764
0.00601542
0.00255522
0.000752675
0.00861539
9.09157e-05
0.0019209
0.00883972
0.00123272
0.00153068
0.000395834
0.00136458
0.00660786
0.00619473
0.00709646
0.00405201
4.15688e-05
0.00169437
0.00356249
0.000721586
0.00283782
0.000762815
0.00030738
0.000225197
0.00144878
0.000939628
0.00683273
0.00520548
0.00307834
0.0021444
0.00200934
0.00536629
0.00175148
0.00533626
0.00791867
0.0055312
0.00149265
0.00366117
0.00403325
0.00107145
0.00119578
0.00417414
0.00190155
0.00284968
0.00402247
0.00164537
0.00148065
0.00332105
0.00440908
0.00175592
0.00295833
0.00432419
0.00133912
0.00389993
0.00131416
0.00814333
0.00338793
0.000485521
0.00559971
0.006917
0.00624366
0.00146093
0.00155931
0.00466262
0.00233501
0.00268014
0.00304619
0.00207876
0.00134951
3.60791e-05
0.00141162
0.00166792
0.00497241
0.000423311
0.00383569
0.000773735
0.00415679
0.00431026
0.00062108
0.00204128
0.00019753
0.000617703
0.00708993
0.00356849
0.0011463
0.00203408
0.00122712
0.000151417
0.00709492
0.000204068
0.00365322
0.00378018
0.00410199
0.00476181
0.00372795
0.00416317
0.0020507
0.0045356
0.00806625
0.00453883
0.00828032
0.00402103
0.00379979
0.000826664
0.000720481
0.001141
0.00366864
0.00455981
0.000879527
0.00476458
0.00217001
0.00126204
0.00222433
0.00517051
0.00148781
0.00289358
0.00376347
0.00528651
0.00216924
0.00229112
0.0028444
0.00182016
0.00619105
0.000138209
0.00195431
0.001896
0.00158761
0.000483769
0.00164307
0.000716701
0.0011245
0.0010892
0.00153491
0.00162006
0.0031751
0.00120761
0.00279882
0.00196172
0.00011098
0.00230886
0.000662474
0.00576962
0.000998381
0.00497588
0.00302328
0.00292978
0.00441659
0.00258465
0.000801466
0.00270435
0.00534486
0.00337904
0.00235667
0.00505153
0.00562642
0.00711594
0.00359359
0.00156222
0.00258844
0.00124904
0.00403927
0.0054995
0.00267006
0.00596708
0.00324841
0.00103667
0.00119268
0.00152996
0.00413303
0.00339378
0.000904743
0.00489223
0.00225
0.000341296
9.50515e-05
0.000611603
0.000648001
0.00581377
0.00601882
0.00512164
0.00364265
0.000960772
0.00213905
0.00181129
0.00592545
0.00181117
0.00380081
0.00198774
0.00232022
0.000446479
0.00713638
0.00320285
0.00394304
0.00170021
0.00619703
0.0109498
0.000414223
0.00171893
0.00232893
0.00723731
0.00400454
0.00845632
0.00431419
0.00194677
0.00306069
0.00201996
0.00163137
0.00395022
0.0040009
0.0100107
0.00825379
0.00210028
0.00165599
0.00678046
0.00540333
0.00038759
0.00050646
0.00126657
0.00592917
0.000612166
0.00562416
0.000301607
0.000924043
6.02747e-05
0.00102729
0.00287197
0.000988001
0.00438754
0.00152918
0.00336577
0.000324859
0.00692078
0.000205386
0.00494598
0.00406301
0.00797605
0.00248093
0.00309415
0.00406329
0.000818472
0.00333742
0.00650068
0.00287192
0.000568139
0.00158136
0.00716763
0.00446728
0.00253735
0.00446869
0.00607414
0.00273006
0.00152358
0.00459113
0.00449977
0.00127653
0.00177109
0.00499317
0.00443366
0.00339511
0.00310148
0.000244498
0.00313916
0.00358658
0.00499479
0.00193333
0.0030219
0.00385748
0.00332653
0.0010185
0.00637806
0.00253138
0.00133117
0.00519438
0.00533049