/*--------------------------------*- C++ -*----------------------------------*\
| =========                 |                                                 |
| \\      /  F ield         | OpenFOAM: The Open Source CFD Toolbox           |
|  \\    /   O peration     | Version:  2212                                  |
|   \\  /    A nd           | Website:  www.openfoam.com                      |
|    \\/     M anipulation  |                                                 |
\*---------------------------------------------------------------------------*/
FoamFile
{
    version     2.0;
    format      ascii;
    arch        "LSB;label=32;scalar=64";
    class       volScalarField;
    location    "0";
    object      Tdirect;
}
// * * * * * * * * * * * * * * * * * * * * * * * * * * * * * * * * * * * * * //

dimensions      [0 0 0 1 0 0 0];

internalField   nonuniform List<scalar> 
3200
(
330.082
330.387
330.777
331.202
331.64
332.07
332.466
332.801
333.045
333.174
333.174
333.045
332.801
332.466
332.07
331.64
331.202
330.777
330.387
330.082
325.97
326.229
326.565
326.933
327.311
327.683
328.026
328.315
328.526
328.637
328.637
328.526
328.315
328.026
327.683
327.311
326.933
326.565
326.229
325.97
321.902
322.117
322.4
322.711
323.031
323.345
323.634
323.878
324.056
324.15
324.15
324.056
323.878
323.634
323.345
323.031
322.711
322.4
322.117
321.902
317.872
318.045
318.276
318.53
318.791
319.048
319.284
319.484
319.629
319.705
319.705
319.629
319.484
319.284
319.048
318.791
318.53
318.276
318.045
317.872
313.872
314.005
314.184
314.382
314.585
314.784
314.968
315.123
315.235
315.295
315.295
315.235
315.123
314.968
314.784
314.585
314.382
314.184
314.005
313.872
309.897
309.991
310.118
310.259
310.404
310.547
310.678
310.788
310.869
310.911
310.911
310.869
310.788
310.678
310.547
310.404
310.259
310.118
309.991
309.897
305.938
305.994
306.07
306.155
306.242
306.328
306.406
306.473
306.521
306.546
306.546
306.521
306.473
306.406
306.328
306.242
306.155
306.07
305.994
305.938
301.989
302.008
302.034
302.062
302.091
302.12
302.146
302.168
302.185
302.193
302.193
302.185
302.168
302.146
302.12
302.091
302.062
302.034
302.008
301.989
330.193
330.496
330.883
331.304
331.737
332.162
332.554
332.885
333.125
333.253
333.253
333.125
332.885
332.554
332.162
331.737
331.304
330.883
330.496
330.193
326.066
326.322
326.656
327.02
327.395
327.763
328.102
328.387
328.595
328.705
328.705
328.595
328.387
328.102
327.763
327.395
327.02
326.656
326.322
326.066
321.983
322.196
322.477
322.785
323.101
323.412
323.698
323.939
324.115
324.207
324.207
324.115
323.939
323.698
323.412
323.101
322.785
322.477
322.196
321.983
317.938
318.109
318.338
318.59
318.849
319.102
319.336
319.533
319.676
319.752
319.752
319.676
319.533
319.336
319.102
318.849
318.59
318.338
318.109
317.938
313.923
314.055
314.233
314.428
314.629
314.827
315.008
315.161
315.272
315.331
315.331
315.272
315.161
315.008
314.827
314.629
314.428
314.233
314.055
313.923
309.933
310.026
310.153
310.292
310.436
310.577
310.706
310.816
310.895
310.937
310.937
310.895
310.816
310.706
310.577
310.436
310.292
310.153
310.026
309.933
305.96
306.015
306.091
306.175
306.261
306.346
306.424
306.489
306.537
306.562
306.562
306.537
306.489
306.424
306.346
306.261
306.175
306.091
306.015
305.96
301.997
302.015
302.041
302.069
302.098
302.126
302.152
302.174
302.19
302.198
302.198
302.19
302.174
302.152
302.126
302.098
302.069
302.041
302.015
301.997
330.417
330.715
331.095
331.508
331.933
332.348
332.731
333.054
333.288
333.412
333.412
333.288
333.054
332.731
332.348
331.933
331.508
331.095
330.715
330.417
326.258
326.511
326.838
327.196
327.563
327.923
328.254
328.533
328.735
328.842
328.842
328.735
328.533
328.254
327.923
327.563
327.196
326.838
326.511
326.258
322.145
322.354
322.63
322.932
323.243
323.547
323.826
324.062
324.233
324.323
324.323
324.233
324.062
323.826
323.547
323.243
322.932
322.63
322.354
322.145
318.07
318.238
318.463
318.71
318.964
319.212
319.441
319.633
319.772
319.846
319.846
319.772
319.633
319.441
319.212
318.964
318.71
318.463
318.238
318.07
314.025
314.155
314.33
314.521
314.719
314.912
315.089
315.238
315.347
315.404
315.404
315.347
315.238
315.089
314.912
314.719
314.521
314.33
314.155
314.025
310.006
310.097
310.222
310.359
310.5
310.638
310.764
310.871
310.948
310.989
310.989
310.948
310.871
310.764
310.638
310.5
310.359
310.222
310.097
310.006
306.003
306.058
306.133
306.215
306.299
306.382
306.458
306.522
306.569
306.593
306.593
306.569
306.522
306.458
306.382
306.299
306.215
306.133
306.058
306.003
302.011
302.029
302.054
302.082
302.11
302.138
302.164
302.185
302.201
302.209
302.209
302.201
302.185
302.164
302.138
302.11
302.082
302.054
302.029
302.011
330.752
331.044
331.414
331.816
332.228
332.631
333
333.311
333.537
333.656
333.656
333.537
333.311
333
332.631
332.228
331.816
331.414
331.044
330.752
326.547
326.794
327.113
327.461
327.818
328.166
328.486
328.754
328.949
329.052
329.052
328.949
328.754
328.486
328.166
327.818
327.461
327.113
326.794
326.547
322.388
322.592
322.862
323.156
323.457
323.751
324.021
324.248
324.413
324.5
324.5
324.413
324.248
324.021
323.751
323.457
323.156
322.862
322.592
322.388
318.268
318.432
318.652
318.892
319.138
319.379
319.599
319.785
319.919
319.99
319.99
319.919
319.785
319.599
319.379
319.138
318.892
318.652
318.432
318.268
314.179
314.305
314.476
314.662
314.854
315.041
315.212
315.356
315.46
315.515
315.515
315.46
315.356
315.212
315.041
314.854
314.662
314.476
314.305
314.179
310.115
310.204
310.326
310.459
310.596
310.729
310.852
310.955
311.029
311.068
311.068
311.029
310.955
310.852
310.729
310.596
310.459
310.326
310.204
310.115
306.069
306.122
306.195
306.275
306.357
306.437
306.511
306.572
306.617
306.641
306.641
306.617
306.572
306.511
306.437
306.357
306.275
306.195
306.122
306.069
302.033
302.051
302.075
302.102
302.13
302.157
302.181
302.202
302.217
302.225
302.225
302.217
302.202
302.181
302.157
302.13
302.102
302.075
302.051
302.033
331.202
331.484
331.842
332.23
332.626
333.011
333.365
333.661
333.876
333.989
333.989
333.876
333.661
333.365
333.011
332.626
332.23
331.842
331.484
331.202
326.934
327.173
327.482
327.817
328.16
328.494
328.8
329.056
329.241
329.339
329.339
329.241
329.056
328.8
328.494
328.16
327.817
327.482
327.173
326.934
322.713
322.911
323.172
323.455
323.745
324.027
324.285
324.502
324.658
324.741
324.741
324.658
324.502
324.285
324.027
323.745
323.455
323.172
322.911
322.713
318.532
318.692
318.904
319.136
319.373
319.603
319.814
319.991
320.119
320.186
320.186
320.119
319.991
319.814
319.603
319.373
319.136
318.904
318.692
318.532
314.384
314.507
314.671
314.851
315.036
315.215
315.379
315.516
315.615
315.668
315.668
315.615
315.516
315.379
315.215
315.036
314.851
314.671
314.507
314.384
310.261
310.348
310.465
310.594
310.726
310.853
310.971
311.069
311.14
311.177
311.177
311.14
311.069
310.971
310.853
310.726
310.594
310.465
310.348
310.261
306.156
306.208
306.279
306.356
306.435
306.512
306.582
306.641
306.683
306.706
306.706
306.683
306.641
306.582
306.512
306.435
306.356
306.279
306.208
306.156
302.063
302.08
302.103
302.129
302.156
302.181
302.205
302.225
302.239
302.247
302.247
302.239
302.225
302.205
302.181
302.156
302.129
302.103
302.08
302.063
331.765
332.037
332.381
332.751
333.129
333.495
333.829
334.109
334.311
334.417
334.417
334.311
334.109
333.829
333.495
333.129
332.751
332.381
332.037
331.765
327.419
327.649
327.946
328.266
328.593
328.91
329.199
329.441
329.616
329.708
329.708
329.616
329.441
329.199
328.91
328.593
328.266
327.946
327.649
327.419
323.121
323.312
323.562
323.833
324.109
324.377
324.622
324.826
324.974
325.051
325.051
324.974
324.826
324.622
324.377
324.109
323.833
323.562
323.312
323.121
318.865
319.018
319.222
319.444
319.67
319.889
320.088
320.255
320.376
320.439
320.439
320.376
320.255
320.088
319.889
319.67
319.444
319.222
319.018
318.865
314.642
314.76
314.918
315.09
315.266
315.436
315.591
315.721
315.814
315.864
315.864
315.814
315.721
315.591
315.436
315.266
315.09
314.918
314.76
314.642
310.445
310.528
310.641
310.764
310.889
311.011
311.122
311.214
311.281
311.316
311.316
311.281
311.214
311.122
311.011
310.889
310.764
310.641
310.528
310.445
306.267
306.316
306.384
306.458
306.533
306.606
306.673
306.728
306.768
306.789
306.789
306.768
306.728
306.673
306.606
306.533
306.458
306.384
306.316
306.267
302.099
302.116
302.139
302.163
302.189
302.213
302.235
302.254
302.267
302.275
302.275
302.267
302.254
302.235
302.213
302.189
302.163
302.139
302.116
302.099
332.444
332.704
333.032
333.384
333.74
334.085
334.398
334.66
334.848
334.947
334.947
334.848
334.66
334.398
334.085
333.74
333.384
333.032
332.704
332.444
328.004
328.224
328.506
328.811
329.12
329.418
329.689
329.915
330.078
330.164
330.164
330.078
329.915
329.689
329.418
329.12
328.811
328.506
328.224
328.004
323.613
323.796
324.034
324.291
324.552
324.805
325.034
325.225
325.363
325.435
325.435
325.363
325.225
325.034
324.805
324.552
324.291
324.034
323.796
323.613
319.266
319.412
319.606
319.817
320.03
320.237
320.424
320.58
320.693
320.752
320.752
320.693
320.58
320.424
320.237
320.03
319.817
319.606
319.412
319.266
314.952
315.065
315.216
315.379
315.545
315.706
315.851
315.973
316.06
316.106
316.106
316.06
315.973
315.851
315.706
315.545
315.379
315.216
315.065
314.952
310.666
310.746
310.853
310.97
311.089
311.203
311.307
311.394
311.456
311.489
311.489
311.456
311.394
311.307
311.203
311.089
310.97
310.853
310.746
310.666
306.399
306.447
306.511
306.581
306.653
306.721
306.784
306.836
306.873
306.893
306.893
306.873
306.836
306.784
306.721
306.653
306.581
306.511
306.447
306.399
302.144
302.16
302.181
302.205
302.229
302.252
302.273
302.29
302.303
302.309
302.309
302.303
302.29
302.273
302.252
302.229
302.205
302.181
302.16
302.144
333.241
333.488
333.798
334.129
334.464
334.786
335.077
335.319
335.493
335.584
335.584
335.493
335.319
335.077
334.786
334.464
334.129
333.798
333.488
333.241
328.689
328.898
329.166
329.453
329.743
330.021
330.274
330.483
330.634
330.712
330.712
330.634
330.483
330.274
330.021
329.743
329.453
329.166
328.898
328.689
324.19
324.364
324.589
324.832
325.077
325.312
325.526
325.703
325.83
325.896
325.896
325.83
325.703
325.526
325.312
325.077
324.832
324.589
324.364
324.19
319.735
319.875
320.059
320.257
320.457
320.65
320.825
320.969
321.073
321.128
321.128
321.073
320.969
320.825
320.65
320.457
320.257
320.059
319.875
319.735
315.317
315.424
315.566
315.72
315.876
316.026
316.162
316.274
316.355
316.397
316.397
316.355
316.274
316.162
316.026
315.876
315.72
315.566
315.424
315.317
310.926
311.001
311.103
311.213
311.325
311.432
311.528
311.609
311.666
311.696
311.696
311.666
311.609
311.528
311.432
311.325
311.213
311.103
311.001
310.926
306.555
306.6
306.661
306.727
306.794
306.858
306.916
306.965
306.999
307.017
307.017
306.999
306.965
306.916
306.858
306.794
306.727
306.661
306.6
306.555
302.196
302.211
302.231
302.254
302.276
302.298
302.317
302.333
302.345
302.351
302.351
302.345
302.333
302.317
302.298
302.276
302.254
302.231
302.211
302.196
334.156
334.389
334.681
334.991
335.303
335.601
335.87
336.093
336.252
336.336
336.336
336.252
336.093
335.87
335.601
335.303
334.991
334.681
334.389
334.156
329.477
329.675
329.926
330.195
330.465
330.724
330.957
331.149
331.287
331.359
331.359
331.287
331.149
330.957
330.724
330.465
330.195
329.926
329.675
329.477
324.853
325.017
325.229
325.456
325.685
325.903
326.1
326.263
326.38
326.441
326.441
326.38
326.263
326.1
325.903
325.685
325.456
325.229
325.017
324.853
320.275
320.407
320.58
320.766
320.953
321.131
321.292
321.426
321.521
321.571
321.571
321.521
321.426
321.292
321.131
320.953
320.766
320.58
320.407
320.275
315.735
315.836
315.97
316.115
316.26
316.399
316.524
316.628
316.702
316.741
316.741
316.702
316.628
316.524
316.399
316.26
316.115
315.97
315.836
315.735
311.224
311.295
311.391
311.494
311.598
311.697
311.787
311.861
311.914
311.941
311.941
311.914
311.861
311.787
311.697
311.598
311.494
311.391
311.295
311.224
306.734
306.776
306.834
306.896
306.958
307.018
307.071
307.116
307.147
307.164
307.164
307.147
307.116
307.071
307.018
306.958
306.896
306.834
306.776
306.734
302.256
302.27
302.289
302.31
302.331
302.351
302.369
302.384
302.394
302.4
302.4
302.394
302.384
302.369
302.351
302.331
302.31
302.289
302.27
302.256
335.191
335.41
335.683
335.972
336.26
336.535
336.782
336.985
337.131
337.206
337.206
337.131
336.985
336.782
336.535
336.26
335.972
335.683
335.41
335.191
330.369
330.554
330.789
331.04
331.29
331.528
331.742
331.918
332.043
332.109
332.109
332.043
331.918
331.742
331.528
331.29
331.04
330.789
330.554
330.369
325.603
325.757
325.956
326.167
326.379
326.58
326.761
326.91
327.016
327.071
327.071
327.016
326.91
326.761
326.58
326.379
326.167
325.956
325.757
325.603
320.886
321.01
321.172
321.345
321.518
321.683
321.83
321.952
322.039
322.084
322.084
322.039
321.952
321.83
321.683
321.518
321.345
321.172
321.01
320.886
316.208
316.303
316.429
316.563
316.698
316.826
316.941
317.036
317.103
317.139
317.139
317.103
317.036
316.941
316.826
316.698
316.563
316.429
316.303
316.208
311.561
311.628
311.718
311.814
311.91
312.002
312.084
312.151
312.2
312.225
312.225
312.2
312.151
312.084
312.002
311.91
311.814
311.718
311.628
311.561
306.936
306.976
307.03
307.087
307.145
307.2
307.249
307.29
307.319
307.334
307.334
307.319
307.29
307.249
307.2
307.145
307.087
307.03
306.976
306.936
302.324
302.337
302.355
302.374
302.394
302.412
302.429
302.442
302.452
302.457
302.457
302.452
302.442
302.429
302.412
302.394
302.374
302.355
302.337
302.324
336.347
336.552
336.806
337.074
337.34
337.592
337.817
338.001
338.133
338.201
338.201
338.133
338.001
337.817
337.592
337.34
337.074
336.806
336.552
336.347
331.364
331.538
331.757
331.989
332.219
332.438
332.632
332.792
332.906
332.965
332.965
332.906
332.792
332.632
332.438
332.219
331.989
331.757
331.538
331.364
326.441
326.585
326.77
326.966
327.161
327.346
327.51
327.646
327.742
327.792
327.792
327.742
327.646
327.51
327.346
327.161
326.966
326.77
326.585
326.441
321.569
321.684
321.835
321.995
322.155
322.306
322.441
322.552
322.63
322.671
322.671
322.63
322.552
322.441
322.306
322.155
321.995
321.835
321.684
321.569
316.737
316.826
316.943
317.068
317.192
317.309
317.414
317.5
317.562
317.593
317.593
317.562
317.5
317.414
317.309
317.192
317.068
316.943
316.826
316.737
311.938
312.001
312.084
312.173
312.262
312.346
312.421
312.482
312.526
312.549
312.549
312.526
312.482
312.421
312.346
312.262
312.173
312.084
312.001
311.938
307.162
307.199
307.249
307.303
307.356
307.407
307.452
307.488
307.515
307.528
307.528
307.515
307.488
307.452
307.407
307.356
307.303
307.249
307.199
307.162
302.399
302.412
302.428
302.446
302.464
302.481
302.496
302.509
302.517
302.522
302.522
302.517
302.509
302.496
302.481
302.464
302.446
302.428
302.412
302.399
337.626
337.817
338.052
338.299
338.543
338.773
338.977
339.144
339.262
339.324
339.324
339.262
339.144
338.977
338.773
338.543
338.299
338.052
337.817
337.626
332.466
332.627
332.83
333.044
333.255
333.455
333.632
333.776
333.879
333.932
333.932
333.879
333.776
333.632
333.455
333.255
333.044
332.83
332.627
332.466
327.368
327.502
327.673
327.854
328.033
328.202
328.351
328.473
328.56
328.605
328.605
328.56
328.473
328.351
328.202
328.033
327.854
327.673
327.502
327.368
322.324
322.431
322.571
322.719
322.865
323.003
323.126
323.226
323.297
323.334
323.334
323.297
323.226
323.126
323.003
322.865
322.719
322.571
322.431
322.324
317.323
317.405
317.514
317.629
317.743
317.85
317.945
318.023
318.078
318.107
318.107
318.078
318.023
317.945
317.85
317.743
317.629
317.514
317.405
317.323
312.355
312.414
312.491
312.573
312.655
312.731
312.799
312.855
312.894
312.915
312.915
312.894
312.855
312.799
312.731
312.655
312.573
312.491
312.414
312.355
307.412
307.447
307.493
307.542
307.591
307.637
307.678
307.712
307.735
307.748
307.748
307.735
307.712
307.678
307.637
307.591
307.542
307.493
307.447
307.412
302.483
302.495
302.51
302.527
302.543
302.558
302.572
302.583
302.591
302.595
302.595
302.591
302.583
302.572
302.558
302.543
302.527
302.51
302.495
302.483
339.028
339.205
339.422
339.649
339.872
340.081
340.266
340.416
340.522
340.577
340.577
340.522
340.416
340.266
340.081
339.872
339.649
339.422
339.205
339.028
333.673
333.823
334.011
334.207
334.4
334.581
334.741
334.871
334.963
335.011
335.011
334.963
334.871
334.741
334.581
334.4
334.207
334.011
333.823
333.673
328.384
328.509
328.667
328.833
328.996
329.149
329.285
329.395
329.473
329.513
329.513
329.473
329.395
329.285
329.149
328.996
328.833
328.667
328.509
328.384
323.151
323.251
323.38
323.516
323.65
323.775
323.886
323.976
324.04
324.073
324.073
324.04
323.976
323.886
323.775
323.65
323.516
323.38
323.251
323.151
317.964
318.041
318.141
318.247
318.351
318.448
318.535
318.605
318.654
318.68
318.68
318.654
318.605
318.535
318.448
318.351
318.247
318.141
318.041
317.964
312.812
312.867
312.938
313.014
313.088
313.158
313.219
313.269
313.305
313.323
313.323
313.305
313.269
313.219
313.158
313.088
313.014
312.938
312.867
312.812
307.686
307.718
307.761
307.807
307.851
307.893
307.93
307.96
307.981
307.992
307.992
307.981
307.96
307.93
307.893
307.851
307.807
307.761
307.718
307.686
302.575
302.586
302.6
302.615
302.63
302.644
302.657
302.667
302.674
302.677
302.677
302.674
302.667
302.657
302.644
302.63
302.615
302.6
302.586
302.575
340.553
340.717
340.917
341.125
341.328
341.517
341.683
341.818
341.913
341.963
341.963
341.913
341.818
341.683
341.517
341.328
341.125
340.917
340.717
340.553
334.987
335.125
335.298
335.478
335.654
335.818
335.962
336.079
336.161
336.204
336.204
336.161
336.079
335.962
335.818
335.654
335.478
335.298
335.125
334.987
329.49
329.605
329.75
329.902
330.051
330.19
330.312
330.411
330.481
330.517
330.517
330.481
330.411
330.312
330.19
330.051
329.902
329.75
329.605
329.49
324.052
324.144
324.263
324.387
324.509
324.623
324.723
324.804
324.861
324.891
324.891
324.861
324.804
324.723
324.623
324.509
324.387
324.263
324.144
324.052
318.662
318.733
318.825
318.922
319.017
319.105
319.183
319.246
319.29
319.313
319.313
319.29
319.246
319.183
319.105
319.017
318.922
318.825
318.733
318.662
313.31
313.36
313.426
313.495
313.563
313.626
313.681
313.726
313.758
313.775
313.775
313.758
313.726
313.681
313.626
313.563
313.495
313.426
313.36
313.31
307.984
308.014
308.054
308.095
308.136
308.174
308.207
308.234
308.253
308.263
308.263
308.253
308.234
308.207
308.174
308.136
308.095
308.054
308.014
307.984
302.675
302.685
302.698
302.712
302.725
302.738
302.749
302.758
302.765
302.768
302.768
302.765
302.758
302.749
302.738
302.725
302.712
302.698
302.685
302.675
342.2
342.351
342.535
342.725
342.909
343.08
343.23
343.351
343.436
343.479
343.479
343.436
343.351
343.23
343.08
342.909
342.725
342.535
342.351
342.2
336.405
336.532
336.691
336.855
337.015
337.163
337.293
337.398
337.472
337.51
337.51
337.472
337.398
337.293
337.163
337.015
336.855
336.691
336.532
336.405
330.683
330.789
330.922
331.061
331.197
331.322
331.432
331.521
331.583
331.615
331.615
331.583
331.521
331.432
331.322
331.197
331.061
330.922
330.789
330.683
325.023
325.109
325.218
325.331
325.442
325.545
325.635
325.707
325.758
325.785
325.785
325.758
325.707
325.635
325.545
325.442
325.331
325.218
325.109
325.023
319.415
319.48
319.565
319.653
319.739
319.819
319.889
319.946
319.986
320.006
320.006
319.986
319.946
319.889
319.819
319.739
319.653
319.565
319.48
319.415
313.846
313.892
313.953
314.016
314.078
314.135
314.185
314.225
314.253
314.268
314.268
314.253
314.225
314.185
314.135
314.078
314.016
313.953
313.892
313.846
308.306
308.333
308.37
308.407
308.444
308.479
308.509
308.533
308.55
308.559
308.559
308.55
308.533
308.509
308.479
308.444
308.407
308.37
308.333
308.306
302.782
302.792
302.804
302.816
302.829
302.84
302.85
302.858
302.864
302.867
302.867
302.864
302.858
302.85
302.84
302.829
302.816
302.804
302.792
302.782
343.962
344.101
344.27
344.443
344.61
344.764
344.899
345.007
345.083
345.122
345.122
345.083
345.007
344.899
344.764
344.61
344.443
344.27
344.101
343.962
337.921
338.038
338.183
338.333
338.478
338.612
338.729
338.822
338.888
338.922
338.922
338.888
338.822
338.729
338.612
338.478
338.333
338.183
338.038
337.921
331.957
332.055
332.177
332.304
332.427
332.54
332.639
332.718
332.774
332.803
332.803
332.774
332.718
332.639
332.54
332.427
332.304
332.177
332.055
331.957
326.061
326.139
326.239
326.343
326.443
326.536
326.617
326.682
326.728
326.751
326.751
326.728
326.682
326.617
326.536
326.443
326.343
326.239
326.139
326.061
320.219
320.279
320.356
320.437
320.515
320.587
320.65
320.701
320.736
320.755
320.755
320.736
320.701
320.65
320.587
320.515
320.437
320.356
320.279
320.219
314.419
314.461
314.516
314.574
314.63
314.682
314.727
314.763
314.788
314.801
314.801
314.788
314.763
314.727
314.682
314.63
314.574
314.516
314.461
314.419
308.649
308.674
308.707
308.742
308.776
308.807
308.834
308.855
308.871
308.878
308.878
308.871
308.855
308.834
308.807
308.776
308.742
308.707
308.674
308.649
302.897
302.906
302.917
302.928
302.94
302.95
302.959
302.966
302.971
302.974
302.974
302.971
302.966
302.959
302.95
302.94
302.928
302.917
302.906
302.897
345.822
345.95
346.104
346.262
346.413
346.553
346.673
346.77
346.838
346.873
346.873
346.838
346.77
346.673
346.553
346.413
346.262
346.104
345.95
345.822
339.518
339.626
339.759
339.896
340.027
340.148
340.253
340.337
340.395
340.426
340.426
340.395
340.337
340.253
340.148
340.027
339.896
339.759
339.626
339.518
333.299
333.388
333.5
333.616
333.727
333.829
333.918
333.989
334.039
334.065
334.065
334.039
333.989
333.918
333.829
333.727
333.616
333.5
333.388
333.299
327.151
327.223
327.315
327.409
327.5
327.584
327.657
327.715
327.756
327.777
327.777
327.756
327.715
327.657
327.584
327.5
327.409
327.315
327.223
327.151
321.062
321.117
321.188
321.262
321.333
321.398
321.455
321.5
321.532
321.548
321.548
321.532
321.5
321.455
321.398
321.333
321.262
321.188
321.117
321.062
315.019
315.058
315.109
315.161
315.212
315.258
315.299
315.331
315.354
315.366
315.366
315.354
315.331
315.299
315.258
315.212
315.161
315.109
315.058
315.019
309.008
309.032
309.062
309.094
309.124
309.152
309.176
309.196
309.209
309.216
309.216
309.209
309.196
309.176
309.152
309.124
309.094
309.062
309.032
309.008
303.017
303.025
303.035
303.046
303.056
303.066
303.074
303.08
303.085
303.087
303.087
303.085
303.08
303.074
303.066
303.056
303.046
303.035
303.025
303.017
347.735
347.852
347.994
348.137
348.275
348.401
348.51
348.596
348.657
348.688
348.688
348.657
348.596
348.51
348.401
348.275
348.137
347.994
347.852
347.735
341.153
341.253
341.375
341.499
341.619
341.728
341.823
341.898
341.951
341.978
341.978
341.951
341.898
341.823
341.728
341.619
341.499
341.375
341.253
341.153
334.666
334.748
334.851
334.957
335.058
335.15
335.231
335.294
335.339
335.362
335.362
335.339
335.294
335.231
335.15
335.058
334.957
334.851
334.748
334.666
328.258
328.325
328.409
328.495
328.578
328.654
328.719
328.772
328.808
328.827
328.827
328.808
328.772
328.719
328.654
328.578
328.495
328.409
328.325
328.258
321.916
321.967
322.032
322.1
322.164
322.223
322.274
322.315
322.343
322.358
322.358
322.343
322.315
322.274
322.223
322.164
322.1
322.032
321.967
321.916
315.625
315.661
315.708
315.756
315.802
315.844
315.881
315.91
315.93
315.941
315.941
315.93
315.91
315.881
315.844
315.802
315.756
315.708
315.661
315.625
309.371
309.393
309.42
309.449
309.477
309.502
309.524
309.542
309.554
309.56
309.56
309.554
309.542
309.524
309.502
309.477
309.449
309.42
309.393
309.371
303.139
303.146
303.155
303.165
303.174
303.183
303.19
303.196
303.2
303.202
303.202
303.2
303.196
303.19
303.183
303.174
303.165
303.155
303.146
303.139
349.581
349.689
349.82
349.952
350.077
350.192
350.291
350.37
350.424
350.452
350.452
350.424
350.37
350.291
350.192
350.077
349.952
349.82
349.689
349.581
342.713
342.805
342.917
343.032
343.141
343.241
343.327
343.395
343.443
343.467
343.467
343.443
343.395
343.327
343.241
343.141
343.032
342.917
342.805
342.713
335.956
336.032
336.127
336.224
336.317
336.402
336.475
336.533
336.573
336.594
336.594
336.573
336.533
336.475
336.402
336.317
336.224
336.127
336.032
335.956
329.293
329.355
329.432
329.512
329.588
329.657
329.717
329.765
329.798
329.815
329.815
329.798
329.765
329.717
329.657
329.588
329.512
329.432
329.355
329.293
322.709
322.756
322.816
322.878
322.937
322.992
323.038
323.075
323.101
323.114
323.114
323.101
323.075
323.038
322.992
322.937
322.878
322.816
322.756
322.709
316.185
316.218
316.261
316.306
316.348
316.387
316.42
316.447
316.465
316.475
316.475
316.465
316.447
316.42
316.387
316.348
316.306
316.261
316.218
316.185
309.704
309.724
309.75
309.777
309.802
309.826
309.846
309.862
309.873
309.878
309.878
309.873
309.862
309.846
309.826
309.802
309.777
309.75
309.724
309.704
303.25
303.257
303.265
303.274
303.283
303.291
303.297
303.303
303.307
303.308
303.308
303.307
303.303
303.297
303.291
303.283
303.274
303.265
303.257
303.25
351.038
351.14
351.263
351.386
351.504
351.611
351.703
351.776
351.827
351.853
351.853
351.827
351.776
351.703
351.611
351.504
351.386
351.263
351.14
351.038
343.897
343.983
344.09
344.197
344.3
344.393
344.474
344.537
344.582
344.604
344.604
344.582
344.537
344.474
344.393
344.3
344.197
344.09
343.983
343.897
336.904
336.977
337.067
337.158
337.246
337.325
337.393
337.447
337.485
337.504
337.504
337.485
337.447
337.393
337.325
337.246
337.158
337.067
336.977
336.904
330.036
330.094
330.168
330.243
330.314
330.38
330.436
330.48
330.511
330.527
330.527
330.511
330.48
330.436
330.38
330.314
330.243
330.168
330.094
330.036
323.266
323.311
323.368
323.427
323.483
323.534
323.578
323.612
323.637
323.649
323.649
323.637
323.612
323.578
323.534
323.483
323.427
323.368
323.311
323.266
316.573
316.605
316.646
316.688
316.728
316.764
316.796
316.82
316.838
316.847
316.847
316.838
316.82
316.796
316.764
316.728
316.688
316.646
316.605
316.573
309.933
309.952
309.977
310.002
310.026
310.048
310.067
310.082
310.093
310.098
310.098
310.093
310.082
310.067
310.048
310.026
310.002
309.977
309.952
309.933
303.326
303.333
303.341
303.349
303.357
303.365
303.371
303.376
303.38
303.381
303.381
303.38
303.376
303.371
303.365
303.357
303.349
303.341
303.333
303.326
)
;

boundaryField
{
    hotSide
    {
        type            fixedGradient;
        gradient        nonuniform List<scalar> 
400
(
333.05
334.318
336.858
340.675
345.779
352.18
359.893
368.931
379.309
391.042
404.143
418.627
434.504
451.788
470.486
490.607
512.159
535.147
559.574
585.446
337.069
338.306
340.783
344.509
349.496
355.759
363.316
372.185
382.384
393.933
406.848
421.148
436.845
453.954
472.485
492.448
513.851
536.7
560.998
586.75
341.419
342.617
345.02
348.638
353.487
359.588
366.962
375.634
385.627
396.965
409.67
423.762
439.258
456.174
474.523
494.314
515.557
538.256
562.417
588.043
346.027
347.181
349.497
352.989
357.68
363.594
370.76
379.209
388.971
400.075
412.547
426.411
441.689
458.398
476.552
496.161
517.235
539.78
563.799
589.296
350.764
351.868
354.087
357.44
361.953
367.66
374.598
382.803
392.314
403.165
415.389
429.014
444.064
460.557
478.51
497.934
518.838
541.227
565.106
590.475
355.434
356.485
358.6
361.803
366.129
371.618
378.315
386.267
395.519
406.112
418.084
431.467
446.289
462.569
480.325
499.568
520.308
542.549
566.293
591.541
359.768
360.766
362.777
365.832
369.972
375.246
381.709
389.414
398.416
408.762
420.495
433.651
448.259
464.341
481.916
500.995
521.585
543.691
567.315
592.455
363.446
364.396
366.315
369.236
373.21
378.293
384.547
392.036
400.819
410.951
422.477
435.438
449.864
465.779
483.201
502.142
522.608
544.603
568.128
593.181
366.138
367.052
368.898
371.718
375.565
380.503
386.601
393.927
402.546
412.518
423.891
436.708
451.001
466.795
484.106
502.947
523.324
545.24
568.694
593.685
367.565
368.458
370.266
373.031
376.809
381.668
387.681
394.919
403.451
413.337
424.629
437.369
451.592
467.321
484.574
503.363
523.693
545.568
568.985
593.943
367.565
368.458
370.266
373.031
376.809
381.668
387.681
394.919
403.451
413.337
424.629
437.369
451.592
467.321
484.574
503.363
523.693
545.568
568.985
593.943
366.138
367.052
368.898
371.718
375.565
380.503
386.601
393.927
402.546
412.518
423.891
436.708
451.001
466.795
484.106
502.947
523.324
545.24
568.694
593.685
363.446
364.396
366.315
369.236
373.21
378.293
384.547
392.036
400.819
410.951
422.477
435.438
449.864
465.779
483.201
502.142
522.608
544.603
568.128
593.181
359.768
360.766
362.777
365.832
369.972
375.246
381.709
389.414
398.416
408.762
420.495
433.651
448.259
464.341
481.916
500.995
521.585
543.691
567.315
592.455
355.434
356.485
358.6
361.803
366.129
371.618
378.315
386.267
395.519
406.112
418.084
431.467
446.289
462.569
480.325
499.568
520.308
542.549
566.293
591.541
350.764
351.868
354.087
357.44
361.953
367.66
374.598
382.803
392.314
403.165
415.389
429.014
444.064
460.557
478.51
497.934
518.838
541.227
565.106
590.475
346.027
347.181
349.497
352.989
357.68
363.594
370.76
379.209
388.971
400.075
412.547
426.411
441.689
458.398
476.552
496.161
517.235
539.78
563.799
589.296
341.419
342.617
345.02
348.638
353.487
359.588
366.962
375.634
385.627
396.965
409.67
423.762
439.258
456.174
474.523
494.314
515.557
538.256
562.417
588.043
337.069
338.306
340.783
344.509
349.496
355.759
363.316
372.185
382.384
393.933
406.848
421.148
436.845
453.954
472.485
492.448
513.851
536.7
560.998
586.75
333.05
334.318
336.858
340.675
345.779
352.18
359.893
368.931
379.309
391.042
404.143
418.627
434.504
451.788
470.486
490.607
512.159
535.147
559.574
585.446
)
;
    }
    coldSide
    {
        type            mixed;
        refValue        uniform 300;
        refGradient     uniform 0;
        valueFraction   uniform 0.991591;
        source          uniform 0;
        value           nonuniform List<scalar> 
400
(
300.017
300.017
300.017
300.017
300.017
300.018
300.018
300.018
300.019
300.02
300.02
300.021
300.022
300.022
300.023
300.024
300.025
300.026
300.027
300.028
300.017
300.017
300.017
300.017
300.017
300.018
300.018
300.019
300.019
300.02
300.02