/*--------------------------------*- C++ -*----------------------------------*\
| =========                 |                                                 |
| \\      /  F ield         | OpenFOAM: The Open Source CFD Toolbox           |
|  \\    /   O peration     | Version:  2212                                  |
|   \\  /    A nd           | Website:  www.openfoam.com                      |
|    \\/     M anipulation  |                                                 |
\*---------------------------------------------------------------------------*/
FoamFile
{
    version     2.0;
    format      ascii;
    arch        "LSB;label=32;scalar=64";
    class       volScalarField;
    location    "0";
    object      stateMean;
}
// * * * * * * * * * * * * * * * * * * * * * * * * * * * * * * * * * * * * * //

dimensions      [0 0 0 1 0 0 0];

internalField   nonuniform List<scalar> 
3200
(
323.439
322.833
322.534
322.508
322.76
323.166
323.555
324.085
324.545
324.812
324.711
324.65
324.483
324.039
323.546
323.143
322.817
322.701
322.86
323.382
320.381
320.032
319.62
319.635
319.894
320.131
320.545
320.92
321.23
321.501
321.608
321.564
321.262
320.91
320.457
320.051
319.839
319.725
319.889
320.386
317.283
316.923
316.73
316.711
316.84
317.144
317.526
317.811
318.134
318.193
318.215
318.165
318.158
317.769
317.381
317.065
316.734
316.734
316.855
317.218
314.171
313.863
313.655
313.669
313.799
314.088
314.372
314.6
314.834
314.994
314.968
314.998
314.786
314.542
314.325
313.892
313.82
313.773
313.887
314.114
311.075
310.866
310.678
310.685
310.81
310.968
311.158
311.438
311.598
311.657
311.787
311.723
311.567
311.308
311.112
310.932
310.734
310.782
310.825
311.029
307.895
307.761
307.731
307.683
307.699
307.862
308.035
308.11
308.256
308.279
308.344
308.361
308.289
308.145
307.987
307.727
307.709
307.644
307.784
307.925
304.829
304.648
304.556
304.581
304.689
304.735
304.837
304.881
304.91
305.032
305.106
305.059
304.952
304.865
304.806
304.73
304.63
304.576
304.635
304.799
301.571
301.566
301.559
301.499
301.472
301.598
301.573
301.641
301.609
301.712
301.62
301.671
301.706
301.652
301.579
301.575
301.556
301.653
301.504
301.622
323.514
322.946
322.637
322.635
322.938
323.303
323.81
324.329
324.76
325.027
325.105
325.079
324.676
324.262
323.797
323.297
322.902
322.777
322.996
323.443
320.427
319.954
319.724
319.803
319.93
320.286
320.756
321.125
321.524
321.736
321.933
321.763
321.583
321.145
320.637
320.245
319.993
319.864
320.048
320.435
317.395
316.979
316.801
316.756
316.992
317.238
317.615
318.082
318.271
318.487
318.548
318.389
318.264
317.959
317.613
317.184
317.008
316.83
316.98
317.287
314.287
313.979
313.734
313.714
313.832
314.182
314.486
314.74
314.974
315.138
315.22
315.17
314.978
314.725
314.472
314.12
313.928
313.787
313.949
314.191
311.046
310.91
310.72
310.816
310.845
311.054
311.245
311.451
311.655
311.78
311.858
311.816
311.615
311.4
311.213
311.009
310.842
310.768
310.858
311.002
307.891
307.756
307.782
307.723
307.747
307.962
308.087
308.256
308.348
308.523
308.424
308.48
308.431
308.18
307.999
307.875
307.753
307.715
307.81
307.899
304.754
304.658
304.58
304.63
304.635
304.756
304.856
304.884
305.064
305.069
305.089
305.111
305.044
304.89
304.889
304.772
304.658
304.681
304.695
304.717
301.606
301.528
301.548
301.602
301.55
301.571
301.65
301.637
301.686
301.716
301.714
301.655
301.63
301.72
301.629
301.56
301.567
301.566
301.518
301.63
323.692
323.196
322.825
322.885
323.199
323.66
324.194
324.71
325.157
325.462
325.544
325.487
325.19
324.732
324.169
323.612
323.266
323.103
323.21
323.631
320.618
320.22
319.958
319.922
320.16
320.559
321.009
321.482
321.937
322.171
322.245
322.166
321.833
321.482
320.896
320.51
320.188
320.08
320.283
320.565
317.511
317.154
316.917
316.934
317.151
317.471
317.839
318.263
318.593
318.758
318.854
318.84
318.547
318.213
317.794
317.445
317.135
317.056
317.155
317.445
314.377
314.097
313.927
313.886
314.085
314.336
314.642
315.022
315.184
315.413
315.516
315.459
315.192
314.991
314.583
314.328
314.068
314.014
314.102
314.353
311.215
311.058
310.853
310.869
311.062
311.204
311.395
311.675
311.833
311.999
312.072
312.004
311.898
311.636
311.358
311.199
311.014
310.917
310.985
311.202
308.062
307.887
307.788
307.82
307.908
308.03
308.248
308.36
308.494
308.577
308.6
308.584
308.455
308.374
308.138
307.978
307.856
307.8
307.858
307.879
304.8
304.806
304.655
304.682
304.663
304.861
304.944
305.015
305.205
305.222
305.143
305.145
305.051
305.031
304.916
304.783
304.735
304.702
304.728
304.754
301.686
301.522
301.514
301.604
301.609
301.578
301.62
301.669
301.738
301.726
301.755
301.75
301.661
301.677
301.625
301.514
301.605
301.667
301.578
301.57
323.978
323.5
323.196
323.301
323.69
324.103
324.587
325.237
325.719
326.033
326.202
326.075
325.682
325.163
324.645
324.122
323.651
323.421
323.647
323.924
320.945
320.499
320.35
320.236
320.682
320.969
321.435
321.994
322.351
322.655
322.803
322.765
322.352
321.906
321.369
320.926
320.628
320.459
320.486
320.886
317.697
317.514
317.196
317.167
317.418
317.817
318.257
318.571
319
319.298
319.297
319.258
318.934
318.611
318.16
317.7
317.397
317.297
317.42
317.668
314.621
314.313
314.199
314.203
314.351
314.614
314.928
315.262
315.534
315.799
315.842
315.747
315.473
315.267
314.96
314.583
314.355
314.193
314.282
314.521
311.339
311.141
311.111
310.98
311.099
311.46
311.659
311.894
312.097
312.292
312.261
312.342
312.138
311.85
311.596
311.389
311.162
311.088
311.102
311.378
308.099
308.008
307.966
307.982
308.015
308.189
308.279
308.546
308.68
308.725
308.819
308.759
308.548
308.498
308.305
308.106
307.996
307.936
307.942
308.098
304.89
304.861
304.707
304.715
304.789
304.907
305.021
305.173
305.208
305.308
305.294
305.297
305.236
305.117
304.982
304.917
304.771
304.824
304.817
304.822
301.761
301.575
301.583
301.557
301.527
301.664
301.665
301.676
301.707
301.754
301.75
301.778
301.799
301.666
301.593
301.552
301.536
301.544
301.603
301.617
324.419
323.98
323.701
323.773
324.084
324.542
325.223
325.766
326.307
326.681
326.851
326.743
326.294
325.899
325.236
324.544
324.096
323.935
324.03
324.405
321.355
320.882
320.659
320.769
321.025
321.405
321.953
322.432
322.953
323.185
323.383
323.195
322.871
322.395
321.899
321.371
320.993
320.763
320.927
321.236
318.137
317.785
317.577
317.626
317.841
318.241
318.641
319.08
319.402
319.638
319.805
319.785
319.417
319.074
318.553
318.136
317.841
317.693
317.714
317.982
314.841
314.617
314.405
314.499
314.633
314.945
315.262
315.562
315.97
316.183
316.173
316.108
315.859
315.642
315.262
314.892
314.709
314.48
314.493
314.752
311.584
311.334
311.35
311.32
311.347
311.596
312.016
312.19
312.44
312.535
312.682
312.66
312.427
312.242
311.859
311.612
311.41
311.304
311.361
311.532
308.348
308.178
308.09
308.151
308.171
308.355
308.611
308.706
308.896
308.934
309.12
309.047
308.822
308.717
308.467
308.322
308.14
308.161
308.129
308.245
304.96
304.84
304.866
304.938
304.963
305.013
305.136
305.277
305.339
305.447
305.422
305.409
305.331
305.268
305.114
304.993
304.918
304.866
304.882
304.975
301.78
301.658
301.606
301.67
301.71
301.64
301.772
301.849
301.856
301.794
301.853
301.781
301.856
301.745
301.7
301.702
301.631
301.598
301.622
301.655
324.987
324.547
324.3
324.32
324.663
325.11
325.795
326.469
327.027
327.368
327.506
327.43
327.013
326.512
325.822
325.248
324.761
324.515
324.651
324.895
321.714
321.391
321.132
321.271
321.514
321.979
322.446
323.01
323.471
323.79
323.97
323.827
323.531
323.076
322.463
321.942
321.526
321.383
321.366
321.56
318.506
318.216
317.996
318.06
318.24
318.612
319.038
319.447
319.885
320.163
320.281
320.207
319.981
319.48
319.108
318.576
318.319
318.171
318.18
318.462
315.178
314.919
314.788
314.82
314.952
315.33
315.608
315.946
316.353
316.55
316.706
316.545
316.28
316.056
315.695
315.223
315.043
314.861
314.981
315.071
311.822
311.609
311.521
311.659
311.723
311.843
312.155
312.445
312.765
312.85
312.962
312.91
312.67
312.488
312.123
311.888
311.668
311.643
311.598
311.774
308.572
308.288
308.304
308.248
308.396
308.559
308.754
308.93
309.125
309.219
309.31
309.26
309.012
308.914
308.701
308.511
308.406
308.293
308.251
308.364
305.057
305.121
304.992
304.97
305.02
305.107
305.306
305.364
305.516
305.614
305.571
305.584
305.542
305.33
305.297
305.016
305.07
304.862
305.01
305.025
301.731
301.674
301.668
301.589
301.714
301.737
301.769
301.793
301.896
301.912
301.895
301.909
301.867
301.758
301.723
301.751
301.662
301.64
301.731
301.686
325.613
325.209
324.945
325.019
325.402
325.851
326.508
327.141
327.714
328.078
328.299
328.147
327.707
327.187
326.519
325.914
325.365
325.135
325.206
325.527
322.311
321.928
321.795
321.833
322.092
322.536
322.938
323.558
324.062
324.409
324.563
324.452
324.109
323.583
323.07
322.585
322.048
321.893
321.954
322.205
318.972
318.677
318.487
318.521
318.727
319.052
319.468
320.044
320.324
320.701
320.866
320.787
320.502
320.053
319.563
319.091
318.755
318.5
318.645
318.781
315.64
315.336
315.161
315.216
315.447
315.624
315.96
316.418
316.739
316.951
317.109
317.019
316.79
316.369
315.973
315.575
315.431
315.257
315.236
315.392
312.102
311.985
311.82
311.925
311.994
312.221
312.521
312.877
313.146
313.22
313.292
313.323
313.14
312.843
312.544
312.264
311.968
311.951
311.801
311.958
308.67
308.573
308.515
308.506
308.672
308.787
309.026
309.152
309.363
309.43
309.544
309.466
309.326
309.221
308.952
308.791
308.576
308.456
308.483
308.614
305.237
305.184
305.143
305.14
305.225
305.161
305.478
305.505
305.594
305.618
305.707
305.709
305.653
305.526
305.441
305.263
305.172
305.105
305.117
305.189
301.757
301.744
301.673
301.74
301.792
301.766
301.743
301.821
301.94
301.905
301.913
301.977
301.877
301.817
301.754
301.699
301.83
301.696
301.734
301.713
326.321
325.93
325.74
325.769
326.095
326.565
327.07
327.769
328.359
328.78
328.97
328.931
328.462
327.915
327.131
326.538
326.065
325.871
325.958
326.145
322.945
322.682
322.372
322.432
322.753
323.128
323.691
324.228
324.698
325.042
325.203
325.171
324.726
324.277
323.665
323.106
322.713
322.568
322.537
322.733
319.404
319.206
319.024
318.98
319.271
319.629
320.115
320.501
320.923
321.294
321.417
321.321
320.977
320.553
320.141
319.635
319.325
319.118
319.197
319.277
316.031
315.71
315.593
315.684
315.863
316.158
316.43
316.911
317.199
317.41
317.603
317.511
317.235
316.837
316.512
316.085
315.826
315.694
315.759
315.914
312.492
312.338
312.151
312.288
312.295
312.592
312.741
313.091
313.358
313.557
313.629
313.544
313.418
313.119
312.913
312.533
312.343
312.232
312.256
312.304
308.924
308.894
308.745
308.762
308.903
308.915
309.21
309.408
309.569
309.794
309.818
309.66
309.653
309.4
309.18
309.003
308.771
308.732
308.806
308.846
305.351
305.355
305.27
305.322
305.346
305.376
305.414
305.643
305.706
305.827
305.917
305.931
305.805
305.667
305.512
305.452
305.308
305.19
305.232
305.307
301.81
301.699
301.716
301.727
301.828
301.848
301.933
301.909
301.938
301.921
301.944
302.002
301.917
301.91
301.869
301.807
301.802
301.775
301.758
301.791
327.069
326.658
326.561
326.546
326.8
327.172
327.876
328.452
329.045
329.498
329.718
329.63
329.203
328.581
327.909
327.281
326.837
326.647
326.649
326.877
323.601
323.248
323.139
323.065
323.311
323.698
324.195
324.764
325.234
325.654
325.833
325.729
325.369
324.854
324.255
323.748
323.367
323.193
323.207
323.401
320.029
319.764
319.591
319.602
319.781
320.142
320.555
321.018
321.513
321.732
321.853
321.826
321.544
321.1
320.471
320.123
319.809
319.665
319.641
319.82
316.412
316.289
316.122
316.119
316.333
316.642
316.915
317.205
317.578
317.837
317.916
317.907
317.67
317.323
316.812
316.488
316.261
316.027
316.127
316.241
312.789
312.665
312.582
312.543
312.721
312.876
313.156
313.506
313.711
313.886
313.968
313.96
313.782
313.441
313.185
312.82
312.645
312.588
312.529
312.674
309.171
309.041
308.941
309.021
309.075
309.242
309.542
309.571
309.871
309.906
310.088
309.953
309.78
309.646
309.331
309.221
309.051
308.98
309.002
309.04
305.491
305.492
305.419
305.379
305.49
305.601
305.766
305.772
305.86
306.114
306.12
305.932
305.906
305.799
305.627
305.587
305.494
305.386
305.401
305.488
301.806
301.832
301.785
301.84
301.771
301.891
301.922
301.905
302.078
302.007
301.916
301.983
301.992
301.949
301.889
301.848
301.855
301.757
301.891
301.839
327.834
327.493
327.224
327.234
327.495
328.027
328.513
329.103
329.718
330.139
330.35
330.242
329.883
329.293
328.62
328.067
327.603
327.311
327.304
327.531
324.233
323.96
323.764
323.817
324.028
324.372
324.823
325.357
325.895
326.251
326.407
326.352
325.929
325.352
324.848
324.311
323.929
323.736
323.762
323.97
320.603
320.299
320.262
320.229
320.392
320.662
321.122
321.52
321.997
322.227
322.383
322.329
322.019
321.583
321.096
320.645
320.456
320.15
320.167
320.281
316.862
316.671
316.581
316.502
316.735
316.987
317.328
317.641
317.991
318.175
318.437
318.299
318.061
317.642
317.343
316.937
316.739
316.606
316.607
316.679
313.283
313.012
312.883
312.932
313.094
313.317
313.52
313.737
314.06
314.282
314.248
314.239
314.021
313.769
313.408
313.117
312.976
312.913
312.952
312.945
309.443
309.299
309.245
309.206
309.308
309.539
309.639
309.807
310.016
310.134
310.222
310.201
310.087
309.835
309.624
309.508
309.276
309.314
309.268
309.304
305.685
305.623
305.543
305.602
305.631
305.656
305.831
306.012
306.069
306.123
306.165
306.118
306.105
305.946
305.879
305.654
305.67
305.613
305.644
305.568
301.922
301.965
301.894
301.913
301.829
301.872
301.942
301.996
302.047
302.058
302.027
302.016
302.006
301.953
301.853
301.906
301.925
301.807
301.95
301.864
328.631
328.215
328.088
328.146
328.319
328.648
329.261
329.728
330.33
330.756
330.984
330.773
330.515
329.937
329.235
328.66
328.247
328.023
328.142
328.323
324.94
324.66
324.42
324.514
324.631
325.022
325.45
325.995
326.421
326.723
326.839
326.837
326.505
325.941
325.406
324.946
324.651
324.419
324.483
324.678
321.256
320.931
320.789
320.778
321.007
321.276
321.649
322.023
322.394
322.698
322.877
322.747
322.479
322.029
321.585
321.231
320.903
320.707
320.725
320.85
317.453
317.207
317.06
317.146
317.162
317.394
317.691
318.053
318.428
318.569
318.692
318.636
318.352
318.086
317.777
317.438
317.06
316.984
317.063
317.162
313.55
313.483
313.33
313.385
313.446
313.574
313.848
314.111
314.314
314.481
314.593
314.506
314.375
314.14
313.833
313.532
313.317
313.252
313.231
313.218
309.712
309.607
309.546
309.534
309.626
309.701
309.921
310.071
310.289
310.374
310.406
310.313
310.304
310.123
309.865
309.666
309.642
309.455
309.428
309.571
305.857
305.759
305.752
305.806
305.746
305.826
305.889
305.997
306.107
306.236
306.349
306.319
306.177
306.004
305.994
305.902
305.721
305.661
305.722
305.741
301.915
301.941
301.961
301.915
301.989
302.016
301.967
302.016
302.09
302.115
302.131
302.084
302.109
301.986
301.999
301.947
301.954
301.92
301.841
301.91
329.412
329.086
328.888
328.979
329.052
329.449
329.928
330.391
330.949
331.313
331.442
331.358
331.062
330.491
329.927
329.36
328.929
328.787
328.764
329.019
325.636
325.362
325.278
325.172
325.307
325.647
326.046
326.387
326.962
327.271
327.331
327.238
326.942
326.538
325.996
325.608
325.235
325.042
324.993
325.215
321.767
321.603
321.353
321.382
321.541
321.776
322.105
322.446
322.845
323.055
323.263
323.195
322.926
322.532
322.066
321.695
321.449
321.21
321.252
321.394
317.833
317.656
317.527
317.513
317.696
317.847
318.131
318.474
318.722
318.931
319.015
318.964
318.812
318.481
318.172
317.732
317.567
317.492
317.436
317.63
313.931
313.813
313.708
313.709
313.802
313.841
314.209
314.368
314.609
314.758
314.86
314.736
314.601
314.43
314.118
313.855
313.698
313.641
313.585
313.638
309.948
309.954
309.853
309.836
309.9
309.966
310.176
310.239
310.381
310.583
310.548
310.558
310.433
310.28
310.109
309.973
309.718
309.753
309.789
309.803
306.018
305.925
305.936
305.958
305.925
305.987
306.169
306.204
306.305
306.416
306.323
306.338
306.248
306.163
306.096
305.98
305.932
305.848
305.886
305.882
301.99
301.98
301.953
301.971
301.997
302.037
302.045
302.076
302.104
302.067
302.217
302.225
302.094
302.048
302.023
302.011
301.957
301.969
301.964
301.929
330.157
329.873
329.712
329.725
329.817
330.159
330.606
331.141
331.455
331.757
331.987
331.86
331.565
331.078
330.534
330.038
329.613
329.494
329.536
329.716
326.328
326.068
325.905
325.799
325.965
326.294
326.533
327.04
327.337
327.611
327.844
327.652
327.364
326.981
326.612
326.08
325.787
325.686
325.783
325.84
322.409
322.161
322.077
321.989
322.127
322.345
322.562
322.889
323.287
323.494
323.615
323.478
323.306
322.935
322.539
322.216
321.928
321.797
321.774
321.979
318.395
318.201
317.993
318.065
318.181
318.37
318.55
318.832
319.068
319.3
319.383
319.289
319.127
318.782
318.505
318.256
317.943
317.862
317.878
318.067
314.302
314.137
314.143
314.101
314.154
314.307
314.498
314.567
314.92
315.103
315.033
315.058
314.879
314.634
314.378
314.162
313.955
313.919
313.973
314.128
310.281
310.111
310.1
310.094
310.121
310.24
310.376
310.526
310.68
310.812
310.822
310.754
310.666
310.514
310.264
310.105
310.028
309.997
309.88
310.007
306.198
306.056
306.077
306.138
306.147
306.182
306.211
306.3
306.391
306.5
306.429
306.488
306.422
306.236
306.163
306.089
306.034
306.007
305.961
306.065
302.099
302.062
302.054
301.999
302.097
302.117
302.076
302.098
302.169
302.115
302.148
302.17
302.12
302.078
302.068
302.033
302.091
302.039
302.02
302.055
331.027
330.687
330.532
330.352
330.635
330.867
331.237
331.657
332.052
332.292
332.527
332.344
332.084
331.588
331.146
330.754
330.382
330.248
330.311
330.496
327.053
326.746
326.554
326.543
326.528
326.895
327.196
327.515
327.837
328.125
328.22
328.122
327.878
327.53
327.103
326.649
326.417
326.241
326.29
326.586
322.999
322.755
322.599
322.495
322.594
322.889
323.077
323.376
323.69
323.89
323.922
323.838
323.635
323.364
322.987
322.658
322.356
322.243
322.257
322.532
318.85
318.683
318.48
318.479
318.667
318.726
318.983
319.175
319.469
319.64
319.607
319.616
319.452
319.151
318.786
318.561
318.363
318.308
318.333
318.393
314.728
314.643
314.467
314.409
314.489
314.632
314.863
315.085
315.124
315.264
315.307
315.333
315.143
314.919
314.749
314.408
314.326
314.212
314.305
314.387
310.528
310.482
310.373
310.373
310.39
310.476
310.581
310.815
310.848
310.858
310.96
310.885
310.764
310.665
310.541
310.254
310.204
310.218
310.167
310.331
306.281
306.306
306.266
306.246
306.246
306.26
306.312
306.464
306.491
306.533
306.616
306.534
306.556
306.443
306.334
306.281
306.133
306.149
306.192
306.165
302.177
302.125
302.104
302.024
302.123
302.103
302.16
302.228
302.246
302.174
302.225
302.185
302.14
302.139
302.104
302.032
302.002
302.064
302.108
302.084
331.843
331.631
331.218
331.19
331.398
331.537
331.891
332.229
332.593
332.789
332.833
332.783
332.562
332.243
331.769
331.344
330.918
330.851
331.025
331.143
327.731
327.55
327.26
327.205
327.335
327.41
327.734
328.103
328.387
328.533
328.642
328.557
328.324
328.004
327.55
327.218
326.988
326.939
326.981
327.123
323.59
323.363
323.225
323.134
323.25
323.337
323.596
323.887
324.166
324.249
324.313
324.255
324.087
323.753
323.354
323.186
322.907
322.85
322.855
323.019
319.384
319.189
318.996
318.967
319.032
319.22
319.38
319.621
319.756
319.859
319.961
319.927
319.665
319.498
319.203
318.991
318.86
318.747
318.725
318.869
315.138
315.026
314.901
314.866
314.904
314.972
315.024
315.212
315.388
315.568
315.535
315.588
315.331
315.198
315.025
314.763
314.725
314.6
314.566
314.74
310.869
310.78
310.651
310.567
310.628
310.687
310.824
310.945
311.033
311.065
311.129
311.087
310.98
310.843
310.761
310.593
310.481
310.466
310.507
310.457
306.516
306.465
306.363
306.362
306.375
306.5
306.491
306.485
306.696
306.717
306.684
306.602
306.644
306.515
306.46
306.339
306.232
306.32
306.27
306.401
302.305
302.154
302.187
302.157
302.145
302.167
302.191
302.201
302.217
302.271
302.138
302.213
302.161
302.242
302.19
302.132
302.068
302.178
302.064
302.125
332.677
332.408
332.063
331.921
332.062
332.258
332.512
332.789
333.182
333.269
333.348
333.253
333.029
332.71
332.294
331.898
331.779
331.664
331.713
331.935
328.478
328.236
327.995
327.933
327.917
328.064
328.297
328.524
328.776
328.998
329.052
328.913
328.662
328.449
328.062
327.871
327.672
327.519
327.577
327.713
324.164
324.041
323.767
323.777
323.721
323.949
324.16
324.265
324.512
324.657
324.646
324.526
324.438
324.102
323.874
323.629
323.428
323.374
323.352
323.545
319.796
319.647
319.552
319.561
319.552
319.602
319.699
319.994
320.061
320.219
320.287
320.173
320.032
319.755
319.526
319.358
319.232
319.131
319.247
319.306
315.496
315.383
315.169
315.121
315.265
315.31
315.473
315.51
315.686
315.717
315.811
315.673
315.626
315.505
315.218
315.095
314.986
314.894
314.968
315.113
310.993
311.087
310.941
310.96
310.923
310.951
311.062
311.12
311.289
311.301
311.256
311.285
311.193
311.015
310.928
310.837
310.721
310.68
310.651
310.727
306.697
306.708
306.477
306.495
306.529
306.609
306.663
306.71
306.694
306.748
306.792
306.704
306.7
306.617
306.579
306.504
306.398
306.489
306.425
306.512
302.276
302.199
302.271
302.21
302.18
302.248
302.218
302.289
302.285
302.269
302.302
302.246
302.282
302.212
302.214
302.194
302.246
302.091
302.162
302.135
333.366
333.195
332.832
332.731
332.824
332.869
333.11
333.43
333.616
333.815
333.802
333.71
333.514
333.196
332.837
332.568
332.277
332.366
332.449
332.65
329.213
328.976
328.625
328.602
328.621
328.736
328.885
329.047
329.288
329.424
329.433
329.313
329.158
328.864
328.642
328.331
328.178
328.166
328.138
328.358
324.817
324.532
324.38
324.336
324.268
324.389
324.5
324.786
324.894
325.011
325.01
324.886
324.739
324.502
324.297
324.071
323.937
323.801
323.918
324.029
320.415
320.239
319.995
320.009
319.933
320.033
320.18
320.267
320.435
320.482
320.506
320.492
320.321
320.157
319.899
319.785
319.58
319.581
319.672
319.751
315.899
315.76
315.639
315.561
315.517
315.571
315.749
315.786
315.949
315.969
315.995
315.988
315.854
315.722
315.555
315.372
315.299
315.17
315.247
315.369
311.426
311.309
311.153
311.128
311.167
311.189
311.205
311.346
311.366
311.36
311.419
311.411
311.305
311.244
311.158
311.019
311.016
310.949
311.005
310.926
306.845
306.764
306.724
306.795
306.699
306.804
306.744
306.854
306.875
306.952
306.869
306.803
306.896
306.77
306.701
306.631
306.527
306.608
306.615
306.653
302.329
302.213
302.267
302.267
302.204
302.188
302.286
302.277
302.352
302.281
302.321
302.358
302.23
302.236
302.239
302.24
302.205
302.158
302.222
302.202
334.186
333.96
333.667
333.541
333.522
333.75
333.76
333.905
334.181
334.306
334.317
334.169
334.036
333.765
333.467
333.24
333.026
332.98
333.073
333.386
329.888
329.559
329.419
329.212
329.264
329.269
329.435
329.59
329.737
329.86
329.92
329.759
329.486
329.398
329.052
328.905
328.645
328.642
328.804
329.012
325.415
325.214
324.928
324.806
324.881
324.935
325.004
325.134
325.23
325.357
325.338
325.299
325.193
324.944
324.69
324.509
324.431
324.393
324.435
324.64
320.787
320.696
320.533
320.439
320.391
320.504
320.564
320.688
320.718
320.825
320.788
320.755
320.609
320.451
320.31
320.054
319.95
319.983
320.008
320.216
316.283
316.107
315.898
315.982
315.899
315.97
315.97
316.103
316.18
316.134
316.239
316.163
316.015
315.827
315.789
315.701
315.604
315.596
315.672
315.731
311.707
311.508
311.491
311.399
311.39
311.367
311.477
311.549
311.519
311.609
311.567
311.625
311.498
311.459
311.293
311.249
311.159
311.15
311.249
311.29
306.961
306.934
306.809
306.791
306.746
306.798
306.878
307.002
306.949
307.061
307.018
306.921
306.841
306.857
306.783
306.787
306.748
306.776
306.739
306.769
302.382
302.392
302.328
302.337
302.274
302.262
302.231
302.361
302.453
302.339
302.341
302.309
302.336
302.329
302.24
302.234
302.249
302.274
302.347
302.384
334.975
334.693
334.381
334.218
334.198
334.255
334.359
334.5
334.642
334.806
334.789
334.711
334.513
334.222
333.911
333.698
333.583
333.619
333.874
334.052
330.446
330.227
329.954
329.773
329.739
329.705
329.94
329.986
330.158
330.204
330.213
330.112
330.009
329.782
329.581
329.388
329.244
329.309
329.45
329.584
325.962
325.729
325.438
325.377
325.28
325.41
325.378
325.559
325.628
325.759
325.625
325.681
325.425
325.304
325.131
324.855
324.76
324.815
324.911
325.084
321.198
321.011
320.911
320.782
320.759
320.796
320.813
320.873
321.054
321.047
321.029
320.97
320.932
320.703
320.549
320.468
320.316
320.367
320.496
320.615
316.616
316.483
316.364
316.249
316.171
316.238
316.24
316.33
316.421
316.43
316.424
316.384
316.358
316.178
316.076
315.998
315.858
315.834
316.023
315.997
311.932
311.745
311.68
311.605
311.65
311.6
311.58
311.659
311.758
311.694
311.716
311.714
311.669
311.647
311.537
311.405
311.338
311.363
311.413
311.455
307.084
307.133
306.941
307.052
307.001
306.952
307.006
306.997
307.044
307.085
306.968
307.114
306.976
306.933
306.905
306.827
306.824
306.852
306.894
306.901
302.404
302.358
302.356
302.334
302.345
302.396
302.432
302.295
302.392
302.366
302.308
302.282
302.414
302.305
302.236
302.227
302.283
302.246
302.315
302.346
335.5
335.206
334.853
334.756
334.629
334.718
334.791
334.919
334.981
335.15
335.106
334.918
334.833
334.646
334.414
334.215
334.006
334.126
334.289
334.527
331.03
330.617
330.305
330.274
330.265
330.138
330.299
330.444
330.436
330.449
330.531
330.452
330.267
330.118
329.9
329.671
329.54
329.614
329.778
330.013
326.283
326.055
325.824
325.644
325.579
325.74
325.703
325.753
325.862
325.907
325.89
325.772
325.711
325.581
325.386
325.193
325.102
325.185
325.272
325.385
321.542
321.355
321.213
321.023
320.988
321.023
321.045
321.211
321.308
321.228
321.233
321.156
321.136
321.008
320.784
320.734
320.625
320.594
320.717
320.812
316.857
316.678
316.52
316.414
316.386
316.362
316.449
316.475
316.561
316.511
316.529
316.51
316.423
316.339
316.214
316.084
316.087
316.015
316.116
316.281
312.066
311.913
311.819
311.723
311.787
311.809
311.772
311.815
311.853
311.839
311.891
311.744
311.747
311.681
311.517
311.506
311.439
311.566
311.575
311.705
307.193
307.144
307.12
307.05
307.087
307.002
307.105
307.077
307.142
307.072
307.095
307.124
307.059
306.964
306.971
306.975
306.874
306.903
306.933
306.959
302.467
302.352
302.366
302.394
302.396
302.425
302.399
302.378
302.367
302.389
302.416
302.332
302.346
302.345
302.39
302.351
302.311
302.208
302.386
302.26
)
;

boundaryField
{
    hotSide
    {
        type            fixedGradient;
        gradient        nonuniform List<scalar> 
400
(
321.511
322.87
325.591
329.677
335.133
341.965
350.181
359.788
370.794
383.208
397.037
412.289
428.971
447.088
466.647
487.651
510.105
534.011
559.372
586.191
323.738
325.08
327.767
331.802
337.194
343.949
352.078
361.591
372.498
384.81
398.537
413.687
430.268
448.289
467.755
488.672
511.043
534.872
560.161
586.913
326.149
327.47
330.116
334.091
339.406
346.071
354.099
363.503
374.296
386.491
400.101
415.136
431.606
449.52
468.885
489.706
511.988
535.735
560.948
587.63
328.704
330
332.597
336.503
341.73
348.292
356.205
365.485
376.15
388.215
401.695
416.604
432.954
450.753
470.009
490.73
512.919
536.579
561.714
588.325
331.33
332.599
335.142
338.97
344.099
350.546
358.332
367.477
378.003
389.928
403.271
418.047
434.27
451.949
471.095
491.712
513.807
537.382
562.439
588.978
333.918
335.158
337.643
341.389
346.414
352.74
360.392
369.397
379.779
391.562
404.765
419.407
435.503
453.065
472.101
492.618
514.622
538.114
563.096
589.569
336.321
337.531
339.959
343.622
348.544
354.751
362.274
371.142
381.385
393.031
406.101
420.618
436.595
454.047
472.983
493.409
515.33
538.747
563.663
590.076
338.36
339.543
341.92
345.509
350.339
356.44
363.847
372.595
382.718
394.244
407.2
421.608
437.485
454.844
473.695
494.045
515.897
539.253
564.114
590.478
339.852
341.015
343.352
346.885
351.645
357.665
364.985
373.643
383.675
395.113
407.984
422.312
438.116
455.407
474.197
494.491
516.294
539.606
564.428
590.758
340.643
341.795
344.11
347.613
352.334
358.311
365.584
374.193
384.176
395.567
408.393
422.679
438.443
455.699
474.456
494.722
516.498
539.788
564.589
590.901
340.643
341.795
344.11
347.613
352.334
358.311
365.584
374.193
384.176
395.567
408.393
422.679
438.443
455.699
474.456
494.722
516.498
539.788
564.589
590.901
339.852
341.015
343.352
346.885
351.645
357.665
364.985
373.643
383.675
395.113
407.984
422.312
438.116
455.407
474.197
494.491
516.294
539.606
564.428
590.758
338.36
339.543
341.92
345.509
350.339
356.44
363.847
372.595
382.718
394.244
407.2
421.608
437.485
454.844
473.695
494.045
515.897
539.253
564.114
590.478
336.321
337.531
339.959
343.622
348.544
354.751
362.274
371.142
381.385
393.031
406.101
420.618
436.595
454.047
472.983
493.409
515.33
538.747
563.663
590.076
333.918
335.158
337.643
341.389
346.414
352.74
360.392
369.397
379.779
391.562
404.765
419.407
435.503
453.065
472.101
492.618
514.622
538.114
563.096
589.569
331.33
332.599
335.142
338.97
344.099
350.546
358.332
367.477
378.003
389.928
403.271
418.047
434.27
451.949
471.095
491.712
513.807
537.382
562.439
588.978
328.704
330
332.597
336.503
341.73
348.292
356.205
365.485
376.15
388.215
401.695
416.604
432.954
450.753
470.009
490.73
512.919
536.579
561.714
588.325
326.149
327.47
330.116
334.091
339.406
346.071
354.099
363.503
374.296
386.491
400.101
415.136
431.606
449.52
468.885
489.706
511.988
535.735
560.948
587.63
323.738
325.08
327.767
331.802
337.194
343.949
352.078
361.591
372.498
384.81
398.537
413.687
430.268
448.289
467.755
488.672
511.043
534.872
560.161
586.913
321.511
322.87
325.591
329.677
335.133
341.965
350.181
359.788
370.794
383.208
397.037
412.289
428.971
447.088
466.647
487.651
510.105
534.011
559.372
586.191
)
;
    }
    coldSide
    {
        type            mixed;
        refValue        uniform 300;
        refGradient     uniform 0;
        valueFraction   uniform 0.991591;
        source          uniform 0;
        value           nonuniform List<scalar> 
400
(
300.013
300.014
300.014
300.015
300.015
300.015
300.015
300.015
300.015
300.016
300.016
300.017
300.018
300.018
300.019
300.019
300.02
300.02
300.02
300.021
300.013
300.013
300.013
300.013
300.014
300.014
300.015
300.014
300.015
300.017
300.016
300.017
300.017
300.018
300.018
300.018
300.019
300.02