/*--------------------------------*- C++ -*----------------------------------*\
| =========                 |                                                 |
| \\      /  F ield         | OpenFOAM: The Open Source CFD Toolbox           |
|  \\    /   O peration     | Version:  2212                                  |
|   \\  /    A nd           | Website:  www.openfoam.com                      |
|    \\/     M anipulation  |                                                 |
\*---------------------------------------------------------------------------*/
FoamFile
{
    version     2.0;
    format      ascii;
    arch        "LSB;label=32;scalar=64";
    class       volScalarField;
    location    "./ITHACAoutput/true/6.8";
    object      error;
}
// * * * * * * * * * * * * * * * * * * * * * * * * * * * * * * * * * * * * * //

dimensions      [0 0 0 1 0 0 0];

internalField   nonuniform List<scalar> 
3200
(
1.62202
3.53855
5.17901
6.40657
6.93799
7.14025
7.1587
7.08024
6.88856
6.72832
6.65612
6.77518
6.90631
7.10559
7.30961
7.32779
7.15515
6.26095
4.77475
3.07978
1.13871
2.78025
4.26201
5.26403
5.65799
5.92648
5.89906
5.84124
5.76434
5.54264
5.55518
5.52258
5.7022
5.89277
6.04335
6.04374
5.91841
5.23225
3.94591
2.44121
0.801488
2.18406
3.38806
4.22503
4.6592
4.83308
4.80832
4.83009
4.5859
4.46551
4.45516
4.53798
4.59221
4.72441
4.8658
4.94858
4.84669
4.11716
3.06019
1.78614
0.692157
1.5837
2.73161
3.36398
3.66196
3.85678
3.755
3.7524
3.65358
3.52738
3.47316
3.57285
3.58718
3.69165
3.80382
3.92059
3.82502
3.19743
2.42527
1.36115
0.371798
1.15097
1.9686
2.50786
2.75418
2.91006
2.90365
2.85849
2.74497
2.6652
2.66501
2.67258
2.75558
2.95133
2.93244
2.89098
2.76009
2.38092
1.7553
1.04334
0.356118
0.790474
1.40062
1.75644
1.94804
2.03686
2.01404
1.9549
1.96492
1.88932
1.8863
1.82208
1.85747
2.00696
2.04786
2.03561
1.97383
1.70178
1.15219
0.705458
0.112971
0.476811
0.740833
1.00326
1.10185
1.18193
1.1647
1.19034
1.2214
1.1568
1.06203
1.07583
1.21832
1.16037
1.13472
1.19853
1.21677
1.06458
0.729229
0.371757
0.0616218
0.132893
0.227519
0.328017
0.434736
0.394853
0.2863
0.368579
0.335711
0.421957
0.401552
0.318294
0.389753
0.342363
0.431587
0.43738
0.304234
0.276678
0.193059
0.120583
1.38649
3.26139
5.00638
6.14749
6.60926
6.82584
6.75619
6.4879
6.27209
6.13073
6.08811
6.12791
6.23358
6.52433
6.76569
7.03733
6.76257
6.06725
4.6411
2.91964
1.05783
2.6479
4.19822
5.08246
5.48429
5.67407
5.53011
5.44752
5.27651
5.10781
4.91673
5.0139
5.14785
5.40141
5.63651
5.7308
5.53657
4.91749
3.6944
2.2305
0.688293
2.05356
3.31603
4.06991
4.44849
4.59688
4.59261
4.43251
4.19115
4.07292
4.01707
3.97046
4.17279
4.41057
4.59217
4.72728
4.49436
3.92504
2.90585
1.74611
0.573242
1.55168
2.54991
3.2236
3.45549
3.60249
3.58709
3.51476
3.31403
3.25298
3.18408
3.15777
3.29425
3.44071
3.54964
3.62572
3.56639
3.13292
2.25373
1.27357
0.300252
1.20474
1.95184
2.41309
2.63013
2.74907
2.73377
2.6144
2.49607
2.43308
2.33741
2.4178
2.50996
2.63339
2.77322
2.70976
2.69156
2.30398
1.72618
0.861145
0.249346
0.743349
1.24938
1.63532
1.9256
1.93892
1.83405
1.8962
1.7603
1.67857
1.64129
1.65111
1.6347
1.89067
1.89316
1.92024
1.87838
1.67563
1.16576
0.66539
0.143032
0.424507
0.808514
1.00997
1.09166
1.10012
1.17528
1.053
0.994456
0.930132
0.987205
0.991329
0.998294
1.05125
1.12252
1.18109
1.15784
0.921056
0.630597
0.35762
0.0136253
0.163841
0.328993
0.268219
0.394763
0.434146
0.371686
0.359868
0.36424
0.332292
0.358019
0.324848
0.394438
0.389333
0.338071
0.360459
0.325731
0.373212
0.216815
0.147621
1.24367
3.08107
4.71812
5.72606
6.07816
6.17487
6.07285
5.75941
5.44571
5.22701
5.09011
5.1808
5.30912
5.68962
6.14283
6.39833
6.29761
5.67853
4.26402
2.5364
0.828014
2.4008
3.79535
4.65696
5.09237
5.1816
5.02504
4.7067
4.44176
4.21836
4.12851
4.12896
4.44292
4.62552
4.97796
5.14649
5.13039
4.62997
3.36152
1.97866
0.613359
1.81927
2.99768
3.80492
4.10271
4.17495
4.05502
3.89446
3.63
3.4793
3.29813
3.39035
3.52052
3.74629
4.08113
4.14197
4.1198
3.64503
2.62056
1.47608
0.422747
1.40915
2.31295
2.99611
3.21015
3.21587
3.21309
3.00665
2.90801
2.621
2.60041
2.64114
2.80321
2.9946
3.20642
3.32193
3.24763
2.83135
2.06304
1.10622
0.247659
1.03936
1.75083
2.25912
2.44951
2.52019
2.47879
2.32651
2.14067
1.9791
2.022
2.04063
2.06672
2.19785
2.36777
2.48921
2.44187
2.15735
1.51204
0.874943
0.168826
0.698485
1.19407
1.51709
1.70449
1.72633
1.69184
1.58937
1.49416
1.49215
1.35285
1.36132
1.47294
1.55546
1.75828
1.7121
1.73615
1.48796
0.984361
0.533829
0.0889661
0.357473
0.736055
0.884739
1.0715
1.01553
0.994079
0.934336
0.917106
0.83049
0.832722
0.790873
0.955793
0.905253
0.974305
1.04587
1.02023
0.8578
0.566394
0.317859
0.0169281
0.0736162
0.273941
0.213524
0.325575
0.325098
0.344899
0.254152
0.298096
0.335082
0.30543
0.229609
0.205848
0.305011
0.347148
0.359547
0.310831
0.318765
0.155455
0.0873922
0.853008
2.65347
4.2078
5.2254
5.52688
5.51495
5.28465
4.92197
4.46637
4.12929
3.90565
4.07308
4.34576
4.70648
5.26336
5.58878
5.60353
4.98705
3.76371
2.05185
0.545254
2.04725
3.38174
4.27403
4.60028
4.55498
4.33181
4.00151
3.62087
3.41968
3.22749
3.3136
3.51376
3.92457
4.29492
4.57342
4.49701
4.01244
2.90342
1.63459
0.371602
1.52076
2.74398
3.4566
3.76835
3.73072
3.49825
3.23771
2.9659
2.67718
2.5355
2.51901
2.79793
3.06866
3.42077
3.65529
3.61738
3.22871
2.31013
1.11491
0.125848
1.09968
2.07784
2.63708
2.89298
2.89532
2.81773
2.51256
2.30467
2.0399
2.01047
1.9705
2.15625
2.40687
2.71603
2.90853
2.8271
2.51419
1.68698
0.876157
0.0754289
0.822442
1.56612
1.9864
2.14901
2.22461
2.05861
1.89918
1.65266
1.52704
1.45968
1.43748
1.648
1.79033
1.99966
2.13644
2.09912
1.86891
1.33161
0.582149
0.0105214
0.49424
1.09499
1.35315
1.53998
1.49969
1.4539
1.32225
1.28776
1.01457
0.995413
1.0872
1.11402
1.23725
1.3129
1.51399
1.48793
1.21463
0.882771
0.326121
0.0330942
0.313048
0.57915
0.778064
0.87608
0.883957
0.850878
0.699937
0.789153
0.56758
0.600191
0.586675
0.694283
0.799312
0.809049
0.877813
0.868019
0.698358
0.544192
0.260449
-0.00829428
0.0494135
0.175189
0.35048
0.29721
0.319272
0.285811
0.297147
0.218841
0.272229
0.209355
0.22134
0.248166
0.272302
0.301245
0.332525
0.322445
0.24111
0.147279
0.0316841
0.425267
2.16858
3.6599
4.5671
4.82049
4.77659
4.477
4.02839
3.44471
3.03328
2.72697
2.85556
3.2111
3.79005
4.3301
4.76352
4.71702
4.29528
3.05217
1.62821
0.206236
1.63292
2.92776
3.68825
3.94946
3.90649
3.63591
3.246
2.76948
2.36519
2.27803
2.2852
2.59027
2.93934
3.47095
3.84542
3.82056
3.47013
2.358
1.13621
0.0663765
1.17734
2.26546
2.86867
3.15037
3.1439
2.88202
2.51536
2.11923
1.86871
1.79292
1.73505
2.00529
2.39811
2.72891
3.02185
3.01844
2.60052
1.79717
0.755162
-0.0536239
0.887745
1.70223
2.28605
2.50279
2.48253
2.25123
1.97179
1.63095
1.45773
1.25108
1.39649
1.53714
1.83767
2.18597
2.39173
2.34743
2.0843
1.38754
0.533112
-0.111034
0.599065
1.34903
1.70556
1.81678
1.80791
1.67029
1.43671
1.24452
1.05122
0.976101
0.99453
1.14967
1.33882
1.56924
1.78559
1.71083
1.46679
1.02861
0.38872
-0.0965525
0.414434
0.917803
1.11799
1.34763
1.24115
1.16002
0.96078
0.820876
0.779185
0.658277
0.69748
0.755527
0.915802
1.04649
1.1232
1.19462
1.03885
0.69174
0.202225
-0.0837505
0.211899
0.52164
0.706233
0.78958
0.719222
0.705659
0.633786
0.538209
0.440132
0.42408
0.366588
0.413516
0.494261
0.617947
0.724628
0.751942
0.574139
0.352608
0.0495459
-0.0293733
0.075738
0.178925
0.168584
0.279179
0.302141
0.235188
0.121762
0.263052
0.113086
0.191874
0.124665
0.138076
0.0800511
0.205811
0.180215
0.218332
0.226917
0.167917
0.0384242
0.0024465
1.56781
3.05178
3.80653
4.1539
3.99104
3.55492
3.01827
2.50867
2.00627
1.62848
1.83819
2.15401
2.77234
3.36835
3.72329
3.83135
3.37347
2.35179
0.909739
-0.227192
1.08718
2.39643
3.03377
3.27704
3.29679
2.88832
2.44831
1.90518
1.51053
1.17568
1.28534
1.61628
2.16838
2.65869
3.01749
3.0829
2.7442
1.71662
0.531574
-0.265476
0.767487
1.84437
2.39913
2.69403
2.60197
2.32094
1.88755
1.38291
1.09749
0.900553
0.964522
1.23399
1.67832
2.01551
2.32969
2.47801
2.03917
1.25948
0.280438
-0.307383
0.557829
1.39932
1.79526
2.02086
2.02727
1.76454
1.41458
1.09416
0.747401
0.595383
0.695624
0.895081
1.14787
1.54622
1.80418
1.79973
1.54129
0.835493
0.160404
-0.320765
0.260924
1.04822
1.34474
1.51415
1.51341
1.30255
1.05019
0.797519
0.587934
0.443264
0.422801
0.626713
0.8673
1.14177
1.38235
1.35346
1.14281
0.607235
0.0739561
-0.273782
0.248508
0.644734
1.0038
1.10885
1.00626
0.904306
0.724916
0.539569
0.36413
0.270244
0.316019
0.369643
0.605763
0.784297
0.90233
0.932357
0.695
0.405703
0.0324245
-0.149208
0.0878181
0.388811
0.572272
0.669604
0.655226
0.539182
0.468801
0.270677
0.278181
0.199485
0.114657
0.2471
0.330814
0.515345
0.474982
0.492274
0.466086
0.155076
0.0252836
-0.036549
0.00296309
0.106727
0.208538
0.234399
0.210197
0.273439
0.172141
0.123666
0.0273918
-0.0122008
0.0684536
0.0335965
0.0708487
0.184851
0.180057
0.236472
0.143403
0.0515355
0.063143
-0.603614
1.02158
2.37929
3.13881
3.4267
3.18927
2.8113
2.10977
1.5431
0.920302
0.52926
0.655989
1.04311
1.72925
2.38419
2.90287
3.03793
2.71318
1.6507
0.37557
-0.677496
0.634362
1.78041
2.52159
2.7667
2.66256
2.23534
1.71391
1.03931
0.558236
0.284554
0.42018
0.702791
1.25934
1.78491
2.21914
2.35787
1.96395
1.1423
0.0227188
-0.655026
0.434777
1.34724
1.98679
2.10146
2.05232
1.76397
1.24391
0.794942
0.37191
0.124715
0.177377
0.472132
0.889746
1.39391
1.74474
1.77856
1.46551
0.711417
-0.131373
-0.664755
0.202061
0.989155
1.51635
1.60577
1.56402
1.28442
0.914087
0.542494
0.233361
0.00724212
0.0271964
0.239797
0.650807
1.01238
1.29374
1.3305
1.16334
0.499973
-0.21505
-0.504824
0.10043
0.676851
1.15076
1.20213
1.2014
0.960629
0.749775
0.361977
0.147342
-0.0477667
-0.112681
0.145524
0.46341
0.726714
0.928843
0.891277
0.718954
0.282345
-0.197976
-0.462688
0.0590962
0.363021
0.748488
0.811148
0.841172
0.640208
0.457328
0.183401
0.0496737
0.00449822
-0.0893613
0.0792137
0.287284
0.446522
0.614796
0.578446
0.527314
0.200315
-0.237423
-0.363149
0.00804331
0.249662
0.461107
0.470583
0.490487
0.417072
0.184207
0.220042
-0.0171659
-0.0867384
-0.0410536
0.0499902
0.11473
0.26138
0.384347
0.354723
0.298381
0.0720886
-0.183529
-0.0726288
0.0410521
0.142077
0.113574
0.168552
0.0746643
0.0920996
0.148104
0.0593656
0.0584461
0.000427399
-0.0452698
0.0708607
0.00706075
0.0857515
0.137388
0.127546
0.0785712
0.0360147
-0.0749245
-0.973819
0.534717
1.73134
2.47237
2.77817
2.68203
2.10591
1.52325
0.673418
0.0252648
-0.223886
-0.249412
0.142666
0.826046
1.51569
2.04353
2.23444
1.86798
0.941717
-0.308859
-1.033
0.256462
1.36542
1.9508
2.19609
1.93854
1.55104
1.05754
0.382198
-0.212354
-0.375262
-0.383704
-0.1047
0.509467
1.17055
1.50226
1.65209
1.34456
0.451617
-0.486657
-1.01145
0.0481389
0.985652
1.53153
1.67022
1.66197
1.18955
0.67745
0.104433
-0.33959
-0.495883
-0.430625
-0.240636
0.298692
0.762834
1.18341
1.24203
0.977511
0.256576
-0.609352
-0.903673
-0.0697279
0.741739
1.11057
1.24129
1.19289
0.944323
0.451114
0.0281652
-0.333421
-0.61663
-0.506746
-0.283901
0.150787
0.48872
0.808854
0.936697
0.594873
0.125536
-0.527891
-0.819425
-0.060578
0.306582
0.785339
0.887041
0.789911
0.674358
0.358776
0.012737
-0.321866
-0.470483
-0.479365
-0.293793
0.0644416
0.404022
0.582595
0.63126
0.36101
0.0112608
-0.570728
-0.609578
-0.152693
0.348045
0.545085
0.562435
0.62072
0.354614
0.251732
-0.0836816
-0.251883
-0.431206
-0.338433
-0.250236
0.0148577
0.236546
0.30331
0.3512
0.26513
-0.0841412
-0.483459
-0.362409
-0.122623
0.17283
0.33334
0.418875
0.361504
0.223997
0.0965989
-0.037939
-0.180685
-0.277373
-0.190106
-0.128193
-0.0224677
0.0752648
0.21031
0.327229
0.2264
-0.0505348
-0.294759
-0.0591276
-0.0315133
0.0169254
0.0836858
0.122169
0.136372
0.0737521
0.00690755
0.00605607
-0.0224585
-0.0513358
-0.078611
-0.0905798
-0.0463233
0.0456057
0.0757352
0.0533601
0.0209737
-0.0291051
-0.0386388
-1.34288
-0.00915219
1.27026
1.989
2.24009
2.00677
1.46535
0.82433
0.0220324
-0.647344
-0.984885
-1.04664
-0.466859
0.186151
0.87738
1.4497
1.51584
1.22652
0.415342
-0.75596
-1.39363
-0.142877
0.831799
1.47041
1.68708
1.43767
1.19065
0.518861
-0.230897
-0.793155
-1.09649
-1.01787
-0.645244
-0.0677023
0.535374
0.965081
1.04446
0.805897
0.0447149
-0.956
-1.1925
-0.349899
0.610432
1.16963
1.26958
1.12616
0.814339
0.265218
-0.265106
-0.763878
-1.08107
-1.06759
-0.727085
-0.179566
0.29625
0.67308
0.740181
0.440904
-0.120457
-0.819097
-1.04004
-0.405931
0.364602
0.775276
0.935258
0.850852
0.52833
0.17259
-0.337365
-0.684907
-0.92032
-0.934325
-0.57116
-0.245967
0.102979
0.367049
0.451357
0.234189
-0.253521
-0.901996
-0.955245
-0.338589
0.279587
0.582759
0.695554
0.629215
0.41524
0.0207667
-0.307681
-0.662214
-0.794254
-0.753066
-0.56065
-0.276177
0.0281196
0.272096
0.28961
0.202302
-0.204287
-0.773237
-0.772468
-0.251956
0.18214
0.368933
0.468506
0.370008
0.285283
0.0253824
-0.259916
-0.444342
-0.547441
-0.55077
-0.480487
-0.277152
-0.0564867
0.181023
0.182924
0.0899016
-0.273741
-0.593944
-0.427293
-0.211206
0.0934603
0.182469
0.21087
0.231452
0.10085
0.0646249
-0.160502
-0.232546
-0.334723
-0.327098
-0.352626
-0.170253
-0.0748552
0.0977569
0.0625247
-0.053004
-0.11565
-0.407593
-0.13314
-0.0959727
-0.00791525
0.0476646
0.106169
0.0288485
0.0414599
-0.00897637
-0.0297297
-0.0814739
-0.0714557
-0.155865
-0.120287
-0.0750591
0.00962892
0.0548297
0.0247596
-0.0345705
-0.0786605
-0.148334
-1.61035
-0.280447
0.856861
1.58899
1.82928
1.62771
1.11621
0.408145
-0.417735
-1.12017
-1.53068
-1.38662
-0.962734
-0.252391
0.398109
0.911249
1.09178
0.782774
-0.0686543
-1.10371
-1.58904
-0.415957
0.572415
1.13707
1.35892
1.21351
0.766792
0.061709
-0.52076
-1.17234
-1.4332
-1.37052
-1.06007
-0.402722
0.0701858
0.552189
0.684677
0.401596
-0.244414
-1.24937
-1.44778
-0.491636
0.319971
0.840373
1.11227
0.805242
0.4714
-0.0262627
-0.541039
-1.0833
-1.31717
-1.31327
-1.02146
-0.569058
-0.0508217
0.319079
0.382891
0.0741049
-0.507653
-1.24219
-1.27222
-0.555656
0.131179
0.543957
0.73677
0.622706
0.286446
-0.135665
-0.53308
-0.972747
-1.23055
-1.22603
-0.921266
-0.556112
-0.122897
0.105971
0.162187
0.0267942
-0.530676
-1.05538
-1.01248
-0.500127
-0.00349399
0.410261
0.461306
0.418425
0.163488
-0.106563
-0.435616
-0.769465
-0.966939
-0.993734
-0.782224
-0.503876
-0.217298
0.0484791
0.0809085
-0.0823792
-0.435468
-0.93625
-0.790129
-0.371327
-0.0552507
0.254214
0.249868
0.240805
0.107031
-0.147804
-0.383413
-0.63966
-0.737192
-0.734219
-0.654864
-0.391521
-0.140502
0.042772
0.0114694
-0.0606043
-0.450045
-0.684713
-0.456828
-0.237968
0.0093131
0.171295
0.193885
0.247167
0.0233835
-0.122106
-0.220726
-0.394287
-0.480489
-0.494506
-0.407196
-0.22107
-0.0528033
-0.0641676
0.0229484
-0.119018
-0.220675
-0.420003
-0.112504
-0.0835222
-0.0235938
0.0507534
0.126857
0.0387924
-0.0293786
-0.0575589
-0.15759
-0.126503
-0.131964
-0.196218
-0.113348
-0.113639
-0.0685395
-0.0161113
0.00732315
-0.107758
-0.101959
-0.148813
-1.71156
-0.382255
0.616204
1.3915
1.54177
1.31804
0.873857
0.198258
-0.468388
-1.25092
-1.6079
-1.5254
-1.18806
-0.57015
0.177161
0.649724
0.705788
0.455419
-0.331876
-1.29683
-1.65516
-0.615209
0.308497
1.06275
1.21908
0.960575
0.6612
-0.0317898
-0.625042
-1.19078
-1.58133
-1.55428
-1.16162
-0.642834
-0.0581344
0.339991
0.378607
0.153574
-0.566334
-1.43666
-1.50945
-0.629977
0.175978
0.637966
0.837614
0.707421
0.307601
-0.151175
-0.66203
-1.17257
-1.46968
-1.49075
-1.19186
-0.796159
-0.267374
0.0584942
0.146101
-0.126349
-0.684575
-1.36741
-1.38445
-0.632129
-0.0044091
0.386313
0.583827
0.504604
0.204353
-0.282686
-0.686369
-1.13377
-1.29542
-1.25011
-1.10518
-0.667395
-0.225353
-0.132907
-0.0384733
-0.12953
-0.639988
-1.15616
-1.11496
-0.661498
-0.0499982
0.341998
0.314628
0.286089
0.102635
-0.20593
-0.61576
-0.870422
-1.0725
-1.05278
-0.951499
-0.616671
-0.369067
-0.167671
-0.06499
-0.300506
-0.612422
-1.04018
-0.812845
-0.413003
0.00847859
0.167199
0.194912
0.231081
0.0916015
-0.253225
-0.417079
-0.689213
-0.786647
-0.853006
-0.62775
-0.391724
-0.268183
-0.082254
-0.0432624
-0.157962
-0.521072
-0.872512
-0.547606
-0.294421
0.0184039
0.125556
0.101932
0.0902928
0.0457367
-0.108672
-0.224464
-0.4323
-0.431702
-0.329834
-0.467067
-0.336976
-0.175624
-0.0910156
-0.0613595
-0.108045
-0.360676
-0.460659
-0.21483
-0.149027
-0.052094
-0.00646912
0.0410448
0.028404
0.0420255
-0.0573147
-0.0753339
-0.183057
-0.0853906
-0.111123
-0.0871991
-0.0747276
-0.113386
-0.0436469
-0.0143765
-0.0952309
-0.10602
-0.192109
-1.7124
-0.503382
0.618485
1.27825
1.50281
1.31687
0.976294
0.224663
-0.498455
-1.14163
-1.40748
-1.38399
-1.04876
-0.454326
0.0935569
0.563309
0.704438
0.328295
-0.461026
-1.38465
-1.59386
-0.559468
0.37794
0.903168
1.10205
0.970664
0.642793
0.0373408
-0.608051
-1.10863
-1.39145
-1.42367
-1.18053
-0.624429
-0.155373
0.163741
0.30788
0.0107518
-0.640141
-1.47488
-1.48077
-0.686298
0.0725363
0.619897
0.742871
0.697338
0.336875
-0.161894
-0.627868
-1.07397
-1.41775
-1.37264
-1.11288
-0.634291
-0.298727
-0.0531837
-0.0908528
-0.224812
-0.716216
-1.43273
-1.35121
-0.680223
-0.0439584
0.392447
0.523252
0.488514
0.149294
-0.199246
-0.556857
-0.940769
-1.1994
-1.19377
-1.1005
-0.638071
-0.282651
-0.154868
-0.116174
-0.283304
-0.74589
-1.25493
-1.07298
-0.559552
-0.115929
0.367121
0.312876
0.317323
0.100071
-0.23769
-0.561615
-0.923148
-0.975307
-0.989207
-0.861618
-0.487607
-0.350025
-0.135591
-0.125989
-0.361935
-0.664026
-1.04636
-0.704878
-0.402891
-0.0618407
0.119833
0.279119
0.167076
-0.0280079
-0.165001
-0.40816
-0.621422
-0.725071
-0.715332
-0.589573
-0.44984
-0.272818
-0.140086
-0.159867
-0.323373
-0.580891
-0.75311
-0.53416
-0.326728
-0.107173
0.108379
0.152247
0.106513
-0.0427466
-0.0953867
-0.243726
-0.356458
-0.39942
-0.404259
-0.353197
-0.319545
-0.27668
-0.129336
-0.00220757
-0.161015
-0.344961
-0.488415
-0.160538
-0.0985505
0.00284328
-0.0271735
0.0691562
0.0113139
0.00631678
-0.00691784
-0.115053
-0.168612
-0.134728
-0.100174
-0.198101
-0.0845548
-0.0574321
-0.122326
-0.0653862
-0.0129561
-0.125796
-0.194962
-1.45426
-0.228812
0.763279
1.38842
1.58403
1.59419
1.10298
0.547663
-0.0911166
-0.590511
-0.967553
-1.06094
-0.69819
-0.109973
0.336301
0.683553
0.782124
0.419011
-0.273334
-1.16682
-1.43544
-0.470172
0.381814
1.03149
1.23054
1.15174
0.759958
0.271281
-0.298437
-0.770467
-1.02142
-1.01148
-0.838524
-0.430669
0.0871336
0.299182
0.353108
0.135
-0.523631
-1.2824
-1.34195
-0.521309
0.257901
0.740894
0.912437
0.854219
0.516163
0.0393284
-0.387517
-0.8199
-0.981289
-0.998155
-0.79947
-0.547399
-0.0751335
0.111252
0.23646
-0.122847
-0.640222
-1.32005
-1.16857
-0.474513
0.0505195
0.471912
0.621955
0.569389
0.3041
-0.0610508
-0.43732
-0.759114
-0.983577
-0.886959
-0.781701
-0.469759
-0.238265
-0.0518465
0.0160933
-0.250126
-0.689469
-1.17927
-0.962202
-0.475316
0.0313954
0.340058
0.417485
0.392659
0.192877
-0.0378134
-0.376774
-0.532251
-0.866702
-0.756657
-0.619731
-0.441762
-0.248335
-0.123259
0.00406203
-0.259734
-0.634988
-1.00234
-0.596988
-0.389064
0.00354455
0.158641
0.23523
0.300663
0.0906629
-0.0477952
-0.313363
-0.454284
-0.556316
-0.614578
-0.471235
-0.397035
-0.216649
-0.171402
-0.14312
-0.245596
-0.534657
-0.8217
-0.45313
-0.214227
0.00939966
0.091038
0.114835
0.0576862
0.0697657
-0.0500643
-0.19809
-0.361325
-0.483856
-0.379306
-0.241274
-0.204384
-0.141994
-0.0662481
-0.0460119
-0.211584
-0.300524
-0.485454
-0.0889591
-0.0907649
-0.0127741
0.0279055
0.0138314
0.0664617
0.0298751
-0.0556251
-0.0347867
-0.130126
-0.134404
-0.0304911
-0.0526342
-0.0483564
-0.0689806
-0.067044
0.0932047
-0.130597
-0.0979202
-0.188301
-1.02527
0.103634
1.15246
1.72809
1.97191
1.93194
1.54956
1.12011
0.505631
-0.0593451
-0.252481
-0.319248
-0.0540138
0.334933
0.810044
1.11363
1.10087
0.748294
0.0260113
-0.859627
-1.03686
-0.0793582
0.732173
1.38832
1.48625
1.45416
1.22601
0.699707
0.211013
-0.245865
-0.546129
-0.441048
-0.246008
0.134533
0.45468
0.691418
0.72987
0.40176
-0.220888
-1.1117
-0.964762
-0.215118
0.516865
0.954869
1.09699
1.06206
0.866183
0.471541
0.0336716
-0.350579
-0.579691
-0.53451
-0.378368
-0.0924343
0.221185
0.358238
0.442327
0.10113
-0.423059
-1.08142
-0.915434
-0.310298
0.259851
0.619436
0.740486
0.762528
0.591831
0.221693
-0.0647958
-0.326999
-0.535504
-0.535313
-0.414925
-0.173443
0.105288
0.176083
0.191223
-0.010895
-0.409375
-1.009
-0.76676
-0.279159
0.144494
0.491124
0.600125
0.567446
0.383345
0.142483
-0.0827832
-0.331771
-0.463677
-0.514831
-0.392764
-0.184738
-0.067992
0.0239058
0.0980687
-0.0641974
-0.448072
-0.875218
-0.631077
-0.226648
0.12216
0.327719
0.361141
0.420754
0.245895
0.112562
-0.109583
-0.229944
-0.350405
-0.337303
-0.306755
-0.155254
-0.0897662
0.0341905
0.0485539
-0.177665
-0.421985
-0.687344
-0.263535
-0.169949
0.105247
0.147216
0.212443
0.188514
0.168463
0.0664795
-0.0517072
-0.104207
-0.247668
-0.263242
-0.201105
-0.137004
0.0085536
-0.00608409
0.028552
-0.0641171
-0.262391
-0.435831
-0.107235
-0.0653108
-0.0227313
0.0491333
0.039602
0.0866062
0.0970213
0.0434163
0.0261444
-0.0761053
-0.0616496
-0.0694729
-0.0759458
-0.0370007
0.0145431
-0.0427992
0.0393739
-0.0265274
-0.0894521
-0.101981
-0.436149
0.622737
1.56945
2.3273
2.5936
2.57539
2.27252
1.89184
1.42838
0.927699
0.566024
0.658352
0.84116
1.21597
1.51924
1.69082
1.65827
1.2592
0.559562
-0.229577
-0.548586
0.341972
1.17543
1.77374
1.99503
1.95735
1.73961
1.36563
1.01235
0.581119
0.303543
0.340515
0.516315
0.787589
1.0699
1.2489
1.12609
0.813997
0.166518
-0.591361
-0.553394
0.203546
0.90228
1.35321
1.56947
1.52201
1.31592
1.06902
0.603269
0.286225
0.106803
0.172852
0.232348
0.526306
0.715711
0.777887
0.737603
0.499876
0.0425863
-0.649025
-0.570591
-0.0174668
0.544945
1.02695
1.11215
1.15501
0.983425
0.728536
0.421198
0.252274
-0.0105314
0.0470907
0.129446
0.317236
0.490311
0.57003
0.540245
0.228381
-0.139684
-0.609165
-0.472755
-0.00945482
0.340417
0.764024
0.884003
0.772713
0.701358
0.524928
0.312457
0.120502
0.0404491
-0.052877
0.0151008
0.186098
0.301891
0.328721
0.392545
0.191861
-0.239192
-0.614739
-0.373784
-0.0336364
0.274965
0.557844
0.619528
0.612738
0.530776
0.353538
0.189315
0.0217396
-0.0285254
-0.0150193
-0.120758
0.117825
0.191493
0.252764
0.210564
0.00529545
-0.117902
-0.423314
-0.169448
-0.0393436
0.203177
0.235595
0.318758
0.297474
0.283806
0.111999
0.101788
-0.0259636
-0.0742188
-0.119646
-0.0681519
0.00436511
0.125556
0.144832
0.15794
0.0637152
-0.0739219
-0.282974
-0.0938984
-0.0174976
-0.00553153
0.0398857
0.11633
0.169053
0.109591
0.0946843
0.0869594
0.0691866
0.0156066
-0.014036
-0.0440133
0.0552374
0.00846541
0.0638085
0.0119961
0.0261412
-0.00851637
-0.0856288
0.345495
1.36382
2.42093
2.95501
3.32718
3.33873
3.16936
2.7753
2.35136
2.05149
1.76399
1.73302
1.98159
2.17277
2.46421
2.54993
2.46129
1.99089
1.36291
0.425296
0.16504
1.01476
1.86143
2.38975
2.7427
2.71984
2.43842
2.26066
1.77206
1.50936
1.37046
1.33529
1.39835
1.68548
1.94178
1.92219
1.79527
1.49525
0.843451
0.148096
0.0282464
0.632613
1.37748
1.83098
2.18053
2.1137
1.95943
1.70019
1.42638
1.155
0.967843
0.880509
1.0632
1.2826
1.44953
1.3889
1.31168
1.06914
0.553989
-0.0189062
-0.023657
0.431856
1.02878
1.50197
1.59275
1.68457
1.56119
1.23928
1.07975
0.803419
0.640021
0.722859
0.789603
0.811207
1.0998
1.07095
0.957828
0.69992
0.29922
-0.137418
-0.139498
0.281209
0.772182
1.07265
1.19252
1.25724
1.14701
0.914754
0.802983
0.552614
0.463423
0.405031
0.583537
0.624385
0.705012
0.73456
0.639313
0.475405
0.119507
-0.237609
-0.137827
0.236605
0.513397
0.715736
0.814881
0.811939
0.768529
0.632385
0.525717
0.380431
0.298112
0.279126
0.319758
0.383696
0.490658
0.506037
0.480791
0.318026
0.0506279
-0.22058
-0.018175
0.152137
0.308325
0.400136
0.454693
0.459047
0.455735
0.407238
0.340056
0.16212
0.250066
0.168434
0.214983
0.23543
0.20766
0.311112
0.222849
0.160533
0.0421791
-0.100784
-0.079786
0.0197139
0.0960686
0.150253
0.148417
0.240352
0.141455
0.211325
0.0783508
0.0973152
0.101386
-0.0320446
0.127265
0.0133651
0.0958649
0.113535
0.0778964
0.0806828
0.00293416
-0.0539081
1.33089
2.28232
3.32628
3.93227
4.29416
4.32946
4.23462
3.96336
3.62992
3.26825
3.07474
3.11035
3.20872
3.32948
3.50783
3.54485
3.4448
2.94955
2.2825
1.36964
0.943544
1.81283
2.61231
3.14023
3.54665
3.59227
3.47253
3.13832
2.93296
2.62242
2.53064
2.40628
2.51804
2.63816
2.78533
2.88119
2.68166
2.25833
1.66366
0.922622
0.663011
1.47195
2.10261
2.53094
2.77441
2.82295
2.74109
2.63591
2.34973
2.10687
1.93083
1.90597
1.98389
2.03669
2.15301
2.21975
2.08529
1.68983
1.17938
0.578432
0.446565
0.945675
1.645
1.88675
2.13175
2.26753
2.12844
1.89545
1.74168
1.56296
1.39888
1.41409
1.48075
1.59168
1.62664
1.63142
1.56828
1.23959
0.79786
0.322014
0.356174
0.699917
1.1601
1.45529
1.71252
1.66049
1.61283
1.50396
1.32859
1.18756
1.08817
1.14512
1.07226
1.1696
1.18695
1.22649
1.13285
0.833667
0.568258
0.214828
0.208225
0.540143
0.849647
1.00929
1.15374
1.20633
1.08517
0.97737
0.884178
0.856458
0.773797
0.667787
0.732159
0.801994
0.793866
0.817177
0.731091
0.592341
0.365468
0.0893123
0.102269
0.276342
0.429561
0.648526
0.73642
0.709644
0.719248
0.602577
0.509513
0.495919
0.453364
0.405466
0.421191
0.503653
0.544353
0.458614
0.377593
0.328867
0.163198
0.0921351
-0.0178146
0.000147178
0.0823085
0.165534
0.24747
0.241727
0.238229
0.208713
0.121273
0.156923
0.1139
0.149351
0.143696
0.0912607
0.193374
0.0621914
0.120309
0.141657
0.128836
-0.0392973
2.38848
3.38286
4.22317
5.02439
5.36436
5.4972
5.32734
5.20458
4.89203
4.74183
4.57571
4.54573
4.61661
4.65298
4.83533
4.8165
4.57034
3.99024
3.38974
2.42944
1.81807
2.69542
3.55087
4.12474
4.47027
4.57588
4.51764
4.25084
4.06543
3.83175
3.68445
3.61585
3.66205
3.78548
3.80092
3.77197
3.64702
3.20826
2.59075
1.73843
1.39435
2.10329
2.94675
3.32784
3.56835
3.6844
3.61799
3.44042
3.30469
3.05505
2.92635
2.94489
2.98543
3.02162
3.14152
3.09305
2.90859
2.55995
1.91059
1.2729
1.0977
1.61727
2.21459
2.62378
2.90549
2.9167
2.90395
2.72564
2.5226
2.4248
2.27623
2.29153
2.35393
2.38538
2.35812
2.43281
2.24316
1.88804
1.42589
0.947282
0.810011
1.22475
1.68142
2.0111
2.16653
2.25737
2.15616
2.08624
1.98268
1.83735
1.76028
1.63406
1.68231
1.79127
1.7875
1.67136
1.56143
1.40667
1.02441
0.670113
0.518452
0.91704
1.16554
1.35345
1.45919
1.48853
1.58034
1.43028
1.31878
1.23662
1.24721
1.17331
1.15341
1.22418
1.22258
1.21742
1.06615
1.02028
0.641812
0.415508
0.295042
0.495649
0.663452
0.823689
0.873813
0.84072
0.895639
0.844137
0.803573
0.709399
0.807755
0.707102
0.753802
0.647935
0.66086
0.709105
0.62674
0.526061
0.412653
0.247264
0.0801448
0.28119
0.205152
0.254379
0.363352
0.309201
0.298376
0.356175
0.215391
0.234844
0.133218
0.188915
0.215802
0.221804
0.171949
0.293525
0.227468
0.168809
0.166451
0.078814
3.53999
4.51887
5.36719
6.16467
6.59371
6.68958
6.76344
6.46701
6.37342
6.1904
6.05376
5.88455
5.95733
6.03443
6.07095
6.04641
5.76866
5.21625
4.46869
3.63328
2.80793
3.57029
4.39466
5.03141
5.41852
5.59738
5.55702
5.34645
5.24483
5.09194
4.95967
4.93437
4.85134
4.95225
4.95883
4.86653
4.67806
4.12255
3.5439
2.76497
2.26574
2.82109
3.51238
4.02947
4.38843
4.5657
4.56878
4.35795
4.18396
4.0959
3.87286
3.96578
3.93803
3.96941
3.93152
3.89021
3.72284
3.27797
2.79154
2.1666
1.79281
2.21628
2.8625
3.2499
3.48672
3.60467
3.58665
3.5927
3.2793
3.2757
3.10067
3.05444
3.0892
3.05624
3.04838
3.03338
2.93755
2.57974
2.05875
1.65284
1.25103
1.73593
2.10406
2.39149
2.59068
2.69733
2.71436
2.54248
2.48004
2.43363
2.37603
2.27856
2.29193
2.36964
2.3452
2.17192
2.19336
1.94067
1.54927
1.18558
0.879849
1.19744
1.48334
1.68667
1.87656
1.8437
1.94263
1.82227
1.66733
1.73155
1.66203
1.68971
1.58725
1.59617
1.6424
1.56534
1.45956
1.3211
1.05314
0.766133
0.555341
0.664258
0.858882
1.09299
1.11918
1.12081
1.09763
1.07367
1.06825
1.05669
0.962988
0.99171
0.974455
0.926767
0.902269
0.993048
0.91728
0.776011
0.59114
0.466244
0.169709
0.306523
0.284203
0.378708
0.355747
0.282136
0.412155
0.411465
0.381423
0.330659
0.357175
0.26231
0.265562
0.241627
0.311683
0.247057
0.398002
0.24902
0.216682
0.182623
4.40471
5.38803
6.3459
7.0887
7.48066
7.74663
7.69688
7.5834
7.43584
7.31885
7.31287
7.1711
7.14684
7.22438
7.13403
7.04253
6.75046
6.19003
5.39873
4.59458
3.62093
4.45754
5.20965
5.87449
6.23832
6.44073
6.41759
6.2883
6.14245
6.09333
5.96057
5.78331
5.86134
5.83158
5.75713
5.71288
5.47656
5.00241
4.23757
3.61218
2.76941
3.4864
4.19202
4.75204
5.07409
5.16314
5.27256
5.08278
4.97477
4.83982
4.71921
4.75072
4.68713
4.72541
4.70685
4.47764
4.4092
3.87122
3.34433
2.76507
2.1719
2.75214
3.27989
3.66528
3.96542
4.10059
4.0944
3.96613
3.87692
3.85541
3.66897
3.6278
3.61389
3.56978
3.63608
3.50845
3.36078
3.11232
2.54429
2.10787
1.62076
2.09121
2.4512
2.7625
3.06872
3.07265
3.01934
3.00986
3.01506
2.92638
2.82532
2.7835
2.74553
2.67499
2.70632
2.64932
2.51185
2.18479
1.86554
1.51582
1.0573
1.42995
1.72038
1.87498
2.07088
2.14847
2.09025
2.13739
2.03369
2.01755
1.9373
1.91468
2.00755
1.93996
1.87239
1.85867
1.75599
1.53391
1.29597
1.13587
0.630526
0.911013
1.04542
1.13268
1.26746
1.22325
1.23801
1.28609
1.25731
1.13742
1.17122
1.19117
1.12414
1.12743
1.1661
1.00709
1.00659
0.888963
0.750517
0.655902
0.214803
0.2761
0.352558
0.351257
0.413331
0.392755
0.442881
0.44119
0.37097
0.484152
0.402374
0.404274
0.464095
0.415464
0.368371
0.352358
0.331594
0.308467
0.178015
0.216689
)
;

boundaryField
{
    hotSide
    {
        type            calculated;
        value           nonuniform List<scalar> 
400
(
2.91928
2.68684
2.55024
2.16897
1.75389
1.34711
0.760581
0.413546
0.0714198
-0.165191
-0.2315
-0.193265
0.108231
0.584982
1.22635
2.06481
3.11165
4.23537
5.45774
6.39808
4.87402
4.59964
4.42495
4.00588
3.53254
2.94648
2.41831
1.953
1.43438
1.19219
1.12352
1.03971
1.35593
1.73448
2.30424
3.10063
4.07916
5.24451
6.45015
7.39379
6.55582
6.38562
6.10227
5.59944
5.06178
4.46685
3.81067
3.18241
2.74461
2.35831
2.14879
2.18643
2.37096
2.80441
3.27032
4.17548
5.13934
6.09961
7.31195
8.36395
7.82717
7.5701
7.15276
6.65841
6.00884
5.25968
4.6063
3.95742
3.49513
3.12
2.95143
2.87137
3.01921
3.40117
4.04745
4.72711
5.76128
6.91532
8.12258
9.11866
8.40362
8.07643
7.54849
7.00219
6.30285
5.6457
4.93066
4.29738
3.778
3.38967
3.12872
3.12067
3.23738
3.66552
4.33237
5.11613
6.1384
7.26905
8.56404
9.52182
8.65027
8.33688
7.68809