/*--------------------------------*- C++ -*----------------------------------*\
| =========                 |                                                 |
| \\      /  F ield         | OpenFOAM: The Open Source CFD Toolbox           |
|  \\    /   O peration     | Version:  2212                                  |
|   \\  /    A nd           | Website:  www.openfoam.com                      |
|    \\/     M anipulation  |                                                 |
\*---------------------------------------------------------------------------*/
FoamFile
{
    version     2.0;
    format      ascii;
    arch        "LSB;label=32;scalar=64";
    class       volScalarField;
    location    "0";
    object      stateMean;
}
// * * * * * * * * * * * * * * * * * * * * * * * * * * * * * * * * * * * * * //

dimensions      [0 0 0 1 0 0 0];

internalField   nonuniform List<scalar> 
3200
(
348.342
347.059
346.228
345.882
346.259
346.949
347.753
348.527
349.224
349.652
349.724
349.338
348.701
347.806
346.779
345.869
345.134
345.146
345.823
346.884
342.197
341.092
340.308
340.069
340.461
340.964
341.703
342.361
342.875
343.327
343.315
343.116
342.5
341.709
340.847
340.075
339.415
339.338
339.926
340.895
335.893
334.955
334.339
334.147
334.377
334.855
335.48
335.965
336.578
336.892
336.903
336.626
336.203
335.564
334.822
334.087
333.525
333.61
334.079
334.908
329.35
328.816
328.147
328.042
328.287
328.625
329.217
329.634
330.033
330.319
330.373
330.114
329.799
329.28
328.678
328.028
327.581
327.682
327.975
328.681
323.009
322.505
322.059
321.929
322.105
322.363
322.75
323.117
323.464
323.667
323.667
323.536
323.219
322.703
322.341
321.968
321.677
321.647
321.901
322.338
316.357
316.118
315.772
315.709
315.819
316.025
316.32
316.609
316.765
316.929
316.932
316.908
316.707
316.327
316.014
315.731
315.491
315.471
315.756
316.008
309.928
309.68
309.575
309.489
309.571
309.668
309.848
309.961
310.03
310.147
310.242
310.175
309.933
309.853
309.715
309.474
309.275
309.251
309.428
309.669
303.304
303.272
303.23
303.189
303.143
303.242
303.406
303.369
303.436
303.367
303.387
303.454
303.348
303.35
303.205
303.141
303.213
303.181
303.212
303.245
348.75
347.504
346.561
346.294
346.731
347.396
348.279
349.233
349.948
350.353
350.396
350.092
349.487
348.511
347.456
346.303
345.678
345.5
346.124
347.216
342.426
341.368
340.51
340.382
340.758
341.331
342.178
342.853
343.456
343.852
344.043
343.719
343.153
342.307
341.368
340.511
339.927
339.791
340.322
341.254
336.132
335.207
334.528
334.413
334.692
335.188
335.786
336.446
337.052
337.362
337.418
337.273
336.706
335.968
335.193
334.413
333.989
333.919
334.355
335.074
329.571
328.948
328.425
328.273
328.58
328.959
329.459
329.94
330.438
330.656
330.725
330.594
330.161
329.605
329.011
328.409
327.931
327.842
328.246
328.87
323.161
322.529
322.15
322.095
322.296
322.586
322.978
323.415
323.764
323.948
324.044
323.842
323.519
323.079
322.562
322.216
321.816
321.798
322.008
322.6
316.521
316.221
315.977
315.881
315.888
316.168
316.542
316.706
317.007
317.174
317.212
317.116
316.967
316.485
316.214
315.894
315.638
315.55
315.798
316.105
309.932
309.766
309.539
309.512
309.609
309.777
309.863
310.121
310.279
310.395
310.338
310.282
310.176
309.987
309.754
309.52
309.364
309.427
309.56
309.717
303.364
303.252
303.14
303.259
303.192
303.212
303.328
303.386
303.415
303.464
303.438
303.454
303.352
303.311
303.308
303.227
303.201
303.096
303.199
303.23
349.236
348.018
347.17
347.019
347.548
348.314
349.21
350.194
350.993
351.469
351.606
351.258
350.644
349.593
348.346
347.228
346.447
346.209
346.835
347.944
342.954
341.905
341.191
341.071
341.399
342.055
342.899
343.795
344.481
344.927
345.016
344.794
344.059
343.298
342.259
341.345
340.598
340.356
340.944
341.803
336.459
335.687
335.081
334.901
335.248
335.806
336.506
337.156
337.774
338.112
338.293
338.014
337.529
336.815
335.9
335.209
334.586
334.434
334.885
335.596
329.927
329.291
328.854
328.684
328.997
329.506
329.983
330.588
330.976
331.416
331.437
331.243
330.792
330.201
329.516
328.885
328.432
328.336
328.637
329.244
323.373
322.85
322.501
322.391
322.609
322.94
323.349
323.811
324.222
324.502
324.459
324.322
324.071
323.63
323.092
322.57
322.208
322.095
322.377
322.746
316.716
316.377
316.139
316.101
316.206
316.47
316.767
317.091
317.346
317.433
317.572
317.479
317.207
316.904
316.438
316.198
315.882
315.845
316.091
316.351
310.055
309.901
309.677
309.698
309.688
309.914
310.094
310.287
310.4
310.538
310.535
310.526
310.265
310.183
309.956
309.713
309.563
309.555
309.692
309.826
303.384
303.365
303.217
303.334
303.281
303.339
303.372
303.507
303.496
303.476
303.506
303.564
303.555
303.412
303.317
303.247
303.237
303.172
303.284
303.314
350.145
348.95
348.163
347.98
348.533
349.381
350.378
351.386
352.311
352.895
353.118
352.704
351.962
350.957
349.633
348.471
347.601
347.384
347.839
348.946
343.686
342.695
342.023
341.853
342.267
343.035
343.921
344.809
345.595
346.009
346.202
345.902
345.297
344.328
343.295
342.294
341.63
341.393
341.839
342.596
337.079
336.354
335.69
335.587
335.901
336.549
337.342
338.073
338.687
339.156
339.298
339.134
338.513
337.771
336.859
336.014
335.427
335.205
335.565
336.336
330.534
329.902
329.38
329.319
329.574
330.071
330.606
331.296
331.783
332.195
332.225
332.118
331.653
331.017
330.25
329.558
329.129
328.944
329.315
329.784
323.787
323.302
322.911
322.879
323.113
323.425
323.947
324.406
324.868
325.108
325.175
325.084
324.657
324.216
323.65
323.126
322.766
322.608
322.792
323.28
317.046
316.749
316.399
316.418
316.515
316.832
317.132
317.477
317.666
318.02
318.04
317.867
317.685
317.349
317.019
316.541
316.283
316.279
316.36
316.731
310.214
310.045
309.93
309.897
309.97
310.128
310.314
310.593
310.596
310.866
310.834
310.798
310.599
310.366
310.203
309.968
309.807
309.811
309.814
309.987
303.443
303.423
303.348
303.229
303.339
303.373
303.457
303.488
303.598
303.561
303.624
303.596
303.537
303.471
303.391
303.303
303.257
303.282
303.325
303.403
351.267
350.109
349.361
349.258
349.827
350.671
351.704
352.768
353.797
354.444
354.75
354.386
353.585
352.391
351.118
349.883
349.108
348.726
349.226
350.064
344.625
343.694
343.04
342.976
343.427
344.163
345.067
345.989
346.851
347.458
347.545
347.335
346.645
345.764
344.598
343.531
342.843
342.498
342.969
343.695
337.892
337.193
336.645
336.629
336.95
337.541
338.339
339.155
339.876
340.297
340.373
340.26
339.665
338.823
337.956
337.078
336.48
336.309
336.573
337.203
331.129
330.519
330.145
330.042
330.317
330.815
331.485
332.131
332.737
333.05
333.257
332.972
332.566
331.898
331.112
330.428
329.981
329.763
330.019
330.542
324.296
323.84
323.431
323.448
323.719
324.1
324.579
325.096
325.495
325.797
325.872
325.745
325.383
324.91
324.339
323.75
323.443
323.313
323.41
323.796
317.384
317.053
316.793
316.86
316.903
317.275
317.599
318.002
318.289
318.408
318.529
318.413
318.207
317.843
317.47
317.128
316.783
316.672
316.775
317.085
310.47
310.281
310.117
310.094
310.174
310.404
310.563
310.757
310.941
311.086
311.102
311.112
310.977
310.775
310.505
310.239
310.048
310.065
310.14
310.336
303.511
303.442
303.388
303.451
303.396
303.427
303.543
303.696
303.585
303.751
303.672
303.723
303.68
303.698
303.523
303.495
303.402
303.34
303.35
303.444
352.561
351.559
350.789
350.803
351.239
352.162
353.292
354.409
355.338
356.061
356.439
356.009
355.273
354.075
352.785
351.67
350.779
350.468
350.775
351.653
345.813
344.976
344.282
344.31
344.745
345.383
346.392
347.334
348.24
348.824
349.159
348.86
348.166
347.112
346.021
345.005
344.261
343.934
344.346
345.054
338.861
338.225
337.667
337.674
337.953
338.601
339.389
340.246
341.057
341.504
341.7
341.475
340.9
340.032
339.187
338.317
337.595
337.472
337.733
338.316
331.904
331.358
330.94
331.003
331.246
331.695
332.371
333.067
333.639
334.117
334.269
334.037
333.587
332.988
332.176
331.463
330.998
330.798
331.081
331.437
324.911
324.574
324.115
324.175
324.371
324.725
325.257
325.779
326.225
326.537
326.682
326.6
326.202
325.693
325.096
324.503
324.167
324.02
324.228
324.516
317.851
317.501
317.339
317.235
317.391
317.746
318.078
318.449
318.773
319.022
319.116
318.997
318.804
318.376
317.968
317.598
317.307
317.289
317.344
317.545
310.709
310.575
310.414
310.385
310.443
310.609
310.864
311.049
311.33
311.367
311.446
311.486
311.271
311.072
310.749
310.638
310.465
310.337
310.508
310.535
303.577
303.572
303.515
303.464
303.491
303.566
303.549
303.689
303.765
303.877
303.916
303.821
303.827
303.751
303.591
303.545
303.437
303.479
303.523
303.477
354.22
353.133
352.456
352.426
352.878
353.831
354.86
356.103
357.061
357.889
358.28
357.948
357.17
355.942
354.636
353.402
352.527
352.122
352.504
353.24
347.174
346.319
345.759
345.649
346.045
346.769
347.76
348.749
349.763
350.421
350.694
350.382
349.76
348.736
347.647
346.593
345.813
345.575
345.811
346.474
340.021
339.31
338.892
338.786
339.214
339.787
340.55
341.467
342.201
342.774
343.021
342.819
342.239
341.424
340.445
339.57
338.994
338.773
339.034
339.497
332.892
332.329
331.945
331.855
332.208
332.678
333.347
334.041
334.646
335.077
335.303
335.161
334.715
333.98
333.23
332.52
332.041
331.771
332.031
332.442
325.585
325.214
324.949
324.814
325.108
325.442
325.984
326.447
327.016
327.326
327.521
327.491
327.051
326.482
325.916
325.381
325.074
324.907
325.032
325.278
318.39
318.033
317.952
317.809
317.993
318.2
318.617
318.98
319.383
319.584
319.63
319.655
319.358
318.97
318.594
318.189
317.979
317.788
317.892
318.164
311.133
310.861
310.752
310.687
310.825
310.948
311.151
311.492
311.533
311.811
311.881
311.794
311.626
311.453
311.177
310.912
310.793
310.704
310.797
310.954
303.683
303.602
303.546
303.623
303.618
303.759
303.786
303.766
303.881
303.896
303.954
303.985
303.843
303.871
303.748
303.65
303.609
303.609
303.607
303.685
355.825
354.828
354.276
354.223
354.611
355.375
356.556
357.641
358.852
359.69
359.939
359.774
359.021
357.836
356.541
355.345
354.461
354.139
354.421
355.16
348.599
347.744
347.19
347.2
347.556
348.391
349.303
350.231
351.219
351.977
352.14
351.985
351.394
350.345
349.159
348.25
347.499
347.21
347.548
348.053
341.282
340.582
340.112
340.07
340.44
340.937
341.852
342.732
343.569
344.151
344.307
344.104
343.65
342.743
341.836
340.927
340.36
340.12
340.373
340.88
333.87
333.326
332.895
332.938
333.224
333.672
334.282
335.076
335.714
336.188
336.472
336.249
335.811
335.075
334.376
333.656
333.112
333.042
333.13
333.494
326.474
325.938
325.866
325.708
325.929
326.337
326.734
327.283
327.796
328.219
328.367
328.288
327.936
327.344
326.723
326.233
325.862
325.812
325.866
326.226
318.947
318.648
318.358
318.389
318.603
318.766
319.233
319.503
319.959
320.189
320.368
320.213
320.005
319.573
319.15
318.862
318.583
318.441
318.579
318.82
311.378
311.233
311.064
311.041
311.094
311.284
311.543
311.77
311.977
312.157
312.253
312.129
311.995
311.789
311.571
311.303
311.047
311.011
311.161
311.311
303.752
303.756
303.75
303.729
303.737
303.768
303.87
303.971
303.996
304.037
304.066
304.081
304.069
303.99
303.858
303.783
303.76
303.746
303.753
303.732
357.616
356.766
356.093
356.018
356.414
357.266
358.366
359.469
360.602
361.444
361.782
361.671
360.76
359.645
358.396
357.204
356.491
356.136
356.342
357.029
350.192
349.35
348.898
348.817
349.161
349.946
350.676
351.748
352.785
353.496
353.799
353.572
352.912
351.935
350.849
349.883
349.243
348.924
349.162
349.754
342.504
342.001
341.482
341.393
341.767
342.365
343.086
343.972
344.744
345.37
345.687
345.547
344.964
344.08
343.195
342.364
341.823
341.651
341.771
342.131
334.858
334.497
334.085
334.06
334.288
334.743
335.4
336.031
336.739
337.191
337.426
337.336
336.775
336.174
335.491
334.856
334.384
334.216
334.345
334.72
327.272
326.865
326.525
326.521
326.71
327.066
327.539
328.148
328.631
329.065
329.197
329.076
328.73
328.23
327.667
327.134
326.814
326.603
326.73
327.09
319.582
319.211
318.975
319.002
319.118
319.423
319.693
320.107
320.502
320.743
320.846
320.793
320.612
320.255
319.849
319.406
319.188
319.067
319.233
319.404
311.727
311.6
311.415
311.455
311.555
311.659
311.9
312.028
312.32
312.427
312.529
312.486
312.446
312.171
311.965
311.668
311.574
311.561
311.505
311.708
303.921
303.914
303.866
303.853
303.838
303.957
303.982
304.063
304.106
304.169
304.159
304.232
304.174
304.098
303.976
303.889
303.876
303.893
303.897
303.936
359.495
358.62
358.049
357.917
358.276
359.048
360.072
361.201
362.329
363.188
363.599
363.298
362.572
361.44
360.278
359.194
358.414
358.123
358.409
358.989
351.782
350.994
350.495
350.449
350.746
351.385
352.276
353.346
354.19
354.977
355.238
355.04
354.468
353.446
352.529
351.553
350.901
350.665
350.822
351.442
343.94
343.303
342.903
342.822
342.989
343.714
344.423
345.229
345.964
346.621
346.855
346.736
346.224
345.463
344.57
343.782
343.279
343.149
343.319
343.734
336.054
335.595
335.244
335.19
335.356
335.812
336.456
337.13
337.708
338.242
338.5
338.401
337.915
337.298
336.558
335.987
335.572
335.348
335.57
335.837
328.079
327.764
327.527
327.393
327.622
327.931
328.424
328.891
329.36
329.766
329.964
329.918
329.566
329.091
328.566
328.035
327.722
327.606
327.699
328.003
320.136
319.857
319.726
319.617
319.82
320.019
320.324
320.719
321.054
321.363
321.46
321.405
321.226
320.823
320.401
320.027
319.86
319.732
319.936
320.031
312.079
311.943
311.808
311.766
311.862
311.924
312.25
312.479
312.638
312.843
312.929
312.912
312.764
312.494
312.224
312.12
311.914
311.936
311.926
312.042
304.009
304.008
303.985
303.95
303.915
304.041
304.143
304.2
304.32
304.3
304.305
304.358
304.255
304.228
304.149
304.058
303.994
304.069
304.026
304.045
361.401
360.496
360.025
359.806
360.207
360.954
361.865
362.924
363.862
364.787
365.144
364.919
364.31
363.309
362.095
361.099
360.491
360.186
360.446
360.986
353.41
352.73
352.262
351.988
352.31
353.021
353.726
354.75
355.58
356.269
356.659
356.509
355.88
355.03
354.04
353.189
352.672
352.416
352.681
353.192
345.321
344.741
344.318
344.263
344.468
344.982
345.723
346.463
347.173
347.788
348.085
348.002
347.504
346.827
345.956
345.248
344.755
344.62
344.796
345.179
337.246
336.734
336.419
336.362
336.495
336.887
337.468
338.185
338.751
339.284
339.445
339.315
339.007
338.339
337.617
337.212
336.786
336.545
336.742
337.018
329.021
328.752
328.383
328.25
328.534
328.807
329.208
329.695
330.232
330.553
330.755
330.669
330.44
329.928
329.462
329.017
328.657
328.634
328.703
328.946
320.759
320.489
320.241
320.267
320.423
320.561
320.856
321.328
321.583
321.902
322
322.019
321.703
321.34
321.06
320.7
320.477
320.407
320.597
320.819
312.53
312.354
312.146
312.149
312.283
312.4
312.537
312.769
312.939
313.175
313.175
313.045
313.127
312.92
312.666
312.476
312.336
312.272
312.421
312.443
304.232
304.192
304.13
304.121
304.111
304.159
304.176
304.301
304.337
304.455
304.357
304.373
304.331
304.293
304.3
304.196
304.129
304.173
304.149
304.209
363.399
362.586
361.954
361.806
362.087
362.75
363.515
364.612
365.581
366.353
366.618
366.467
365.886
364.945
363.973
363.027
362.38
362.244
362.544
363.072
355.08
354.38
353.864
353.783
354.023
354.567
355.262
356.168
357.026
357.638
357.92
357.842
357.386
356.529
355.693
354.961
354.378
354.231
354.461
354.961
346.757
346.239
345.836
345.664
345.912
346.308
346.979
347.731
348.378
348.917
349.261
349.123
348.682
347.95
347.304
346.708
346.375
346.134
346.269
346.709
338.41
337.962
337.616
337.487
337.66
337.98
338.574
339.13
339.635
340.096
340.354
340.272
340.031
339.361
338.752
338.338
337.995
337.855
338.028
338.314
329.91
329.568
329.349
329.105
329.395
329.614
330.029
330.528
330.967
331.387
331.439
331.394
331.152
330.617
330.281
329.844
329.598
329.595
329.672
329.883
321.316
321.135
320.954
320.943
320.953
321.224
321.56
321.812
322.137
322.393
322.497
322.444
322.237
321.982
321.664
321.372
321.223
321.215
321.313
321.364
312.915
312.781
312.657
312.544
312.602
312.742
312.977
313.099
313.297
313.434
313.477
313.457
313.357
313.254
313.126
312.883
312.654
312.711
312.799
312.869
304.312
304.274
304.204
304.268
304.206
304.296
304.33
304.366
304.491
304.553
304.519
304.476
304.557
304.421
304.364
304.397
304.306
304.22
304.301
304.346
365.336
364.478
363.938
363.783
364.05
364.473
365.347
366.214
367.074
367.688
368.065
368.044
367.46
366.56
365.731
364.95
364.389
364.282
364.522
365.049
356.821
356.167
355.704
355.463
355.664
356.118
356.843
357.602
358.362
358.933
359.184
359.075
358.712
358.034
357.183
356.596
356.141
355.951
356.221
356.668
348.225
347.661
347.211
347.072
347.24
347.616
348.236
348.941
349.53
350.046
350.207
350.14
349.779
349.299
348.545
348.041
347.577
347.592
347.78
348.203
339.542
339.055
338.797
338.658
338.786
339.099
339.594
340.146
340.654
341.045
341.27
341.104
340.867
340.368
339.906
339.46
339.114
339.098
339.269
339.552
330.821
330.493
330.194
330.105
330.244
330.47
330.849
331.225
331.667
331.876
332.211
332.047
331.807
331.484
331.111
330.784
330.441
330.485
330.653
330.861
321.937
321.842
321.597
321.599
321.677
321.756
322.094
322.337
322.675
322.854
322.956
322.977
322.76
322.582
322.274
322.083
321.901
321.847
321.988
322.162
313.273
313.101
312.967
312.979
313.048
313.191
313.256
313.439
313.631
313.817
313.94
313.812
313.63
313.53
313.391
313.229
313.116
313.188
313.188
313.305
304.387
304.411
304.363
304.353
304.398
304.375
304.437
304.544
304.538
304.641
304.645
304.533
304.541
304.515
304.51
304.479
304.288
304.481
304.418
304.486
367.299
366.509
365.877
365.732
365.909
366.341
367.069
367.779
368.59
369.258
369.451
369.415
368.953
368.284
367.463
366.767
366.359
366.281
366.587
367.134
358.494
357.823
357.371
357.088
357.355
357.727
358.255
359.023
359.684
360.229
360.529
360.336
359.969
359.346
358.726
358.15
357.746
357.701
357.965
358.569
349.598
349.086
348.657
348.534
348.701
349.024
349.474
350.073
350.656
351.116
351.345
351.225
350.923
350.432
349.865
349.44
349.047
349.073
349.294
349.714
340.719
340.306
339.983
339.882
340.014
340.227
340.605
341.143
341.549
341.872
342.081
342.019
341.78
341.37
340.885
340.578
340.31
340.254
340.405
340.813
331.739
331.398
331.166
331.02
331.107
331.324
331.669
332.041
332.358
332.655
332.787
332.79
332.576
332.237
331.959
331.683
331.413
331.374
331.567
331.847
322.766
322.467
322.254
322.191
322.299
322.37
322.66
322.887
323.176
323.33
323.45
323.403
323.307
323.061
322.881
322.626
322.47
322.554
322.662
322.822
313.561
313.529
313.336
313.38
313.4
313.501
313.592
313.75
313.907
313.98
314.124
314.118
314.017
313.897
313.681
313.618
313.498
313.505
313.621
313.733
304.565
304.543
304.529
304.486
304.523
304.502
304.515
304.588
304.619
304.727
304.713
304.714
304.707
304.649
304.574
304.606
304.496
304.533
304.567
304.56
369.295
368.549
367.985
367.62
367.736
368.109
368.722
369.354
369.994
370.586
370.948
370.764
370.405
369.779
369.165
368.639
368.289
368.295
368.612
369.089
360.243
359.617
359.114
358.855
358.966
359.312
359.798
360.39
360.897
361.407
361.684
361.568
361.24
360.75
360.199
359.712
359.503
359.475
359.792
360.285
351.078
350.54
350.12
349.957
350.022
350.329
350.763
351.194
351.79
352.174
352.353
352.22
352.031
351.553
351.135
350.813
350.572
350.522
350.701
351.174
341.922
341.544
341.209
340.963
341.107
341.278
341.636
342.041
342.455
342.679
342.942
342.829
342.641
342.302
341.943
341.649
341.45
341.526
341.667
341.96
332.646
332.318
332.145
331.904
331.963
332.24
332.457
332.75
333.046
333.279
333.36
333.411
333.26
332.972
332.711
332.518
332.275
332.293
332.548
332.788
323.368
323.124
322.94
322.788
322.854
322.979
323.165
323.426
323.65
323.847
323.898
323.854
323.901
323.578
323.401
323.221
323.135
323.21
323.208
323.417
313.982
313.909
313.742
313.788
313.781
313.875
313.95
314.172
314.218
314.364
314.412
314.44
314.352
314.23
314.046
313.955
313.866
313.881
313.944
314.096
304.724
304.666
304.681
304.661
304.611
304.582
304.661
304.693
304.713
304.737
304.79
304.814
304.832
304.716
304.743
304.663
304.689
304.649
304.658
304.716
371.282
370.552
369.844
369.669
369.644
369.952
370.401
371.019
371.601
371.982
372.269
372.219
371.812
371.397
370.827
370.421
370.163
370.274
370.553
371.202
361.924
361.318
360.773
360.555
360.503
360.804
361.328
361.699
362.325
362.658
362.797
362.762
362.562
362.081
361.582
361.324
361.15
361.139
361.49
361.941
352.519
352.116
351.626
351.435
351.34
351.642
352.002
352.426
352.816
353.146
353.333
353.361
353.063
352.678
352.306
352.132
351.954
351.934
352.195
352.566
343.027
342.734
342.344
342.086
342.204
342.304
342.596
343.053
343.306
343.632
343.795
343.663
343.502
343.346
342.889
342.726
342.63
342.673
342.867
343.14
333.596
333.301
332.971
332.837
332.879
332.965
333.206
333.543
333.729
334.016
334.106
334.127
333.874
333.729
333.517
333.337
333.271
333.268
333.462
333.695
324.048
323.762
323.6
323.517
323.534
323.644
323.78
323.992
324.151
324.324
324.406
324.398
324.304
324.165
323.965
323.843
323.752
323.795
323.948
324.131
314.381
314.263
314.176
314.156
314.171
314.231
314.29
314.384
314.483
314.677
314.589
314.655
314.576
314.511
314.482
314.315
314.333
314.323
314.373
314.464
304.895
304.812
304.759
304.729
304.755
304.684
304.802
304.747
304.891
304.877
304.873
305.001
304.831
304.93
304.828
304.789
304.801
304.774
304.829
304.869
373.218
372.532
371.808
371.529
371.481
371.735
372.08
372.553
373.026
373.461
373.654
373.546
373.307
372.986
372.556
372.23
372.016
372.184
372.531
373.179
363.667
363.023
362.5
362.255
362.121
362.326
362.663
363.172
363.499
363.873
363.964
364.026
363.792
363.498
363.133
362.787
362.713
362.854
363.172
363.688
354.011
353.388
352.99
352.802
352.79
352.953
353.219
353.472
353.861
354.157
354.333
354.305
354.124
353.923
353.623
353.344
353.248
353.403
353.681
354.096
344.291
343.942
343.433
343.387
343.331
343.369
343.66
344.014
344.251
344.474
344.638
344.579
344.428
344.196
344.01
343.832
343.706
343.838
344.09
344.416
334.448
334.219
333.906
333.764
333.653
333.841
334.006
334.209
334.449
334.624
334.724
334.633
334.641
334.449
334.314
334.14
334.086
334.232
334.351
334.589
324.663
324.412
324.207
324.157
324.117
324.162
324.367
324.542
324.682
324.735
324.817
324.898
324.787
324.65
324.574
324.454
324.435
324.465
324.587
324.782
314.837
314.711
314.62
314.467
314.443
314.527
314.569
314.725
314.846
314.875
314.918
314.951
314.907
314.784
314.693
314.72
314.738
314.721
314.824
314.847
305.026
305.024
304.963
304.901
304.841
304.866
304.886
304.929
305.026
304.995
305.038
304.998
304.994
305.033
304.915
305.026
304.947
304.903
304.895
305.047
375.161
374.41
373.863
373.36
373.306
373.434
373.83
374.132
374.571
374.786
374.952
374.917
374.72
374.504
374.096
373.853
373.814
374.096
374.403
375.12
365.372
364.701
364.098
363.783
363.685
363.806
364.06
364.484
364.779
365.068
365.216
365.228
365.073
364.793
364.581
364.383
364.261
364.441
364.805
365.452
355.445
354.908
354.277
354.115
354.085
354.161
354.393
354.704
354.931
355.229
355.358
355.291
355.159
354.989
354.703
354.56
354.534
354.664
355.1
355.566
345.4
345.019
344.595
344.366
344.257
344.402
344.551
344.838
345.116
345.253
345.402
345.347
345.21
345.07
344.961
344.729
344.747
344.922
345.21
345.551
335.356
335.046
334.726
334.535
334.513
334.546
334.753
334.907
335.069
335.246
335.323
335.418
335.311
335.118
335.016
335.009
334.985
335
335.247
335.496
325.322
324.998
324.845
324.758
324.748
324.805
324.79
325.001
325.154
325.257
325.247
325.3
325.278
325.146
325.071
324.99
325.045
324.991
325.273
325.424
315.224
315.068
314.959
314.858
314.865
314.951
314.941
315.03
315.095
315.203
315.104
315.192
315.12
315.189
315.131
315.03
315.055
315.096
315.151
315.272
305.122
304.936
305.031
305.002
304.913
304.984
305.011
304.965
305.114
305.099
305.201
305.14
305.105
305.087
305.121
304.982
305.029
305.067
305.051
305.123
376.895
376.141
375.564
375.039
374.872
375.014
375.146
375.605
375.812
376.054
376.19
376.3
376.115
375.875
375.633
375.42
375.435
375.715
376.191
376.802
366.831
366.26
365.669
365.271
365.11
365.139
365.357
365.71
365.91
366.113
366.245
366.221
366.205
365.962
365.777
365.662
365.624
365.941
366.286
366.874
356.608
356.212
355.718
355.403
355.237
355.234
355.382
355.714
355.972
356.103
356.326
356.19
356.134
355.982
355.868
355.735
355.709
355.952
356.241
356.707
346.345
346.049
345.564
345.342
345.263
345.288
345.431
345.523
345.906
345.944
346.119
346.131
346.027
345.962
345.845
345.717
345.654
345.846
346.206
346.485
336.174
335.787
335.544
335.385
335.309
335.315
335.394
335.643
335.759
335.832
335.89
335.96
335.893
335.738
335.667
335.728
335.583
335.707
335.974
336.239
325.851
325.603
325.406
325.294
325.193
325.306
325.276
325.452
325.645
325.6
325.67
325.622
325.687
325.623
325.508
325.505
325.521
325.568
325.747
325.965
315.496
315.428
315.287
315.108
315.135
315.181
315.246
315.303
315.332
315.355
315.449
315.408
315.403
315.417
315.4
315.261
315.284
315.37
315.501
315.585
305.209
305.086
305.127
305.051
305.092
305.182
305.066
305.078
305.116
305.17
305.144
305.235
305.223
305.236
305.152
305.201
305.032
305.162
305.176
305.196
378.293
377.521
376.818
376.332
376.184
376.14
376.381
376.646
376.898
377.069
377.075
377.163
377.082
376.854
376.753
376.622
376.671
376.974
377.51
378.103
367.866
367.209
366.678
366.238
366.087
366.077
366.267
366.529
366.767
366.863
366.995
367.126
366.956
366.853
366.761
366.612
366.635
366.886
367.429
367.875
357.593
357.026
356.507
356.137
355.996
356.072
356.104
356.406
356.592
356.767
356.888
356.816
356.802
356.652
356.528
356.592
356.48
356.828
357.168
357.597
347.135
346.676
346.3
346.071
345.92
345.92
346.043
346.264
346.417
346.472
346.658
346.666
346.616
346.567
346.385
346.377
346.375
346.468
346.884
347.199
336.684
336.307
336.066
335.877
335.686
335.788
335.933
336.014
336.059
336.174
336.275
336.291
336.278
336.277
336.155
336.106
336.127
336.332
336.532
336.789
326.288
325.981
325.776
325.708
325.596
325.594
325.718
325.722
325.861
325.896
325.977
325.98
325.851
325.868
325.87
325.808
325.827
325.962
326.115
326.209
315.783
315.543
315.46
315.424
315.34
315.43
315.454
315.437
315.488
315.619
315.585
315.554
315.599
315.565
315.487
315.6
315.55
315.616
315.703
315.758
305.285
305.238
305.178
305.197
305.152
305.187
305.15
305.163
305.24
305.131
305.213
305.207
305.14
305.178
305.212
305.213
305.216
305.223
305.336
305.283
)
;

boundaryField
{
    hotSide
    {
        type            fixedGradient;
        gradient        nonuniform List<scalar> 
400
(
321.511
322.87
325.591
329.677
335.133
341.965
350.181
359.788
370.794
383.208
397.037
412.289
428.971
447.088
466.647
487.651
510.105
534.011
559.372
586.191
323.738
325.08
327.767
331.802
337.194
343.949
352.078
361.591
372.498
384.81
398.537
413.687
430.268
448.289
467.755
488.672
511.043
534.872
560.161
586.913
326.149
327.47
330.116
334.091
339.406
346.071
354.099
363.503
374.296
386.491
400.101
415.136
431.606
449.52
468.885
489.706
511.988
535.735
560.948
587.63
328.704
330
332.597
336.503
341.73
348.292
356.205
365.485
376.15
388.215
401.695
416.604
432.954
450.753
470.009
490.73
512.919
536.579
561.714
588.325
331.33
332.599
335.142
338.97
344.099
350.546
358.332
367.477
378.003
389.928
403.271
418.047
434.27
451.949
471.095
491.712
513.807
537.382
562.439
588.978
333.918
335.158
337.643
341.389
346.414
352.74
360.392
369.397
379.779
391.562
404.765
419.407
435.503
453.065
472.101
492.618
514.622
538.114
563.096
589.569
336.321
337.531
339.959
343.622
348.544
354.751
362.274
371.142
381.385
393.031
406.101
420.618
436.595
454.047
472.983
493.409
515.33
538.747
563.663
590.076
338.36
339.543
341.92
345.509
350.339
356.44
363.847
372.595
382.718
394.244
407.2
421.608
437.485
454.844
473.695
494.045
515.897
539.253
564.114
590.478
339.852
341.015
343.352
346.885
351.645
357.665
364.985
373.643
383.675
395.113
407.984
422.312
438.116
455.407
474.197
494.491
516.294
539.606
564.428
590.758
340.643
341.795
344.11
347.613
352.334
358.311
365.584
374.193
384.176
395.567
408.393
422.679
438.443
455.699
474.456
494.722
516.498
539.788
564.589
590.901
340.643
341.795
344.11
347.613
352.334
358.311
365.584
374.193
384.176
395.567
408.393
422.679
438.443
455.699
474.456
494.722
516.498
539.788
564.589
590.901
339.852
341.015
343.352
346.885
351.645
357.665
364.985
373.643
383.675
395.113
407.984
422.312
438.116
455.407
474.197
494.491
516.294
539.606
564.428
590.758
338.36
339.543
341.92
345.509
350.339
356.44
363.847
372.595
382.718
394.244
407.2
421.608
437.485
454.844
473.695
494.045
515.897
539.253
564.114
590.478
336.321
337.531
339.959
343.622
348.544
354.751
362.274
371.142
381.385
393.031
406.101
420.618
436.595
454.047
472.983
493.409
515.33
538.747
563.663
590.076
333.918
335.158
337.643
341.389
346.414
352.74
360.392
369.397
379.779
391.562
404.765
419.407
435.503
453.065
472.101
492.618
514.622
538.114
563.096
589.569
331.33
332.599
335.142
338.97
344.099
350.546
358.332
367.477
378.003
389.928
403.271
418.047
434.27
451.949
471.095
491.712
513.807
537.382
562.439
588.978
328.704
330
332.597
336.503
341.73
348.292
356.205
365.485
376.15
388.215
401.695
416.604
432.954
450.753
470.009
490.73
512.919
536.579
561.714
588.325
326.149
327.47
330.116
334.091
339.406
346.071
354.099
363.503
374.296
386.491
400.101
415.136
431.606
449.52
468.885
489.706
511.988
535.735
560.948
587.63
323.738
325.08
327.767
331.802
337.194
343.949
352.078
361.591
372.498
384.81
398.537
413.687
430.268
448.289
467.755
488.672
511.043
534.872
560.161
586.913
321.511
322.87
325.591
329.677
335.133
341.965
350.181
359.788
370.794
383.208
397.037
412.289
428.971
447.088
466.647
487.651
510.105
534.011
559.372
586.191
)
;
    }
    coldSide
    {
        type            mixed;
        refValue        uniform 300;
        refGradient     uniform 0;
        valueFraction   uniform 0.991591;
        source          uniform 0;
        value           nonuniform List<scalar> 
400
(
300.028
300.028
300.028
300.029
300.03
300.03
300.031
300.032
300.033
300.034
300.036
300.036
300.037
300.038
300.04
300.041
300.042
300.043
300.044
300.044
300.028
300.027
300.028
300.029
300.029
300.03
300.03
300.032
300.033
300.034
300.035
300.036
300.037
300.038
300.039
300.04
300.042
300.042