/*--------------------------------*- C++ -*----------------------------------*\
| =========                 |                                                 |
| \\      /  F ield         | OpenFOAM: The Open Source CFD Toolbox           |
|  \\    /   O peration     | Version:  2212                                  |
|   \\  /    A nd           | Website:  www.openfoam.com                      |
|    \\/     M anipulation  |                                                 |
\*---------------------------------------------------------------------------*/
FoamFile
{
    version     2.0;
    format      ascii;
    arch        "LSB;label=32;scalar=64";
    class       volScalarField;
    location    "./ITHACAoutput/true/6.8";
    object      trueState;
}
// * * * * * * * * * * * * * * * * * * * * * * * * * * * * * * * * * * * * * //

dimensions      [0 0 0 1 0 0 0];

internalField   nonuniform List<scalar> 
3200
(
349.964
350.598
351.407
352.289
353.197
354.089
354.912
355.607
356.113
356.38
356.38
356.113
355.607
354.912
354.089
353.197
352.289
351.407
350.598
349.964
343.336
343.872
344.57
345.333
346.119
346.89
347.602
348.202
348.639
348.87
348.87
348.639
348.202
347.602
346.89
346.119
345.333
344.57
343.872
343.336
336.694
337.139
337.727
338.372
339.036
339.688
340.288
340.795
341.164
341.358
341.358
341.164
340.795
340.288
339.688
339.036
338.372
337.727
337.139
336.694
330.042
330.4
330.879
331.406
331.949
332.482
332.972
333.386
333.687
333.846
333.846
333.687
333.386
332.972
332.482
331.949
331.406
330.879
330.4
330.042
323.381
323.656
324.028
324.437
324.859
325.273
325.654
325.975
326.209
326.332
326.332
326.209
325.975
325.654
325.273
324.859
324.437
324.028
323.656
323.381
316.713
316.908
317.173
317.465
317.767
318.062
318.334
318.564
318.73
318.818
318.818
318.73
318.564
318.334
318.062
317.767
317.465
317.173
316.908
316.713
310.041
310.157
310.316
310.492
310.673
310.85
311.013
311.151
311.251
311.304
311.304
311.251
311.151
311.013
310.85
310.673
310.492
310.316
310.157
310.041
303.366
303.405
303.458
303.517
303.578
303.637
303.692
303.738
303.772
303.789
303.789
303.772
303.738
303.692
303.637
303.578
303.517
303.458
303.405
303.366
350.136
350.765
351.567
352.441
353.34
354.222
355.035
355.721
356.22
356.484
356.484
356.22
355.721
355.035
354.222
353.34
352.441
351.567
350.765
350.136
343.484
344.016
344.708
345.464
346.242
347.005
347.708
348.301
348.733
348.96
348.96
348.733
348.301
347.708
347.005
346.242
345.464
344.708
344.016
343.484
336.82
337.261
337.844
338.483
339.14
339.785
340.379
340.879
341.243
341.435
341.435
341.243
340.879
340.379
339.785
339.14
338.483
337.844
337.261
336.82
330.144
330.5
330.975
331.497
332.035
332.561
333.046
333.455
333.752
333.909
333.909
333.752
333.455
333.046
332.561
332.035
331.497
330.975
330.5
330.144
323.461
323.734
324.102
324.508
324.926
325.335
325.712
326.029
326.26
326.381
326.381
326.26
326.029
325.712
325.335
324.926
324.508
324.102
323.734
323.461
316.77
316.964
317.226
317.516
317.814
318.107
318.376
318.602
318.767
318.853
318.853
318.767
318.602
318.376
318.107
317.814
317.516
317.226
316.964
316.77
310.075
310.191
310.348
310.522
310.701
310.877
311.038
311.174
311.273
311.325
311.325
311.273
311.174
311.038
310.877
310.701
310.522
310.348
310.191
310.075
303.378
303.416
303.469
303.527
303.587
303.646
303.7
303.746
303.779
303.796
303.796
303.779
303.746
303.7
303.646
303.587
303.527
303.469
303.416
303.378
350.48
351.099
351.888
352.745
353.626
354.489
355.283
355.953
356.439
356.696
356.696
356.439
355.953
355.283
354.489
353.626
352.745
351.888
351.099
350.48
343.782
344.306
344.986
345.728
346.491
347.237
347.924
348.502
348.923
349.145
349.145
348.923
348.502
347.924
347.237
346.491
345.728
344.986
344.306
343.782
337.072
337.506
338.079
338.706
339.351
339.981
340.561
341.05
341.404
341.591
341.591
341.404
341.05
340.561
339.981
339.351
338.706
338.079
337.506
337.072
330.35
330.7
331.167
331.68
332.207
332.722
333.196
333.595
333.884
334.037
334.037
333.884
333.595
333.196
332.722
332.207
331.68
331.167
330.7
330.35
323.621
323.889
324.252
324.65
325.059
325.46
325.828
326.138
326.363
326.481
326.481
326.363
326.138
325.828
325.46
325.059
324.65
324.252
323.889
323.621
316.885
317.075
317.333
317.618
317.91
318.196
318.459
318.68
318.84
318.925
318.925
318.84
318.68
318.459
318.196
317.91
317.618
317.333
317.075
316.885
310.144
310.258
310.413
310.583
310.759
310.93
311.088
311.221
311.317
311.368
311.368
311.317
311.221
311.088
310.93
310.759
310.583
310.413
310.258
310.144
303.401
303.439
303.491
303.548
303.607
303.664
303.717
303.761
303.794
303.811
303.811
303.794
303.761
303.717
303.664
303.607
303.548
303.491
303.439
303.401
350.998
351.603
352.371
353.205
354.06
354.896
355.663
356.308
356.777
357.024
357.024
356.777
356.308
355.663
354.896
354.06
353.205
352.371
351.603
350.998
344.231
344.742
345.405
346.127
346.867
347.59
348.253
348.811
349.216
349.429
349.429
349.216
348.811
348.253
347.59
346.867
346.127
345.405
344.742
344.231
337.451
337.875
338.434
339.044
339.669
340.28
340.84
341.311
341.653
341.833
341.833
341.653
341.311
340.84
340.28
339.669
339.044
338.434
337.875
337.451
330.66
331.002
331.458
331.956
332.467
332.966
333.424
333.809
334.088
334.235
334.235
334.088
333.809
333.424
332.966
332.467
331.956
331.458
331.002
330.66
323.862
324.124
324.477
324.865
325.262
325.65
326.006
326.305
326.521
326.635
326.635
326.521
326.305
326.006
325.65
325.262
324.865
324.477
324.124
323.862
317.057
317.243
317.494
317.771
318.055
318.332
318.586
318.799
318.954
319.035
319.035
318.954
318.799
318.586
318.332
318.055
317.771
317.494
317.243
317.057
310.247
310.358
310.509
310.675
310.846
311.012
311.165
311.293
311.385
311.434
311.434
311.385
311.293
311.165
311.012
310.846
310.675
310.509
310.358
310.247
303.435
303.472
303.523
303.579
303.636
303.692
303.743
303.785
303.817
303.833
303.833
303.817
303.785
303.743
303.692
303.636
303.579
303.523
303.472
303.435
351.692
352.278
353.021
353.825
354.647
355.448
356.181
356.796
357.242
357.477
357.477
357.242
356.796
356.181
355.448
354.647
353.825
353.021
352.278
351.692
344.831
345.327
345.968
346.664
347.376
348.069
348.703
349.235
349.62
349.823
349.823
349.62
349.235
348.703
348.069
347.376
346.664
345.968
345.327
344.831
337.958
338.37
338.91
339.498
340.1
340.685
341.221
341.67
341.995
342.166
342.166
341.995
341.67
341.221
340.685
340.1
339.498
338.91
338.37
337.958
331.075
331.407
331.847
332.328
332.82
333.298
333.736
334.103
334.368
334.508
334.508
334.368
334.103
333.736
333.298
332.82
332.328
331.847
331.407
331.075
324.185
324.439
324.78
325.154
325.536
325.908
326.249
326.533
326.74
326.848
326.848
326.74
326.533
326.249
325.908
325.536
325.154
324.78
324.439
324.185
317.287
317.467
317.711
317.978
318.251
318.516
318.759
318.963
319.11
319.187
319.187
319.11
318.963
318.759
318.516
318.251
317.978
317.711
317.467
317.287
310.386
310.493
310.639
310.8
310.964
311.123
311.269
311.391
311.479
311.526
311.526
311.479
311.391
311.269
311.123
310.964
310.8
310.639
310.493
310.386
303.482
303.518
303.567
303.62
303.675
303.729
303.778
303.818
303.848
303.864
303.864
303.848
303.818
303.778
303.729
303.675
303.62
303.567
303.518
303.482
352.563
353.127
353.841
354.61
355.393
356.153
356.847
357.427
357.847
358.067
358.067
357.847
357.427
356.847
356.153
355.393
354.61
353.841
353.127
352.563
345.586
346.063
346.678
347.344
348.022
348.68
349.28
349.782
350.145
350.335
350.335
350.145
349.782
349.28
348.68
348.022
347.344
346.678
346.063
345.586
338.596
338.992
339.511
340.073
340.647
341.203
341.71
342.134
342.44
342.601
342.601
342.44
342.134
341.71
341.203
340.647
340.073
339.511
338.992
338.596
331.597
331.916
332.339
332.798
333.267
333.722
334.136
334.482
334.733
334.864
334.864
334.733
334.482
334.136
333.722
333.267
332.798
332.339
331.916
331.597
324.59
324.835
325.163
325.52
325.885
326.238
326.56
326.829
327.023
327.125
327.125
327.023
326.829
326.56
326.238
325.885
325.52
325.163
324.835
324.59
317.577
317.75
317.984
318.239
318.5
318.752
318.982
319.174
319.313
319.386
319.386
319.313
319.174
318.982
318.752
318.5
318.239
317.984
317.75
317.577
310.56
310.663
310.803
310.957
311.113
311.264
311.403
311.518
311.601
311.645
311.645
311.601
311.518
311.403
311.264
311.113
310.957
310.803
310.663
310.56
303.54
303.575
303.622
303.673
303.725
303.776
303.822
303.861
303.889
303.904
303.904
303.889
303.861
303.822
303.776
303.725
303.673
303.622
303.575
303.54
353.616
354.155
354.835
355.565
356.305
357.02
357.671
358.213
358.604
358.809
358.809
358.604
358.213
357.671
357.02
356.305
355.565
354.835
354.155
353.616
346.497
346.953
347.539
348.171
348.812
349.432
349.995
350.463
350.802
350.979
350.979
350.802
350.463
349.995
349.432
348.812
348.171
347.539
346.953
346.497
339.366
339.745
340.239
340.773
341.315
341.839
342.314
342.711
342.996
343.146
343.146
342.996
342.711
342.314
341.839
341.315
340.773
340.239
339.745
339.366
332.227
332.531
332.934
333.371
333.814
334.242
334.631
334.955
335.188
335.31
335.31
335.188
334.955
334.631
334.242
333.814
333.371
332.934
332.531
332.227
325.08
325.314
325.626
325.965
326.31
326.643
326.945
327.197
327.378
327.473
327.473
327.378
327.197
326.945
326.643
326.31
325.965
325.626
325.314
325.08
317.927
318.092
318.315
318.557
318.804
319.041
319.257
319.437
319.566
319.634
319.634
319.566
319.437
319.257
319.041
318.804
318.557
318.315
318.092
317.927
310.77
310.869
311.002
311.148
311.296
311.438
311.568
311.676
311.753
311.794
311.794
311.753
311.676
311.568
311.438
311.296
311.148
311.002
310.869
310.77
303.61
303.643
303.688
303.737
303.787
303.834
303.878
303.914
303.94
303.954
303.954
303.94
303.914
303.878
303.834
303.787
303.737
303.688
303.643
303.61
354.851
355.363
356.007
356.695
357.389
358.057
358.662
359.164
359.525
359.715
359.715
359.525
359.164
358.662
358.057
357.389
356.695
356.007
355.363
354.851
347.566
348
348.555
349.151
349.752
350.33
350.854
351.289
351.601
351.765
351.765
351.601
351.289
350.854
350.33
349.752
349.151
348.555
348
347.566
340.271
340.63
341.098
341.602
342.11
342.599
343.042
343.409
343.673
343.811
343.811
343.673
343.409
343.042
342.599
342.11
341.602
341.098
340.63
340.271
332.966
333.256
333.637
334.049
334.465
334.865
335.226
335.527
335.742
335.855
335.855
335.742
335.527
335.226
334.865
334.465
334.049
333.637
333.256
332.966
325.655
325.877
326.173
326.493
326.816
327.127
327.408
327.642
327.809
327.897
327.897
327.809
327.642
327.408
327.127
326.816
326.493
326.173
325.877
325.655
318.337
318.495
318.706
318.934
319.165
319.387
319.588
319.755
319.875
319.937
319.937
319.875
319.755
319.588
319.387
319.165
318.934
318.706
318.495
318.337
311.016
311.11
311.237
311.374
311.513
311.646
311.767
311.867
311.939
311.976
311.976
311.939
311.867
311.767
311.646
311.513
311.374
311.237
311.11
311.016
303.693
303.724
303.767
303.813
303.859
303.904
303.944
303.978
304.002
304.015
304.015
304.002
303.978
303.944
303.904
303.859
303.813
303.767
303.724
303.693
356.273
356.757
357.363
358.007
358.654
359.273
359.831
360.293
360.624
360.797
360.797
360.624
360.293
359.831
359.273
358.654
358.007
357.363
356.757
356.273
348.798
349.207
349.73
350.287
350.848
351.384
351.867
352.267
352.554
352.703
352.703
352.554
352.267
351.867
351.384
350.848
350.287
349.73
349.207
348.798
341.312
341.651
342.092
342.563
343.037
343.491
343.9
344.237
344.479
344.606
344.606
344.479
344.237
343.9
343.491
343.037
342.563
342.092
341.651
341.312
333.818
334.091
334.45
334.835
335.223
335.594
335.928
336.204
336.402
336.506
336.506
336.402
336.204
335.928
335.594
335.223
334.835
334.45
334.091
333.818
326.317
326.526
326.805
327.104
327.406
327.695
327.954
328.169
328.323
328.403
328.403
328.323
328.169
327.954
327.695
327.406
327.104
326.805
326.526
326.317
318.81
318.959
319.157
319.371
319.587
319.793
319.978
320.132
320.242
320.299
320.299
320.242
320.132
319.978
319.793
319.587
319.371
319.157
318.959
318.81
311.3
311.389
311.508
311.637
311.766
311.89
312.001
312.093
312.159
312.194
312.194
312.159
312.093
312.001
311.89
311.766
311.637
311.508
311.389
311.3
303.788
303.818
303.858
303.901
303.944
303.986
304.023
304.054
304.076
304.088
304.088
304.076
304.054
304.023
303.986
303.944
303.901
303.858
303.818
303.788
357.885
358.34
358.906
359.506
360.105
360.676
361.188
361.609
361.911
362.068
362.068
361.911
361.609
361.188
360.676
360.105
359.506
358.906
358.34
357.885
350.193
350.578
351.067
351.586
352.105
352.599
353.043
353.408
353.669
353.805
353.805
353.669
353.408
353.043
352.599
352.105
351.586
351.067
350.578
350.193
342.492
342.811
343.223
343.662
344.101
344.519
344.894
345.203
345.423
345.538
345.538
345.423
345.203
344.894
344.519
344.101
343.662
343.223
342.811
342.492
334.782
335.039
335.375
335.734
336.093
336.435
336.742
336.994
337.175
337.269
337.269
337.175
336.994
336.742
336.435
336.093
335.734
335.375
335.039
334.782
327.067
327.264
327.524
327.803
328.083
328.349
328.587
328.784
328.924
328.997
328.997
328.924
328.784
328.587
328.349
328.083
327.803
327.524
327.264
327.067
319.346
319.486
319.671
319.871
320.07
320.26
320.431
320.571
320.671
320.723
320.723
320.671
320.571
320.431
320.26
320.07
319.871
319.671
319.486
319.346
311.622
311.705
311.817
311.937
312.056
312.171
312.273
312.357
312.417
312.449
312.449
312.417
312.357
312.273
312.171
312.056
311.937
311.817
311.705
311.622
303.896
303.924
303.961
304.001
304.042
304.08
304.114
304.142
304.162
304.173
304.173
304.162
304.142
304.114
304.08
304.042
304.001
303.961
303.924
303.896
359.689
360.114
360.641
361.197
361.749
362.272
362.739
363.122
363.394
363.536
363.536
363.394
363.122
362.739
362.272
361.749
361.197
360.641
360.114
359.689
351.755
352.115
352.57
353.051
353.529
353.982
354.387
354.718
354.955
355.078
355.078
354.955
354.718
354.387
353.982
353.529
353.051
352.57
352.115
351.755
343.812
344.111
344.494
344.901
345.306
345.689
346.031
346.312
346.511
346.615
346.615
346.511
346.312
346.031
345.689
345.306
344.901
344.494
344.111
343.812
335.862
336.102
336.415
336.748
337.079
337.392
337.672
337.902
338.065
338.15
338.15
338.065
337.902
337.672
337.392
337.079
336.748
336.415
336.102
335.862
327.906
328.091
328.333
328.592
328.849
329.093
329.311
329.489
329.616
329.683
329.683
329.616
329.489
329.311
329.093
328.849
328.592
328.333
328.091
327.906
319.946
320.076
320.249
320.434
320.618
320.792
320.948
321.075
321.166
321.213
321.213
321.166
321.075
320.948
320.792
320.618
320.434
320.249
320.076
319.946
311.982
312.06
312.164
312.275
312.385
312.49
312.583
312.66
312.715
312.743
312.743
312.715
312.66
312.583
312.49
312.385
312.275
312.164
312.06
311.982
304.017
304.043
304.078
304.115
304.152
304.187
304.218
304.244
304.262
304.272
304.272
304.262
304.244
304.218
304.187
304.152
304.115
304.078
304.043
304.017
361.687
362.083
362.572
363.084
363.59
364.067
364.491
364.837
365.083
365.211
365.211
365.083
364.837
364.491
364.067
363.59
363.084
362.572
362.083
361.687
353.486
353.821
354.242
354.686
355.125
355.538
355.905
356.205
356.418
356.529
356.529
356.418
356.205
355.905
355.538
355.125
354.686
354.242
353.821
353.486
345.276
345.553
345.909
346.284
346.655
347.005
347.316
347.569
347.75
347.843
347.843
347.75
347.569
347.316
347.005
346.655
346.284
345.909
345.553
345.276
337.059
337.282
337.572
337.879
338.183
338.469
338.723
338.931
339.078
339.155
339.155
339.078
338.931
338.723
338.469
338.183
337.879
337.572
337.282
337.059
328.837
329.008
329.233
329.472
329.708
329.931
330.129
330.29
330.405
330.464
330.464
330.405
330.29
330.129
329.931
329.708
329.472
329.233
329.008
328.837
320.611
320.732
320.892
321.063
321.232
321.391
321.532
321.647
321.729
321.772
321.772
321.729
321.647
321.532
321.391
321.232
321.063
320.892
320.732
320.611
312.381
312.454
312.55
312.652
312.754
312.849
312.934
313.004
313.053
313.078
313.078
313.053
313.004
312.934
312.849
312.754
312.652
312.55
312.454
312.381
304.151
304.175
304.207
304.241
304.275
304.307
304.336
304.359
304.376
304.384
304.384
304.376
304.359
304.336
304.307
304.275
304.241
304.207
304.175
304.151
363.882
364.249
364.701
365.171
365.634
366.067
366.45
366.762
366.983
367.097
367.097
366.983
366.762
366.45
366.067
365.634
365.171
364.701
364.249
363.882
355.386
355.697
356.086
356.494
356.895
357.27
357.603
357.873
358.064
358.163
358.163
358.064
357.873
357.603
357.27
356.895
356.494
356.086
355.697
355.386
346.883
347.14
347.469
347.813
348.152
348.47
348.752
348.98
349.142
349.226
349.226
349.142
348.98
348.752
348.47
348.152
347.813
347.469
347.14
346.883
338.373
338.58
338.848
339.13
339.408
339.668
339.898
340.085
340.217
340.286
340.286
340.217
340.085
339.898
339.668
339.408
339.13
338.848
338.58
338.373
329.859
330.018
330.225
330.445
330.661
330.863
331.042
331.187
331.29
331.344
331.344
331.29
331.187
331.042
330.863
330.661
330.445
330.225
330.018
329.859
321.34
321.453
321.601
321.758
321.912
322.057
322.185
322.289
322.362
322.4
322.4
322.362
322.289
322.185
322.057
321.912
321.758
321.601
321.453
321.34
312.82
312.887
312.976
313.07
313.163
313.249
313.326
313.389
313.433
313.456
313.456
313.433
313.389
313.326
313.249
313.163
313.07
312.976
312.887
312.82
304.298
304.32
304.35
304.381
304.412
304.441
304.467
304.488
304.503
304.511
304.511
304.503
304.488
304.467
304.441
304.412
304.381
304.35
304.32
304.298
366.274
366.613
367.029
367.46
367.881
368.273
368.619
368.899
369.096
369.199
369.199
369.096
368.899
368.619
368.273
367.881
367.46
367.029
366.613
366.274
357.457
357.744
358.103
358.476
358.841
359.181
359.481
359.723
359.895
359.983
359.983
359.895
359.723
359.481
359.181
358.841
358.476
358.103
357.744
357.457
348.633
348.871
349.174
349.489
349.798
350.086
350.34
350.545
350.69
350.765
350.765
350.69
350.545
350.34
350.086
349.798
349.489
349.174
348.871
348.633
339.804
339.996
340.243
340.501
340.754
340.99
341.197
341.365
341.484
341.545
341.545
341.484
341.365
341.197
340.99
340.754
340.501
340.243
339.996
339.804
330.972
331.119
331.31
331.511
331.707
331.891
332.052
332.183
332.275
332.323
332.323
332.275
332.183
332.052
331.891
331.707
331.511
331.31
331.119
330.972
322.135
322.24
322.376
322.519
322.66
322.791
322.906
323
323.066
323.1
323.1
323.066
323
322.906
322.791
322.66
322.519
322.376
322.24
322.135
313.297
313.359
313.441
313.527
313.612
313.69
313.76
313.816
313.855
313.876
313.876
313.855
313.816
313.76
313.69
313.612
313.527
313.441
313.359
313.297
304.458
304.478
304.506
304.535
304.563
304.589
304.612
304.631
304.645
304.651
304.651
304.645
304.631
304.612
304.589
304.563
304.535
304.506
304.478
304.458
368.859
369.172
369.554
369.947
370.33
370.684
370.995
371.246
371.422
371.514
371.514
371.422
371.246
370.995
370.684
370.33
369.947
369.554
369.172
368.859
359.694
359.959
360.289
360.629
360.961
361.269
361.538
361.756
361.909
361.988
361.988
361.909
361.756
361.538
361.269
360.961
360.629
360.289
359.959
359.694
350.525
350.744
351.022
351.31
351.591
351.851
352.079
352.263
352.393
352.46
352.46
352.393
352.263
352.079
351.851
351.591
351.31
351.022
350.744
350.525
341.351
341.527
341.754
341.99
342.219
342.433
342.619
342.77
342.876
342.931
342.931
342.876
342.77
342.619
342.433
342.219
341.99
341.754
341.527
341.351
332.173
332.309
332.485
332.668
332.847
333.013
333.158
333.275
333.358
333.4
333.4
333.358
333.275
333.158
333.013
332.847
332.668
332.485
332.309
332.173
322.994
323.09
323.215
323.346
323.474
323.592
323.696
323.78
323.839
323.869
323.869
323.839
323.78
323.696
323.592
323.474
323.346
323.215
323.09
322.994
313.813
313.87
313.945
314.024
314.1
314.172
314.234
314.284
314.32
314.338
314.338
314.32
314.284
314.234
314.172
314.1
314.024
313.945
313.87
313.813
304.63
304.649
304.675
304.701
304.727
304.751
304.771
304.788
304.8
304.806
304.806
304.8
304.788
304.771
304.751
304.727
304.701
304.675
304.649
304.63
371.627
371.916
372.265
372.624
372.971
373.291
373.57
373.794
373.952
374.033
374.033
373.952
373.794
373.57
373.291
372.971
372.624
372.265
371.916
371.627
362.089
362.333
362.634
362.945
363.246
363.524
363.766
363.96
364.097
364.167
364.167
364.097
363.96
363.766
363.524
363.246
362.945
362.634
362.333
362.089
352.547
352.749
353.003
353.266
353.521
353.756
353.961
354.126
354.242
354.301
354.301
354.242
354.126
353.961
353.756
353.521
353.266
353.003
352.749
352.547
343.003
343.166
343.373
343.588
343.797
343.989
344.157
344.292
344.386
344.435
344.435
344.386
344.292
344.157
343.989
343.797
343.588
343.373
343.166
343.003
333.457
333.582
333.743
333.91
334.072
334.222
334.353
334.458
334.532
334.569
334.569
334.532
334.458
334.353
334.222
334.072
333.91
333.743
333.582
333.457
323.91
323.999
324.113
324.233
324.349
324.456
324.549
324.624
324.677
324.704
324.704
324.677
324.624
324.549
324.456
324.349
324.233
324.113
323.999
323.91
314.363
314.415
314.484
314.556
314.626
314.69
314.746
314.791
314.823
314.839
314.839
314.823
314.791
314.746
314.69
314.626
314.556
314.484
314.415
314.363
304.815
304.832
304.855
304.879
304.903
304.924
304.943
304.958
304.969
304.974
304.974
304.969
304.958
304.943
304.924
304.903
304.879
304.855
304.832
304.815
374.549
374.814
375.134
375.461
375.775
376.064
376.315
376.516
376.656
376.729
376.729
376.656
376.516
376.315
376.064
375.775
375.461
375.134
374.814
374.549
364.611
364.836
365.112
365.395
365.668
365.918
366.136
366.31
366.432
366.495
366.495
366.432
366.31
366.136
365.918
365.668
365.395
365.112
364.836
364.611
354.674
354.86
355.093
355.333
355.564
355.776
355.96
356.108
356.211
356.264
356.264
356.211
356.108
355.96
355.776
355.564
355.333
355.093
354.86
354.674
344.738
344.888
345.078
345.274
345.463
345.637
345.788
345.909
345.993
346.037
346.037
345.993
345.909
345.788
345.637
345.463
345.274
345.078
344.888
344.738
334.804
334.919
335.066
335.219
335.366
335.501
335.619
335.713
335.778
335.812
335.812
335.778
335.713
335.619
335.501
335.366
335.219
335.066
334.919
334.804
324.871
324.952
325.057
325.166
325.271
325.368
325.452
325.519
325.566
325.591
325.591
325.566
325.519
325.452
325.368
325.271
325.166
325.057
324.952
324.871
314.939
314.987
315.05
315.116
315.179
315.237
315.288
315.328
315.356
315.371
315.371
315.356
315.328
315.288
315.237
315.179
315.116
315.05
314.987
314.939
305.008
305.024
305.045
305.067
305.088
305.108
305.124
305.138
305.147
305.152
305.152
305.147
305.138
305.124
305.108
305.088
305.067
305.045
305.024
305.008
377.549
377.793
378.086
378.384
378.67
378.931
379.157
379.337
379.463
379.528
379.528
379.463
379.337
379.157
378.931
378.67
378.384
378.086
377.793
377.549
367.19
367.396
367.649
367.908
368.155
368.382
368.578
368.735
368.844
368.9
368.9
368.844
368.735
368.578
368.382
368.155
367.908
367.649
367.396
367.19
356.839
357.011
357.224
357.443
357.653
357.845
358.011
358.144
358.236
358.284
358.284
358.236
358.144
358.011
357.845
357.653
357.443
357.224
357.011
356.839
346.498
346.636
346.81
346.99
347.162
347.319
347.455
347.564
347.639
347.678
347.678
347.639
347.564
347.455
347.319
347.162
346.99
346.81
346.636
346.498
336.166
336.271
336.407
336.546
336.68
336.803
336.909
336.993
337.052
337.083
337.083
337.052
336.993
336.909
336.803
336.68
336.546
336.407
336.271
336.166
325.84
325.915
326.011
326.111
326.207
326.294
326.37
326.431
326.473
326.494
326.494
326.473
326.431
326.37
326.294
326.207
326.111
326.011
325.915
325.84
315.519
315.564
315.622
315.682
315.739
315.792
315.837
315.874
315.899
315.912
315.912
315.899
315.874
315.837
315.792
315.739
315.682
315.622
315.564
315.519
305.202
305.217
305.236
305.256
305.276
305.293
305.309
305.321
305.329
305.334
305.334
305.329
305.321
305.309
305.293
305.276
305.256
305.236
305.217
305.202
380.435
380.66
380.931
381.204
381.466
381.704
381.909
382.072
382.185
382.244
382.244
382.185
382.072
381.909
381.704
381.466
381.204
380.931
380.66
380.435
369.639
369.83
370.064
370.302
370.529
370.736
370.914
371.056
371.155
371.205
371.205
371.155
371.056
370.914
370.736
370.529
370.302
370.064
369.83
369.639
358.874
359.033
359.23
359.432
359.625
359.8
359.951
360.072
360.156
360.199
360.199
360.156
360.072
359.951
359.8
359.625
359.432
359.23
359.033
358.874
348.138
348.265
348.426
348.592
348.75
348.893
349.018
349.116
349.185
349.22
349.22
349.185
349.116
349.018
348.893
348.75
348.592
348.426
348.265
348.138
337.425
337.523
337.648
337.776
337.9
338.012
338.108
338.185
338.239
338.266
338.266
338.239
338.185
338.108
338.012
337.9
337.776
337.648
337.523
337.425
326.731
326.8
326.889
326.981
327.07
327.15
327.219
327.274
327.312
327.332
327.332
327.312
327.274
327.219
327.15
327.07
326.981
326.889
326.8
326.731
316.051
316.092
316.146
316.201
316.254
316.302
316.344
316.377
316.4
316.412
316.412
316.4
316.377
316.344
316.302
316.254
316.201
316.146
316.092
316.051
305.379
305.393
305.411
305.43
305.448
305.464
305.478
305.489
305.497
305.501
305.501
305.497
305.489
305.478
305.464
305.448
305.43
305.411
305.393
305.379
382.698
382.909
383.164
383.421
383.665
383.887
384.078
384.229
384.334
384.388
384.388
384.334
384.229
384.078
383.887
383.665
383.421
383.164
382.909
382.698
371.487
371.667
371.888
372.112
372.325
372.518
372.685
372.817
372.909
372.956
372.956
372.909
372.817
372.685
372.518
372.325
372.112
371.888
371.667
371.487
360.362
360.512
360.699
360.889
361.07
361.235
361.377
361.489
361.567
361.607
361.607
361.567
361.489
361.377
361.235
361.07
360.889
360.699
360.512
360.362
349.307
349.428
349.58
349.736
349.885
350.021
350.137
350.23
350.294
350.327
350.327
350.294
350.23
350.137
350.021
349.885
349.736
349.58
349.428
349.307
338.305
338.398
338.517
338.639
338.755
338.861
338.952
339.024
339.074
339.1
339.1
339.074
339.024
338.952
338.861
338.755
338.639
338.517
338.398
338.305
327.345
327.411
327.496
327.583
327.667
327.742
327.808
327.859
327.895
327.914
327.914
327.895
327.859
327.808
327.742
327.667
327.583
327.496
327.411
327.345
316.414
316.454
316.505
316.557
316.607
316.653
316.692
316.723
316.745
316.756
316.756
316.745
316.723
316.692
316.653
316.607
316.557
316.505
316.454
316.414
305.5
305.514
305.531
305.548
305.565
305.58
305.593
305.604
305.611
305.615
305.615
305.611
305.604
305.593
305.58
305.565
305.548
305.531
305.514
305.5
)
;

boundaryField
{
    hotSide
    {
        type            fixedGradient;
        gradient        nonuniform List<scalar> 
400
(
529.073
530.927
534.642
540.231
547.713
557.111
568.452
581.766
597.082
614.433
633.846
655.35
678.97
704.729
732.647
762.742
795.027
829.514
866.212
905.13
537.413
539.201
542.787
548.187
555.426
564.537
575.555
588.517
603.463
620.432
639.46
660.581
683.827
709.224
736.796
766.562
798.538
832.736
869.166
907.835
546.439
548.148
551.579
556.754
563.708
572.482
583.12
595.674
610.193
626.724
645.315
666.007
688.835
713.832
741.025
770.434
802.077
835.966
872.111
910.518
556
557.618
560.869
565.785
572.409
580.795
591.002
603.093
617.131
633.176
651.284
671.504
693.88
718.446
745.234
774.266
805.56
839.129
874.98
913.118
565.831
567.345
570.395
575.02
581.276
589.233
598.965
610.55
624.068
639.59
657.183
676.905
698.806
722.926
749.298
777.945
808.886
842.132
877.69
915.564
575.521
576.924
579.759
584.074
589.941
597.444
606.678
617.738
630.718
645.704
662.774
681.996
703.423
727.101
753.064
781.337
811.937
844.874
880.153
917.777
584.514
585.808
588.427
592.434
597.916
604.973
613.72
624.269
636.73
651.204
667.778
686.527
707.512
730.78
756.366
784.296
814.586
847.244
882.274
919.675
592.148
593.342
595.767
599.498
604.634
611.295
619.611
629.71
641.717
655.745
671.89
690.234
710.842
733.763
759.033
786.677
816.709
849.137
883.962
921.18
597.734
598.852
601.129
604.649
609.522
615.882
623.872
633.633
645.301
658.997
674.825
692.871
713.202
735.87
760.911
788.348
818.196
850.459
885.137
922.226
600.694
601.77
603.967
607.372
612.103
618.3
626.113
635.692
647.178
660.697
676.355
694.243
714.428
736.962
761.882
789.211
818.961
851.138
885.741
922.762
600.694
601.77
603.967
607.372
612.103
618.3
626.113
635.692
647.178
660.697
676.355
694.243
714.428
736.962
761.882
789.211
818.961
851.138
885.741
922.762
597.734
598.852
601.129
604.649
609.522
615.882
623.872
633.633
645.301
658.997
674.825
692.871
713.202
735.87
760.911
788.348
818.196
850.459
885.137
922.226
592.148
593.342
595.767
599.498
604.634
611.295
619.611
629.71
641.717
655.745
671.89
690.234
710.842
733.763
759.033
786.677
816.709
849.137
883.962
921.18
584.514
585.808
588.427
592.434
597.916
604.973
613.72
624.269
636.73
651.204
667.778
686.527
707.512
730.78
756.366
784.296
814.586
847.244
882.274
919.675
575.521
576.924
579.759
584.074
589.941
597.444
606.678
617.738
630.718
645.704
662.774
681.996
703.423
727.101
753.064
781.337
811.937
844.874
880.153
917.777
565.831
567.345
570.395
575.02
581.276
589.233
598.965
610.55
624.068
639.59
657.183
676.905
698.806
722.926
749.298
777.945
808.886
842.132
877.69
915.564
556
557.618
560.869
565.785
572.409
580.795
591.002
603.093
617.131
633.176
651.284
671.504
693.88
718.446
745.234
774.266
805.56
839.129
874.98
913.118
546.439
548.148
551.579
556.754
563.708
572.482
583.12
595.674
610.193
626.724
645.315
666.007
688.835
713.832
741.025
770.434
802.077
835.966
872.111
910.518
537.413
539.201
542.787
548.187
555.426
564.537
575.555
588.517
603.463
620.432
639.46
660.581
683.827
709.224
736.796
766.562
798.538
832.736
869.166
907.835
529.073
530.927
534.642
540.231
547.713
557.111
568.452
581.766
597.082
614.433
633.846
655.35
678.97
704.729
732.647
762.742
795.027
829.514
866.212
905.13
)
;
    }
    coldSide
    {
        type            mixed;
        refValue        uniform 300;
        refGradient     uniform 0;
        valueFraction   uniform 0.991591;
        source          uniform 0;
        value           nonuniform List<scalar> 
400
(
300.028
300.028
300.029
300.029
300.029
300.03
300.03
300.031
300.032
300.033
300.034
300.035
300.036
300.037
300.039
300.04
300.042
300.044
300.045
300.046
300.029
300.029
300.029
300.029
300.03
300.03
300.031
300.031
300.032
300.033
300.034
300.035
300.036
300.038
300.039
300.041
300.042
300.044