/*--------------------------------*- C++ -*----------------------------------*\
| =========                 |                                                 |
| \\      /  F ield         | OpenFOAM: The Open Source CFD Toolbox           |
|  \\    /   O peration     | Version:  2212                                  |
|   \\  /    A nd           | Website:  www.openfoam.com                      |
|    \\/     M anipulation  |                                                 |
\*---------------------------------------------------------------------------*/
FoamFile
{
    version     2.0;
    format      ascii;
    arch        "LSB;label=32;scalar=64";
    class       volScalarField;
    location    "0";
    object      Ttrue;
}
// * * * * * * * * * * * * * * * * * * * * * * * * * * * * * * * * * * * * * //

dimensions      [0 0 0 1 0 0 0];

internalField   nonuniform List<scalar> 
3200
(
342.898
343.138
343.445
343.779
344.124
344.462
344.774
345.037
345.229
345.33
345.33
345.229
345.037
344.774
344.462
344.124
343.779
343.445
343.138
342.898
337.281
337.484
337.749
338.038
338.336
338.628
338.898
339.125
339.291
339.379
339.379
339.291
339.125
338.898
338.628
338.336
338.038
337.749
337.484
337.281
331.62
331.789
332.012
332.256
332.508
332.755
332.983
333.175
333.314
333.388
333.388
333.314
333.175
332.983
332.755
332.508
332.256
332.012
331.789
331.62
325.923
326.059
326.241
326.441
326.647
326.848
327.034
327.191
327.305
327.365
327.365
327.305
327.191
327.034
326.848
326.647
326.441
326.241
326.059
325.923
320.198
320.302
320.443
320.598
320.758
320.915
321.06
321.181
321.27
321.317
321.317
321.27
321.181
321.06
320.915
320.758
320.598
320.443
320.302
320.198
314.45
314.524
314.624
314.735
314.849
314.961
315.064
315.151
315.214
315.248
315.248
315.214
315.151
315.064
314.961
314.849
314.735
314.624
314.524
314.45
308.686
308.73
308.79
308.857
308.925
308.993
309.055
309.107
309.145
309.165
309.165
309.145
309.107
309.055
308.993
308.925
308.857
308.79
308.73
308.686
302.913
302.927
302.948
302.97
302.993
303.015
303.036
303.054
303.066
303.073
303.073
303.066
303.054
303.036
303.015
302.993
302.97
302.948
302.927
302.913
343.078
343.316
343.62
343.951
344.292
344.626
344.935
345.195
345.384
345.484
345.484
345.384
345.195
344.935
344.626
344.292
343.951
343.62
343.316
343.078
337.437
337.638
337.901
338.187
338.482
338.771
339.038
339.262
339.426
339.512
339.512
339.426
339.262
339.038
338.771
338.482
338.187
337.901
337.638
337.437
331.752
331.92
332.141
332.383
332.632
332.876
333.101
333.291
333.429
333.502
333.502
333.429
333.291
333.101
332.876
332.632
332.383
332.141
331.92
331.752
326.032
326.166
326.347
326.544
326.748
326.948
327.132
327.287
327.399
327.459
327.459
327.399
327.287
327.132
326.948
326.748
326.544
326.347
326.166
326.032
320.282
320.386
320.525
320.679
320.837
320.993
321.135
321.256
321.343
321.389
321.389
321.343
321.256
321.135
320.993
320.837
320.679
320.525
320.386
320.282
314.51
314.583
314.683
314.793
314.906
315.017
315.119
315.204
315.267
315.3
315.3
315.267
315.204
315.119
315.017
314.906
314.793
314.683
314.583
314.51
308.722
308.766
308.826
308.892
308.96
309.026
309.087
309.139
309.176
309.196
309.196
309.176
309.139
309.087
309.026
308.96
308.892
308.826
308.766
308.722
302.925
302.939
302.959
302.982
303.004
303.027
303.047
303.064
303.077
303.084
303.084
303.077
303.064
303.047
303.027
303.004
302.982
302.959
302.939
302.925
343.437
343.671
343.97
344.295
344.629
344.956
345.258
345.511
345.696
345.793
345.793
345.696
345.511
345.258
344.956
344.629
344.295
343.97
343.671
343.437
337.749
337.947
338.205
338.486
338.775
339.058
339.319
339.538
339.697
339.781
339.781
339.697
339.538
339.319
339.058
338.775
338.486
338.205
337.947
337.749
332.017
332.181
332.399
332.636
332.881
333.12
333.339
333.524
333.659
333.73
333.73
333.659
333.524
333.339
333.12
332.881
332.636
332.399
332.181
332.017
326.248
326.381
326.558
326.752
326.952
327.147
327.327
327.478
327.588
327.646
327.646
327.588
327.478
327.327
327.147
326.952
326.752
326.558
326.381
326.248
320.451
320.553
320.69
320.841
320.996
321.148
321.288
321.405
321.49
321.535
321.535
321.49
321.405
321.288
321.148
320.996
320.841
320.69
320.553
320.451
314.631
314.703
314.801
314.909
315.019
315.128
315.227
315.311
315.372
315.404
315.404
315.372
315.311
315.227
315.128
315.019
314.909
314.801
314.703
314.631
308.795
308.838
308.897
308.961
309.028
309.093
309.153
309.203
309.239
309.259
309.259
309.239
309.203
309.153
309.093
309.028
308.961
308.897
308.838
308.795
302.949
302.964
302.983
303.005
303.027
303.049
303.069
303.086
303.098
303.105
303.105
303.098
303.086
303.069
303.049
303.027
303.005
302.983
302.964
302.949
343.976
344.205
344.497
344.813
345.137
345.454
345.745
345.989
346.167
346.26
346.26
346.167
345.989
345.745
345.454
345.137
344.813
344.497
344.205
343.976
338.217
338.411
338.662
338.936
339.216
339.49
339.742
339.953
340.107
340.188
340.188
340.107
339.953
339.742
339.49
339.216
338.936
338.662
338.411
338.217
332.414
332.575
332.786
333.018
333.255
333.486
333.699
333.877
334.007
334.075
334.075
334.007
333.877
333.699
333.486
333.255
333.018
332.786
332.575
332.414
326.574
326.703
326.876
327.065
327.259
327.448
327.621
327.767
327.873
327.929
327.929
327.873
327.767
327.621
327.448
327.259
327.065
326.876
326.703
326.574
320.704
320.804
320.938
321.085
321.235
321.382
321.517
321.63
321.712
321.756
321.756
321.712
321.63
321.517
321.382
321.235
321.085
320.938
320.804
320.704
314.812
314.882
314.978
315.083
315.19
315.295
315.392
315.473
315.531
315.562
315.562
315.531
315.473
315.392
315.295
315.19
315.083
314.978
314.882
314.812
308.904
308.946
309.003
309.066
309.131
309.194
309.251
309.3
309.335
309.354
309.354
309.335
309.3
309.251
309.194
309.131
309.066
309.003
308.946
308.904
302.986
303
303.019
303.04
303.062
303.083
303.102
303.118
303.13
303.136
303.136
303.13
303.118
303.102
303.083
303.062
303.04
303.019
303
302.986
344.697
344.919
345.201
345.506
345.817
346.121
346.398
346.632
346.801
346.89
346.89
346.801
346.632
346.398
346.121
345.817
345.506
345.201
344.919
344.697
338.843
339.031
339.274
339.538
339.807
340.07
340.31
340.512
340.658
340.735
340.735
340.658
340.512
340.31
340.07
339.807
339.538
339.274
339.031
338.843
332.944
333.1
333.305
333.528
333.756
333.978
334.181
334.351
334.474
334.539
334.539
334.474
334.351
334.181
333.978
333.756
333.528
333.305
333.1
332.944
327.008
327.134
327.301
327.483
327.669
327.851
328.017
328.156
328.257
328.31
328.31
328.257
328.156
328.017
327.851
327.669
327.483
327.301
327.134
327.008
321.043
321.139
321.269
321.41
321.555
321.696
321.825
321.933
322.011
322.052
322.052
322.011
321.933
321.825
321.696
321.555
321.41
321.269
321.139
321.043
315.054
315.122
315.215
315.316
315.419
315.52
315.612
315.689
315.745
315.774
315.774
315.745
315.689
315.612
315.52
315.419
315.316
315.215
315.122
315.054
309.049
309.09
309.145
309.206
309.268
309.329
309.384
309.43
309.464
309.481
309.481
309.464
309.43
309.384
309.329
309.268
309.206
309.145
309.09
309.049
303.035
303.048
303.067
303.087
303.108
303.128
303.147
303.162
303.173
303.179
303.179
303.173
303.162
303.147
303.128
303.108
303.087
303.067
303.048
303.035
345.599
345.813
346.083
346.375
346.672
346.96
347.223
347.443
347.602
347.685
347.685
347.602
347.443
347.223
346.96
346.672
346.375
346.083
345.813
345.599
339.626
339.807
340.04
340.293
340.55
340.799
341.027
341.217
341.354
341.427
341.427
341.354
341.217
341.027
340.799
340.55
340.293
340.04
339.807
339.626
333.608
333.758
333.955
334.168
334.385
334.596
334.788
334.949
335.065
335.126
335.126
335.065
334.949
334.788
334.596
334.385
334.168
333.955
333.758
333.608
327.553
327.673
327.834
328.008
328.186
328.358
328.515
328.646
328.741
328.791
328.791
328.741
328.646
328.515
328.358
328.186
328.008
327.834
327.673
327.553
321.467
321.559
321.684
321.819
321.957
322.091
322.213
322.315
322.389
322.428
322.428
322.389
322.315
322.213
322.091
321.957
321.819
321.684
321.559
321.467
315.357
315.423
315.512
315.608
315.707
315.803
315.89
315.963
316.015
316.043
316.043
316.015
315.963
315.89
315.803
315.707
315.608
315.512
315.423
315.357
309.231
309.271
309.324
309.382
309.441
309.499
309.551
309.595
309.626
309.643
309.643
309.626
309.595
309.551
309.499
309.441
309.382
309.324
309.271
309.231
303.096
303.109
303.126
303.146
303.166
303.185
303.203
303.217
303.228
303.233
303.233
303.228
303.217
303.203
303.185
303.166
303.146
303.126
303.109
303.096
346.684
346.888
347.146
347.423
347.703
347.975
348.221
348.427
348.575
348.653
348.653
348.575
348.427
348.221
347.975
347.703
347.423
347.146
346.888
346.684
340.568
340.741
340.964
341.203
341.446
341.681
341.894
342.072
342.2
342.268
342.268
342.2
342.072
341.894
341.681
341.446
341.203
340.964
340.741
340.568
334.407
334.55
334.738
334.94
335.146
335.344
335.524
335.675
335.783
335.84
335.84
335.783
335.675
335.524
335.344
335.146
334.94
334.738
334.55
334.407
328.207
328.323
328.475
328.641
328.809
328.971
329.118
329.241
329.33
329.376
329.376
329.33
329.241
329.118
328.971
328.809
328.641
328.475
328.323
328.207
321.976
322.065
322.184
322.312
322.443
322.569
322.684
322.779
322.848
322.884
322.884
322.848
322.779
322.684
322.569
322.443
322.312
322.184
322.065
321.976
315.722
315.785
315.869
315.961
316.054
316.144
316.226
316.294
316.343
316.369
316.369
316.343
316.294
316.226
316.144
316.054
315.961
315.869
315.785
315.722
309.45
309.488
309.539
309.594
309.65
309.704
309.753
309.794
309.823
309.839
309.839
309.823
309.794
309.753
309.704
309.65
309.594
309.539
309.488
309.45
303.169
303.182
303.199
303.217
303.236
303.254
303.27
303.284
303.294
303.299
303.299
303.294
303.284
303.27
303.254
303.236
303.217
303.199
303.182
303.169
347.953
348.147
348.391
348.652
348.915
349.168
349.398
349.588
349.725
349.797
349.797
349.725
349.588
349.398
349.168
348.915
348.652
348.391
348.147
347.953
341.67
341.835
342.045
342.271
342.499
342.718
342.917
343.081
343.2
343.262
343.262
343.2
343.081
342.917
342.718
342.499
342.271
342.045
341.835
341.67
335.341
335.477
335.655
335.846
336.038
336.224
336.391
336.531
336.631
336.683
336.683
336.631
336.531
336.391
336.224
336.038
335.846
335.655
335.477
335.341
328.973
329.082
329.227
329.383
329.541
329.692
329.829
329.943
330.025
330.068
330.068
330.025
329.943
329.829
329.692
329.541
329.383
329.227
329.082
328.973
322.573
322.657
322.769
322.89
323.013
323.131
323.237
323.326
323.389
323.423
323.423
323.389
323.326
323.237
323.131
323.013
322.89
322.769
322.657
322.573
316.148
316.208
316.288
316.374
316.462
316.546
316.622
316.686
316.731
316.755
316.755
316.731
316.686
316.622
316.546
316.462
316.374
316.288
316.208
316.148
309.707
309.742
309.79
309.842
309.895
309.945
309.991
310.029
310.056
310.071
310.071
310.056
310.029
309.991
309.945
309.895
309.842
309.79
309.742
309.707
303.255
303.267
303.283
303.3
303.318
303.335
303.35
303.363
303.372
303.377
303.377
303.372
303.363
303.35
303.335
303.318
303.3
303.283
303.267
303.255
349.407
349.59
349.82
350.064
350.309
350.544
350.756
350.931
351.056
351.122
351.122
351.056
350.931
350.756
350.544
350.309
350.064
349.82
349.59
349.407
342.933
343.088
343.286
343.498
343.71
343.914
344.097
344.248
344.357
344.414
344.414
344.357
344.248
344.097
343.914
343.71
343.498
343.286
343.088
342.933
336.411
336.54
336.707
336.886
337.065
337.237
337.392
337.52
337.612
337.66
337.66
337.612
337.52
337.392
337.237
337.065
336.886
336.707
336.54
336.411
329.85
329.953
330.089
330.235
330.382
330.523
330.65
330.754
330.829
330.869
330.869
330.829
330.754
330.65
330.523
330.382
330.235
330.089
329.953
329.85
323.256
323.335
323.441
323.554
323.669
323.778
323.877
323.958
324.016
324.047
324.047
324.016
323.958
323.877
323.778
323.669
323.554
323.441
323.335
323.256
316.637
316.693
316.768
316.849
316.931
317.009
317.08
317.138
317.179
317.201
317.201
317.179
317.138
317.08
317.009
316.931
316.849
316.768
316.693
316.637
310
310.034
310.079
310.128
310.177
310.224
310.266
310.301
310.326
310.339
310.339
310.326
310.301
310.266
310.224
310.177
310.128
310.079
310.034
310
303.353
303.365
303.38
303.396
303.413
303.428
303.442
303.454
303.462
303.467
303.467
303.462
303.454
303.442
303.428
303.413
303.396
303.38
303.365
303.353
351.047
351.22
351.434
351.662
351.889
352.105
352.299
352.459
352.573
352.633
352.633
352.573
352.459
352.299
352.105
351.889
351.662
351.434
351.22
351.047
344.358
344.503
344.689
344.886
345.082
345.27
345.438
345.576
345.675
345.727
345.727
345.675
345.576
345.438
345.27
345.082
344.886
344.689
344.503
344.358
337.619
337.74
337.896
338.062
338.229
338.387
338.529
338.646
338.73
338.774
338.774
338.73
338.646
338.529
338.387
338.229
338.062
337.896
337.74
337.619
330.839
330.936
331.064
331.2
331.336
331.466
331.582
331.678
331.746
331.782
331.782
331.746
331.678
331.582
331.466
331.336
331.2
331.064
330.936
330.839
324.026
324.101
324.2
324.306
324.411
324.512
324.603
324.677
324.73
324.758
324.758
324.73
324.677
324.603
324.512
324.411
324.306
324.2
324.101
324.026
317.188
317.241
317.311
317.387
317.462
317.535
317.599
317.652
317.69
317.71
317.71
317.69
317.652
317.599
317.535
317.462
317.387
317.311
317.241
317.188
310.332
310.363
310.405
310.451
310.496
310.539
310.578
310.61
310.633
310.645
310.645
310.633
310.61
310.578
310.539
310.496
310.451
310.405
310.363
310.332
303.464
303.475
303.489
303.504
303.52
303.534
303.547
303.558
303.565
303.569
303.569
303.565
303.558
303.547
303.534
303.52
303.504
303.489
303.475
303.464
352.874
353.036
353.235
353.446
353.655
353.854
354.031
354.176
354.279
354.333
354.333
354.279
354.176
354.031
353.854
353.655
353.446
353.235
353.036
352.874
345.944
346.081
346.253
346.436
346.617
346.789
346.942
347.068
347.157
347.204
347.204
347.157
347.068
346.942
346.789
346.617
346.436
346.253
346.081
345.944
338.964
339.077
339.222
339.377
339.53
339.675
339.805
339.911
339.987
340.026
340.026
339.987
339.911
339.805
339.675
339.53
339.377
339.222
339.077
338.964
331.941
332.032
332.151
332.277
332.402
332.521
332.627
332.714
332.776
332.808
332.808
332.776
332.714
332.627
332.521
332.402
332.277
332.151
332.032
331.941
324.885
324.955
325.046
325.145
325.242
325.335
325.417
325.485
325.533
325.558
325.558
325.533
325.485
325.417
325.335
325.242
325.145
325.046
324.955
324.885
317.802
317.851
317.917
317.987
318.057
318.123
318.182
318.23
318.264
318.282
318.282
318.264
318.23
318.182
318.123
318.057
317.987
317.917
317.851
317.802
310.701
310.73
310.769
310.811
310.853
310.893
310.928
310.957
310.978
310.989
310.989
310.978
310.957
310.928
310.893
310.853
310.811
310.769
310.73
310.701
303.588
303.598
303.611
303.625
303.639
303.653
303.665
303.674
303.681
303.685
303.685
303.681
303.674
303.665
303.653
303.639
303.625
303.611
303.598
303.588
354.889
355.04
355.225
355.419
355.611
355.792
355.952
356.084
356.177
356.225
356.225
356.177
356.084
355.952
355.792
355.611
355.419
355.225
355.04
354.889
347.694
347.821
347.981
348.149
348.316
348.472
348.612
348.725
348.806
348.848
348.848
348.806
348.725
348.612
348.472
348.316
348.149
347.981
347.821
347.694
340.447
340.553
340.687
340.83
340.97
341.103
341.221
341.317
341.385
341.42
341.42
341.385
341.317
341.221
341.103
340.97
340.83
340.687
340.553
340.447
333.157
333.241
333.351
333.468
333.583
333.691
333.788
333.866
333.922
333.951
333.951
333.922
333.866
333.788
333.691
333.583
333.468
333.351
333.241
333.157
325.831
325.896
325.982
326.072
326.162
326.246
326.321
326.382
326.426
326.448
326.448
326.426
326.382
326.321
326.246
326.162
326.072
325.982
325.896
325.831
318.479
318.525
318.586
318.65
318.714
318.775
318.828
318.872
318.903
318.919
318.919
318.903
318.872
318.828
318.775
318.714
318.65
318.586
318.525
318.479
311.107
311.135
311.171
311.21
311.249
311.285
311.317
311.343
311.362
311.372
311.372
311.362
311.343
311.317
311.285
311.249
311.21
311.171
311.135
311.107
303.725
303.734
303.746
303.759
303.772
303.784
303.795
303.804
303.81
303.813
303.813
303.81
303.804
303.795
303.784
303.772
303.759
303.746
303.734
303.725
357.092
357.232
357.403
357.581
357.756
357.921
358.066
358.184
358.268
358.311
358.311
358.268
358.184
358.066
357.921
357.756
357.581
357.403
357.232
357.092
349.607
349.725
349.873
350.027
350.179
350.322
350.448
350.55
350.622
350.66
350.66
350.622
350.55
350.448
350.322
350.179
350.027
349.873
349.725
349.607
342.069
342.166
342.291
342.422
342.55
342.671
342.777
342.864
342.925
342.957
342.957
342.925
342.864
342.777
342.671
342.55
342.422
342.291
342.166
342.069
334.485
334.564
334.665
334.772
334.878
334.976
335.063
335.134
335.184
335.21
335.21
335.184
335.134
335.063
334.976
334.878
334.772
334.665
334.564
334.485
326.866
326.926
327.005
327.088
327.17
327.247
327.315
327.37
327.409
327.429
327.429
327.409
327.37
327.315
327.247
327.17
327.088
327.005
326.926
326.866
319.219
319.262
319.318
319.377
319.436
319.49
319.539
319.578
319.606
319.621
319.621
319.606
319.578
319.539
319.49
319.436
319.377
319.318
319.262
319.219
311.552
311.578
311.611
311.647
311.682
311.715
311.744
311.768
311.785
311.793
311.793
311.785
311.768
311.744
311.715
311.682
311.647
311.611
311.578
311.552
303.874
303.882
303.894
303.905
303.917
303.928
303.938
303.946
303.952
303.955
303.955
303.952
303.946
303.938
303.928
303.917
303.905
303.894
303.882
303.874
359.482
359.611
359.768
359.932
360.091
360.24
360.371
360.477
360.552
360.591
360.591
360.552
360.477
360.371
360.24
360.091
359.932
359.768
359.611
359.482
351.682
351.791
351.927
352.069
352.207
352.336
352.45
352.542
352.606
352.64
352.64
352.606
352.542
352.45
352.336
352.207
352.069
351.927
351.791
351.682
343.827
343.918
344.032
344.152
344.269
344.378
344.474
344.552
344.607
344.635
344.635
344.607
344.552
344.474
344.378
344.269
344.152
344.032
343.918
343.827
335.926
335.999
336.092
336.19
336.286
336.375
336.454
336.518
336.563
336.586
336.586
336.563
336.518
336.454
336.375
336.286
336.19
336.092
335.999
335.926
327.988
328.044
328.116
328.192
328.267
328.336
328.398
328.447
328.482
328.5
328.5
328.482
328.447
328.398
328.336
328.267
328.192
328.116
328.044
327.988
320.021
320.061
320.112
320.167
320.22
320.27
320.313
320.349
320.374
320.387
320.387
320.374
320.349
320.313
320.27
320.22
320.167
320.112
320.061
320.021
312.034
312.058
312.089
312.122
312.154
312.183
312.21
312.231
312.246
312.254
312.254
312.246
312.231
312.21
312.183
312.154
312.122
312.089
312.058
312.034
304.035
304.043
304.054
304.065
304.075
304.085
304.094
304.101
304.106
304.109
304.109
304.106
304.101
304.094
304.085
304.075
304.065
304.054
304.043
304.035
362.054
362.173
362.318
362.467
362.612
362.746
362.864
362.959
363.026
363.061
363.061
363.026
362.959
362.864
362.746
362.612
362.467
362.318
362.173
362.054
353.915
354.015
354.14
354.269
354.395
354.512
354.614
354.696
354.754
354.784
354.784
354.754
354.696
354.614
354.512
354.395
354.269
354.14
354.015
353.915
345.719
345.802
345.907
346.017
346.123
346.222
346.308
346.378
346.427
346.452
346.452
346.427
346.378
346.308
346.222
346.123
346.017
345.907
345.802
345.719
337.475
337.542
337.628
337.718
337.805
337.886
337.956
338.013
338.054
338.074
338.074
338.054
338.013
337.956
337.886
337.805
337.718
337.628
337.542
337.475
329.194
329.246
329.312
329.382
329.449
329.512
329.567
329.612
329.643
329.659
329.659
329.643
329.612
329.567
329.512
329.449
329.382
329.312
329.246
329.194
320.884
320.92
320.968
321.017
321.066
321.111
321.15
321.182
321.204
321.216
321.216
321.204
321.182
321.15
321.111
321.066
321.017
320.968
320.92
320.884
312.553
312.574
312.603
312.633
312.662
312.689
312.712
312.731
312.745
312.752
312.752
312.745
312.731
312.712
312.689
312.662
312.633
312.603
312.574
312.553
304.209
304.216
304.226
304.236
304.246
304.255
304.263
304.269
304.274
304.276
304.276
304.274
304.269
304.263
304.255
304.246
304.236
304.226
304.216
304.209
364.797
364.906
365.039
365.175
365.306
365.428
365.533
365.619
365.678
365.709
365.709
365.678
365.619
365.533
365.428
365.306
365.175
365.039
364.906
364.797
356.294
356.386
356.5
356.618
356.732
356.838
356.929
357.003
357.055
357.082
357.082
357.055
357.003
356.929
356.838
356.732
356.618
356.5
356.386
356.294
347.733
347.809
347.906
348.005
348.102
348.191
348.269
348.331
348.375
348.398
348.398
348.375
348.331
348.269
348.191
348.102
348.005
347.906
347.809
347.733
339.124
339.186
339.264
339.346
339.425
339.498
339.561
339.613
339.648
339.667
339.667
339.648
339.613
339.561
339.498
339.425
339.346
339.264
339.186
339.124
330.477
330.524
330.585
330.649
330.71
330.767
330.817
330.856
330.884
330.899
330.899
330.884
330.856
330.817
330.767
330.71
330.649
330.585
330.524
330.477
321.801
321.834
321.878
321.923
321.967
322.007
322.043
322.071
322.091
322.102
322.102
322.091
322.071
322.043
322.007
321.967
321.923
321.878
321.834
321.801
313.103
313.123
313.149
313.177
313.203
313.227
313.249
313.266
313.278
313.284
313.284
313.278
313.266
313.249
313.227
313.203
313.177
313.149
313.123
313.103
304.394
304.4
304.409
304.418
304.427
304.435
304.443
304.448
304.452
304.454
304.454
304.452
304.448
304.443
304.435
304.427
304.418
304.409
304.4
304.394
367.68
367.78
367.901
368.025
368.145
368.254
368.349
368.425
368.478
368.506
368.506
368.478
368.425
368.349
368.254
368.145
368.025
367.901
367.78
367.68
358.789
358.874
358.979
359.086
359.19
359.285
359.367
359.433
359.479
359.503
359.503
359.479
359.433
359.367
359.285
359.19
359.086
358.979
358.874
358.789
349.842
349.912
350.001
350.092
350.179
350.26
350.329
350.385
350.424
350.445
350.445
350.424
350.385
350.329
350.26
350.179
350.092
350.001
349.912
349.842
340.848
340.905
340.977
341.051
341.123
341.189
341.246
341.292
341.324
341.34
341.34
341.324
341.292
341.246
341.189
341.123
341.051
340.977
340.905
340.848
331.817
331.861
331.916
331.974
332.03
332.081
332.126
332.161
332.186
332.199
332.199
332.186
332.161
332.126
332.081
332.03
331.974
331.916
331.861
331.817
322.757
322.788
322.828
322.869
322.909
322.946
322.978
323.003
323.021
323.03
323.03
323.021
323.003
322.978
322.946
322.909
322.869
322.828
322.788
322.757
313.678
313.696
313.72
313.745
313.769
313.791
313.81
313.825
313.836
313.842
313.842
313.836
313.825
313.81
313.791
313.769
313.745
313.72
313.696
313.678
304.586
304.592
304.6
304.609
304.617
304.624
304.631
304.636
304.639
304.641
304.641
304.639
304.636
304.631
304.624
304.617
304.609
304.6
304.592
304.586
370.626
370.719
370.83
370.943
371.051
371.15
371.236
371.304
371.352
371.376
371.376
371.352
371.304
371.236
371.15
371.051
370.943
370.83
370.719
370.626
361.328
361.407
361.503
361.601
361.695
361.78
361.855
361.914
361.955
361.977
361.977
361.955
361.914
361.855
361.78
361.695
361.601
361.503
361.407
361.328
351.979
352.044
352.125
352.208
352.288
352.361
352.424
352.474
352.509
352.527
352.527
352.509
352.474
352.424
352.361
352.288
352.208
352.125
352.044
351.979
342.589
342.641
342.707
342.775
342.84
342.9
342.952
342.993
343.021
343.036
343.036
343.021
342.993
342.952
342.9
342.84
342.775
342.707
342.641
342.589
333.166
333.206
333.257
333.31
333.361
333.407
333.448
333.48
333.502
333.514
333.514
333.502
333.48
333.448
333.407
333.361
333.31
333.257
333.206
333.166
323.719
323.747
323.783
323.821
323.858
323.891
323.92
323.942
323.958
323.967
323.967
323.958
323.942
323.92
323.891
323.858
323.821
323.783
323.747
323.719
314.254
314.271
314.293
314.316
314.337
314.357
314.375
314.388
314.398
314.403
314.403
314.398
314.388
314.375
314.357
314.337
314.316
314.293
314.271
314.254
304.779
304.785
304.792
304.8
304.807
304.814
304.82
304.824
304.827
304.829
304.829
304.827
304.824
304.82
304.814
304.807
304.8
304.792
304.785
304.779
373.446
373.532
373.634
373.738
373.837
373.927
374.005
374.067
374.11
374.132
374.132
374.11
374.067
374.005
373.927
373.837
373.738
373.634
373.532
373.446
363.729
363.801
363.89
363.98
364.066
364.145
364.212
364.266
364.303
364.322
364.322
364.303
364.266
364.212
364.145
364.066
363.98
363.89
363.801
363.729
353.978
354.038
354.113
354.19
354.263
354.329
354.387
354.432
354.464
354.48
354.48
354.464
354.432
354.387
354.329
354.263
354.19
354.113
354.038
353.978
344.202
344.251
344.312
344.374
344.434
344.489
344.536
344.573
344.599
344.613
344.613
344.599
344.573
344.536
344.489
344.434
344.374
344.312
344.251
344.202
334.407
334.444
334.492
334.54
334.587
334.63
334.666
334.695
334.716
334.726
334.726
334.716
334.695
334.666
334.63
334.587
334.54
334.492
334.444
334.407
324.598
324.624
324.658
324.693
324.726
324.757
324.783
324.804
324.818
324.826
324.826
324.818
324.804
324.783
324.757
324.726
324.693
324.658
324.624
324.598
314.779
314.795
314.815
314.836
314.856
314.874
314.89
314.903
314.911
314.916
314.916
314.911
314.903
314.89
314.874
314.856
314.836
314.815
314.795
314.779
304.955
304.96
304.967
304.974
304.981
304.987
304.992
304.996
304.999
305.001
305.001
304.999
304.996
304.992
304.987
304.981
304.974
304.967
304.96
304.955
375.644
375.724
375.82
375.918
376.01
376.094
376.167
376.224
376.264
376.284
376.284
376.264
376.224
376.167
376.094
376.01
375.918
375.82
375.724
375.644
365.529
365.597
365.681
365.766
365.847
365.92
365.983
366.033
366.068
366.086
366.086
366.068
366.033
365.983
365.92
365.847
365.766
365.681
365.597
365.529
355.432
355.489
355.559
355.631
355.7
355.763
355.816
355.859
355.888
355.904
355.904
355.888
355.859
355.816
355.763
355.7
355.631
355.559
355.489
355.432
345.347
345.393
345.451
345.51
345.566
345.618
345.662
345.697
345.721
345.734
345.734
345.721
345.697
345.662
345.618
345.566
345.51
345.451
345.393
345.347
335.271
335.306
335.351
335.398
335.442
335.482
335.516
335.544
335.563
335.572
335.572
335.563
335.544
335.516
335.482
335.442
335.398
335.351
335.306
335.271
325.202
325.227
325.259
325.292
325.323
325.352
325.377
325.396
325.41
325.417
325.417
325.41
325.396
325.377
325.352
325.323
325.292
325.259
325.227
325.202
315.137
315.151
315.171
315.191
315.21
315.227
315.242
315.254
315.262
315.266
315.266
315.262
315.254
315.242
315.227
315.21
315.191
315.171
315.151
315.137
305.074
305.079
305.085
305.092
305.098
305.104
305.109
305.113
305.116
305.117
305.117
305.116
305.113
305.109
305.104
305.098
305.092
305.085
305.079
305.074
)
;

boundaryField
{
    hotSide
    {
        type            fixedGradient;
        gradient        nonuniform List<scalar> 
400
(
445.341
447.218
450.975
456.616
464.149
473.583
484.927
498.194
513.394
530.54
549.641
570.709
593.754
618.784
645.807
674.828
705.855
738.89
773.938
811.001
448.502
450.354
454.062
459.632
467.073
476.398
487.62
500.753
515.813
532.814
551.769
572.692
595.595
620.488
647.379
676.277
707.186
740.112
775.058
812.027
451.924
453.746
457.395
462.88
470.213
479.41
490.488
503.467
518.364
535.199
553.989
574.749
597.494
622.235
648.982
677.744
708.527
741.336
776.174
813.044
455.548
457.336
460.917
466.303
473.511
482.561
493.476
506.279
520.994
537.645
556.252
576.833
599.406
623.984
650.578
679.197
709.848
742.535
777.261
814.03
459.275
461.023
464.528
469.804
476.872
485.76
496.494
509.106
523.624
540.076
558.488
578.881
601.274
625.682
652.118
680.592
711.108
743.673
778.289
814.957
462.948
464.655
468.077
473.236
480.157
488.873
499.418
511.831
526.145
542.394
560.607
580.81
603.024
627.265
653.546
681.877
712.265
744.713
779.223
815.796
466.358
468.022
471.364
476.405
483.18
491.727
502.088
514.307
528.424
544.479
562.504
582.528
604.574
628.659
654.798
682.999
713.269
745.611
780.027
816.515
469.251
470.878
474.146
479.083
485.727
494.123
504.321
516.369
530.315
546.2
564.063
583.933
605.836
629.79
655.809
683.902
714.074
746.329
780.667
817.086
471.369
472.967
476.179
481.036
487.58
495.862
505.936
517.856
531.673
547.433
565.176
584.933
606.731
630.589
656.521
684.535
714.638
746.83
781.112
817.482
472.491
474.073
477.255
482.068
488.558
496.779
506.786
518.637
532.385
548.077
565.756
585.453
607.196
631.003
656.889
684.862
714.928
747.088
781.341
817.685
472.491
474.073
477.255
482.068
488.558
496.779
506.786
518.637
532.385
548.077
565.756
585.453
607.196
631.003
656.889
684.862
714.928
747.088
781.341
817.685
471.369
472.967
476.179
481.036
487.58
495.862
505.936
517.856
531.673
547.433
565.176
584.933
606.731
630.589
656.521
684.535
714.638
746.83
781.112
817.482
469.251
470.878
474.146
479.083
485.727
494.123
504.321
516.369
530.315
546.2
564.063
583.933
605.836
629.79
655.809
683.902
714.074
746.329
780.667
817.086
466.358
468.022
471.364
476.405
483.18
491.727
502.088
514.307
528.424
544.479
562.504
582.528
604.574
628.659
654.798
682.999
713.269
745.611
780.027
816.515
462.948
464.655
468.077
473.236
480.157
488.873
499.418
511.831
526.145
542.394
560.607
580.81
603.024
627.265
653.546
681.877
712.265
744.713
779.223
815.796
459.275
461.023
464.528
469.804
476.872
485.76
496.494
509.106
523.624
540.076
558.488
578.881
601.274
625.682
652.118
680.592
711.108
743.673
778.289
814.957
455.548
457.336
460.917
466.303
473.511
482.561
493.476
506.279
520.994
537.645
556.252
576.833
599.406
623.984
650.578
679.197
709.848
742.535
777.261
814.03
451.924
453.746
457.395
462.88
470.213
479.41
490.488
503.467
518.364
535.199
553.989
574.749
597.494
622.235
648.982
677.744
708.527
741.336
776.174
813.044
448.502
450.354
454.062
459.632
467.073
476.398
487.62
500.753
515.813
532.814
551.769
572.692
595.595
620.488
647.379
676.277
707.186
740.112
775.058
812.027
445.341
447.218
450.975
456.616
464.149
473.583
484.927
498.194
513.394
530.54
549.641
570.709
593.754
618.784
645.807
674.828
705.855
738.89
773.938
811.001
)
;
    }
    coldSide
    {
        type            mixed;
        refValue        uniform 300;
        refGradient     uniform 0;
        valueFraction   uniform 0.991591;
        source          uniform 0;
        value           nonuniform List<scalar> 
400
(
300.024
300.025
300.025
300.025
300.026
300.026
300.027
300.027
300.028
300.029
300.03
300.031
300.033
300.034
300.035
300.037
300.039
300.04
300.042
300.043
300.025
300.025
300.025
300.025
300.026
300.026
300.027
300.027
300.028
300.029
300.03
300.031