/*--------------------------------*- C++ -*----------------------------------*\
| =========                 |                                                 |
| \\      /  F ield         | OpenFOAM: The Open Source CFD Toolbox           |
|  \\    /   O peration     | Version:  2212                                  |
|   \\  /    A nd           | Website:  www.openfoam.com                      |
|    \\/     M anipulation  |                                                 |
\*---------------------------------------------------------------------------*/
FoamFile
{
    version     2.0;
    format      ascii;
    arch        "LSB;label=32;scalar=64";
    class       volScalarField;
    location    "0";
    object      Ttrue;
}
// * * * * * * * * * * * * * * * * * * * * * * * * * * * * * * * * * * * * * //

dimensions      [0 0 0 1 0 0 0];

internalField   nonuniform List<scalar> 
3200
(
343.487
344.612
346.046
347.607
349.215
350.792
352.249
353.479
354.375
354.848
354.848
354.375
353.479
352.249
350.792
349.215
347.607
346.046
344.612
343.487
337.831
338.783
340.019
341.368
342.758
344.121
345.379
346.441
347.214
347.622
347.622
347.214
346.441
345.379
344.121
342.758
341.368
340.019
338.783
337.831
332.119
332.908
333.949
335.088
336.261
337.412
338.473
339.368
340.019
340.363
340.363
340.019
339.368
338.473
337.412
336.261
335.088
333.949
332.908
332.119
326.357
326.992
327.839
328.769
329.728
330.667
331.533
332.264
332.795
333.075
333.075
332.795
332.264
331.533
330.667
329.728
328.769
327.839
326.992
326.357
320.552
321.039
321.696
322.419
323.163
323.893
324.565
325.132
325.544
325.761
325.761
325.544
325.132
324.565
323.893
323.163
322.419
321.696
321.039
320.552
314.713
315.057
315.525
316.041
316.572
317.093
317.573
317.977
318.271
318.426
318.426
318.271
317.977
317.573
317.093
316.572
316.041
315.525
315.057
314.713
308.848
309.054
309.334
309.644
309.962
310.275
310.563
310.805
310.982
311.075
311.075
310.982
310.805
310.563
310.275
309.962
309.644
309.334
309.054
308.848
302.968
303.036
303.13
303.234
303.341
303.446
303.542
303.623
303.682
303.713
303.713
303.682
303.623
303.542
303.446
303.341
303.234
303.13
303.036
302.968
343.57
344.686
346.108
347.654
349.245
350.806
352.245
353.46
354.344
354.811
354.811
354.344
353.46
352.245
350.806
349.245
347.654
346.108
344.686
343.57
337.903
338.847
340.072
341.409
342.785
344.133
345.376
346.425
347.188
347.59
347.59
347.188
346.425
345.376
344.133
342.785
341.409
340.072
338.847
337.903
332.18
332.963
333.994
335.122
336.284
337.422
338.471
339.355
339.998
340.337
340.337
339.998
339.355
338.471
337.422
336.284
335.122
333.994
332.963
332.18
326.407
327.036
327.876
328.798
329.746
330.676
331.532
332.253
332.778
333.054
333.054
332.778
332.253
331.532
330.676
329.746
328.798
327.876
327.036
326.407
320.591
321.074
321.725
322.441
323.177
323.899
324.564
325.124
325.53
325.745
325.745
325.53
325.124
324.564
323.899
323.177
322.441
321.725
321.074
320.591
314.74
315.082
315.546
316.057
316.583
317.098
317.572
317.971
318.261
318.415
318.415
318.261
317.971
317.572
317.098
316.583
316.057
315.546
315.082
314.74
308.864
309.068
309.346
309.653
309.969
310.278
310.562
310.802
310.976
311.068
311.068
310.976
310.802
310.562
310.278
309.969
309.653
309.346
309.068
308.864
302.973
303.041
303.134
303.237
303.343
303.447
303.542
303.622
303.68
303.711
303.711
303.68
303.622
303.542
303.447
303.343
303.237
303.134
303.041
302.973
343.737
344.836
346.233
347.751
349.311
350.837
352.243
353.428
354.29
354.744
354.744
354.29
353.428
352.243
350.837
349.311
347.751
346.233
344.836
343.737
338.048
338.977
340.181
341.493
342.841
344.161
345.375
346.398
347.141
347.534
347.534
347.141
346.398
345.375
344.161
342.841
341.493
340.181
338.977
338.048
332.302
333.072
334.086
335.193
336.332
337.445
338.47
339.333
339.96
340.29
340.29
339.96
339.333
338.47
337.445
336.332
335.193
334.086
333.072
332.302
326.506
327.126
327.952
328.856
329.786
330.695
331.532
332.235
332.747
333.016
333.016
332.747
332.235
331.532
330.695
329.786
328.856
327.952
327.126
326.506
320.668
321.143
321.783
322.486
323.208
323.914
324.564
325.11
325.507
325.716
325.716
325.507
325.11
324.564
323.914
323.208
322.486
321.783
321.143
320.668
314.795
315.132
315.588
316.089
316.605
317.109
317.572
317.962
318.245
318.394
318.394
318.245
317.962
317.572
317.109
316.605
316.089
315.588
315.132
314.795
308.897
309.098
309.372
309.672
309.982
310.284
310.562
310.796
310.966
311.055
311.055
310.966
310.796
310.562
310.284
309.982
309.672
309.372
309.098
308.897
302.984
303.051
303.143
303.244
303.347
303.449
303.542
303.62
303.677
303.707
303.707
303.677
303.62
303.542
303.449
303.347
303.244
303.143
303.051
302.984
343.991
345.064
346.427
347.903
349.416
350.894
352.252
353.394
354.223
354.661
354.661
354.223
353.394
352.252
350.894
349.416
347.903
346.427
345.064
343.991
338.267
339.174
340.348
341.625
342.933
344.21
345.384
346.37
347.085
347.463
347.463
347.085
346.37
345.384
344.21
342.933
341.625
340.348
339.174
338.267
332.487
333.239
334.227
335.305
336.41
337.488
338.478
339.31
339.913
340.231
340.231
339.913
339.31
338.478
337.488
336.41
335.305
334.227
333.239
332.487
326.657
327.262
328.067
328.947
329.85
330.73
331.538
332.217
332.709
332.969
332.969
332.709
332.217
331.538
330.73
329.85
328.947
328.067
327.262
326.657
320.785
321.249
321.873
322.557
323.258
323.942
324.569
325.096
325.478
325.68
325.68
325.478
325.096
324.569
323.942
323.258
322.557
321.873
321.249
320.785
314.879
315.207
315.652
316.14
316.64
317.128
317.576
317.952
318.224
318.368
318.368
318.224
317.952
317.576
317.128
316.64
316.14
315.652
315.207
314.879
308.947
309.144
309.41
309.703
310.003
310.296
310.565
310.79
310.954
311.04
311.04
310.954
310.79
310.565
310.296
310.003
309.703
309.41
309.144
308.947
303.001
303.067
303.156
303.254
303.355
303.453
303.543
303.618
303.673
303.702
303.702
303.673
303.618
303.543
303.453
303.355
303.254
303.156
303.067
303.001
344.336
345.376
346.693
348.117
349.571
350.988
352.285
353.374
354.163
354.578
354.578
354.163
353.374
352.285
350.988
349.571
348.117
346.693
345.376
344.336
338.564
339.444
340.579
341.81
343.067
344.292
345.413
346.353
347.035
347.393
347.393
347.035
346.353
345.413
344.292
343.067
341.81
340.579
339.444
338.564
332.737
333.466
334.422
335.461
336.524
337.557
338.504
339.297
339.871
340.174
340.174
339.871
339.297
338.504
337.557
336.524
335.461
334.422
333.466
332.737
326.861
327.448
328.226
329.075
329.943
330.787
331.56
332.207
332.676
332.923
332.923
332.676
332.207
331.56
330.787
329.943
329.075
328.226
327.448
326.861
320.943
321.394
321.997
322.656
323.33
323.986
324.586
325.089
325.453
325.644
325.644
325.453
325.089
324.586
323.986
323.33
322.656
321.997
321.394
320.943
314.992
315.31
315.74
316.211
316.692
317.16
317.588
317.947
318.206
318.343
318.343
318.206
317.947
317.588
317.16
316.692
316.211
315.74
315.31
314.992
309.015
309.205
309.463
309.746
310.034
310.315
310.572
310.787
310.943
311.025
311.025
310.943
310.787
310.572
310.315
310.034
309.746
309.463
309.205
309.015
303.024
303.087
303.174
303.268
303.365
303.459
303.545
303.617
303.669
303.697
303.697
303.669
303.617
303.545
303.459
303.365
303.268
303.174
303.087
303.024
344.774
345.775
347.039
348.401
349.786
351.131
352.359
353.386
354.128
354.519
354.519
354.128
353.386
352.359
351.131
349.786
348.401
347.039
345.775
344.774
338.942
339.789
340.878
342.056
343.254
344.417
345.478
346.365
347.006
347.344
347.344
347.006
346.365
345.478
344.417
343.254
342.056
340.878
339.789
338.942
333.056
333.758
334.675
335.669
336.682
337.663
338.559
339.308
339.849
340.133
340.133
339.849
339.308
338.559
337.663
336.682
335.669
334.675
333.758
333.056
327.121
327.686
328.433
329.245
330.072
330.874
331.606
332.217
332.658
332.89
332.89
332.658
332.217
331.606
330.874
330.072
329.245
328.433
327.686
327.121
321.145
321.579
322.158
322.789
323.431
324.054
324.622
325.097
325.439
325.62
325.62
325.439
325.097
324.622
324.054
323.431
322.789
322.158
321.579
321.145
315.136
315.442
315.855
316.305
316.764
317.209
317.614
317.953
318.197
318.326
318.326
318.197
317.953
317.614
317.209
316.764
316.305
315.855
315.442
315.136
309.102
309.285
309.532
309.802
310.078
310.345
310.588
310.791
310.938
311.015
311.015
310.938
310.791
310.588
310.345
310.078
309.802
309.532
309.285
309.102
303.053
303.114
303.197
303.287
303.38
303.469
303.55
303.619
303.668
303.694
303.694
303.668
303.619
303.55
303.469
303.38
303.287
303.197
303.114
303.053
345.31
346.268
347.472
348.764
350.074
351.34
352.491
353.45
354.142
354.505
354.505
354.142
353.45
352.491
351.34
350.074
348.764
347.472
346.268
345.31
339.406
340.215
341.253
342.371
343.504
344.598
345.593
346.422
347.02
347.334
347.334
347.02
346.422
345.593
344.598
343.504
342.371
341.253
340.215
339.406
333.447
334.118
334.992
335.936
336.893
337.817
338.657
339.357
339.861
340.126
340.126
339.861
339.357
338.657
337.817
336.893
335.936
334.992
334.118
333.447
327.44
327.98
328.692
329.463
330.245
331
331.686
332.258
332.669
332.885
332.885
332.669
332.258
331.686
331
330.245
329.463
328.692
327.98
327.44
321.393
321.807
322.359
322.958
323.566
324.152
324.685
325.129
325.449
325.616
325.616
325.449
325.129
324.685
324.152
323.566
322.958
322.359
321.807
321.393
315.312
315.605
315.999
316.426
316.86
317.279
317.659
317.976
318.204
318.324
318.324
318.204
317.976
317.659
317.279
316.86
316.426
315.999
315.605
315.312
309.208
309.383
309.618
309.875
310.135
310.387
310.615
310.805
310.942
311.014
311.014
310.942
310.805
310.615
310.387
310.135
309.875
309.618
309.383
309.208
303.088
303.147
303.226
303.312
303.399
303.483
303.56
303.623
303.669
303.693
303.693
303.669
303.623
303.56
303.483
303.399
303.312
303.226
303.147
303.088
345.951
346.86
348.001
349.218
350.447
351.629
352.699
353.588
354.227
354.562
354.562
354.227
353.588
352.699
351.629
350.447
349.218
348.001
346.86
345.951
339.959
340.728
341.711
342.764
343.827
344.849
345.774
346.542
347.095
347.384
347.384
347.095
346.542
345.774
344.849
343.827
342.764
341.711
340.728
339.959
333.914
334.551
335.378
336.268
337.166
338.029
338.811
339.459
339.926
340.17
340.17
339.926
339.459
338.811
338.029
337.166
336.268
335.378
334.551
333.914
327.821
328.334
329.008
329.735
330.469
331.174
331.813
332.342
332.723
332.922
332.922
332.723
332.342
331.813
331.174
330.469
329.735
329.008
328.334
327.821
321.689
322.082
322.605
323.169
323.739
324.288
324.784
325.195
325.49
325.645
325.645
325.49
325.195
324.784
324.288
323.739
323.169
322.605
322.082
321.689
315.523
315.802
316.174
316.577
316.984
317.376
317.73
318.023
318.234
318.345
318.345
318.234
318.023
317.73
317.376
316.984
316.577
316.174
315.802
315.523
309.334
309.5
309.724
309.966
310.21
310.445
310.657
310.834
310.96
311.026
311.026
310.96
310.834
310.657
310.445
310.21
309.966
309.724
309.5
309.334
303.131
303.186
303.261
303.342
303.424
303.503
303.574
303.633
303.675
303.697
303.697
303.675
303.633
303.574
303.503
303.424
303.342
303.261
303.186
303.131
346.701
347.56
348.633
349.773
350.918
352.013
353.001
353.818
354.403
354.71
354.71
354.403
353.818
353.001
352.013
350.918
349.773
348.633
347.56
346.701
340.606
341.333
342.257
343.244
344.234
345.182
346.036
346.743
347.249
347.514
347.514
347.249
346.743
346.036
345.182
344.234
343.244
342.257
341.333
340.606
334.46
335.062
335.841
336.674
337.511
338.311
339.033
339.629
340.057
340.28
340.28
340.057
339.629
339.033
338.311
337.511
336.674
335.841
335.062
334.46
328.267
328.752
329.386
330.066
330.75
331.405
331.994
332.482
332.831
333.013
333.013
332.831
332.482
331.994
331.405
330.75
330.066
329.386
328.752
328.267
322.035
322.406
322.898
323.427
323.959
324.467
324.925
325.304
325.575
325.717
325.717
325.575
325.304
324.925
324.467
323.959
323.427
322.898
322.406
322.035
315.77
316.033
316.384
316.761
317.141
317.504
317.831
318.101
318.295
318.396
318.396
318.295
318.101
317.831
317.504
317.141
316.761
316.384
316.033
315.77
309.483
309.639
309.85
310.076
310.304
310.522
310.718
310.88
310.997
311.057
311.057
310.997
310.88
310.718
310.522
310.304
310.076
309.85
309.639
309.483
303.18
303.233
303.303
303.379
303.455
303.528
303.594
303.649
303.687
303.708
303.708
303.687
303.649
303.594
303.528
303.455
303.379
303.303
303.233
303.18
347.565
348.372
349.376
350.437
351.498
352.507
353.413
354.159
354.692
354.97
354.97
354.692
354.159
353.413
352.507
351.498
350.437
349.376
348.372
347.565
341.353
342.036
342.901
343.819
344.736
345.61
346.393
347.039
347.5
347.74
347.74
347.5
347.039
346.393
345.61
344.736
343.819
342.901
342.036
341.353
335.09
335.656
336.384
337.16
337.935
338.673
339.335
339.88
340.27
340.473
340.473
340.27
339.88
339.335
338.673
337.935
337.16
336.384
335.656
335.09
328.782
329.236
329.83
330.464
331.098
331.701
332.242
332.687
333.005
333.171
333.171
333.005
332.687
332.242
331.701
331.098
330.464
329.83
329.236
328.782
322.434
322.783
323.243
323.736
324.228
324.697
325.118
325.464
325.711
325.84
325.84
325.711
325.464
325.118
324.697
324.228
323.736
323.243
322.783
322.434
316.055
316.302
316.63
316.982
317.334
317.668
317.969
318.216
318.392
318.484
318.484
318.392
318.216
317.969
317.668
317.334
316.982
316.63
316.302
316.055
309.654
309.801
309.998
310.208
310.42
310.621
310.801
310.949
311.055
311.11
311.11
311.055
310.949
310.801
310.621
310.42
310.208
309.998
309.801
309.654
303.238
303.287
303.353
303.423
303.494
303.562
303.622
303.672
303.707
303.726
303.726
303.707
303.672
303.622
303.562
303.494
303.423
303.353
303.287
303.238
348.549
349.304
350.238
351.221
352.198
353.123
353.949
354.626
355.109
355.36
355.36
355.109
354.626
353.949
353.123
352.198
351.221
350.238
349.304
348.549
342.203
342.841
343.647
344.497
345.343
346.143
346.858
347.444
347.861
348.079
348.079
347.861
347.444
346.858
346.143
345.343
344.497
343.647
342.841
342.203
335.807
336.336
337.015
337.733
338.448
339.124
339.728
340.223
340.576
340.76
340.76
340.576
340.223
339.728
339.124
338.448
337.733
337.015
336.336
335.807
329.367
329.793
330.345
330.932
331.516
332.07
332.563
332.968
333.256
333.406
333.406
333.256
332.968
332.563
332.07
331.516
330.932
330.345
329.793
329.367
322.889
323.215
323.644
324.1
324.554
324.984
325.368
325.682
325.906
326.023
326.023
325.906
325.682
325.368
324.984
324.554
324.1
323.644
323.215
322.889
316.38
316.611
316.916
317.242
317.566
317.873
318.147
318.372
318.531
318.615
318.615
318.531
318.372
318.147
317.873
317.566
317.242
316.916
316.611
316.38
309.848
309.986
310.169
310.365
310.559
310.744
310.908
311.043
311.139
311.189
311.189
311.139
311.043
310.908
310.744
310.559
310.365
310.169
309.986
309.848
303.303
303.349
303.41
303.476
303.541
303.603
303.658
303.703
303.735
303.752
303.752
303.735
303.703
303.658
303.603
303.541
303.476
303.41
303.349
303.303
349.657
350.36
351.226
352.133
353.028
353.872
354.622
355.234
355.669
355.895
355.895
355.669
355.234
354.622
353.872
353.028
352.133
351.226
350.36
349.657
343.161
343.755
344.502
345.286
346.061
346.792
347.44
347.97
348.347
348.542
348.542
348.347
347.97
347.44
346.792
346.061
345.286
344.502
343.755
343.161
336.616
337.108
337.737
338.399
339.055
339.672
340.221
340.668
340.986
341.152
341.152
340.986
340.668
340.221
339.672
339.055
338.399
337.737
337.108
336.616
330.027
330.423
330.936
331.477
332.013
332.518
332.966
333.332
333.592
333.727
333.727
333.592
333.332
332.966
332.518
332.013
331.477
330.936
330.423
330.027
323.402
323.705
324.103
324.523
324.94
325.332
325.681
325.965
326.167
326.272
326.272
326.167
325.965
325.681
325.332
324.94
324.523
324.103
323.705
323.402
316.746
316.961
317.244
317.544
317.842
318.122
318.371
318.574
318.718
318.793
318.793
318.718
318.574
318.371
318.122
317.842
317.544
317.244
316.961
316.746
310.068
310.196
310.366
310.546
310.725
310.893
311.042
311.164
311.251
311.296
311.296
311.251
311.164
311.042
310.893
310.725
310.546
310.366
310.196
310.068
303.376
303.419
303.476
303.537
303.596
303.653
303.703
303.744
303.773
303.788
303.788
303.773
303.744
303.703
303.653
303.596
303.537
303.476
303.419
303.376
350.894
351.546
352.346
353.178
353.996
354.763
355.441
355.992
356.382
356.585
356.585
356.382
355.992
355.441
354.763
353.996
353.178
352.346
351.546
350.894
344.229
344.781
345.47
346.19
346.899
347.563
348.149
348.627
348.964
349.14
349.14
348.964
348.627
348.149
347.563
346.899
346.19
345.47
344.781
344.229
337.518
337.974
338.555
339.164
339.763
340.324
340.82
341.223
341.509
341.657
341.657
341.509
341.223
340.82
340.324
339.763
339.164
338.555
337.974
337.518
330.764
331.131
331.604
332.102
332.591
333.05
333.456
333.786
334.019
334.14
334.14
334.019
333.786
333.456
333.05
332.591
332.102
331.604
331.131
330.764
323.974
324.255
324.622
325.009
325.389
325.746
326.062
326.318
326.499
326.593
326.593
326.499
326.318
326.062
325.746
325.389
325.009
324.622
324.255
323.974
317.154
317.353
317.615
317.891
318.163
318.417
318.643
318.826
318.955
319.022
319.022
318.955
318.826
318.643
318.417
318.163
317.891
317.615
317.353
317.154
310.313
310.432
310.589
310.754
310.917
311.07
311.206
311.316
311.393
311.434
311.434
311.393
311.316
311.206
311.07
310.917
310.754
310.589
310.432
310.313
303.458
303.498
303.551
303.606
303.661
303.712
303.758
303.794
303.82
303.834
303.834
303.82
303.794
303.758
303.712
303.661
303.606
303.551
303.498
303.458
352.261
352.864
353.601
354.363
355.108
355.802
356.413
356.908
357.258
357.438
357.438
357.258
356.908
356.413
355.802
355.108
354.363
353.601
352.864
352.261
345.411
345.921
346.556
347.215
347.86
348.462
348.991
349.419
349.722
349.878
349.878
349.722
349.419
348.991
348.462
347.86
347.215
346.556
345.921
345.411
338.515
338.938
339.472
340.03
340.575
341.084
341.531
341.893
342.149
342.281
342.281
342.149
341.893
341.531
341.084
340.575
340.03
339.472
338.938
338.515
331.578
331.918
332.354
332.809
333.255
333.671
334.037
334.333
334.542
334.65
334.65
334.542
334.333
334.037
333.671
333.255
332.809
332.354
331.918
331.578
324.606
324.867
325.204
325.559
325.905
326.229
326.513
326.743
326.906
326.99
326.99
326.906
326.743
326.513
326.229
325.905
325.559
325.204
324.867
324.606
317.606
317.79
318.03
318.283
318.531
318.762
318.965
319.13
319.246
319.306
319.306
319.246
319.13
318.965
318.762
318.531
318.283
318.03
317.79
317.606
310.584
310.694
310.838
310.99
311.139
311.277
311.399
311.498
311.568
311.604
311.604
311.568
311.498
311.399
311.277
311.139
310.99
310.838
310.694
310.584
303.549
303.586
303.634
303.685
303.735
303.782
303.822
303.856
303.879
303.891
303.891
303.879
303.856
303.822
303.782
303.735
303.685
303.634
303.586
303.549
353.761
354.317
354.993
355.689
356.366
356.993
357.543
357.986
358.298
358.459
358.459
358.298
357.986
357.543
356.993
356.366
355.689
354.993
354.317
353.761
346.707
347.177
347.76
348.362
348.948
349.492
349.968
350.352
350.622
350.762
350.762
350.622
350.352
349.968
349.492
348.948
348.362
347.76
347.177
346.707
339.609
339.998
340.489
340.998
341.494
341.953
342.356
342.681
342.909
343.027
343.027
342.909
342.681
342.356
341.953
341.494
340.998
340.489
339.998
339.609
332.471
332.784
333.184
333.6
334.006
334.382
334.711
334.976
335.163
335.26
335.26
335.163
334.976
334.711
334.382
334.006
333.6
333.184
332.784
332.471
325.299
325.54
325.85
326.173
326.488
326.781
327.037
327.243
327.388
327.463
327.463
327.388
327.243
327.037
326.781
326.488
326.173
325.85
325.54
325.299
318.1
318.27
318.491
318.722
318.947
319.156
319.339
319.486
319.59
319.644
319.644
319.59
319.486
319.339
319.156
318.947
318.722
318.491
318.27
318.1
310.881
310.982
311.115
311.253
311.388
311.514
311.624
311.712
311.775
311.807
311.807
311.775
311.712
311.624
311.514
311.388
311.253
311.115
310.982
310.881
303.649
303.683
303.727
303.773
303.819
303.861
303.898
303.927
303.948
303.959
303.959
303.948
303.927
303.898
303.861
303.819
303.773
303.727
303.683
303.649
355.388
355.9
356.519
357.154
357.767
358.333
358.827
359.224
359.502
359.646
359.646
359.502
359.224
358.827
358.333
357.767
357.154
356.519
355.9
355.388
348.112
348.545
349.078
349.628
350.159
350.65
351.077
351.421
351.662
351.787
351.787
351.662
351.421
351.077
350.65
350.159
349.628
349.078
348.545
348.112
340.794
341.152
341.602
342.066
342.516
342.931
343.292
343.583
343.787
343.892
343.892
343.787
343.583
343.292
342.931
342.516
342.066
341.602
341.152
340.794
333.438
333.726
334.093
334.472
334.84
335.179
335.475
335.713
335.88
335.966
335.966
335.88
335.713
335.475
335.179
334.84
334.472
334.093
333.726
333.438
326.05
326.271
326.555
326.85
327.136
327.4
327.63
327.815
327.945
328.012
328.012
327.945
327.815
327.63
327.4
327.136
326.85
326.555
326.271
326.05
318.636
318.792
318.995
319.205
319.409
319.598
319.762
319.895
319.987
320.035
320.035
319.987
319.895
319.762
319.598
319.409
319.205
318.995
318.792
318.636
311.202
311.295
311.417
311.543
311.666
311.779
311.878
311.957
312.013
312.041
312.041
312.013
311.957
311.878
311.779
311.666
311.543
311.417
311.295
311.202
303.756
303.788
303.828
303.871
303.912
303.95
303.983
304.009
304.028
304.038
304.038
304.028
304.009
303.983
303.95
303.912
303.871
303.828
303.788
303.756
357.127
357.597
358.164
358.742
359.298
359.809
360.252
360.607
360.856
360.984
360.984
360.856
360.607
360.252
359.809
359.298
358.742
358.164
357.597
357.127
349.611
350.008
350.497
350.998
351.48
351.922
352.306
352.614
352.829
352.94
352.94
352.829
352.614
352.306
351.922
351.48
350.998
350.497
350.008
349.611
342.056
342.386
342.797
343.22
343.628
344.002
344.327
344.588
344.77
344.864
344.864
344.77
344.588
344.327
344.002
343.628
343.22
342.797
342.386
342.056
334.467
334.732
335.067
335.413
335.747
336.053
336.319
336.532
336.681
336.757
336.757
336.681
336.532
336.319
336.053
335.747
335.413
335.067
334.732
334.467
326.847
327.051
327.311
327.58
327.839
328.078
328.284
328.45
328.566
328.626
328.626
328.566
328.45
328.284
328.078
327.839
327.58
327.311
327.051
326.847
319.204
319.348
319.533
319.725
319.911
320.081
320.229
320.347
320.43
320.472
320.472
320.43
320.347
320.229
320.081
319.911
319.725
319.533
319.348
319.204
311.543
311.628
311.74
311.855
311.966
312.069
312.157
312.228
312.278
312.304
312.304
312.278
312.228
312.157
312.069
311.966
311.855
311.74
311.628
311.543
303.871
303.899
303.936
303.975
304.012
304.047
304.076
304.1
304.117
304.125
304.125
304.117
304.1
304.076
304.047
304.012
303.975
303.936
303.899
303.871
358.933
359.365
359.885
360.412
360.917
361.378
361.777
362.096
362.318
362.432
362.432
362.318
362.096
361.777
361.378
360.917
360.412
359.885
359.365
358.933
351.16
351.526
351.974
352.431
352.869
353.269
353.615
353.891
354.084
354.183
354.183
354.084
353.891
353.615
353.269
352.869
352.431
351.974
351.526
351.16
343.356
343.659
344.036
344.423
344.793
345.132
345.425
345.659
345.822
345.906
345.906
345.822
345.659
345.425
345.132
344.793
344.423
344.036
343.659
343.356
335.522
335.766
336.074
336.39
336.693
336.97
337.21
337.401
337.535
337.603
337.603
337.535
337.401
337.21
336.97
336.693
336.39
336.074
335.766
335.522
327.663
327.85
328.089
328.335
328.571
328.786
328.973
329.122
329.226
329.279
329.279
329.226
329.122
328.973
328.786
328.571
328.335
328.089
327.85
327.663
319.784
319.916
320.087
320.262
320.431
320.585
320.718
320.825
320.899
320.937
320.937
320.899
320.825
320.718
320.585
320.431
320.262
320.087
319.916
319.784
311.89
311.969
312.071
312.176
312.278
312.37
312.451
312.514
312.559
312.582
312.582
312.559
312.514
312.451
312.37
312.278
312.176
312.071
311.969
311.89
303.987
304.013
304.047
304.083
304.117
304.148
304.174
304.196
304.211
304.219
304.219
304.211
304.196
304.174
304.148
304.117
304.083
304.047
304.013
303.987
360.688
361.088
361.566
362.051
362.512
362.933
363.295
363.583
363.784
363.887
363.887
363.784
363.583
363.295
362.933
362.512
362.051
361.566
361.088
360.688
352.648
352.986
353.4
353.82
354.221
354.586
354.9
355.151
355.325
355.415
355.415
355.325
355.151
354.9
354.586
354.221
353.82
353.4
352.986
352.648
344.59
344.87
345.219
345.575
345.915
346.224
346.491
346.703
346.851
346.927
346.927
346.851
346.703
346.491
346.224
345.915
345.575
345.219
344.87
344.59
336.515
336.741
337.025
337.317
337.595
337.848
338.067
338.241
338.362
338.424
338.424
338.362
338.241
338.067
337.848
337.595
337.317
337.025
336.741
336.515
328.425
328.598
328.819
329.046
329.263
329.46
329.63
329.766
329.86
329.908
329.908
329.86
329.766
329.63
329.46
329.263
329.046
328.819
328.598
328.425
320.323
320.445
320.603
320.765
320.92
321.061
321.183
321.28
321.347
321.382
321.382
321.347
321.28
321.183
321.061
320.92
320.765
320.603
320.445
320.323
312.211
312.284
312.379
312.476
312.569
312.654
312.727
312.786
312.826
312.847
312.847
312.826
312.786
312.727
312.654
312.569
312.476
312.379
312.284
312.211
304.094
304.118
304.15
304.183
304.214
304.242
304.267
304.287
304.3
304.307
304.307
304.3
304.287
304.267
304.242
304.214
304.183
304.15
304.118
304.094
362.077
362.453
362.903
363.357
363.789
364.181
364.518
364.785
364.971
365.066
365.066
364.971
364.785
364.518
364.181
363.789
363.357
362.903
362.453
362.077
353.78
354.1
354.49
354.885
355.261
355.602
355.896
356.129
356.291
356.374
356.374
356.291
356.129
355.896
355.602
355.261
354.885
354.49
354.1
353.78
345.5
345.765
346.095
346.431
346.75
347.04
347.29
347.488
347.626
347.696
347.696
347.626
347.488
347.29
347.04
346.75
346.431
346.095
345.765
345.5
337.229
337.443
337.712
337.988
338.25
338.488
338.693
338.856
338.969
339.027
339.027
338.969
338.856
338.693
338.488
338.25
337.988
337.712
337.443
337.229
328.962
329.127
329.336
329.551
329.755
329.941
330.101
330.228
330.316
330.362
330.362
330.316
330.228
330.101
329.941
329.755
329.551
329.336
329.127
328.962
320.697
320.814
320.964
321.117
321.263
321.397
321.511
321.602
321.665
321.698
321.698
321.665
321.602
321.511
321.397
321.263
321.117
320.964
320.814
320.697
312.433
312.502
312.592
312.684
312.772
312.852
312.921
312.976
313.014
313.033
313.033
313.014
312.976
312.921
312.852
312.772
312.684
312.592
312.502
312.433
304.168
304.191
304.221
304.252
304.281
304.308
304.331
304.35
304.363
304.369
304.369
304.363
304.35
304.331
304.308
304.281
304.252
304.221
304.191
304.168
)
;

boundaryField
{
    hotSide
    {
        type            fixedGradient;
        gradient        nonuniform List<scalar> 
400
(
447.508
448.433
450.296
453.119
456.936
461.79
467.728
474.803
483.069
492.581
503.391
515.549
529.101
544.086
560.541
578.497
597.979
619.008
641.6
665.769
462.404
463.211
464.842
467.328
470.713
475.054
480.414
486.861
494.465
503.296
513.418
524.893
537.776
552.115
567.952
585.321
604.251
624.764
646.876
670.6
478.523
479.19
480.545
482.63
485.505
489.243
493.927
499.644
506.485
514.535
523.876
534.583
546.72
560.345
575.504
592.236
610.571
630.533
652.136
675.393
495.601
496.103
497.138
498.759
501.045
504.091
508.003
512.895
518.877
526.058
534.537
544.401
555.73
568.586
583.022
599.081
616.792
636.18
657.259
680.037
513.158
513.477
514.151
515.253
516.882
519.161
522.225
526.214
531.266
537.513
545.072
554.048
564.529
576.587
590.28
605.651
622.732
641.544
662.1
684.405
530.465
530.586
530.875
531.423
532.357
533.827
536.002
539.051
543.144
548.433
555.059
563.14
572.775
584.044
597.007
611.709
628.181
646.441
666.499
688.357
546.528
546.452
546.358
546.356
546.6
547.275
548.579
550.717
553.882
558.256
563.995
571.233
580.077
590.613
602.904
616.994
632.913
650.675
670.287
691.747
560.162
559.908
559.468
558.972
558.6
558.566
559.1
560.434
562.789
566.367
571.34
577.854
586.025
595.942
607.667
621.246
636.705
654.056
673.302
694.435
570.139
569.749
569.044
568.172
567.331
566.759
566.71
567.441
569.19
572.175
576.582
582.564
590.241
599.705
611.021
624.231
639.36
656.416
675.401
696.303
575.426
574.961
574.113
573.035
571.939
571.076
570.713
571.118
572.542
575.211
579.315
585.014
592.43
601.655
612.755
625.772
640.727
657.63
676.478
697.26
575.426
574.961
574.113
573.035
571.939
571.076
570.713
571.118
572.542
575.211
579.315
585.014
592.43
601.655
612.755
625.772
640.727
657.63
676.478
697.26
570.139
569.749
569.044
568.172
567.331
566.759
566.71
567.441
569.19
572.175
576.582
582.564
590.241
599.705
611.021
624.231
639.36
656.416
675.401
696.303
560.162
559.908
559.468
558.972
558.6
558.566
559.1
560.434
562.789
566.367
571.34
577.854
586.025
595.942
607.667
621.246
636.705
654.056
673.302
694.435
546.528
546.452
546.358
546.356
546.6
547.275
548.579
550.717
553.882
558.256
563.995
571.233
580.077
590.613
602.904
616.994
632.913
650.675
670.287
691.747
530.465
530.586
530.875
531.423
532.357
533.827
536.002
539.051
543.144
548.433
555.059
563.14
572.775
584.044
597.007
611.709
628.181
646.441
666.499
688.357
513.158
513.477
514.151
515.253
516.882
519.161
522.225
526.214
531.266
537.513
545.072
554.048
564.529
576.587
590.28
605.651
622.732
641.544
662.1
684.405
495.601
496.103
497.138
498.759
501.045
504.091
508.003
512.895
518.877
526.058
534.537
544.401
555.73
568.586
583.022
599.081
616.792
636.18
657.259
680.037
478.523
479.19
480.545
482.63
485.505
489.243
493.927
499.644
506.485
514.535
523.876
534.583
546.72
560.345
575.504
592.236
610.571
630.533
652.136
675.393
462.404
463.211
464.842
467.328
470.713
475.054
480.414
486.861
494.465
503.296
513.418
524.893
537.776
552.115
567.952
585.321
604.251
624.764
646.876
670.6
447.508
448.433
450.296
453.119
456.936
461.79
467.728
474.803
483.069
492.581
503.391
515.549
529.101
544.086
560.541
578.497
597.979
619.008
641.6
665.769
)
;
    }
    coldSide
    {
        type            mixed;
        refValue        uniform 300;
        refGradient     uniform 0;
        valueFraction   uniform 0.991591;
        source          uniform 0;
        value           nonuniform List<scalar> 
400
(
300.025
300.025
300.025
300.025
300.025
300.026
300.026
300.026
300.027
300.027
300.028
300.028
300.029
300.03
300.031
300.032
300.033
300.034
300.034
300.035
300.026
300.026
300.026
300.026
300.026
300.026
300.026
300.027
300.027
300.028
300.028
300.029
300.029
300.03
300.031
300.032
300.033