/*--------------------------------*- C++ -*----------------------------------*\
| =========                 |                                                 |
| \\      /  F ield         | OpenFOAM: The Open Source CFD Toolbox           |
|  \\    /   O peration     | Version:  2212                                  |
|   \\  /    A nd           | Website:  www.openfoam.com                      |
|    \\/     M anipulation  |                                                 |
\*---------------------------------------------------------------------------*/
FoamFile
{
    version     2.0;
    format      ascii;
    arch        "LSB;label=32;scalar=64";
    class       volScalarField;
    location    "0";
    object      T;
}
// * * * * * * * * * * * * * * * * * * * * * * * * * * * * * * * * * * * * * //

dimensions      [0 0 0 1 0 0 0];

internalField   nonuniform List<scalar> 
3200
(
330.459
331.005
331.298
331.879
332.335
332.573
332.834
332.683
333.003
333.035
332.802
332.993
332.732
332.416
332.137
331.591
331.111
330.832
330.301
329.921
326.85
327.267
327.654
328.148
328.486
328.705
328.936
328.836
329.15
329.151
328.98
329.136
328.848
328.594
328.342
327.864
327.442
327.159
326.687
326.414
323
323.391
323.73
324.183
324.447
324.639
324.839
324.755
325.023
324.996
324.894
325.015
324.756
324.549
324.318
323.913
323.54
323.294
322.85
322.724
318.998
319.348
319.658
319.978
320.216
320.4
320.554
320.462
320.701
320.651
320.576
320.728
320.476
320.263
320.141
319.783
319.493
319.277
318.887
318.819
314.848
315.156
315.46
315.637
315.844
315.988
316.121
316.06
316.222
316.175
316.149
316.263
316.066
315.869
315.851
315.513
315.268
315.095
314.767
314.738
310.619
310.903
311.144
311.246
311.375
311.494
311.584
311.577
311.643
311.614
311.616
311.712
311.56
311.384
311.406
311.177
311.027
310.84
310.593
310.566
306.363
306.569
306.745
306.788
306.803
306.938
306.996
307.011
307.01
306.997
306.988
307.056
306.959
306.812
306.878
306.739
306.672
306.531
306.416
306.381
302.126
302.211
302.245
302.293
302.27
302.337
302.363
302.35
302.359
302.352
302.344
302.346
302.345
302.288
302.321
302.264
302.241
302.181
302.152
302.125
331.605
331.881
332.375
332.895
333.195
333.658
333.818
333.934
333.962
334.029
333.854
334.038
333.778
333.191
333.02
332.452
332.22
331.774
331.196
330.667
327.856
328.032
328.512
328.937
329.214
329.632
329.755
329.898
329.913
329.965
329.814
329.957
329.746
329.236
329.099
328.572
328.342
327.999
327.479
327.031
323.853
324.019
324.425
324.781
325.016
325.419
325.501
325.651
325.658
325.653
325.558
325.645
325.527
325.073
324.935
324.494
324.277
324.019
323.573
323.174
319.731
319.846
320.194
320.456
320.687
321.023
321.078
321.212
321.229
321.19
321.121
321.201
321.1
320.743
320.587
320.248
320.057
319.837
319.498
319.186
315.463
315.53
315.858
316.035
316.243
316.437
316.535
316.628
316.631
316.661
316.514
316.595
316.544
316.206
316.163
315.858
315.713
315.518
315.297
315.059
311.119
311.176
311.432
311.504
311.656
311.763
311.867
311.975
311.935
312.009
311.845
311.936
311.899
311.658
311.601
311.383
311.259
311.077
311.005
310.789
306.743
306.758
306.935
306.93
307.031
307.046
307.145
307.235
307.191
307.232
307.103
307.188
307.18
307.039
306.994
306.847
306.793
306.638
306.617
306.479
302.268
302.268
302.347
302.33
302.356
302.345
302.409
302.426
302.427
302.441
302.379
302.395
302.419
302.365
302.366
302.3
302.254
302.23
302.208
302.148
332.842
333.152
333.697
334.246
334.41
334.83
335.272
335.448
335.422
335.52
335.422
335.341
335.145
334.586
334.236
334.004
333.597
333.214
332.651
332.085
328.934
329.205
329.629
330.133
330.292
330.596
331.001
331.166
331.16
331.279
331.143
331.106
330.854
330.454
330.101
329.881
329.547
329.217
328.739
328.268
324.808
325.047
325.374
325.777
325.942
326.18
326.529
326.636
326.699
326.822
326.656
326.64
326.414
326.12
325.76
325.534
325.285
324.998
324.678
324.199
320.511
320.676
320.971
321.264
321.449
321.61
321.923
322.019
322.067
322.179
321.99
321.987
321.812
321.563
321.26
321.115
320.895
320.628
320.41
319.97
316.082
316.191
316.449
316.655
316.81
316.936
317.191
317.251
317.285
317.361
317.201
317.234
317.098
316.879
316.626
316.548
316.359
316.147
316.019
315.669
311.558
311.64
311.807
311.977
312.091
312.189
312.351
312.371
312.4
312.478
312.309
312.37
312.297
312.117
311.903
311.882
311.7
311.534
311.539
311.223
306.941
307.016
307.132
307.265
307.297
307.366
307.46
307.46
307.456
307.515
307.422
307.458
307.444
307.272
307.175
307.158
307.035
306.945
306.954
306.783
302.328
302.363
302.406
302.438
302.458
302.482
302.518
302.495
302.508
302.516
302.486
302.524
302.508
302.446
302.426
302.402
302.352
302.334
302.329
302.262
334.075
334.662
335.166
335.622
336.109
336.358
336.804
336.939
337.182
336.892
336.996
336.909
336.603
336.431
335.865
335.56
335.021
334.518
334.142
333.301
329.938
330.467
330.894
331.327
331.756
331.923
332.33
332.477
332.694
332.45
332.509
332.433
332.16
332.031
331.555
331.247
330.743
330.287
329.965
329.289
325.603
326.087
326.388
326.778
327.186
327.349
327.651
327.781
328.017
327.817
327.804
327.741
327.537
327.379
327.036
326.731
326.3
325.891
325.659
325.037
321.118
321.548
321.785
322.067
322.451
322.607
322.814
322.993
323.136
323.035
322.942
322.917
322.742
322.565
322.29
322.07
321.675
321.355
321.184
320.661
316.531
316.868
317.096
317.232
317.592
317.702
317.836
318.032
318.098
318.092
317.932
317.964
317.848
317.651
317.426
317.324
316.964
316.729
316.579
316.152
311.871
312.094
312.263
312.374
312.65
312.7
312.793
312.945
312.983
313.018
312.876
312.882
312.814
312.681
312.475
312.456
312.185
312.038
311.948
311.556
307.146
307.272
307.365
307.463
307.616
307.648
307.717
307.801
307.807
307.868
307.76
307.738
307.737
307.675
307.487
307.528
307.37
307.3
307.196
306.935
302.399
302.447
302.478
302.512
302.556
302.555
302.599
302.634
302.649
302.64
302.585
302.6
302.61
302.592
302.505
302.532
302.503
302.45
302.42
302.336
335.538
335.935
336.605
337.158
337.673
337.915
338.419
338.432
338.51
338.422
338.595
338.433
338.149
338.018
337.629
337.164
336.512
335.931
335.506
334.619
331.193
331.572
332.159
332.679
333.092
333.323
333.756
333.79
333.793
333.771
333.905
333.782
333.518
333.379
333.005
332.635
332.05
331.546
331.185
330.41
326.661
327.021
327.51
327.959
328.342
328.58
328.903
328.899
328.865
328.928
328.994
328.868
328.762
328.542
328.188
327.905
327.382
326.987
326.645
325.958
322.007
322.316
322.723
323.083
323.439
323.64
323.834
323.856
323.855
323.903
323.94
323.79
323.763
323.552
323.242
323.035
322.582
322.295
321.964
321.404
317.228
317.462
317.836
318.047
318.37
318.556
318.622
318.643
318.697
318.709
318.814
318.594
318.579
318.43
318.176
318.009
317.622
317.47
317.173
316.737
312.312
312.517
312.837
312.984
313.201
313.36
313.339
313.395
313.393
313.449
313.565
313.324
313.34
313.251
313.049
312.92
312.647
312.544
312.342
312.009
307.393
307.539
307.736
307.803
308
308.046
308.016
308.094
308.062
308.113
308.18
308.017
308.041
307.987
307.853
307.778
307.579
307.587
307.421
307.257
302.491
302.523
302.593
302.621
302.676
302.703
302.694
302.702
302.686
302.744
302.754
302.695
302.699
302.679
302.637
302.617
302.545
302.554
302.509
302.456
337.112
337.429
338.167
338.661
339.134
339.769
340.015
340.136
340.26
340.17
340.282
339.967
339.874
339.528
339.076
338.598
338.119
337.568
336.978
335.961
332.619
332.904
333.493
333.923
334.388
334.906
335.176
335.279
335.374
335.264
335.395
335.103
335.006
334.691
334.284
333.884
333.412
332.984
332.456
331.596
327.865
328.111
328.657
328.989
329.447
329.831
330.144
330.167
330.245
330.104
330.283
330.036
329.899
329.621
329.322
328.966
328.594
328.176
327.76
327.015
322.953
323.184
323.657
323.936
324.335
324.628
324.859
324.855
324.943
324.803
325.021
324.771
324.639
324.392
324.165
323.904
323.623
323.202
322.897
322.3
317.943
318.153
318.567
318.786
319.073
319.307
319.459
319.433
319.518
319.372
319.638
319.402
319.289
319.073
318.881
318.75
318.513
318.153
317.911
317.478
312.858
313.018
313.356
313.491
313.714
313.878
313.977
313.942
313.968
313.891
314.104
313.905
313.847
313.664
313.548
313.479
313.327
313.057
312.85
312.559
307.76
307.817
308.067
308.15
308.276
308.365
308.417
308.389
308.386
308.341
308.499
308.373
308.338
308.237
308.16
308.163
308.051
307.89
307.738
307.569
302.614
302.605
302.71
302.739
302.789
302.828
302.816
302.829
302.813
302.805
302.859
302.804
302.788
302.762
302.738
302.748
302.71
302.661
302.582
302.529
338.271
338.999
339.694
340.228
340.67
341.035
341.362
341.8
341.882
341.844
341.916
341.513
341.356
341.116
340.845
340.098
339.805
338.948
338.374
337.786
333.613
334.277
334.864
335.316
335.724
336.014
336.285
336.695
336.787
336.755
336.841
336.475
336.283
336.098
335.835
335.193
334.948
334.223
333.67
333.147
328.733
329.305
329.81
330.226
330.543
330.817
330.997
331.4
331.474
331.463
331.547
331.161
330.974
330.862
330.605
330.082
329.886
329.29
328.749
328.309
323.721
324.197
324.606
324.965
325.198
325.425
325.572
325.908
325.988
325.971
326.016
325.671
325.542
325.422
325.193
324.77
324.645
324.179
323.698
323.28
318.578
318.952
319.264
319.561
319.727
319.893
320.023
320.242
320.35
320.307
320.356
320.122
319.981
319.895
319.694
319.419
319.333
318.944
318.536
318.174
313.303
313.619
313.848
314.065
314.151
314.305
314.363
314.494
314.608
314.561
314.611
314.431
314.342
314.212
314.111
313.948
313.926
313.603
313.3
313.015
307.984
308.205
308.33
308.449
308.519
308.598
308.625
308.729
308.806
308.787
308.827
308.676
308.672
308.566
308.481
308.404
308.427
308.234
308.028
307.852
302.669
302.754
302.788
302.823
302.866
302.88
302.902
302.929
302.954
302.932
302.957
302.919
302.912
302.867
302.839
302.822
302.857
302.767
302.713
302.613
339.664
340.108
340.822
341.687
342.197
342.629
342.977
343.384
343.529
343.396
343.411
343.373
342.982
342.663
342.228
341.738
341.297
340.444
339.7
339.186
334.861
335.199
335.887
336.621
337.013
337.401
337.722
338.094
338.23
338.042
338.078
338.022
337.723
337.449
337.027
336.593
336.227
335.508
334.828
334.387
329.821
330.086
330.704
331.333
331.607
331.98
332.225
332.605
332.68
332.485
332.538
332.484
332.222
332.049
331.624
331.218
330.943
330.355
329.766
329.32
324.634
324.82
325.346
325.828
326.058
326.366
326.589
326.859
326.969
326.755
326.834
326.77
326.54
326.446
326.075
325.682
325.522
324.981
324.563
324.123
319.342
319.442
319.851
320.219
320.411
320.655
320.755
321.01
321.134
320.917
320.995
320.955
320.796
320.686
320.425
320.06
319.991
319.548
319.213
318.85
313.934
313.976
314.288
314.547
314.669
314.838
314.852
315.064
315.187
314.967
315.029
315.062
314.919
314.874
314.675
314.369
314.345
314.019
313.798
313.51
308.421
308.443
308.642
308.753
308.841
308.934
308.926
309.077
309.138
309.018
309.009
309.057
308.981
308.965
308.842
308.667
308.632
308.457
308.302
308.134
302.825
302.826
302.908
302.947
302.981
302.99
302.994
303.047
303.064
303.058
303.012
303.029
303.03
302.988
302.967
302.934
302.888
302.832
302.781
302.721
341.053
341.541
342.276
343.022
343.621
344.099
344.48
344.844
344.959
345
344.995
344.741
344.696
344.327
343.902
343.071
342.699
341.839
341.197
340.482
336.077
336.45
337.085
337.756
338.269
338.67
339.033
339.339
339.43
339.511
339.464
339.25
339.178
338.889
338.523
337.794
337.477
336.675
336.166
335.485
330.858
331.171
331.712
332.283
332.739
333.049
333.341
333.58
333.727
333.804
333.702
333.516
333.448
333.252
332.888
332.279
331.997
331.308
330.924
330.291
325.446
325.703
326.16
326.657
326.978
327.249
327.459
327.676
327.859
327.89
327.788
327.597
327.564
327.408
327.101
326.599
326.389
325.744
325.484
324.97
319.957
320.098
320.494
320.846
321.095
321.319
321.486
321.69
321.799
321.835
321.748
321.551
321.587
321.494
321.214
320.825
320.667
320.092
319.96
319.547
314.329
314.455
314.738
314.972
315.095
315.308
315.42
315.593
315.638
315.703
315.601
315.468
315.506
315.403
315.217
314.953
314.842
314.407
314.325
314.04
308.623
308.675
308.896
309.008
309.07
309.195
309.304
309.375
309.402
309.464
309.375
309.304
309.356
309.223
309.165
308.962
308.975
308.649
308.646
308.494
302.859
302.908
302.996
303.012
303.027
303.065
303.132
303.14
303.172
303.176
303.129
303.128
303.151
303.096
303.076
303.008
303.021
302.911
302.883
302.856
342.215
342.66
343.43
344.445
345.072
345.608
345.815
346.017
346.506
346.445
346.411
346.186
346.196
345.897
345.535
344.599
344.173
343.363
342.474
341.813
337.044
337.419
338.077
339.001
339.544
340.073
340.187
340.343
340.773
340.734
340.726
340.518
340.534
340.271
339.986
339.113
338.719
338.038
337.283
336.647
331.653
331.966
332.528
333.349
333.806
334.274
334.374
334.443
334.819
334.783
334.808
334.654
334.616
334.378
334.183
333.432
333.087
332.502
331.848
331.315
326.11
326.378
326.81
327.516
327.858
328.27
328.367
328.383
328.726
328.657
328.786
328.59
328.53
328.34
328.224
327.595
327.279
326.796
326.247
325.827
320.419
320.649
321.01
321.52
321.779
322.112
322.227
322.171
322.482
322.432
322.524
322.415
322.306
322.16
322.105
321.57
321.332
320.938
320.529
320.227
314.631
314.778
315.143
315.467
315.634
315.894
315.992
315.906
316.116
316.105
316.148
316.099
316.003
315.863
315.879
315.483
315.311
315.006
314.759
314.516
308.792
308.903
309.149
309.297
309.402
309.572
309.648
309.599
309.693
309.696
309.746
309.705
309.646
309.486
309.553
309.311
309.205
309.083
308.862
308.77
302.956
302.975
303.054
303.107
303.152
303.218
303.22
303.223
303.239
303.227
303.278
303.27
303.237
303.18
303.195
303.129
303.066
303.052
302.962
302.944
343.213
343.772
344.597
345.731
346.251
347.002
347.208
347.245
347.822
347.758
347.941
347.733
347.525
347.204
346.752
346.092
345.638
344.619
343.794
343.153
337.905
338.364
339.144
340.118
340.55
341.257
341.371
341.384
341.972
341.883
342.07
341.836
341.663
341.416
340.993
340.438
339.996
339.12
338.406
337.835
332.372
332.792
333.472
334.299
334.616
335.246
335.334
335.361
335.869
335.79
335.919
335.708
335.581
335.384
335.037
334.585
334.141
333.394
332.792
332.249
326.659
327.015
327.601
328.314
328.497
329.056
329.155
329.164
329.581
329.549
329.615
329.425
329.34
329.175
328.898
328.514
328.161
327.545
327.039
326.571
320.838
321.147
321.629
322.164
322.253
322.743
322.839
322.825
323.168
323.137
323.172
323.034
322.973
322.83
322.636
322.305
322.028
321.55
321.155
320.744
314.972
315.236
315.541
315.877
315.984
316.347
316.415
316.357
316.61
316.626
316.635
316.533
316.508
316.375
316.262
316.014
315.819
315.452
315.172
314.859
308.999
309.194
309.358
309.518
309.648
309.87
309.912
309.861
310.003
310.019
310.002
309.934
309.986
309.86
309.803
309.665
309.509
309.318
309.182
308.938
303.005
303.097
303.136
303.187
303.225
303.307
303.321
303.292
303.377
303.356
303.348
303.324
303.345
303.306
303.27
303.252
303.196
303.138
303.055
302.998
344.116
345.054
345.785
346.769
347.457
348.042
348.316
348.604
348.999
349.011
348.933
348.979
348.909
348.562
347.959
347.616
346.887
345.609
344.904
344.397
338.687
339.486
340.179
341.005
341.614
342.107
342.359
342.591
342.987
342.952
342.896
342.96
342.874
342.545
342.047
341.765
341.092
339.989
339.329
338.902
333.042
333.728
334.349
335.029
335.502
335.968
336.173
336.393
336.724
336.679
336.599
336.689
336.547
336.282
335.882
335.68
335.051
334.165
333.531
333.204
327.229
327.78
328.339
328.896
329.206
329.677
329.826
329.989
330.278
330.219
330.182
330.308
330.105
329.855
329.572
329.376
328.84
328.165
327.572
327.34
321.317
321.732
322.199
322.605
322.828
323.219
323.366
323.431
323.718
323.611
323.594
323.734
323.565
323.357
323.103
322.972
322.541
322.025
321.606
321.365
315.297
315.595
315.964
316.23
316.377
316.683
316.761
316.821
316.994
316.938
316.951
317.057
316.935
316.749
316.593
316.456
316.158
315.78
315.521
315.371
309.22
309.399
309.621
309.826
309.865
310.064
310.116
310.145
310.253
310.176
310.203
310.288
310.215
310.076
309.999
309.91
309.696
309.48
309.368
309.292
303.075
303.177
303.232
303.302
303.319
303.385
303.398
303.433
303.454
303.417
303.421
303.426
303.414
303.378
303.353
303.336
303.25
303.173
303.146
303.106
345.183
346.022
347.011
347.891
348.579
348.982
349.603
350.076
350.308
350.246
350.231
350.496
350.125
349.815
349.154
348.574
347.815
346.905
346.032
345.367
339.671
340.369
341.267
342.002
342.582
342.882
343.489
343.895
344.093
344.047
344.033
344.257
343.895
343.697
343.096
342.589
341.907
341.11
340.319
339.767
333.87
334.483
335.243
335.88
336.36
336.58
337.151
337.485
337.637
337.614
337.659
337.744
337.459
337.294
336.826
336.349
335.817
335.12
334.399
333.997
327.924
328.435
329.067
329.58
329.965
330.127
330.64
330.911
330.978
331.006
331.083
331.086
330.866
330.744
330.39
329.954
329.463
328.959
328.31
327.985
321.842
322.266
322.735
323.126
323.406
323.562
323.962
324.201
324.254
324.249
324.327
324.257
324.137
324.065
323.753
323.418
323.02
322.663
322.094
321.886
315.675
315.988
316.302
316.59
316.789
316.92
317.197
317.371
317.45
317.382
317.468
317.37
317.36
317.289
317.018
316.804
316.507
316.283
315.832
315.677
309.452
309.635
309.794
309.983
310.101
310.221
310.363
310.441
310.53
310.449
310.509
310.451
310.51
310.425
310.233
310.109
309.939
309.828
309.546
309.426
303.172
303.235
303.286
303.352
303.383
303.434
303.491
303.493
303.518
303.499
303.538
303.514
303.533
303.499
303.412
303.386
303.338
303.296
303.211
303.156
346.389
347.113
347.905
348.984
349.661
350.353
350.815
351.221
351.341
351.579
351.469
351.493
351.293
350.873
350.296
349.77
349.061
348.156
347.356
346.564
340.686
341.27
342.026
342.921
343.524
344.146
344.575
344.9
344.994
345.159
345.138
345.115
344.97
344.61
344.074
343.596
342.995
342.176
341.52
340.835
334.733
335.203
335.922
336.663
337.157
337.688
338.103
338.348
338.433
338.558
338.582
338.521
338.423
338.101
337.649
337.196
336.689
335.987
335.454
334.872
328.606
328.998
329.624
330.222
330.607
331.052
331.419
331.616
331.688
331.738
331.832
331.697
331.688
331.404
331.038
330.601
330.246
329.655
329.22
328.754
322.377
322.63
323.179
323.588
323.934
324.308
324.541
324.746
324.789
324.773
324.926
324.762
324.753
324.568
324.259
323.965
323.65
323.175
322.797
322.444
316.044
316.169
316.634
316.915
317.202
317.438
317.568
317.769
317.805
317.754
317.87
317.74
317.767
317.617
317.39
317.164
316.997
316.642
316.357
316.053
309.665
309.699
310.02
310.191
310.388
310.52
310.588
310.714
310.724
310.668
310.771
310.654
310.675
310.62
310.465
310.315
310.233
310.049
309.866
309.651
303.237
303.252
303.379
303.413
303.494
303.524
303.578
303.609
303.595
303.571
303.61
303.55
303.585
303.561
303.528
303.468
303.436
303.389
303.298
303.227
347.19
348.047
348.954
349.954
350.69
351.47
351.736
352.411
352.374
352.739
352.99
352.567
352.423
351.83
351.489
350.764
350.224
349.159
348.32
347.515
341.392
342.117
342.896
343.776
344.395
345.145
345.359
345.956
345.894
346.204
346.41
346.031
345.968
345.444
345.102
344.474
344.002
343.012
342.361
341.677
335.385
335.966
336.624
337.337
337.92
338.553
338.726
339.223
339.202
339.432
339.592
339.248
339.241
338.807
338.442
337.998
337.568
336.676
336.148
335.601
329.188
329.666
330.203
330.761
331.247
331.767
331.868
332.343
332.312
332.446
332.593
332.333
332.304
332.014
331.626
331.326
330.976
330.229
329.787
329.333
322.829
323.215
323.635
324.065
324.447
324.892
324.891
325.304
325.298
325.375
325.501
325.33
325.25
325.042
324.702
324.501
324.196
323.699
323.26
322.94
316.394
316.642
316.93
317.297
317.513
317.861
317.803
318.17
318.194
318.213
318.336
318.17
318.146
317.983
317.691
317.555
317.362
317.014
316.658
316.42
309.859
310.027
310.2
310.426
310.555
310.734
310.682
310.909
310.996
310.988
311.069
310.936
310.937
310.839
310.639
310.546
310.46
310.217
310.009
309.842
303.309
303.395
303.423
303.513
303.533
303.608
303.586
303.66
303.704
303.689
303.717
303.665
303.67
303.646
303.571
303.55
303.504
303.429
303.349
303.296
347.989
349.044
349.81
350.632
351.588
352.292
352.795
353.247
353.195
353.551
353.771
353.516
353.221
352.796
352.363
351.817
351.216
350.08
349.093
348.205
342.035
342.993
343.67
344.352
345.17
345.805
346.251
346.658
346.601
346.953
347.096
346.86
346.613
346.244
345.877
345.37
344.862
343.829
343.007
342.21
335.911
336.683
337.308
337.833
338.506
339.109
339.477
339.831
339.812
340.069
340.211
339.949
339.818
339.441
339.159
338.669
338.242
337.396
336.703
336.029
329.534
330.173
330.767
331.129
331.701
332.237
332.518
332.855
332.819
333.014
333.114
332.884
332.781
332.492
332.246
331.825
331.436
330.811
330.216
329.689
323.033
323.589
324.087
324.282
324.786
325.237
325.393
325.711
325.651
325.836
325.891
325.71
325.642
325.415
325.201
324.837
324.538
324.1
323.645
323.225
316.52
316.926
317.266
317.41
317.787
318.088
318.215
318.489
318.391
318.537
318.596
318.436
318.425
318.233
318.094
317.78
317.601
317.286
316.948
316.649
309.93
310.206
310.439
310.505
310.695
310.916
310.958
311.108
311.087
311.152
311.225
311.092
311.084
310.979
310.884
310.686
310.6
310.407
310.187
309.999
303.323
303.432
303.505
303.521
303.583
303.678
303.672
303.729
303.711
303.751
303.766
303.723
303.715
303.686
303.643
303.593
303.558
303.486
303.428
303.37
348.58
349.574
350.695
351.527
352.295
353.079
353.693
354.178
354.378
354.683
354.593
354.606
354.337
353.551
353.282
352.56
351.964
350.88
349.971
348.917
342.553
343.435
344.448
345.126
345.771
346.506
347.061
347.504
347.603
347.884
347.802
347.832
347.626
346.883
346.653
346.009
345.483
344.548
343.727
342.828
336.311
337.055
337.961
338.474
339.039
339.684
340.172
340.539
340.583
340.851
340.784
340.797
340.7
339.976
339.837
339.266
338.8
337.99
337.317
336.513
329.89
330.523
331.265
331.638
332.2
332.714
333.095
333.362
333.413
333.696
333.567
333.576
333.533
332.896
332.818
332.326
331.989
331.248
330.743
330.048
323.345
323.864
324.447
324.718
325.198
325.594
325.882
326.092
326.125
326.342
326.218
326.26
326.233
325.698
325.646
325.263
325.015
324.37
324.001
323.5
316.75
317.131
317.539
317.697
318.064
318.355
318.538
318.715
318.699
318.92
318.751
318.851
318.811
318.414
318.369
318.156
317.914
317.474
317.263
316.863
310.105
310.348
310.572
310.635
310.874
311.07
311.119
311.271
311.234
311.406
311.245
311.34
311.341
311.084
311.078
310.937
310.777
310.514
310.395
310.172
303.393
303.483
303.553
303.587
303.652
303.738
303.732
303.781
303.761
303.853
303.75
303.795
303.815
303.715
303.707
303.665
303.633
303.542
303.501
303.43
349.13
350.282
351.315
352.198
353.077
353.818
354.337
354.946
355.314
355.317
355.295
355.101
355.055
354.509
354.049
353.314
352.703
351.63
350.664
349.866
343.063
344.033
345.015
345.732
346.461
347.099
347.639
348.099
348.393
348.433
348.442
348.266
348.221
347.734
347.322
346.668
346.107
345.176
344.357
343.67
336.777
337.577
338.453
339.025
339.622
340.21
340.735
341.006
341.251
341.272
341.359
341.137
341.136
340.747
340.366
339.812
339.27
338.555
337.807
337.254
330.301
330.935
331.7
332.116
332.649
333.152
333.618
333.751
333.986
333.963
334.016
333.859
333.857
333.548
333.257
332.784
332.304
331.765
331.129
330.667
323.715
324.196
324.776
325.118
325.533
325.946
326.339
326.36
326.594
326.517
326.586
326.417
326.453
326.251
325.991
325.611
325.243
324.863
324.32
323.985
317.026
317.37
317.777
318.059
318.317
318.633
318.932
318.899
319.066
319.006
319.047
318.956
318.97
318.785
318.655
318.384
318.048
317.846
317.423
317.179
310.239
310.459
310.723
310.899
311.006
311.243
311.4
311.375
311.483
311.451
311.489
311.396
311.406
311.282
311.241
311.088
310.849
310.75
310.495
310.349
303.412
303.51
303.596
303.652
303.701
303.788
303.849
303.829
303.851
303.824
303.849
303.818
303.827
303.785
303.766
303.723
303.624
303.593
303.508
303.482
349.613
350.523
351.788
352.734
353.489
354.286
354.967
355.531
355.403
355.907
355.905
355.894
355.614
355.249
354.565
353.921
353.209
352.133
351.357
350.491
343.46
344.273
345.372
346.162
346.839
347.555
348.139
348.588
348.49
348.971
348.975
348.896
348.721
348.387
347.754
347.192
346.551
345.66
344.948
344.198
337.097
337.812
338.728
339.333
339.982
340.597
341.117
341.392
341.368
341.795
341.85
341.64
341.546
341.301
340.716
340.218
339.654
338.955
338.318
337.724
330.584
331.155
331.941
332.404
332.953
333.466
333.88
334.02
334.058
334.44
334.536
334.244
334.168
334.02
333.507
333.14
332.608
332.053
331.521
331.095
323.926
324.332
324.982
325.338
325.761
326.196
326.52
326.524
326.641
326.961
327.019
326.806
326.693
326.604
326.194
325.888
325.482
325.027
324.615
324.321
317.171
317.411
317.904
318.173
318.472
318.854
319.011
318.996
319.119
319.343
319.387
319.245
319.12
319.134
318.802
318.534
318.282
317.919
317.638
317.459
310.368
310.49
310.804
310.968
311.116
311.377
311.443
311.426
311.507
311.641
311.693
311.588
311.527
311.548
311.287
311.162
311.023
310.766
310.631
310.517
303.488
303.508
303.633
303.691
303.727
303.831
303.852
303.843
303.862
303.92
303.929
303.885
303.87
303.885
303.769
303.742
303.707
303.609
303.583
303.524
349.884
350.938
351.996
353.071
353.981
354.938
355.356
355.726
355.899
356.523
356.404
356.301
356.037
355.692
355.076
354.412
353.442
352.438
351.512
350.666
343.7
344.574
345.516
346.468
347.225
348.07
348.439
348.762
348.899
349.494
349.351
349.238
349.022
348.723
348.152
347.607
346.745
345.865
345.094
344.355
337.35
338.039
338.859
339.646
340.297
340.993
341.342
341.567
341.672
342.219
342.07
342.033
341.79
341.517
340.995
340.57
339.874
339.058
338.436
337.833
330.779
331.339
332.046
332.62
333.215
333.767
334.078
334.187
334.293
334.784
334.63
334.629
334.399
334.172
333.686
333.389
332.806
332.132
331.666
331.154
324.077
324.53
325.075
325.525
326.002
326.395
326.68
326.686
326.831
327.209
327.071
327.11
326.901
326.698
326.297
326.085
325.603
325.125
324.786
324.382
317.275
317.582
318.012
318.307
318.67
318.951
319.183
319.162
319.248
319.492
319.412
319.465
319.258
319.151
318.853
318.72
318.398
318.001
317.749
317.434
310.414
310.604
310.847
311.001
311.273
311.379
311.54
311.54
311.588
311.727
311.674
311.726
311.605
311.556
311.367
311.287
311.099
310.833
310.71
310.471
303.498
303.548
303.624
303.693
303.791
303.828
303.857
303.885
303.886
303.925
303.918
303.936
303.89
303.901
303.81
303.801
303.726
303.653
303.581
303.523
)
;

boundaryField
{
    hotSide
    {
        type            fixedGradient;
        gradient        nonuniform List<scalar> 
400
(
265.573
279.941
294.292
308.565
322.693
336.611
350.253
363.552
376.442
388.859
400.738
412.018
422.64
432.549
441.691
450.02
457.49
464.065
469.709
474.394
270.137
284.939
299.731
314.449
329.026
343.394
357.485
371.23
384.56
397.408
409.709
421.399
432.417
442.705
452.208
460.877
468.666
475.535
481.448
486.376
274.059
289.26
304.459
319.588
334.58
349.364
363.87
378.028
391.767
405.017
417.711
429.783
441.17
451.813
461.654
470.643
478.732
485.879
492.048
497.207
277.358
292.92
308.488
323.991
339.36
354.523
369.409
383.944
398.056
411.675
424.729
437.153
448.88
459.85
470.004
479.289
487.656
495.062
501.469
506.845
280.053
295.938
311.834
327.671
343.377
358.88
374.106
388.98
403.428
417.378
430.758
443.499
455.533
466.799
477.237
486.791
495.412
503.055
509.681
515.256
282.171
298.336
314.518
330.647
346.648
362.448
377.972
393.143
407.887
422.129
435.795
448.816
461.123
472.652
483.341
493.135
501.982
509.837
516.659
522.414
283.735
300.137
316.562
332.937
349.189
365.242
381.019
396.444
411.44
425.931
439.844
453.105
465.646
477.401
488.308
498.31
507.353
515.392
522.385
528.297
284.772
301.365
317.986
334.562
351.017
367.276
383.261
398.894
414.097
428.793
442.908
456.368
469.102
481.045
492.133
502.307
511.515
519.708
526.845
532.891
285.302
302.04
318.81
335.539
352.15
368.566
384.71
400.503
415.865
430.721
444.992
458.607
471.492
483.582
494.812
505.122
514.46
522.776
530.029
536.181
285.344
302.18
319.05
335.882
352.599
369.124
385.377
401.28
416.754
431.72
446.102
459.825
472.817
485.012
496.343
506.752
516.184
524.59
531.927
538.159
284.912
301.796
318.717
335.603
352.375
368.957
385.269
401.232
416.767
431.794
446.238
460.023
473.078
485.333
496.724
507.192
516.681
525.142
532.532
538.815
284.013
300.897
317.819
334.707
351.484
368.071
384.391
400.362
415.907
430.946
445.403
459.202
472.272
484.543
495.952
506.438
515.947
524.428
531.839
538.143
282.651
299.484
316.357
333.196
349.925
366.466
382.741
398.67
414.173
429.174
443.594
457.359
470.398
482.641
494.024
504.488
513.978
522.444
529.843
536.139
280.821
297.554
314.327
331.066
347.696
364.139
380.317
396.151
411.563
426.474
440.808
454.492
467.452
479.622
490.938
501.339
510.772
519.188
526.542
532.8
278.516
295.1
311.722
328.311
344.79
361.083
377.113
392.802
408.07
422.842
437.042
450.595
463.432
475.485
486.691
496.99
506.328
514.658
521.936
528.127
275.724
292.11
308.532
324.919
341.197
357.29
373.121
388.613
403.689
418.273
432.29
445.668
458.336
470.228
481.282
491.439
500.647
508.857
516.028
522.125
272.429
288.569
304.743
320.88
336.908
352.75
368.333
383.58
398.414
412.763
426.55
439.706
452.162
463.852
474.715
484.694
493.735
501.794
508.828
514.802
268.616
284.464
300.343
316.182
331.91
347.455
362.742
377.695
392.242
406.309
419.823
432.714
444.916
456.364
466.998
476.761
485.604
493.48
500.349
506.176
264.27
279.781
295.318
310.814
326.198
341.398
356.343
370.959
385.173
398.915
412.113
424.698
436.607
447.775
458.144
467.659
476.272
483.936
490.614
496.272
259.377
274.508
289.661
304.769
319.765
334.578
349.137
363.373
377.213
390.589
403.431
415.672
427.25
438.104
448.175
457.412
465.765
473.193
479.656
485.123
)
;
    }
    coldSide
    {
        type            mixed;
        refValue        uniform 300;
        refGradient     uniform 0;
        valueFraction   uniform 0.991591;
        source          uniform 0;
        value           nonuniform List<scalar> 
400
(
300.018
300.019
300.02
300.02
300.021
300.022
300.022
300.024
300.024
300.025
300.025
300.026
300.027
300.027
300.028
300.028
300.029
300.029
300.029
300.029
300.019
300.019
300.02
300.021
300.021
300.022
300.023
300.024
300.024
300.025
300.026
300.027
300.027
300.027
300.029
300.029
300.029