/*--------------------------------*- C++ -*----------------------------------*\
| =========                 |                                                 |
| \\      /  F ield         | OpenFOAM: The Open Source CFD Toolbox           |
|  \\    /   O peration     | Version:  2212                                  |
|   \\  /    A nd           | Website:  www.openfoam.com                      |
|    \\/     M anipulation  |                                                 |
\*---------------------------------------------------------------------------*/
FoamFile
{
    version     2.0;
    format      ascii;
    arch        "LSB;label=32;scalar=64";
    class       volScalarField;
    location    "0";
    object      T;
}
// * * * * * * * * * * * * * * * * * * * * * * * * * * * * * * * * * * * * * //

dimensions      [0 0 0 1 0 0 0];

internalField   nonuniform List<scalar> 
3200
(
331.325
330.201
329.436
328.824
328.652
328.661
328.857
328.878
329.009
328.841
328.77
328.449
328.246
327.67
327.156
326.862
326.725
326.871
327.59
328.157
327.122
326.175
325.533
324.993
324.839
324.857
325.021
325.031
325.12
324.992
324.907
324.616
324.487
323.986
323.525
323.293
323.146
323.284
323.908
324.357
322.931
322.139
321.613
321.154
321.031
321.038
321.179
321.178
321.225
321.14
321.047
320.796
320.722
320.294
319.878
319.73
319.564
319.719
320.242
320.582
318.726
318.097
317.697
317.315
317.231
317.229
317.344
317.312
317.352
317.293
317.196
317.002
316.946
316.606
316.233
316.137
315.989
316.134
316.576
316.84
314.531
314.064
313.785
313.462
313.435
313.412
313.5
313.494
313.479
313.469
313.367
313.215
313.168
312.908
312.615
312.55
312.42
312.545
312.901
313.103
310.37
310.042
309.851
309.611
309.606
309.577
309.646
309.667
309.61
309.628
309.548
309.443
309.392
309.226
309.019
308.972
308.856
308.948
309.207
309.363
306.203
306.035
305.925
305.769
305.758
305.732
305.792
305.822
305.757
305.763
305.726
305.675
305.634
305.539
305.42
305.378
305.32
305.397
305.533
305.626
302.073
302.027
301.985
301.933
301.934
301.919
301.938
301.965
301.927
301.934
301.916
301.906
301.888
301.853
301.817
301.797
301.786
301.809
301.856
301.887
331.319
330.317
329.517
328.896
328.812
328.783
328.972
329.096
329.153
329.219
329.066
328.804
328.491
327.864
327.358
327.063
326.878
327.052
327.685
328.45
327.098
326.263
325.603
325.051
324.965
324.931
325.119
325.216
325.267
325.307
325.186
324.942
324.667
324.106
323.679
323.47
323.279
323.444
323.998
324.613
322.909
322.191
321.669
321.201
321.126
321.098
321.226
321.355
321.403
321.402
321.292
321.059
320.854
320.364
319.994
319.857
319.686
319.824
320.275
320.812
318.734
318.135
317.709
317.333
317.295
317.268
317.345
317.487
317.532
317.505
317.406
317.206
317.041
316.643
316.321
316.264
316.099
316.216
316.571
317.027
314.532
314.085
313.779
313.493
313.444
313.442
313.451
313.601
313.614
313.631
313.527
313.36
313.235
312.93
312.677
312.659
312.517
312.603
312.883
313.242
310.363
310.057
309.873
309.637
309.602
309.601
309.595
309.726
309.704
309.746
309.68
309.52
309.446
309.236
309.066
309.076
308.923
308.984
309.215
309.461
306.224
306.027
305.931
305.775
305.781
305.752
305.759
305.851
305.832
305.857
305.817
305.717
305.656
305.548
305.444
305.47
305.354
305.398
305.542
305.669
302.093
302.023
301.988
301.928
301.932
301.919
301.927
301.969
301.961
301.966
301.945
301.923
301.885
301.869
301.837
301.83
301.793
301.816
301.859
301.898
331.586
330.605
329.724
329.282
329.157
329.105
329.322
329.358
329.693
329.699
329.611
329.315
328.843
328.374
327.755
327.48
327.254
327.351
327.978
328.739
327.34
326.497
325.75
325.358
325.274
325.2
325.387
325.43
325.726
325.697
325.642
325.374
324.967
324.544
324.042
323.827
323.606
323.71
324.273
324.856
323.118
322.39
321.796
321.45
321.366
321.307
321.468
321.533
321.785
321.716
321.686
321.448
321.131
320.725
320.322
320.15
319.974
320.072
320.544
321.016
318.901
318.311
317.859
317.517
317.483
317.433
317.563
317.625
317.833
317.743
317.73
317.529
317.296
316.935
316.626
316.483
316.355
316.425
316.815
317.178
314.696
314.232
313.907
313.599
313.592
313.575
313.655
313.709
313.869
313.775
313.788
313.629
313.455
313.168
312.923
312.826
312.728
312.785
313.075
313.337
310.466
310.157
309.946
309.699
309.717
309.704
309.744
309.796
309.903
309.812
309.854
309.727
309.631
309.394
309.225
309.175
309.101
309.133
309.337
309.509
306.275
306.097
305.969
305.815
305.839
305.829
305.834
305.884
305.946
305.9
305.908
305.84
305.795
305.655
305.539
305.529
305.471
305.496
305.614
305.71
302.097
302.042
302.01
301.945
301.958
301.959
301.958
301.975
301.99
301.985
301.979
301.96
301.942
301.897
301.858
301.864
301.835
301.851
301.89
301.924
332.005
330.975
330.173
329.733
329.58
329.505
329.727
329.891
330.166
330.248
330.236
329.786
329.497
328.955
328.335
328.003
327.708
327.917
328.415
329.188
327.706
326.835
326.158
325.765
325.633
325.561
325.745
325.851
326.116
326.166
326.165
325.768
325.535
325.069
324.521
324.232
324.012
324.205
324.628
325.253
323.404
322.704
322.143
321.796
321.675
321.6
321.778
321.849
322.076
322.099
322.1
321.762
321.577
321.188
320.727
320.472
320.319
320.48
320.829
321.338
319.102
318.575
318.117
317.823
317.707
317.671
317.816
317.868
318.051
318.052
318.057
317.793
317.629
317.322
316.934
316.723
316.598
316.769
317.036
317.44
314.821
314.439
314.104
313.854
313.776
313.753
313.833
313.917
314.038
314.014
314.021
313.856
313.708
313.465
313.162
312.994
312.902
313.056
313.245
313.565
310.573
310.332
310.088
309.885
309.847
309.815
309.87
309.945
310.012
310.009
310.013
309.906
309.776
309.624
309.397
309.259
309.22
309.326
309.455
309.694
306.355
306.204
306.072
305.92
305.92
305.898
305.934
305.958
306.004
306.016
306.023
305.944
305.867
305.776
305.639
305.536
305.53
305.606
305.679
305.828
302.142
302.076
302.038
301.98
301.98
301.989
301.986
301.996
302.014
302.02
302.027
301.991
301.967
301.941
301.879
301.852
301.854
301.876
301.899
301.96
332.672
331.566
330.858
330.38
330.093
330.213
330.357
330.502
330.781
330.899
330.874
330.51
330.117
329.592
328.988
328.635
328.371
328.501
328.958
329.797
328.272
327.334
326.736
326.321
326.076
326.147
326.259
326.378
326.639
326.752
326.721
326.388
326.036
325.617
325.074
324.774
324.578
324.701
325.081
325.788
323.889
323.112
322.596
322.245
322.05
322.133
322.184
322.287
322.506
322.62
322.586
322.294
321.98
321.651
321.164
320.926
320.799
320.909
321.235
321.796
319.509
318.894
318.46
318.181
318.027
318.085
318.136
318.232
318.393
318.487
318.464
318.226
317.983
317.704
317.286
317.101
317.025
317.107
317.375
317.81
315.158
314.674
314.363
314.097
314.013
314.039
314.106
314.156
314.281
314.389
314.336
314.166
313.984
313.756
313.432
313.261
313.25
313.301
313.513
313.851
310.777
310.461
310.26
310.045
309.996
310.009
310.059
310.081
310.168
310.285
310.234
310.09
309.997
309.818
309.608
309.473
309.439
309.498
309.649
309.881
306.466
306.266
306.162
306.015
305.998
306.007
306.022
306.05
306.08
306.178
306.131
306.057
306.002
305.89
305.777
305.694
305.658
305.721
305.784
305.934
302.163
302.092
302.06
302.017
302.013
302.006
302.012
302.023
302.033
302.073
302.062
302.028
302.013
301.972
301.939
301.909
301.887
301.923
301.934
301.987
333.428
332.369
331.493
331.058
330.875
330.956
331.12
331.254
331.526
331.571
331.525
331.168
330.869
330.412
329.826
329.328
329.128
329.317
329.787
330.392
328.935
328.058
327.29
326.894
326.738
326.808
326.937
327.051
327.27
327.318
327.28
326.966
326.666
326.317
325.786
325.392
325.216
325.388
325.795
326.313
324.453
323.729
323.068
322.729
322.6
322.667
322.761
322.871
323.03
323.107
323.055
322.774
322.503
322.237
321.759
321.474
321.316
321.456
321.821
322.248
319.993
319.41
318.871
318.577
318.492
318.533
318.617
318.687
318.817
318.906
318.839
318.59
318.372
318.167
317.763
317.541
317.431
317.524
317.825
318.179
315.517
315.073
314.703
314.443
314.376
314.412
314.48
314.511
314.626
314.701
314.643
314.428
314.256
314.107
313.818
313.646
313.555
313.612
313.859
314.135
311.082
310.752
310.507
310.308
310.28
310.284
310.339
310.371
310.454
310.505
310.462
310.294
310.186
310.093
309.892
309.728
309.693
309.722
309.899
310.106
306.647
306.441
306.315
306.202
306.179
306.167
306.188
306.243
306.294
306.308
306.287
306.193
306.128
306.063
305.953
305.835
305.827
305.844
305.944
306.09
302.227
302.155
302.127
302.091
302.073
302.067
302.08
302.095
302.112
302.112
302.114
302.079
302.058
302.035
302.001
301.963
301.95
301.953
301.994
302.04
334.223
333.182
332.254
331.88
331.66
331.611
331.869
332.051
332.334
332.286
332.251
332.073
331.671
331.225
330.641
330.189
330.006
330.132
330.566
331.155
329.609
328.744
327.936
327.613
327.409
327.357
327.583
327.733
327.962
327.912
327.874
327.732
327.393
327.028
326.517
326.129
325.991
326.102
326.456
326.929
325.02
324.308
323.634
323.349
323.168
323.096
323.317
323.423
323.618
323.566
323.524
323.418
323.138
322.837
322.415
322.064
321.996
322.069
322.371
322.736
320.463
319.867
319.339
319.091
318.928
318.847
319.06
319.138
319.291
319.252
319.225
319.14
318.902
318.659
318.328
318.026
318.008
318.049
318.292
318.583
315.908
315.439
315.015
314.831
314.734
314.631
314.816
314.853
314.989
314.955
314.949
314.857
314.669
314.503
314.25
314.022
314.01
314.04
314.232
314.452
311.361
311.009
310.709
310.611
310.533
310.44
310.579
310.614
310.71
310.688
310.676
310.604
310.469
310.355
310.198
310.013
310.004
310.05
310.146
310.325
306.828
306.618
306.44
306.374
306.327
306.276
306.345
306.383
306.431
306.435
306.403
306.363
306.277
306.214
306.137
306.005
306.007
306.037
306.089
306.196
302.289
302.214
302.162
302.137
302.12
302.105
302.123
302.138
302.172
302.167
302.145
302.131
302.092
302.077
302.06
302.012
301.999
302.021
302.042
302.076
334.915
333.997
333.219
332.799
332.613
332.497
332.719
332.836
333.105
333.12
333.097
333.011
332.553
332.035
331.617
331.11
331.047
331.133
331.543
332.057
330.208
329.421
328.75
328.408
328.219
328.113
328.307
328.38
328.599
328.631
328.612
328.54
328.147
327.681
327.357
326.914
326.899
326.949
327.292
327.692
325.539
324.862
324.306
324.023
323.849
323.747
323.905
323.959
324.138
324.184
324.156
324.121
323.8
323.362
323.099
322.745
322.739
322.775
323.06
323.367
320.867
320.307
319.869
319.646
319.507
319.413
319.525
319.6
319.713
319.76
319.727
319.711
319.465
319.083
318.87
318.583
318.579
318.655
318.864
319.096
316.217
315.775
315.446
315.274
315.163
315.075
315.173
315.229
315.314
315.372
315.332
315.318
315.153
314.846
314.667
314.43
314.427
314.52
314.654
314.856
311.592
311.251
311.038
310.911
310.839
310.764
310.82
310.88
310.919
310.989
310.93
310.953
310.838
310.617
310.501
310.283
310.289
310.392
310.471
310.609
306.96
306.75
306.617
306.558
306.516
306.461
306.479
306.532
306.555
306.586
306.551
306.582
306.515
306.389
306.314
306.159
306.182
306.251
306.273
306.38
302.336
302.257
302.224
302.199
302.182
302.163
302.165
302.191
302.198
302.202
302.19
302.211
302.193
302.15
302.114
302.067
302.074
302.105
302.099
302.128
335.844
334.962
334.207
333.699
333.506
333.408
333.527
333.567
334.028
333.959
334.065
333.953
333.557
332.999
332.582
332.087
332.054
332.098
332.636
333.104
331.002
330.266
329.621
329.151
329.019
328.911
329.013
329.008
329.397
329.364
329.453
329.368
329.02
328.54
328.215
327.754
327.766
327.772
328.252
328.59
326.206
325.587
325.028
324.638
324.536
324.446
324.543
324.493
324.796
324.792
324.876
324.821
324.511
324.111
323.841
323.435
323.476
323.477
323.865
324.112
321.407
320.915
320.462
320.172
320.065
319.986
320.075
320.02
320.239
320.248
320.318
320.312
320.043
319.702
319.509
319.133
319.183
319.218
319.518
319.681
316.613
316.268
315.898
315.689
315.611
315.537
315.601
315.545
315.699
315.728
315.805
315.81
315.582
315.3
315.184
314.841
314.899
314.938
315.187
315.278
311.864
311.616
311.352
311.197
311.167
311.091
311.143
311.081
311.184
311.22
311.27
311.306
311.126
310.912
310.845
310.584
310.63
310.659
310.854
310.913
307.119
306.973
306.826
306.722
306.705
306.65
306.694
306.65
306.715
306.747
306.748
306.787
306.685
306.54
306.528
306.36
306.381
306.39
306.51
306.551
302.381
302.331
302.285
302.256
302.247
302.223
302.24
302.229
302.242
302.258
302.257
302.278
302.241
302.191
302.194
302.121
302.139
302.137
302.183
302.203
336.805
335.881
335.114
334.62
334.494
334.319
334.492
334.669
334.923
334.943
334.956
334.891
334.42
333.807
333.502
333.125
332.982
333.107
333.55
334.114
331.843
331.056
330.385
329.957
329.857
329.694
329.814
329.965
330.197
330.193
330.227
330.168
329.75
329.229
328.969
328.639
328.544
328.647
329.019
329.493
326.897
326.259
325.664
325.3
325.246
325.082
325.18
325.294
325.483
325.468
325.53
325.476
325.119
324.693
324.478
324.192
324.129
324.201
324.521
324.865
321.975
321.463
320.982
320.668
320.642
320.483
320.578
320.676
320.804
320.785
320.84
320.8
320.538
320.168
320.007
319.769
319.728
319.775
320.038
320.311
317.065
316.679
316.327
316.054
316.027
315.917
316.016
316.058
316.149
316.144
316.196
316.174
316
315.666
315.553
315.334
315.317
315.36
315.575
315.778
312.176
311.9
311.671
311.474
311.427
311.365
311.437
311.464
311.525
311.532
311.562
311.54
311.46
311.173
311.085
310.944
310.94
310.972
311.144
311.271
307.315
307.154
307.018
306.891
306.856
306.819
306.872
306.88
306.921
306.933
306.957
306.922
306.899
306.688
306.634
306.576
306.576
306.589
306.692
306.77
302.448
302.4
302.354
302.298
302.294
302.287
302.303
302.303
302.322
302.327
302.336
302.319
302.331
302.24
302.211
302.215
302.205
302.216
302.247
302.263
337.826
336.994
336.239
335.71
335.462
335.406
335.464
335.48
335.793
335.764
335.858
335.842
335.44
334.797
334.575
334.213
334.1
334.22
334.519
335.28
332.724
331.995
331.357
330.89
330.667
330.612
330.682
330.658
330.936
330.909
331.007
330.977
330.644
330.097
329.914
329.605
329.479
329.587
329.855
330.475
327.628
327.032
326.493
326.095
325.912
325.847
325.925
325.887
326.103
326.085
326.177
326.152
325.868
325.43
325.279
325.007
324.885
324.988
325.216
325.706
322.581
322.089
321.652
321.311
321.165
321.129
321.175
321.141
321.324
321.298
321.376
321.362
321.14
320.799
320.68
320.423
320.31
320.407
320.603
320.975
317.556
317.165
316.827
316.544
316.434
316.433
316.443
316.4
316.573
316.534
316.588
316.587
316.452
316.182
316.071
315.841
315.763
315.835
316.03
316.286
312.529
312.267
312.017
311.809
311.728
311.726
311.755
311.706
311.856
311.804
311.841
311.827
311.743
311.545
311.484
311.289
311.253
311.314
311.461
311.624
307.505
307.379
307.204
307.093
307.025
307.038
307.05
307.03
307.136
307.072
307.124
307.104
307.048
306.932
306.887
306.756
306.749
306.799
306.903
306.993
302.517
302.481
302.418
302.38
302.349
302.356
302.359
302.346
302.396
302.376
302.38
302.378
302.359
302.321
302.309
302.26
302.245
302.279
302.323
302.336
338.774
338.055
337.339
336.83
336.559
336.41
336.441
336.478
336.65
336.649
336.76
336.651
336.383
335.787
335.494
335.29
335.198
335.354
335.739
336.192
333.508
332.907
332.297
331.861
331.635
331.496
331.511
331.529
331.659
331.665
331.773
331.671
331.445
330.941
330.706
330.525
330.437
330.553
330.933
331.294
328.271
327.801
327.286
326.918
326.712
326.606
326.624
326.627
326.717
326.74
326.805
326.74
326.53
326.134
325.954
325.785
325.682
325.785
326.122
326.435
323.085
322.702
322.29
321.993
321.794
321.746
321.77
321.744
321.839
321.835
321.865
321.851
321.672
321.364
321.218
321.064
320.965
321.069
321.345
321.614
317.94
317.649
317.321
317.064
316.923
316.905
316.94
316.881
316.971
316.963
316.965
316.978
316.82
316.58
316.491
316.362
316.298
316.367
316.58
316.811
312.814
312.602
312.374
312.17
312.067
312.06
312.116
312.04
312.096
312.131
312.117
312.121
312.004
311.826
311.777
311.674
311.646
311.69
311.845
312.026
307.706
307.565
307.435
307.317
307.242
307.238
307.284
307.248
307.261
307.287
307.291
307.271
307.218
307.087
307.073
307.013
307.001
307.024
307.126
307.237
302.589
302.528
302.494
302.458
302.43
302.419
302.454
302.439
302.428
302.441
302.456
302.436
302.419
302.368
302.367
302.351
302.346
302.363
302.389
302.442
340.011
339.175
338.504
338.006
337.665
337.463
337.372
337.399
337.494
337.633
337.578
337.481
337.204
336.856
336.524
336.32
336.254
336.4
336.853
337.409
334.572
333.9
333.304
332.904
332.559
332.407
332.307
332.322
332.398
332.53
332.461
332.409
332.149
331.869
331.591
331.412
331.355
331.464
331.876
332.329
329.171
328.639
328.12
327.803
327.481
327.38
327.272
327.301
327.32
327.471
327.395
327.363
327.123
326.899
326.665
326.538
326.485
326.539
326.912
327.294
323.819
323.402
322.988
322.71
322.411
322.36
322.267
322.301
322.314
322.437
322.378
322.35
322.154
321.964
321.774
321.665
321.643
321.655
321.983
322.277
318.496
318.187
317.863
317.668
317.393
317.358
317.288
317.317
317.331
317.441
317.376
317.365
317.21
317.05
316.889
316.832
316.804
316.803
317.052
317.316
313.202
312.99
312.754
312.621
312.413
312.394
312.333
312.365
312.364
312.462
312.414
312.4
312.279
312.141
312.034
312.013
311.978
311.977
312.163
312.379
307.918
307.801
307.653
307.588
307.466
307.416
307.398
307.41
307.409
307.49
307.46
307.448
307.353
307.279
307.212
307.225
307.193
307.182
307.299
307.424
302.648
302.616
302.569
302.538
302.498
302.474
302.483
302.488
302.473
302.512
302.495
302.498
302.458
302.435
302.42
302.426
302.411
302.409
302.449
302.485
341.06
340.199
339.496
338.983
338.69
338.386
338.383
338.295
338.439
338.571
338.486
338.396
338.01
337.785
337.465
337.34
337.362
337.578
338.006
338.389
335.501
334.747
334.149
333.716
333.474
333.206
333.181
333.122
333.212
333.34
333.261
333.168
332.851
332.658
332.378
332.271
332.305
332.472
332.864
333.188
329.961
329.361
328.859
328.471
328.267
328.052
328.024
327.97
328.057
328.141
328.079
328.001
327.737
327.572
327.327
327.265
327.278
327.386
327.774
328.027
324.46
323.978
323.578
323.259
323.087
322.925
322.904
322.838
322.925
322.983
322.917
322.871
322.663
322.524
322.306
322.304
322.288
322.336
322.697
322.911
318.994
318.604
318.324
318.06
317.929
317.815
317.782
317.715
317.793
317.856
317.785
317.779
317.603
317.499
317.321
317.343
317.322
317.336
317.632
317.8
313.548
313.257
313.097
312.87
312.787
312.698
312.675
312.647
312.704
312.736
312.686
312.708
312.567
312.487
312.363
312.359
312.362
312.374
312.59
312.707
308.097
307.952
307.866
307.725
307.671
307.619
307.617
307.603
307.607
307.636
307.614
307.64
307.54
307.503
307.418
307.404
307.422
307.427
307.561
307.616
302.705
302.655
302.635
302.592
302.572
302.548
302.565
302.548
302.547
302.547
302.541
302.557
302.526
302.524
302.487
302.482
302.483
302.489
302.532
302.543
342.132
341.401
340.77
340.139
339.754
339.429
339.487
339.265
339.406
339.468
339.251
339.217
338.928
338.701
338.539
338.408
338.415
338.643
339.137
339.603
336.408
335.824
335.259
334.705
334.382
334.086
334.131
333.918
334.061
334.124
333.919
333.883
333.628
333.459
333.306
333.197
333.223
333.408
333.841
334.222
330.725
330.277
329.769
329.293
329.028
328.808
328.816
328.608
328.768
328.82
328.623
328.583
328.382
328.251
328.12
328.016
328.071
328.197
328.59
328.893
325.1
324.739
324.321
323.919
323.691
323.542
323.546
323.337
323.499
323.546
323.361
323.339
323.169
323.073
322.968
322.876
322.936
323.005
323.398
323.576
319.497
319.218
318.889
318.598
318.39
318.302
318.269
318.109
318.281
318.294
318.172
318.139
317.997
317.931
317.853
317.773
317.844
317.874
318.203
318.317
313.92
313.718
313.474
313.304
313.116
313.065
313.024
312.918
313.052
313.052
312.96
312.972
312.863
312.814
312.74
312.68
312.747
312.765
312.996
313.074
308.348
308.222
308.088
307.997
307.871
307.845
307.826
307.746
307.829
307.83
307.771
307.8
307.713
307.701
307.643
307.599
307.656
307.67
307.799
307.836
302.808
302.746
302.708
302.679
302.641
302.632
302.628
302.594
302.627
302.623
302.609
302.606
302.585
302.576
302.555
302.533
302.571
302.578
302.604
302.622
343.244
342.481
341.836
341.258
340.819
340.508
340.539
340.34
340.284
340.277
340.213
340.174
339.756
339.548
339.501
339.283
339.502
339.778
340.287
340.758
337.375
336.701
336.168
335.666
335.266
335.028
335.061
334.833
334.815
334.796
334.731
334.703
334.355
334.155
334.14
333.967
334.149
334.385
334.806
335.221
331.553
330.955
330.546
330.107
329.775
329.569
329.603
329.394
329.388
329.391
329.303
329.261
328.993
328.811
328.824
328.692
328.831
329.03
329.393
329.747
325.76
325.259
324.943
324.601
324.318
324.128
324.154
323.994
323.994
324.023
323.91
323.889
323.676
323.507
323.536
323.43
323.567
323.69
324.001
324.29
319.979
319.626
319.369
319.105
318.886
318.747
318.756
318.625
318.628
318.69
318.549
318.561
318.39
318.243
318.291
318.203
318.327
318.382
318.632
318.859
314.238
314.018
313.821
313.616
313.463
313.394
313.382
313.302
313.308
313.366
313.247
313.248
313.122
313.003
313.05
312.999
313.075
313.107
313.291
313.478
308.537
308.421
308.28
308.177
308.076
308.053
308.032
307.999
307.994
308.041
307.941
307.957
307.86
307.784
307.851
307.808
307.841
307.873
307.971
308.094
302.864
302.83
302.774
302.744
302.712
302.707
302.683
302.687
302.689
302.693
302.667
302.667
302.636
302.607
302.632
302.612
302.622
302.641
302.673
302.713
344.322
343.618
342.91
342.339
341.885
341.676
341.389
341.409
341.241
341.271
341.086
340.981
340.779
340.641
340.446
340.435
340.717
340.983
341.298
341.844
338.297
337.716
337.098
336.579
336.205
336.033
335.773
335.799
335.646
335.703
335.482
335.413
335.217
335.095
334.965
334.957
335.17
335.433
335.699
336.146
332.304
331.838
331.333
330.873
330.565
330.426
330.199
330.241
330.084
330.159
329.942
329.889
329.721
329.615
329.52
329.513
329.688
329.918
330.115
330.509
326.349
325.991
325.587
325.216
324.956
324.871
324.65
324.716
324.567
324.632
324.448
324.382
324.271
324.2
324.12
324.099
324.231
324.4
324.59
324.9
320.429
320.176
319.86
319.587
319.39
319.326
319.148
319.199
319.081
319.148
318.982
318.914
318.842
318.783
318.745
318.694
318.833
318.938
319.098
319.335
314.566
314.403
314.153
313.967
313.861
313.812
313.665
313.7
313.602
313.691
313.557
313.489
313.44
313.393
313.363
313.329
313.44
313.518
313.639
313.813
308.75
308.641
308.469
308.376
308.334
308.298
308.207
308.227
308.154
308.231
308.131
308.098
308.06
308.033
308.018
307.993
308.063
308.121
308.188
308.287
302.93
302.894
302.831
302.81
302.788
302.788
302.75
302.759
302.734
302.761
302.721
302.709
302.701
302.691
302.686
302.678
302.701
302.72
302.738
302.777
345.505
344.638
343.899
343.289
342.973
342.704
342.405
342.409
342.187
342.264
342.019
341.844
341.72
341.634
341.569
341.476
341.675
342.084
342.372
342.912
339.301
338.583
337.947
337.392
337.14
336.897
336.649
336.666
336.445
336.502
336.285
336.157
336.054
335.977
335.914
335.845
335.988
336.375
336.594
337.042
333.14
332.56
332.04
331.555
331.361
331.156
330.944
330.955
330.763
330.78
330.61
330.522
330.419
330.378
330.289
330.263
330.362
330.72
330.877
331.249
327.048
326.598
326.159
325.756
325.606
325.444
325.256
325.271
325.12
325.118
324.975
324.89
324.833
324.819
324.706
324.712
324.774
325.091
325.216
325.51
320.988
320.65
320.308
319.988
319.867
319.77
319.615
319.612
319.501
319.499
319.383
319.314
319.286
319.268
319.183
319.198
319.216
319.48
319.594
319.804
314.978
314.735
314.477
314.261
314.155
314.125
313.994
314
313.918
313.911
313.82
313.77
313.77
313.756
313.676
313.707
313.707
313.908
313.996
314.137
308.998
308.85
308.673
308.541
308.482
308.5
308.385
308.399
308.351
308.344
308.284
308.253
308.266
308.261
308.2
308.215
308.222
308.348
308.386
308.49
303.02
302.973
302.912
302.862
302.842
302.848
302.81
302.831
302.799
302.789
302.764
302.772
302.768
302.769
302.747
302.744
302.763
302.798
302.808
302.857
346.456
345.665
344.907
344.352
343.945
343.664
343.356
343.252
343.031
342.981
342.972
342.74
342.613
342.593
342.462
342.466
342.662
343.036
343.31
343.902
340.108
339.436
338.786
338.31
337.976
337.707
337.442
337.363
337.168
337.124
337.109
336.898
336.8
336.786
336.649
336.695
336.851
337.176
337.399
337.883
333.808
333.248
332.705
332.301
332.044
331.808
331.6
331.531
331.353
331.341
331.286
331.138
331.017
331.025
330.897
330.958
331.074
331.37
331.558
331.968
327.581
327.129
326.682
326.342
326.154
325.96
325.783
325.74
325.597
325.595
325.527
325.411
325.312
325.315
325.205
325.27
325.343
325.597
325.776
326.101
321.416
321.059
320.72
320.438
320.292
320.163
320.023
319.986
319.881
319.877
319.803
319.716
319.642
319.648
319.573
319.618
319.668
319.847
320.036
320.276
315.286
315.028
314.785
314.576
314.478
314.397
314.299
314.269
314.178
314.178
314.119
314.051
314.01
314.019
313.971
314.009
314.025
314.148
314.319
314.488
309.172
309.022
308.878
308.753
308.693
308.648
308.586
308.553
308.511
308.497
308.458
308.421
308.402
308.404
308.401
308.412
308.415
308.486
308.601
308.707
303.07
303.023
302.964
302.929
302.911
302.903
302.872
302.861
302.861
302.845
302.832
302.82
302.811
302.806
302.836
302.828
302.824
302.845
302.889
302.934
347.259
346.49
345.683
345.144
344.615
344.343
344.017
343.814
343.631
343.655
343.589
343.431
343.307
343.289
343.194
343.155
343.382
343.728
344.227
344.719
340.747
340.094
339.427
338.954
338.484
338.272
337.986
337.803
337.66
337.672
337.617
337.474
337.365
337.373
337.269
337.23
337.43
337.729
338.153
338.549
334.326
333.793
333.255
332.83
332.419
332.266
332.034
331.866
331.76
331.77
331.725
331.569
331.518
331.5
331.394
331.392
331.53
331.811
332.164
332.502
327.988
327.566
327.133
326.761
326.441
326.324
326.112
326.004
325.928
325.936
325.908
325.749
325.732
325.7
325.583
325.615
325.721
325.934
326.249
326.509
321.694
321.385
321.044
320.754
320.517
320.437
320.274
320.184
320.119
320.14
320.122
319.968
319.983
319.93
319.852
319.88
319.96
320.128
320.378
320.573
315.478
315.258
314.996
314.781
314.627
314.567
314.468
314.386
314.361
314.39
314.371
314.235
314.285
314.22
314.149
314.184
314.24
314.373
314.536
314.67
309.273
309.172
308.991
308.87
308.766
308.731
308.699
308.638
308.61
308.644
308.626
308.534
308.585
308.534
308.493
308.508
308.538
308.62
308.716
308.789
303.109
303.078
303.014
302.977
302.937
302.925
302.92
302.891
302.88
302.891
302.886
302.857
302.869
302.856
302.859
302.85
302.852
302.881
302.923
302.944
)
;

boundaryField
{
    hotSide
    {
        type            fixedGradient;
        gradient        nonuniform List<scalar> 
400
(
338.48
339.09
341.692
346.24
352.551
360.36
369.379
379.346
390.042
401.295
412.971
424.973
437.23
449.691
462.323
475.105
488.026
501.081
514.268
527.584
323.036
323.756
326.604
331.528
338.304
346.619
356.144
366.59
377.723
389.362
401.373
413.661
426.157
438.816
451.609
464.522
477.55
490.694
503.958
517.344
312.726
313.721
316.826
321.981
328.968
337.475
347.177
357.782
369.053
380.809
392.913
405.267
417.806
430.486
443.281
456.18
469.183
482.294
495.521
508.869
307.248
308.671
312.049
317.323
324.306
332.734
342.32
352.795
363.933
375.553
387.517
399.728
412.116
424.639
437.274
450.012
462.855
475.811
488.887
502.093
305.352
307.285
310.973
316.353
323.275
331.525
340.865
351.061
361.904
373.222
384.879
396.778
408.853
421.064
433.392
445.832
458.39
471.074
483.895
496.864
305.623
308.093
312.137
317.689
324.618
332.747
341.872
351.787
362.302
373.255
384.519
396.002
407.648
419.426
431.326
443.352
455.516
467.832
480.315
492.974
306.918
309.919
314.365
320.179
327.239
335.379
344.412
354.144
364.393
375.002
385.856
396.876
408.022
419.284
430.671
442.2
453.895
465.778
477.866
490.172
308.391
311.894
316.765
322.921
330.232
338.533
347.631
357.323
367.418
377.758
388.233
398.786
409.405
420.11
430.939
441.932
453.127
464.555
476.235
488.181
309.4
313.339
318.619
325.149
332.794
341.376
350.681
360.478
370.55
380.719
390.881
401.002
411.112
421.274
431.563
442.043
452.769
463.777
475.089
486.717
309.458
313.711
319.316
326.179
334.159
343.063
352.65
362.653
372.81
382.917
392.864
402.649
412.347
422.07
431.927
442.008
452.376
463.072
474.118
485.521
308.23
312.619
318.391
325.452
333.657
342.802
352.628
362.836
373.13
383.276
393.161
402.801
412.307
421.821
431.476
441.373
451.583
462.146
473.084
484.402
305.591
309.897
315.627
322.687
330.926
340.137
350.052
360.368
370.785
381.064
391.086
400.864
410.502
420.14
429.908
439.908
450.211
460.862
471.882
483.279
301.669
305.677
311.162
318.031
326.129
335.244
345.117
355.459
365.991
376.493
386.843
397.023
407.098
417.17
427.346
437.719
448.355
459.3
470.583
482.214
296.871
300.407
305.505
312.074
319.955
328.932
338.751
349.141
359.847
370.664
381.463
392.195
402.874
413.559
424.323
435.238
446.365
457.749
469.424
481.405
291.886
294.834
299.481
305.739
313.438
322.352
332.214
342.756
353.729
364.935
376.233
387.55
398.864
410.196
421.588
433.093
444.763
456.643
468.768
481.158
287.71
290.014
294.208
300.208
307.824
316.793
326.82
337.615
348.923
360.54
372.319
384.17
396.051
407.957
419.913
431.955
444.131
456.482
469.045
481.843
285.708
287.372
291.146
296.949
304.555
313.647
323.883
334.943
346.559
358.522
370.683
382.946
395.258
407.602
419.992
432.455
445.035
457.772
470.705
483.857
287.564
288.673
292.066
297.665
305.208
314.33
324.649
335.825
347.583
359.716
372.074
384.56
397.118
409.726
422.387
435.123
447.974
460.98
474.178
487.589
294.78
295.511
298.552
303.83
311.085
319.95
330.043
341.029
352.638
364.667
376.969
389.447
402.04
414.719
427.479
440.336
453.319
466.464
479.803
493.353
307.778
308.331
311.041
315.852
322.547
330.815
340.324
350.773
361.911
373.543
385.525
397.758
410.173
422.733
435.425
448.251
461.23
474.385
487.736
501.294
)
;
    }
    coldSide
    {
        type            mixed;
        refValue        uniform 300;
        refGradient     uniform 0;
        valueFraction   uniform 0.991591;
        source          uniform 0;
        value           nonuniform List<scalar> 
400
(
300.017
300.018
300.018
300.018
300.018
300.019
300.019
300.02
300.02
300.021
300.021
300.022
300.022
300.023
300.024
300.024
300.025
300.025
300.026
300.026
300.017
300.017
300.017
300.017
300.018
300.018
300.019
300.019
300.02
300.02
300.021
300.021
300.022
300.022
300.023
300.024
300.024
300.025
300.025