/*--------------------------------*- C++ -*----------------------------------*\
| =========                 |                                                 |
| \\      /  F ield         | OpenFOAM: The Open Source CFD Toolbox           |
|  \\    /   O peration     | Version:  2212                                  |
|   \\  /    A nd           | Website:  www.openfoam.com                      |
|    \\/     M anipulation  |                                                 |
\*---------------------------------------------------------------------------*/
FoamFile
{
    version     2.0;
    format      ascii;
    arch        "LSB;label=32;scalar=64";
    class       volScalarField;
    location    "0";
    object      stateMean;
}
// * * * * * * * * * * * * * * * * * * * * * * * * * * * * * * * * * * * * * //

dimensions      [0 0 0 1 0 0 0];

internalField   nonuniform List<scalar> 
3200
(
342.625
343.481
344.472
345.367
346.123
346.77
347.282
347.658
347.887
348.017
347.889
347.685
347.317
346.867
346.177
345.519
344.54
343.591
342.562
341.558
336.999
337.782
338.609
339.365
340.007
340.611
341.031
341.304
341.575
341.617
341.572
341.378
341.054
340.638
340.1
339.345
338.667
337.813
336.874
336.06
331.362
331.948
332.657
333.336
333.882
334.322
334.768
335.071
335.119
335.214
335.243
335
334.757
334.429
333.945
333.398
332.768
332.013
331.223
330.637
325.632
326.209
326.784
327.303
327.713
328.119
328.448
328.662
328.77
328.883
328.866
328.667
328.421
328.18
327.788
327.341
326.771
326.196
325.564
325.101
320.01
320.311
320.792
321.277
321.673
321.869
322.145
322.291
322.432
322.472
322.452
322.335
322.145
321.914
321.616
321.251
320.89
320.457
319.909
319.581
314.25
314.581
314.882
315.197
315.448
315.692
315.878
316.007
316.03
316.08
315.978
315.913
315.786
315.729
315.518
315.232
314.869
314.552
314.259
313.994
308.533
308.82
308.9
309.159
309.248
309.371
309.471
309.608
309.567
309.652
309.65
309.679
309.531
309.429
309.32
309.174
308.956
308.759
308.587
308.426
302.806
302.86
302.995
303.032
303.111
303.244
303.208
303.236
303.243
303.235
303.187
303.193
303.198
303.138
303.167
303.059
303.023
302.915
302.922
302.822
343.415
344.311
345.26
346.249
347.038
347.661
348.171
348.605
348.715
348.842
348.813
348.638
348.242
347.709
346.957
346.285
345.416
344.436
343.303
342.317
337.641
338.403
339.286
340.107
340.743
341.314
341.816
342.075
342.318
342.366
342.28
342.116
341.781
341.304
340.853
340.139
339.351
338.472
337.515
336.804
331.895
332.497
333.231
333.911
334.521
334.883
335.36
335.612
335.813
335.793
335.746
335.583
335.403
334.986
334.465
333.911
333.322
332.561
331.787
331.133
326.107
326.562
327.174
327.703
328.212
328.584
328.899
329.102
329.251
329.333
329.225
329.151
328.87
328.647
328.231
327.798
327.259
326.66
326.066
325.481
320.293
320.712
321.156
321.542
321.949
322.226
322.446
322.651
322.775
322.786
322.832
322.627
322.53
322.294
321.974
321.639
321.218
320.746
320.191
319.871
314.452
314.787
315.092
315.412
315.763
315.898
316.084
316.193
316.195
316.344
316.342
316.172
316.097
315.887
315.749
315.406
315.227
314.804
314.492
314.206
308.695
308.924
309.055
309.269
309.391
309.542
309.666
309.74
309.714
309.8
309.807
309.687
309.635
309.552
309.457
309.253
309.037
308.916
308.778
308.561
302.922
302.969
303.016
303.147
303.133
303.207
303.239
303.254
303.239
303.294
303.324
303.29
303.253
303.147
303.13
303.128
303.04
303.001
302.907
302.889
344.425
345.399
346.306
347.367
348.138
348.785
349.334
349.735
349.968
350.034
349.97
349.737
349.386
348.886
348.137
347.359
346.558
345.421
344.367
343.378
338.567
339.334
340.21
340.979
341.697
342.308
342.735
343.074
343.247
343.352
343.26
343.088
342.763
342.36
341.745
341.032
340.282
339.436
338.387
337.628
332.617
333.201
333.962
334.647
335.277
335.742
336.164
336.392
336.554
336.643
336.609
336.411
336.243
335.785
335.289
334.732
334.04
333.279
332.516
331.764
326.687
327.141
327.787
328.345
328.768
329.271
329.513
329.806
329.985
330.006
329.938
329.821
329.588
329.3
328.847
328.42
327.786
327.222
326.657
326.077
320.693
321.086
321.624
322.022
322.396
322.782
322.968
323.134
323.286
323.253
323.299
323.133
323.068
322.818
322.518
322.11
321.712
321.185
320.693
320.259
314.817
315.151
315.417
315.771
316.022
316.263
316.451
316.59
316.696
316.678
316.633
316.524
316.384
316.276
316.039
315.761
315.496
315.145
314.801
314.457
308.919
309.15
309.225
309.468
309.63
309.722
309.846
309.931
310.062
310.004
310.009
309.94
309.85
309.758
309.649
309.469
309.235
309.094
308.885
308.728
302.962
303.009
303.101
303.167
303.184
303.235
303.294
303.31
303.343
303.408
303.39
303.348
303.318
303.226
303.282
303.131
303.056
303.094
302.925
302.869
345.523
346.437
347.538
348.532
349.316
349.935
350.592
350.942
351.2
351.253
351.299
350.954
350.5
350.03
349.404
348.571
347.675
346.556
345.472
344.343
339.466
340.261
341.106
341.964
342.739
343.283
343.76
344.132
344.311
344.384
344.309
344.172
343.865
343.392
342.805
342.072
341.281
340.344
339.397
338.496
333.372
334.066
334.801
335.461
336.159
336.648
337.031
337.244
337.493
337.521
337.552
337.39
337.088
336.598
336.188
335.469
334.864
334.143
333.357
332.587
327.353
327.795
328.47
329.057
329.54
329.968
330.333
330.546
330.617
330.695
330.686
330.576
330.299
329.971
329.606
329.125
328.507
327.936
327.254
326.662
321.24
321.646
322.16
322.585
322.991
323.312
323.494
323.714
323.854
323.928
323.806
323.749
323.552
323.3
323.039
322.65
322.141
321.624
321.166
320.759
315.165
315.545
315.804
316.118
316.368
316.598
316.786
316.969
317.009
317.086
317.056
316.97
316.862
316.711
316.404
316.121
315.894
315.545
315.176
314.804
309.085
309.296
309.547
309.653
309.845
310.041
310.11
310.232
310.22
310.193
310.295
310.202
310.088
310.019
309.887
309.719
309.559
309.318
309.045
308.941
303.14
303.113
303.236
303.246
303.29
303.318
303.36
303.39
303.438
303.445
303.424
303.44
303.408
303.405
303.371
303.23
303.172
303.145
303.09
303.023
346.657
347.581
348.654
349.665
350.561
351.189
351.823
352.165
352.509
352.523
352.484
352.215
351.824
351.243
350.52
349.775
348.821
347.74
346.56
345.471
340.382
341.223
342.191
343.017
343.688
344.386
344.866
345.169
345.339
345.473
345.428
345.196
344.895
344.398
343.803
343.047
342.271
341.289
340.352
339.397
334.141
334.833
335.614
336.392
336.987
337.493
337.869
338.237
338.358
338.469
338.46
338.294
337.949
337.625
337.016
336.424
335.727
334.93
334.114
333.316
327.987
328.511
329.18
329.795
330.219
330.609
331.031
331.25
331.427
331.398
331.373
331.285
331.054
330.716
330.257
329.778
329.234
328.566
327.867
327.329
321.793
322.141
322.699
323.134
323.54
323.839
324.102
324.343
324.378
324.436
324.374
324.318
324.112
323.872
323.588
323.209
322.706
322.168
321.717
321.274
315.524
315.83
316.233
316.55
316.828
317.076
317.208
317.385
317.451
317.504
317.406
317.364
317.22
317.043
316.777
316.529
316.256
315.825
315.521
315.154
309.337
309.522
309.707
309.844
310.048
310.269
310.226
310.449
310.521
310.422
310.493
310.424
310.307
310.293
310.092
309.919
309.738
309.55
309.275
309.156
303.14
303.212
303.249
303.277
303.356
303.397
303.435
303.513
303.515
303.536
303.529
303.538
303.452
303.413
303.349
303.375
303.199
303.156
303.137
302.941
347.702
348.745
349.764
350.734
351.676
352.366
352.944
353.341
353.622
353.661
353.623
353.363
353.055
352.468
351.661
350.82
349.902
348.768
347.508
346.435
341.301
342.13
343.083
343.926
344.74
345.368
345.867
346.223
346.419
346.408
346.444
346.208
345.89
345.431
344.835
344.031
343.252
342.281
341.281
340.309
334.938
335.658
336.461
337.161
337.853
338.306
338.777
339.04
339.249
339.238
339.262
339.118
338.753
338.429
337.863
337.184
336.585
335.694
334.843
334.159
328.559
329.121
329.822
330.356
330.889
331.401
331.729
331.942
332.156
332.134
332.084
331.926
331.778
331.419
330.948
330.489
329.883
329.231
328.534
327.849
322.246
322.636
323.114
323.673
324.027
324.361
324.594
324.899
325
325.01
324.917
324.822
324.704
324.39
324.146
323.635
323.278
322.653
322.158
321.717
315.895
316.137
316.581
316.991
317.206
317.392
317.7
317.73
317.873
317.817
317.828
317.737
317.61
317.435
317.202
316.919
316.602
316.276
315.877
315.536
309.544
309.732
309.95
310.089
310.346
310.44
310.572
310.646
310.688
310.745
310.699
310.643
310.559
310.436
310.374
310.151
310.008
309.795
309.513
309.292
303.249
303.287
303.313
303.365
303.421
303.513
303.485
303.6
303.593
303.542
303.586
303.543
303.577
303.508
303.433
303.415
303.355
303.273
303.141
303.12
348.714
349.775
350.812
351.839
352.785
353.411
353.996
354.525
354.684
354.844
354.72
354.492
354.159
353.544
352.763
351.929
350.938
349.719
348.537
347.479
342.252
343.032
344.016
344.884
345.564
346.308
346.792
347.143
347.408
347.436
347.379
347.244
346.792
346.352
345.694
344.954
344.137
343.125
342.073
341.214
335.686
336.348
337.247
338.015
338.565
339.144
339.566
339.823
340.136
340.109
340.087
339.908
339.597
339.183
338.631
337.985
337.276
336.415
335.544
334.863
329.193
329.725
330.468
331.037
331.596
332.073
332.369
332.628
332.652
332.767
332.741
332.646
332.396
332.021
331.648
331.111
330.486
329.834
329.062
328.477
322.684
323.143
323.674
324.112
324.58
324.872
325.128
325.38
325.507
325.525
325.49
325.409
325.206
324.908
324.56
324.23
323.741
323.243
322.627
322.187
316.275
316.523
316.934
317.203
317.562
317.787
318.044
318.089
318.142
318.27
318.214
318.174
318.051
317.844
317.588
317.236
317.014
316.516
316.211
315.8
309.664
309.876
310.144
310.274
310.527
310.678
310.845
310.918
310.936
310.973
310.951
310.856
310.875
310.606
310.491
310.385
310.106
309.961
309.608
309.5
303.239
303.376
303.428
303.492
303.566
303.523
303.633
303.603
303.663
303.646
303.639
303.646
303.666
303.489
303.565
303.524
303.402
303.415
303.277
303.148
349.622
350.628
351.836
352.804
353.759
354.534
355.17
355.512
355.75
355.922
355.828
355.585
355.154
354.581
353.869
352.97
351.918
350.762
349.588
348.371
343.04
343.889
344.792
345.714
346.59
347.238
347.749
347.987
348.308
348.365
348.347
348.078
347.74
347.213
346.636
345.865
344.941
343.896
342.919
342.003
336.334
337.086
337.93
338.7
339.314
339.941
340.441
340.717
340.91
340.95
340.891
340.581
340.373
339.884
339.405
338.768
338.049
337.128
336.385
335.491
329.763
330.334
331.009
331.642
332.214
332.571
332.964
333.239
333.519
333.414
333.438
333.258
332.989
332.62
332.228
331.634
331.119
330.363
329.639
328.991
323.108
323.658
324.088
324.611
325.121
325.354
325.639
325.839
325.969
326.036
325.952
325.9
325.613
325.372
325.014
324.675
324.204
323.666
323.036
322.591
316.476
316.83
317.26
317.558
317.818
318.144
318.316
318.438
318.558
318.583
318.529
318.522
318.341
318.127
317.923
317.624
317.222
316.902
316.472
316.167
309.954
310.137
310.352
310.514
310.746
310.826
311.04
311.079
311.143
311.171
311.131
311.104
310.966
310.869
310.738
310.531
310.36
310.082
309.889
309.711
303.378
303.39
303.465
303.533
303.619
303.63
303.706
303.696
303.782
303.679
303.772
303.763
303.689
303.647
303.572
303.558
303.457
303.491
303.312
303.219
350.515
351.535
352.725
353.792
354.669
355.468
356.086
356.553
356.728
356.892
356.802
356.574
356.116
355.528
354.774
353.853
352.745
351.599
350.398
349.3
343.803
344.616
345.581
346.519
347.345
347.947
348.56
348.922
349.122
349.256
349.214
348.961
348.604
348.068
347.447
346.636
345.78
344.706
343.63
342.619
337.022
337.775
338.598
339.364
340.031
340.651
341.054
341.413
341.602
341.593
341.527
341.432
341.046
340.596
340.12
339.498
338.72
337.74
336.906
336.139
330.29
330.873
331.501
332.23
332.715
333.135
333.527
333.773
334.004
334.06
333.996
333.816
333.58
333.239
332.782
332.297
331.632
330.945
330.214
329.597
323.509
323.975
324.534
324.989
325.532
325.846
326.146
326.35
326.446
326.463
326.417
326.371
326.132
325.827
325.479
325.066
324.585
323.988
323.455
323.044
316.827
317.167
317.516
317.903
318.174
318.458
318.593
318.799
318.898
318.858
318.866
318.826
318.698
318.516
318.215
317.871
317.611
317.238
316.771
316.385
310.118
310.322
310.517
310.785
310.93
311.038
311.185
311.301
311.332
311.358
311.296
311.263
311.211
311.041
310.988
310.782
310.491
310.35
310.086
309.89
303.376
303.423
303.519
303.553
303.576
303.752
303.81
303.837
303.808
303.806
303.734
303.791
303.769
303.735
303.662
303.666
303.553
303.545
303.399
303.324
351.203
352.33
353.529
354.639
355.588
356.404
356.943
357.42
357.71
357.762
357.673
357.468
357.051
356.445
355.596
354.696
353.67
352.377
351.166
349.985
344.353
345.341
346.371
347.332
348.126
348.809
349.282
349.741
349.888
350.08
349.904
349.708
349.397
348.809
348.242
347.394
346.429
345.446
344.341
343.308
337.613
338.329
339.212
340.003
340.724
341.26
341.686
342.08
342.261
342.328
342.227
341.996
341.73
341.274
340.757
340.077
339.317
338.425
337.493
336.666
330.727
331.319
332.071
332.668
333.257
333.769
334.156
334.333
334.552
334.654
334.498
334.424
334.172
333.752
333.265
332.801
332.101
331.343
330.618
330.059
324.018
324.395
324.875
325.438
325.861
326.168
326.538
326.741
326.86
326.926
326.901
326.757
326.482
326.223
325.904
325.502
324.984
324.417
323.828
323.362
317.098
317.393
317.766
318.145
318.477
318.681
318.898
319.12
319.123
319.206
319.169
319.046
318.898
318.803
318.534
318.226
317.863
317.465
317.034
316.733
310.265
310.512
310.658
310.867
311.07
311.209
311.34
311.471
311.499
311.541
311.501
311.449
311.391
311.285
311.079
310.948
310.711
310.448
310.27
310.061
303.441
303.541
303.618
303.694
303.74
303.736
303.776
303.85
303.827
303.826
303.829
303.828
303.867
303.716
303.703
303.669
303.561
303.533
303.461
303.342
352.014
353.115
354.26
355.459
356.342
357.221
357.68
358.208
358.53
358.596
358.547
358.27
357.836
357.181
356.419
355.518
354.428
353.228
351.883
350.751
345.05
345.962
347.044
347.956
348.852
349.471
349.94
350.362
350.595
350.729
350.632
350.466
350.096
349.53
348.806
348.143
347.127
345.987
344.95
343.992
338.053
338.851
339.778
340.571
341.299
341.872
342.23
342.634
342.909
342.937
342.839
342.621
342.281
341.92
341.322
340.598
339.861
338.931
337.999
337.232
331.169
331.731
332.511
333.159
333.683
334.197
334.607
334.909
335.039
335.054
334.979
334.86
334.573
334.287
333.77
333.258
332.604
331.886
331.117
330.375
324.252
324.722
325.267
325.808
326.214
326.64
326.93
327.052
327.286
327.234
327.24
327.118
326.901
326.635
326.325
325.858
325.398
324.729
324.236
323.63
317.375
317.671
318.09
318.447
318.752
319.042
319.183
319.413
319.417
319.51
319.474
319.344
319.208
319.052
318.709
318.492
318.086
317.676
317.209
316.944
310.399
310.65
310.808
311.034
311.257
311.441
311.554
311.632
311.668
311.682
311.733
311.612
311.501
311.418
311.265
311.099
310.861
310.663
310.383
310.175
303.464
303.543
303.641
303.69
303.77
303.762
303.867
303.946
304.001
303.939
303.868
303.899
303.908
303.808
303.793
303.666
303.626
303.582
303.448
303.457
352.59
353.661
354.981
356.031
357.024
357.876
358.456
358.927
359.288
359.331
359.215
358.995
358.508
357.889
357.092
356.22
354.994
353.81
352.405
351.336
345.549
346.491
347.575
348.567
349.334
350.056
350.662
351.086
351.287
351.331
351.301
351.044
350.717
350.138
349.451
348.692
347.697
346.654
345.438
344.496
338.512
339.324
340.303
341.049
341.729
342.361
342.856
343.143
343.381
343.4
343.356
343.181
342.89
342.357
341.808
341.137
340.36
339.41
338.464
337.709
331.589
332.161
332.909
333.628
334.156
334.653
335.019
335.315
335.419
335.502
335.44
335.329
335.033
334.688
334.18
333.693
333.056
332.246
331.511
330.826
324.517
325.037
325.581
326.063
326.551
326.942
327.203
327.445
327.588
327.659
327.556
327.443
327.279
326.947
326.596
326.127
325.641
325.096
324.433
324.031
317.553
317.842
318.248
318.65
319.014
319.195
319.489
319.593
319.648
319.75
319.751
319.56
319.509
319.241
319.022
318.72
318.345
317.981
317.452
317.137
310.548
310.679
310.998
311.154
311.379
311.514
311.736
311.78
311.849
311.831
311.861
311.857
311.706
311.598
311.37
311.168
311.001
310.726
310.421
310.339
303.511
303.549
303.742
303.748
303.809
303.777
303.971
304.011
304.037
303.936
303.927
303.946
303.86
303.88
303.814
303.801
303.692
303.655
303.495
303.466
353.182
354.257
355.532
356.629
357.709
358.43
359.213
359.552
359.853
359.983
359.878
359.541
359.091
358.536
357.697
356.722
355.666
354.39
353.085
351.917
346.034
346.975
348.021
349.043
349.966
350.597
351.176
351.605
351.831
351.849
351.881
351.616
351.227
350.662
350.053
349.157
348.199
347.18
345.889
345.014
338.959
339.732
340.658
341.474
342.152
342.821
343.226
343.58
343.815
343.918
343.797
343.65
343.337
342.82
342.334
341.566
340.741
339.852
338.877
338.032
331.967
332.476
333.22
333.883
334.532
334.98
335.371
335.666
335.809
335.829
335.843
335.76
335.462
335.112
334.578
333.996
333.333
332.597
331.746
331.107
324.835
325.256
325.858
326.371
326.836
327.253
327.562
327.716
327.869
327.935
327.95
327.796
327.522
327.266
326.865
326.443
325.913
325.402
324.776
324.196
317.747
318.015
318.5
318.783
319.106
319.45
319.628
319.83
319.872
319.969
319.879
319.756
319.719
319.493
319.143
318.929
318.498
318.134
317.671
317.267
310.656
310.766
311.127
311.325
311.528
311.709
311.824
311.887
311.914
311.939
311.982
311.916
311.813
311.694
311.459
311.337
311.077
310.891
310.651
310.407
303.548
303.593
303.703
303.785
303.862
303.889
303.947
304.012
303.979
304.012
303.988
303.96
303.928
303.953
303.867
303.76
303.71
303.614
303.524
303.508
353.659
354.817
356.025
357.173
358.163
358.991
359.669
360.154
360.364
360.456
360.485
360.085
359.672
359.122
358.237
357.33
356.207
354.905
353.579
352.282
346.525
347.461
348.47
349.456
350.322
351.11
351.651
352.071
352.222
352.37
352.3
352.056
351.709
351.118
350.416
349.586
348.632
347.527
346.372
345.32
339.267
340.02
340.938
341.809
342.542
343.198
343.619
344.014
344.224
344.315
344.216
344.036
343.735
343.241
342.627
341.947
341.173
340.17
339.234
338.308
332.178
332.749
333.511
334.275
334.776
335.344
335.698
336.017
336.202
336.264
336.14
336.016
335.695
335.443
334.952
334.326
333.62
332.897
332.1
331.384
325.038
325.529
326.102
326.591
327.074
327.362
327.737
327.976
328.132
328.152
328.133
327.966
327.783
327.427
327.128
326.653
326.148
325.601
324.881
324.44
317.852
318.244
318.639
319.055
319.388
319.654
319.877
319.971
320.063
320.061
320.182
320.002
319.825
319.628
319.375
319.087
318.659
318.304
317.777
317.52
310.781
310.967
311.168
311.427
311.628
311.724
311.921
311.99
312.026
312.06
312.032
311.955
311.911
311.795
311.606
311.497
311.231
310.945
310.757
310.478
303.609
303.702
303.818
303.874
303.892
303.906
304.055
303.974
304.038
304.068
304.026
303.966
304.028
303.926
303.874
303.874
303.741
303.648
303.673
303.517
353.987
355.123
356.393
357.552
358.648
359.424
360.015
360.562
360.809
360.877
360.824
360.568
360.028
359.509
358.638
357.691
356.537
355.237
353.867
352.694
346.771
347.683
348.864
349.832
350.677
351.417
352.056
352.44
352.662
352.747
352.642
352.471
352.032
351.542
350.789
349.988
349.009
347.823
346.756
345.71
339.566
340.35
341.341
342.119
342.902
343.504
343.96
344.335
344.534
344.614
344.53
344.358
343.991
343.534
342.95
342.24
341.369
340.459
339.474
338.666
332.29
333.023
333.759
334.444
335.032
335.576
335.953
336.223
336.454
336.465
336.428
336.225
335.998
335.654
335.119
334.554
333.866
333.12
332.266
331.649
325.212
325.655
326.313
326.768
327.282
327.612
327.958
328.171
328.359
328.346
328.357
328.193
328.014
327.682
327.297
326.902
326.338
325.772
325.184
324.592
317.972
318.344
318.769
319.177
319.457
319.734
319.942
320.154
320.302
320.275
320.268
320.106
319.992
319.773
319.471
319.178
318.851
318.38
317.97
317.597
310.792
310.975
311.285
311.486
311.684
311.829
312.001
312.061
312.142
312.167
312.128
312.144
311.976
311.909
311.683
311.491
311.254
311.076
310.788
310.542
303.616
303.636
303.771
303.815
303.853
304.009
303.96
304.073
304.086
304.088
304.072
304.085
303.977
303.997
303.926
303.84
303.722
303.696
303.639
303.552
354.14
355.452
356.665
357.827
358.891
359.797
360.326
360.856
361.13
361.289
361.137
360.922
360.417
359.811
358.922
357.97
356.788
355.557
354.237
352.962
347.023
347.983
349.07
350.063
350.992
351.757
352.25
352.669
352.895
353.042
352.97
352.751
352.355
351.789
351.053
350.242
349.189
348.119
346.943
345.951
339.738
340.568
341.469
342.414
343.079
343.729
344.211
344.534
344.72
344.849
344.801
344.566
344.274
343.778
343.158
342.517
341.635
340.625
339.68
338.812
332.529
333.202
333.931
334.634
335.237
335.697
336.11
336.407
336.604
336.684
336.606
336.428
336.137
335.828
335.35
334.76
333.995
333.271
332.475
331.804
325.258
325.843
326.315
326.921
327.399
327.73
328.144
328.358
328.422
328.502
328.446
328.345
328.147
327.916
327.402
327.037
326.427
325.908
325.21
324.727
318.096
318.328
318.851
319.269
319.594
319.769
320.125
320.2
320.274
320.398
320.307
320.293
320.159
319.862
319.645
319.322
318.898
318.558
318.02
317.687
310.861
311.08
311.286
311.582
311.809
311.915
312.102
312.136
312.211
312.262
312.19
312.151
312.059
311.912
311.772
311.637
311.35
311.143
310.813
310.65
303.6
303.717
303.79
303.849
303.94
303.975
304.031
304.101
304.12
304.088
304.095
304.064
303.982
303.972
303.933
303.839
303.872
303.756
303.653
303.537
354.469
355.671
356.931
358.006
359.167
359.914
360.58
361.051
361.351
361.456
361.371
361.065
360.612
360.055
359.161
358.228
357.039
355.73
354.353
353.144
347.195
348.194
349.317
350.323
351.089
351.851
352.429
352.851
353.195
353.218
353.193
352.971
352.5
351.941
351.286
350.37
349.393
348.337
347.107
346.058
339.896
340.724
341.665
342.463
343.219
343.913
344.39
344.731
344.873
344.97
344.991
344.754
344.429
343.92
343.369
342.612
341.787
340.894
339.824
339.039
332.668
333.292
334.041
334.759
335.326
335.87
336.251
336.599
336.796
336.789
336.699
336.593
336.408
335.892
335.435
334.871
334.176
333.429
332.557
331.921
325.451
325.882
326.461
327.043
327.52
327.863
328.208
328.437
328.627
328.59
328.588
328.484
328.298
327.983
327.584
327.124
326.525
325.973
325.349
324.838
318.144
318.552
318.83
319.405
319.673
319.913
320.168
320.294
320.347
320.479
320.39
320.279
320.207
319.906
319.675
319.348
318.98
318.571
318.157
317.688
310.89
311.1
311.326
311.599
311.835
311.91
312.104
312.197
312.258
312.22
312.248
312.199
312.074
312.038
311.742
311.675
311.376
311.09
310.884
310.666
303.682
303.639
303.825
303.83
303.91
303.97
304.066
304.079
304.098
304.167
304.124
304.103
303.935
304.055
303.978
303.885
303.833
303.756
303.641
303.579
354.583
355.747
357.042
358.236
359.247
359.966
360.709
361.205
361.45
361.601
361.449
361.335
360.799
360.151
359.318
358.3
357.193
355.895
354.516
353.238
347.267
348.229
349.334
350.399
351.239
351.963
352.625
353.062
353.261
353.303
353.261
353.004
352.613
352.088
351.363
350.528
349.535
348.444
347.163
346.124
340.049
340.831
341.776
342.632
343.348
343.967
344.46
344.9
344.964
345.059
345.028
344.856
344.425
344.033
343.455
342.667
341.859
340.93
339.936
339.021
332.782
333.418
334.107
334.867
335.483
335.965
336.398
336.631
336.853
336.819
336.892
336.736
336.373
336.065
335.449
334.965
334.183
333.404
332.696
331.923
325.52
326.011
326.575
327.042
327.554
327.991
328.224
328.54
328.644
328.653
328.629
328.505
328.299
328.036
327.618
327.246
326.658
325.993
325.323
324.907
318.235
318.608
318.958
319.372
319.707
319.96
320.191
320.296
320.433
320.495
320.474
320.358
320.237
319.985
319.726
319.443
318.999
318.567
318.188
317.786
310.911
311.13
311.411
311.63
311.837
311.975
312.086
312.283
312.275
312.312
312.308
312.22
312.151
311.958
311.83
311.651
311.455
311.12
310.894
310.636
303.648
303.701
303.821
303.898
303.974
304.04
304.065
304.037
304.152
304.071
304.125
304.144
304.022
303.996
303.99
303.938
303.773
303.714
303.653
303.602
354.563
355.865
356.981
358.237
359.178
360.048
360.778
361.194
361.492
361.593
361.569
361.252
360.844
360.204
359.32
358.3
357.178
355.848
354.5
353.272
347.316
348.345
349.413
350.455
351.3
352.041
352.596
353.058
353.272
353.391
353.295
353.074
352.678
352.074
351.366
350.535
349.511
348.362
347.288
346.25
340.051
340.865
341.853
342.609
343.319
343.994
344.528
344.905
345.009
345.121
345.096
344.927
344.561
344.132
343.432
342.73
341.892
340.899
340.004
339.047
332.773
333.363
334.166
334.845
335.47
335.961
336.431
336.676
336.844
337.011
336.829
336.718
336.431
336.05
335.51
334.949
334.276
333.484
332.705
332.014
325.475
325.977
326.634
327.084
327.611
327.927
328.331
328.518
328.631
328.731
328.64
328.587
328.318
328.026
327.611
327.132
326.627
326
325.465
324.971
318.245
318.603
319.017
319.328
319.656
320.03
320.211
320.368
320.47
320.49
320.519
320.332
320.214
320.055
319.799
319.385
319.02
318.581
318.145
317.841
310.913
311.147
311.354
311.62
311.848
312.068
312.105
312.225
312.245
312.347
312.267
312.242
312.21
312.032
311.849
311.64
311.422
311.199
310.914
310.69
303.685
303.746
303.829
303.897
303.902
304.011
304.071
304.092
304.148
304.076
304.114
304.082
304.086
304.022
303.96
303.935
303.853
303.743
303.639
303.54
354.594
355.771
357.017
358.219
359.165
359.991
360.72
361.27
361.509
361.585
361.543
361.296
360.734
360.173
359.202
358.281
357.15
355.97
354.527
353.328
347.29
348.321
349.361
350.427
351.268
352.029
352.653
353.009
353.26
353.393
353.321
353.053
352.684
352.079
351.375
350.489
349.471
348.355
347.251
346.16
339.96
340.892
341.795
342.616
343.311
344.013
344.484
344.805
345.092
345.104
345.029
344.843
344.505
344.065
343.426
342.756
341.913
340.927
339.973
339.074
332.68
333.39
334.121
334.873
335.439
335.914
336.386
336.603
336.85
336.911
336.88
336.669
336.452
336.082
335.532
334.912
334.314
333.492
332.7
331.992
325.517
325.904
326.611
327.092
327.589
327.957
328.292
328.509
328.676
328.696
328.622
328.478
328.352
328.027
327.663
327.217
326.639
326.066
325.339
324.869
318.186
318.54
318.989
319.385
319.737
320.013
320.189
320.361
320.529
320.587
320.447
320.441
320.272
320.027
319.718
319.406
319.015
318.625
318.179
317.781
310.99
311.188
311.387
311.606
311.841
312.047
312.104
312.23
312.254
312.303
312.307
312.279
312.137
312.019
311.905
311.675
311.403
311.2
310.925
310.692
303.671
303.692
303.86
303.935
304.003
304.017
304.039
304.015
304.145
304.13
304.205
304.084
304.035
304.016
304.053
303.948
303.803
303.776
303.699
303.523
)
;

boundaryField
{
    hotSide
    {
        type            fixedGradient;
        gradient        nonuniform List<scalar> 
400
(
321.511
322.87
325.591
329.677
335.133
341.965
350.181
359.788
370.794
383.208
397.037
412.289
428.971
447.088
466.647
487.651
510.105
534.011
559.372
586.191
323.738
325.08
327.767
331.802
337.194
343.949
352.078
361.591
372.498
384.81
398.537
413.687
430.268
448.289
467.755
488.672
511.043
534.872
560.161
586.913
326.149
327.47
330.116
334.091
339.406
346.071
354.099
363.503
374.296
386.491
400.101
415.136
431.606
449.52
468.885
489.706
511.988
535.735
560.948
587.63
328.704
330
332.597
336.503
341.73
348.292
356.205
365.485
376.15
388.215
401.695
416.604
432.954
450.753
470.009
490.73
512.919
536.579
561.714
588.325
331.33
332.599
335.142
338.97
344.099
350.546
358.332
367.477
378.003
389.928
403.271
418.047
434.27
451.949
471.095
491.712
513.807
537.382
562.439
588.978
333.918
335.158
337.643
341.389
346.414
352.74
360.392
369.397
379.779
391.562
404.765
419.407
435.503
453.065
472.101
492.618
514.622
538.114
563.096
589.569
336.321
337.531
339.959
343.622
348.544
354.751
362.274
371.142
381.385
393.031
406.101
420.618
436.595
454.047
472.983
493.409
515.33
538.747
563.663
590.076
338.36
339.543
341.92
345.509
350.339
356.44
363.847
372.595
382.718
394.244
407.2
421.608
437.485
454.844
473.695
494.045
515.897
539.253
564.114
590.478
339.852
341.015
343.352
346.885
351.645
357.665
364.985
373.643
383.675
395.113
407.984
422.312
438.116
455.407
474.197
494.491
516.294
539.606
564.428
590.758
340.643
341.795
344.11
347.613
352.334
358.311
365.584
374.193
384.176
395.567
408.393
422.679
438.443
455.699
474.456
494.722
516.498
539.788
564.589
590.901
340.643
341.795
344.11
347.613
352.334
358.311
365.584
374.193
384.176
395.567
408.393
422.679
438.443
455.699
474.456
494.722
516.498
539.788
564.589
590.901
339.852
341.015
343.352
346.885
351.645
357.665
364.985
373.643
383.675
395.113
407.984
422.312
438.116
455.407
474.197
494.491
516.294
539.606
564.428
590.758
338.36
339.543
341.92
345.509
350.339
356.44
363.847
372.595
382.718
394.244
407.2
421.608
437.485
454.844
473.695
494.045
515.897
539.253
564.114
590.478
336.321
337.531
339.959
343.622
348.544
354.751
362.274
371.142
381.385
393.031
406.101
420.618
436.595
454.047
472.983
493.409
515.33
538.747
563.663
590.076
333.918
335.158
337.643
341.389
346.414
352.74
360.392
369.397
379.779
391.562
404.765
419.407
435.503
453.065
472.101
492.618
514.622
538.114
563.096
589.569
331.33
332.599
335.142
338.97
344.099
350.546
358.332
367.477
378.003
389.928
403.271
418.047
434.27
451.949
471.095
491.712
513.807
537.382
562.439
588.978
328.704
330
332.597
336.503
341.73
348.292
356.205
365.485
376.15
388.215
401.695
416.604
432.954
450.753
470.009
490.73
512.919
536.579
561.714
588.325
326.149
327.47
330.116
334.091
339.406
346.071
354.099
363.503
374.296
386.491
400.101
415.136
431.606
449.52
468.885
489.706
511.988
535.735
560.948
587.63
323.738
325.08
327.767
331.802
337.194
343.949
352.078
361.591
372.498
384.81
398.537
413.687
430.268
448.289
467.755
488.672
511.043
534.872
560.161
586.913
321.511
322.87
325.591
329.677
335.133
341.965
350.181
359.788
370.794
383.208
397.037
412.289
428.971
447.088
466.647
487.651
510.105
534.011
559.372
586.191
)
;
    }
    coldSide
    {
        type            mixed;
        refValue        uniform 300;
        refGradient     uniform 0;
        valueFraction   uniform 0.991591;
        source          uniform 0;
        value           nonuniform List<scalar> 
400
(
300.024
300.025
300.025
300.026
300.026
300.027
300.027
300.028
300.028
300.029
300.029
300.03
300.03
300.03
300.03
300.03
300.031
300.031
300.031
300.031
300.024
300.025
300.025
300.026
300.027
300.028
300.028
300.029
300.029
300.03
300.03
300.03
300.03
300.031
300.031
300.031
300.031
300.031
300.032
300.031