/*--------------------------------*- C++ -*----------------------------------*\
| =========                 |                                                 |
| \\      /  F ield         | OpenFOAM: The Open Source CFD Toolbox           |
|  \\    /   O peration     | Version:  2212                                  |
|   \\  /    A nd           | Website:  www.openfoam.com                      |
|    \\/     M anipulation  |                                                 |
\*---------------------------------------------------------------------------*/
FoamFile
{
    version     2.0;
    format      ascii;
    arch        "LSB;label=32;scalar=64";
    class       volScalarField;
    location    "./ITHACAoutput/true/11.8";
    object      error;
}
// * * * * * * * * * * * * * * * * * * * * * * * * * * * * * * * * * * * * * //

dimensions      [0 0 0 1 0 0 0];

internalField   nonuniform List<scalar> 
3200
(
0.244496
0.592782
1.10677
0.738026
2.3092
2.17948
1.78348
3.13213
2.28088
0.419468
2.3396
0.69241
1.60685
2.08625
1.95315
1.86762
3.00488
0.588838
0.393347
-1.48093
0.0550348
0.674427
1.71485
1.26524
0.780196
2.26206
1.83696
2.12125
2.52833
2.83726
1.92483
1.85625
1.62983
2.17282
1.91749
2.15952
2.47312
1.05866
-0.507121
-1.09703
-0.890821
-0.263332
-0.218522
1.84201
0.770219
0.917329
1.6917
1.80634
0.331993
1.34963
0.154705
0.810966
2.19077
1.86117
1.67788
2.97906
0.431433
0.702107
-0.595567
-1.08539
-1.88648
-0.758025
0.440469
0.679005
1.45896
1.50192
1.48532
1.55554
1.55328
0.698752
0.81117
1.44181
1.62524
0.633145
0.126049
-0.00886281
-0.0181361
0.197029
-0.736921
-0.661557
-0.635077
-0.201998
0.965436
1.73898
1.07623
0.211511
0.86422
1.22415
0.978233
1.26625
0.331715
-0.238756
0.437309
0.174323
0.917547
1.04121
1.04791
1.03811
-0.00146291
-0.102458
-0.100238
-0.709519
0.353051
0.871893
-0.559823
0.785963
0.739058
0.187887
0.327591
1.54957
0.898366
0.222659
1.85636
0.743255
0.196043
-0.0239747
-0.0334006
-0.638578
0.12232
-1.20031
-0.180279
-0.664606
0.385768
0.654871
0.110405
0.404435
1.004
0.0817705
-0.157104
-0.242784
0.871935
0.603233
0.121265
0.00485803
-0.0746786
-0.874316
-0.161779
0.184364
0.613224
-0.00703013
-0.064185
1.13866
0.134756
-0.193803
0.536503
0.343307
0.368841
1.10583
0.362052
0.580959
-0.545725
0.811582
0.645795
1.19676
0.452432
-0.0267919
-0.20775
0.547483
0.514019
-0.0979535
-0.304242
0.772427
0.735993
2.09615
1.63642
1.31493
1.95198
2.73766
1.85299
2.06914
1.96747
0.923537
1.46182
1.34699
1.24957
1.02342
1.6177
0.408229
0.424609
0.188466
-1.12086
-0.0282473
0.747398
-0.111918
0.988078
0.449255
1.32499
-0.37508
0.623657
0.543178
-0.219824
2.02374
-0.0904299
1.5298
0.00640078
1.89777
-0.0928515
0.828585
0.472903
-0.0565755
-2.26666
0.538875
-0.0365786
0.437117
1.41588
0.870542
1.58412
1.74929
0.844541
0.728246
1.69879
0.261802
0.671557
1.18717
1.34639
1.39362
1.57496
0.546632
-0.569617
1.05546
-0.314061
0.106846
0.209134
0.886488
0.788156
0.133966
1.45234
1.55052
0.612264
1.02621
0.011311
1.19425
1.7081
-0.225045
0.850941
2.11256
0.279647
0.451605
-0.148119
1.47423
0.244546
0.794506
0.475994
1.04254
0.264324
0.409233
1.06145
0.217141
0.0598668
2.16764
0.774683
1.30244
0.0435872
0.728876
0.77718
1.15783
-0.23315
0.525329
0.277383
-0.00161039
-0.535126
-1.09244
-0.203219
0.330149
0.599223
0.668556
0.586423
0.0826725
1.33886
0.940687
0.000490746
1.34181
0.819733
1.10406
0.257674
0.430118
0.818233
0.0243637
-0.820724
-0.77316
-1.33474
-1.09305
-0.827617
0.310581
0.0328208
0.262694
0.90004
0.36634
1.31296
-0.256531
-0.494741
0.650628
0.291204
0.0373853
0.245551
-0.980187
1.04112
-1.02434
-0.465272
-0.538642
-1.64146
-0.983266
-0.0981779
-0.204926
-0.203821
-0.280819
-0.440079
-0.545729
-0.255694
-1.09705
0.629315
-0.120012
-0.209494
0.54523
-0.304733
-0.734798
0.628334
-0.710448
0.373361
-0.0985474
-1.00463
1.75052
1.37415
2.3296
1.76177
1.91124
2.51793
1.38285
1.49907
1.47353
0.889352
0.657311
2.51813
2.69095
1.18942
1.24477
0.113785
1.14135
0.266769
-0.867944
-0.718344
0.0966563
-0.560252
1.72494
1.58115
1.53752
0.880997
1.363
1.28791
-0.0389738
0.453512
1.15194
0.719583
1.02364
1.81447
1.18626
0.357223
0.578831
-0.0241608
0.546108
-0.24041
0.931498
0.0978516
1.14699
1.79553
1.86333
0.482188
1.06442
0.077098
0.693474
0.0540648
-0.308062
1.30513
1.33781
0.471416
1.96288
0.868863
0.797684
-0.403994
0.572556
-0.412953
0.301439
-0.611349
-0.0218864
1.55629
0.0538762
0.0176552
0.373696
0.713954
0.727092
1.37335
1.39591
-0.428904
0.477794
1.41365
0.789537
1.18668
0.896562
-0.286291
-0.921312
-1.02781
-0.776855
-0.698897
-0.278938
1.18683
0.688226
0.887142
0.679073
-0.664103
-0.835706
0.709631
1.71577
0.376545
0.765487
-0.210066
-1.0403
-0.575255
-0.0383483
0.213027
-0.637624
0.00615217
-0.465243
0.270708
-0.0806081
1.08943
0.721719
0.0541854
0.453547
0.870637
-0.37104
1.10698
1.29333
0.9371
0.36776
1.03285
2.19879
-0.71385
1.78122
-0.0177763
-0.162586
-0.553912
0.0192421
0.0960716
0.87754
0.353263
-0.159957
-0.25399
0.330495
-0.155572
0.2642
-0.051953
-0.359953
0.412331
-0.0915976
-0.374681
-0.133962
-0.0219533
0.0970958
-1.34282
-0.0352409
0.937891
0.134754
0.0206673
-1.34198
0.161497
-0.0794267
0.0444642
0.596411
-0.266399
-0.192234
-0.44104
0.115183
-0.163367
-0.438587
1.10709
0.4065
-0.211959
0.61799
0.197472
-0.308805
-1.9363
-0.314374
-0.539968
0.397554
1.06677
2.23704
1.33662
1.32545
2.05298
2.28643
1.78534
-0.491128
-0.196176
1.15158
1.74109
1.79693
0.872318
0.377895
-0.314354
-0.459988
-0.0920519
0.444014
0.814321
0.0629244
0.877407
-0.0627815
0.984395
-0.109048
0.769735
-0.36603
-0.0539617
0.642678
0.343649
0.640355
0.0347279
1.61242
-0.305007
0.732989
-0.0128339
0.349562
-0.436293
0.36155
0.647568
1.05854
-0.104647
0.243823
0.198676
0.887449
1.25205
1.43319
1.54464
0.401441
0.55689
-0.569396
0.416141
1.38916
0.202745
-0.26719
0.751554
-0.613691
-1.53996
-0.619519
-0.202587
0.101909
0.241046
0.147057
0.582405
0.365403
0.106944
0.686301
0.069696
-0.78506
0.613337
0.871722
0.412662
0.373893
0.135471
-0.395921
-0.407599
-1.41351
-0.551349
-0.197745
0.991073
-0.589176
0.390721
0.477913
0.279794
-0.24731
0.570425
-0.880564
0.472811
0.361564
-0.46614
0.560142
-1.20454
1.12943
-1.10621
1.04325
-0.192029
-0.258914
-0.794339
-1.38722
1.37924
0.0269158
-0.55878
0.10721
0.96835
0.297081
0.869647
0.65885
-1.01355
-0.154922
0.421486
0.189241
-0.178424
-0.69937
0.360437
-0.1205
-0.422417
0.257737
0.221081
-0.356618
-1.26268
0.180309
0.300789
-0.341448
0.0631791
-0.561696
0.771305
-0.147016
-0.347377
-0.0696749
-0.453954
-0.721564
0.568584
1.85859
1.0658
0.463673
-1.1636
-0.321625
0.0897738
-1.01262
0.0371908
0.386607
-0.692662
0.667732
-0.255074
0.338417
-0.810431
1.14528
-0.870042
-0.762134
-0.275128
0.114822
-0.0989799
0.714848
1.50156
-0.403776
-0.583084
-1.10959
-2.0319
0.827571
1.26
0.261318
0.916601
1.12953
1.57264
1.06865
0.484316
0.00970322
-0.289793
0.232455
0.143266
-0.295235
-0.257678
1.16425
0.752355
-0.354979
0.313934
-0.303808
-1.21644
0.0460174
-0.603797
0.0651143
0.767839
0.588253
0.116502
0.412375
0.634323
-0.123331
-0.196005
0.86272
0.593603
-2.02877
-0.319787
0.648268
0.424385
1.79584
0.411218
-0.854853
-0.642629
-0.49226
0.412938
1.33883
1.40725
0.69345
1.86135
0.389246
-0.53507
-0.019106
-0.0702613
-0.371416
-0.696936
0.665268
-0.213763
-0.209104
0.205906
-0.211772
0.190368
-0.266866
-0.038371
-0.370638
-0.200568
0.685289
1.18115
0.453338
0.104343
-0.0334231
0.251984
0.358878
-1.01494
-0.634133
0.788648
0.883174
0.564543
-0.573961
1.03024
-0.851628
0.000738778
0.411655
-0.503653
0.161342
-0.337243
0.403282
-0.738003
0.0398328
1.05883
0.353418
0.783314
-0.433223
0.122707
1.22711
-0.466391
-1.05935
0.0652368
-0.362037
-0.788657
0.362367
-0.394568
-0.827626
0.676777
-0.0262812
0.791273
0.5756
0.391516
1.20906
-0.640184
-0.143356
-0.462761
0.361908
0.421835
-0.229051
-0.944108
0.0998853
-0.0238745
-0.368699
-0.644419
-0.468246
-0.195928
0.102844
-0.682554
-0.438816
-1.05589
0.226607
0.901124
1.01271
0.800349
-0.611833
1.24504
0.219497
-0.153649
-1.43613
-0.154057
-0.477215
1.51739
-0.741475
-0.0296751
0.355641
-0.455582
1.03757
-0.128844
-0.331984
-0.815837
-0.876449
0.0820319
-0.533365
-0.0151901
0.282201
-0.084949
0.321729
-0.805663
-0.216667
0.238112
0.0240398
-1.1225
0.446349
0.111446
-0.318223
-0.00770316
-0.134794
-1.16872
0.0957429
1.05703
0.477986
0.9342
0.379239
0.302445
-0.708886
0.474884
-1.1219
0.759802
-0.771669
-0.262031
-0.367205
-0.17626
0.51032
0.0283145
1.21593
0.522321
-1.19917
-0.720532
-0.466159
0.665263
-0.403398
0.289057
0.246562
-0.333908
-0.432176
-0.404215
-0.193666
0.308972
0.254922
0.136978
-0.084713
0.0492686
0.237127
-0.119556
-0.140829
-0.159442
0.482426
-1.40637
-0.775814
0.24765
0.394037
0.875678
1.38874
0.87112
-0.60809
0.298581
0.873923
-1.47162
-0.245245
0.0207692
0.00490669
-0.00397954
0.819058
0.608154
0.594692
-0.181709
-1.29027
-1.64311
-0.463228
-0.268693
0.373459
0.225738
0.706687
-0.726021
0.750594
-0.964612
-0.496277
0.711417
-1.17878
-0.587571
-0.0234523
-0.32274
-0.0010372
-0.478804
-0.540239
-0.410429
-0.726301
-0.388197
-0.536232
0.12204
1.09288
0.560952
0.246605
0.130412
-0.550119
-0.248866
1.03621
-1.28319
-1.12673
0.411076
-0.19281
0.768691
-0.385593
0.165153
-0.339211
-0.548813
-1.06417
-0.526647
-0.309996
-0.500028
0.23752
-0.170613
0.613059
0.247318
0.114506
0.257786
-0.328888
1.26024
-0.0890057
0.373489
0.522372
0.383749
0.341415
-0.438533
1.14734
-1.09149
0.130776
0.348543
0.936012
-0.275319
0.539801
-0.475495
1.2894
0.207256
1.15626
-0.952481
-0.499057
-1.6583
0.439522
-0.470683
0.407272
0.323164
0.142815
-0.195618
-0.588979
-0.732082
-0.665579
-0.773411
-1.17327
-0.492892
-1.07483
1.33313
1.22256
0.105573
0.802916
0.293672
-0.167731
0.204459
0.650236
-1.09393
-0.433282
-1.07436
-0.453718
0.522447
0.485656
-0.176824
0.396953
-2.19568
-0.681202
-0.122044
1.71045
1.14231
0.505691
0.725104
-1.56681
0.494051
-0.618614
-1.22393
-0.686568
-0.0709859
-0.223422
-0.389767
-0.257428
-0.112829
-0.610836
0.811445
-1.16145
-0.647547
-0.418061
0.705336
-0.228564
1.25895
0.627109
0.151628
-0.0430924
-0.662187
-1.44778
-1.02635
-1.04235
-2.18045
0.0363853
-0.952416
0.750569
-0.101608
-0.184575
-0.458666
-0.789686
-0.257903
-0.668545
0.431375
-0.81639
0.308802
0.438076
-0.0480343
-0.127836
0.175404
0.124891
-0.713815
-1.21371
0.469605
-0.150616
-0.824714
1.09028
-1.38789
0.703681
-1.02166
-0.770809
-1.21439
-1.22058
0.368422
-0.147999
1.33633
0.175153
0.779353
0.186288
0.168458
-0.328325
-1.47876
-1.09505
-0.999719
-0.0289939
-0.0366654
-0.369666
-1.19373
-0.691805
-1.86041
-1.02476
-2.13917
-0.498786
-0.242081
-0.267815
0.566234
0.922107
0.563664
-0.756294
-0.842798
0.405419
0.0892535
0.796784
-1.10212
-0.349805
-0.153532
0.461489
0.297948
1.06659
-0.925262
-1.25725
-0.368958
-0.156483
-0.0605277
0.733975
0.263952
0.64017
0.85452
-1.4459
-0.109855
0.496379
0.051625
-0.0658912
-0.815208
-0.481062
-0.470492
1.02811
-0.698005
-0.69784
-0.812076
-1.01393
-0.746945
-0.730768
-0.148951
0.733089
1.09541
-0.158565
0.0345271
0.169105
-0.794644
0.890913
-0.0108627
0.106639
0.550522
0.712775
0.080873
0.570795
0.323802
-0.334997
-0.0764031
-0.155387
-0.0676968
-0.115948
0.17253
-0.050078
0.550434
0.537394
-0.21053
-1.03826
-0.103063
-1.26926
-0.0629763
-0.62699
-0.513319
0.981206
-0.254063
0.366146
-0.57828
-0.0734345
1.10895
-1.25314
-2.96096
-0.24261
-1.60964
0.723393
0.327161
-0.102772
0.389916
-0.0478807
-0.456182
-1.6877
-0.423111
-1.26698
-0.740579
-1.99688
-0.622565
-0.236508
1.13683
-0.846751
-0.616862
-1.80194
-0.972087
0.0697665
-0.462406
-0.110536
-0.0368035
0.127879
0.0790862
0.0382519
-0.466981
-0.0313678
0.115142
-0.21385
-0.132523
-0.440887
0.012145
0.115101
-0.211908
0.827612
0.402867
-0.660831
-0.927032
-1.14213
0.0306966
-0.702217
-1.06885
0.635344
-1.51852
-0.443969
0.307982
-1.38702
-0.081766
-1.53385
-1.71933
-2.05962
-1.13703
-0.739867
0.122103
-1.47993
-1.34786
-1.20871
-1.19199
-0.557704
-0.102279
-0.268698
0.823123
-0.789154
-0.187748
-0.247899
-0.862754
-0.696416
-0.837753
-1.11086
-1.12506
-0.441919
-0.758733
1.63917
0.103038
-0.250236
-0.221248
-0.713946
-0.60958
-0.0103676
1.38871
-0.294272
-0.778351
-0.634102
0.5101
-0.775765
-0.193209
0.171882
-1.34925
-1.12167
-1.12367
-0.472011
0.333827
0.39397
0.775169
-0.258818
-0.0234333
-1.67672
-0.973352
-1.64703
0.453145
-0.640738
0.0749112
-0.167868
0.436685
-0.484999
0.609162
0.0513628
-0.549999
-0.665913
-0.0210225
-0.607855
-0.390393
-0.263525
0.0148383
-0.555168
-1.16064
-0.0464608
-0.569133
0.0626551
0.643346
1.36155
1.12383
-1.28691
1.20452
0.245781
-0.576159
-0.436431
-1.10867
-0.68648
0.100465
-0.211612
0.117629
0.655261
-0.774265
-0.314876
-0.668338
-0.886297
-0.975088
-0.122661
-0.83718
0.493046
0.264676
-0.0518934
-0.746024
-0.201943
-0.0381306
-1.08349
0.895609
-0.803776
0.190642
-0.537811
-0.168159
-0.277932
-0.296348
-0.486903
0.415953
-1.81639
-0.711777
-1.74624
0.0102989
-0.158814
0.132752
0.583682
-0.754419
-0.826708
-1.48901
-1.12482
-1.20804
-1.67311
-1.64466
-1.8202
-1.34391
-0.798911
-0.570797
-1.68187
-1.4919
-1.13372
-1.45261
-1.86546
-0.0277462
0.416348
-0.0252771
0.384268
-0.286597
-0.622492
-1.07108
-0.773383
-1.11902
-1.24614
-1.11715
-1.51572
-1.26094
-0.219926
0.188872
-1.59371
-0.632727
-1.17904
-2.0215
-0.616205
-0.447852
0.242159
-0.082241
-1.08461
-0.59699
-0.750509
-0.882485
-2.05936
0.585503
-1.37538
-1.23367
-0.692414
-0.954896
-1.34061
-0.580981
-2.59222
-1.21156
0.117734
-1.07771
-0.342125
-1.40352
-0.0129069
0.0324363
0.435034
-0.838257
-0.810677
0.271424
-1.96641
-3.0373
-1.57454
-0.776801
-0.727575
-0.442011
-0.592961
-0.362311
-0.0387028
-1.41118
-0.974054
-0.792608
-0.244266
-0.9572
0.0919351
-0.424945
-0.459279
-0.388802
0.499859
-0.290493
0.0915589
0.211496
-1.32488
-0.344762
-0.111354
-1.30999
-0.759538
0.69811
-0.825499
-0.494569
-0.569
-0.123558
-0.23493
-0.644237
-1.4881
-0.420824
-0.115977
-1.57335
0.351556
-0.0476806
-1.20677
-1.27934
-1.1752
-0.164727
0.489206
-1.37324
-0.0425965
0.349472
-0.235106
-0.553265
-0.383408
-0.213013
-0.402553
-0.192319
-0.284335
-0.994166
0.0691249
0.132163
-1.21596
0.208377
-0.557662
0.275856
-0.501628
-0.241466
-0.330701
-0.278055
-0.745857
0.10748
-0.463805
0.493044
0.0427658
-0.643541
0.65058
-0.731492
0.301255
0.0599281
0.331141
-0.163421
-0.0796722
-0.332204
1.01919
-0.706556
-0.275481
-0.728122
-0.301323
0.595206
-0.246009
0.680362
0.242087
-0.918314
-0.446253
-0.906765
-0.32353
-0.167925
0.989165
0.154866
-0.308231
-0.12278
-1.21681
-0.690769
-1.48982
-1.77621
-1.96822
-1.58703
-1.16746
-1.64134
-0.608262
0.474295
-0.561781
-0.731013
-1.15857
-1.69448
0.142468
0.044249
-0.118308
-0.0661665
-0.34478
-1.32226
-0.211725
-1.47883
0.117183
0.123926
-1.88856
-0.146512
-1.33955
-0.422758
-0.48934
0.101535
-0.568023
-0.202678
-1.01579
-0.461779
-0.205504
0.552374
-0.370273
-0.56603
-0.28865
-0.0226178
-0.560058
-1.12016
-1.42723
-2.11334
-0.664929
-1.37609
-1.15858
-0.707558
-0.513589
-1.48763
-1.41223
-0.306991
-0.598172
-2.25556
-0.131731
0.176932
-0.342547
0.224654
-0.15749
-0.36914
0.0864429
-1.2486
-0.160632
-0.528298
-0.790632
-1.03724
-1.17079
-1.39632
-0.376998
-1.08411
-0.82908
-1.42418
-1.15109
-1.0842
-0.436915
-0.776301
-0.503731
0.498248
-0.24724
-0.519429
0.0520463
-0.376498
-0.839147
-1.13312
-0.669761
-1.30935
-0.8754
-0.911539
0.762394
-0.109194
-0.0151504
0.637344
-1.39965
-0.196731
-0.617387
-1.38402
-0.0688445
0.951955
-0.518
0.275783
0.0215928
-0.930922
-0.292607
-0.602806
-0.891619
0.174668
-0.997486
-0.0284149
0.185497
0.0685559
-2.12191
0.20302
-1.55347
0.0786321
0.0430344
0.205158
0.0328951
-0.212402
0.433695
1.29575
-0.499385
-0.374601
-0.195576
-0.130619
-0.763511
-1.86995
-0.847083
0.295476
-0.137978
-0.481673
0.353022
0.190844
-1.62894
0.781799
0.452116
-0.0952607
-0.327668
-0.0700026
0.611455
0.355526
0.886018
-0.0529547
-1.23234
0.801094
-0.443283
-0.511487
-0.700074
-0.163123
-0.0705273
-0.216539
-0.522539
-0.0749329
-0.491263
-1.75148
-0.594809
-0.289936
0.0467148
-0.578668
0.653142
-1.03761
-1.13023
-1.27938
-0.512208
-2.00084
-1.90854
-1.73795
-2.35053
-2.17116
-0.885212
-1.64326
-1.04652
-0.33027
-1.10505
-1.57279
-0.0996803
-1.11895
0.288205
-1.1193
-0.160377
-0.746014
0.18787
-1.26253
-0.129272
-0.0039166
-2.11084
-0.440385
-1.6493
-0.0423749
-1.77605
-0.209418
0.144253
0.0809375
-1.42887
-0.702553
-0.861557
0.155158
-0.00814451
0.325435
-0.0549505
0.0563833
-0.73006
-0.60827
-1.75022
-1.72241
-1.92755
-0.538426
-0.238072
-1.61229
-0.635847
-1.28997
-0.904405
-0.428835
-1.1337
-1.02115
-1.06525
-0.0613581
-0.197372
-0.60658
0.42423
0.242332
-0.850653
-0.892478
-1.33518
-0.105313
-0.807958
-1.5244
-1.07962
-0.193867
-0.837137
0.0895849
-0.510258
-0.253163
-1.35303
-0.279831
-0.439519
-0.354391
-0.280971
-0.865589
-0.264665
0.336297
-1.11546
-1.01123
-0.62897
-1.10075
0.336561
-0.263876
-1.78608
-0.503245
-0.477492
-1.22578
0.23163
-0.126074
-1.50434
-0.545454
-1.01494
0.514656
-0.5126
-0.348573
-0.0899666
-0.14962
-0.409896
-1.85761
-0.0549369
-0.954042
-0.357242
-0.318568
-0.675129
-0.646534
0.0362572
0.9698
-0.603476
0.446888
-1.31394
-0.27567
-0.868606
0.347512
-1.10449
-0.25246
-0.881701
-0.425098
0.23668
0.070908
-0.145552
0.156452
-0.456689
-0.4225
0.900342
-0.113516
0.131827
-0.102528
-0.85006
-0.0430846
-1.01518
0.348446
0.319512
-0.769344
0.61405
-0.784703
0.796957
-0.520567
0.740835
0.102821
-1.67415
0.101681
-0.0683611
0.642304
-0.672889
0.500712
-0.0392579
0.63624
-0.0299707
0.682847
0.120552
-1.48187
-1.96208
-0.640902
-1.5955
-0.760648
0.177655
-0.120918
-0.572063
-1.65978
-2.07568
-1.8518
-1.61727
-1.04486
-0.696702
-1.72125
-0.7422
-0.351632
-0.954517
-0.398985
-0.726455
-2.67502
-1.5535
0.970534
-0.13122
-1.04209
0.0153901
-0.234462
-1.12599
-1.29485
-0.895772
-2.3916
-1.83306
-1.62612
-1.29037
-0.321776
-1.37344
-1.01215
-0.116602
-0.781921
-0.701883
-1.70519
-0.858397
-0.748955
-1.48115
-0.438107
0.614353
-0.593359
-1.43643
-0.0788851
-0.944503
-2.01962
-1.19136
-0.711971
-1.21182
-0.604652
-0.886611
-0.649497
0.257171
-0.640915
-1.23159
-0.337312
-1.50346
-0.236082
-0.145833
-0.776393
-1.41685
-1.33944
-1.12798
-1.18711
-0.993136
-1.22374
-1.49734
-0.97315
-0.815811
0.144794
0.64524
-0.648557
0.0198679
-0.313829
-0.865099
-0.608168
-1.44689
-0.333236
0.184326
0.23451
-0.253517
-0.491883
0.791759
-0.932639
0.44992
-0.378314
-0.203076
-0.399532
-0.904875
0.121919
-0.154764
-0.152165
-1.21881
0.297844
-1.12599
-0.919013
-0.883906
-0.288852
-0.493687
-0.258922
-0.910211
-0.620432
-0.555295
-0.581778
-0.0821705
-1.26559
0.371814
-0.3654
0.56204
-0.386967
-0.570889
-0.1637
0.307064
-0.29946
-1.48805
-0.862891
-0.476484
0.491605
-1.09909
-0.565193
-0.388454
-1.18314
0.492968
-0.553068
-0.373123
-0.80172
-0.284904
-0.000646374
-0.382261
-0.969277
0.322507
0.607477
-0.765459
0.913447
-0.687832
0.189688
1.12559
0.292648
-0.15237
0.473664
0.116849
-0.178815
0.0581853
0.492
-0.732859
-0.159029
-0.107877
-1.53148
0.93205
0.389996
0.580883
0.910001
-0.403506
-0.562835
0.86205
-1.12836
-1.68701
-0.922628
-1.04973
-0.517926
-1.09338
0.952867
-0.377792
-1.04373
-1.00659
-1.58468
-1.1212
-1.77925
-1.4457
-1.29261
-0.616803
0.126613
-0.374436
-0.233468
-1.0748
-1.25273
-0.146227
-1.24569
-0.0559773
-0.42637
-0.138953
-1.12009
-0.515516
-0.993332
0.126181
-0.452194
-2.02516
0.250047
-0.714803
-0.127089
-0.811739
-0.0832005
-1.12531
0.25407
-1.37018
-2.04965
-1.26419
-1.78099
0.158024
0.326254
-0.246971
0.135596
-1.79533
-1.61724
-0.963824
-0.624298
-1.65356
-2.26169
-0.665976
-0.442574
-0.219189
-1.3041
-0.267032
-0.290832
-1.20726
-0.273735
-0.582641
-1.03607
-1.4
-0.681908
-0.351384
-0.180615
-0.667138
-0.581363
-1.02667
-1.04862
-1.32637
-0.387615
-1.42316
-0.746156
-0.335222
-0.774715
0.485416
-0.787516
-2.18963
-0.736448
-0.0174702
-0.92068
0.182051
0.181699
-0.343236
-0.760482
0.217094
-0.512543
-0.743358
-1.29602
-0.957543
-0.331944
-1.50311
-0.590606
-0.955196
-0.348189
0.299994
-0.395032
-0.159366
-0.113653
-0.190837
-0.34612
-0.618245
-0.850751
0.313884
-0.576261
-1.95963
-0.88462
-1.42296
-0.643499
-0.711456
0.420868
-0.520481
-0.15714
-0.596467
-0.376028
-0.661205
0.00739515
0.443213
-0.456998
-0.18021
-0.417238
1.29236
-0.269667
1.19742
0.0302455
0.769608
-1.38697
-0.209231
0.128642
0.0927711
-0.0545511
0.00133653
-0.317053
0.0664832
1.33148
0.526024
-0.202034
-0.276254
-0.516438
1.00289
0.294534
-0.695259
-1.04946
-0.0662815
0.585444
-1.18535
0.0855143
0.0957086
-0.193693
-0.232192
-0.028074
0.228231
-0.522545
-0.107333
-0.0759766
0.427541
-0.645674
0.412495
-1.19255
-0.956881
-0.403182
-0.925515
0.360334
-1.21425
-1.02186
-0.276901
-0.895997
-1.27351
-2.72645
-1.7167
0.303678
-0.670026
-1.3034
-0.0782221
-0.0511904
-0.320521
-0.584318
-1.28462
-0.548254
-1.40331
-1.14459
-0.104129
0.244033
0.314142
-0.0401226
-1.20094
0.248664
-1.31349
-0.0163584
-1.11222
-0.420044
-0.494071
-1.02822
-1.35105
-0.211909
-0.942094
-0.960839
-0.757868
-0.661879
-1.24762
-0.792141
-0.877577
-0.235922
-0.615167
-0.173889
0.144374
0.0363803
-1.86692
-0.341737
-0.674716
-1.97677
-0.946372
-0.57572
-0.399337
-0.512574
-0.279292
-0.304122
-0.880966
-1.46072
-0.858033
-0.30305
0.549721
-0.901407
-1.18794
0.0761174
-1.26307
-0.731353
-1.17948
-0.339507
-1.66355
-0.810145
0.0259164
-0.766346
-0.573109
-0.165828
-0.833192
-0.248344
-1.04112
0.156744
-1.10637
0.410052
-0.116642
0.13378
0.666747
-0.50229
-0.815954
-0.612235
-0.831879
-1.1441
-0.772158
-0.740214
-0.750636
-0.641976
0.634665
-0.555793
-1.10221
-0.580929
-0.672133
-1.9414
0.125242
0.70326
0.453533
0.00471196
-0.491852
-0.610311
-1.23382
0.219753
-0.186416
-0.871298
-1.13712
-0.62026
-0.533555
-0.100563
-0.300132
-0.872949
-0.872888
-0.179985
-1.30265
-1.07479
-0.571934
-1.21026
-0.586828
0.0187454
-1.30537
-0.61201
-1.32066
0.150022
-0.554762
-0.318954
-0.795363
-0.127814
0.1669
-1.16647
-0.104788
1.01515
-0.721845
0.765139
0.383834
-0.28893
0.666631
0.123313
0.576395
-1.29498
-0.683804
-0.128003
0.303777
0.230478
-0.160397
-1.08444
-0.166521
0.228756
0.350811
-0.680161
-0.740707
-0.45927
-1.25008
-0.61629
0.287213
-1.16945
-1.26633
-1.376
0.699436
-0.00563119
-0.0411461
-0.227937
0.597441
-0.934129
-0.260405
-1.57574
-0.611495
0.670409
-0.720888
-0.442753
1.45633
-0.272231
-0.166628
-0.554189
0.766852
-0.543295
0.0354292
-0.473836
-0.123035
-0.176533
-0.151176
0.0996501
-0.613181
-1.43199
-0.127
0.100296
0.37182
-0.176657
-0.964596
0.10572
0.715069
0.149338
-0.92436
0.220764
-1.1009
-1.29541
-0.695497
0.185061
-0.701893
-0.527065
-1.49989
0.33064
-0.92901
0.0394575
0.07209
-2.48994
-0.858244
0.147302
-0.934406
0.0877578
0.558479
0.138043
0.623193
-0.213134
0.393089
-1.92158
-0.735785
-0.546784
-0.191433
-0.619955
0.14378
-0.458494
-0.782827
0.487475
-0.42139
-1.80664
-1.39298
-1.31021
-1.15442
-0.0288971
-0.570043
-0.453305
-0.493073
-0.945015
-1.99935
-0.721298
-0.156952
-0.330055
0.246415
-0.368082
-0.577779
-0.617964
-0.983158
0.158466
0.384407
-0.918394
-0.911921
-0.159292
-0.304786
-0.742107
1.00892
-0.231241
0.300978
-0.352525
-0.293985
0.00383086
0.657668
-0.13911
-0.540615
-0.687136
-0.834769
-0.513878
-1.21288
0.629676
0.176689
0.39245
-0.538109
-0.762359
-0.37246
0.648471
0.0418384
0.756874
0.273609
-0.947873
-0.315686
-0.0420854
1.10809
0.00310608
0.592916
-0.723251
0.260015
0.175367
0.300167
-0.490541
0.258947
0.04709
-0.196822
-0.0786978
0.0436049
1.44013
0.333492
-0.124141
0.262902
-0.462835
-0.297481
-0.0115246
-0.750157
0.250243
0.14111
0.729376
0.0888622
0.195241
0.626786
-0.0703735
-0.994239
0.405976
-0.834336
-0.816792
0.189553
0.818876
-1.30613
-0.141989
-0.51769
1.15562
0.25032
0.103948
-0.327723
-0.373072
0.646276
0.897029
-0.378695
-0.295545
-0.385912
-0.103775
-0.218708
0.0928411
-0.783885
0.148524
-0.0455864
-0.015299
-0.427668
0.65913
-0.379869
0.0144692
-1.40419
-1.738
-1.36791
0.0807037
0.544355
0.745802
-0.24021
0.502615
-0.349076
-0.683434
-0.425245
-0.83298
-0.605541
-0.142426
-0.784753
-0.076534
0.442091
1.1697
-0.333168
-0.462128
-0.758485
-1.09822
-0.0281123
-0.842606
-0.945418
0.1421
-0.249871
-0.108489
-0.0058644
-0.268184
-2.27124
-0.516811
0.412486
-1.24236
0.0337289
0.150899
0.842615
0.263872
-0.869092
0.248212
-0.0763092
-1.02595
-0.420609
-0.592952
-0.571929
-0.091047
0.367587
-0.711951
-0.89391
-1.02351
-0.406945
-1.36233
-1.1266
-0.6948
0.234151
0.394817
0.213201
-0.0732257
-0.149782
-0.431529
-0.195773
-0.823091
-0.644695
-0.565323
-0.7178
0.0746613
-0.32137
-0.345501
-1.41408
-1.12436
1.08816
0.00327625
-0.953013
-0.354498
0.206112
-0.313018
-0.853761
0.427497
-0.0740826
0.586015
0.567605
-0.0257578
-1.08142
-1.13887
0.154556
0.59441
-0.788238
-1.05326
-0.653564
-0.380142
-0.620327
-0.260203
-0.315967
-0.652072
0.462588
-0.71902
-0.542002
-0.516941
-1.49931
-0.109147
0.244387
-0.891272
-0.429152
0.423326
-0.479293
0.345746
-0.033169
0.338795
-0.240477
-0.235477
0.0531086
0.54163
-0.243235
-0.285953
-0.231768
1.09946
0.176982
-0.842019
-0.925865
-0.574295
0.44037
-0.383113
0.579308
0.632039
0.351753
1.07276
-0.728277
0.524621
-0.707228
-1.25301
-0.17828
-0.0452502
0.044308
-0.593512
0.0861422
-0.386117
-0.182992
-0.246139
-0.169166
-1.0497
0.598168
-1.38363
0.839475
0.317426
0.724592
1.0398
1.79939
1.79605
0.914317
0.94447
0.0483124
-0.464954
1.03854
0.339394
1.42702
1.1327
0.0293121
-0.377601
0.668642
0.650137
-0.0701311
0.741278
-0.12037
-1.45211
0.541969
0.458402
0.259599
0.696781
0.147554
-0.686433
0.229379
0.0495907
-0.242613
-0.0772924
0.594109
0.314636
-0.373174
-0.285287
-0.239106
0.489381
-0.810902
-0.611063
-0.253478
-1.21709
-0.536903
-0.553126
-0.179971
0.330958
-1.21125
-0.991865
-0.115224
-0.0698937
-0.275864
-0.0850658
0.0259281
1.16985
0.273063
1.24915
-0.056369
-0.104837
-0.751172
-1.17132
-1.09658
0.948668
0.42627
-0.7781
0.444439
-0.00788978
0.219483
-0.723386
-0.0683089
-0.904149
1.16282
0.190667
-0.273518
1.27389
0.622985
0.852041
0.12028
1.27815
-0.340678
-0.276748
-1.25134
-0.705838
0.0561524
-0.87994
-0.224466
-0.153219
0.0725336
0.377841
-0.357819
0.148734
-0.481283
-1.13383
-0.268032
0.330627
1.7688
0.69405
-0.473319
0.0640091
0.325269
-0.181463
-1.91368
-0.962664
-0.368383
0.490825
0.592959
0.118316
-0.833158
1.99716
-0.798302
0.595582
0.847679
1.52998
0.476379
1.25271
0.25802
-0.465329
0.548467
0.345614
-0.297003
-0.329284
0.409405
0.930202
0.352809
-0.690586
0.0480079
0.58967
0.0245903
-0.527139
-0.00632986
-1.69353
0.22672
-0.927689
0.720767
-0.566822
-0.607641
0.873575
-0.323347
-0.754458
-0.286874
-0.516511
0.584553
0.105895
1.00725
0.239268
0.156474
0.470834
-0.0827256
0.803211
0.0679115
-0.999974
0.981908
-0.739831
-0.502786
-0.818633
0.439244
-0.319081
-0.767708
0.402501
-0.990156
-0.268048
0.657777
-0.138692
0.938372
1.31589
1.21288
2.39022
1.54395
0.959716
0.162096
0.124591
1.5327
1.71257
1.26634
0.551284
1.59756
1.17981
-0.437394
0.199343
-0.1748
-0.912531
-0.726698
1.19421
0.694405
0.0256594
0.17429
-0.512323
0.862466
0.590016
0.346456
0.628647
0.742403
0.861793
-0.116422
0.37431
1.11423
0.423532
0.691293
0.646237
1.28405
-0.250411
-0.764855
-0.931765
-0.423804
0.855037
0.454897
0.36224
-0.0310782
0.279753
0.189624
0.307497
-0.313118
1.47665
0.28637
0.98459
1.25936
1.58293
1.01983
1.07817
-0.774027
-0.540394
0.648507
0.482846
0.922771
0.22979
0.688903
0.383614
0.609097
-0.621891
-0.137823
-1.04999
0.236902
0.494032
1.21941
0.456504
0.76066
0.61294
0.661656
0.058813
-0.427536
1.02033
-0.713901
0.976201
0.453438
-0.441519
-0.243008
0.511055
0.513758
-0.419709
0.708666
-0.341441
-0.376627
0.207236
0.309584
-0.168221
0.991186
0.769237
0.481112
0.630516
1.06469
-1.02377
-1.20299
-0.754144
-0.217934
1.30937
-1.14435
0.390329
0.487495
0.328755
0.583113
0.212877
-0.335818
0.338894
-0.283781
0.349606
0.0746458
0.301156
-0.483524
0.287871
0.677327
-0.571954
-0.684293
0.164745
0.754205
-0.393432
-0.620289
0.0352104
0.725014
0.297883
0.250876
0.305187
0.273478
0.601025
-0.538699
1.14946
0.660521
0.288879
-0.0401846
-0.0651338
1.13379
-0.571869
-0.531428
-0.730621
0.859932
-0.798235
-0.277714
0.144329
0.574531
-0.0840691
-1.09635
0.752758
0.614791
-0.245194
0.969968
-0.466731
-0.269512
0.747019
-0.941356
-0.434308
0.0139723
-0.857067
0.686123
-0.791449
1.53305
0.540855
0.424511
0.665158
1.1503
1.31395
1.34317
1.07676
1.39194
0.94295
1.34726
1.84596
2.7078
1.88109
3.0997
0.598787
1.95938
-0.414674
0.367845
0.589235
-0.0773589
1.15215
0.0408797
2.50172
0.0787791
0.595088
0.323948
0.380717
-0.335926
0.10782
1.59718
0.0754098
1.21401
-0.186317
1.07841
-0.177252
0.83886
0.133616
-0.223897
0.275137
1.26301
1.00118
0.637151
0.00311023
0.479628
1.35212
0.898675
1.19117
0.636584
1.39877
1.45338
0.448409
1.57705
0.641167
0.751769
-1.21604
0.112695
0.10833
0.457732
-0.745507
-0.0832145
0.560061
1.07454
2.09652
0.768666
0.691588
0.0192843
1.1701
0.385937
-0.989886
0.92858
0.164195
0.873376
0.226523
-0.372877
-0.588677
0.825416
-0.782214
-0.965359
-0.891355
0.708108
1.43723
-0.523553
0.761464
-0.35406
0.680063
1.4182
0.475199
0.446124
-0.440107
0.0788648
-0.488922
0.491112
0.70413
0.693148
1.08213
0.959466
0.1405
-0.678357
-0.86802
-0.0229776
0.537683
-0.294698
-0.124512
0.125242
-0.0841097
1.11996
1.04576
0.366469
0.959873
-0.0441993
0.499098
0.583047
0.367386
-0.378723
0.562635
0.692955
-0.211129
-0.377718
-0.332128
0.661856
0.508069
-0.222765
-0.943769
0.179167
0.0442597
-0.239967
0.404472
1.52223
0.325086
-0.126203
-0.325121
-0.521908
-0.796519
0.629197
0.470277
-0.256901
0.268875
-0.389698
1.34632
-0.241574
0.923749
-0.894058
0.73828
0.118416
0.0290794
-0.420305
-0.0598713
0.467179
0.0148679
0.300788
0.564572
0.262664
1.6293
-0.615199
-0.668493
-0.210685
0.211286
1.26528
1.79475
2.13465
1.97601
0.812145
2.38223
1.89269
2.22841
1.11879
1.77093
0.930645
0.93666
1.70461
2.01558
2.80774
2.90904
1.9829
2.06073
0.600969
0.591312
0.942684
1.70122
2.21406
0.947752
1.62465
1.53232
2.56513
0.747941
1.65089
0.96023
0.78565
0.577872
1.61713
1.12485
2.02291
2.13056
2.67857
1.29179
1.76641
0.151928
-0.390413
-0.124071
0.924287
0.75306
0.84656
0.291228
2.52456
0.393986
-0.742033
0.592843
0.514153
0.716264
1.65735
1.50991
1.8895
1.55703
2.08493
1.0692
0.282108
-1.66201
-0.597069
-0.280929
0.467665
0.648397
1.66835
0.831748
0.306933
0.766384
1.66156
1.37567
0.895045
1.8441
1.05687
1.58334
0.807874
0.0645851
1.51071
1.3137
1.31053
0.246593
-0.286383
1.34549
0.184397
1.85373