/*--------------------------------*- C++ -*----------------------------------*\
| =========                 |                                                 |
| \\      /  F ield         | OpenFOAM: The Open Source CFD Toolbox           |
|  \\    /   O peration     | Version:  2212                                  |
|   \\  /    A nd           | Website:  www.openfoam.com                      |
|    \\/     M anipulation  |                                                 |
\*---------------------------------------------------------------------------*/
FoamFile
{
    version     2.0;
    format      ascii;
    arch        "LSB;label=32;scalar=64";
    class       volScalarField;
    location    "0";
    object      T;
}
// * * * * * * * * * * * * * * * * * * * * * * * * * * * * * * * * * * * * * //

dimensions      [0 0 0 1 0 0 0];

internalField   nonuniform List<scalar> 
3200
(
347.58
345.828
344.469
343.782
343.643
343.937
344.477
344.75
345.17
345.451
345.515
345.381
344.867
344.199
343.709
343.506
343.586
343.75
344.925
346.309
341.246
339.792
338.601
338.026
337.876
338.154
338.616
338.854
339.205
339.462
339.57
339.438
338.943
338.38
337.966
337.788
337.917
338.016
339.025
340.184
334.912
333.711
332.708
332.221
332.079
332.338
332.698
332.932
333.212
333.434
333.545
333.427
333.02
332.539
332.202
332.039
332.165
332.231
333.086
334.03
328.565
327.624
326.795
326.407
326.292
326.502
326.761
327
327.203
327.38
327.476
327.381
327.063
326.679
326.406
326.252
326.377
326.435
327.109
327.871
322.202
321.514
320.844
320.573
320.46
320.624
320.801
321.025
321.155
321.324
321.379
321.313
321.094
320.791
320.585
320.455
320.558
320.619
321.112
321.719
315.839
315.365
314.901
314.703
314.627
314.736
314.857
315.048
315.124
315.255
315.273
315.235
315.111
314.858
314.74
314.638
314.729
314.766
315.112
315.548
309.499
309.232
308.977
308.858
308.78
308.853
308.914
309.038
309.086
309.182
309.171
309.154
309.093
308.931
308.872
308.817
308.86
308.88
309.09
309.338
303.169
303.086
303.008
302.963
302.938
302.968
302.985
303.036
303.049
303.078
303.071
303.077
303.054
302.994
302.989
302.953
302.965
302.98
303.056
303.127
347.739
345.997
344.695
344.173
344.068
344.371
344.949
345.313
345.754
345.924
346.198
345.952
345.527
344.873
344.219
343.885
343.822
344.134
345.184
346.666
341.381
339.929
338.805
338.361
338.269
338.518
339.002
339.347
339.707
339.847
340.101
339.888
339.509
338.959
338.391
338.116
338.119
338.35
339.253
340.48
335.018
333.858
332.887
332.507
332.447
332.656
333.025
333.342
333.619
333.754
333.96
333.794
333.496
333.009
332.554
332.294
332.345
332.521
333.292
334.279
328.641
327.75
326.92
326.636
326.574
326.749
327.045
327.302
327.536
327.666
327.807
327.684
327.466
327.04
326.667
326.474
326.52
326.653
327.275
328.058
322.276
321.614
320.952
320.752
320.691
320.823
321.062
321.262
321.452
321.533
321.636
321.555
321.403
321.06
320.763
320.625
320.692
320.785
321.229
321.847
315.922
315.464
314.959
314.829
314.79
314.902
315.053
315.213
315.333
315.389
315.454
315.401
315.312
315.057
314.862
314.771
314.796
314.858
315.157
315.621
309.562
309.302
308.981
308.905
308.888
308.96
309.045
309.134
309.193
309.25
309.287
309.252
309.221
309.062
308.934
308.903
308.879
308.923
309.084
309.386
303.203
303.129
303.007
302.982
302.985
303.008
303.038
303.065
303.076
303.096
303.114
303.103
303.1
303.043
302.989
302.981
302.98
302.998
303.034
303.137
348.388
346.665
345.374
344.824
344.835
345.138
345.612
346.045
346.666
346.876
347.015
346.842
346.372
345.647
344.99
344.711
344.486
344.824
345.785
347.255
341.951
340.496
339.38
338.94
338.917
339.192
339.585
339.955
340.479
340.669
340.806
340.662
340.238
339.617
339.071
338.843
338.649
338.953
339.766
340.993
335.511
334.323
333.384
333.03
333.01
333.195
333.559
333.867
334.278
334.462
334.565
334.464
334.089
333.58
333.113
332.919
332.763
333.034
333.73
334.711
329.051
328.115
327.372
327.081
327.056
327.195
327.493
327.737
328.088
328.241
328.31
328.266
327.938
327.529
327.112
326.979
326.856
327.07
327.668
328.413
322.572
321.888
321.323
321.111
321.084
321.183
321.414
321.599
321.874
321.994
322.027
322.028
321.766
321.432
321.101
321.029
320.92
321.1
321.554
322.105
316.134
315.656
315.269
315.1
315.061
315.16
315.316
315.447
315.653
315.706
315.728
315.747
315.571
315.336
315.084
315.029
314.977
315.097
315.411
315.808
309.701
309.422
309.19
309.075
309.054
309.11
309.202
309.275
309.415
309.417
309.435
309.454
309.344
309.211
309.063
309.021
309.015
309.07
309.252
309.482
303.256
303.165
303.08
303.05
303.039
303.051
303.077
303.108
303.166
303.143
303.163
303.172
303.122
303.09
303.036
303.023
303.021
303.04
303.1
303.171
349.29
347.645
346.359
345.827
345.793
346.158
346.646
347.196
347.845
348.167
348.247
348.068
347.437
346.762
346.041
345.734
345.46
345.799
346.727
348.165
342.721
341.351
340.243
339.795
339.747
340.053
340.477
340.951
341.5
341.795
341.844
341.72
341.162
340.558
339.954
339.729
339.502
339.802
340.589
341.798
336.147
335.023
334.131
333.713
333.696
333.927
334.296
334.704
335.13
335.397
335.413
335.339
334.834
334.346
333.863
333.681
333.506
333.765
334.433
335.386
329.583
328.682
327.988
327.6
327.614
327.79
328.098
328.416
328.763
328.974
328.995
328.941
328.5
328.132
327.757
327.592
327.472
327.691
328.235
328.968
323.005
322.334
321.817
321.471
321.519
321.634
321.897
322.121
322.39
322.557
322.564
322.54
322.176
321.888
321.618
321.486
321.406
321.582
321.989
322.545
316.433
315.962
315.595
315.331
315.408
315.471
315.673
315.825
316.007
316.126
316.141
316.11
315.866
315.662
315.471
315.373
315.319
315.447
315.733
316.107
309.849
309.59
309.363
309.211
309.259
309.316
309.41
309.523
309.604
309.678
309.706
309.662
309.53
309.412
309.314
309.243
309.223
309.281
309.475
309.662
303.3
303.227
303.141
303.09
303.106
303.125
303.148
303.205
303.229
303.246
303.255
303.226
303.203
303.157
303.128
303.095
303.092
303.107
303.181
303.243
350.4
348.897
347.647
346.999
346.932
347.399
347.889
348.548
349.135
349.461
349.568
349.458
348.824
348.142
347.374
346.97
346.746
347.068
347.975
349.326
343.697
342.445
341.358
340.772
340.732
341.141
341.537
342.11
342.614
342.889
342.997
342.89
342.328
341.772
341.094
340.785
340.601
340.904
341.679
342.772
336.96
335.962
335.019
334.526
334.517
334.854
335.163
335.659
336.083
336.308
336.397
336.31
335.82
335.379
334.799
334.575
334.436
334.688
335.344
336.204
330.235
329.454
328.665
328.281
328.273
328.56
328.78
329.198
329.548
329.739
329.807
329.705
329.303
328.945
328.504
328.33
328.221
328.436
328.97
329.627
323.53
322.933
322.312
322.041
322.01
322.235
322.398
322.739
323
323.147
323.179
323.117
322.798
322.52
322.186
322.051
321.987
322.162
322.588
323.049
316.821
316.387
315.938
315.77
315.74
315.902
316.008
316.254
316.456
316.539
316.569
316.506
316.298
316.099
315.867
315.776
315.729
315.851
316.141
316.476
310.13
309.845
309.556
309.475
309.439
309.557
309.616
309.775
309.874
309.938
309.955
309.899
309.782
309.67
309.541
309.495
309.465
309.517
309.667
309.89
303.405
303.303
303.188
303.177
303.165
303.202
303.223
303.276
303.303
303.332
303.34
303.321
303.279
303.238
303.207
303.18
303.183
303.183
303.236
303.31
351.911
350.368
349.215
348.554
348.403
348.839
349.375
350.112
350.629
351.001
351.129
351.056
350.426
349.752
348.957
348.557
348.195
348.547
349.38
350.711
344.996
343.713
342.708
342.144
342.001
342.367
342.821
343.463
343.907
344.233
344.339
344.273
343.741
343.17
342.486
342.155
341.833
342.143
342.874
343.968
338.077
337.018
336.174
335.707
335.589
335.89
336.274
336.809
337.161
337.442
337.521
337.501
337.033
336.567
335.996
335.737
335.447
335.708
336.341
337.205
331.172
330.341
329.654
329.237
329.147
329.405
329.697
330.142
330.406
330.643
330.698
330.696
330.33
329.946
329.509
329.285
329.033
329.265
329.792
330.436
324.25
323.61
323.102
322.754
322.708
322.915
323.128
323.453
323.668
323.829
323.878
323.887
323.601
323.311
322.983
322.797
322.596
322.796
323.217
323.681
317.329
316.896
316.521
316.242
316.243
316.413
316.526
316.752
316.896
317.027
317.069
317.066
316.897
316.666
316.428
316.301
316.151
316.305
316.617
316.928
310.411
310.151
309.926
309.752
309.765
309.863
309.92
310.047
310.157
310.229
310.259
310.246
310.149
310.024
309.856
309.798
309.708
309.79
309.98
310.156
303.488
303.417
303.32
303.278
303.286
303.311
303.326
303.368
303.407
303.429
303.439
303.434
303.409
303.362
303.303
303.293
303.262
303.28
303.339
303.404
353.649
352.166
350.878
350.296
350.098
350.439
350.956
351.681
352.206
352.586
352.736
352.733
352.181
351.323
350.65
350.095
349.902
350.191
351.146
352.311
346.493
345.261
344.149
343.631
343.452
343.751
344.203
344.82
345.262
345.59
345.709
345.729
345.272
344.541
343.965
343.478
343.31
343.57
344.399
345.354
339.351
338.333
337.412
336.962
336.812
337.046
337.418
337.931
338.315
338.577
338.68
338.689
338.324
337.73
337.253
336.84
336.715
336.945
337.62
338.387
332.208
331.381
330.656
330.258
330.141
330.343
330.615
331.009
331.368
331.577
331.644
331.651
331.391
330.914
330.507
330.192
330.111
330.288
330.821
331.41
325.07
324.432
323.873
323.551
323.443
323.625
323.806
324.094
324.402
324.568
324.608
324.62
324.441
324.078
323.738
323.524
323.466
323.588
324.016
324.431
317.902
317.466
317.082
316.827
316.755
316.879
316.991
317.194
317.443
317.57
317.596
317.599
317.481
317.217
316.967
316.805
316.797
316.866
317.172
317.465
310.759
310.496
310.266
310.102
310.067
310.148
310.201
310.31
310.489
310.557
310.571
310.557
310.479
310.346
310.182
310.096
310.099
310.141
310.325
310.506
303.605
303.533
303.438
303.384
303.373
303.414
303.423
303.461
303.516
303.553
303.538
303.534
303.509
303.471
303.407
303.387
303.389
303.394
303.464
303.523
355.402
353.966
352.817
352.148
351.948
352.166
352.668
353.387
353.845
354.214
354.339
354.402
353.8
353.184
352.42
351.84
351.811
352.132
352.919
354.168
348.024
346.82
345.825
345.238
345.056
345.228
345.693
346.298
346.682
346.979
347.101
347.179
346.643
346.136
345.455
345.007
344.951
345.25
345.946
346.992
340.646
339.642
338.817
338.306
338.18
338.284
338.687
339.193
339.501
339.754
339.875
339.919
339.495
339.092
338.494
338.142
338.054
338.334
338.931
339.81
333.248
332.445
331.793
331.368
331.272
331.328
331.65
332.065
332.321
332.536
332.643
332.659
332.356
332.018
331.522
331.25
331.162
331.387
331.891
332.603
325.861
325.246
324.754
324.419
324.35
324.377
324.605
324.94
325.126
325.324
325.411
325.425
325.187
324.914
324.528
324.344
324.281
324.414
324.84
325.404
318.471
318.045
317.716
317.46
317.403
317.438
317.573
317.821
317.931
318.099
318.155
318.174
317.994
317.808
317.543
317.436
317.376
317.423
317.756
318.152
311.094
310.84
310.641
310.495
310.449
310.48
310.539
310.703
310.76
310.876
310.893
310.91
310.823
310.683
310.54
310.483
310.447
310.471
310.657
310.894
303.723
303.631
303.565
303.517
303.502
303.512
303.531
303.589
303.602
303.648
303.645
303.649
303.639
303.582
303.531
303.51
303.508
303.505
303.574
303.653
357.415
356.015
354.83
354.218
353.997
354.082
354.635
355.165
355.628
355.992
356.19
356.204
355.549
354.958
354.262
353.768
353.774
353.953
354.805
356.079
349.761
348.595
347.552
347.039
346.844
346.91
347.395
347.845
348.217
348.542
348.678
348.728
348.153
347.655
347.067
346.675
346.681
346.822
347.558
348.634
342.118
341.149
340.267
339.834
339.664
339.704
340.128
340.512
340.796
341.083
341.207
341.226
340.739
340.351
339.839
339.52
339.559
339.673
340.305
341.195
334.453
333.702
332.98
332.601
332.488
332.512
332.846
333.165
333.39
333.614
333.717
333.728
333.32
333.018
332.594
332.381
332.42
332.489
333.03
333.734
326.799
326.215
325.7
325.366
325.298
325.309
325.53
325.819
326.001
326.133
326.247
326.253
325.909
325.679
325.367
325.221
325.251
325.298
325.722
326.258
319.138
318.728
318.37
318.129
318.102
318.106
318.246
318.46
318.579
318.676
318.765
318.766
318.505
318.348
318.134
318.036
318.052
318.082
318.387
318.769
311.49
311.251
311.027
310.888
310.9
310.89
310.962
311.092
311.155
311.202
311.282
311.27
311.106
311.014
310.89
310.841
310.855
310.841
311.044
311.282
303.854
303.775
303.697
303.646
303.659
303.653
303.677
303.722
303.735
303.751
303.776
303.794
303.725
303.694
303.647
303.647
303.64
303.631
303.703
303.775
359.419
358.127
356.886
356.339
355.984
356.064
356.303
356.942
357.383
357.766
358.069
357.935
357.33
356.832
356.136
355.825
355.884
356.007
356.67
357.897
351.492
350.428
349.362
348.885
348.585
348.64
348.829
349.379
349.739
350.078
350.338
350.228
349.695
349.263
348.682
348.458
348.502
348.605
349.165
350.205
343.545
342.706
341.828
341.413
341.146
341.191
341.348
341.789
342.099
342.398
342.613
342.509
342.065
341.681
341.215
341.036
341.076
341.173
341.668
342.507
335.611
334.98
334.257
333.916
333.684
333.729
333.847
334.196
334.45
334.738
334.89
334.791
334.442
334.108
333.752
333.601
333.634
333.706
334.128
334.85
327.705
327.225
326.681
326.412
326.229
326.262
326.339
326.581
326.818
327.037
327.139
327.077
326.818
326.564
326.284
326.146
326.169
326.231
326.588
327.151
319.808
319.46
319.064
318.884
318.749
318.783
318.825
318.974
319.168
319.332
319.39
319.351
319.175
319.003
318.795
318.702
318.709
318.747
319.026
319.438
311.896
311.691
311.464
311.35
311.271
311.294
311.303
311.378
311.511
311.625
311.639
311.626
311.496
311.424
311.3
311.247
311.262
311.254
311.414
311.668
303.982
303.926
303.842
303.807
303.775
303.787
303.798
303.811
303.859
303.89
303.897
303.898
303.847
303.828
303.784
303.758
303.782
303.765
303.825
303.916
361.543
360.19
359.066
358.44
358.103
358.109
358.244
358.837
359.214
359.636
359.916
359.729
359.205
358.738
358.116
357.827
357.828
358.116
358.838
359.853
353.333
352.187
351.243
350.694
350.412
350.412
350.504
351.008
351.346
351.705
351.946
351.787
351.313
350.921
350.409
350.174
350.18
350.438
351.023
351.886
345.14
344.171
343.393
342.949
342.696
342.687
342.753
343.158
343.474
343.769
343.98
343.844
343.426
343.097
342.693
342.494
342.477
342.717
343.206
343.936
336.946
336.153
335.528
335.158
334.958
334.963
334.977
335.321
335.57
335.819
336
335.902
335.537
335.266
334.962
334.798
334.788
334.99
335.389
335.98
328.754
328.154
327.656
327.381
327.209
327.221
327.22
327.499
327.654
327.875
328.012
327.927
327.639
327.432
327.234
327.095
327.071
327.247
327.552
328.008
320.555
320.14
319.75
319.581
319.457
319.461
319.475
319.669
319.742
319.898
320.007
319.969
319.76
319.608
319.473
319.375
319.354
319.494
319.697
320.025
312.365
312.107
311.855
311.761
311.691
311.69
311.718
311.806
311.844
311.943
312.012
311.981
311.885
311.805
311.712
311.649
311.639
311.738
311.823
312.035
304.154
304.056
303.969
303.933
303.92
303.927
303.939
303.957
303.971
304.002
304.024
304.016
303.992
303.959
303.925
303.902
303.903
303.942
303.957
304.039
363.745
362.392
361.236
360.559
360.19
360.099
360.212
360.56
361.018
361.355
361.562
361.46
361.06
360.54
360.132
359.799
359.898
360.16
360.909
361.976
355.233
354.105
353.128
352.529
352.195
352.119
352.218
352.501
352.915
353.202
353.364
353.278
352.937
352.484
352.154
351.868
351.972
352.208
352.842
353.736
346.724
345.807
344.982
344.463
344.185
344.117
344.213
344.456
344.776
345.051
345.165
345.109
344.81
344.425
344.166
343.922
344.007
344.243
344.747
345.492
338.227
337.499
336.826
336.384
336.182
336.119
336.211
336.387
336.665
336.894
336.968
336.951
336.671
336.377
336.158
335.967
336.017
336.242
336.63
337.253
329.752
329.16
328.659
328.315
328.163
328.097
328.189
328.331
328.533
328.721
328.769
328.787
328.527
328.329
328.15
328
328.021
328.224
328.499
328.984
321.264
320.833
320.483
320.232
320.161
320.088
320.152
320.261
320.393
320.517
320.579
320.598
320.403
320.249
320.13
320.022
320.013
320.193
320.378
320.709
312.769
312.507
312.307
312.151
312.109
312.075
312.117
312.18
312.256
312.308
312.375
312.373
312.242
312.175
312.086
312.006
312.023
312.137
312.237
312.421
304.29
304.184
304.126
304.079
304.057
304.054
304.056
304.081
304.108
304.129
304.159
304.15
304.101
304.092
304.05
304.031
304.028
304.059
304.105
304.164
365.817
364.58
363.374
362.672
362.13
362.211
362.234
362.534
362.824
363.137
363.128
363.158
362.852
362.434
362.155
361.786
361.881
362.398
363.107
364.123
357.039
355.993
354.962
354.335
353.882
353.955
353.958
354.222
354.493
354.736
354.713
354.727
354.506
354.168
353.923
353.58
353.688
354.139
354.733
355.6
348.274
347.391
346.561
345.973
345.61
345.689
345.698
345.879
346.146
346.323
346.308
346.298
346.164
345.869
345.673
345.386
345.469
345.851
346.342
347.063
339.503
338.788
338.109
337.629
337.335
337.404
337.432
337.534
337.787
337.928
337.934
337.89
337.816
337.569
337.399
337.156
337.263
337.528
337.929
338.527
330.728
330.186
329.652
329.258
329.058
329.095
329.142
329.197
329.398
329.525
329.543
329.508
329.452
329.254
329.128
328.926
329.023
329.199
329.51
329.971
321.958
321.579
321.194
320.903
320.788
320.781
320.835
320.859
320.994
321.111
321.114
321.107
321.068
320.932
320.837
320.671
320.761
320.875
321.086
321.412
313.179
312.958
312.719
312.56
312.488
312.463
312.531
312.518
312.607
312.698
312.708
312.678
312.652
312.586
312.513
312.411
312.49
312.555
312.655
312.861
304.424
304.338
304.258
304.211
304.188
304.183
304.196
304.2
304.231
304.259
304.277
304.248
304.236
304.231
304.177
304.153
304.196
304.214
304.238
304.3
367.908
366.852
365.59
364.839
364.248
364.084
364.066
364.44
364.662
364.926
364.968
364.775
364.656
364.388
363.988
363.698
363.958
364.381
365.258
366.214
358.837
357.978
356.882
356.236
355.709
355.569
355.54
355.868
356.053
356.301
356.323
356.15
356.065
355.841
355.532
355.234
355.46
355.854
356.624
357.402
349.777
349.077
348.159
347.617
347.146
347.045
347.016
347.312
347.446
347.666
347.699
347.506
347.456
347.282
347.016
346.776
346.964
347.314
347.953
348.593
340.745
340.173
339.413
338.984
338.585
338.508
338.488
338.734
338.846
339.026
339.068
338.869
338.837
338.69
338.48
338.28
338.453
338.758
339.258
339.765
331.706
331.265
330.657
330.329
330.024
329.968
329.944
330.151
330.226
330.368
330.418
330.261
330.203
330.103
329.942
329.777
329.92
330.157
330.555
330.949
322.645
322.365
321.9
321.674
321.468
321.414
321.398
321.565
321.598
321.697
321.757
321.632
321.589
321.498
321.41
321.264
321.387
321.559
321.848
322.143
313.597
313.447
313.156
313.031
312.898
312.861
312.84
312.953
312.954
313.029
313.079
312.995
312.976
312.916
312.862
312.761
312.838
312.957
313.137
313.313
304.551
304.51
304.408
304.366
304.32
304.314
304.303
304.334
304.346
304.36
304.383
304.356
304.364
304.327
304.313
304.284
304.311
304.325
304.408
304.463
370.247
369.066
367.963
367.153
366.555
366.194
366.227
366.309
366.478
366.656
366.711
366.524
366.434
366.182
365.881
365.761
365.892
366.488
367.305
368.309
360.892
359.889
358.944
358.23
357.722
357.39
357.398
357.483
357.639
357.774
357.831
357.676
357.612
357.404
357.106
357.022
357.129
357.688
358.366
359.213
351.532
350.679
349.917
349.281
348.866
348.576
348.565
348.67
348.788
348.888
348.937
348.812
348.78
348.633
348.318
348.298
348.359
348.857
349.389
350.149
342.193
341.481
340.87
340.328
340.018
339.77
339.73
339.85
339.942
340.005
340.054
339.954
339.937
339.825
339.531
339.536
339.607
339.995
340.418
341.05
332.815
332.287
331.826
331.368
331.134
330.944
330.9
331.011
331.075
331.109
331.175
331.096
331.051
330.991
330.748
330.776
330.828
331.146
331.454
331.952
323.436
323.072
322.748
322.401
322.255
322.141
322.079
322.176
322.202
322.232
322.287
322.218
322.175
322.152
321.967
322.019
322.051
322.256
322.482
322.848
314.073
313.858
313.672
313.455
313.38
313.313
313.256
313.319
313.329
313.357
313.382
313.35
313.304
313.308
313.202
313.233
313.231
313.366
313.508
313.717
304.722
304.657
304.59
304.507
304.486
304.459
304.446
304.471
304.473
304.476
304.489
304.477
304.45
304.464
304.421
304.425
304.427
304.488
304.517
304.597
372.447
371.269
370.32
369.48
368.71
368.336
368.305
368.159
368.324
368.315
368.377
368.31
368.212
367.928
367.691
367.844
367.949
368.719
369.53
370.432
362.793
361.78
360.976
360.248
359.597
359.246
359.205
359.107
359.22
359.241
359.258
359.237
359.144
358.909
358.704
358.823
358.924
359.602
360.302
361.063
353.099
352.289
351.601
351.007
350.456
350.16
350.124
350.066
350.109
350.154
350.142
350.134
350.048
349.882
349.697
349.793
349.909
350.455
351.046
351.676
343.445
342.812
342.227
341.739
341.323
341.067
341.024
341.002
340.976
341.073
341.006
341.019
340.954
340.84
340.676
340.745
340.861
341.299
341.772
342.296
333.796
333.315
332.854
332.471
332.193
331.952
331.93
331.906
331.875
331.965
331.868
331.914
331.833
331.758
331.632
331.694
331.784
332.139
332.49
332.902
324.157
323.82
323.485
323.236
323.024
322.851
322.815
322.81
322.775
322.859
322.75
322.803
322.752
322.684
322.588
322.662
322.718
322.946
323.214
323.514
314.504
314.303
314.105
313.972
313.848
313.729
313.686
313.719
313.684
313.753
313.651
313.698
313.659
313.624
313.556
313.623
313.632
313.796
313.954
314.143
304.865
304.795
304.728
304.685
304.643
304.599
304.595
304.6
304.591
304.621
304.574
304.594
304.578
304.576
304.547
304.573
304.558
304.624
304.674
304.75
374.634
373.541
372.528
371.58
370.768
370.347
370.145
370.085
369.917
370.183
370.03
370.055
369.95
369.706
369.695
369.809
370.043
370.7
371.676
372.528
364.675
363.774
362.891
362.075
361.36
360.997
360.812
360.77
360.602
360.865
360.697
360.715
360.65
360.444
360.425
360.544
360.733
361.312
362.164
362.861
354.707
353.974
353.241
352.569
351.952
351.65
351.468
351.431
351.286
351.551
351.371
351.377
351.341
351.176
351.138
351.254
351.398
351.89
352.664
353.202
344.756
344.16
343.583
343.013
342.53
342.27
342.111
342.103
341.969
342.217
342.046
342.017
342.027
341.889
341.846
341.97
342.049
342.47
343.141
343.529
334.809
334.376
333.913
333.456
333.102
332.868
332.751
332.792
332.648
332.866
332.697
332.683
332.688
332.624
332.574
332.644
332.718
333.061
333.613
333.854
324.863
324.577
324.246
323.904
323.663
323.481
323.392
323.458
323.328
323.501
323.346
323.368
323.368
323.34
323.286
323.329
323.379
323.64
324.045
324.19
314.949
314.768
314.558
314.349
314.201
314.092
314.029
314.099
314.025
314.109
314.031
314.041
314.051
314.029
313.999
314.023
314.034
314.208
314.455
314.537
305.02
304.949
304.883
304.801
304.757
304.72
304.697
304.722
304.704
304.726
304.704
304.702
304.722
304.694
304.696
304.705
304.709
304.778
304.854
304.873
376.751
375.764
374.674
373.655
372.749
372.333
371.987
371.976
371.732
372.005
371.878
371.779
371.579
371.616
371.657
371.742
372.109
372.732
373.551
374.594
366.486
365.686
364.752
363.841
363.06
362.718
362.414
362.387
362.17
362.407
362.3
362.198
362.035
362.093
362.117
362.188
362.513
363.059
363.763
364.664
356.224
355.587
354.819
354.022
353.376
353.098
352.846
352.803
352.599
352.811
352.717
352.617
352.481
352.546
352.567
352.616
352.919
353.372
353.96
354.723
345.98
345.485
344.863
344.193
343.706
343.483
343.275
343.21
343.077
343.215
343.131
343.043
342.943
343
343.028
343.059
343.313
343.672
344.169
344.79
335.743
335.378
334.895
334.365
334.014
333.839
333.669
333.629
333.53
333.627
333.531
333.451
333.407
333.476
333.488
333.516
333.708
333.974
334.375
334.831
325.534
325.275
324.928
324.555
324.32
324.181
324.07
324.037
323.985
324.039
323.96
323.891
323.855
323.929
323.935
323.947
324.1
324.258
324.574
324.892
315.337
315.183
314.976
314.744
314.622
314.518
314.432
314.434
314.409
314.464
314.384
314.349
314.32
314.382
314.386
314.4
314.479
314.576
314.774
314.931
305.151
305.091
305.023
304.942
304.906
304.863
304.827
304.842
304.843
304.853
304.819
304.818
304.799
304.82
304.831
304.835
304.855
304.892
304.955
305
378.59
377.624
376.436
375.498
374.757
374.15
373.773
373.673
373.424
373.571
373.45
373.256
373.2
373.176
373.411
373.528
374.04
374.555
375.479
376.373
368.067
367.292
366.239
365.421
364.771
364.265
363.918
363.818
363.599
363.737
363.666
363.459
363.404
363.418
363.638
363.707
364.177
364.6
365.413
366.162
357.556
356.963
356.056
355.362
354.784
354.375
354.063
353.982
353.794
353.92
353.867
353.673
353.612
353.662
353.853
353.88
354.311
354.664
355.347
355.965
347.056
346.623
345.867
345.304
344.831
344.493
344.214
344.187
344.032
344.106
344.064
343.896
343.843
343.94
344.05
344.066
344.434
344.739
345.284
345.762
336.622
336.261
335.684
335.251
334.901
334.615
334.387
334.393
334.261
334.314
334.268
334.13
334.094
334.219
334.265
334.255
334.576
334.825
335.227
335.561
326.175
325.884
325.51
325.196
324.961
324.74
324.578
324.594
324.473
324.524
324.477
324.378
324.364
324.457
324.494
324.477
324.697
324.915
325.171
325.403
315.717
315.548
315.333
315.149
314.991
314.858
314.772
314.781
314.701
314.739
314.689
314.621
314.638
314.683
314.715
314.693
314.832
314.971
315.125
315.264
305.271
305.216
305.139
305.081
305.014
304.981
304.95
304.956
304.925
304.941
304.927
304.902
304.915
304.922
304.934
304.919
304.971
305.025
305.07
305.124
380.002
379.055
377.822
376.896
376.246
375.599
375.21
375.085
374.853
374.81
374.876
374.562
374.439
374.527
374.775
374.844
375.341
375.873
376.816
377.754
369.203
368.451
367.378
366.58
366.01
365.451
365.114
365.01
364.801
364.775
364.835
364.538
364.406
364.53
364.734
364.796
365.23
365.687
366.5
367.262
358.485
357.881
356.982
356.283
355.801
355.311
355.063
354.959
354.761
354.762
354.847
354.563
354.412
354.559
354.745
354.767
355.16
355.54
356.23
356.837
347.785
347.324
346.624
346.027
345.602
345.214
345.034
344.931
344.783
344.794
344.861
344.584
344.467
344.606
344.784
344.781
345.092
345.436
345.997
346.461
337.151
336.804
336.268
335.805
335.46
335.133
335.015
334.951
334.821
334.828
334.901
334.652
334.551
334.689
334.841
334.827
335.059
335.321
335.769
336.126
326.559
326.305
325.924
325.598
325.326
325.101
325.039
324.98
324.862
324.868
324.934
324.753
324.665
324.779
324.875
324.875
325.05
325.217
325.56
325.799
315.946
315.814
315.561
315.37
315.202
315.067
315.037
315.014
314.932
314.953
314.981
314.855
314.805
314.872
314.927
314.927
315.06
315.139
315.35
315.489
305.347
305.31
305.213
305.161
305.101
305.053
305.038
305.026
305.001
305.023
305.027
304.976
304.942
304.98
304.996
305.005
305.053
305.076
305.138
305.189
)
;

boundaryField
{
    hotSide
    {
        type            fixedGradient;
        gradient        nonuniform List<scalar> 
400
(
505.268
508.034
514.368
524.188
537.166
552.817
570.623
590.105
610.863
632.577
654.998
677.936
701.243
724.804
748.527
772.337
796.172
819.982
843.736
867.418
480.395
483.35
490.122
500.614
514.427
530.992
549.717
570.075
591.637
614.073
637.131
660.624
684.409
708.38
732.451
756.555
780.635
804.646
828.559
852.367
464.593
468.019
475.227
486.111
500.276
517.163
536.181
556.806
578.603
601.238
624.457
648.068
671.932
695.944
720.024
744.111
768.156
792.122
815.985
839.743
457.331
461.487
469.141
480.187
494.293
510.983
529.739
550.079
571.587
593.933
616.857
640.166
663.718
687.408
711.162
734.924
758.656
782.331
805.935
829.471
456.37
461.388
469.534
480.698
494.616
510.906
529.14
548.898
569.799
591.527
613.827
636.508
659.43
682.493
705.633
728.806
751.984
775.154
798.311
821.464
459.185
465.098
473.802
485.185
499.017
514.986
532.73
551.881
572.095
593.075
614.582
636.436
658.512
680.728
703.038
725.417
747.855
770.352
792.914
815.55
463.756
470.543
479.874
491.622
505.573
521.441
538.898
557.601
577.225
597.488
618.169
639.113
660.226
681.459
702.799
724.25
745.825
767.539
789.408
811.444
468.605
476.209
486.204
498.449
512.726
528.749
546.187
564.687
583.917
603.593
623.511
643.55
663.663
683.857
704.166
724.634
745.301
766.199
787.349
808.764
472.637
480.943
491.574
504.378
519.125
535.512
553.179
571.734
590.8
610.071
629.35
648.56
667.723
686.918
706.24
725.775
745.592
765.735
786.228
807.084
475.025
483.836
494.971
508.273
523.503
540.339
558.378
577.17
596.274
615.337
634.162
652.72
671.113
689.495
708.024
726.824
745.982
765.55
785.551
805.992
475.214
484.24
495.625
509.215
524.766
541.938
560.298
579.35
598.596
617.643
636.283
654.526
672.524
690.489
708.612
727.041
745.873
765.16
784.927
805.177
472.99
481.875
493.178
506.743
522.319
539.558
558.019
577.197
596.588
615.791
634.596
653.001
671.152
689.255
707.501
726.038
744.962
764.333
784.176
804.496
468.556
476.952
487.849
501.089
516.416
533.48
551.846
571.035
590.581
610.111
629.408
648.423
667.24
686.005
704.87
723.963
743.378
763.175
783.388
804.028
462.571
470.193
480.455
493.201
508.168
524.997
543.265
562.518
582.33
602.353
622.359
642.246
662.021
681.755
701.544
721.485
741.658
762.122
782.917
804.064
456.151
462.813
472.335
484.571
499.241
515.965
534.301
553.797
574.04
594.687
615.496
636.326
657.122
677.894
698.689
719.569
740.598
761.829
783.303
805.05
450.927
456.531
465.309
477.122
491.655
508.469
527.073
546.981
567.766
589.08
610.668
632.364
654.08
675.785
697.493
719.239
741.07
763.035
785.173
807.515
449.139
453.685
461.768
473.252
487.763
504.773
523.711
544.045
565.324
587.194
609.396
631.754
654.166
676.581
698.992
721.416
743.89
766.454
789.147
811.997
453.558
457.18
464.625
475.76
490.151
507.192
526.247
546.748
568.235
590.355
612.851
635.55
658.34
681.162
703.995
726.844
749.734
772.701
795.776
818.985
466.661
469.643
476.485
487.068
500.957
517.541
536.187
556.335
577.531
599.432
621.787
644.419
667.212
690.097
713.038
736.03
759.086
782.227
805.48
828.861
489.145
491.807
498.075
507.849
520.772
536.325
553.956
573.16
593.516
614.694
636.447
658.595
681.011
703.613
726.353
749.208
772.173
795.258
818.473
841.825
)
;
    }
    coldSide
    {
        type            mixed;
        refValue        uniform 300;
        refGradient     uniform 0;
        valueFraction   uniform 0.991591;
        source          uniform 0;
        value           nonuniform List<scalar> 
400
(
300.027
300.027
300.027
300.028
300.029
300.029
300.03
300.031
300.032
300.033
300.035
300.036
300.037
300.038
300.04
300.041
300.042
300.043
300.044
300.045
300.026
300.026
300.027
300.027
300.028
300.029
300.03
300.031
300.032
300.033
300.034
300.035
300.036
300.038
300.039
300.04
300.042
300.043
300.044