/*--------------------------------*- C++ -*----------------------------------*\
| =========                 |                                                 |
| \\      /  F ield         | OpenFOAM: The Open Source CFD Toolbox           |
|  \\    /   O peration     | Version:  2212                                  |
|   \\  /    A nd           | Website:  www.openfoam.com                      |
|    \\/     M anipulation  |                                                 |
\*---------------------------------------------------------------------------*/
FoamFile
{
    version     2.0;
    format      ascii;
    arch        "LSB;label=32;scalar=64";
    class       volScalarField;
    location    "0";
    object      relativeErrorField;
}
// * * * * * * * * * * * * * * * * * * * * * * * * * * * * * * * * * * * * * //

dimensions      [0 0 0 1 0 0 0];

internalField   nonuniform List<scalar> 
3200
(
0.00553223
0.00165732
0.00487456
0.00619859
0.00611503
0.0136832
0.0126905
0.00624795
0.00498931
0.00603594
0.0111106
0.0101096
0.00472773
0.0103954
0.0136721
0.00838631
0.00551559
0.0109551
0.00282639
0.00140258
0.00192978
0.00109331
0.00047302
0.00761942
0.00893837
0.011117
0.0042911
0.00918501
0.00720653
0.00383576
0.00455746
0.010326
0.011478
0.0122108
0.00236927
0.00248377
0.0127009
0.0107201
0.00199063
0.00177463
0.000172163
0.00783096
0.00675463
0.0107335
0.0104154
0.00960912
0.00768735
0.00897961
0.00507908
0.00559558
0.00838122
0.00746512
0.0091485
0.0103965
0.0096367
0.00675607
0.00525699
0.00049906
0.00169211
0.00131885
0.00130877
0.00270054
0.0042937
0.00574554
0.00436267
0.00876092
0.00255423
0.0137808
0.00482774
0.00577816
0.00270407
0.0009933
0.0043712
0.007817
0.0031713
0.00796068
0.00913867
0.0019921
0.0012503
9.40503e-05
0.00957414
0.00308074
0.00258717
0.00824807
0.00268735
0.00583867
0.0084839
0.00770983
0.00323326
0.00900574
0.00332776
0.00847815
0.00706842
0.00932347
0.000855062
0.00597201
0.000983831
0.000602305
0.00234378
0.00147794
0.00503002
0.00607933
0.00707925
0.00186217
0.00236754
0.00737605
0.000353968
0.0060361
0.00179145
0.00119169
0.00522174
0.00287817
0.00357476
0.00288168
0.000536365
0.00513566
0.00857443
0.00344584
0.000738224
0.00420539
0.00029782
0.00117129
0.00546011
0.000242271
0.00649881
0.00337309
0.00168871
0.00147879
0.00448313
0.00287455
0.00347953
0.00268526
0.00258289
0.00395972
0.000654197
0.00124562
0.000670007
0.00261748
0.00155339
0.00587224
0.00601755
0.000475797
0.000487541
0.0116143
0.00446924
0.00844317
0.00156145
0.00264488
0.00160055
0.00258662
0.000806239
0.0102063
0.000124582
0.00177444
0.000497845
0.000362729
0.00137514
0.00283626
0.00137996
0.000765089
0.000172418
0.00152812
0.00650289
0.00813375
0.00774589
0.00793904
0.00575094
0.00968418
0.00766525
0.0091757
0.00527187
0.00246742
0.00715733
0.00503421
0.0125936
0.0129836
0.0159732
0.00558323
0.00860961
0.00320174
0.00343097
0.00217774
0.00361133
5.29779e-05
0.0114676
0.000333534
0.0113716
0.000238877
0.00626052
0.000102253
0.00117726
0.00682046
0.000314698
0.00962348
0.00199575
0.000996534
0.00104378
0.00962466
2.02035e-05
0.00142751
0.00127838
0.00193361
0.00300283
0.00762141
0.00904384
0.00385344
0.00633674
0.00300753
0.00122301
0.00359067
0.00581765
0.00145014
0.00517226
0.00699278
0.0109852
0.00344
0.00890301
0.000113823
0.0115839
0.00687188
0.00378577
0.00041766
0.00451275
0.0119137
0.005661
0.00731792
0.00728518
0.00915126
0.00884899
0.0072426
0.00494679
0.000650423
0.000403395
0.00534663
0.00523981
0.00368104
0.00926723
0.00158072
0.0016006
0.00352983
0.00111417
0.000693119
0.00626599
0.00429201
0.00788263
0.00900271
0.00254304
0.00223162
0.00344983
0.00410237
0.00321227
0.0074604
0.00471629
0.00230447
0.0137559
0.00446411
0.00275895
0.00360425
0.00144159
0.000406616
0.00514029
0.00247713
0.00890857
0.00219669
0.00700592
0.00832275
0.0083321
0.00320747
0.00979243
0.000546513
0.00907581
0.00486194
0.00545336
0.00279439
0.00734575
0.00778142
0.00259651
0.000738695
0.00582306
0.00334206
0.000412724
0.00540602
0.00791722
0.00474891
0.00214131
0.000239535
0.00745657
0.00402551
0.00683297
9.19805e-05
0.000567652
0.00115463
0.00378861
0.00232936
0.00378257
0.00227651
0.00632888
0.000147949
0.00751787
0.00223487
0.00379016
0.00569274
0.001142
0.00569315
0.00456383
0.00193078
0.00340931
0.00148405
0.00179637
0.00532942
0.00521193
0.00292948
0.00238305
0.00193565
0.0003673
0.00332952
0.000701597
0.000830496
0.000397916
0.00220672
0.00365125
0.00620447
0.00594064
0.00290498
0.00901193
0.00755501
0.00994852
0.00844355
0.00212438
0.00553558
0.0027672
0.00269899
0.00931143
0.000820657
0.00781514
0.0118576
0.00730571
0.00563188
2.10383e-05
0.00283014
0.00584516
0.00603969
0.0099319
0.00549137
0.0115405
0.0121555
0.0134346
0.00965585
0.00181878
0.00350908
0.0122387
0.00218248
0.00753836
0.000697988
0.00845819
0.0159129
0.00376154
0.00466451
0.0063578
0.00369571
0.00472489
0.00234071
0.00509399
0.0122407
0.00733054
0.00120299
0.00850708
0.00633181
0.000903742
0.00640923
0.00327076
0.0058466
0.00507093
0.00531583
0.000220199
0.00419839
0.00294683
0.00104598
0.00624083
0.00669072
0.000126868
0.00856079
0.000762053
0.0039059
0.000635131
0.00318262
0.00672735
0.00261124
0.00666709
0.00394315
0.000368494
0.00800815
0.00276023
0.0102302
0.0068564
0.00286114
0.0050282
0.00351835
0.00539844
0.0010642
0.00026399
0.00235542
0.00252084
0.00262619
0.00247123
0.00247939
0.00731729
0.00151881
0.000957164
0.00470088
0.00932055
0.00382335
0.000506966
0.00458811
0.00490425
0.00245677
0.00246574
0.00030297
0.00696849
0.0006449
0.00292084
2.54079e-05
0.00590782
0.00519951
0.00479028
0.000902461
0.000424325
0.00320548
0.0010364
0.000760053
0.00257695
0.00124713
0.00813663
0.000575412
0.00607515
0.0020143
5.96658e-05
0.00496596
0.00659207
0.0015763
0.000425119
0.00684764
0.00590869
0.00510791
0.000269817
0.00340584
0.00288468
0.00260962
0.000793588
0.00344898
0.00637781
0.00362399
0.000583361
0.00567235
0.00780807
0.00824035
0.000669923
0.000756801
0.0021589
0.00057417
0.00015592
0.00291444
0.00330777
0.00519753
0.00024805
0.0037944
0.00536514
0.00415826
0.00194902
0.00203024
0.00143372
0.00160654
0.00161778
0.00132427
0.0047887
7.64588e-05
0.00484076
0.00135107
0.00531521
0.00188626
0.00406586
0.00303031
0.00671824
0.00399155
0.0175201
0.00652899
0.00961516
0.00662317
0.00414437
0.00530613
0.00666007
0.00365764
0.00484997
0.00931032
0.00791956
0.00720922
0.00497463
0.00241253
0.0029194
0.00239924
0.000463466
0.000314411
0.00540699
0.000694282
0.0105598
0.000459986
0.00997041
0.000518508
0.00041032
0.00150346
0.000411667
0.00611068
0.000157011
0.0113764
0.00137031
0.00633025
1.54994e-05
0.00421195
5.9121e-05
0.00341526
0.00130672
0.00744416
0.00571908
0.00955964
0.00494746
0.00550583
0.00201413
0.00247075
0.00230644
0.000391418
0.00073264
0.00412884
0.00316377
0.0121853
0.00782486
0.00384705
0.00960942
0.00026602
0.00343785
0.00208626
0.00425279
0.0052437
0.00392976
0.0020635
0.00468288
0.00232093
6.29713e-05
0.00387018
0.00534173
0.000275113
0.000405319
0.00365126
0.00206028
0.00425183
0.00380736
0.00207468
0.00748735
0.00207711
0.00084235
0.00470711
0.000101849
0.00428867
0.00424421
0.00882896
0.00485558
0.00280013
0.0042058
0.002759
0.000159826
0.00451385
0.00149342
0.000229322
0.00395412
0.008273
0.00254639
0.000217594
0.00275057
0.000382655
0.00515756
0.000643359
0.0062541
0.00205771
0.0014433
0.00585501
0.0051022
0.001266
0.00162772
0.00233369
0.00818143
0.00338411
0.00277886
0.0015253
0.0042809
0.00711867
0.000958955
0.0057707
0.00518065
0.00142348
0.00480106
0.00389516
0.00160922
0.00885038
0.00511922
0.00399983
0.00172357
0.00536543
0.00229812
0.0062137
0.00278813
0.00446117
0.00337791
0.00436598
0.00730729
0.00381993
0.000488281
0.00238535
0.00261909
0.00112282
0.00476644
0.00611816
0.00606979
0.00337955
8.00914e-05
0.00330136
0.000769457
0.00033359
0.00442334
0.00580742
0.00172501
0.000697043
0.00612614
0.00392683
0.0104854
0.0012937
0.00173621
0.000241282
0.000613301
0.00349168
0.00693352
0.00103245
0.00406265
0.00250608
0.00547814
0.00187263
0.0118934
0.00982894
0.00648033
0.00204968
0.00421411
0.00378271
0.000766781
0.00350231
0.0016376
0.000166574
0.00116001
0.00215813
0.0153914
0.00437445
0.00184751
0.00169976
0.0017388
0.00181425
0.00272713
0.00203416
0.00208252
0.00875572
0.000397902
0.000897407
0.00860694
0.000220143
0.00328531
0.00976797
0.00224191
0.00539924
0.00282699
0.00274179
0.0102319
0.00389283
0.000615286
0.00611527
7.13182e-05
0.00467685
0.00144133
0.00370466
0.00592642
0.00126603
0.00192361
0.0118224
0.00549605
0.00104277
0.00180824
0.00269211
0.00156005
0.00310499
0.00310353
0.0020752
0.00367822
0.00123598
0.00316485
0.00940024
0.00121647
0.00120624
0.00132148
0.000246159
0.00354553
0.0110688
0.000433746
0.00472497
0.00691745
0.000460206
0.00250839
0.00231171
0.00104878
0.00526246
0.0011322
0.000723412
0.00251535
0.0017164
0.000644876
0.00154902
0.000122627
0.00774581
0.00571836
0.00204321
0.00210643
0.00309611
0.00617865
0.000724327
0.000524909
0.000622991
0.00351004
0.000606574
0.00706107
0.000824856
0.0054702
0.000684446
0.000384342
0.000965691
0.00215992
0.00390945
0.00827053
0.000429124
0.00849304
0.00363723
0.00488465
0.00457604
0.00326108
0.0027184
0.00181154
0.00197443
0.000369229
0.000193926
0.00395335
0.00383249
0.000306755
0.00508305
0.00314478
0.00440039
0.0112208
0.00613814
0.00503274
0.00577334
0.00648178
0.0048455
0.00715358
0.00242103
0.00319024
0.00643733
0.00518983
0.000684657
0.0103724
0.000819815
0.00709927
0.000803661
0.00514199
0.00124752
0.000923501
0.00322584
0.00660482
0.00442126
0.00593884
0.00109448
0.00152183
0.00315595
0.00197233
0.00223285
0.000622779
0.0043774
0.000499093
0.00726939
0.00213452
0.00406133
9.18489e-05
0.00325475
0.00169139
0.000987278
0.00523157
0.00107253
0.00142611
0.00132367
0.00796903
0.00456152
0.00286912
0.0013475
0.0042271
0.000249838
0.00171439
0.00195904
0.00170599
0.0041777
0.00496268
0.000759023
0.0043483
0.000339711
0.00534408
0.000167505
0.0036915
0.000520077
0.000451519
0.00567866
0.0147912
0.00128749
0.00400879
0.00153264
0.00445508
0.000684024
0.00210119
0.000318735
0.00233
7.38096e-05
0.000921157
0.00242925
0.000279645
0.00202497
0.00132583
0.00353794
0.000660707
0.00169997
0.000969137
0.0061299
0.00418559
0.000290425
9.15827e-05
0.000795356
0.000738694
0.00575252
0.00450821
0.00296202
0.00422876
0.0087052
0.000971134
0.000597102
0.0024906
0.000283174
0.00108471
2.47629e-05
0.000962084
0.00454874
0.000800145
0.00133349
0.0093024
0.00102359
0.00211392
0.00472968
0.00601242
0.00187592
0.00258846
0.00182422
0.00217868
0.00175363
0.00809713
0.00529678
0.00040119
0.00571675
0.000401185
0.00432317
0.0003745
0.0024146
0.00708328
0.00151278
0.0106831
0.00200105
0.00406547
0.00447857
0.00778074
0.003255
0.000961677
0.001815
0.000219643
0.000978591
0.00567191
0.00293793
0.00150237
0.0041049
0.00366579
0.00182974
0.00214172
0.00145175
0.00213601
0.000486878
0.00183591
0.00619507
0.00108838
0.001432
0.00286242
0.00520554
0.00322656
0.00359968
0.00725198
0.000392715
0.000271028
0.00176339
0.000821504
0.00152413
0.00177301
0.000881232
0.000803945
0.000825557
0.00370748
0.00133892
0.00201226
0.000264936
0.00146747
0.00355897
0.00100942
0.000971054
0.00357483
0.00436921
0.00397769
0.00397172
0.00341576
0.00384318
0.00088355
0.00770601
0.00506012
0.00015664
0.00150166
0.000707877
0.00208482
0.00129228
0.00112794
0.00275895
0.00216087
0.00245049
0.000172498
0.00316825
0.00298167
0.00395082
0.00477235
0.00308469
0.000485891
0.00537556
0.00129785
0.00124895
0.00024923
0.00491809
0.00706113
0.00401612
0.00225602
0.00250845
0.0110157
0.00299471
0.00400379
0.00593864
0.00304307
0.000253783
0.00164434
0.000806641
0.00201545
0.00524373
0.00378707
0.00412149
0.000649548
0.00226086
0.00165835
0.00323302
0.00153873
0.000374154
0.000794265
0.00426794
0.00391475
0.00332126
0.000860184
0.00594794
0.00552263
0.0015822
0.00425896
0.00264112
0.00101859
0.00870009
0.00199468
0.00709446
0.000807082
0.00339528
0.00346415
0.00487906
0.00159224
0.00594213
0.00291955
0.00774629
0.00862485
0.00461549
0.00201875
0.00310391
0.00446083
0.00651707
0.00412691
0.00151422
0.00250708
0.00330786
0.00303299
0.00643692
0.00509752
0.00504567
0.000980244
0.000454603
0.00181577
0.00159263
0.0104575
0.00733052
0.0040224
0.00502848
0.00336151
0.00543353
0.000300198
0.000553494
0.00083338
0.00387257
0.00890457
0.0051756
0.000236209
0.00454972
0.00164957
0.000302483
0.00391074
0.00362732
0.00215632
0.000590293
0.00104383
0.00214557
0.000414134
0.00305344
0.000464084
0.0011307
0.00564764
0.00382795
0.00219119
0.00420409
0.00421978
0.00271461
0.00467771
0.000920014
0.00901067
0.00248747
0.00141254
0.00372076
0.00225803
0.00300882
0.000330573
0.00532819
0.00865376
0.0122502
0.00270527
0.00419134
0.00362845
0.00434136
0.00836362
0.00427227
0.00186454
0.00142464
0.00340814
0.00571033
0.00252392
0.00233451
0.00231643
0.00015041
0.00681607
0.000823644
0.00335842
0.000324217
0.00576476
0.00525675
0.000793233
0.0025929
0.00421678
0.00252054
0.000742969
0.00355671
0.00371796
0.00467679
0.00309417
0.00140407
0.00888515
0.00813631
0.00669266
0.00515369
0.000326957
0.00144069
0.00227458
0.00145997
0.00530867
0.00373479
0.00566719
0.00798663
0.00676208
0.00412576
0.0041688
0.000155315
0.00234896
0.00421001
0.00308084
0.00574029
0.00143126
0.00110551
0.00486493
0.00464874
0.00619935
0.00119598
0.000277643
0.00389196
0.00426956
0.00161365
0.00142264
0.000462073
0.00365587
0.0060917
0.000340209
0.00323945
0.00644382
0.00483589
0.00308693
0.00686053
0.00231026
0.0105083
0.00466824
0.00547381
0.00129414
0.00427828
0.000334115
0.0134845
0.00693615
0.000945068
0.00388306
9.70971e-05
0.000649823
0.000227792
0.00233916
6.2752e-05
0.00534539
0.00123664
0.00243692
0.000852645
0.00125776
0.00388957
0.000618261
0.00118323
0.00161557
0.00307784
0.000253008
0.0112941
0.000384402
0.00198446
0.000732585
0.00378098
0.00209083
0.00413262
0.00697764
0.00531639
0.00745535
0.00310672
0.00165376
0.000739009
0.00444783
0.000559929
0.000113598
0.00123289
0.00371466
0.000194936
0.00403629
0.00695957
0.0104872
0.00408373
0.00126131
0.000622984
0.00202368
0.00633765
0.00160977
0.00284658
0.00938656
0.0035114
0.00388814
0.0016574
0.00280909
0.00233562
0.00507937
0.00836039
0.00696472
0.00418167
0.0033696
0.00767692
0.000643328
0.00191893
0.00335744
0.000730802
0.0046741
0.00800675
0.00472683
0.00145057
0.0028731
0.00360173
0.00244126
0.000504843
0.00425338
0.00491174
0.00154159
0.00628486
0.00327213
0.00300373
0.00887385
0.00744494
0.00650859
0.000971283
0.00293248
0.00656406
0.00746393
0.00210772
0.00113248
0.0032596
0.00691336
0.0112067
0.00841035
0.000385132
0.00490518
0.00480874
0.00343961
0.000334576
0.0103215
0.00152632
0.000658424
0.00530889
0.00576532
0.00442857
0.00291241
0.00463192
0.00348159
0.00499603
0.00103361
0.00066739
0.00209727
0.00202609
0.00411682
0.00170327
0.000584824
0.00530036
0.00138938
0.0012208
0.00508201
0.000291828
0.00321827
0.00212707
0.00565763
0.00760424
0.00400349
0.00283164
0.0123564
0.00363754
0.00590555
0.0062115
0.00468101
0.00628914
0.00315921
0.0049501
0.00351922
0.00395762
0.00358141
0.00714661
0.00131705
0.00287832
0.00326995
0.00536662
0.0107366
0.00248519
0.0019405
0.00333938
0.000333863
0.00082557
0.00428221
0.00405998
0.00459496
0.00954597
0.00790974
0.00723897
0.00554977
0.0047091
9.07422e-06
0.0071646
0.000142221
0.00354694
0.00701386
0.00651403
0.0069168
0.00776762
0.00333343
0.00601732
0.00321668
0.00222542
0.00662566
0.00475009
0.00933709
0.00565697
0.00993979
0.00143858
0.0093573
7.20599e-05
0.00744798
0.00286115
0.000111859
0.00277683
0.00747964
0.0122522
0.00906802
0.00934995
0.00599034
0.00568974
0.00374191
0.00577587
0.000108101
0.000318391
0.0032865
0.00990695
0.000626427
0.00239879
0.00545127
0.00255892
0.0074652
0.00489703
0.00375378
0.00357868
0.00514009
0.00340438
0.0112968
0.00145784
0.00104568
0.000831538
0.001558
0.00478698
0.00151022
0.00493785
0.00803364
0.00760753
0.00411106
0.0117872
0.00447934
0.00669124
0.0070576
0.00354737
0.0015507
0.00178941
0.0035182
0.00962171
0.00605302
0.00406258
0.00269807
0.00266052
0.000597627
0.000991812
0.00280384
0.00310656
0.000557918
0.00188014
0.00172945
0.00900937
0.00161129
0.00437307
0.00114998
0.00628713
0.00558215
0.0027871
0.00737747
0.00763434
0.00153255
0.00300814
0.00285469
0.00499188
0.00595435
0.000307002
0.000966167
0.00370756
0.00614818
0.00793065
0.00451097
0.00117421
0.00113015
0.00466672
0.00548287
0.000153888
0.000507117
0.00621738
0.0061768
0.00113611
0.00145121
0.00132509
0.000260169
0.00104401
0.00610672
0.00185737
0.000834661
0.00460515
0.00311465
0.00522887
0.00402447
0.00393255
0.00725216
0.00334605
6.32982e-06
0.00173979
0.00447872
0.00588414
0.000228696
0.00605239
0.00447183
0.00611227
0.000761342
0.000457426
0.00240449
0.0027287
0.00250243
0.000747445
0.00284458
0.00332141
0.00243097
0.000835205
0.00171848
0.00102308
0.00276976
0.000925884
0.00193528
0.00140111
0.00343331
0.00271581
0.0164044
0.00311235
0.00614746
0.00320428
0.00464075
0.000219868
0.00322582
0.00836427
0.00331682
0.0114456
0.00318657
0.00369425
0.00540896
0.0101192
0.000399384
0.00532931
0.00238068
0.00238337
0.00336542
0.0069721
0.012042
0.00033211
0.00740996
0.00122787
0.00402745
0.000936228
0.00252177
0.0010303
0.00355437
0.0012501
0.00104064
0.00425791
0.00232554
0.00578794
0.00160698
0.00395989
0.000309567
0.00565482
0.000353158
0.00744355
0.0118126
0.0096739
0.0077755
0.00362513
0.00514882
0.00134722
0.00114623
0.00812934
0.00436958
0.0137788
0.00244684
0.0045456
0.00343738
0.00255301
0.00165536
0.00327875
0.00263425
0.00640189
0.00186324
0.00594226
0.00592464
0.0026793
0.000764732
0.00127572
0.00411514
0.00150264
0.00320097
0.0027893
3.00191e-05
0.0023482
0.00701043
0.00635168
0.0101948
0.00154251
0.00686553
0.00262789
0.00752321
0.0134104
0.000628523
0.00831149
0.0101907
0.00207499
0.00250724
0.00165175
0.0018638
0.00365118
0.00193046
0.0020897
0.00715078
0.000152912
0.00248749
0.00219272
0.00968335
0.00253614
0.00857688
0.00372737
0.00924365
0.00418429
0.00350059
0.0073185
0.00424407
0.00129684
0.00217609
0.00238631
0.00986433
0.0132592
0.00237779
0.00557195
0.00463418
0.00712575
0.00144263
0.000967174
0.00048965
0.00367777
0.0008312
0.00880078
5.48951e-05
0.00241341
0.00210745
0.00222337
0.00744819
0.00473656
0.0035989
0.00275489
0.00525391
0.00592962
0.00266439
0.00648894
0.000187297
0.000440574
0.00842541
0.00437552
0.00691748
0.00544014
0.00411382
0.00638496
0.00212695
0.00299979
0.00228266
0.00456511
0.000520255
0.00378583
0.00330833
0.00431315
0.0019809
0.00350766
0.00413062
0.00165999
0.000712684
0.0016221
0.00029011
0.000150708
0.000469105
0.00166973
0.000700699
0.00351861
0.00478602
0.00184852
0.000859391
0.000173265
0.012979
0.0102438
0.00782294
0.00413298
0.000918937
0.00132922
0.0031885
0.00349509
0.00641457
0.000392088
0.00260314
0.00761816
0.00174312
0.00212257
0.0043323
0.00254475
0.00356023
0.00704292
0.00744828
0.0126085
0.0105064
0.000947109
0.0056666
3.47459e-05
0.002274
0.000220176
0.000355563
0.00175807
0.0114194
0.00196627
0.000895769
0.00446055
0.000334941
0.00133623
0.000234889
0.0110049
0.00142381
0.00536628
6.57591e-05
0.00729099
0.00443567
0.00239265
0.00361125
0.00674193
0.000200093
0.00157706
0.00537234
0.00413122
0.0093281
0.0131597
0.00234442
0.00196365
0.00242916
0.00507614
0.000844368
0.00493512
0.00158079
0.0080643
0.00862234
0.0011701
0.0100125
0.00589084
0.00193978
0.000759167
0.000800122
0.000689307
0.00326014
0.00451566
0.00512887
0.00378616
0.000174899
0.00920305
0.00453707
0.00417325
0.00245191
0.000207587
0.00273437
0.00256481
0.00243201
0.00165282
0.00840702
0.00570195
0.00012048
0.00557577
0.00283209
0.00223516
0.00544745
0.00444336
0.0035233
0.0113868
0.00695346
0.000587109
0.00120403
0.0126145
0.00540019
0.000736556
0.000619831
0.00443865
0.000152342
0.0117248
0.00891731
0.00958289
0.00222537
0.0040747
0.00335029
0.00126215
0.00145252
0.00320884
0.0022336
0.00179817
0.00630374
0.00539137
0.00676022
0.0022423
0.00421484
0.00569645
0.00567772
0.00046012
0.00150607
0.00752338
0.00638193
0.00880223
0.00421434
0.00207951
0.00137311
0.00436209
0.0052734
0.000197707
0.00157228
0.00231167
8.18089e-05
0.00737354
0.000524636
0.00298197
0.00650282
0.00291364
0.000152392
0.00128747
0.000841632
0.00564901
0.00607061
0.00447959
0.00197178
0.00458311
0.000991064
0.00880214
0.00435544
0.00527623
0.00072825
0.00861125
0.00112231
0.000764347
0.00389578
0.00189222
0.00390086
0.00505715
0.00384565
0.00247742
0.000538119
0.00579476
0.00958963
0.0132745
0.00265518
0.00252507
0.00233654
0.00209537
0.00393207
0.000717534
0.00491771
0.0015157
0.00571633
0.00628519
0.00172038
0.00504635
0.0058438
0.00373598
0.00368726
0.0045334
0.00886546
0.0061875
0.0123687
0.00646503
0.00393439
0.0102888
0.000376963
0.00509515
0.00376838
0.00159646
0.00173
0.010395
0.00722257
0.0102659
0.00831639
0.00323936
0.00460035
0.000221984
0.0020179
0.00742834
0.0155463
0.0148745
0.00577169
0.00223469
0.00570982
0.00551263
0.00310516
0.00403644
0.00348773
0.00546904
0.00505285
0.00297358
0.000686945
0.0111125
0.00629713
0.00225778
0.000245933
0.00538194
0.0029233
0.00933569
0.008614
0.00540894
0.0102045
0.0121603
0.00576976
0.00577993
0.00568568
0.00884443
0.0039102
0.00960882
0.00660864
0.00372499
0.0074928
0.00321859
6.76774e-05
0.00622762
0.00998906
0.00154806
0.00179665
0.00721254
0.00781542
0.0060126
0.00588336
0.00954765
0.00140058
0.00111182
7.14744e-05
0.00660617
0.00400306
0.00706285
0.000815938
0.000470508
0.00161028
0.00353534
0.00343169
0.0061346
0.00566868
0.00145697
0.00281614
0.00438185
0.00542968
0.00189189
0.00344995
0.00875461
0.00136557
0.00281524
0.000995299
0.00646992
1.19697e-05
0.00824025
0.00512577
0.00417347
0.00750192
0.00147048
0.00580421
0.0101464
0.00493259
0.00352544
0.00174847
0.00426542
0.00368213
0.00590685
0.0104618
0.00347743
0.00377285
0.00266482
5.12036e-05
0.00115669
0.00517113
0.000554565
0.0111429
8.41864e-06
0.00112887
0.00385986
0.00119963
0.00105755
0.000197781
0.00048122
0.00332578
0.00265355
0.00475085
0.00603309
0.00931418
0.00468141
0.0014175
0.00283645
0.00272376
0.000260534
0.00165025
0.00388716
0.000862241
0.00630117
0.00130988
0.00079476
0.000611441
0.000841025
0.00841244
0.00345857
0.000316218
0.00422083
0.0027841
0.000725607
0.0137191
0.00368075
0.00677843
0.00192408
0.000793109
0.00151106
0.00250135
0.00800209
0.00393751
0.0027532
0.00659448
0.0083446
0.00709321
0.00662176
0.00532213
0.00751684
0.00224022
0.0102377
0.0101562
0.00396082
0.0122869
0.000141576
0.00427261
0.000394494
0.000676347
0.0015408
0.00648649
4.39863e-05
0.00418904
0.00243306
0.000843868
0.0064832
0.00254204
0.00398797
0.000169698
0.0116252
0.000491193
0.00878444
0.000976794
0.00720696
0.00980904
0.00679125
0.00563663
0.00595901
0.00137858
0.012831
0.00750217
0.00372983
0.00167689
0.00676648
0.00314638
0.000417068
0.00232493
0.00332137
0.00678645
0.00089787
0.00381191
0.00545622
0.00499877
0.00555091
0.00707761
0.00472666
0.00638315
0.00650196
0.00290263
0.00564601
0.00664252
0.00168401
0.00282333
0.00597818
0.00468151
0.0059828
0.00839248
0.00155469
0.00863378
0.00156852
0.00917172
0.00231266
0.006436
0.0073351
0.0107667
0.00188048
0.00258692
0.00648018
0.00606746
0.00646388
0.00810576
0.00222693
0.00899937
0.0039111
0.00968935
0.00586831
0.00486159
0.00153039
0.00502358
0.0045141
0.00684261
0.00164886
0.00160201
0.0149656
0.0132409
0.00220618
0.00422634
0.00183719
0.000656503
0.0013612
0.00271668
0.00474144
0.000823639
0.0064894
0.00688942
0.000502773
0.00206704
0.00386005
0.00256298
0.00328
0.00302818
0.00458512
0.00230964
7.05977e-05
0.000420158
0.00313133
0.00251765
0.00318112
0.00216271
0.00680483
0.00285864
0.000662607
0.00144645
0.00636739
0.00263264
0.0010959
0.00121258
0.00404628
0.00191376
0.00109581
0.00266005
0.00349496
0.0028648
0.00556952
0.00343074
0.00219813
0.0065845
0.00277622
0.00182745
0.00077478
0.00357793
7.45446e-05
0.0010465
0.0051768
0.00176322
0.00644686
0.00531102
0.00300926
0.000207324
0.000897449
0.00661179
0.00194831
0.00791192
0.00333209
0.0131109
0.00525772
0.00318408
0.00213058
0.0039868
0.00314722
0.000314636
3.02618e-06
0.00625331
0.00985054
0.00753379
0.00337749
0.00349467
0.00130404
0.00548189
0.00236984
0.00440787
0.00443439
0.000856822
0.00394573
0.0128358
0.00885617
0.00233408
1.90604e-06
0.00402901
0.000808269
0.00479307
0.00334256
0.00504074
0.00471886
0.00246858
4.96419e-06
0.00776813
0.00641071
0.00121285
0.00439761
0.00154032
0.00196816
0.000251226
0.00889273
0.0152984
0.00958786
0.000731591
0.0041999
0.00271731
0.00258745
0.00140963
0.00226588
0.000837955
0.00286597
0.000522992
0.000965632
0.0084345
0.00100289
0.00167529
0.00172971
0.00152197
0.00487024
0.00449148
0.00755693
0.00924501
0.0062924
0.00265439
0.00715052
0.00183138
0.000505548
0.00618638
0.00462294
0.00780567
0.00969315
0.00104969
0.00264416
0.00365749
0.00239135
0.0048671
0.00589301
0.00300598
1.12853e-05
0.00292357
0.00799254
0.00686882
0.00826955
0.0102094
0.000218881
0.00523572
0.000541812
0.00199971
0.0034724
0.0047628
0.000258623
0.00418829
0.000191043
0.00279307
0.00537579
0.00176905
0.000864885
0.00609603
0.00199175
0.00936153
0.00712717
0.0123248
0.000754045
0.00264345
0.00189388
0.000317913
0.00569285
0.00519702
0.00316568
0.00107311
0.00464019
0.00287708
0.00554777
0.00138177
0.0019932
0.00155565
0.00124288
0.000915382
0.00529861
0.0109891
0.000466887
0.00107746
0.000366928
0.00688045
0.000727924
0.00441617
0.00418669
0.000592487
0.0050994
0.00113536
0.000288581
0.00218305
8.63594e-05
0.00427053
0.00211436
0.000363854
0.0026906
0.00089004
0.00193917
0.0029967
0.00300716
0.000646672
0.00100718
0.00634896
0.00196093
0.00283359
0.00220284
0.000206707
0.0030891
0.00336301
0.00183368
0.00115065
0.000564279
0.00185447
0.00419728
0.000537351
0.000810222
0.000314334
0.00292811
0.00216717
0.00483146
0.0112266
0.00177945
0.00412654
0.000780777
0.00182007
0.000150535
0.00121624
2.81811e-05
3.15441e-05
0.00591157
0.000876128
0.00120071
0.00197377
0.00300883
0.00399343
0.000989765
0.00103266
0.00649574
0.00387463
0.00902421
0.011922
0.000705171
0.00426546
0.000119905
0.000221506
0.00207207
0.00553321
0.00130124
0.00585333
0.00198408
0.000902846
0.0022905
0.000189147
0.00519874
0.00140554
0.000942442
0.00238389
0.00204198
0.000223368
0.00403466
0.00742163
0.00645312
0.00405934
0.0020418
0.000907856
0.00333408
2.68213e-06
0.00165217
0.0059695
0.00332485
0.00288033
0.00560848
0.00647417
0.000600429
0.000762618
0.00199098
0.000446865
0.00284062
0.00115848
0.00563037
0.0109663
0.0095025
0.00172153
0.0107693
0.00424637
0.00552056
0.00142102
0.00127998
0.00370748
0.0015008
0.000483501
1.80548e-05
0.00173963
0.000662196
0.00496692
0.0025189
0.0082449
0.00759723
0.00157975
0.00191471
0.00853166
0.00509336
3.15686e-05
0.00433086
0.000448318
0.00237623
0.00500205
0.00201787
0.0052348
0.00121748
0.00194162
0.00657507
0.00419381
0.00186316
0.00497774
5.59918e-05
0.00155864
0.00256308
0.00821625
0.00783727
3.10471e-05
0.00198104
0.00408043
0.00089074
0.00169185
0.00475494
0.00925585
0.00281114
0.00230098
0.000945896
0.000559957
0.00627605
0.000869282
0.00336154
0.00192184
0.00238438
0.00249361
0.00222694
0.000820254
0.00017926
0.00544248
0.00464062
0.000444886
0.00588412
0.00202854
0.00580147
0.00754204
0.00429676
0.000627856
0.000374291
0.00612642
0.00065321
0.00622297
0.00474373
0.00112282
0.00278155
0.00154599
0.00611487
0.000695891
0.00209334
0.00669364
0.00402849
0.00253543
0.00119917
0.00400503
0.000477808
0.00433849
0.00348938
6.87253e-05
0.000927976
0.00258014
0.000706741
0.000677266
0.00116757
0.000697978
0.00170956
0.00913056
0.00135421
0.00554521
0.00659664
0.00842043
0.00796153
0.0068866
0.000648835
0.00172755
0.00683205
0.000803009
0.00624707
0.000680762
0.00424064
6.71579e-05
0.00777278
0.00253775
0.00317324
0.00418429
0.00154347
0.00203141
0.000488624
0.00532612
0.00942514
0.00979362
0.00490519
0.0019559
0.00216823
0.000952492
0.00330482
0.000259861
0.00455054
0.00773879
0.000898864
0.00126762
0.0013783
0.00307177
0.00513592
0.00111865
0.00835856
8.40092e-05
0.000381639
0.000515561
0.00243437
0.00517242
0.000620951
0.00471451
0.000679353
0.00272843
0.00574475
0.00239997
0.00237813
0.00129132
0.0017559
0.0020841
0.00626894
0.000981252
0.00263619
0.00470964
0.00266298
0.00339933
0.00187041
0.000524517
0.00326433
0.00859832
0.00196097
0.00460109
0.00309101
0.00183734
0.00306849
0.000622203
0.0045704
0.0048573
0.00331395
0.000555797
0.00265965
0.00542828
0.00304325
0.00501599
0.00364303
0.000609861
0.00270421
0.001323
0.00660917
0.0095382
0.00472696
0.00369496
0.00634537
0.00304747
0.00614362
0.00246724
0.000165812
0.00241837
0.000854497
0.000590917
0.00156828
0.00488165
0.00102111
0.000590916
0.00565483
0.0039003
0.00509062
0.000430689
0.00743532
0.00222443
0.00496686
0.00349199
0.00237989
0.000852154
0.00668949
0.00106509
0.000840226
0.00126183
0.00607856
0.00197659
0.00225763
0.000684618
0.00289983
0.00287316
0.00201757
0.0012686
0.00153056
0.00434522
0.00534526
0.000645206
4.18621e-05
0.000520831
0.00467248
6.1958e-06
0.00132155
0.00259774
0.00091747
0.00200075
0.00027998
0.0023084
0.00266021
0.00266653
0.0026426
0.00553343
0.000828879
0.00369983
0.00485498
0.00173218
0.00598086
0.00190134
0.00245295
0.00023562
0.00294291
0.00193267
0.000381033
0.000589948
0.00227821
0.00580558
0.00101772
0.0062403
0.00352488
0.000456313
0.00197126
0.00802058
0.000702099
0.00444695
0.00711752
0.00960943
0.00144344
0.0101959
0.000364215
0.0010296
0.00392669
0.00705205
0.000704004
0.00678504
0.00124074
0.00447527
0.000298563
0.00411311
0.00102429
0.00615439
0.00906965
0.00469509
0.0052263
0.00694589
0.0036368
0.000369479
0.000727115
0.00676198
0.000565527
0.00170758
0.000685793
0.0017555
0.000674831
0.00464369
0.00162312
0.00624443
0.000282383
0.000673147
0.0049199
0.00138045
0.00621188
0.0020881
0.0019392
0.000321636
0.009785
2.50578e-05
0.00276961
0.00337978
0.00273581
0.00232901
0.00300896
0.00222451
0.010498
0.00361128
0.00192429
0.00469036
0.000240874
0.00204015
0.00168436
0.00455027
0.00380439
0.0059817
0.00133152
0.00162829
0.00262114
0.00118883
0.00106117
0.00806418
0.00662545
0.0016035
0.00162283
0.000995549
0.00263624
0.00500078
0.00304604
0.00469389
0.000501698
0.000759566
0.00581399
0.00755831
0.00512149
0.0036589
0.00401125