/*--------------------------------*- C++ -*----------------------------------*\
| =========                 |                                                 |
| \\      /  F ield         | OpenFOAM: The Open Source CFD Toolbox           |
|  \\    /   O peration     | Version:  2212                                  |
|   \\  /    A nd           | Website:  www.openfoam.com                      |
|    \\/     M anipulation  |                                                 |
\*---------------------------------------------------------------------------*/
FoamFile
{
    version     2.0;
    format      ascii;
    arch        "LSB;label=32;scalar=64";
    class       volScalarField;
    location    "0";
    object      stateMean;
}
// * * * * * * * * * * * * * * * * * * * * * * * * * * * * * * * * * * * * * //

dimensions      [0 0 0 1 0 0 0];

internalField   nonuniform List<scalar> 
3200
(
343.832
341.611
340.813
340.688
341.056
338.789
339.434
341.908
342.53
342.27
340.522
340.768
342.431
340.223
338.793
340.276
340.922
338.73
343.145
341.46
337.106
336.29
337.079
334.638
334.485
334.036
336.607
335.176
336.008
337.235
336.991
334.952
334.4
333.93
336.991
336.664
332.924
333.308
335.988
335.86
330.984
328.501
329.077
327.998
328.35
328.86
329.722
329.482
330.916
330.816
329.89
330.122
329.425
328.821
328.851
329.564
329.814
331.48
330.534
330.491
325.786
326.373
324.276
324
324.653
323.417
325.626
322.114
325.151
324.899
327.671
326.403
325.187
323.908
325.24
323.48
322.894
325.025
325.901
325.329
322.822
318.879
319.176
317.517
321.177
318.6
317.894
318.262
319.786
317.979
319.801
318.103
318.468
317.625
320.745
322.229
320.473
320.197
320.614
319.288
315.719
312.302
312.086
313.835
313.789
312.324
314.858
312.933
315.46
314.554
313.285
313.99
313.708
315.654
314.814
312.919
311.725
315.394
313.98
312.818
308.408
308.904
306.918
308.744
306.731
307.761
308.343
309.373
310.339
308.086
307.899
308.124
309.714
307.642
308.601
309.122
308.462
307.795
309.022
306.688
304.672
303.009
303.033
299.389
301.576
305.51
303.446
303.791
302.517
302.225
302.765
306.095
302.952
303.511
302.801
302.82
303.324
303.744
303.283
303.082
342.057
342.875
340.425
340.191
340.659
340.921
341.976
340.879
341.759
341.337
342.682
343.549
341.748
342.222
339.321
338.861
337.502
340.74
339.404
343.211
335.454
336.076
335.851
337.37
333.772
337.817
334.348
338.336
336.459
338.699
338.265
336.27
338.523
334.939
338.604
337.308
337
333.824
336.802
337.09
330.633
330.582
330.446
329.153
328.925
330.889
330.286
331.58
332.309
331.594
330.853
332.234
330.86
330.068
328.52
330.785
328.728
331.479
327.385
328.781
326.697
325.735
324.307
322.089
324.329
323.984
324.175
323.718
323.927
324.511
325.261
326.606
326.84
324.808
324.662
324.974
322.952
326.292
325.078
326.614
319.488
320.168
318.078
318.863
317.867
317.661
319.872
320.091
319.787
319.623
319.909
318.5
319.294
319.949
316.138
318.963
319.353
318.93
320.407
319.974
315.813
313.492
311.568
313.787
312.386
312.08
312.177
315.895
311.863
315.151
312.12
313.416
313.168
315.68
312.387
312.142
313.661
314.601
312.44
315.248
308.662
306.91
306.193
310.169
308.109
308.91
306.593
307.703
311.095
308.976
308.829
308.627
307.777
309.616
310.004
308.067
310.657
308.591
306.258
309.225
301.714
304.601
303.242
301.193
301.558
303.548
301.95
302.55
302.469
304.634
301.44
302.125
303.722
302.397
303.074
303.95
302.705
303.148
302.998
303.53
343.716
340.572
340.956
342.319
340.55
341.372
340.844
341.611
343.971
342.89
343.845
343.773
341.312
343.986
341.283
339.572
340.808
341.062
342.705
343.435
338.883
335.074
334.014
335.79
334.03
334.099
333.921
335.415
338.227
337.737
334.778
338.103
336.132
338.232
335.349
332.553
338.914
335.791
334.967
338.159
332.88
332.254
330.003
327.865
329.735
332.007
329.794
330.701
332.64
330.877
331.922
330.994
331.12
330.856
332.334
330.775
330.95
331.346
329.409
333.532
325.718
323.019
325.736
324.902
326.167
325.528
324.547
326.041
324.823
325.771
326.94
324.384
325.993
323.402
324.328
325.44
327.816
324.837
324.049
325.33
319.924
319.355
319.438
321.236
321.34
321.494
318.489
320.466
321.344
319.573
318.089
322.264
320.79
319.365
319.126
319.76
319.605
320.148
317.878
319.802
313.398
314.379
312.626
312.955
313.192
315.092
315.04
315.999
315.377
315.32
314.269
314.657
312.426
314.725
312.895
315.334
314.572
312.922
312.315
314.811
308.475
306.534
306.883
307.194
308.754
309.953
308.069
309.816
309.291
307.999
311.036
307.926
308.83
307.207
306.489
306.292
308.978
308.473
307.982
308.783
302.839
302.017
303.922
301.366
302.888
301.835
301.379
304.281
303.624
303.655
302.606
302.546
303.511
303.406
304.436
302.94
301.475
302.511
301.29
303.457
344.388
344.26
341.2
342.449
338.113
342.206
341.428
342.701
343.731
343.422
342.955
343.899
343.313
341.533
341.727
341.661
342.111
342.679
342.218
343.816
337.215
337.669
335.985
338.318
334.787
338.788
335.502
339.266
339.103
338.812
339.182
337.169
339.143
335.026
339.096
336.218
338.088
336.389
337.583
338.523
332.135
329.392
330.172
329.123
330.89
330.932
332.303
333.974
334.048
333.477
333.591
331.903
332.097
328.917
330.16
331.256
329.107
331.983
333.003
332.394
327.381
327.833
325.012
325.807
325.143
326.101
327.053
328.442
325.533
327.246
327.203
326.086
326.502
325.642
325.616
325.995
324.037
326.972
325.848
327.529
320.223
318.98
319.127
317.801
319.223
320.028
319.711
320.287
321.305
319.847
321.777
321.18
319.903
318.405
320.11
320.851
321.514
320.364
322.006
320.462
316.46
315.209
314.203
312.918
313.26
314.572
315.58
315.882
312.626
314.168
314.359
315.686
313.798
312.824
314.669
313.05
316.392
314.209
316.072
315.718
309.209
311.487
307.23
307.638
309.469
310.657
309.766
311.026
310.001
307.779
308.114
310.489
306.846
307.875
308.848
308.2
308.064
309.158
307.282
306.823
301.083
301.912
302.93
303.975
302.764
302.917
304.377
304.813
303.588
302.86
301.214
304.255
299.875
302.645
302.492
302.924
303.161
304.012
300.836
302.609
345.092
343.054
342.309
343.852
340.704
341.713
343.143
344.904
344.322
344.559
346.132
344.568
345.046
345.439
344.705
344.061
339.195
342.689
344.551
344.28
338.57
337.554
337.485
337.981
338.231
336.227
339.57
339.329
336.855
339.93
338.738
343.098
338.873
337.602
338.238
338.008
335.205
337.091
338.376
340.049
332.196
333.928
333.056
331.565
331.05
333.665
332.804
329.669
331.901
333.451
333.195
334.633
333.093
332.41
332.209
332.333
331.574
332.166
331.322
335.343
326.816
326.937
326.277
326.969
328.234
323.631
327.276
326.007
329.922
327.858
326.885
328.412
327.211
325.695
327.624
327.311
326.067
326.148
326.332
326.925
320.547
318.198
318.975
321.606
320.418
320.238
323.347
321.235
321.714
321.386
322.715
321.74
323.738
321.096
322.99
321.314
320.827
321.12
321.375
321.839
317.332
314.932
312.214
313.842
313.552
313.748
316.31
314.501
314.842
314.819
315.558
315.352
314.111
316.49
315.093
313.489
313.997
313.502
318.329
316.661
307.3
307.112
306.947
310.507
306.86
308.383
308.2
307.241
307.66
309.494
306.074
309.011
307.037
308.938
310.721
309.457
309.295
307.953
310.935
310.22
304.768
302.651
302.54
303.977
302.444
303.739
302.891
304.423
302.956
300.91
303.76
304.338
303.068
302.094
303.575
302.743
304.606
303.326
303.415
303.37
347.322
346.361
344.066
345.809
344.177
345.838
345.591
347.081
345.968
345.194
348.362
346.822
347.908
346.066
344.075
345.696
344.069
345.235
344.944
346.533
343.756
339.362
340.517
338.886
338.148
340.141
340.848
340.213
339.665
340.504
340.215
341.285
340.226
340.822
339.457
338.459
339.63
338.58
339.254
340.822
331.476
332.92
333.181
333.158
333.884
331.927
335.543
333.206
332.897
337.283
334.047
334.111
333.364
333.942
333.485
333.646
333.102
331.696
333.283
332.425
329.992
327.405
327.921
325.853
325.608
327.133
327.055
327.436
327.413
328.753
330.834
329.866
328.166
326.029
327.617
326.162
327.279
328.019
329.387
327.446
324.429
320.449
319.909
319.911
318.985
322.666
321.431
321.257
321.843
322.267
320.126
322.86
321.357
320.419
320.44
320.898
322.038
320.749
320.406
321.156
315.603
317.042
315.521
314.823
314.468
313.824
314.535
316.761
313.388
315.828
315.618
316.234
315.884
316.034
316.025
315.649
315.527
315.438
316.258
315.447
309.654
308.989
308.67
310.281
308.928
309.597
310.455
310.744
310.654
310.669
308.383
310.612
309.665
306.965
307.732
309.288
308.717
309.343
309.715
309.431
303.371
302.206
303.715
303.822
303.15
304.078
304.039
301.951
304.607
302.23
303.312
301.53
303.542
303.514
303.194
301.607
300.939
304.277
303.726
302.269
349.442
346.874
344.707
344.31
345.59
346.825
347.728
347.641
346.808
349.408
348.901
348.94
347.135
346.372
346.338
345.524
346.9
345.964
345.563
347.11
340.996
340.967
339.765
338.271
338.655
340.229
339.527
342.056
341.63
344.319
342.03
343.703
340.88
342.137
339.588
338.875
339.753
338.037
340.83
342.297
336.527
335.332
334.65
333.14
332.888
332.396
333.373
335.411
334.171
336.175
336.083
332.855
336.611
333.066
334.904
334.532
334.784
334.508
337.282
336.095
328.908
329.352
326.753
326.237
328.285
328.528
328.218
327.341
331.628
330.448
328.825
330.196
328.072
328.591
329.63
329.376
327.312
328.049
327.362
328.293
321.365
322.568
321.554
322.195
323.778
323.318
322.905
323.648
323.721
321.522
323.905
322.658
325.197
323
321.63
320.762
321.104
322.671
321.692
323.211
318.11
319.308
316.381
314.295
316.857
314.429
318.523
317.298
316.586
316.472
317.099
317.801
315.151
315.144
315.068
315.758
317.769
315.267
314.385
315.279
311.029
310.91
309.089
308.586
308.139
310.277
309.316
308.485
308.465
311.079
310.589
309.181
306.835
312.065
311.568
307.849
309.489
309.78
308.581
308.795
304.71
301.981
304.848
305.569
301.117
304.436
301.937
303.262
303.936
304.507
302.296
304.965
302.781
303.536
301.71
301.758
301.269
303.493
303.197
301.921
348.355
347.626
346.814
347.727
349.099
345.957
348.422
349.622
350.874
350.385
349.775
351.02
349.298
351.964
346.452
345.923
347.116
348.794
347.182
351.551
343.105
340.583
339.788
341.304
341.785
341.858
342.776
342.16
344.086
341.895
343.152
342.549
341.709
343.306
341.991
341.159
340.786
342.163
340.991
344.59
334.432
334.032
335.116
336.327
334.55
336.821
337.943
337.524
338.342
336.934
336.445
336.086
337.232
335.789
335.397
334.838
333.815
334.936
336.047
336.889
331.781
329.787
329.003
328.539
328.234
326.965
328.656
328.361
332.471
330.579
330.703
329.925
330.223
329.955
327.379
331.65
331.034
327.215
329.553
330.859
322.288
322.782
323.357
322.631
324.024
320.05
321.213
322.358
321.961
324.085
322.134
323.052
324.199
324.324
323.13
324.544
323.45
323.243
325.023
324.479
317.853
316.164
316.862
313.948
318.468
316.858
315.909
317.361
318.562
319.944
319.059
316.253
317.882
317.788
315.104
316.215
319.284
316.418
316.065
317.475
307.713
310.903
310.482
308.197
308.605
311.28
310.098
309.609
309.193
310.485
311.133
310.371
309.635
311.42
309.303
310.061
308.057
309.67
310.528
308.839
304.9
305.502
301.998
302.371
299.5
304.367
301.488
305.176
301.881
301.397
304.263
304.802
304.359
304.479
304.35
305.414
302.831
304.085
304.187
304.812
352.032
349.341
349.379
350.109
349.304
349.707
351.126
351.222
351.534
353.332
352.759
352.459
351.743
351.275
349.422
346.685
348.994
349.939
350.919
350.562
344.34
344.787
343.466
340.473
343.848
343.709
345.4
344.908
346.591
345.384
346.855
343.879
346.489
343.102
345.5
341.764
342.572
343.276
344.688
346.165
338.649
338.872
337.911
337.988
337.512
334.481
336.541
336.597
337.902
340.179
337.053
337.603
338.539
337.438
338.935
334.607
334.814
337.101
337.459
336.749
332.913
329.777
329.776
329.85
330.236
331.44
330.484
331.72
332.816
332.715
331.56
334.056
331.569
332.194
332.189
330.892
330.087
330.021
330.456
332.361
324.702
324.139
322.06
323.903
323.35
322.944
324.27
324.448
323.681
324.139
324.091
326.416
323.964
324.777
323.637
325.189
324.847
323.831
325.209
325.212
316.76
315.379
317.308
318.066
318.452
316.547
316.408
317.945
318.76
319.347
318.263
316.44
316.413
318.192
318.38
316.518
316.646
318.372
318.285
316.634
309.334
309.406
309.943
309.586
311.851
310.581
309.788
311.509
311.072
308.497
311.367
311.326
312.33
311.084
310.003
310.497
311.298
311.685
309.888
311.659
301.925
305.146
303.538
303.462
304.068
304.183
304.128
303.154
302.526
302.385
304.131
303.642
302.86
303.679
302.515
303.058
302.736
302.882
302.251
302.457
355.634
351.155
352.43
351.626
352.355
350.865
350.001
354.23
352.571
355.487
352.584
352.703
353.192
354.687
350.802
348.858
349.669
351.112
351.243
352.333
347.501
343.396
346.241
343.467
342.697
344.591
345.304
344.927
345.895
345.152
344.362
346.138
345.373
346.429
343.716
345.446
343.783
345.638
343.389
345.922
340.763
340.164
339.68
338.446
339.126
337.091
337.3
340.549
339.361
342.585
338.756
339.421
336.642
338.549
338.105
338.495
338.112
339.217
337.533
338.786
332.117
331.142
330.636
330.096
329.292
331.278
331.955
331.914
331.068
331.871
333.415
333.161
334.365
330.386
333.052
331.522
333.005
334.814
330.049
332.905
326.798
324.246
324.485
324.312
323.278
325.165
324.698
324.822
326.516
324.175
325.032
324.909
327.284
323.25
326.761
325.089
326.77
325.027
324.708
325.869
318.159
317.277
317.626
316.255
320.214
321.362
316.467
319.041
315.841
319.592
316.873
317.618
317.428
318.388
316.893
319.877
316.994
316.171
316.198
317.518
312.417
308.67
311.296
311.08
308.64
308.473
311.179
312.397
310.348
310.554
307.802
311.764
308.236
312.04
311.59
312.251
310.885
311.11
310.847
311.523
303.231
304.549
304.418
304.738
304.045
302.394
302.217
302.978
303.705
303.985
303.581
303.535
303.624
303.978
303.245
304.512
304.881
303.975
303.139
303.442
356.242
355.441
354.789
353.7
352.127
353.116
353.948
354.2
355.334
352.984
354.041
355.759
353.581
353.572
354.175
351.554
350.99
349.556
354.458
356.112
348.539
345.377
347.177
345.39
344.795
345.827
346.026
346.636
350.068
346.843
345.852
347.66
345.912
345.441
345.832
349.384
345.894
347.074
345.027
347.43
339.599
339.02
339.577
340.789
338.591
339.337
340.753
340.438
342.275
343.614
339.946
339.778
339.861
340.652
338.517
340.33
339.042
341.084
341.127
338.495
334.554
333.279
332.088
331.822
331.959
332.041
332.999
333.502
333.767
333.353
332.154
335.12
333.509
333.302
332.626
331.625
332.477
332.295
332.133
330.69
327.066
326.259
324.539
326.407
325.613
325.511
326.637
326.378
326.126
328.707
327.266
324.79
325.325
328.965
326.539
324.454
324.396
325.94
324.458
328.142
320.244
320.505
318.234
318.891
318.73
317.33
317.328
316.817
317.161
317.317
319.893
319.585
319.986
317.077
319.07
315.856
315.794
317.381
317.941
319.802
312.449
307.764
311.845
309.932
311.046
312.013
309.055
310.661
310.254
310.035
310.778
313.034
310.885
311.619
312.678
311.524
310.625
310.136
310.236
312.222
301.668
304.88
302.934
302.156
303.862
306.246
304.908
301.993
303.823
300.992
303.947
303.834
304.778
304.16
302.39
302.026
304.714
302.781
303.357
305.269
357.036
358.49
354.917
355.063
353.531
355.281
356.092
354.572
356.665
355.505
356.996
357.151
355.437
356.487
356.61
355.683
355.475
355.582
356.931
355.833
350.911
348.992
348.273
350.646
347.37
349.164
348.842
348.2
348.327
351.381
350.278
351.295
350.536
348.658
348.992
347.316
347.775
349.485
352.141
351.78
341.507
340.411
341.725
341.8
341.121
341.57
341.5
342.27
342.196
341.524
340.745
344.26
342.552
341.081
340.113
341.895
340.92
342.957
342.578
341.384
335.817
336.551
334.536
334.655
330.954
335.899
334.351
336.328
335.384
331.97
335.708
334.254
333.104
335.123
336.28
333.361
333.33
335.016
335.107
334.424
327.178
328.435
325.869
325.141
325.614
327.826
327.053
328.111
326.119
326.028
326.4
327.005
326.928
327.747
323.829
326.065
324.586
326.839
327.095
325.879
319.172
315.336
317.747
317.349
317.991
320.428
318.417
321.088
320.128
319.84
320.9
318.963
320.312
321.652
316.798
319.43
317.689
316.824
319.292
319.954
314.117
309.812
312.102
311.796
311.021
310.681
309.464
310.926
314.584
311.13
310.776
309.916
311.472
310.744
311.103
311.155
312.001
311.754
312.37
312.74
300.816
302.231
304.095
304.539
302.863
303.623
304.214
304.903
303.99
301.817
303.333
303.969
303.536
303.968
306.257
302.64
303.774
304.947
304.498
303.864
360.677
357.243
358.517
356.965
356.736
356.077
357.652
354.021
358.365
357.985
359.356
359.938
359.408
359.122
354.718
359.132
355.481
359.749
359.548
357.205
352.774
348.56
350.245
349.046
349.294
348.661
347.058
349.44
350.961
348.684
349.829
351.763
348.537
350.717
349.258
353.116
349.079
351.819
348.268
351.004
344.477
343.545
343.275
343.515
342.079
337.342
344.397
343.193
342.552
344.325
343.087
342.122
341.123
342.968
344.046
341.301
342.782
343.213
342.934
343.025
336.084
335.378
336.032
336.179
335.081
332.321
336.516
333.802
335.359
336.439
336.006
336.416
337.171
334.815
337.093
334.635
337.07
333.129
335.948
336.17
329.788
326.949
327.257
328.611
328.557
328.763
329.367
326.046
329.754
328.111
330
328.731
328.363
327.219
328.293
325.102
328.729
326.951
326.858
331.158
323.019
318.137
320.244
319.541
319.222
319.501
319.982
320.667
318.919
321.267
321.395
319.342
319.814
320.347
318.249
320.059
319.921
320.358
319.576
318.775
311.431
312.3
310.575
312.385
310.755
313.58
310.6
311.72
311.079
313.523
312.359
311.189
311.892
312.75
310.865
311.088
312.222
312.447
312.217
313.034
304.831
303.13
305.809
302.978
303.277
304.078
304.94
303.838
304.184
305.442
303.333
305.825
302.247
304.767
303.78
304.105
305.83
304.401
306.202
302.777
362.824
360.14
359.553
359.338
357.302
357.75
358.896
359.113
361.434
362.765
361.932
360.401
360.369
358.541
360.846
359.582
360.155
360.001
357.949
359.542
355.017
353.731
351.58
350.9
349.624
350.881
349.594
352.543
353.204
353.125
352.334
351.431
354.098
353.53
350.739
352.582
351.441
350.071
350.714
353.635
348.094
346.226
343.303
344.611
344.219
344.283
343.973
344.344
343.909
344.634
343.469
343.289
346.464
343.833
343.969
342.692
343.692
344.723
344.478
345.44
338.228
337.311
336.184
337.789
334.872
335.405
337.729
337.268
338.381
339.038
336.135
336.648
336.944
334.85
337.208
337.463
334.383
335.29
336.182
337.809
329.62
330.135
330.842
327.646
329.362
327.538
327.122
328.964
329.423
327.794
329.252
327.924
328.742
329.539
327.136
327.93
329.571
328.15
330.492
329.704
323.521
319.862
320.517
319.12
319.881
321.649
321.533
318.894
319.588
318.459
320.865
321.706
319.465
320.509
319.33
319.382
320.019
321.366
323.133
319.433
312.107
311.68
313.97
311.631
313.266
310.613
312.13
313.557
312.335
311.898
312.669
312.008
313.298
311.285
312.032
311.05
311.58
312.43
312.728
312.709
304.144
303.649
305.895
303.38
304.848
304.667
303.942
304.952
305.039
304.577
303.67
304.189
303.449
305.281
304.16
303.741
304.072
304.855
304.614
302.478
364.689
361.399
362.389
360.766
360.535
361.379
361.001
361.546
361.613
359.498
361.319
362.036
362.25
360.353
359.882
360.835
360.675
363.244
362.155
363.894
356.903
353.047
354.426
353.007
353.096
354.021
351.435
353.012
351.46
354.26
353.24
352.719
353.539
355.227
352.792
352.841
352.207
353.642
352.719
354.121
347.254
347.004
346.283
345.695
344.783
346.345
345.281
344.778
347.459
344.275
346.418
347.334
347.585
345.487
345.457
345.783
345.145
343.903
344.38
346.637
340.335
339.91
337.375
340.511
335.538
338.91
336.641
337.608
338.466
337.742
337.073
337.222
336.589
337.343
338.723
337.818
339.661
334.236
337.242
337.288
331.353
330.275
328.657
327.311
328.656
328.084
330.564
329.627
327.272
329.411
329.649
326.831
330.343
329.532
330.502
328.785
329.247
327.825
331.301
331.125
320.435
321.096
321.816
320.843
321.147
319.125
317.72
319.818
320.004
321.056
320.933
318.729
320.441
319.61
320.034
319.841
321.356
321.222
320.724
320.368
313.978
310.85
312.466
314.195
313.02
310.6
310.08
311.112
312.664
312.592
310.561
312.264
310.511
310.954
312.061
311.517
311.874
314.237
312.516
312.932
306.153
305.349
304.905
304.509
305.371
304.017
305.49
303.115
304.202
304.465
304.968
304.396
304.382
303.815
303.95
304.673
306.921
304.546
302.438
302.111
366.376
366.318
366.061
363.455
363.192
361.456
363.754
361.856
364.438
365.765
364.196
361.359
363.207
365.201
362.419
363.259
362.952
363.735
365.361
366.741
358.498
356.855
355.921
356.113
355.117
354.385
355.743
354.105
353.022
355.481
355.35
356.265
354.631
353.824
355.958
352.485
355.373
355.362
355.296
355.885
348.456
346.524
348.47
346.697
346.082
349.111
348.027
346.43
347.747
346.712
346.598
345.122
347.597
346.279
345.482
347.953
348.112
347.484
346.557
347.795
341.162
338.978
336.836
339.52
339.174
337.585
338.476
337.19
340.419
339.914
338.979
339.674
336.899
337.656
340.323
339.785
338.268
339.308
338.763
340.49
332.949
331.409
331.129
332.067
331.04
328.062
329.324
330.234
329.407
330.503
330.416
329.688
328.567
330.476
330.285
331.9
331.26
331.589
329.708
332.255
322.036
322.95
322.519
322.207
321.211
319.375
321.219
321.319
322.015
323.574
320.983
322.335
321.809
322.493
320.602
320.836
321.85
320.905
322.75
323.039
313.018
312.849
312.698
311.426
312.913
313.353
313.773
313.264
312.363
312.907
312.272
313.822
312.142
312.133
314.671
313.174
311.73
311.342
313.378
314.687
304.877
305.05
304.385
305.218
304.919
304.223
304.526
303.658
302.588
304.047
302.458
305.428
304.49
303.746
301.898
304.117
302.969
302.147
307.228
303.859
369.864
366.098
365.974
365.035
364.007
366.442
364.305
367.325
365.28
366.839
365.44
367.298
364.612
363.467
364.978
364.676
363.929
365.019
366.096
365.865
359.875
357.34
357.035
357.997
357.226
358.191
356.367
357.515
355.905
358.064
358.406
356.379
357.602
355.806
357.202
357.16
357.867
354.146
357.551
356.468
349.902
349.747
348.068
350.02
348.281
345.472
347.945
348.589
347.662
349.236
348.607
348.712
347.672
347.877
347.049
349.522
349.538
349.795
349.208
349.093
342.679
342.247
340.611
340.691
339.871
341.172
338.63
341.414
338.811
340.254
340.684
338.43
337.804
338.589
339.03
338.845
341.838
340.086
340.401
339.289
334.743
332.697
330.279
331.226
332.68
331.025
330.621
330.172
331.365
330.963
331.727
330.446
328.639
330.718
333.313
330.089
329.676
329.987
331.731
331.642
323.214
322.348
324.166
324.281
322.799
322.924
321.033
320.983
320.896
322
322.557
322.7
322.171
320.845
321.598
322.942
320.441
323.509
323.463
321.461
314.695
313.871
313.878
314.49
311.337
312.483
313.089
311.82
311.413
313.999
312.742
313.213
314.064
312.897
313.934
313.511
312.287
312.801
313.736
315.454
304.621
305.166
302.252
304.859
304.167
306.356
307.065
304.676
306.095
307.602
304.994
304.363
305.815
303.715
304.229
303.866
304.816
305.865
302.826
306.469
369.61
369.921
366.555
367.012
366.035
367.875
366.524
367.771
365.573
366.343
367.774
370.485
368.462
366.992
365.742
364.926
366.824
367.919
367.728
368.961
362.161
359.471
358.899
356.871
357.93
357.457
359.301
356.498
358.19
357.492
356.635
358.298
359.832
358.968
357.392
358.514
359.546
359.743
359.621
358.697
351.321
351.742
352.824
348.976
350.354
349.369
349.304
349.312
349.075
347.565
351.023
350.809
349.946
350.901
348.904
350.035
349.598
349.342
351.848
352.377
343.539
342.072
340.74
339.957
339.775
341.676
340.668
340.009
339.178
340.603
340.822
339.73
340.17
339.139
340.271
341.687
343.402
341.22
341.333
340.312
331.818
331.458
332.836
333.133
329.812
331.4
332.209
331.074
331.727
330.166
333.318
330.679
331.53
332.382
330.795
331.034
329.633
332.469
332.334
333.203
323.009
324.005
324.584
321.798
322.079
322.043
322.596
323.062
324.474
322.572
321.114
322.684
322.429
321.344
322.371
322.832
322.244
323.036
323.565
322.856
313.861
315.719
313.382
312.886
311.835
313.714
314.231
315.011
314.216
313.515
312.87
313.837
315.481
313.528
312.818
314.429
313.747
314.046
314.696
310.985
303.911
304.05
306.154
303.125
303.669
306.439
302.886
303.925
303.746
303.688
304.459
303.854
306.063
304.073
303.82
305.676
305.285
304.268
306.451
306.087
371.57
370.321
369.525
368.724
368.161
366.968
368.237
368.788
368.402
366.709
365.54
366.817
369.015
368.666
368.867
366.853
368.706
366.612
368.489
370.872
362.171
362.702
361.599
362.36
356.364
362.191
357.338
362.796
359.254
362.492
362.206
358.791
362.172
356.302
362.936
358.283
362.694
360.704
362.47
362.383
352.923
350.575
353.839
350.664
349.693
351.419
348.606
349.24
347.696
351.178
350.845
351.695
348.804
348.779
349.462
349.153
351.573
350.121
352.489
353.829
340.953
344.135
342.145
342.907
340.01
341.801
340.91
342.061
339.803
341.677
341.682
340.39
341.478
340.536
343.435
341.6
340.938
341.271
342.883
343.43
332.697
333.128
331.298
332.911
332.334
331.202
334.569
333.408
332.414
331.668
332.078
330.999
332.478
332.491
331.19
331.718
333.244
331.446
334.139
330.506
325.377
323.816
324.131
322.652
323.253
323.506
322.748
324.304
323.736
323.329
324.232
323.054
322.215
323.589
323.236
323.063
323.172
324.845
325.853
322.479
316.778
315.23
315.809
313.359
313.588
315.284
313.479
314.401
313.03
313.513
313.423
314.292
313.889
313.243
312.805
314.468
313.809
313.575
313.516
313.612
303.404
303.969
306.312
305.211
303.451
304.898
305.417
304.468
304.718
305.263
304.73
305.327
303.607
305.707
304.23
305.877
305.545
304.729
306.312
303.881
372.14
373.497
370.456
370.916
368.666
369.048
371.091
368.782
368.016
369.841
368.472
367.218
369.027
371.941
368.751
372.134
370.068
371.578
372.627
371.06
365.127
362.289
363.279
362.789
361.592
359.676
359.978
358.707
360.066
358.963
360.362
359.298
360.875
361.08
358.963
361.558
361.306
360.652
363.337
364.082
354.022
355.099
353.484
351.333
351.261
352.146
349.7
350.998
349.842
351.281
352.343
350.123
351.383
350.087
353.301
353.59
351.874
350.573
353.745
354.371
343.353
342.156
340.811
343.381
340.293
340.747
342.109
344.452
342.767
340.946
341.863
341.257
341.648
341.27
339.914
341.141
340.469
342.006
342.887
345.371
336.144
334.286
332.918
333.996
332.327
331.325
333.88
332.77
333.515
333.903
332.995
333.189
332.396
333.434
332.85
331.329
334.31
332.972
334.746
333.894
324.207
322.887
324.746
324.618
322.849
324.508
322.33
324.456
321.851
324.987
322.642
323.717
321.345
320.528
325.83
322.378
322.288
322.858
322.914
322.812
312.159
314.404
314.085
314.444
312.739
313.042
314.52
315.483
313.448
314.798
315.336
314.201
315.449
312.887
313.964
313.76
314.436
316.301
314.136
315.782
303.14
305.4
304.949
302.585
305.103
304.503
303.766
301.392
307.429
304.557
305.802
305.708
305.27
304.806
304.483
308.033
302.607
303.917
304.377
305.081
)
;

boundaryField
{
    hotSide
    {
        type            fixedGradient;
        gradient        nonuniform List<scalar> 
400
(
321.511
322.87
325.591
329.677
335.133
341.965
350.181
359.788
370.794
383.208
397.037
412.289
428.971
447.088
466.647
487.651
510.105
534.011
559.372
586.191
323.738
325.08
327.767
331.802
337.194
343.949
352.078
361.591
372.498
384.81
398.537
413.687
430.268
448.289
467.755
488.672
511.043
534.872
560.161
586.913
326.149
327.47
330.116
334.091
339.406
346.071
354.099
363.503
374.296
386.491
400.101
415.136
431.606
449.52
468.885
489.706
511.988
535.735
560.948
587.63
328.704
330
332.597
336.503
341.73
348.292
356.205
365.485
376.15
388.215
401.695
416.604
432.954
450.753
470.009
490.73
512.919
536.579
561.714
588.325
331.33
332.599
335.142
338.97
344.099
350.546
358.332
367.477
378.003
389.928
403.271
418.047
434.27
451.949
471.095
491.712
513.807
537.382
562.439
588.978
333.918
335.158
337.643
341.389
346.414
352.74
360.392
369.397
379.779
391.562
404.765
419.407
435.503
453.065
472.101
492.618
514.622
538.114
563.096
589.569
336.321
337.531
339.959
343.622
348.544
354.751
362.274
371.142
381.385
393.031
406.101
420.618
436.595
454.047
472.983
493.409
515.33
538.747
563.663
590.076
338.36
339.543
341.92
345.509
350.339
356.44
363.847
372.595
382.718
394.244
407.2
421.608
437.485
454.844
473.695
494.045
515.897
539.253
564.114
590.478
339.852
341.015
343.352
346.885
351.645
357.665
364.985
373.643
383.675
395.113
407.984
422.312
438.116
455.407
474.197
494.491
516.294
539.606
564.428
590.758
340.643
341.795
344.11
347.613
352.334
358.311
365.584
374.193
384.176
395.567
408.393
422.679
438.443
455.699
474.456
494.722
516.498
539.788
564.589
590.901
340.643
341.795
344.11
347.613
352.334
358.311
365.584
374.193
384.176
395.567
408.393
422.679
438.443
455.699
474.456
494.722
516.498
539.788
564.589
590.901
339.852
341.015
343.352
346.885
351.645
357.665
364.985
373.643
383.675
395.113
407.984
422.312
438.116
455.407
474.197
494.491
516.294
539.606
564.428
590.758
338.36
339.543
341.92
345.509
350.339
356.44
363.847
372.595
382.718
394.244
407.2
421.608
437.485
454.844
473.695
494.045
515.897
539.253
564.114
590.478
336.321
337.531
339.959
343.622
348.544
354.751
362.274
371.142
381.385
393.031
406.101
420.618
436.595
454.047
472.983
493.409
515.33
538.747
563.663
590.076
333.918
335.158
337.643
341.389
346.414
352.74
360.392
369.397
379.779
391.562
404.765
419.407
435.503
453.065
472.101
492.618
514.622
538.114
563.096
589.569
331.33
332.599
335.142
338.97
344.099
350.546
358.332
367.477
378.003
389.928
403.271
418.047
434.27
451.949
471.095
491.712
513.807
537.382
562.439
588.978
328.704
330
332.597
336.503
341.73
348.292
356.205
365.485
376.15
388.215
401.695
416.604
432.954
450.753
470.009
490.73
512.919
536.579
561.714
588.325
326.149
327.47
330.116
334.091
339.406
346.071
354.099
363.503
374.296
386.491
400.101
415.136
431.606
449.52
468.885
489.706
511.988
535.735
560.948
587.63
323.738
325.08
327.767
331.802
337.194
343.949
352.078
361.591
372.498
384.81
398.537
413.687
430.268
448.289
467.755
488.672
511.043
534.872
560.161
586.913
321.511
322.87
325.591
329.677
335.133
341.965
350.181
359.788
370.794
383.208
397.037
412.289
428.971
447.088
466.647
487.651
510.105
534.011
559.372
586.191
)
;
    }
    coldSide
    {
        type            mixed;
        refValue        uniform 300;
        refGradient     uniform 0;
        valueFraction   uniform 0.991591;
        source          uniform 0;
        value           nonuniform List<scalar> 
400
(
300.039
300.014
300.024
300.009
300.04
300.028
300.04
300.041
300.016
300.027
300.014
300.007
300.041
300.035
300.052
300.041
300.039
300.033
300.029
300.026
300.025
300.039
300.017
300.016
300.022
300.019
300.017
300.046
300.043
300.038
300.041
300.019
300.026
300.031
300.045
300.042
300.043
300.034
300.033
300.045