/*--------------------------------*- C++ -*----------------------------------*\
| =========                 |                                                 |
| \\      /  F ield         | OpenFOAM: The Open Source CFD Toolbox           |
|  \\    /   O peration     | Version:  2212                                  |
|   \\  /    A nd           | Website:  www.openfoam.com                      |
|    \\/     M anipulation  |                                                 |
\*---------------------------------------------------------------------------*/
FoamFile
{
    version     2.0;
    format      ascii;
    arch        "LSB;label=32;scalar=64";
    class       volScalarField;
    location    "0";
    object      Tdirect;
}
// * * * * * * * * * * * * * * * * * * * * * * * * * * * * * * * * * * * * * //

dimensions      [0 0 0 1 0 0 0];

internalField   nonuniform List<scalar> 
3200
(
343.597
344.505
345.665
346.929
348.231
349.509
350.689
351.684
352.41
352.793
352.793
352.41
351.684
350.689
349.509
348.231
346.929
345.665
344.505
343.597
337.81
338.579
339.579
340.673
341.799
342.905
343.924
344.784
345.411
345.742
345.742
345.411
344.784
343.924
342.905
341.799
340.673
339.579
338.579
337.81
332.012
332.65
333.493
334.417
335.369
336.303
337.164
337.89
338.418
338.697
338.697
338.418
337.89
337.164
336.303
335.369
334.417
333.493
332.65
332.012
326.207
326.721
327.408
328.163
328.941
329.704
330.407
331
331.431
331.659
331.659
331.431
331
330.407
329.704
328.941
328.163
327.408
326.721
326.207
320.395
320.79
321.323
321.909
322.514
323.107
323.654
324.114
324.449
324.625
324.625
324.449
324.114
323.654
323.107
322.514
321.909
321.323
320.79
320.395
314.579
314.858
315.238
315.657
316.089
316.512
316.902
317.231
317.469
317.596
317.596
317.469
317.231
316.902
316.512
316.089
315.657
315.238
314.858
314.579
308.758
308.925
309.153
309.404
309.664
309.918
310.152
310.349
310.493
310.568
310.568
310.493
310.349
310.152
309.918
309.664
309.404
309.153
308.925
308.758
302.936
302.992
303.068
303.152
303.239
303.325
303.403
303.469
303.517
303.542
303.542
303.517
303.469
303.403
303.325
303.239
303.152
303.068
302.992
302.936
343.71
344.611
345.761
347.013
348.301
349.565
350.731
351.714
352.43
352.808
352.808
352.43
351.714
350.731
349.565
348.301
347.013
345.761
344.611
343.71
337.907
338.67
339.661
340.745
341.86
342.953
343.961
344.811
345.429
345.755
345.755
345.429
344.811
343.961
342.953
341.86
340.745
339.661
338.67
337.907
332.094
332.727
333.563
334.478
335.421
336.344
337.195
337.912
338.434
338.709
338.709
338.434
337.912
337.195
336.344
335.421
334.478
333.563
332.727
332.094
326.274
326.783
327.465
328.213
328.983
329.738
330.433
331.019
331.444
331.669
331.669
331.444
331.019
330.433
329.738
328.983
328.213
327.465
326.783
326.274
320.447
320.839
321.367
321.948
322.547
323.133
323.674
324.128
324.459
324.633
324.633
324.459
324.128
323.674
323.133
322.547
321.948
321.367
320.839
320.447
314.616
314.893
315.269
315.684
316.112
316.531
316.916
317.241
317.477
317.601
317.601
317.477
317.241
316.916
316.531
316.112
315.684
315.269
314.893
314.616
308.781
308.946
309.172
309.421
309.678
309.929
310.161
310.355
310.497
310.572
310.572
310.497
310.355
310.161
309.929
309.678
309.421
309.172
308.946
308.781
302.944
302.999
303.075
303.158
303.244
303.328
303.406
303.471
303.519
303.544
303.544
303.519
303.471
303.406
303.328
303.244
303.158
303.075
302.999
302.944
343.935
344.822
345.953
347.182
348.444
349.681
350.82
351.779
352.477
352.845
352.845
352.477
351.779
350.82
349.681
348.444
347.182
345.953
344.822
343.935
338.102
338.853
339.828
340.891
341.984
343.054
344.038
344.867
345.47
345.788
345.788
345.47
344.867
344.038
343.054
341.984
340.891
339.828
338.853
338.102
332.259
332.882
333.703
334.602
335.525
336.429
337.261
337.96
338.469
338.737
338.737
338.469
337.96
337.261
336.429
335.525
334.602
333.703
332.882
332.259
326.409
326.91
327.58
328.314
329.069
329.807
330.487
331.058
331.473
331.692
331.692
331.473
331.058
330.487
329.807
329.069
328.314
327.58
326.91
326.409
320.552
320.937
321.456
322.027
322.614
323.188
323.715
324.159
324.481
324.651
324.651
324.481
324.159
323.715
323.188
322.614
322.027
321.456
320.937
320.552
314.69
314.963
315.333
315.74
316.16
316.57
316.946
317.263
317.493
317.614
317.614
317.493
317.263
316.946
316.57
316.16
315.74
315.333
314.963
314.69
308.825
308.988
309.21
309.455
309.706
309.952
310.179
310.369
310.507
310.58
310.58
310.507
310.369
310.179
309.952
309.706
309.455
309.21
308.988
308.825
302.959
303.013
303.087
303.169
303.254
303.336
303.412
303.476
303.522
303.546
303.546
303.522
303.476
303.412
303.336
303.254
303.169
303.087
303.013
302.959
344.277
345.143
346.245
347.44
348.666
349.863
350.962
351.887
352.559
352.913
352.913
352.559
351.887
350.962
349.863
348.666
347.44
346.245
345.143
344.277
338.397
339.13
340.08
341.115
342.175
343.211
344.162
344.962
345.542
345.848
345.848
345.542
344.962
344.162
343.211
342.175
341.115
340.08
339.13
338.397
332.508
333.116
333.917
334.791
335.687
336.563
337.366
338.041
338.53
338.788
338.788
338.53
338.041
337.366
336.563
335.687
334.791
333.917
333.116
332.508
326.612
327.101
327.754
328.469
329.201
329.917
330.573
331.124
331.524
331.734
331.734
331.524
331.124
330.573
329.917
329.201
328.469
327.754
327.101
326.612
320.71
321.086
321.592
322.147
322.717
323.273
323.783
324.211
324.521
324.685
324.685
324.521
324.211
323.783
323.273
322.717
322.147
321.592
321.086
320.71
314.803
315.069
315.43
315.826
316.233
316.63
316.994
317.3
317.521
317.638
317.638
317.521
317.3
316.994
316.63
316.233
315.826
315.43
315.069
314.803
308.893
309.052
309.268
309.506
309.751
309.989
310.208
310.391
310.524
310.594
310.594
310.524
310.391
310.208
309.989
309.751
309.506
309.268
309.052
308.893
302.981
303.034
303.107
303.187
303.268
303.348
303.422
303.483
303.528
303.551
303.551
303.528
303.483
303.422
303.348
303.268
303.187
303.107
303.034
302.981
344.736
345.575
346.641
347.794
348.972
350.119
351.17
352.052
352.691
353.027
353.027
352.691
352.052
351.17
350.119
348.972
347.794
346.641
345.575
344.736
338.793
339.504
340.423
341.421
342.441
343.433
344.343
345.105
345.657
345.948
345.948
345.657
345.105
344.343
343.433
342.441
341.421
340.423
339.504
338.793
332.843
333.432
334.207
335.05
335.912
336.751
337.519
338.162
338.628
338.874
338.874
338.628
338.162
337.519
336.751
335.912
335.05
334.207
333.432
332.843
326.885
327.36
327.991
328.68
329.385
330.071
330.698
331.224
331.605
331.805
331.805
331.605
331.224
330.698
330.071
329.385
328.68
327.991
327.36
326.885
320.922
321.286
321.776
322.312
322.86
323.393
323.88
324.289
324.584
324.74
324.74
324.584
324.289
323.88
323.393
322.86
322.312
321.776
321.286
320.922
314.955
315.212
315.562
315.944
316.335
316.716
317.064
317.356
317.567
317.678
317.678
317.567
317.356
317.064
316.716
316.335
315.944
315.562
315.212
314.955
308.984
309.138
309.347
309.577
309.812
310.04
310.249
310.424
310.551
310.618
310.618
310.551
310.424
310.249
310.04
309.812
309.577
309.347
309.138
308.984
303.012
303.063
303.133
303.21
303.289
303.366
303.436
303.494
303.537
303.559
303.559
303.537
303.494
303.436
303.366
303.289
303.21
303.133
303.063
303.012
345.316
346.124
347.147
348.249
349.372
350.461
351.456
352.287
352.889
353.205
353.205
352.889
352.287
351.456
350.461
349.372
348.249
347.147
346.124
345.316
339.295
339.979
340.861
341.815
342.787
343.73
344.591
345.31
345.829
346.103
346.103
345.829
345.31
344.591
343.73
342.787
341.815
340.861
339.979
339.295
333.266
333.834
334.577
335.383
336.205
337.002
337.729
338.336
338.775
339.006
339.006
338.775
338.336
337.729
337.002
336.205
335.383
334.577
333.834
333.266
327.231
327.688
328.294
328.953
329.625
330.276
330.87
331.366
331.725
331.913
331.913
331.725
331.366
330.87
330.276
329.625
328.953
328.294
327.688
327.231
321.191
321.541
322.011
322.524
323.046
323.552
324.014
324.4
324.678
324.824
324.824
324.678
324.4
324.014
323.552
323.046
322.524
322.011
321.541
321.191
315.146
315.394
315.73
316.095
316.468
316.83
317.16
317.435
317.634
317.738
317.738
317.634
317.435
317.16
316.83
316.468
316.095
315.73
315.394
315.146
309.099
309.247
309.448
309.668
309.892
310.109
310.307
310.472
310.592
310.654
310.654
310.592
310.472
310.307
310.109
309.892
309.668
309.448
309.247
309.099
303.05
303.1
303.167
303.241
303.316
303.389
303.455
303.51
303.55
303.571
303.571
303.55
303.51
303.455
303.389
303.316
303.241
303.167
303.1
303.05
346.022
346.794
347.769
348.815
349.876
350.901
351.834
352.611
353.171
353.465
353.465
353.171
352.611
351.834
350.901
349.876
348.815
347.769
346.794
346.022
339.905
340.559
341.399
342.305
343.224
344.111
344.918
345.59
346.075
346.329
346.329
346.075
345.59
344.918
344.111
343.224
342.305
341.399
340.559
339.905
333.781
334.323
335.032
335.797
336.574
337.324
338.006
338.574
338.983
339.198
339.198
338.983
338.574
338.006
337.324
336.574
335.797
335.032
334.323
333.781
327.651
328.088
328.666
329.291
329.927
330.54
331.097
331.561
331.896
332.071
332.071
331.896
331.561
331.097
330.54
329.927
329.291
328.666
328.088
327.651
321.517
321.852
322.3
322.787
323.281
323.758
324.191
324.551
324.811
324.947
324.947
324.811
324.551
324.191
323.758
323.281
322.787
322.3
321.852
321.517
315.379
315.617
315.936
316.283
316.636
316.977
317.286
317.544
317.729
317.826
317.826
317.729
317.544
317.286
316.977
316.636
316.283
315.936
315.617
315.379
309.239
309.381
309.572
309.781
309.993
310.197
310.383
310.537
310.649
310.707
310.707
310.649
310.537
310.383
310.197
309.993
309.781
309.572
309.381
309.239
303.097
303.145
303.209
303.279
303.35
303.418
303.48
303.532
303.569
303.589
303.589
303.569
303.532
303.48
303.418
303.35
303.279
303.209
303.145
303.097
346.856
347.59
348.513
349.499
350.494
351.451
352.318
353.038
353.556
353.827
353.827
353.556
353.038
352.318
351.451
350.494
349.499
348.513
347.59
346.856
340.626
341.248
342.043
342.897
343.759
344.588
345.338
345.961
346.409
346.643
346.643
346.409
345.961
345.338
344.588
343.759
342.897
342.043
341.248
340.626
334.39
334.906
335.576
336.298
337.027
337.727
338.362
338.888
339.266
339.464
339.464
339.266
338.888
338.362
337.727
337.027
336.298
335.576
334.906
334.39
328.149
328.564
329.11
329.7
330.296
330.87
331.388
331.818
332.128
332.289
332.289
332.128
331.818
331.388
330.87
330.296
329.7
329.11
328.564
328.149
321.904
322.222
322.646
323.105
323.568
324.014
324.417
324.751
324.992
325.117
325.117
324.992
324.751
324.417
324.014
323.568
323.105
322.646
322.222
321.904
315.655
315.881
316.183
316.51
316.842
317.16
317.448
317.687
317.858
317.948
317.948
317.858
317.687
317.448
317.16
316.842
316.51
316.183
315.881
315.655
309.405
309.539
309.72
309.917
310.116
310.307
310.48
310.623
310.726
310.78
310.78
310.726
310.623
310.48
310.307
310.116
309.917
309.72
309.539
309.405
303.153
303.198
303.258
303.324
303.391
303.455
303.513
303.561
303.595
303.614
303.614
303.595
303.561
303.513
303.455
303.391
303.324
303.258
303.198
303.153
347.825
348.518
349.386
350.309
351.236
352.124
352.924
353.586
354.06
354.308
354.308
354.06
353.586
352.924
352.124
351.236
350.309
349.386
348.518
347.825
341.463
342.05
342.799
343.598
344.402
345.17
345.863
346.436
346.846
347.061
347.061
346.846
346.436
345.863
345.17
344.402
343.598
342.799
342.05
341.463
335.097
335.584
336.215
336.89
337.57
338.22
338.806
339.29
339.637
339.818
339.818
339.637
339.29
338.806
338.22
337.57
336.89
336.215
335.584
335.097
328.726
329.118
329.632
330.185
330.741
331.272
331.751
332.147
332.431
332.579
332.579
332.431
332.147
331.751
331.272
330.741
330.185
329.632
329.118
328.726
322.352
322.653
323.052
323.481
323.914
324.327
324.7
325.007
325.228
325.343
325.343
325.228
325.007
324.7
324.327
323.914
323.481
323.052
322.653
322.352
315.975
316.188
316.473
316.78
317.088
317.384
317.65
317.869
318.027
318.109
318.109
318.027
317.869
317.65
317.384
317.088
316.78
316.473
316.188
315.975
309.597
309.724
309.894
310.079
310.264
310.441
310.601
310.733
310.828
310.877
310.877
310.828
310.733
310.601
310.441
310.264
310.079
309.894
309.724
309.597
303.217
303.26
303.317
303.378
303.441
303.5
303.554
303.598
303.629
303.646
303.646
303.629
303.598
303.554
303.5
303.441
303.378
303.317
303.26
303.217
348.931
349.582
350.394
351.254
352.113
352.93
353.664
354.269
354.7
354.926
354.926
354.7
354.269
353.664
352.93
352.113
351.254
350.394
349.582
348.931
342.42
342.971
343.672
344.416
345.16
345.868
346.504
347.027
347.401
347.596
347.596
347.401
347.027
346.504
345.868
345.16
344.416
343.672
342.971
342.42
335.905
336.362
336.952
337.582
338.211
338.81
339.348
339.79
340.106
340.271
340.271
340.106
339.79
339.348
338.81
338.211
337.582
336.952
336.362
335.905
329.386
329.754
330.235
330.75
331.265
331.755
332.195
332.556
332.815
332.949
332.949
332.815
332.556
332.195
331.755
331.265
330.75
330.235
329.754
329.386
322.865
323.147
323.521
323.921
324.321
324.702
325.044
325.325
325.526
325.631
325.631
325.526
325.325
325.044
324.702
324.321
323.921
323.521
323.147
322.865
316.341
316.541
316.807
317.093
317.379
317.652
317.896
318.097
318.24
318.315
318.315
318.24
318.097
317.896
317.652
317.379
317.093
316.807
316.541
316.341
309.816
309.936
310.095
310.267
310.439
310.602
310.749
310.87
310.956
311.001
311.001
310.956
310.87
310.749
310.602
310.439
310.267
310.095
309.936
309.816
303.291
303.331
303.384
303.442
303.499
303.554
303.603
303.644
303.672
303.687
303.687
303.672
303.644
303.603
303.554
303.499
303.442
303.384
303.331
303.291
350.179
350.788
351.544
352.34
353.131
353.881
354.55
355.099
355.49
355.693
355.693
355.49
355.099
354.55
353.881
353.131
352.34
351.544
350.788
350.179
343.499
344.015
344.667
345.356
346.042
346.691
347.271
347.746
348.085
348.261
348.261
348.085
347.746
347.271
346.691
346.042
345.356
344.667
344.015
343.499
336.816
337.244
337.793
338.376
338.956
339.506
339.996
340.398
340.684
340.833
340.833
340.684
340.398
339.996
339.506
338.956
338.376
337.793
337.244
336.816
330.131
330.475
330.923
331.4
331.874
332.324
332.725
333.054
333.288
333.409
333.409
333.288
333.054
332.725
332.324
331.874
331.4
330.923
330.475
330.131
323.443
323.707
324.055
324.426
324.795
325.144
325.456
325.712
325.894
325.989
325.989
325.894
325.712
325.456
325.144
324.795
324.426
324.055
323.707
323.443
316.754
316.941
317.189
317.454
317.718
317.967
318.19
318.373
318.503
318.571
318.571
318.503
318.373
318.19
317.967
317.718
317.454
317.189
316.941
316.754
310.064
310.176
310.325
310.484
310.642
310.792
310.926
311.036
311.114
311.154
311.154
311.114
311.036
310.926
310.792
310.642
310.484
310.325
310.176
310.064
303.374
303.411
303.461
303.514
303.567
303.618
303.662
303.699
303.725
303.739
303.739
303.725
303.699
303.662
303.618
303.567
303.514
303.461
303.411
303.374
351.573
352.14
352.841
353.575
354.3
354.984
355.591
356.087
356.44
356.623
356.623
356.44
356.087
355.591
354.984
354.3
353.575
352.841
352.14
351.573
344.704
345.184
345.789
346.425
347.053
347.646
348.172
348.602
348.907
349.066
349.066
348.907
348.602
348.172
347.646
347.053
346.425
345.789
345.184
344.704
337.834
338.232
338.742
339.279
339.811
340.313
340.758
341.122
341.38
341.514
341.514
341.38
341.122
340.758
340.313
339.811
339.279
338.742
338.232
337.834
330.962
331.283
331.698
332.138
332.573
332.983
333.348
333.645
333.856
333.966
333.966
333.856
333.645
333.348
332.983
332.573
332.138
331.698
331.283
330.962
324.089
324.335
324.658
324.999
325.338
325.657
325.941
326.172
326.336
326.421
326.421
326.336
326.172
325.941
325.657
325.338
324.999
324.658
324.335
324.089
317.216
317.39
317.619
317.864
318.106
318.334
318.536
318.701
318.819
318.88
318.88
318.819
318.701
318.536
318.334
318.106
317.864
317.619
317.39
317.216
310.341
310.445
310.583
310.73
310.875
311.012
311.134
311.233
311.303
311.34
311.34
311.303
311.233
311.134
311.012
310.875
310.73
310.583
310.445
310.341
303.467
303.501
303.547
303.597
303.645
303.691
303.732
303.765
303.789
303.801
303.801
303.789
303.765
303.732
303.691
303.645
303.597
303.547
303.501
303.467
353.115
353.641
354.288
354.963
355.625
356.247
356.796
357.243
357.559
357.723
357.723
357.559
357.243
356.796
356.247
355.625
354.963
354.288
353.641
353.115
346.038
346.483
347.042
347.626
348.2
348.739
349.215
349.602
349.876
350.018
350.018
349.876
349.602
349.215
348.739
348.2
347.626
347.042
346.483
346.038
338.961
339.33
339.8
340.294
340.781
341.236
341.639
341.967
342.199
342.319
342.319
342.199
341.967
341.639
341.236
340.781
340.294
339.8
339.33
338.961
331.883
332.18
332.564
332.968
333.365
333.738
334.068
334.336
334.526
334.624
334.624
334.526
334.336
334.068
333.738
333.365
332.968
332.564
332.18
331.883
324.805
325.033
325.33
325.644
325.954
326.244
326.501
326.709
326.857
326.933
326.933
326.857
326.709
326.501
326.244
325.954
325.644
325.33
325.033
324.805
317.726
317.888
318.1
318.324
318.545
318.753
318.936
319.085
319.19
319.245
319.245
319.19
319.085
318.936
318.753
318.545
318.324
318.1
317.888
317.726
310.648
310.744
310.871
311.006
311.139
311.264
311.374
311.463
311.526
311.559
311.559
311.526
311.463
311.374
311.264
311.139
311.006
310.871
310.744
310.648
303.569
303.601
303.644
303.689
303.734
303.776
303.812
303.842
303.864
303.875
303.875
303.864
303.842
303.812
303.776
303.734
303.689
303.644
303.601
303.569
354.808
355.295
355.89
356.508
357.111
357.674
358.169
358.57
358.853
359
359
358.853
358.57
358.169
357.674
357.111
356.508
355.89
355.295
354.808
347.502
347.914
348.428
348.963
349.486
349.974
350.403
350.751
350.996
351.123
351.123
350.996
350.751
350.403
349.974
349.486
348.963
348.428
347.914
347.502
340.197
340.538
340.972
341.424
341.867
342.28
342.643
342.937
343.145
343.252
343.252
343.145
342.937
342.643
342.28
341.867
341.424
340.972
340.538
340.197
332.893
333.168
333.521
333.891
334.253
334.591
334.889
335.129
335.299
335.387
335.387
335.299
335.129
334.889
334.591
334.253
333.891
333.521
333.168
332.893
325.589
325.8
326.074
326.362
326.644
326.907
327.138
327.326
327.458
327.526
327.526
327.458
327.326
327.138
326.907
326.644
326.362
326.074
325.8
325.589
318.287
318.436
318.631
318.837
319.038
319.226
319.392
319.525
319.62
319.669
319.669
319.62
319.525
319.392
319.226
319.038
318.837
318.631
318.436
318.287
310.984
311.073
311.19
311.314
311.435
311.548
311.647
311.728
311.784
311.814
311.814
311.784
311.728
311.647
311.548
311.435
311.314
311.19
311.073
310.984
303.682
303.712
303.751
303.792
303.833
303.871
303.904
303.931
303.95
303.96
303.96
303.95
303.931
303.904
303.871
303.833
303.792
303.751
303.712
303.682
356.65
357.099
357.646
358.21
358.758
359.267
359.712
360.072
360.325
360.455
360.455
360.325
360.072
359.712
359.267
358.758
358.21
357.646
357.099
356.65
349.095
349.475
349.947
350.435
350.911
351.352
351.738
352.049
352.269
352.382
352.382
352.269
352.049
351.738
351.352
350.911
350.435
349.947
349.475
349.095
341.542
341.857
342.255
342.668
343.07
343.444
343.771
344.034
344.22
344.316
344.316
344.22
344.034
343.771
343.444
343.07
342.668
342.255
341.857
341.542
333.992
334.245
334.569
334.907
335.237
335.542
335.81
336.026
336.178
336.256
336.256
336.178
336.026
335.81
335.542
335.237
334.907
334.569
334.245
333.992
326.443
326.637
326.889
327.152
327.408
327.646
327.854
328.022
328.14
328.201
328.201
328.14
328.022
327.854
327.646
327.408
327.152
326.889
326.637
326.443
318.896
319.033
319.213
319.401
319.584
319.754
319.903
320.023
320.107
320.151
320.151
320.107
320.023
319.903
319.754
319.584
319.401
319.213
319.033
318.896
311.35
311.432
311.54
311.652
311.762
311.864
311.954
312.026
312.077
312.103
312.103
312.077
312.026
311.954
311.864
311.762
311.652
311.54
311.432
311.35
303.805
303.832
303.868
303.906
303.943
303.977
304.007
304.031
304.048
304.057
304.057
304.048
304.031
304.007
303.977
303.943
303.906
303.868
303.832
303.805
358.636
359.05
359.55
360.064
360.562
361.021
361.421
361.742
361.968
362.084
362.084
361.968
361.742
361.421
361.021
360.562
360.064
359.55
359.05
358.636
350.811
351.16
351.593
352.038
352.469
352.867
353.214
353.493
353.689
353.79
353.79
353.689
353.493
353.214
352.867
352.469
352.038
351.593
351.16
350.811
342.99
343.28
343.644
344.021
344.386
344.723
345.017
345.253
345.419
345.504
345.504
345.419
345.253
345.017
344.723
344.386
344.021
343.644
343.28
342.99
335.174
335.407
335.704
336.012
336.311
336.587
336.827
337.021
337.156
337.226
337.226
337.156
337.021
336.827
336.587
336.311
336.012
335.704
335.407
335.174
327.361
327.54
327.77
328.01
328.243
328.457
328.644
328.795
328.9
328.955
328.955
328.9
328.795
328.644
328.457
328.243
328.01
327.77
327.54
327.361
319.551
319.677
319.842
320.013
320.179
320.333
320.467
320.574
320.65
320.688
320.688
320.65
320.574
320.467
320.333
320.179
320.013
319.842
319.677
319.551
311.743
311.818
311.917
312.02
312.12
312.212
312.292
312.357
312.402
312.426
312.426
312.402
312.357
312.292
312.212
312.12
312.02
311.917
311.818
311.743
303.936
303.961
303.994
304.029
304.062
304.093
304.12
304.142
304.157
304.165
304.165
304.157
304.142
304.12
304.093
304.062
304.029
303.994
303.961
303.936
360.745
361.125
361.583
362.052
362.502
362.916
363.276
363.564
363.765
363.869
363.869
363.765
363.564
363.276
362.916
362.502
362.052
361.583
361.125
360.745
352.629
352.951
353.346
353.752
354.143
354.502
354.814
355.064
355.239
355.329
355.329
355.239
355.064
354.814
354.502
354.143
353.752
353.346
352.951
352.629
344.522
344.788
345.122
345.466
345.797
346.101
346.365
346.576
346.724
346.801
346.801
346.724
346.576
346.365
346.101
345.797
345.466
345.122
344.788
344.522
336.422
336.637
336.909
337.19
337.461
337.71
337.926
338.1
338.221
338.283
338.283
338.221
338.1
337.926
337.71
337.461
337.19
336.909
336.637
336.422
328.329
328.494
328.705
328.924
329.135
329.329
329.497
329.632
329.726
329.774
329.774
329.726
329.632
329.497
329.329
329.135
328.924
328.705
328.494
328.329
320.241
320.358
320.508
320.664
320.815
320.954
321.074
321.171
321.238
321.273
321.273
321.238
321.171
321.074
320.954
320.815
320.664
320.508
320.358
320.241
312.157
312.226
312.317
312.411
312.501
312.584
312.657
312.715
312.755
312.776
312.776
312.755
312.715
312.657
312.584
312.501
312.411
312.317
312.226
312.157
304.075
304.098
304.128
304.16
304.19
304.218
304.242
304.262
304.275
304.282
304.282
304.275
304.262
304.242
304.218
304.19
304.16
304.128
304.098
304.075
362.922
363.272
363.692
364.119
364.528
364.903
365.226
365.484
365.665
365.757
365.757
365.665
365.484
365.226
364.903
364.528
364.119
363.692
363.272
362.922
354.498
354.794
355.157
355.527
355.883
356.207
356.488
356.713
356.869
356.95
356.95
356.869
356.713
356.488
356.207
355.883
355.527
355.157
354.794
354.498
346.09
346.335
346.641
346.955
347.256
347.531
347.77
347.96
348.092
348.16
348.16
348.092
347.96
347.77
347.531
347.256
346.955
346.641
346.335
346.09
337.696
337.893
338.143
338.4
338.647
338.872
339.067
339.223
339.331
339.387
339.387
339.331
339.223
339.067
338.872
338.647
338.4
338.143
337.893
337.696
329.314
329.466
329.66
329.859
330.051
330.227
330.379
330.5
330.585
330.628
330.628
330.585
330.5
330.379
330.227
330.051
329.859
329.66
329.466
329.314
320.942
321.049
321.187
321.33
321.467
321.593
321.702
321.788
321.849
321.88
321.88
321.849
321.788
321.702
321.593
321.467
321.33
321.187
321.049
320.942
312.576
312.64
312.723
312.809
312.892
312.967
313.032
313.084
313.121
313.14
313.14
313.121
313.084
313.032
312.967
312.892
312.809
312.723
312.64
312.576
304.215
304.237
304.264
304.293
304.321
304.346
304.368
304.386
304.398
304.404
304.404
304.398
304.386
304.368
304.346
304.321
304.293
304.264
304.237
304.215
365.027
365.35
365.738
366.13
366.505
366.846
367.139
367.373
367.536
367.62
367.62
367.536
367.373
367.139
366.846
366.505
366.13
365.738
365.35
365.027
356.283
356.557
356.892
357.233
357.558
357.855
358.11
358.313
358.455
358.528
358.528
358.455
358.313
358.11
357.855
357.558
357.233
356.892
356.557
356.283
347.572
347.799
348.082
348.37
348.647
348.898
349.115
349.287
349.408
349.469
349.469
349.408
349.287
349.115
348.898
348.647
348.37
348.082
347.799
347.572
338.888
339.071
339.302
339.539
339.765
339.972
340.15
340.291
340.39
340.44
340.44
340.39
340.291
340.15
339.972
339.765
339.539
339.302
339.071
338.888
330.229
330.37
330.549
330.733
330.91
331.071
331.209
331.32
331.396
331.436
331.436
331.396
331.32
331.209
331.071
330.91
330.733
330.549
330.37
330.229
321.589
321.688
321.816
321.948
322.074
322.19
322.289
322.368
322.423
322.451
322.451
322.423
322.368
322.289
322.19
322.074
321.948
321.816
321.688
321.589
312.962
313.022
313.099
313.178
313.254
313.323
313.383
313.43
313.463
313.48
313.48
313.463
313.43
313.383
313.323
313.254
313.178
313.099
313.022
312.962
304.344
304.364
304.39
304.416
304.442
304.465
304.485
304.501
304.512
304.518
304.518
304.512
304.501
304.485
304.465
304.442
304.416
304.39
304.364
304.344
366.686
366.99
367.354
367.723
368.073
368.391
368.664
368.881
369.032
369.11
369.11
369.032
368.881
368.664
368.391
368.073
367.723
367.354
366.99
366.686
357.636
357.894
358.21
358.531
358.837
359.114
359.353
359.542
359.674
359.741
359.741
359.674
359.542
359.353
359.114
358.837
358.531
358.21
357.894
357.636
348.66
348.874
349.142
349.414
349.674
349.91
350.113
350.274
350.386
350.444
350.444
350.386
350.274
350.113
349.91
349.674
349.414
349.142
348.874
348.66
339.742
339.916
340.134
340.358
340.572
340.766
340.933
341.065
341.157
341.204
341.204
341.157
341.065
340.933
340.766
340.572
340.358
340.134
339.916
339.742
330.872
331.005
331.176
331.35
331.517
331.668
331.798
331.902
331.974
332.011
332.011
331.974
331.902
331.798
331.668
331.517
331.35
331.176
331.005
330.872
322.037
322.132
322.253
322.378
322.498
322.606
322.699
322.774
322.825
322.852
322.852
322.825
322.774
322.699
322.606
322.498
322.378
322.253
322.132
322.037
313.227
313.284
313.357
313.432
313.504
313.569
313.625
313.67
313.701
313.717
313.717
313.701
313.67
313.625
313.569
313.504
313.432
313.357
313.284
313.227
304.432
304.451
304.476
304.501
304.525
304.547
304.566
304.581
304.591
304.596
304.596
304.591
304.581
304.566
304.547
304.525
304.501
304.476
304.451
304.432
)
;

boundaryField
{
    hotSide
    {
        type            fixedGradient;
        gradient        nonuniform List<scalar> 
400
(
462.086
463.322
465.804
469.552
474.591
480.955
488.684
497.819
508.403
520.482
534.096
549.285
566.087
584.533
604.653
626.471
650.008
675.28
702.3
731.079
474.039
475.181
477.478
480.954
485.647
491.6
498.865
507.496
517.549
529.08
542.142
556.783
573.049
590.977
610.6
631.948
655.041
679.899
706.534
734.957
486.976
488.005
490.08
493.235
497.518
502.987
509.709
517.754
527.195
538.1
550.535
564.56
580.227
597.582
616.661
637.497
660.113
684.528
710.755
738.803
500.681
501.578
503.396
506.178
509.988
514.902
521.005
528.388
537.14
547.347
559.09
572.44
587.457
604.195
622.695
642.99
665.106
689.061
714.866
742.53
514.771
515.52
517.049
519.415
522.698
526.997
532.419
539.077
547.082
556.54
567.545
580.181
594.519
610.616
628.519
648.263
669.873
693.365
718.752
746.036
528.66
529.251
530.471
532.392
535.117
538.766
543.474
549.379
556.614
565.304
575.56
587.478
601.137
616.6
633.918
653.124
674.245
697.295
722.282
749.207
541.551
541.984
542.896
544.376
546.548
549.558
553.568
558.741
565.232
573.187
582.731
593.972
606.997
621.872
638.65
657.366
678.043
700.693
725.322
751.927
552.492
552.782
553.417
554.501
556.178
558.62
562.011
566.539
572.38
579.696
588.626
599.286
611.77
626.148
642.473
660.778
681.086
703.407
727.741
754.085
560.499
560.68
561.102
561.883
563.184
565.194
568.119
572.162
577.517
584.357
592.833
603.066
615.153
629.169
645.164
663.174
683.216
705.301
729.426
755.584
564.742
564.863
565.17
565.786
566.883
568.659
571.331
575.113
580.207
586.793
595.026
605.032
616.91
630.734
646.556
664.41
684.314
706.275
730.29
756.352
564.742
564.863
565.17
565.786
566.883
568.659
571.331
575.113
580.207
586.793
595.026
605.032
616.91
630.734
646.556
664.41
684.314
706.275
730.29
756.352
560.499
560.68
561.102
561.883
563.184
565.194
568.119
572.162
577.517
584.357
592.833
603.066
615.153
629.169
645.164
663.174
683.216
705.301
729.426
755.584
552.492
552.782
553.417
554.501
556.178
558.62
562.011
566.539
572.38
579.696
588.626
599.286
611.77
626.148
642.473
660.778
681.086
703.407
727.741
754.085
541.551
541.984
542.896
544.376
546.548
549.558
553.568
558.741
565.232
573.187
582.731
593.972
606.997
621.872
638.65
657.366
678.043
700.693
725.322
751.927
528.66
529.251
530.471
532.392
535.117
538.766
543.474
549.379
556.614
565.304
575.56
587.478
601.137
616.6
633.918
653.124
674.245
697.295
722.282
749.207
514.771
515.52
517.049
519.415
522.698
526.997
532.419
539.077
547.082
556.54
567.545
580.181
594.519
610.616
628.519
648.263
669.873
693.365
718.752
746.036
500.681
501.578
503.396
506.178
509.988
514.902
521.005
528.388
537.14
547.347
559.09
572.44
587.457
604.195
622.695
642.99
665.106
689.061
714.866
742.53
486.976
488.005
490.08
493.235
497.518
502.987
509.709
517.754
527.195
538.1
550.535
564.56
580.227
597.582
616.661
637.497
660.113
684.528
710.755
738.803
474.039
475.181
477.478
480.954
485.647
491.6
498.865
507.496
517.549
529.08
542.142
556.783
573.049
590.977
610.6
631.948
655.041
679.899
706.534
734.957
462.086
463.322
465.804
469.552
474.591
480.955
488.684
497.819
508.403
520.482
534.096
549.285
566.087
584.533
604.653
626.471
650.008
675.28
702.3
731.079
)
;
    }
    coldSide
    {
        type            mixed;
        refValue        uniform 300;
        refGradient     uniform 0;
        valueFraction   uniform 0.991591;
        source          uniform 0;
        value           nonuniform List<scalar> 
400
(
300.025
300.025
300.025
300.025
300.025
300.026
300.026
300.027
300.027
300.028
300.028
300.029
300.03
300.031
300.032
300.033
300.034
300.035
300.037
300.037
300.025
300.025
300.025
300.026
300.026
300.026
300.026
300.027
300.027
300.028
300.029
300.029
300.03
300.031
300.032
300.033
300.034
300.036
300.037
300.037
300.026
300.026
300.026
300.026
300.026