/*--------------------------------*- C++ -*----------------------------------*\
| =========                 |                                                 |
| \\      /  F ield         | OpenFOAM: The Open Source CFD Toolbox           |
|  \\    /   O peration     | Version:  2212                                  |
|   \\  /    A nd           | Website:  www.openfoam.com                      |
|    \\/     M anipulation  |                                                 |
\*---------------------------------------------------------------------------*/
FoamFile
{
    version     2.0;
    format      ascii;
    arch        "LSB;label=32;scalar=64";
    class       volScalarField;
    location    "0";
    object      stateMean;
}
// * * * * * * * * * * * * * * * * * * * * * * * * * * * * * * * * * * * * * //

dimensions      [0 0 0 1 0 0 0];

internalField   nonuniform List<scalar> 
3200
(
343.979
344.901
345.959
346.873
347.764
348.507
349.093
349.634
349.874
350.053
350.086
349.923
349.654
349.251
348.623
347.946
347.037
346.085
345.131
344.161
338.266
339.024
339.996
340.85
341.568
342.224
342.782
343.057
343.39
343.549
343.516
343.345
343.135
342.803
342.294
341.663
340.854
340.006
339.161
338.3
332.523
333.108
333.923
334.627
335.257
335.812
336.254
336.611
336.845
336.909
336.893
336.86
336.576
336.199
335.862
335.353
334.636
333.987
333.243
332.524
326.692
327.248
327.889
328.422
328.988
329.391
329.721
330.004
330.161
330.246
330.304
330.185
330.02
329.745
329.421
328.952
328.462
327.841
327.208
326.691
320.781
321.274
321.679
322.181
322.573
322.874
323.186
323.378
323.503
323.592
323.633
323.561
323.381
323.243
322.911
322.532
322.117
321.744
321.192
320.701
314.896
315.166
315.547
315.867
316.147
316.415
316.611
316.764
316.823
316.864
316.884
316.848
316.724
316.542
316.404
316.19
315.858
315.525
315.2
314.959
308.925
309.202
309.35
309.543
309.705
309.827
309.99
310.073
310.092
310.122
310.144
310.05
310.085
309.918
309.881
309.741
309.577
309.306
309.131
308.991
303.026
303.084
303.138
303.147
303.268
303.337
303.319
303.367
303.391
303.438
303.412
303.339
303.306
303.362
303.298
303.288
303.143
303.168
303.095
302.996
344.871
345.791
346.858
347.938
348.787
349.49
350.185
350.592
350.947
351.145
351.222
350.983
350.651
350.178
349.685
348.941
348.055
347.022
345.913
345.009
338.941
339.85
340.771
341.582
342.392
343.069
343.584
343.979
344.263
344.354
344.321
344.255
343.939
343.64
343.152
342.496
341.723
340.797
339.876
339.082
333.091
333.759
334.592
335.266
335.929
336.49
336.902
337.295
337.452
337.568
337.645
337.487
337.261
336.96
336.489
335.924
335.343
334.57
333.796
333.147
327.108
327.668
328.331
328.913
329.478
329.905
330.343
330.602
330.714
330.831
330.772
330.728
330.492
330.244
329.934
329.429
328.962
328.355
327.727
327.117
321.193
321.632
322.078
322.523
322.921
323.276
323.609
323.736
323.924
324.031
324.003
324.029
323.839
323.597
323.324
322.988
322.544
322.09
321.552
321.209
315.132
315.456
315.781
316.156
316.428
316.671
316.926
317.07
317.187
317.227
317.186
317.152
316.974
316.844
316.722
316.419
316.111
315.799
315.37
315.134
309.114
309.295
309.457
309.666
309.92
310.015
310.147
310.273
310.249
310.329
310.339
310.287
310.226
310.169
310.011
309.793
309.733
309.44
309.292
309.106
303.054
303.129
303.2
303.295
303.252
303.345
303.314
303.395
303.45
303.42
303.48
303.462
303.403
303.39
303.369
303.305
303.316
303.139
303.166
303.067
346.072
347.065
348.212
349.201
350.092
350.847
351.528
351.976
352.33
352.478
352.488
352.311
352.155
351.631
350.982
350.258
349.362
348.302
347.21
346.246
340.017
340.871
341.874
342.775
343.533
344.187
344.752
345.049
345.393
345.568
345.49
345.413
345.119
344.767
344.257
343.6
342.881
341.883
341.023
340.16
333.985
334.727
335.472
336.275
336.883
337.466
337.902
338.218
338.449
338.563
338.652
338.466
338.318
337.978
337.482
336.971
336.214
335.468
334.683
333.928
327.873
328.418
329.137
329.669
330.24
330.628
331.053
331.299
331.552
331.599
331.636
331.575
331.32
331.072
330.672
330.194
329.708
329.062
328.374
327.828
321.693
322.206
322.612
323.174
323.588
323.851
324.231
324.426
324.573
324.67
324.6
324.503
324.366
324.184
323.89
323.505
323.084
322.592
322.094
321.709
315.486
315.822
316.195
316.589
316.914
317.112
317.278
317.413
317.588
317.617
317.624
317.537
317.368
317.307
317.042
316.859
316.478
316.25
315.834
315.458
309.288
309.471
309.762
309.89
310.12
310.336
310.365
310.482
310.507
310.541
310.594
310.551
310.5
310.38
310.263
310.114
309.884
309.727
309.474
309.307
303.135
303.173
303.274
303.374
303.39
303.51
303.504
303.531
303.496
303.564
303.578
303.558
303.496
303.441
303.412
303.367
303.267
303.332
303.183
303.107
347.408
348.35
349.475
350.619
351.538
352.306
352.973
353.426
353.823
353.95
353.99
353.783
353.495
353.053
352.42
351.631
350.662
349.655
348.561
347.478
341.027
341.993
342.988
343.924
344.697
345.357
345.92
346.381
346.684
346.826
346.826
346.597
346.42
345.979
345.448
344.773
343.971
343.083
342.073
341.295
334.893
335.611
336.457
337.164
337.868
338.439
338.971
339.306
339.542
339.625
339.703
339.544
339.374
338.944
338.535
337.964
337.212
336.448
335.639
334.947
328.651
329.186
329.907
330.486
331.088
331.543
331.918
332.217
332.382
332.507
332.519
332.365
332.157
331.881
331.496
331.03
330.482
329.769
329.202
328.592
322.313
322.683
323.303
323.715
324.237
324.535
324.855
325.025
325.186
325.303
325.279
325.205
325.03
324.827
324.539
324.152
323.725
323.248
322.667
322.279
315.965
316.243
316.617
316.94
317.334
317.627
317.833
317.929
318.033
318.12
318.148
318.049
317.923
317.797
317.502
317.292
316.981
316.58
316.216
315.891
309.661
309.755
310.03
310.245
310.43
310.547
310.649
310.787
310.839
310.873
310.814
310.832
310.744
310.688
310.533
310.391
310.226
309.985
309.804
309.507
303.231
303.29
303.302
303.448
303.46
303.443
303.563
303.586
303.585
303.607
303.667
303.675
303.62
303.586
303.601
303.504
303.386
303.35
303.287
303.149
348.653
349.711
350.893
351.902
352.949
353.723
354.368
354.942
355.231
355.414
355.471
355.297
354.928
354.495
353.772
353.058
352.098
350.978
349.795
348.772
342.257
343.143
344.188
345.149
345.917
346.557
347.212
347.675
347.994
348.028
348.061
347.885
347.681
347.202
346.656
345.976
345.119
344.284
343.214
342.339
335.801
336.553
337.371
338.206
338.92
339.46
339.99
340.426
340.605
340.741
340.705
340.596
340.357
339.954
339.512
338.898
338.18
337.448
336.64
335.864
329.374
329.964
330.698
331.31
331.924
332.285
332.768
333.067
333.244
333.354
333.374
333.205
333.009
332.74
332.376
331.88
331.285
330.612
329.938
329.329
322.899
323.368
323.903
324.4
324.788
325.187
325.552
325.801
325.906
326.029
325.952
325.803
325.724
325.58
325.232
324.845
324.402
323.836
323.303
322.851
316.364
316.749
317.079
317.459
317.765
318.044
318.189
318.439
318.521
318.552
318.495
318.496
318.408
318.238
318.054
317.762
317.427
316.997
316.723
316.391
309.856
310.075
310.234
310.463
310.63
310.799
310.962
311.058
311.107
311.071
311.155
311.162
311.029
310.958
310.804
310.66
310.418
310.185
310.029
309.843
303.333
303.438
303.497
303.558
303.594
303.674
303.677
303.702
303.702
303.747
303.783
303.749
303.738
303.743
303.621
303.567
303.484
303.456
303.329
303.339
349.897
351.012
352.151
353.367
354.338
355.162
355.867
356.311
356.696
356.881
356.894
356.723
356.37
355.822
355.187
354.421
353.425
352.318
351.186
350.095
343.358
344.222
345.272
346.32
347.128
347.892
348.471
348.847
349.221
349.33
349.307
349.177
348.862
348.441
347.894
347.182
346.349
345.388
344.34
343.441
336.776
337.486
338.362
339.192
339.967
340.611
341.041
341.352
341.695
341.83
341.815
341.688
341.404
340.95
340.509
339.994
339.225
338.33
337.595
336.782
330.063
330.824
331.454
332.121
332.663
333.232
333.584
333.955
334.143
334.242
334.166
334.172
333.83
333.624
333.194
332.686
332.071
331.436
330.757
330.096
323.445
323.913
324.477
324.94
325.473
325.855
326.169
326.379
326.578
326.681
326.639
326.569
326.449
326.121
325.836
325.493
324.979
324.484
323.906
323.476
316.889
317.185
317.505
317.835
318.183
318.535
318.709
318.9
319.01
319.049
319.029
318.935
318.871
318.662
318.459
318.148
317.757
317.469
317.069
316.747
310.047
310.275
310.512
310.761
310.9
311.138
311.252
311.409
311.392
311.44
311.522
311.42
311.29
311.186
311.134
310.885
310.717
310.516
310.227
310.087
303.473
303.511
303.526
303.608
303.582
303.679
303.794
303.8
303.851
303.892
303.795
303.877
303.814
303.743
303.691
303.632
303.538
303.554
303.499
303.391
351.096
352.206
353.402
354.586
355.628
356.456
357.227
357.662
358.112
358.214
358.233
358.099
357.739
357.19
356.505
355.747
354.696
353.553
352.414
351.209
344.428
345.414
346.362
347.351
348.307
349.095
349.661
350.065
350.355
350.479
350.502
350.406
350.087
349.646
349.055
348.268
347.375
346.416
345.358
344.453
337.65
338.466
339.319
340.095
340.934
341.543
342.008
342.419
342.678
342.839
342.764
342.75
342.356
342.017
341.495
340.849
340.096
339.236
338.356
337.695
330.894
331.553
332.226
332.878
333.464
334.037
334.431
334.775
334.992
335.053
335.046
334.894
334.689
334.444
333.994
333.52
332.884
332.164
331.468
330.872
324.036
324.531
325.117
325.562
326.095
326.525
326.859
326.977
327.248
327.356
327.315
327.268
327.008
326.829
326.472
326.002
325.539
325.081
324.482
323.988
317.114
317.506
317.945
318.351
318.787
318.979
319.117
319.277
319.387
319.516
319.48
319.373
319.319
319.152
318.88
318.575
318.209
317.913
317.432
317.177
310.322
310.509
310.798
311.052
311.287
311.358
311.538
311.566
311.713
311.71
311.691
311.691
311.575
311.482
311.346
311.189
311.009
310.761
310.579
310.287
303.493
303.538
303.545
303.672
303.752
303.797
303.872
303.91
303.955
303.922
303.928
303.894
303.959
303.867
303.767
303.783
303.673
303.565
303.553
303.493
352.184
353.419
354.658
355.872
356.848
357.812
358.439
359.004
359.349
359.5
359.549
359.447
359.092
358.536
357.739
356.979
355.883
354.813
353.443
352.402
345.42
346.34
347.357
348.403
349.425
350.048
350.64
351.147
351.534
351.674
351.627
351.491
351.238
350.74
350.187
349.406
348.463
347.418
346.341
345.317
338.383
339.272
340.226
341.035
341.782
342.567
342.955
343.327
343.653
343.741
343.705
343.667
343.368
342.952
342.463
341.774
341.028
340.162
339.213
338.554
331.567
332.176
332.954
333.617
334.234
334.78
335.214
335.51
335.66
335.829
335.779
335.75
335.45
335.165
334.716
334.22
333.577
332.804
332.162
331.54
324.613
325.1
325.627
326.195
326.695
327.086
327.404
327.641
327.817
327.986
327.903
327.807
327.612
327.324
327.015
326.621
326.196
325.558
325.07
324.484
317.549
317.835
318.398
318.75
319.07
319.362
319.638
319.747
319.875
319.955
319.951
319.912
319.79
319.524
319.302
319.05
318.605
318.328
317.933
317.534
310.488
310.759
310.987
311.251
311.521
311.676
311.785
311.877
311.968
311.979
312.061
311.914
311.854
311.816
311.666
311.465
311.266
310.902
310.702
310.541
303.562
303.616
303.674
303.761
303.779
303.891
303.925
303.952
304.015
304.027
304.008
303.94
303.962
303.883
303.907
303.845
303.771
303.67
303.594
303.535
353.321
354.48
355.762
356.947
358.09
358.905
359.712
360.292
360.636
360.799
360.812
360.64
360.234
359.728
358.985
358.108
357.09
355.883
354.605
353.419
346.304
347.342
348.433
349.497
350.408
351.074
351.82
352.214
352.566
352.697
352.722
352.593
352.262
351.764
351.193
350.402
349.433
348.436
347.343
346.353
339.312
340.094
341.038
341.927
342.689
343.233
343.835
344.28
344.54
344.614
344.646
344.51
344.227
343.837
343.288
342.683
341.843
341.018
340.082
339.263
332.231
332.828
333.58
334.333
334.941
335.465
335.953
336.299
336.452
336.637
336.546
336.479
336.214
335.842
335.484
334.932
334.237
333.526
332.787
332.102
325.077
325.606
326.178
326.751
327.203
327.639
328.022
328.193
328.391
328.526
328.396
328.399
328.159
327.897
327.555
327.132
326.672
326.133
325.522
325.057
317.924
318.266
318.781
319.076
319.42
319.779
319.999
320.281
320.334
320.323
320.32
320.271
320.107
320.034
319.679
319.48
319.055
318.665
318.257
317.956
310.713
310.95
311.248
311.508
311.667
311.819
312.013
312.11
312.214
312.243
312.233
312.153
312.153
312.006
311.927
311.661
311.488
311.263
310.945
310.736
303.555
303.684
303.825
303.834
303.848
304.012
304.037
304.045
304.065
304.085
304.11
304.069
304.092
304.042
304.011
303.853
303.837
303.726
303.761
303.636
354.265
355.472
356.831
358.083
359.123
360.073
360.785
361.393
361.69
361.893
361.957
361.784
361.375
360.826
360.075
359.173
358.127
356.907
355.586
354.449
347.112
348.153
349.314
350.391
351.42
352.148
352.808
353.199
353.548
353.696
353.703
353.506
353.228
352.732
352.149
351.367
350.406
349.337
348.173
347.193
339.997
340.814
341.797
342.728
343.47
344.18
344.685
345.123
345.381
345.493
345.493
345.349
345.065
344.661
344.073
343.451
342.623
341.725
340.764
340.02
332.733
333.495
334.263
335.01
335.58
336.117
336.639
337.049
337.182
337.21
337.288
337.086
336.909
336.554
336.136
335.584
334.886
334.146
333.352
332.738
325.534
326.067
326.684
327.235
327.729
328.135
328.444
328.754
328.912
328.976
328.987
328.903
328.723
328.4
328.066
327.678
327.199
326.579
326.026
325.42
318.202
318.561
319.05
319.452
319.84
320.181
320.304
320.543
320.627
320.712
320.729
320.72
320.484
320.389
319.993
319.77
319.398
318.989
318.554
318.169
310.956
311.201
311.431
311.711
311.92
312.148
312.292
312.319
312.42
312.508
312.508
312.45
312.338
312.141
312.035
311.888
311.69
311.399
311.215
310.916
303.656
303.769
303.848
303.912
304.055
304.021
304.06
304.142
304.08
304.159
304.235
304.158
304.11
304.1
304.08
303.954
303.905
303.845
303.736
303.64
355.238
356.45
357.783
359.019
360.118
361.064
361.775
362.418
362.765
362.997
363.011
362.781
362.473
361.875
361.207
360.142
359.09
357.821
356.59
355.359
347.979
349.047
350.101
351.224
352.225
353.023
353.645
354.099
354.445
354.626
354.599
354.511
354.146
353.636
353.018
352.215
351.245
350.139
348.997
347.95
340.716
341.566
342.454
343.428
344.21
344.864
345.482
345.889
346.175
346.299
346.254
346.174
345.817
345.422
344.86
344.176
343.386
342.438
341.478
340.705
333.395
334.023
334.75
335.561
336.263
336.754
337.234
337.578
337.789
337.818
337.929
337.756
337.521
337.206
336.701
336.139
335.446
334.705
333.956
333.275
325.942
326.533
327.138
327.64
328.212
328.676
329.005
329.211
329.359
329.484
329.464
329.427
329.237
328.921
328.511
328.165
327.634
327.009
326.437
325.876
318.604
318.924
319.423
319.831
320.16
320.516
320.701
320.902
321.033
321.074
321.052
321.008
320.89
320.641
320.407
320.134
319.789
319.327
318.951
318.505
311.126
311.425
311.659
311.899
312.157
312.286
312.455
312.453
312.614
312.612
312.672
312.646
312.565
312.457
312.348
312.044
311.883
311.599
311.372
311.155
303.753
303.828
303.913
303.953
304.065
304.091
304.152
304.24
304.21
304.275
304.29
304.209
304.194
304.175
304.151
304.044
303.951
303.863
303.822
303.693
355.996
357.338
358.578
359.899
361.078
361.96
362.741
363.363
363.717
364.01
363.961
363.757
363.357
362.763
362.069
361.064
359.99
358.768
357.417
356.106
348.668
349.688
350.844
351.998
352.966
353.813
354.482
354.949
355.257
355.459
355.547
355.312
354.977
354.492
353.749
352.939
351.98
350.901
349.734
348.754
341.222
342.104
343.096
344.055
344.873
345.626
346.149
346.49
346.868
347.051
347.022
346.856
346.533
346.051
345.499
344.796
344.024
343.077
342.121
341.187
333.838
334.505
335.327
336.122
336.721
337.38
337.715
338.136
338.422
338.454
338.5
338.344
338.091
337.688
337.254
336.693
336.031
335.231
334.452
333.803
326.435
326.902
327.434
328.127
328.609
329.014
329.389
329.728
329.867
329.883
329.956
329.852
329.624
329.41
328.991
328.547
328.016
327.38
326.789
326.299
318.83
319.245
319.728
320.061
320.445
320.756
320.996
321.282
321.32
321.386
321.47
321.308
321.238
320.892
320.709
320.401
319.927
319.622
319.22
318.773
311.311
311.512
311.8
312.036
312.213
312.5
312.673
312.75
312.785
312.792
312.85
312.833
312.651
312.55
312.417
312.236
312.04
311.82
311.406
311.321
303.856
303.785
303.94
304.055
304.122
304.158
304.17
304.217
304.289
304.361
304.342
304.266
304.259
304.227
304.223
304.126
304.029
303.955
303.792
303.805
356.815
358.01
359.411
360.72
361.833
362.85
363.585
364.163
364.667
364.809
364.834
364.638
364.135
363.625
362.787
361.895
360.758
359.475
358.101
356.953
349.403
350.403
351.528
352.644
353.71
354.521
355.181
355.723
356.022
356.221
356.149
355.983
355.656
355.176
354.466
353.633
352.635
351.54
350.415
349.324
341.845
342.755
343.7
344.629
345.454
346.175
346.724
347.156
347.431
347.6
347.588
347.479
347.155
346.671
346.083
345.408
344.488
343.63
342.601
341.822
334.202
335.011
335.775
336.545
337.237
337.796
338.257
338.736
338.85
338.963
338.968
338.863
338.59
338.281
337.789
337.188
336.486
335.684
334.839
334.202
326.705
327.249
327.94
328.471
329.012
329.404
329.741
330.054
330.211
330.314
330.31
330.211
330.025
329.736
329.369
328.923
328.372
327.816
327.183
326.651
319.066
319.504
319.928
320.364
320.78
321.082
321.294
321.499
321.583
321.663
321.74
321.621
321.464
321.23
321.002
320.699
320.294
319.902
319.421
319.006
311.521
311.76
311.988
312.209
312.47
312.626
312.782
312.937
312.973
313.086
313.005
312.916
312.935
312.798
312.591
312.406
312.221
311.908
311.761
311.48
303.814
303.983
303.982
304.149
304.206
304.322
304.28
304.307
304.361
304.382
304.402
304.344
304.349
304.181
304.221
304.099
304.081
304.024
303.875
303.832
357.486
358.721
360.109
361.484
362.643
363.571
364.319
364.929
365.338
365.496
365.556
365.378
364.924
364.413
363.576
362.544
361.452
360.183
358.714
357.454
349.868
350.953
352.189
353.3
354.29
355.136
355.745
356.346
356.724
356.828
356.84
356.705
356.378
355.834
355.1
354.289
353.251
352.137
350.919
349.936
342.353
343.128
344.268
345.139
346.018
346.685
347.267
347.648
347.976
348.141
348.067
347.978
347.71
347.254
346.725
345.945
345.138
344.117
343.105
342.188
334.738
335.351
336.184
337.049
337.68
338.225
338.734
339.037
339.354
339.411
339.374
339.268
339.102
338.617
338.147
337.552
336.898
336.075
335.269
334.605
326.936
327.558
328.194
328.786
329.301
329.839
330.162
330.404
330.59
330.717
330.649
330.557
330.408
330.088
329.693
329.188
328.716
328.173
327.463
326.889
319.303
319.705
320.15
320.594
320.945
321.195
321.515
321.798
321.801
321.927
321.889
321.843
321.661
321.483
321.275
320.913
320.498
320.075
319.549
319.261
311.647
311.876
312.169
312.331
312.568
312.786
312.953
313.052
313.153
313.136
313.184
313.112
313.153
312.85
312.728
312.588
312.355
312.034
311.779
311.618
303.907
303.945
304.084
304.102
304.233
304.332
304.37
304.417
304.473
304.453
304.352
304.438
304.349
304.357
304.242
304.194
304.1
304.059
303.935
303.881
357.986
359.314
360.652
361.979
363.176
364.143
364.999
365.56
365.917
366.168
366.171
365.997
365.511
364.891
364.18
363.223
362.045
360.746
359.311
358.043
350.34
351.396
352.63
353.74
354.848
355.664
356.371
356.914
357.237
357.408
357.404
357.225
356.837
356.311
355.65
354.752
353.779
352.653
351.324
350.402
342.714
343.612
344.632
345.662
346.392
347.172
347.788
348.102
348.477
348.63
348.589
348.368
348.142
347.632
347.038
346.369
345.485
344.48
343.496
342.591
335.058
335.628
336.547
337.34
338.005
338.6
339.17
339.445
339.645
339.835
339.777
339.67
339.371
339.024
338.46
337.963
337.252
336.359
335.623
334.872
327.362
327.805
328.432
329.027
329.617
330.122
330.39
330.696
330.882
330.987
331.035
330.86
330.566
330.401
329.972
329.524
328.904
328.365
327.66
327.154
319.545
319.949
320.408
320.734
321.167
321.373
321.791
321.943
322.113
322.132
322.127
322.022
321.998
321.722
321.421
321.108
320.72
320.269
319.802
319.408
311.746
311.945
312.228
312.497
312.754
312.948
313.106
313.166
313.256
313.371
313.276
313.314
313.135
313.009
312.919
312.628
312.377
312.17
311.91
311.626
303.989
303.987
304.11
304.163
304.253
304.341
304.337
304.402
304.375
304.473
304.415
304.424
304.39
304.393
304.261
304.318
304.191
304.122
303.996
303.917
358.421
359.763
361.156
362.479
363.716
364.582
365.462
366.109
366.481
366.691
366.676
366.452
366.056
365.472
364.678
363.645
362.511
361.167
359.682
358.525
350.799
351.844
353.037
354.296
355.252
356.137
356.798
357.303
357.653
357.86
357.878
357.684
357.269
356.718
356.044
355.232
354.132
353.01
351.779
350.735
343.031
344.019
344.978
345.937
346.805
347.494
348.08
348.552
348.818
348.936
348.948
348.85
348.469
348.081
347.421
346.747
345.843
344.836
343.848
342.99
335.273
335.991
336.78
337.654
338.352
338.895
339.385
339.795
340.025
340.028
340.1
339.959
339.711
339.336
338.834
338.278
337.525
336.702
335.844
335.138
327.509
328.029
328.747
329.293
329.812
330.304
330.732
330.973
331.138
331.233
331.243
331.105
330.855
330.583
330.19
329.723
329.214
328.556
327.924
327.364
319.651
320.064
320.518
320.941
321.311
321.663
321.901
322.122
322.214
322.318
322.256
322.274
322.073
321.82
321.696
321.282
320.848
320.464
319.938
319.567
311.815
311.996
312.309
312.592
312.787
313.062
313.147
313.363
313.35
313.43
313.363
313.341
313.241
313.109
312.964
312.815
312.549
312.297
311.987
311.758
303.95
304.068
304.123
304.236
304.321
304.353
304.44
304.44
304.525
304.495
304.512
304.434
304.429
304.494
304.425
304.294
304.189
304.07
304.074
304.006
358.832
360.024
361.522
363.01
364.031
365.045
365.874
366.507
366.822
367.148
367.086
366.889
366.479
365.877
364.999
364.079
362.854
361.507
360.113
358.816
351.093
352.21
353.448
354.53
355.551
356.453
357.175
357.664
358.018
358.176
358.19
357.981
357.669
357.082
356.408
355.527
354.551
353.273
352.058
350.971
343.329
344.188
345.33
346.239
347.059
347.867
348.337
348.785
349.11
349.258
349.211
349.085
348.77
348.353
347.769
346.962
346.133
345.157
344.127
343.234
335.502
336.188
337.003
337.906
338.527
339.164
339.666
339.993
340.227
340.34
340.293
340.137
339.932
339.576
339.097
338.497
337.764
336.893
336.092
335.36
327.663
328.168
328.875
329.472
330.039
330.522
330.902
331.068
331.28
331.386
331.43
331.245
331.114
330.83
330.454
329.928
329.327
328.669
328.068
327.491
319.756
320.168
320.584
321.109
321.445
321.808
322.153
322.222
322.395
322.43
322.455
322.332
322.165
321.98
321.695
321.421
320.997
320.48
320.044
319.655
311.883
312.094
312.419
312.668
312.93
313.109
313.187
313.354
313.472
313.489
313.486
313.439
313.364
313.195
313.045
312.862
312.711
312.349
312.051
311.774
303.952
304.056
304.178
304.272
304.262
304.397
304.423
304.467
304.459
304.509
304.48
304.528
304.449
304.404
304.336
304.321
304.231
304.1
304.002
304.041
359.007
360.358
361.802
363.124
364.355
365.278
366.2
366.726
367.145
367.354
367.344
367.117
366.802
366.079
365.364
364.378
363.146
361.842
360.39
359.082
351.234
352.369
353.632
354.772
355.772
356.745
357.362
357.949
358.296
358.466
358.43
358.263
357.88
357.333
356.621
355.743
354.76
353.52
352.337
351.207
343.501
344.324
345.453
346.339
347.285
348.065
348.552
349.021
349.326
349.458
349.537
349.323
348.96
348.474
347.868
347.145
346.225
345.301
344.289
343.356
335.635
336.39
337.219
338.045
338.752
339.351
339.774
340.144
340.433
340.507
340.429
340.376
340.07
339.728
339.282
338.633
337.894
337.084
336.215
335.566
327.788
328.346
328.9
329.516
330.157
330.589
330.948
331.226
331.449
331.519
331.543
331.39
331.196
330.901
330.476
330.139
329.493
328.81
328.231
327.643
319.833
320.281
320.681
321.148
321.538
321.87
322.148
322.365
322.44
322.534
322.486
322.453
322.359
322.096
321.813
321.438
321.072
320.596
320.149
319.806
311.931
312.131
312.402
312.723
312.94
313.188
313.303
313.417
313.46
313.542
313.6
313.528
313.413
313.238
313.08
312.924
312.611
312.388
312.098
311.811
303.952
304.075
304.209
304.261
304.442
304.396
304.46
304.465
304.513
304.619
304.572
304.584
304.412
304.446
304.318
304.341
304.223
304.114
304.082
304.011
359.106
360.507
361.996
363.288
364.455
365.469
366.246
366.97
367.32
367.578
367.578
367.292
366.873
366.296
365.531
364.485
363.263
361.935
360.499
359.141
351.402
352.464
353.784
354.933
355.927
356.787
357.518
358.076
358.411
358.637
358.631
358.35
357.939
357.449
356.784
355.885
354.816
353.601
352.398
351.271
343.589
344.441
345.52
346.561
347.35
348.134
348.72
349.167
349.422
349.571
349.591
349.413
349.108
348.702
348.054
347.303
346.441
345.426
344.429
343.455
335.715
336.476
337.348
338.115
338.805
339.369
339.901
340.215
340.494
340.656
340.614
340.474
340.25
339.765
339.27
338.708
337.928
337.159
336.333
335.606
327.899
328.353
329
329.655
330.176
330.681
331.017
331.332
331.495
331.597
331.599
331.447
331.261
331.01
330.592
330.136
329.452
328.9
328.258
327.716
319.889
320.317
320.765
321.201
321.643
321.852
322.132
322.397
322.427
322.593
322.602
322.518
322.344
322.196
321.883
321.531
321.089
320.707
320.179
319.872
311.926
312.157
312.455
312.74
312.924
313.174
313.367
313.414
313.542
313.65
313.595
313.597
313.449
313.314
313.123
312.986
312.657
312.377
312.212
311.911
304.006
304.021
304.142
304.305
304.426
304.405
304.479
304.545
304.478
304.538
304.555
304.545
304.53
304.495
304.442
304.26
304.296
304.131
304.075
303.969
359.181
360.549
362.043
363.338
364.586
365.483
366.378
366.983
367.384
367.601
367.58
367.443
366.939
366.397
365.58
364.572
363.332
361.962
360.508
359.178
351.472
352.546
353.784
354.974
356.016
356.931
357.572
358.098
358.381
358.653
358.654
358.376
358.027
357.448
356.787
355.9
354.924
353.727
352.476
351.379
343.66
344.564
345.624
346.593
347.422
348.179
348.719
349.208
349.548
349.681
349.649
349.413
349.184
348.714
348.032
347.363
346.464
345.462
344.438
343.558
335.716
336.507
337.373
338.14
338.828
339.387
339.948
340.358
340.467
340.625
340.574
340.49
340.248
339.894
339.4
338.731
338.022
337.205
336.383
335.646
327.828
328.446
329.037
329.695
330.247
330.727
331.077
331.348
331.585
331.631
331.596
331.512
331.274
331.015
330.644
330.157
329.593
328.955
328.227
327.715
319.941
320.293
320.857
321.176
321.635
321.989
322.222
322.452
322.53
322.616
322.654
322.464
322.387
322.203
321.919
321.529
321.162
320.643
320.224
319.861
311.978
312.191
312.476
312.741
313.038
313.152
313.37
313.496
313.586
313.617
313.54
313.511
313.427
313.282
313.087
312.94
312.691
312.515
312.1
311.918
303.979
304.144
304.173
304.281
304.304
304.422
304.43
304.496
304.581
304.551
304.505
304.534
304.505
304.479
304.513
304.291
304.233
304.129
304.061
304.023
)
;

boundaryField
{
    hotSide
    {
        type            fixedGradient;
        gradient        nonuniform List<scalar> 
400
(
321.511
322.87
325.591
329.677
335.133
341.965
350.181
359.788
370.794
383.208
397.037
412.289
428.971
447.088
466.647
487.651
510.105
534.011
559.372
586.191
323.738
325.08
327.767
331.802
337.194
343.949
352.078
361.591
372.498
384.81
398.537
413.687
430.268
448.289
467.755
488.672
511.043
534.872
560.161
586.913
326.149
327.47
330.116
334.091
339.406
346.071
354.099
363.503
374.296
386.491
400.101
415.136
431.606
449.52
468.885
489.706
511.988
535.735
560.948
587.63
328.704
330
332.597
336.503
341.73
348.292
356.205
365.485
376.15
388.215
401.695
416.604
432.954
450.753
470.009
490.73
512.919
536.579
561.714
588.325
331.33
332.599
335.142
338.97
344.099
350.546
358.332
367.477
378.003
389.928
403.271
418.047
434.27
451.949
471.095
491.712
513.807
537.382
562.439
588.978
333.918
335.158
337.643
341.389
346.414
352.74
360.392
369.397
379.779
391.562
404.765
419.407
435.503
453.065
472.101
492.618
514.622
538.114
563.096
589.569
336.321
337.531
339.959
343.622
348.544
354.751
362.274
371.142
381.385
393.031
406.101
420.618
436.595
454.047
472.983
493.409
515.33
538.747
563.663
590.076
338.36
339.543
341.92
345.509
350.339
356.44
363.847
372.595
382.718
394.244
407.2
421.608
437.485
454.844
473.695
494.045
515.897
539.253
564.114
590.478
339.852
341.015
343.352
346.885
351.645
357.665
364.985
373.643
383.675
395.113
407.984
422.312
438.116
455.407
474.197
494.491
516.294
539.606
564.428
590.758
340.643
341.795
344.11
347.613
352.334
358.311
365.584
374.193
384.176
395.567
408.393
422.679
438.443
455.699
474.456
494.722
516.498
539.788
564.589
590.901
340.643
341.795
344.11
347.613
352.334
358.311
365.584
374.193
384.176
395.567
408.393
422.679
438.443
455.699
474.456
494.722
516.498
539.788
564.589
590.901
339.852
341.015
343.352
346.885
351.645
357.665
364.985
373.643
383.675
395.113
407.984
422.312
438.116
455.407
474.197
494.491
516.294
539.606
564.428
590.758
338.36
339.543
341.92
345.509
350.339
356.44
363.847
372.595
382.718
394.244
407.2
421.608
437.485
454.844
473.695
494.045
515.897
539.253
564.114
590.478
336.321
337.531
339.959
343.622
348.544
354.751
362.274
371.142
381.385
393.031
406.101
420.618
436.595
454.047
472.983
493.409
515.33
538.747
563.663
590.076
333.918
335.158
337.643
341.389
346.414
352.74
360.392
369.397
379.779
391.562
404.765
419.407
435.503
453.065
472.101
492.618
514.622
538.114
563.096
589.569
331.33
332.599
335.142
338.97
344.099
350.546
358.332
367.477
378.003
389.928
403.271
418.047
434.27
451.949
471.095
491.712
513.807
537.382
562.439
588.978
328.704
330
332.597
336.503
341.73
348.292
356.205
365.485
376.15
388.215
401.695
416.604
432.954
450.753
470.009
490.73
512.919
536.579
561.714
588.325
326.149
327.47
330.116
334.091
339.406
346.071
354.099
363.503
374.296
386.491
400.101
415.136
431.606
449.52
468.885
489.706
511.988
535.735
560.948
587.63
323.738
325.08
327.767
331.802
337.194
343.949
352.078
361.591
372.498
384.81
398.537
413.687
430.268
448.289
467.755
488.672
511.043
534.872
560.161
586.913
321.511
322.87
325.591
329.677
335.133
341.965
350.181
359.788
370.794
383.208
397.037
412.289
428.971
447.088
466.647
487.651
510.105
534.011
559.372
586.191
)
;
    }
    coldSide
    {
        type            mixed;
        refValue        uniform 300;
        refGradient     uniform 0;
        valueFraction   uniform 0.991591;
        source          uniform 0;
        value           nonuniform List<scalar> 
400
(
300.025
300.026
300.026
300.027
300.028
300.029
300.029
300.03
300.03
300.031
300.032
300.032
300.032
300.033
300.034
300.033
300.033
300.033
300.034
300.033
300.026
300.026
300.027
300.028
300.029
300.03
300.03
300.03
300.031
300.032
300.032
300.032
300.033
300.033
300.034
300.034
300.034
300.034