/*--------------------------------*- C++ -*----------------------------------*\
| =========                 |                                                 |
| \\      /  F ield         | OpenFOAM: The Open Source CFD Toolbox           |
|  \\    /   O peration     | Version:  2212                                  |
|   \\  /    A nd           | Website:  www.openfoam.com                      |
|    \\/     M anipulation  |                                                 |
\*---------------------------------------------------------------------------*/
FoamFile
{
    version     2.0;
    format      ascii;
    arch        "LSB;label=32;scalar=64";
    class       volScalarField;
    location    "0";
    object      Tdirect;
}
// * * * * * * * * * * * * * * * * * * * * * * * * * * * * * * * * * * * * * //

dimensions      [0 0 0 1 0 0 0];

internalField   nonuniform List<scalar> 
3200
(
320.713
321.101
321.597
322.137
322.694
323.24
323.744
324.169
324.479
324.643
324.643
324.479
324.169
323.744
323.24
322.694
322.137
321.597
321.101
320.713
318.03
318.359
318.787
319.254
319.736
320.208
320.644
321.012
321.279
321.421
321.421
321.279
321.012
320.644
320.208
319.736
319.254
318.787
318.359
318.03
315.315
315.588
315.948
316.343
316.75
317.149
317.517
317.827
318.053
318.172
318.172
318.053
317.827
317.517
317.149
316.75
316.343
315.948
315.588
315.315
312.571
312.791
313.084
313.407
313.74
314.066
314.366
314.62
314.804
314.902
314.902
314.804
314.62
314.366
314.066
313.74
313.407
313.084
312.791
312.571
309.804
309.973
310.201
310.452
310.71
310.964
311.197
311.394
311.537
311.612
311.612
311.537
311.394
311.197
310.964
310.71
310.452
310.201
309.973
309.804
307.02
307.139
307.301
307.48
307.665
307.846
308.013
308.153
308.255
308.309
308.309
308.255
308.153
308.013
307.846
307.665
307.48
307.301
307.139
307.02
304.222
304.293
304.39
304.498
304.609
304.717
304.817
304.902
304.963
304.995
304.995
304.963
304.902
304.817
304.717
304.609
304.498
304.39
304.293
304.222
301.416
301.44
301.472
301.508
301.546
301.582
301.616
301.644
301.664
301.675
301.675
301.664
301.644
301.616
301.582
301.546
301.508
301.472
301.44
301.416
320.771
321.156
321.647
322.183
322.733
323.274
323.772
324.192
324.498
324.66
324.66
324.498
324.192
323.772
323.274
322.733
322.183
321.647
321.156
320.771
318.081
318.407
318.831
319.294
319.771
320.238
320.669
321.032
321.296
321.436
321.436
321.296
321.032
320.669
320.238
319.771
319.294
318.831
318.407
318.081
315.358
315.628
315.985
316.377
316.779
317.174
317.538
317.844
318.067
318.185
318.185
318.067
317.844
317.538
317.174
316.779
316.377
315.985
315.628
315.358
312.606
312.824
313.115
313.435
313.764
314.087
314.384
314.634
314.816
314.912
314.912
314.816
314.634
314.384
314.087
313.764
313.435
313.115
312.824
312.606
309.832
309.999
310.225
310.473
310.729
310.98
311.211
311.405
311.546
311.621
311.621
311.546
311.405
311.211
310.98
310.729
310.473
310.225
309.999
309.832
307.039
307.157
307.318
307.496
307.679
307.858
308.022
308.161
308.262
308.315
308.315
308.262
308.161
308.022
307.858
307.679
307.496
307.318
307.157
307.039
304.233
304.304
304.401
304.507
304.617
304.724
304.823
304.907
304.967
304.999
304.999
304.967
304.907
304.823
304.724
304.617
304.507
304.401
304.304
304.233
301.42
301.444
301.476
301.512
301.548
301.584
301.618
301.645
301.666
301.676
301.676
301.666
301.645
301.618
301.584
301.548
301.512
301.476
301.444
301.42
320.887
321.266
321.749
322.275
322.814
323.343
323.83
324.24
324.538
324.695
324.695
324.538
324.24
323.83
323.343
322.814
322.275
321.749
321.266
320.887
318.182
318.503
318.92
319.374
319.841
320.299
320.719
321.074
321.331
321.467
321.467
321.331
321.074
320.719
320.299
319.841
319.374
318.92
318.503
318.182
315.444
315.71
316.061
316.445
316.84
317.226
317.581
317.881
318.098
318.213
318.213
318.098
317.881
317.581
317.226
316.84
316.445
316.061
315.71
315.444
312.677
312.891
313.177
313.491
313.814
314.13
314.42
314.664
314.842
314.935
314.935
314.842
314.664
314.42
314.13
313.814
313.491
313.177
312.891
312.677
309.887
310.051
310.273
310.517
310.768
311.013
311.239
311.429
311.566
311.639
311.639
311.566
311.429
311.239
311.013
310.768
310.517
310.273
310.051
309.887
307.079
307.195
307.353
307.527
307.707
307.882
308.043
308.178
308.276
308.328
308.328
308.276
308.178
308.043
307.882
307.707
307.527
307.353
307.195
307.079
304.257
304.327
304.422
304.526
304.634
304.739
304.836
304.917
304.976
305.007
305.007
304.976
304.917
304.836
304.739
304.634
304.526
304.422
304.327
304.257
301.428
301.451
301.483
301.518
301.554
301.589
301.622
301.649
301.669
301.679
301.679
301.669
301.649
301.622
301.589
301.554
301.518
301.483
301.451
301.428
321.063
321.433
321.904
322.415
322.939
323.45
323.92
324.316
324.603
324.754
324.754
324.603
324.316
323.92
323.45
322.939
322.415
321.904
321.433
321.063
318.335
318.648
319.054
319.497
319.95
320.393
320.799
321.141
321.389
321.519
321.519
321.389
321.141
320.799
320.393
319.95
319.497
319.054
318.648
318.335
315.573
315.833
316.176
316.549
316.932
317.306
317.65
317.938
318.147
318.258
318.258
318.147
317.938
317.65
317.306
316.932
316.549
316.176
315.833
315.573
312.783
312.993
313.272
313.577
313.89
314.196
314.476
314.712
314.883
314.973
314.973
314.883
314.712
314.476
314.196
313.89
313.577
313.272
312.993
312.783
309.97
310.13
310.347
310.584
310.828
311.065
311.283
311.466
311.599
311.669
311.669
311.599
311.466
311.283
311.065
310.828
310.584
310.347
310.13
309.97
307.138
307.252
307.406
307.575
307.749
307.919
308.075
308.205
308.3
308.35
308.35
308.3
308.205
308.075
307.919
307.749
307.575
307.406
307.252
307.138
304.293
304.361
304.453
304.555
304.659
304.761
304.855
304.933
304.99
305.02
305.02
304.99
304.933
304.855
304.761
304.659
304.555
304.453
304.361
304.293
301.44
301.463
301.494
301.528
301.563
301.597
301.628
301.654
301.673
301.683
301.683
301.673
301.654
301.628
301.597
301.563
301.528
301.494
301.463
301.44
321.299
321.657
322.113
322.606
323.109
323.599
324.049
324.425
324.699
324.842
324.842
324.699
324.425
324.049
323.599
323.109
322.606
322.113
321.657
321.299
318.54
318.844
319.237
319.663
320.099
320.523
320.912
321.238
321.474
321.598
321.598
321.474
321.238
320.912
320.523
320.099
319.663
319.237
318.844
318.54
315.748
316
316.331
316.691
317.059
317.418
317.746
318.021
318.22
318.325
318.325
318.22
318.021
317.746
317.418
317.059
316.691
316.331
316
315.748
312.926
313.129
313.399
313.693
313.995
314.288
314.556
314.781
314.943
315.029
315.029
314.943
314.781
314.556
314.288
313.995
313.693
313.399
313.129
312.926
310.081
310.237
310.446
310.675
310.909
311.137
311.346
311.52
311.647
311.713
311.713
311.647
311.52
311.346
311.137
310.909
310.675
310.446
310.237
310.081
307.218
307.328
307.477
307.641
307.808
307.971
308.119
308.244
308.334
308.382
308.382
308.334
308.244
308.119
307.971
307.808
307.641
307.477
307.328
307.218
304.341
304.407
304.496
304.594
304.695
304.792
304.882
304.956
305.011
305.039
305.039
305.011
304.956
304.882
304.792
304.695
304.594
304.496
304.407
304.341
301.456
301.478
301.508
301.541
301.575
301.607
301.637
301.662
301.68
301.69
301.69
301.68
301.662
301.637
301.607
301.575
301.541
301.508
301.478
301.456
321.596
321.942
322.379
322.85
323.33
323.795
324.22
324.576
324.833
324.968
324.968
324.833
324.576
324.22
323.795
323.33
322.85
322.379
321.942
321.596
318.799
319.091
319.468
319.876
320.292
320.694
321.062
321.37
321.592
321.709
321.709
321.592
321.37
321.062
320.694
320.292
319.876
319.468
319.091
318.799
315.967
316.21
316.528
316.872
317.223
317.564
317.875
318.134
318.322
318.421
318.421
318.322
318.134
317.875
317.564
317.223
316.872
316.528
316.21
315.967
313.107
313.302
313.561
313.843
314.13
314.408
314.662
314.874
315.027
315.108
315.108
315.027
314.874
314.662
314.408
314.13
313.843
313.561
313.302
313.107
310.222
310.372
310.573
310.792
311.015
311.231
311.429
311.594
311.713
311.775
311.775
311.713
311.594
311.429
311.231
311.015
310.792
310.573
310.372
310.222
307.318
307.424
307.568
307.724
307.884
308.038
308.179
308.297
308.382
308.426
308.426
308.382
308.297
308.179
308.038
307.884
307.724
307.568
307.424
307.318
304.401
304.465
304.551
304.644
304.74
304.833
304.918
304.988
305.039
305.066
305.066
305.039
304.988
304.918
304.833
304.74
304.644
304.551
304.465
304.401
301.476
301.497
301.526
301.558
301.59
301.621
301.649
301.673
301.69
301.699
301.699
301.69
301.673
301.649
301.621
301.59
301.558
301.526
301.497
301.476
321.957
322.287
322.704
323.151
323.604
324.043
324.441
324.773
325.013
325.139
325.139
325.013
324.773
324.441
324.043
323.604
323.151
322.704
322.287
321.957
319.113
319.392
319.752
320.139
320.532
320.911
321.256
321.543
321.75
321.859
321.859
321.75
321.543
321.256
320.911
320.532
320.139
319.752
319.392
319.113
316.234
316.466
316.769
317.096
317.428
317.749
318.04
318.283
318.458
318.549
318.549
318.458
318.283
318.04
317.749
317.428
317.096
316.769
316.466
316.234
313.325
313.512
313.759
314.026
314.298
314.56
314.798
314.997
315.14
315.214
315.214
315.14
314.997
314.798
314.56
314.298
314.026
313.759
313.512
313.325
310.392
310.536
310.727
310.935
311.146
311.35
311.535
311.689
311.8
311.859
311.859
311.8
311.689
311.535
311.35
311.146
310.935
310.727
310.536
310.392
307.44
307.542
307.678
307.827
307.978
308.123
308.256
308.366
308.445
308.486
308.486
308.445
308.366
308.256
308.123
307.978
307.827
307.678
307.542
307.44
304.475
304.535
304.617
304.706
304.797
304.884
304.964
305.03
305.077
305.102
305.102
305.077
305.03
304.964
304.884
304.797
304.706
304.617
304.535
304.475
301.501
301.521
301.549
301.578
301.609
301.638
301.665
301.687
301.703
301.711
301.711
301.703
301.687
301.665
301.638
301.609
301.578
301.549
301.521
301.501
322.383
322.697
323.091
323.513
323.938
324.347
324.718
325.025
325.247
325.362
325.362
325.247
325.025
324.718
324.347
323.938
323.513
323.091
322.697
322.383
319.484
319.749
320.089
320.454
320.823
321.177
321.498
321.764
321.955
322.055
322.055
321.955
321.764
321.498
321.177
320.823
320.454
320.089
319.749
319.484
316.549
316.769
317.056
317.364
317.676
317.975
318.246
318.471
318.633
318.718
318.718
318.633
318.471
318.246
317.975
317.676
317.364
317.056
316.769
316.549
313.584
313.761
313.995
314.247
314.502
314.747
314.968
315.152
315.284
315.353
315.353
315.284
315.152
314.968
314.747
314.502
314.247
313.995
313.761
313.584
310.594
310.73
310.911
311.107
311.305
311.496
311.668
311.811
311.914
311.968
311.968
311.914
311.811
311.668
311.496
311.305
311.107
310.911
310.73
310.594
307.585
307.681
307.81
307.95
308.092
308.228
308.351
308.453
308.526
308.565
308.565
308.526
308.453
308.351
308.228
308.092
307.95
307.81
307.681
307.585
304.562
304.619
304.697
304.781
304.866
304.947
305.021
305.082
305.126
305.149
305.149
305.126
305.082
305.021
304.947
304.866
304.781
304.697
304.619
304.562
301.53
301.549
301.575
301.603
301.632
301.659
301.684
301.705
301.719
301.727
301.727
301.719
301.705
301.684
301.659
301.632
301.603
301.575
301.549
301.53
322.876
323.173
323.543
323.938
324.334
324.714
325.056
325.339
325.541
325.647
325.647
325.541
325.339
325.056
324.714
324.334
323.938
323.543
323.173
322.876
319.913
320.163
320.483
320.825
321.168
321.497
321.793
322.038
322.213
322.305
322.305
322.213
322.038
321.793
321.497
321.168
320.825
320.483
320.163
319.913
316.913
317.121
317.391
317.68
317.97
318.248
318.498
318.705
318.853
318.931
318.931
318.853
318.705
318.498
318.248
317.97
317.68
317.391
317.121
316.913
313.883
314.05
314.27
314.506
314.744
314.971
315.176
315.345
315.466
315.529
315.529
315.466
315.345
315.176
314.971
314.744
314.506
314.27
314.05
313.883
310.827
310.956
311.126
311.31
311.494
311.671
311.83
311.962
312.056
312.105
312.105
312.056
311.962
311.83
311.671
311.494
311.31
311.126
310.956
310.827
307.751
307.842
307.964
308.095
308.227
308.353
308.467
308.561
308.628
308.663
308.663
308.628
308.561
308.467
308.353
308.227
308.095
307.964
307.842
307.751
304.662
304.716
304.789
304.868
304.947
305.023
305.091
305.148
305.188
305.209
305.209
305.188
305.148
305.091
305.023
304.947
304.868
304.789
304.716
304.662
301.564
301.582
301.606
301.633
301.659
301.685
301.707
301.726
301.74
301.747
301.747
301.74
301.726
301.707
301.685
301.659
301.633
301.606
301.582
301.564
323.438
323.717
324.064
324.431
324.798
325.148
325.461
325.72
325.904
326
326
325.904
325.72
325.461
325.148
324.798
324.431
324.064
323.717
323.438
320.402
320.637
320.937
321.255
321.573
321.876
322.147
322.371
322.531
322.614
322.614
322.531
322.371
322.147
321.876
321.573
321.255
320.937
320.637
320.402
317.328
317.524
317.776
318.045
318.314
318.57
318.8
318.989
319.124
319.194
319.194
319.124
318.989
318.8
318.57
318.314
318.045
317.776
317.524
317.328
314.223
314.381
314.586
314.806
315.026
315.236
315.424
315.578
315.689
315.746
315.746
315.689
315.578
315.424
315.236
315.026
314.806
314.586
314.381
314.223
311.093
311.213
311.373
311.544
311.715
311.878
312.024
312.144
312.23
312.275
312.275
312.23
312.144
312.024
311.878
311.715
311.544
311.373
311.213
311.093
307.942
308.027
308.141
308.263
308.385
308.502
308.606
308.692
308.753
308.785
308.785
308.753
308.692
308.606
308.502
308.385
308.263
308.141
308.027
307.942
304.776
304.827
304.895
304.969
305.042
305.112
305.175
305.226
305.263
305.282
305.282
305.263
305.226
305.175
305.112
305.042
304.969
304.895
304.827
304.776
301.602
301.619
301.642
301.666
301.691
301.715
301.736
301.753
301.765
301.772
301.772
301.765
301.753
301.736
301.715
301.691
301.666
301.642
301.619
301.602
324.07
324.331
324.654
324.994
325.332
325.653
325.939
326.173
326.34
326.427
326.427
326.34
326.173
325.939
325.653
325.332
324.994
324.654
324.331
324.07
320.952
321.172
321.451
321.746
322.039
322.316
322.564
322.767
322.912
322.987
322.987
322.912
322.767
322.564
322.316
322.039
321.746
321.451
321.172
320.952
317.795
317.978
318.213
318.462
318.71
318.945
319.154
319.326
319.449
319.512
319.512
319.449
319.326
319.154
318.945
318.71
318.462
318.213
317.978
317.795
314.607
314.754
314.945
315.149
315.352
315.544
315.715
315.856
315.956
316.008
316.008
315.956
315.856
315.715
315.544
315.352
315.149
314.945
314.754
314.607
311.391
311.504
311.653
311.811
311.969
312.119
312.252
312.361
312.439
312.48
312.48
312.439
312.361
312.252
312.119
311.969
311.811
311.653
311.504
311.391
308.156
308.235
308.341
308.455
308.567
308.674
308.769
308.847
308.903
308.932
308.932
308.903
308.847
308.769
308.674
308.567
308.455
308.341
308.235
308.156
304.905
304.953
305.016
305.084
305.152
305.216
305.273
305.32
305.353
305.371
305.371
305.353
305.32
305.273
305.216
305.152
305.084
305.016
304.953
304.905
301.645
301.661
301.682
301.705
301.728
301.749
301.769
301.784
301.795
301.801
301.801
301.795
301.784
301.769
301.749
301.728
301.705
301.682
301.661
301.645
324.775
325.017
325.317
325.631
325.941
326.233
326.493
326.705
326.855
326.934
326.934
326.855
326.705
326.493
326.233
325.941
325.631
325.317
325.017
324.775
321.565
321.77
322.028
322.3
322.569
322.822
323.047
323.231
323.361
323.429
323.429
323.361
323.231
323.047
322.822
322.569
322.3
322.028
321.77
321.565
318.316
318.486
318.704
318.933
319.161
319.375
319.565
319.721
319.831
319.888
319.888
319.831
319.721
319.565
319.375
319.161
318.933
318.704
318.486
318.316
315.034
315.171
315.348
315.536
315.722
315.898
316.053
316.18
316.271
316.317
316.317
316.271
316.18
316.053
315.898
315.722
315.536
315.348
315.171
315.034
311.724
311.83
311.967
312.113
312.258
312.395
312.516
312.615
312.685
312.721
312.721
312.685
312.615
312.516
312.395
312.258
312.113
311.967
311.83
311.724
308.394
308.468
308.567
308.671
308.774
308.872
308.958
309.029
309.079
309.105
309.105
309.079
309.029
308.958
308.872
308.774
308.671
308.567
308.468
308.394
305.048
305.093
305.151
305.214
305.276
305.335
305.387
305.429
305.459
305.475
305.475
305.459
305.429
305.387
305.335
305.276
305.214
305.151
305.093
305.048
301.693
301.708
301.728
301.749
301.77
301.789
301.807
301.821
301.831
301.836
301.836
301.831
301.821
301.807
301.789
301.77
301.749
301.728
301.708
301.693
325.553
325.778
326.054
326.342
326.626
326.891
327.126
327.317
327.452
327.522
327.522
327.452
327.317
327.126
326.891
326.626
326.342
326.054
325.778
325.553
322.241
322.432
322.67
322.92
323.165
323.396
323.599
323.765
323.882
323.942
323.942
323.882
323.765
323.599
323.396
323.165
322.92
322.67
322.432
322.241
318.89
319.048
319.249
319.46
319.668
319.863
320.035
320.175
320.274
320.325
320.325
320.274
320.175
320.035
319.863
319.668
319.46
319.249
319.048
318.89
315.505
315.632
315.796
315.969
316.139
316.298
316.439
316.554
316.635
316.677
316.677
316.635
316.554
316.439
316.298
316.139
315.969
315.796
315.632
315.505
312.092
312.189
312.317
312.451
312.583
312.707
312.817
312.906
312.969
313.002
313.002
312.969
312.906
312.817
312.707
312.583
312.451
312.317
312.189
312.092
308.657
308.726
308.817
308.913
309.007
309.096
309.174
309.238
309.283
309.306
309.306
309.283
309.238
309.174
309.096
309.007
308.913
308.817
308.726
308.657
305.206
305.248
305.302
305.36
305.416
305.47
305.517
305.555
305.582
305.596
305.596
305.582
305.555
305.517
305.47
305.416
305.36
305.302
305.248
305.206
301.746
301.76
301.778
301.798
301.817
301.834
301.85
301.863
301.872
301.877
301.877
301.872
301.863
301.85
301.834
301.817
301.798
301.778
301.76
301.746
326.404
326.612
326.867
327.131
327.389
327.629
327.841
328.012
328.133
328.196
328.196
328.133
328.012
327.841
327.629
327.389
327.131
326.867
326.612
326.404
322.982
323.158
323.378
323.606
323.83
324.039
324.222
324.371
324.475
324.53
324.53
324.475
324.371
324.222
324.039
323.83
323.606
323.378
323.158
322.982
319.519
319.665
319.85
320.043
320.233
320.409
320.564
320.69
320.779
320.825
320.825
320.779
320.69
320.564
320.409
320.233
320.043
319.85
319.665
319.519
316.021
316.138
316.289
316.448
316.602
316.747
316.874
316.977
317.05
317.087
317.087
317.05
316.977
316.874
316.747
316.602
316.448
316.289
316.138
316.021
312.494
312.584
312.701
312.824
312.945
313.057
313.156
313.236
313.293
313.322
313.322
313.293
313.236
313.156
313.057
312.945
312.824
312.701
312.584
312.494
308.945
309.009
309.092
309.18
309.266
309.347
309.417
309.474
309.515
309.536
309.536
309.515
309.474
309.417
309.347
309.266
309.18
309.092
309.009
308.945
305.379
305.418
305.468
305.52
305.572
305.62
305.663
305.697
305.721
305.734
305.734
305.721
305.697
305.663
305.62
305.572
305.52
305.468
305.418
305.379
301.804
301.817
301.834
301.852
301.869
301.885
301.899
301.911
301.919
301.923
301.923
301.919
301.911
301.899
301.885
301.869
301.852
301.834
301.817
301.804
327.329
327.521
327.754
327.995
328.23
328.447
328.637
328.791
328.899
328.955
328.955
328.899
328.791
328.637
328.447
328.23
327.995
327.754
327.521
327.329
323.786
323.948
324.15
324.359
324.562
324.75
324.916
325.049
325.142
325.191
325.191
325.142
325.049
324.916
324.75
324.562
324.359
324.15
323.948
323.786
320.201
320.336
320.506
320.682
320.854
321.014
321.154
321.266
321.346
321.387
321.387
321.346
321.266
321.154
321.014
320.854
320.682
320.506
320.336
320.201
316.581
316.689
316.827
316.972
317.113
317.243
317.358
317.45
317.515
317.548
317.548
317.515
317.45
317.358
317.243
317.113
316.972
316.827
316.689
316.581
312.93
313.013
313.121
313.233
313.343
313.445
313.534
313.605
313.656
313.682
313.682
313.656
313.605
313.534
313.445
313.343
313.233
313.121
313.013
312.93
309.257
309.316
309.393
309.473
309.551
309.624
309.687
309.739
309.775
309.793
309.793
309.775
309.739
309.687
309.624
309.551
309.473
309.393
309.316
309.257
305.567
305.602
305.648
305.696
305.743
305.787
305.825
305.856
305.878
305.889
305.889
305.878
305.856
305.825
305.787
305.743
305.696
305.648
305.602
305.567
301.867
301.879
301.894
301.911
301.926
301.941
301.954
301.964
301.971
301.975
301.975
301.971
301.964
301.954
301.941
301.926
301.911
301.894
301.879
301.867
328.322
328.499
328.713
328.933
329.145
329.341
329.512
329.65
329.746
329.796
329.796
329.746
329.65
329.512
329.341
329.145
328.933
328.713
328.499
328.322
324.649
324.799
324.983
325.174
325.358
325.528
325.677
325.796
325.879
325.923
325.923
325.879
325.796
325.677
325.528
325.358
325.174
324.983
324.799
324.649
320.933
321.057
321.213
321.374
321.53
321.674
321.8
321.901
321.971
322.008
322.008
321.971
321.901
321.8
321.674
321.53
321.374
321.213
321.057
320.933
317.181
317.28
317.407
317.539
317.667
317.785
317.888
317.97
318.028
318.058
318.058
318.028
317.97
317.888
317.785
317.667
317.539
317.407
317.28
317.181
313.398
313.474
313.573
313.675
313.775
313.866
313.947
314.011
314.056
314.079
314.079
314.056
314.011
313.947
313.866
313.775
313.675
313.573
313.474
313.398
309.591
309.646
309.716
309.789
309.86
309.926
309.983
310.029
310.061
310.078
310.078
310.061
310.029
309.983
309.926
309.86
309.789
309.716
309.646
309.591
305.768
305.8
305.843
305.887
305.929
305.969
306.003
306.031
306.05
306.06
306.06
306.05
306.031
306.003
305.969
305.929
305.887
305.843
305.8
305.768
301.935
301.945
301.96
301.974
301.989
302.002
302.013
302.023
302.029
302.032
302.032
302.029
302.023
302.013
302.002
301.989
301.974
301.96
301.945
301.935
329.374
329.536
329.732
329.932
330.125
330.302
330.456
330.579
330.665
330.709
330.709
330.665
330.579
330.456
330.302
330.125
329.932
329.732
329.536
329.374
325.561
325.698
325.868
326.041
326.208
326.362
326.495
326.602
326.676
326.715
326.715
326.676
326.602
326.495
326.362
326.208
326.041
325.868
325.698
325.561
321.705
321.819
321.962
322.108
322.25
322.38
322.493
322.583
322.646
322.679
322.679
322.646
322.583
322.493
322.38
322.25
322.108
321.962
321.819
321.705
317.812
317.904
318.02
318.14
318.256
318.363
318.455
318.529
318.581
318.608
318.608
318.581
318.529
318.455
318.363
318.256
318.14
318.02
317.904
317.812
313.889
313.96
314.05
314.143
314.233
314.316
314.388
314.446
314.486
314.507
314.507
314.486
314.446
314.388
314.316
314.233
314.143
314.05
313.96
313.889
309.943
309.992
310.057
310.124
310.188
310.247
310.299
310.34
310.369
310.384
310.384
310.369
310.34
310.299
310.247
310.188
310.124
310.057
309.992
309.943
305.979
306.009
306.047
306.088
306.126
306.162
306.193
306.218
306.235
306.244
306.244
306.235
306.218
306.193
306.162
306.126
306.088
306.047
306.009
305.979
302.005
302.015
302.028
302.042
302.055
302.067
302.077
302.085
302.091
302.094
302.094
302.091
302.085
302.077
302.067
302.055
302.042
302.028
302.015
302.005
330.454
330.604
330.783
330.966
331.141
331.301
331.439
331.55
331.627
331.666
331.666
331.627
331.55
331.439
331.301
331.141
330.966
330.783
330.604
330.454
326.494
326.62
326.775
326.934
327.085
327.224
327.344
327.44
327.507
327.541
327.541
327.507
327.44
327.344
327.224
327.085
326.934
326.775
326.62
326.494
322.491
322.596
322.727
322.861
322.99
323.107
323.209
323.29
323.347
323.376
323.376
323.347
323.29
323.209
323.107
322.99
322.861
322.727
322.596
322.491
318.453
318.538
318.644
318.754
318.86
318.956
319.039
319.106
319.152
319.176
319.176
319.152
319.106
319.039
318.956
318.86
318.754
318.644
318.538
318.453
314.387
314.451
314.534
314.62
314.702
314.777
314.842
314.893
314.93
314.948
314.948
314.93
314.893
314.842
314.777
314.702
314.62
314.534
314.451
314.387
310.297
310.343
310.402
310.463
310.522
310.576
310.622
310.659
310.685
310.698
310.698
310.685
310.659
310.622
310.576
310.522
310.463
310.402
310.343
310.297
306.192
306.219
306.255
306.291
306.326
306.359
306.387
306.409
306.424
306.432
306.432
306.424
306.409
306.387
306.359
306.326
306.291
306.255
306.219
306.192
302.077
302.086
302.098
302.11
302.122
302.133
302.142
302.149
302.155
302.157
302.157
302.155
302.149
302.142
302.133
302.122
302.11
302.098
302.086
302.077
331.493
331.631
331.796
331.964
332.124
332.27
332.395
332.495
332.565
332.601
332.601
332.565
332.495
332.395
332.27
332.124
331.964
331.796
331.631
331.493
327.379
327.496
327.639
327.785
327.924
328.05
328.16
328.247
328.307
328.338
328.338
328.307
328.247
328.16
328.05
327.924
327.785
327.639
327.496
327.379
323.229
323.326
323.447
323.571
323.689
323.796
323.889
323.963
324.014
324.04
324.04
324.014
323.963
323.889
323.796
323.689
323.571
323.447
323.326
323.229
319.05
319.128
319.226
319.328
319.424
319.513
319.589
319.649
319.691
319.713
319.713
319.691
319.649
319.589
319.513
319.424
319.328
319.226
319.128
319.05
314.846
314.906
314.982
315.061
315.136
315.205
315.264
315.312
315.344
315.361
315.361
315.344
315.312
315.264
315.205
315.136
315.061
314.982
314.906
314.846
310.623
310.665
310.72
310.776
310.83
310.879
310.922
310.955
310.979
310.991
310.991
310.979
310.955
310.922
310.879
310.83
310.776
310.72
310.665
310.623
306.386
306.412
306.444
306.478
306.511
306.54
306.566
306.586
306.6
306.607
306.607
306.6
306.586
306.566
306.54
306.511
306.478
306.444
306.412
306.386
302.142
302.15
302.161
302.172
302.183
302.193
302.202
302.209
302.213
302.216
302.216
302.213
302.209
302.202
302.193
302.183
302.172
302.161
302.15
302.142
332.303
332.433
332.589
332.746
332.896
333.032
333.149
333.242
333.306
333.339
333.339
333.306
333.242
333.149
333.032
332.896
332.746
332.589
332.433
332.303
328.044
328.154
328.289
328.426
328.557
328.675
328.777
328.858
328.914
328.943
328.943
328.914
328.858
328.777
328.675
328.557
328.426
328.289
328.154
328.044
323.767
323.858
323.973
324.089
324.2
324.301
324.388
324.457
324.505
324.529
324.529
324.505
324.457
324.388
324.301
324.2
324.089
323.973
323.858
323.767
319.473
319.547
319.641
319.736
319.828
319.911
319.982
320.038
320.078
320.098
320.098
320.078
320.038
319.982
319.911
319.828
319.736
319.641
319.547
319.473
315.166
315.223
315.295
315.37
315.441
315.506
315.562
315.606
315.636
315.652
315.652
315.636
315.606
315.562
315.506
315.441
315.37
315.295
315.223
315.166
310.846
310.887
310.939
310.992
311.043
311.09
311.129
311.161
311.183
311.194
311.194
311.183
311.161
311.129
311.09
311.043
310.992
310.939
310.887
310.846
306.519
306.543
306.574
306.606
306.637
306.665
306.689
306.708
306.721
306.728
306.728
306.721
306.708
306.689
306.665
306.637
306.606
306.574
306.543
306.519
302.186
302.194
302.204
302.215
302.225
302.235
302.243
302.249
302.254
302.256
302.256
302.254
302.249
302.243
302.235
302.225
302.215
302.204
302.194
302.186
)
;

boundaryField
{
    hotSide
    {
        type            fixedGradient;
        gradient        nonuniform List<scalar> 
400
(
211.559
212.155
213.351
215.154
217.578
220.635
224.343
228.72
233.783
239.553
246.046
253.28
261.27
270.031
279.575
289.911
301.05
312.998
325.761
339.343
216.668
217.223
218.34
220.028
222.303
225.185
228.695
232.856
237.692
243.228
249.485
256.485
264.246
272.785
282.116
292.252
303.201
314.972
327.57
341
222.197
222.704
223.726
225.277
227.377
230.052
233.33
237.24
241.815
247.083
253.072
259.808
267.314
275.608
284.707
294.624
305.369
316.951
329.375
342.644
228.055
228.506
229.418
230.809
232.707
235.145
238.158
241.785
246.066
251.035
256.729
263.176
270.404
278.435
287.286
296.972
307.503
318.888
331.132
344.237
234.077
234.465
235.253
236.467
238.14
240.314
243.036
246.354
250.315
254.964
260.342
266.485
273.422
281.179
289.775
299.225
309.541
320.728
332.792
345.735
240.014
240.334
240.99
242.013
243.448
245.345
247.762
250.757
254.389
258.71
263.768
269.604
276.251
283.737
292.083
301.303
311.41
322.408
334.301
347.091
245.523
245.776
246.3
247.135
248.333
249.957
252.076
254.759
258.073
262.08
266.833
272.38
278.756
285.99
294.105
303.116
313.033
323.86
335.601
348.253
250.2
250.391
250.797
251.463
252.45
253.83
255.684
258.092
261.128
264.862
269.353
274.651
280.796
287.818
295.739
304.575
314.334
325.02
336.635
349.176
253.622
253.767
254.082
254.618
255.444
256.64
258.295
260.495
263.323
266.854
271.151
276.266
282.242
289.109
296.89
305.599
315.244
325.829
337.355
349.816
255.436
255.555
255.821
256.287
257.025
258.121
259.668
261.757
264.473
267.895
272.088
277.107
282.993
289.778
297.484
306.127
315.713
326.246
337.724
350.144
255.436
255.555
255.821
256.287
257.025
258.121
259.668
261.757
264.473
267.895
272.088
277.107
282.993
289.778
297.484
306.127
315.713
326.246
337.724
350.144
253.622
253.767
254.082
254.618
255.444
256.64
258.295
260.495
263.323
266.854
271.151
276.266
282.242
289.109
296.89
305.599
315.244
325.829
337.355
349.816
250.2
250.391
250.797
251.463
252.45
253.83
255.684
258.092
261.128
264.862
269.353
274.651
280.796
287.818
295.739
304.575
314.334
325.02
336.635
349.176
245.523
245.776
246.3
247.135
248.333
249.957
252.076
254.759
258.073
262.08
266.833
272.38
278.756
285.99
294.105
303.116
313.033
323.86
335.601
348.253
240.014
240.334
240.99
242.013
243.448
245.345
247.762
250.757
254.389
258.71
263.768
269.604
276.251
283.737
292.083
301.303
311.41
322.408
334.301
347.091
234.077
234.465
235.253
236.467
238.14
240.314
243.036
246.354
250.315
254.964
260.342
266.485
273.422
281.179
289.775
299.225
309.541
320.728
332.792
345.735
228.055
228.506
229.418
230.809
232.707
235.145
238.158
241.785
246.066
251.035
256.729
263.176
270.404
278.435
287.286
296.972
307.503
318.888
331.132
344.237
222.197
222.704
223.726
225.277
227.377
230.052
233.33
237.24
241.815
247.083
253.072
259.808
267.314
275.608
284.707
294.624
305.369
316.951
329.375
342.644
216.668
217.223
218.34
220.028
222.303
225.185
228.695
232.856
237.692
243.228
249.485
256.485
264.246
272.785
282.116
292.252
303.201
314.972
327.57
341
211.559
212.155
213.351
215.154
217.578
220.635
224.343
228.72
233.783
239.553
246.046
253.28
261.27
270.031
279.575
289.911
301.05
312.998
325.761
339.343
)
;
    }
    coldSide
    {
        type            mixed;
        refValue        uniform 300;
        refGradient     uniform 0;
        valueFraction   uniform 0.991591;
        source          uniform 0;
        value           nonuniform List<scalar> 
400
(
300.012
300.012
300.012
300.012
300.012
300.012
300.013
300.013
300.013
300.013
300.014
300.014
300.015
300.015
300.016
300.016
300.017
300.017
300.018
300.018
300.012
300.012
300.012
300.012
300.012
300.013
300.013
300.013
300.013
300.014
300.014
300.014
300.015