/*--------------------------------*- C++ -*----------------------------------*\
| =========                 |                                                 |
| \\      /  F ield         | OpenFOAM: The Open Source CFD Toolbox           |
|  \\    /   O peration     | Version:  2212                                  |
|   \\  /    A nd           | Website:  www.openfoam.com                      |
|    \\/     M anipulation  |                                                 |
\*---------------------------------------------------------------------------*/
FoamFile
{
    version     2.0;
    format      ascii;
    arch        "LSB;label=32;scalar=64";
    class       volScalarField;
    location    "0";
    object      T;
}
// * * * * * * * * * * * * * * * * * * * * * * * * * * * * * * * * * * * * * //

dimensions      [0 0 0 1 0 0 0];

internalField   nonuniform List<scalar> 
3200
(
320.709
320.262
319.855
319.829
319.976
320.372
320.712
321.05
321.438
321.686
321.794
321.701
321.62
321.593
321.166
321.019
321.021
320.844
321.195
321.684
317.853
317.503
317.159
317.121
317.27
317.625
317.917
318.176
318.517
318.7
318.819
318.729
318.67
318.647
318.242
318.111
318.123
317.961
318.267
318.621
315.055
314.781
314.474
314.445
314.607
314.899
315.11
315.331
315.62
315.783
315.876
315.787
315.751
315.747
315.393
315.247
315.278
315.108
315.377
315.628
312.284
312.058
311.801
311.777
311.938
312.174
312.336
312.491
312.747
312.891
312.954
312.887
312.855
312.858
312.561
312.427
312.43
312.292
312.529
312.711
309.526
309.355
309.178
309.157
309.283
309.457
309.587
309.699
309.887
310.021
310.067
309.989
309.996
309.988
309.737
309.637
309.625
309.519
309.715
309.862
306.781
306.66
306.567
306.528
306.626
306.754
306.837
306.937
307.058
307.152
307.194
307.129
307.148
307.142
306.951
306.876
306.874
306.773
306.928
307.046
304.065
303.981
303.949
303.915
303.982
304.07
304.095
304.172
304.228
304.297
304.325
304.282
304.303
304.292
304.177
304.135
304.128
304.064
304.15
304.245
301.363
301.342
301.326
301.316
301.334
301.37
301.372
301.395
301.415
301.441
301.459
301.438
301.446
301.429
301.404
301.383
301.392
301.361
301.391
301.424
320.83
320.245
319.899
319.85
319.995
320.541
320.968
321.33
321.638
321.974
322.061
321.989
321.857
321.687
321.269
321.09
320.978
321.016
321.239
321.704
317.991
317.516
317.228
317.149
317.29
317.779
318.123
318.438
318.685
318.978
319.02
318.978
318.822
318.69
318.315
318.192
318.079
318.102
318.292
318.683
315.171
314.808
314.561
314.481
314.607
315.046
315.318
315.557
315.753
315.988
316.012
316.018
315.861
315.746
315.407
315.322
315.226
315.264
315.388
315.72
312.364
312.106
311.906
311.826
311.929
312.286
312.525
312.695
312.861
313.054
313.041
313.097
312.95
312.861
312.554
312.507
312.389
312.426
312.555
312.805
309.611
309.416
309.278
309.189
309.258
309.532
309.742
309.85
309.994
310.153
310.098
310.174
310.054
310
309.748
309.736
309.6
309.608
309.731
309.936
306.879
306.717
306.629
306.559
306.615
306.823
306.958
307.031
307.149
307.259
307.186
307.28
307.167
307.149
306.938
306.971
306.847
306.841
306.921
307.097
304.132
304.036
303.985
303.935
303.967
304.093
304.164
304.227
304.304
304.35
304.316
304.379
304.29
304.284
304.154
304.188
304.118
304.099
304.156
304.255
301.392
301.358
301.337
301.321
301.333
301.377
301.384
301.414
301.441
301.456
301.446
301.456
301.429
301.438
301.392
301.404
301.386
301.374
301.391
301.419
320.989
320.36
320.038
320.119
320.22
320.793
321.172
321.561
321.914
322.298
322.448
322.39
322.241
321.947
321.575
321.34
321.144
321.272
321.484
321.949
318.131
317.625
317.345
317.396
317.481
317.979
318.311
318.619
318.909
319.247
319.385
319.318
319.169
318.925
318.579
318.424
318.252
318.346
318.506
318.887
315.285
314.912
314.658
314.699
314.76
315.178
315.472
315.717
315.938
316.226
316.348
316.307
316.16
315.956
315.612
315.527
315.401
315.453
315.579
315.875
312.489
312.188
312.004
312.037
312.062
312.397
312.643
312.835
312.999
313.234
313.337
313.318
313.189
313.008
312.709
312.664
312.554
312.578
312.694
312.912
309.703
309.484
309.361
309.374
309.366
309.638
309.83
309.994
310.085
310.254
310.331
310.346
310.246
310.104
309.858
309.843
309.746
309.745
309.851
310.024
306.946
306.786
306.709
306.71
306.706
306.881
307.021
307.144
307.184
307.31
307.365
307.395
307.321
307.193
307.022
307.019
306.941
306.951
307.025
307.14
304.199
304.077
304.031
304.031
304.032
304.139
304.217
304.311
304.319
304.378
304.419
304.437
304.404
304.329
304.211
304.211
304.172
304.173
304.19
304.282
301.42
301.365
301.359
301.346
301.353
301.384
301.412
301.444
301.451
301.465
301.485
301.473
301.479
301.451
301.4
301.412
301.411
301.391
301.393
301.437
321.119
320.542
320.208
320.428
320.608
320.999
321.356
321.934
322.394
322.65
322.918
322.875
322.834
322.425
321.89
321.645
321.503
321.607
321.735
322.233
318.24
317.76
317.478
317.665
317.817
318.166
318.439
318.955
319.333
319.547
319.773
319.719
319.708
319.356
318.868
318.654
318.539
318.623
318.713
319.139
315.383
315.008
314.794
314.925
315.05
315.37
315.568
316.002
316.286
316.477
316.652
316.619
316.635
316.333
315.885
315.732
315.643
315.694
315.764
316.092
312.564
312.262
312.081
312.193
312.302
312.572
312.729
313.077
313.281
313.442
313.573
313.538
313.588
313.333
312.954
312.842
312.756
312.789
312.855
313.113
309.758
309.53
309.378
309.443
309.557
309.778
309.888
310.162
310.327
310.423
310.533
310.513
310.557
310.36
310.049
309.965
309.883
309.903
309.971
310.197
306.946
306.817
306.704
306.748
306.846
307.008
307.049
307.254
307.364
307.419
307.502
307.496
307.562
307.401
307.171
307.103
307.045
307.062
307.111
307.28
304.154
304.102
304.032
304.062
304.106
304.222
304.226
304.354
304.42
304.446
304.506
304.502
304.555
304.448
304.302
304.267
304.23
304.248
304.26
304.366
301.393
301.373
301.362
301.371
301.375
301.407
301.412
301.462
301.483
301.475
301.515
301.514
301.537
301.484
301.448
301.433
301.421
301.422
301.427
301.465
321.375
320.946
320.513
320.755
320.91
321.314
321.798
322.287
322.841
323.204
323.354
323.53
323.405
322.847
322.452
322.085
321.825
321.896
322.266
322.579
318.45
318.113
317.722
317.939
318.081
318.409
318.831
319.265
319.742
320.028
320.152
320.323
320.18
319.687
319.36
319.038
318.815
318.885
319.172
319.45
315.561
315.282
314.956
315.153
315.28
315.538
315.901
316.244
316.661
316.88
317.004
317.151
317.016
316.584
316.312
316.046
315.853
315.917
316.143
316.364
312.681
312.487
312.225
312.387
312.479
312.704
312.998
313.256
313.569
313.767
313.879
313.998
313.883
313.521
313.293
313.072
312.93
312.993
313.17
313.349
309.832
309.711
309.503
309.629
309.7
309.887
310.11
310.296
310.51
310.698
310.778
310.862
310.785
310.487
310.307
310.136
310.031
310.077
310.211
310.364
307.009
306.94
306.81
306.873
306.927
307.055
307.244
307.34
307.493
307.63
307.696
307.736
307.699
307.484
307.371
307.226
307.148
307.18
307.273
307.394
304.198
304.169
304.101
304.116
304.146
304.244
304.357
304.397
304.497
304.584
304.624
304.634
304.622
304.49
304.441
304.34
304.281
304.308
304.353
304.426
301.4
301.391
301.378
301.368
301.381
301.422
301.461
301.476
301.499
301.537
301.547
301.547
301.544
301.502
301.497
301.464
301.431
301.434
301.448
301.476
321.657
321.371
320.95
321.137
321.351
321.774
322.165
322.824
323.362
323.809
323.942
324.12
323.786
323.224
322.925
322.545
322.306
322.286
322.679
323
318.69
318.463
318.096
318.276
318.451
318.81
319.128
319.674
320.163
320.561
320.669
320.808
320.521
320.007
319.758
319.445
319.218
319.196
319.554
319.783
315.754
315.602
315.281
315.422
315.567
315.871
316.133
316.592
317.011
317.323
317.435
317.537
317.325
316.861
316.66
316.399
316.189
316.168
316.461
316.627
312.85
312.747
312.476
312.591
312.717
312.959
313.177
313.51
313.874
314.128
314.234
314.291
314.142
313.769
313.602
313.388
313.186
313.176
313.439
313.535
309.974
309.915
309.7
309.782
309.884
310.071
310.24
310.455
310.756
310.957
311.046
311.07
310.988
310.713
310.558
310.394
310.215
310.229
310.45
310.507
307.109
307.087
306.927
306.977
307.064
307.193
307.328
307.443
307.661
307.805
307.876
307.894
307.842
307.644
307.548
307.415
307.296
307.309
307.458
307.49
304.247
304.261
304.163
304.181
304.244
304.313
304.393
304.465
304.602
304.681
304.729
304.742
304.699
304.586
304.531
304.445
304.38
304.391
304.473
304.495
301.418
301.421
301.399
301.406
301.425
301.443
301.467
301.489
301.536
301.57
301.581
301.586
301.579
301.53
301.518
301.494
301.465
301.474
301.497
301.503
322.174
321.951
321.604
321.571
321.909
322.262
322.63
323.251
323.847
324.235
324.455
324.696
324.428
323.776
323.537
323.334
322.898
322.913
323.124
323.544
319.138
318.962
318.691
318.635
318.927
319.214
319.528
320.08
320.572
320.921
321.109
321.314
321.078
320.509
320.299
320.126
319.74
319.764
319.941
320.277
316.131
316.011
315.774
315.733
315.954
316.209
316.465
316.934
317.356
317.642
317.83
317.978
317.755
317.27
317.099
316.962
316.629
316.659
316.81
317.087
313.15
313.072
312.862
312.865
313.022
313.233
313.434
313.827
314.167
314.375
314.556
314.667
314.46
314.066
313.943
313.858
313.549
313.571
313.736
313.944
310.216
310.177
309.997
310.007
310.119
310.273
310.44
310.732
310.985
311.162
311.314
311.359
311.224
310.884
310.816
310.766
310.507
310.52
310.676
310.822
307.304
307.295
307.152
307.133
307.238
307.333
307.46
307.649
307.842
307.961
308.076
308.113
308.007
307.759
307.72
307.677
307.487
307.507
307.611
307.718
304.385
304.387
304.304
304.276
304.358
304.401
304.474
304.592
304.704
304.78
304.833
304.863
304.798
304.662
304.639
304.606
304.507
304.506
304.573
304.624
301.462
301.471
301.443
301.439
301.466
301.468
301.502
301.534
301.571
301.598
301.613
301.633
301.599
301.565
301.552
301.536
301.51
301.509
301.537
301.548
322.739
322.465
322.17
322.109
322.389
322.748
323.318
323.745
324.427
324.873
325.093
325.197
324.89
324.461
324.234
323.901
323.442
323.603
323.753
324.063
319.632
319.42
319.164
319.097
319.344
319.622
320.13
320.521
321.08
321.465
321.641
321.746
321.49
321.119
320.916
320.609
320.204
320.36
320.462
320.716
316.58
316.404
316.197
316.097
316.311
316.532
316.959
317.33
317.774
318.091
318.24
318.341
318.121
317.796
317.644
317.36
317.009
317.147
317.231
317.445
313.546
313.415
313.231
313.15
313.309
313.472
313.831
314.165
314.529
314.777
314.894
314.975
314.79
314.517
314.393
314.159
313.857
313.97
314.03
314.216
310.553
310.454
310.306
310.212
310.321
310.443
310.702
311.012
311.309
311.479
311.553
311.62
311.478
311.264
311.162
310.967
310.766
310.818
310.857
311.029
307.562
307.492
307.359
307.275
307.382
307.438
307.63
307.857
308.068
308.173
308.229
308.272
308.194
308.032
307.963
307.813
307.687
307.703
307.736
307.862
304.54
304.507
304.406
304.365
304.434
304.464
304.57
304.705
304.851
304.889
304.929
304.956
304.925
304.828
304.777
304.683
304.614
304.619
304.634
304.712
301.525
301.505
301.471
301.456
301.492
301.492
301.525
301.578
301.627
301.644
301.652
301.666
301.657
301.614
301.614
301.565
301.548
301.545
301.552
301.575
323.275
322.94
322.739
322.706
322.947
323.378
323.859
324.343
324.905
325.329
325.665
325.745
325.561
325.058
324.812
324.375
324.098
324.028
324.238
324.587
320.12
319.797
319.643
319.613
319.824
320.185
320.594
321.006
321.505
321.845
322.158
322.221
322.044
321.621
321.407
321.041
320.769
320.717
320.903
321.139
316.988
316.709
316.582
316.551
316.708
317.051
317.359
317.727
318.132
318.427
318.693
318.715
318.565
318.227
318.037
317.71
317.497
317.455
317.606
317.778
313.869
313.662
313.534
313.517
313.617
313.936
314.152
314.47
314.821
315.026
315.241
315.26
315.121
314.883
314.71
314.422
314.269
314.25
314.376
314.466
310.775
310.617
310.508
310.49
310.567
310.821
310.982
311.244
311.512
311.668
311.823
311.845
311.722
311.544
311.41
311.18
311.063
311.064
311.161
311.205
307.677
307.599
307.5
307.488
307.55
307.699
307.824
308.017
308.222
308.326
308.435
308.436
308.35
308.239
308.135
307.955
307.908
307.898
307.963
307.982
304.602
304.565
304.49
304.482
304.541
304.591
304.694
304.815
304.941
304.99
305.05
305.055
304.983
304.94
304.893
304.768
304.737
304.759
304.768
304.765
301.532
301.535
301.501
301.501
301.517
301.544
301.569
301.607
301.652
301.667
301.683
301.696
301.663
301.658
301.647
301.605
301.584
301.598
301.586
301.597
323.934
323.706
323.369
323.404
323.529
324.063
324.47
324.829
325.382
325.873
326.167
326.153
325.944
325.632
325.282
324.803
324.691
324.64
324.812
325.022
320.659
320.482
320.175
320.235
320.312
320.764
321.129
321.427
321.926
322.346
322.564
322.567
322.405
322.115
321.785
321.369
321.272
321.239
321.372
321.519
317.459
317.278
317.014
317.076
317.155
317.519
317.814
318.088
318.504
318.844
319.005
319.016
318.89
318.625
318.363
317.992
317.937
317.904
318.008
318.096
314.255
314.12
313.893
313.928
314.025
314.281
314.523
314.764
315.109
315.37
315.489
315.524
315.413
315.174
314.967
314.668
314.639
314.596
314.652
314.731
311.073
310.969
310.795
310.812
310.902
311.087
311.271
311.44
311.728
311.921
312.026
312.039
311.988
311.774
311.609
311.392
311.375
311.324
311.355
311.394
307.908
307.841
307.711
307.728
307.777
307.929
308.025
308.152
308.36
308.517
308.595
308.584
308.561
308.371
308.284
308.132
308.116
308.084
308.081
308.116
304.735
304.701
304.618
304.638
304.671
304.76
304.795
304.896
305.03
305.122
305.162
305.151
305.131
304.998
304.963
304.87
304.86
304.855
304.832
304.853
301.574
301.571
301.538
301.562
301.565
301.601
301.605
301.647
301.687
301.727
301.722
301.724
301.721
301.679
301.662
301.639
301.62
301.623
301.609
301.629
324.571
324.242
324.005
324.012
324.172
324.634
324.98
325.423
326.066
326.354
326.627
326.698
326.52
326.226
325.903
325.548
325.4
325.306
325.515
325.693
321.209
320.95
320.738
320.762
320.905
321.277
321.565
321.941
322.49
322.738
322.966
323.027
322.888
322.627
322.328
322.02
321.893
321.823
321.969
322.096
317.894
317.673
317.504
317.541
317.645
317.926
318.165
318.498
318.945
319.174
319.336
319.404
319.302
319.077
318.815
318.552
318.463
318.392
318.497
318.585
314.625
314.428
314.296
314.351
314.409
314.611
314.83
315.101
315.451
315.639
315.769
315.806
315.746
315.555
315.355
315.133
315.057
315
315.074
315.146
311.348
311.204
311.094
311.194
311.203
311.338
311.529
311.72
311.983
312.126
312.233
312.253
312.233
312.067
311.91
311.746
311.682
311.644
311.67
311.732
308.114
307.999
307.911
308.009
308.003
308.08
308.232
308.371
308.533
308.63
308.729
308.716
308.736
308.61
308.521
308.403
308.326
308.317
308.306
308.339
304.871
304.793
304.719
304.806
304.797
304.846
304.947
305.039
305.107
305.164
305.236
305.232
305.256
305.172
305.128
305.042
305.013
304.992
304.968
304.982
301.635
301.603
301.578
301.601
301.602
301.619
301.654
301.682
301.706
301.727
301.742
301.749
301.761
301.736
301.727
301.689
301.686
301.67
301.665
301.656
325.239
324.955
324.755
324.775
324.842
325.123
325.576
326.075
326.439
326.846
327.022
327.101
326.984
326.755
326.433
326.085
325.998
325.897
326.099
326.241
321.794
321.564
321.415
321.422
321.471
321.692
322.11
322.484
322.791
323.152
323.307
323.383
323.275
323.065
322.792
322.492
322.413
322.305
322.478
322.59
318.387
318.185
318.093
318.078
318.116
318.286
318.704
318.98
319.211
319.525
319.649
319.716
319.602
319.418
319.181
318.951
318.891
318.77
318.922
319.031
315.02
314.831
314.768
314.76
314.797
314.916
315.296
315.46
315.66
315.908
316.024
316.088
315.984
315.823
315.63
315.464
315.415
315.269
315.423
315.501
311.666
311.514
311.483
311.48
311.491
311.578
311.875
311.98
312.153
312.337
312.442
312.501
312.413
312.258
312.115
312.014
311.961
311.819
311.948
312.004
308.328
308.197
308.201
308.186
308.2
308.252
308.474
308.538
308.673
308.794
308.861
308.918
308.85
308.75
308.664
308.568
308.534
308.424
308.51
308.539
305.001
304.912
304.936
304.928
304.903
304.96
305.098
305.117
305.184
305.29
305.3
305.344
305.301
305.249
305.203
305.143
305.12
305.054
305.102
305.1
301.677
301.649
301.656
301.645
301.637
301.668
301.708
301.722
301.733
301.769
301.784
301.788
301.778
301.756
301.75
301.721
301.711
301.702
301.702
301.706
325.913
325.56
325.445
325.397
325.469
325.776
326.152
326.595
326.809
327.328
327.426
327.516
327.408
327.139
326.876
326.639
326.555
326.492
326.762
327.016
322.387
322.082
321.985
321.957
322.017
322.254
322.583
322.989
323.147
323.57
323.654
323.737
323.633
323.397
323.179
322.959
322.9
322.806
323.053
323.262
318.872
318.625
318.547
318.528
318.587
318.757
319.039
319.41
319.521
319.881
319.934
320.033
319.912
319.688
319.526
319.352
319.273
319.18
319.422
319.563
315.395
315.205
315.146
315.163
315.203
315.314
315.531
315.865
315.913
316.223
316.261
316.342
316.247
316.043
315.916
315.787
315.728
315.62
315.852
315.945
311.938
311.816
311.768
311.807
311.827
311.885
312.072
312.319
312.346
312.586
312.63
312.685
312.606
312.459
312.337
312.26
312.211
312.122
312.277
312.362
308.525
308.445
308.409
308.428
308.441
308.477
308.611
308.78
308.835
308.976
309.014
309.058
309.003
308.879
308.789
308.725
308.702
308.654
308.748
308.822
305.107
305.076
305.04
305.056
305.089
305.087
305.174
305.26
305.322
305.371
305.4
305.446
305.388
305.319
305.272
305.238
305.209
305.197
305.235
305.284
301.705
301.709
301.688
301.686
301.718
301.704
301.734
301.756
301.779
301.803
301.817
301.824
301.811
301.783
301.762
301.749
301.747
301.749
301.75
301.768
326.633
326.217
326.036
325.98
326.019
326.278
326.683
326.981
327.418
327.864
327.912
328.036
327.842
327.701
327.274
327.201
327.09
327.075
327.405
327.601
323.01
322.648
322.51
322.469
322.47
322.708
323.043
323.271
323.645
324.034
324.066
324.172
323.992
323.877
323.5
323.459
323.351
323.326
323.616
323.749
319.403
319.115
319.022
318.961
318.964
319.167
319.424
319.625
319.906
320.251
320.265
320.349
320.215
320.12
319.79
319.78
319.67
319.655
319.873
319.975
315.817
315.613
315.533
315.507
315.501
315.662
315.839
315.992
316.205
316.513
316.515
316.59
316.489
316.406
316.124
316.143
316.038
316.022
316.19
316.28
312.284
312.128
312.048
312.057
312.035
312.167
312.293
312.404
312.551
312.804
312.815
312.856
312.778
312.714
312.515
312.541
312.449
312.436
312.555
312.628
308.788
308.634
308.577
308.621
308.616
308.705
308.772
308.851
308.931
309.121
309.137
309.155
309.115
309.057
308.938
308.961
308.892
308.889
308.935
309.011
305.282
305.173
305.139
305.178
305.178
305.22
305.273
305.313
305.352
305.474
305.472
305.481
305.48
305.421
305.367
305.381
305.331
305.327
305.356
305.4
301.769
301.729
301.716
301.749
301.737
301.743
301.769
301.789
301.795
301.836
301.839
301.831
301.84
301.813
301.806
301.812
301.778
301.783
301.797
301.799
327.207
326.79
326.605
326.649
326.699
326.792
327.12
327.491
327.851
328.278
328.473
328.432
328.262
328.092
327.957
327.787
327.611
327.637
327.958
328.163
323.497
323.153
322.983
323.035
323.063
323.132
323.423
323.753
324.021
324.418
324.572
324.525
324.361
324.238
324.076
323.939
323.798
323.826
324.09
324.244
319.815
319.56
319.385
319.448
319.447
319.528
319.772
320.043
320.252
320.586
320.718
320.673
320.538
320.445
320.265
320.171
320.037
320.074
320.289
320.423
316.159
315.991
315.831
315.892
315.902
315.935
316.116
316.36
316.533
316.786
316.92
316.849
316.744
316.682
316.504
316.443
316.33
316.352
316.543
316.627
312.544
312.432
312.303
312.334
312.363
312.369
312.486
312.686
312.837
313.03
313.136
313.06
313
312.953
312.787
312.758
312.664
312.658
312.834
312.881
308.955
308.882
308.777
308.797
308.832
308.824
308.884
309.034
309.142
309.301
309.363
309.297
309.308
309.216
309.133
309.091
309.023
309.009
309.16
309.184
305.377
305.33
305.276
305.282
305.29
305.29
305.331
305.414
305.491
305.597
305.619
305.571
305.614
305.503
305.467
305.462
305.399
305.398
305.494
305.498
301.793
301.793
301.765
301.773
301.769
301.78
301.781
301.807
301.844
301.873
301.874
301.856
301.899
301.848
301.833
301.837
301.795
301.808
301.84
301.843
327.893
327.497
327.276
327.318
327.346
327.414
327.626
328.058
328.409
328.813
328.836
328.827
328.822
328.65
328.368
328.309
328.208
328.34
328.55
328.74
324.077
323.737
323.573
323.604
323.615
323.668
323.85
324.212
324.504
324.874
324.903
324.879
324.879
324.7
324.435
324.395
324.32
324.415
324.58
324.721
320.308
320.014
319.888
319.931
319.925
319.978
320.113
320.424
320.665
320.991
321.034
320.982
320.967
320.8
320.58
320.532
320.487
320.562
320.689
320.784
316.578
316.33
316.223
316.294
316.278
316.3
316.428
316.67
316.858
317.135
317.175
317.111
317.093
316.95
316.763
316.729
316.723
316.753
316.834
316.924
312.862
312.681
312.599
312.655
312.649
312.671
312.745
312.938
313.089
313.299
313.349
313.266
313.279
313.152
312.995
312.985
312.998
312.996
313.047
313.131
309.15
309.039
308.985
309.051
309.049
309.057
309.084
309.224
309.344
309.497
309.511
309.457
309.498
309.381
309.261
309.277
309.275
309.264
309.284
309.357
305.473
305.423
305.391
305.442
305.439
305.447
305.445
305.526
305.61
305.703
305.716
305.674
305.722
305.627
305.553
305.568
305.569
305.553
305.547
305.597
301.834
301.817
301.808
301.818
301.823
301.825
301.818
301.844
301.885
301.913
301.918
301.896
301.919
301.887
301.864
301.872
301.857
301.862
301.844
301.865
328.509
328.274
327.975
327.906
327.952
328.061
328.26
328.501
328.807
329.211
329.216
329.246
329.275
329.015
328.925
328.803
328.861
328.931
329.118
329.325
324.615
324.406
324.153
324.105
324.14
324.234
324.402
324.603
324.854
325.235
325.216
325.228
325.257
325.014
324.903
324.829
324.869
324.911
325.055
325.226
320.757
320.578
320.386
320.338
320.361
320.457
320.58
320.749
320.956
321.292
321.273
321.26
321.293
321.093
320.975
320.904
320.921
320.97
321.085
321.231
316.919
316.795
316.639
316.594
316.616
316.701
316.814
316.92
317.089
317.37
317.374
317.318
317.362
317.202
317.086
317.043
317.04
317.107
317.183
317.284
313.122
313.054
312.92
312.866
312.887
312.956
313.063
313.133
313.27
313.463
313.495
313.423
313.465
313.343
313.244
313.212
313.229
313.259
313.334
313.376
309.362
309.32
309.243
309.19
309.191
309.252
309.32
309.376
309.466
309.608
309.645
309.572
309.615
309.514
309.428
309.399
309.443
309.439
309.51
309.52
305.595
305.594
305.562
305.505
305.523
305.555
305.608
305.603
305.69
305.768
305.788
305.742
305.777
305.694
305.645
305.623
305.671
305.665
305.699
305.705
301.866
301.877
301.865
301.837
301.852
301.862
301.883
301.874
301.907
301.931
301.945
301.919
301.923
301.908
301.893
301.872
301.9
301.893
301.91
301.91
329.128
328.911
328.596
328.491
328.508
328.686
328.876
329.045
329.185
329.548
329.574
329.702
329.734
329.552
329.342
329.371
329.498
329.636
329.867
330.117
325.153
324.965
324.685
324.602
324.627
324.762
324.93
325.061
325.159
325.487
325.518
325.612
325.654
325.486
325.309
325.318
325.392
325.505
325.716
325.941
321.218
321.062
320.82
320.773
320.797
320.892
321.009
321.122
321.206
321.507
321.52
321.6
321.624
321.476
321.312
321.317
321.358
321.47
321.639
321.817
317.285
317.198
316.988
316.969
316.995
317.077
317.139
317.238
317.302
317.562
317.567
317.603
317.618
317.521
317.383
317.358
317.398
317.494
317.611
317.759
313.391
313.372
313.179
313.174
313.205
313.245
313.313
313.383
313.419
313.641
313.624
313.664
313.655
313.588
313.474
313.452
313.489
313.579
313.636
313.751
309.546
309.565
309.411
309.391
309.423
309.434
309.493
309.553
309.579
309.729
309.714
309.743
309.736
309.675
309.595
309.598
309.611
309.673
309.713
309.799
305.719
305.743
305.653
305.621
305.654
305.638
305.693
305.722
305.744
305.839
305.833
305.852
305.833
305.801
305.745
305.743
305.75
305.791
305.815
305.866
301.925
301.924
301.896
301.874
301.895
301.889
301.902
301.921
301.928
301.956
301.951
301.962
301.951
301.944
301.921
301.924
301.914
301.929
301.948
301.956
329.892
329.602
329.304
329.121
329.118
329.31
329.363
329.549
329.75
329.914
329.966
330.165
330.159
329.99
329.95
329.92
329.934
330.17
330.424
330.84
325.787
325.556
325.289
325.145
325.128
325.311
325.338
325.485
325.639
325.815
325.847
326.023
325.998
325.837
325.804
325.771
325.766
325.95
326.176
326.564
321.72
321.564
321.315
321.215
321.178
321.36
321.348
321.498
321.602
321.776
321.791
321.919
321.901
321.768
321.724
321.704
321.691
321.816
322.019
322.349
317.696
317.6
317.394
317.293
317.286
317.44
317.407
317.539
317.614
317.761
317.783
317.865
317.858
317.74
317.706
317.694
317.672
317.767
317.942
318.186
313.719
313.662
313.493
313.413
313.393
313.528
313.499
313.605
313.661
313.756
313.784
313.849
313.873
313.781
313.72
313.737
313.687
313.782
313.904
314.092
309.783
309.77
309.608
309.576
309.543
309.648
309.608
309.697
309.748
309.8
309.802
309.883
309.883
309.847
309.779
309.778
309.739
309.838
309.919
310.042
305.873
305.876
305.754
305.748
305.715
305.766
305.757
305.806
305.847
305.879
305.855
305.935
305.92
305.903
305.873
305.852
305.821
305.906
305.936
306.014
301.976
301.971
301.931
301.932
301.924
301.937
301.926
301.952
301.958
301.968
301.961
301.983
301.984
301.966
301.964
301.95
301.948
301.981
301.991
302.015
330.282
330.06
329.71
329.719
329.591
329.713
329.845
330.049
330.182
330.167
330.317
330.541
330.46
330.323
330.305
330.329
330.373
330.52
330.809
331.258
326.097
325.917
325.65
325.63
325.526
325.638
325.759
325.924
326.009
325.989
326.132
326.318
326.242
326.108
326.088
326.112
326.131
326.253
326.496
326.899
321.974
321.833
321.59
321.6
321.51
321.638
321.722
321.864
321.903
321.884
322.022
322.15
322.102
321.989
321.977
321.945
321.965
322.07
322.291
322.6
317.914
317.777
317.58
317.624
317.522
317.653
317.716
317.821
317.879
317.854
317.952
318.058
318.018
317.92
317.911
317.868
317.892
317.968
318.152
318.388
313.897
313.781
313.617
313.687
313.582
313.702
313.765
313.831
313.89
313.866
313.917
314.011
313.979
313.92
313.899
313.847
313.874
313.933
314.065
314.256
309.907
309.81
309.719
309.759
309.68
309.757
309.827
309.855
309.919
309.892
309.919
309.996
309.971
309.934
309.903
309.864
309.87
309.939
310.022
310.171
305.936
305.901
305.84
305.867
305.788
305.833
305.885
305.898
305.951
305.955
305.968
305.99
305.981
305.95
305.932
305.915
305.91
305.966
305.992
306.109
301.986
301.984
301.965
301.977
301.937
301.941
301.972
301.975
301.99
302
302.001
302.002
302.011
301.988
301.984
301.98
301.984
301.999
302.001
302.047
)
;

boundaryField
{
    hotSide
    {
        type            fixedGradient;
        gradient        nonuniform List<scalar> 
400
(
229.795
229.374
230.331
232.632
236.138
240.652
245.963
251.877
258.238
264.923
271.845
278.944
286.185
293.554
301.055
308.706
316.538
324.584
332.87
341.407
221.745
221.442
222.613
225.214
229.077
233.969
239.647
245.895
252.545
259.47
266.579
273.815
281.147
288.564
296.077
303.713
311.512
319.518
327.768
336.278
217.631
217.587
218.997
221.813
225.866
230.925
236.746
243.115
249.857
256.846
263.989
271.229
278.537
285.904
293.345
300.892
308.587
316.478
324.605
332.987
217.208
217.556
219.238
222.204
226.311
231.358
237.129
243.426
250.083
256.972
264.002
271.115
278.281
285.497
292.776
300.151
307.664
315.36
323.275
331.431
219.519
220.337
222.337
225.466
229.604
234.588
240.235
246.37
252.841
259.524
266.332
273.209
280.127
287.085
294.102
301.21
308.45
315.861
323.479
331.326
223.47
224.794
227.165
230.524
234.765
239.746
245.31
251.3
257.572
264.013
270.539
277.101
283.681
290.285
296.939
303.681
310.553
317.596
324.844
332.321
228.157
229.995
232.784
236.457
240.908
246.003
251.591
257.518
263.645
269.86
276.087
282.288
288.461
294.628
300.833
307.125
313.554
320.164
326.993
334.066
232.881
235.216
238.449
242.503
247.266
252.597
258.336
264.315
270.383
276.422
282.361
288.179
293.899
299.574
305.273
311.064
317.009
323.16
329.557
336.225
237.086
239.864
243.523
247.981
253.117
258.775
264.772
270.913
277.016
282.944
288.626
294.066
299.325
304.498
309.685
314.979
320.456
326.175
332.174
338.479
240.324
243.436
247.44
252.25
257.739
263.737
270.035
276.399
282.606
288.488
293.974
299.095
303.956
308.696
313.453
318.339
323.442
328.821
334.516
340.549
242.273
245.553
249.746
254.765
260.48
266.713
273.234
279.783
286.103
292.001
297.399
302.35
306.991
311.494
316.016
320.683
325.587
330.79
336.329
342.224
242.789
246.032
250.208
255.229
260.964
267.229
273.795
280.396
286.775
292.737
298.204
303.221
307.926
312.484
317.053
321.76
326.696
331.926
337.488
343.405
241.95
244.956
248.914
253.74
259.298
265.41
271.853
278.386
284.777
290.853
296.534
301.841
306.874
311.765
316.648
321.638
326.827
332.279
338.037
344.128
240.072
242.679
246.28
250.788
256.071
261.952
268.224
274.671
281.091
287.334
293.317
299.033
304.535
309.913
315.269
320.699
326.287
332.099
338.182
344.565
237.686
239.795
242.971
247.134
252.149
257.837
263.997
270.425
276.937
283.393
289.708
295.85
301.84
307.73
313.593
319.508
325.549
331.78
338.252
344.996
235.539
237.106
239.854
243.709
248.527
254.113
260.255
266.745
273.403
280.092
286.72
293.245
299.663
306.005
312.324
318.683
325.151
331.792
338.655
345.775
234.611
235.645
237.997
241.599
246.287
251.839
258.015
264.596
271.398
278.285
285.164
291.983
298.731
305.423
312.099
318.815
325.636
332.626
339.837
347.303
236.078
236.648
238.647
242.012
246.56
252.04
258.194
264.792
271.65
278.632
285.647
292.643
299.599
306.523
313.447
320.42
327.504
334.763
342.249
349.994
240.977
241.215
242.9
245.974
250.26
255.507
261.462
267.901
274.644
281.561
288.562
295.593
302.628
309.67
316.74
323.88
331.144
338.589
346.264
354.194
249.631
249.684
251.088
253.797
257.664
262.481
268.026
274.099
280.537
287.216
294.046
300.972
307.963
315.013
322.134
329.357
336.722
344.273
352.046
360.061
)
;
    }
    coldSide
    {
        type            mixed;
        refValue        uniform 300;
        refGradient     uniform 0;
        valueFraction   uniform 0.991591;
        source          uniform 0;
        value           nonuniform List<scalar> 
400
(
300.011
300.012
300.012
300.012
300.012
300.012
300.012
300.013
300.013
300.013
300.014
300.014
300.014
300.015
300.015
300.015
300.016
300.016
300.017
300.017
300.011
300.011
300.011
300.012
300.012
300.012
300.012
300.013
300.013
300.013
300.013
300.014
300.014
300.015
300.015
300.015
300.016