/*--------------------------------*- C++ -*----------------------------------*\
| =========                 |                                                 |
| \\      /  F ield         | OpenFOAM: The Open Source CFD Toolbox           |
|  \\    /   O peration     | Version:  2212                                  |
|   \\  /    A nd           | Website:  www.openfoam.com                      |
|    \\/     M anipulation  |                                                 |
\*---------------------------------------------------------------------------*/
FoamFile
{
    version     2.0;
    format      ascii;
    arch        "LSB;label=32;scalar=64";
    class       volScalarField;
    location    "0";
    object      Tdirect;
}
// * * * * * * * * * * * * * * * * * * * * * * * * * * * * * * * * * * * * * //

dimensions      [0 0 0 1 0 0 0];

internalField   nonuniform List<scalar> 
3200
(
322.866
323.193
323.612
324.067
324.537
324.998
325.423
325.782
326.044
326.182
326.182
326.044
325.782
325.423
324.998
324.537
324.067
323.612
323.193
322.866
319.754
320.031
320.392
320.786
321.193
321.591
321.959
322.269
322.495
322.614
322.614
322.495
322.269
321.959
321.591
321.193
320.786
320.392
320.031
319.754
316.67
316.9
317.204
317.537
317.881
318.217
318.528
318.79
318.98
319.081
319.081
318.98
318.79
318.528
318.217
317.881
317.537
317.204
316.9
316.67
313.61
313.795
314.043
314.315
314.596
314.871
315.124
315.338
315.494
315.576
315.576
315.494
315.338
315.124
314.871
314.596
314.315
314.043
313.795
313.61
310.569
310.711
310.903
311.115
311.333
311.546
311.743
311.91
312.03
312.094
312.094
312.03
311.91
311.743
311.546
311.333
311.115
310.903
310.711
310.569
307.542
307.643
307.78
307.931
308.087
308.239
308.38
308.498
308.585
308.63
308.63
308.585
308.498
308.38
308.239
308.087
307.931
307.78
307.643
307.542
304.526
304.586
304.668
304.759
304.853
304.944
305.029
305.1
305.152
305.179
305.179
305.152
305.1
305.029
304.944
304.853
304.759
304.668
304.586
304.526
301.517
301.537
301.564
301.595
301.626
301.657
301.685
301.709
301.726
301.735
301.735
301.726
301.709
301.685
301.657
301.626
301.595
301.564
301.537
301.517
322.94
323.265
323.68
324.132
324.596
325.052
325.472
325.827
326.085
326.221
326.221
326.085
325.827
325.472
325.052
324.596
324.132
323.68
323.265
322.94
319.818
320.093
320.451
320.842
321.244
321.638
322.001
322.308
322.531
322.648
322.648
322.531
322.308
322.001
321.638
321.244
320.842
320.451
320.093
319.818
316.724
316.952
317.254
317.584
317.924
318.257
318.564
318.822
319.01
319.11
319.11
319.01
318.822
318.564
318.257
317.924
317.584
317.254
316.952
316.724
313.654
313.838
314.083
314.353
314.631
314.903
315.154
315.365
315.518
315.599
315.599
315.518
315.365
315.154
314.903
314.631
314.353
314.083
313.838
313.654
310.603
310.744
310.934
311.144
311.36
311.571
311.766
311.93
312.049
312.112
312.112
312.049
311.93
311.766
311.571
311.36
311.144
310.934
310.744
310.603
307.566
307.666
307.802
307.952
308.106
308.257
308.396
308.513
308.598
308.643
308.643
308.598
308.513
308.396
308.257
308.106
307.952
307.802
307.666
307.566
304.541
304.6
304.682
304.772
304.864
304.955
305.038
305.109
305.16
305.187
305.187
305.16
305.109
305.038
304.955
304.864
304.772
304.682
304.6
304.541
301.521
301.541
301.569
301.599
301.63
301.66
301.688
301.712
301.729
301.738
301.738
301.729
301.712
301.688
301.66
301.63
301.599
301.569
301.541
301.521
323.09
323.41
323.818
324.261
324.716
325.162
325.573
325.918
326.17
326.303
326.303
326.17
325.918
325.573
325.162
324.716
324.261
323.818
323.41
323.09
319.947
320.218
320.569
320.953
321.347
321.733
322.088
322.386
322.604
322.718
322.718
322.604
322.386
322.088
321.733
321.347
320.953
320.569
320.218
319.947
316.833
317.057
317.353
317.677
318.01
318.336
318.636
318.888
319.072
319.168
319.168
319.072
318.888
318.636
318.336
318.01
317.677
317.353
317.057
316.833
313.742
313.923
314.164
314.429
314.701
314.968
315.213
315.419
315.568
315.647
315.647
315.568
315.419
315.213
314.968
314.701
314.429
314.164
313.923
313.742
310.671
310.81
310.997
311.203
311.415
311.622
311.812
311.972
312.088
312.149
312.149
312.088
311.972
311.812
311.622
311.415
311.203
310.997
310.81
310.671
307.615
307.713
307.847
307.994
308.145
308.293
308.429
308.543
308.626
308.669
308.669
308.626
308.543
308.429
308.293
308.145
307.994
307.847
307.713
307.615
304.57
304.629
304.709
304.797
304.888
304.976
305.058
305.126
305.176
305.202
305.202
305.176
305.126
305.058
304.976
304.888
304.797
304.709
304.629
304.57
301.531
301.551
301.578
301.607
301.638
301.667
301.695
301.718
301.734
301.743
301.743
301.734
301.718
301.695
301.667
301.638
301.607
301.578
301.551
301.531
323.316
323.628
324.025
324.456
324.898
325.33
325.726
326.06
326.302
326.43
326.43
326.302
326.06
325.726
325.33
324.898
324.456
324.025
323.628
323.316
320.141
320.405
320.748
321.121
321.504
321.877
322.22
322.508
322.717
322.828
322.828
322.717
322.508
322.22
321.877
321.504
321.121
320.748
320.405
320.141
316.996
317.215
317.504
317.819
318.142
318.458
318.747
318.991
319.167
319.26
319.26
319.167
318.991
318.747
318.458
318.142
317.819
317.504
317.215
316.996
313.875
314.051
314.287
314.544
314.809
315.067
315.303
315.502
315.646
315.722
315.722
315.646
315.502
315.303
315.067
314.809
314.544
314.287
314.051
313.875
310.774
310.91
311.092
311.292
311.498
311.698
311.882
312.036
312.148
312.207
312.207
312.148
312.036
311.882
311.698
311.498
311.292
311.092
310.91
310.774
307.688
307.784
307.915
308.057
308.204
308.347
308.479
308.589
308.669
308.711
308.711
308.669
308.589
308.479
308.347
308.204
308.057
307.915
307.784
307.688
304.614
304.671
304.749
304.835
304.923
305.009
305.088
305.154
305.202
305.227
305.227
305.202
305.154
305.088
305.009
304.923
304.835
304.749
304.671
304.614
301.546
301.565
301.591
301.62
301.649
301.678
301.705
301.727
301.743
301.751
301.751
301.743
301.727
301.705
301.678
301.649
301.62
301.591
301.565
301.546
323.618
323.92
324.305
324.72
325.145
325.559
325.938
326.256
326.486
326.607
326.607
326.486
326.256
325.938
325.559
325.145
324.72
324.305
323.92
323.618
320.401
320.657
320.989
321.348
321.716
322.074
322.402
322.677
322.876
322.981
322.981
322.876
322.677
322.402
322.074
321.716
321.348
320.989
320.657
320.401
317.214
317.427
317.706
318.01
318.321
318.624
318.9
319.133
319.301
319.389
319.389
319.301
319.133
318.9
318.624
318.321
318.01
317.706
317.427
317.214
314.053
314.224
314.452
314.7
314.954
315.202
315.428
315.617
315.755
315.827
315.827
315.755
315.617
315.428
315.202
314.954
314.7
314.452
314.224
314.053
310.912
311.043
311.22
311.413
311.611
311.803
311.979
312.126
312.232
312.289
312.289
312.232
312.126
311.979
311.803
311.611
311.413
311.22
311.043
310.912
307.787
307.88
308.006
308.143
308.285
308.422
308.547
308.653
308.729
308.769
308.769
308.729
308.653
308.547
308.422
308.285
308.143
308.006
307.88
307.787
304.673
304.728
304.804
304.887
304.971
305.054
305.129
305.192
305.238
305.262
305.262
305.238
305.192
305.129
305.054
304.971
304.887
304.804
304.728
304.673
301.566
301.584
301.609
301.637
301.666
301.693
301.718
301.74
301.755
301.763
301.763
301.755
301.74
301.718
301.693
301.666
301.637
301.609
301.584
301.566
323.998
324.289
324.658
325.055
325.46
325.853
326.212
326.511
326.728
326.842
326.842
326.728
326.511
326.212
325.853
325.46
325.055
324.658
324.289
323.998
320.728
320.975
321.293
321.637
321.987
322.327
322.637
322.897
323.084
323.183
323.183
323.084
322.897
322.637
322.327
321.987
321.637
321.293
320.975
320.728
317.489
317.694
317.962
318.253
318.549
318.836
319.099
319.318
319.476
319.559
319.559
319.476
319.318
319.099
318.836
318.549
318.253
317.962
317.694
317.489
314.277
314.441
314.66
314.898
315.14
315.375
315.589
315.768
315.897
315.965
315.965
315.897
315.768
315.589
315.375
315.14
314.898
314.66
314.441
314.277
311.085
311.212
311.381
311.566
311.754
311.937
312.104
312.243
312.343
312.396
312.396
312.343
312.243
312.104
311.937
311.754
311.566
311.381
311.212
311.085
307.91
308
308.121
308.253
308.387
308.518
308.636
308.736
308.807
308.845
308.845
308.807
308.736
308.636
308.518
308.387
308.253
308.121
308
307.91
304.747
304.8
304.873
304.952
305.033
305.111
305.182
305.242
305.285
305.308
305.308
305.285
305.242
305.182
305.111
305.033
304.952
304.873
304.8
304.747
301.59
301.608
301.633
301.659
301.686
301.712
301.736
301.756
301.771
301.778
301.778
301.771
301.756
301.736
301.712
301.686
301.659
301.633
301.608
301.59
324.457
324.735
325.087
325.464
325.847
326.216
326.553
326.833
327.035
327.141
327.141
327.035
326.833
326.553
326.216
325.847
325.464
325.087
324.735
324.457
321.123
321.359
321.662
321.989
322.32
322.64
322.931
323.173
323.348
323.44
323.44
323.348
323.173
322.931
322.64
322.32
321.989
321.662
321.359
321.123
317.822
318.017
318.273
318.549
318.829
319.1
319.345
319.55
319.698
319.775
319.775
319.698
319.55
319.345
319.1
318.829
318.549
318.273
318.017
317.822
314.547
314.705
314.913
315.139
315.368
315.589
315.79
315.957
316.078
316.141
316.141
316.078
315.957
315.79
315.589
315.368
315.139
314.913
314.705
314.547
311.295
311.416
311.578
311.753
311.931
312.103
312.259
312.389
312.483
312.532
312.532
312.483
312.389
312.259
312.103
311.931
311.753
311.578
311.416
311.295
308.06
308.145
308.26
308.386
308.513
308.636
308.747
308.84
308.907
308.942
308.942
308.907
308.84
308.747
308.636
308.513
308.386
308.26
308.145
308.06
304.836
304.888
304.957
305.032
305.108
305.182
305.249
305.305
305.345
305.366
305.366
305.345
305.305
305.249
305.182
305.108
305.032
304.957
304.888
304.836
301.62
301.637
301.661
301.686
301.711
301.736
301.759
301.777
301.791
301.798
301.798
301.791
301.777
301.759
301.736
301.711
301.686
301.661
301.637
301.62
324.997
325.261
325.594
325.95
326.309
326.654
326.966
327.226
327.413
327.51
327.51
327.413
327.226
326.966
326.654
326.309
325.95
325.594
325.261
324.997
321.588
321.812
322.099
322.407
322.718
323.016
323.287
323.512
323.673
323.758
323.758
323.673
323.512
323.287
323.016
322.718
322.407
322.099
321.812
321.588
318.213
318.399
318.64
318.901
319.163
319.416
319.645
319.835
319.971
320.043
320.043
319.971
319.835
319.645
319.416
319.163
318.901
318.64
318.399
318.213
314.866
315.015
315.213
315.425
315.64
315.847
316.034
316.189
316.3
316.359
316.359
316.3
316.189
316.034
315.847
315.64
315.425
315.213
315.015
314.866
311.542
311.657
311.81
311.975
312.142
312.303
312.448
312.569
312.655
312.701
312.701
312.655
312.569
312.448
312.303
312.142
311.975
311.81
311.657
311.542
308.236
308.317
308.426
308.544
308.663
308.778
308.882
308.968
309.03
309.062
309.062
309.03
308.968
308.882
308.778
308.663
308.544
308.426
308.317
308.236
304.942
304.99
305.056
305.127
305.198
305.267
305.33
305.381
305.418
305.438
305.438
305.418
305.381
305.33
305.267
305.198
305.127
305.056
304.99
304.942
301.656
301.672
301.694
301.718
301.742
301.765
301.786
301.803
301.815
301.822
301.822
301.815
301.803
301.786
301.765
301.742
301.718
301.694
301.672
301.656
325.619
325.869
326.182
326.515
326.849
327.169
327.458
327.697
327.868
327.957
327.957
327.868
327.697
327.458
327.169
326.849
326.515
326.182
325.869
325.619
322.124
322.335
322.605
322.893
323.183
323.46
323.71
323.917
324.065
324.142
324.142
324.065
323.917
323.71
323.46
323.183
322.893
322.605
322.335
322.124
318.663
318.839
319.066
319.31
319.555
319.789
320.001
320.175
320.3
320.366
320.366
320.3
320.175
320.001
319.789
319.555
319.31
319.066
318.839
318.663
315.233
315.374
315.56
315.759
315.959
316.151
316.324
316.466
316.569
316.622
316.622
316.569
316.466
316.324
316.151
315.959
315.759
315.56
315.374
315.233
311.826
311.935
312.079
312.233
312.389
312.538
312.673
312.784
312.863
312.905
312.905
312.863
312.784
312.673
312.538
312.389
312.233
312.079
311.935
311.826
308.438
308.515
308.618
308.728
308.839
308.946
309.042
309.121
309.178
309.208
309.208
309.178
309.121
309.042
308.946
308.839
308.728
308.618
308.515
308.438
305.063
305.109
305.171
305.237
305.304
305.368
305.426
305.473
305.507
305.525
305.525
305.507
305.473
305.426
305.368
305.304
305.237
305.171
305.109
305.063
301.696
301.712
301.732
301.755
301.777
301.798
301.818
301.834
301.845
301.851
301.851
301.845
301.834
301.818
301.798
301.777
301.755
301.732
301.712
301.696
326.325
326.56
326.853
327.163
327.472
327.767
328.032
328.25
328.406
328.487
328.487
328.406
328.25
328.032
327.767
327.472
327.163
326.853
326.56
326.325
322.731
322.93
323.183
323.451
323.72
323.975
324.204
324.393
324.528
324.598
324.598
324.528
324.393
324.204
323.975
323.72
323.451
323.183
322.93
322.731
319.175
319.34
319.553
319.78
320.006
320.223
320.416
320.576
320.69
320.749
320.749
320.69
320.576
320.416
320.223
320.006
319.78
319.553
319.34
319.175
315.649
315.782
315.956
316.141
316.327
316.504
316.662
316.793
316.886
316.934
316.934
316.886
316.793
316.662
316.504
316.327
316.141
315.956
315.782
315.649
312.149
312.251
312.386
312.53
312.674
312.812
312.935
313.036
313.109
313.147
313.147
313.109
313.036
312.935
312.812
312.674
312.53
312.386
312.251
312.149
308.668
308.74
308.836
308.939
309.043
309.141
309.229
309.301
309.353
309.38
309.38
309.353
309.301
309.229
309.141
309.043
308.939
308.836
308.74
308.668
305.201
305.244
305.302
305.364
305.426
305.485
305.538
305.581
305.612
305.628
305.628
305.612
305.581
305.538
305.485
305.426
305.364
305.302
305.244
305.201
301.743
301.757
301.776
301.797
301.818
301.838
301.855
301.87
301.88
301.886
301.886
301.88
301.87
301.855
301.838
301.818
301.797
301.776
301.757
301.743
327.116
327.336
327.609
327.896
328.181
328.451
328.693
328.891
329.032
329.105
329.105
329.032
328.891
328.693
328.451
328.181
327.896
327.609
327.336
327.116
323.413
323.599
323.834
324.082
324.33
324.564
324.773
324.944
325.066
325.13
325.13
325.066
324.944
324.773
324.564
324.33
324.082
323.834
323.599
323.413
319.748
319.902
320.101
320.311
320.52
320.718
320.895
321.04
321.143
321.197
321.197
321.143
321.04
320.895
320.718
320.52
320.311
320.101
319.902
319.748
316.116
316.24
316.402
316.574
316.745
316.907
317.052
317.17
317.255
317.299
317.299
317.255
317.17
317.052
316.907
316.745
316.574
316.402
316.24
316.116
312.511
312.606
312.732
312.865
312.998
313.124
313.237
313.329
313.395
313.429
313.429
313.395
313.329
313.237
313.124
312.998
312.865
312.732
312.606
312.511
308.926
308.993
309.083
309.178
309.273
309.364
309.444
309.51
309.557
309.581
309.581
309.557
309.51
309.444
309.364
309.273
309.178
309.083
308.993
308.926
305.356
305.396
305.45
305.507
305.564
305.618
305.667
305.706
305.734
305.749
305.749
305.734
305.706
305.667
305.618
305.564
305.507
305.45
305.396
305.356
301.794
301.808
301.826
301.845
301.864
301.882
301.898
301.912
301.921
301.926
301.926
301.921
301.912
301.898
301.882
301.864
301.845
301.826
301.808
301.794
327.994
328.199
328.452
328.716
328.978
329.224
329.444
329.622
329.749
329.815
329.815
329.749
329.622
329.444
329.224
328.978
328.716
328.452
328.199
327.994
324.169
324.342
324.56
324.789
325.016
325.23
325.419
325.574
325.684
325.742
325.742
325.684
325.574
325.419
325.23
325.016
324.789
324.56
324.342
324.169
320.384
320.528
320.712
320.905
321.097
321.278
321.439
321.57
321.663
321.711
321.711
321.663
321.57
321.439
321.278
321.097
320.905
320.712
320.528
320.384
316.634
316.75
316.9
317.058
317.215
317.363
317.495
317.602
317.678
317.718
317.718
317.678
317.602
317.495
317.363
317.215
317.058
316.9
316.75
316.634
312.913
313.001
313.117
313.241
313.363
313.478
313.58
313.664
313.723
313.753
313.753
313.723
313.664
313.58
313.478
313.363
313.241
313.117
313.001
312.913
309.212
309.275
309.358
309.446
309.533
309.615
309.688
309.748
309.79
309.812
309.812
309.79
309.748
309.688
309.615
309.533
309.446
309.358
309.275
309.212
305.527
305.565
305.615
305.667
305.72
305.769
305.813
305.849
305.874
305.888
305.888
305.874
305.849
305.813
305.769
305.72
305.667
305.615
305.565
305.527
301.852
301.864
301.881
301.899
301.916
301.933
301.948
301.96
301.968
301.972
301.972
301.968
301.96
301.948
301.933
301.916
301.899
301.881
301.864
301.852
328.96
329.15
329.383
329.626
329.865
330.089
330.287
330.448
330.562
330.622
330.622
330.562
330.448
330.287
330.089
329.865
329.626
329.383
329.15
328.96
325
325.161
325.362
325.573
325.78
325.974
326.146
326.285
326.384
326.435
326.435
326.384
326.285
326.146
325.974
325.78
325.573
325.362
325.161
325
321.084
321.217
321.387
321.565
321.74
321.905
322.05
322.168
322.252
322.295
322.295
322.252
322.168
322.05
321.905
321.74
321.565
321.387
321.217
321.084
317.204
317.311
317.45
317.595
317.739
317.873
317.992
318.089
318.157
318.193
318.193
318.157
318.089
317.992
317.873
317.739
317.595
317.45
317.311
317.204
313.354
313.436
313.544
313.657
313.769
313.873
313.966
314.041
314.094
314.122
314.122
314.094
314.041
313.966
313.873
313.769
313.657
313.544
313.436
313.354
309.527
309.585
309.662
309.743
309.822
309.897
309.963
310.017
310.055
310.075
310.075
310.055
310.017
309.963
309.897
309.822
309.743
309.662
309.585
309.527
305.716
305.751
305.797
305.845
305.893
305.938
305.978
306.01
306.033
306.045
306.045
306.033
306.01
305.978
305.938
305.893
305.845
305.797
305.751
305.716
301.915
301.927
301.942
301.958
301.974
301.989
302.003
302.014
302.021
302.025
302.025
302.021
302.014
302.003
301.989
301.974
301.958
301.942
301.927
301.915
330.013
330.189
330.404
330.626
330.844
331.047
331.225
331.37
331.472
331.525
331.525
331.472
331.37
331.225
331.047
330.844
330.626
330.404
330.189
330.013
325.907
326.056
326.241
326.434
326.623
326.799
326.953
327.079
327.167
327.213
327.213
327.167
327.079
326.953
326.799
326.623
326.434
326.241
326.056
325.907
321.847
321.97
322.127
322.29
322.449
322.598
322.729
322.836
322.91
322.949
322.949
322.91
322.836
322.729
322.598
322.449
322.29
322.127
321.97
321.847
317.826
317.925
318.052
318.186
318.317
318.438
318.546
318.633
318.694
318.725
318.725
318.694
318.633
318.546
318.438
318.317
318.186
318.052
317.925
317.826
313.836
313.912
314.011
314.115
314.216
314.311
314.395
314.462
314.51
314.535
314.535
314.51
314.462
314.395
314.311
314.216
314.115
314.011
313.912
313.836
309.87
309.924
309.995
310.069
310.142
310.209
310.269
310.317
310.351
310.369
310.369
310.351
310.317
310.269
310.209
310.142
310.069
309.995
309.924
309.87
305.922
305.954
305.996
306.041
306.085
306.125
306.161
306.19
306.211
306.221
306.221
306.211
306.19
306.161
306.125
306.085
306.041
305.996
305.954
305.922
301.984
301.995
302.009
302.024
302.038
302.052
302.064
302.074
302.081
302.084
302.084
302.081
302.074
302.064
302.052
302.038
302.024
302.009
301.995
301.984
331.154
331.316
331.513
331.716
331.914
332.097
332.258
332.388
332.479
332.526
332.526
332.479
332.388
332.258
332.097
331.914
331.716
331.513
331.316
331.154
326.889
327.026
327.196
327.372
327.544
327.703
327.842
327.954
328.034
328.074
328.074
328.034
327.954
327.842
327.703
327.544
327.372
327.196
327.026
326.889
322.673
322.787
322.93
323.079
323.224
323.359
323.477
323.572
323.639
323.674
323.674
323.639
323.572
323.477
323.359
323.224
323.079
322.93
322.787
322.673
318.499
318.59
318.707
318.829
318.948
319.058
319.154
319.232
319.287
319.315
319.315
319.287
319.232
319.154
319.058
318.948
318.829
318.707
318.59
318.499
314.357
314.428
314.518
314.613
314.705
314.791
314.866
314.927
314.97
314.992
314.992
314.97
314.927
314.866
314.791
314.705
314.613
314.518
314.428
314.357
310.242
310.292
310.356
310.424
310.49
310.551
310.605
310.648
310.679
310.694
310.694
310.679
310.648
310.605
310.551
310.49
310.424
310.356
310.292
310.242
306.145
306.174
306.213
306.254
306.294
306.33
306.363
306.389
306.407
306.416
306.416
306.407
306.389
306.363
306.33
306.294
306.254
306.213
306.174
306.145
302.059
302.068
302.081
302.095
302.108
302.121
302.132
302.14
302.146
302.15
302.15
302.146
302.14
302.132
302.121
302.108
302.095
302.081
302.068
302.059
332.377
332.526
332.707
332.892
333.072
333.237
333.381
333.497
333.579
333.621
333.621
333.579
333.497
333.381
333.237
333.072
332.892
332.707
332.526
332.377
327.942
328.068
328.224
328.384
328.54
328.683
328.808
328.909
328.98
329.016
329.016
328.98
328.909
328.808
328.683
328.54
328.384
328.224
328.068
327.942
323.558
323.663
323.794
323.93
324.062
324.183
324.289
324.374
324.434
324.465
324.465
324.434
324.374
324.289
324.183
324.062
323.93
323.794
323.663
323.558
319.219
319.303
319.41
319.521
319.629
319.729
319.815
319.885
319.934
319.959
319.959
319.934
319.885
319.815
319.729
319.629
319.521
319.41
319.303
319.219
314.915
314.98
315.063
315.15
315.233
315.311
315.378
315.433
315.471
315.49
315.49
315.471
315.433
315.378
315.311
315.233
315.15
315.063
314.98
314.915
310.639
310.685
310.744
310.806
310.866
310.921
310.97
311.008
311.036
311.05
311.05
311.036
311.008
310.97
310.921
310.866
310.806
310.744
310.685
310.639
306.383
306.41
306.446
306.483
306.519
306.552
306.581
306.604
306.621
306.629
306.629
306.621
306.604
306.581
306.552
306.519
306.483
306.446
306.41
306.383
302.138
302.147
302.159
302.172
302.184
302.195
302.205
302.213
302.218
302.221
302.221
302.218
302.213
302.205
302.195
302.184
302.172
302.159
302.147
302.138
333.672
333.809
333.974
334.143
334.305
334.455
334.584
334.688
334.761
334.798
334.798
334.761
334.688
334.584
334.455
334.305
334.143
333.974
333.809
333.672
329.053
329.169
329.312
329.458
329.599
329.729
329.841
329.931
329.994
330.027
330.027
329.994
329.931
329.841
329.729
329.599
329.458
329.312
329.169
329.053
324.492
324.588
324.708
324.832
324.951
325.061
325.156
325.232
325.286
325.313
325.313
325.286
325.232
325.156
325.061
324.951
324.832
324.708
324.588
324.492
319.978
320.055
320.153
320.254
320.352
320.442
320.52
320.582
320.626
320.648
320.648
320.626
320.582
320.52
320.442
320.352
320.254
320.153
320.055
319.978
315.502
315.562
315.638
315.717
315.793
315.863
315.923
315.972
316.006
316.023
316.023
316.006
315.972
315.923
315.863
315.793
315.717
315.638
315.562
315.502
311.057
311.099
311.153
311.21
311.264
311.314
311.357
311.392
311.416
311.429
311.429
311.416
311.392
311.357
311.314
311.264
311.21
311.153
311.099
311.057
306.633
306.658
306.691
306.725
306.757
306.787
306.813
306.834
306.849
306.856
306.856
306.849
306.834
306.813
306.787
306.757
306.725
306.691
306.658
306.633
302.222
302.23
302.241
302.253
302.264
302.274
302.282
302.289
302.294
302.297
302.297
302.294
302.289
302.282
302.274
302.264
302.253
302.241
302.23
302.222
335.005
335.131
335.283
335.437
335.584
335.719
335.836
335.929
335.994
336.027
336.027
335.994
335.929
335.836
335.719
335.584
335.437
335.283
335.131
335.005
330.193
330.3
330.431
330.564
330.693
330.81
330.911
330.992
331.048
331.077
331.077
331.048
330.992
330.911
330.81
330.693
330.564
330.431
330.3
330.193
325.445
325.533
325.644
325.757
325.865
325.965
326.05
326.119
326.167
326.191
326.191
326.167
326.119
326.05
325.965
325.865
325.757
325.644
325.533
325.445
320.75
320.821
320.911
321.003
321.092
321.174
321.244
321.3
321.339
321.359
321.359
321.339
321.3
321.244
321.174
321.092
321.003
320.911
320.821
320.75
316.098
316.152
316.222
316.294
316.364
316.427
316.482
316.525
316.556
316.572
316.572
316.556
316.525
316.482
316.427
316.364
316.294
316.222
316.152
316.098
311.48
311.518
311.568
311.62
311.669
311.715
311.754
311.785
311.807
311.818
311.818
311.807
311.785
311.754
311.715
311.669
311.62
311.568
311.518
311.48
306.886
306.909
306.939
306.97
307
307.027
307.05
307.069
307.082
307.089
307.089
307.082
307.069
307.05
307.027
307
306.97
306.939
306.909
306.886
302.307
302.314
302.324
302.335
302.345
302.354
302.362
302.368
302.372
302.375
302.375
302.372
302.368
302.362
302.354
302.345
302.335
302.324
302.314
302.307
336.294
336.411
336.55
336.692
336.827
336.95
337.056
337.14
337.199
337.229
337.229
337.199
337.14
337.056
336.95
336.827
336.692
336.55
336.411
336.294
331.282
331.381
331.502
331.625
331.742
331.849
331.941
332.014
332.065
332.092
332.092
332.065
332.014
331.941
331.849
331.742
331.625
331.502
331.381
331.282
326.345
326.427
326.529
326.633
326.733
326.824
326.902
326.964
327.007
327.03
327.03
327.007
326.964
326.902
326.824
326.733
326.633
326.529
326.427
326.345
321.472
321.538
321.621
321.707
321.788
321.863
321.927
321.978
322.013
322.032
322.032
322.013
321.978
321.927
321.863
321.788
321.707
321.621
321.538
321.472
316.651
316.702
316.766
316.833
316.896
316.954
317.004
317.044
317.072
317.086
317.086
317.072
317.044
317.004
316.954
316.896
316.833
316.766
316.702
316.651
311.87
311.906
311.952
312
312.045
312.087
312.123
312.151
312.171
312.181
312.181
312.171
312.151
312.123
312.087
312.045
312
311.952
311.906
311.87
307.119
307.14
307.168
307.196
307.224
307.249
307.27
307.287
307.299
307.305
307.305
307.299
307.287
307.27
307.249
307.224
307.196
307.168
307.14
307.119
302.384
302.391
302.401
302.41
302.42
302.428
302.435
302.441
302.445
302.447
302.447
302.445
302.441
302.435
302.428
302.42
302.41
302.401
302.391
302.384
337.313
337.423
337.554
337.687
337.813
337.928
338.027
338.105
338.159
338.187
338.187
338.159
338.105
338.027
337.928
337.813
337.687
337.554
337.423
337.313
332.11
332.203
332.317
332.433
332.543
332.643
332.729
332.797
332.845
332.869
332.869
332.845
332.797
332.729
332.643
332.543
332.433
332.317
332.203
332.11
327.009
327.086
327.182
327.281
327.374
327.46
327.533
327.591
327.631
327.652
327.652
327.631
327.591
327.533
327.46
327.374
327.281
327.182
327.086
327.009
321.991
322.054
322.132
322.213
322.29
322.36
322.42
322.468
322.501
322.518
322.518
322.501
322.468
322.42
322.36
322.29
322.213
322.132
322.054
321.991
317.041
317.089
317.15
317.213
317.273
317.328
317.375
317.412
317.438
317.451
317.451
317.438
317.412
317.375
317.328
317.273
317.213
317.15
317.089
317.041
312.142
312.176
312.22
312.265
312.308
312.347
312.38
312.407
312.426
312.435
312.435
312.426
312.407
312.38
312.347
312.308
312.265
312.22
312.176
312.142
307.279
307.299
307.325
307.353
307.378
307.402
307.422
307.438
307.45
307.455
307.455
307.45
307.438
307.422
307.402
307.378
307.353
307.325
307.299
307.279
302.438
302.444
302.453
302.462
302.471
302.479
302.486
302.491
302.495
302.497
302.497
302.495
302.491
302.486
302.479
302.471
302.462
302.453
302.444
302.438
)
;

boundaryField
{
    hotSide
    {
        type            fixedGradient;
        gradient        nonuniform List<scalar> 
400
(
251.56
252.413
254.123
256.696
260.143
264.475
269.707
275.853
282.929
290.952
299.935
309.894
320.842
332.79
345.75
359.729
374.735
390.774
407.852
425.97
255.87
256.689
258.332
260.808
264.13
268.314
273.378
279.342
286.227
294.052
302.837
312.598
323.352
335.114
347.894
361.703
376.55
392.44
409.378
427.369
260.535
261.313
262.876
265.236
268.41
272.42
277.288
283.042
289.705
297.305
305.863
315.402
325.941
337.496
350.08
363.705
378.379
394.109
410.9
428.756
265.477
266.208
267.678
269.904
272.907
276.716
281.362
286.876
293.291
300.639
308.948
318.244
328.548
339.88
352.255
365.685
380.179
395.744
412.383
430.1
270.558
271.235
272.601
274.677
277.491
281.078
285.477
290.73
296.877
303.954
311.997
321.035
331.094
342.196
354.356
367.587
381.898
397.296
413.784
431.364
275.566
276.186
277.441
279.356
281.969
285.322
289.464
294.445
300.314
307.114
314.887
323.666
333.481
344.354
356.302
369.34
383.475
398.713
415.057
432.507
280.214
280.778
281.922
283.678
286.09
289.213
293.104
297.821
303.421
309.957
317.473
326.008
335.594
346.255
358.009
370.869
384.844
399.938
416.153
433.488
284.16
284.672
285.715
287.329
289.563
292.481
296.148
300.633
305.999
312.304
319.598
327.924
337.315
347.797
359.387
372.1
385.942
400.917
417.025
434.266
287.047
287.519
288.487
289.991
292.09
294.852
298.351
302.661
307.851
313.985
321.115
329.287
338.535
348.886
360.358
372.963
386.71
401.6
417.633
434.807
288.577
289.028
289.953
291.398
293.423
296.101
299.509
303.725
308.821
314.863
321.906
329.996
339.169
349.45
360.86
373.409
387.105
401.951
417.945
435.084
288.577
289.028
289.953
291.398
293.423
296.101
299.509
303.725
308.821
314.863
321.906
329.996
339.169
349.45
360.86
373.409
387.105
401.951
417.945
435.084
287.047
287.519
288.487
289.991
292.09
294.852
298.351
302.661
307.851
313.985
321.115
329.287
338.535
348.886
360.358
372.963
386.71
401.6
417.633
434.807
284.16
284.672
285.715
287.329
289.563
292.481
296.148
300.633
305.999
312.304
319.598
327.924
337.315
347.797
359.387
372.1
385.942
400.917
417.025
434.266
280.214
280.778
281.922
283.678
286.09
289.213
293.104
297.821
303.421
309.957
317.473
326.008
335.594
346.255
358.009
370.869
384.844
399.938
416.153
433.488
275.566
276.186
277.441
279.356
281.969
285.322
289.464
294.445
300.314
307.114
314.887
323.666
333.481
344.354
356.302
369.34
383.475
398.713
415.057
432.507
270.558
271.235
272.601
274.677
277.491
281.078
285.477
290.73
296.877
303.954
311.997
321.035
331.094
342.196
354.356
367.587
381.898
397.296
413.784
431.364
265.477
266.208
267.678
269.904
272.907
276.716
281.362
286.876
293.291
300.639
308.948
318.244
328.548
339.88
352.255
365.685
380.179
395.744
412.383
430.1
260.535
261.313
262.876
265.236
268.41
272.42
277.288
283.042
289.705
297.305
305.863
315.402
325.941
337.496
350.08
363.705
378.379
394.109
410.9
428.756
255.87
256.689
258.332
260.808
264.13
268.314
273.378
279.342
286.227
294.052
302.837
312.598
323.352
335.114
347.894
361.703
376.55
392.44
409.378
427.369
251.56
252.413
254.123
256.696
260.143
264.475
269.707
275.853
282.929
290.952
299.935
309.894
320.842
332.79
345.75
359.729
374.735
390.774
407.852
425.97
)
;
    }
    coldSide
    {
        type            mixed;
        refValue        uniform 300;
        refGradient     uniform 0;
        valueFraction   uniform 0.991591;
        source          uniform 0;
        value           nonuniform List<scalar> 
400
(
300.013
300.013
300.013
300.013
300.013
300.013
300.014
300.014
300.014
300.015
300.015
300.016
300.016
300.017
300.017
300.018
300.019
300.019
300.02
300.02
300.013
300.013
300.013
300.013
300.013
300.014
300.014
300.014
300.014
300.015
300.015
300.016
300.016
300.017
300.017
300.018
300.019
300.019
300.02
300.021
300.013
300.013