/*--------------------------------*- C++ -*----------------------------------*\
| =========                 |                                                 |
| \\      /  F ield         | OpenFOAM: The Open Source CFD Toolbox           |
|  \\    /   O peration     | Version:  2212                                  |
|   \\  /    A nd           | Website:  www.openfoam.com                      |
|    \\/     M anipulation  |                                                 |
\*---------------------------------------------------------------------------*/
FoamFile
{
    version     2.0;
    format      ascii;
    arch        "LSB;label=32;scalar=64";
    class       volScalarField;
    location    "0";
    object      relativeErrorField;
}
// * * * * * * * * * * * * * * * * * * * * * * * * * * * * * * * * * * * * * //

dimensions      [0 0 0 1 0 0 0];

internalField   nonuniform List<scalar> 
3200
(
0.0106396
0.00800211
0.00177787
0.00885983
0.00332771
0.00360405
0.00405152
0.00568987
0.00363883
0.00683946
0.00487827
0.0122069
0.0020668
0.00625481
0.00881563
0.000163278
0.0167341
0.0115919
0.0100694
0.00264281
0.0017184
0.000876211
0.000670791
0.00188204
0.0101539
0.00502096
0.00392086
0.00206776
0.00478287
0.00603549
0.00293984
0.00195174
0.01241
0.0106629
0.00294424
0.00149256
0.00399824
0.00401651
0.0134515
0.00401956
0.0142309
0.00710673
0.00761332
0.000524856
0.000391351
0.016486
0.00933385
0.00136237
0.00907848
9.31391e-05
0.00287868
0.00304801
0.0107896
0.00889479
0.00600295
0.0127589
0.00317095
0.00568743
0.00036609
0.0013637
0.0035535
0.00658888
0.000902521
0.000673847
0.0044756
0.00327456
0.0100211
0.0156626
0.00355721
0.00661977
0.000140529
0.00920996
0.00745611
0.000538916
0.00264975
0.00476914
0.00327146
0.0108972
0.00329086
5.15009e-05
0.0063884
0.00445165
0.00280913
0.0133329
0.00760686
0.000979846
0.000859173
0.0139642
0.00338826
0.00882852
0.00220538
0.0020375
0.00655222
0.00301918
0.000973152
0.0141581
0.0012852
0.000287735
0.00609497
0.00375894
0.00656315
0.00179614
0.00983259
0.00123049
0.00187226
0.00323859
2.57046e-05
0.00190606
0.00297384
0.000977029
0.00130024
0.00622635
0.00478461
0.00437729
0.000954525
0.00918941
0.00370539
0.00514966
0.00945045
0.00688387
0.00231684
0.00499059
0.00260494
0.00353002
0.00927186
0.00275534
0.00119204
0.00852481
0.00349113
0.000503532
0.00846684
0.00672212
0.00130697
0.00499397
0.00157486
0.00381932
0.0156792
0.00936612
0.00225073
0.00743703
0.0117227
0.0033471
0.00048661
0.00878123
0.00273594
0.00213904
0.0111754
0.00976235
0.00656666
0.00222842
0.00183187
0.00372835
0.00258258
0.0173074
0.00114216
0.00663731
0.00415894
0.00260403
0.00668035
0.00391335
0.00435169
0.00429903
0.00455945
0.000756121
0.000557758
0.00825402
0.00171464
0.00241156
0.0141638
0.00232998
0.00817687
0.00972329
0.00857591
0.00633497
0.00816057
0.00282986
0.00221459
2.84318e-05
0.00475312
0.0142816
0.00416551
0.00344835
0.000826156
0.0038859
0.0068046
0.000414081
0.0030694
0.00281384
0.000645432
0.000472385
0.000799512
0.00048574
0.000412157
0.0116993
0.00085595
0.00532774
0.00235704
0.00477957
0.00187375
0.00739648
0.00691376
0.00669409
0.00620492
0.00850636
0.0023885
0.00434612
0.00394726
0.00640615
0.00559321
0.00114674
0.00246645
0.00388116
0.00935576
0.00538958
0.00808225
0.00220499
0.00704569
0.00802754
0.0101821
0.00996859
0.00168396
0.00680341
6.09893e-05
0.0107262
0.00370954
0.00533279
0.00405652
0.0142888
0.00291243
0.00380797
0.000918268
0.0119511
0.00616774
0.00496943
0.00422299
0.0139942
0.00656137
0.00204741
0.0009224
0.0025772
0.00288291
0.00358112
0.0014643
0.0113774
0.00835599
0.0028111
0.00169714
0.00589308
0.00438574
0.00149349
0.000555775
0.00460527
0.00210639
0.000613959
0.00252057
0.00537269
0.000712572
0.00107871
0.0085294
0.00188326
0.00435155
0.0106364
0.00841421
0.00101755
0.00545266
0.00661235
0.00479324
0.000440101
1.12684e-05
0.00408798
0.00414488
0.00670303
0.00221578
0.00833637
0.00847803
0.0036409
0.00470758
0.00258408
0.00464795
0.00405836
0.0144372
0.00757968
0.0066373
0.00107366
0.00195202
0.0015062
0.00368634
0.00909752
0.0163667
0.000411688
0.00993551
0.0112775
0.00245078
0.004525
0.00463935
0.00201724
0.00805773
0.00733974
0.00151692
0.00988491
0.00998381
0.0113256
0.000503438
0.00386806
0.00468966
0.00138701
0.00118068
0.00246212
0.00194952
0.000492756
0.00214415
0.00153629
0.0137402
0.00101857
0.00190022
0.000926697
0.0154615
0.012202
0.000546153
0.00560429
0.000195576
0.000967469
0.00753891
0.00839228
0.00172489
0.00320968
0.00343394
0.00512742
0.000749938
0.00617379
0.00577728
0.00488206
0.00441107
0.00115307
0.00868608
0.00487343
0.0052275
0.00662817
3.08063e-05
0.000580346
0.00749911
0.000852505
0.00551044
0.011962
0.00615976
0.00144597
0.00505292
0.00629126
0.000337513
0.0139236
0.00101592
1.47025e-05
0.00573659
0.00377819
0.00478952
0.000722593
0.00404697
0.0087918
0.00354508
0.00566844
0.0022798
0.00226192
0.00236312
0.0083283
0.0067655
0.000622223
0.00449358
0.00757325
0.00147761
0.00169139
0.0142658
0.000298186
0.00879391
0.000267953
0.00391764
0.00227335
0.0105366
0.000338151
0.0037937
0.00711558
0.0114269
0.00746935
0.00489785
0.00276489
0.00169635
0.00463238
0.00577317
0.0023178
0.00881713
0.00128005
0.00390668
0.00535557
0.00856774
5.36926e-05
0.000184612
0.00142942
0.00390897
0.00147777
0.00246925
0.00405504
0.00408851
0.0104093
0.0102219
0.00470907
0.00422475
0.000522418
0.00340201
0.00133998
5.94773e-05
0.00106153
0.000603162
0.00896296
0.00173418
0.00150538
0.0056793
0.00568663
0.00621981
0.00794275
0.0091243
0.00134284
0.000205978
0.00463561
0.00387912
0.00178293
0.00339851
0.00852616
0.0130205
0.00368926
0.00549663
0.0100966
0.00456797
0.00580241
0.00832603
0.0010187
0.00199362
0.00154291
0.00463925
0.00763402
0.00477666
0.000914363
0.00186509
0.00145516
0.00141105
0.0057138
0.0100922
0.00936002
0.00146024
0.00436791
0.00977388
0.00280013
0.000611141
0.00715609
0.0127985
0.00473039
0.00244401
0.0102046
0.00607752
0.00526684
0.00126314
0.00413124
0.00444365
0.000482506
0.00297968
0.00244756
0.00368905
0.000651204
0.000573159
0.00107647
0.00660026
0.0134539
0.00361547
0.00181196
0.0010343
0.00436043
0.0081542
0.00533304
0.00377458
0.00434509
0.00490474
0.00116401
0.00175043
0.00756351
0.00508379
0.00204139
0.00604477
0.0112731
0.00367785
0.00521731
0.00726924
0.00443938
0.0011661
0.00949422
0.00451267
0.00971421
0.00392363
0.0122943
0.00140707
0.000867797
0.0156005
0.00419164
9.10596e-05
0.00713702
0.00179835
0.00643308
0.00647405
0.000829694
0.00971401
0.000756743
0.00569059
0.00111048
0.00332966
0.00576506
3.06943e-05
0.00991318
0.000705455
0.00806229
0.000269048
0.00652917
5.27983e-05
0.0034704
0.00334599
0.0146429
0.00133995
0.001699
0.000951445
0.0029269
0.00417974
0.000970127
0.000491971
0.003833
0.00106448
0.0121443
0.00174408
0.0056954
0.00299872
0.00314326
0.000286233
0.00314015
0.0112472
0.00428814
0.0040754
0.000662526
0.0120823
0.00216665
0.00124164
0.00128016
0.000610468
0.00815519
0.0105756
0.00409766
0.00103516
0.0075895
0.00633238
0.00375805
0.00298396
0.00701925
0.00364834
0.0219321
0.00370066
0.00672429
0.00558751
0.00175748
0.00538932
0.00498391
0.0060387
0.00888584
0.00591819
0.00582129
0.00299695
0.00722377
0.00754962
0.00477915
0.00168619
0.00706849
0.00054508
0.00212057
0.0037782
0.00554877
0.000409589
0.00422557
0.00624143
0.00635989
0.00111735
0.00177828
0.00246137
0.00294499
0.0123391
0.00296525
0.00523726
0.000102152
0.0035291
0.00361555
0.0121288
0.00410033
0.00217859
0.00303062
0.000531371
0.00752624
0.00577841
0.00932031
0.00174088
0.00302629
0.00469377
0.000287601
0.00305878
0.00268274
0.00746086
0.00242296
0.00772134
0.00233423
0.00150067
0.000587726
0.0152024
0.00704455
0.00819745
0.00674006
0.0136882
0.00162151
0.00044952
0.00530107
0.00424838
0.00214362
0.00817411
0.00509494
0.0031196
0.00662795
0.00177747
0.00452915
0.00750956
0.00116802
0.00402096
0.00416554
0.00160946
0.00829365
0.0105436
0.00309384
0.000464496
0.00413684
0.00377931
0.0035984
0.00670793
0.00158916
0.00139051
0.00365571
0.00224319
0.00536324
0.0110174
0.00251989
0.00959884
0.0119594
0.00631948
0.00561461
0.0128721
0.00265451
0.00441959
0.00397383
0.00702367
0.00082924
0.00528668
0.00493013
0.0116052
0.00703399
0.00442573
0.0057962
0.00280013
0.0130845
0.010037
0.00449388
0.0017141
0.00601653
0.00880512
0.00518647
0.000774596
0.012058
0.00494064
0.0120631
0.0116226
0.00457065
0.00687796
0.0100511
0.00496029
0.0120842
0.0130706
0.0122131
0.00472557
0.00996457
0.00271938
0.0124385
0.00256611
0.00128139
0.00533698
0.0152437
6.77888e-06
0.0040565
0.0056075
0.000933963
0.00490201
0.00807374
0.00868011
0.00171314
0.0121051
0.005301
0.000707349
0.00242649
0.0181848
0.00476515
0.00325922
0.0120715
0.0038338
0.00460303
0.00255197
0.0123446
0.00106346
0.00320589
0.00492038
0.00623194
0.0062664
0.0056913
0.00524406
0.00694942
0.00656834
0.00474998
0.00351729
0.000175834
0.000314232
0.00258669
0.003117
0.00360053
0.000336545
0.00194871
0.00159262
0.00355922
0.000138785
0.0113868
0.0111685
0.000138911
0.00335623
0.00257018
0.00207737
0.00219313
0.00681724
0.0164497
0.00346123
0.00671541
0.00096246
0.0072991
0.000349722
0.00473843
0.0123857
0.00610797
0.00842816
0.00138284
0.00560299
0.00020928
0.00149795
0.00193115
0.000222325
0.00032414
0.00402765
0.00817686
0.00539829
0.00459742
0.000408732
0.00516122
0.0101467
0.000643404
0.00701885
0.00232023
0.00507619
0.0106849
0.00756859
0.00417679
0.00880107
0.00691833
0.00469852
0.0117785
0.00545679
0.00709888
0.00650452
0.00432505
0.00587422
0.00759664
0.000676451
0.00613986
0.00211559
0.00288302
0.00150453
0.0167978
0.000603946
0.00743948
0.000225204
0.00892221
0.00861234
0.00144322
0.00533944
0.0115716
0.0068089
0.000506527
0.0068546
0.00656898
0.00852116
0.00635889
0.0118735
0.00342052
0.0038153
0.0138919
0.0132685
0.0119121
0.00387385
0.000701881
0.0132265
0.0167147
0.00967923
0.0109535
0.00396661
0.00319113
0.000692294
0.00295609
0.010186
0.00311858
0.00560231
0.0161115
0.000512948
0.00152873
0.000865792
0.000764379
0.00552782
0.000714125
0.0117874
0.00238045
0.000946247
0.00963403
0.00212709
0.00898225
0.00110693
0.00930247
0.000291056
0.00298475
0.000548097
0.00362296
0.00279852
0.00848663
0.00938516
0.00680924
0.00891614
0.000338965
0.00111551
0.00205434
0.0105453
0.00169427
0.00230472
0.00119773
0.0142533
0.0022993
0.000853927
0.00859392
0.00403265
0.000276346
0.00158588
0.00622233
0.0048071
0.00787709
0.00771888
0.00145496
0.00400352
0.00272997
0.00402065
0.00874095
0.0171628
0.00250833
0.009643
0.00370014
0.0093481
0.00182984
0.00639511
0.00300985
0.00232456
0.00425715
0.00866227
0.0107114
0.00717873
0.00953233
0.0104258
0.00865644
0.00869579
0.00796644
0.00823465
0.00229264
0.00446016
0.00618919
0.00666707
0.00682985
0.0168879
0.00499039
0.000792529
0.00121499
0.000819976
0.00273779
0.00703877
0.00783565
0.0039242
0.00880108
0.00441564
0.00217738
0.000558489
0.00513618
0.00719358
0.00336156
0.001369
0.00471596
0.00739889
0.000405801
0.00246048
0.00444552
1.37911e-05
0.00899453
0.00107657
0.0104561
0.000821038
0.000351314
0.0050748
0.000886032
0.00138571
0.00193929
0.00262106
0.00464568
0.00196061
0.0036376
0.0176983
0.00804885
0.00489329
0.000527893
0.0119242
0.000146454
0.000722904
0.0112255
0.00619796
0.00278955
0.00853594
0.00432323
0.000179096
0.0030197
0.0093428
0.000216784
0.00885293
0.00080972
0.00601278
0.00465812
0.00201912
0.00444619
0.0039677
0.000748251
0.0037647
0.00788504
0.00653196
0.00573382
0.0185857
0.00375317
0.000126628
0.00147546
0.00293398
0.00269642
0.010654
0.000298483
0.0061941
0.00383212
0.0133165
0.00574883
0.00109701
0.0107699
0.0238148
0.00972979
0.00213434
0.00572181
0.00297257
0.00109844
0.00258557
0.00865843
0.00766042
0.00793086
0.00480919
0.00553941
0.00278434
0.00614103
0.00597185
0.0107925
0.0104489
0.0121721
0.00985856
0.00145575
0.013462
0.00737347
0.0154647
0.0103439
0.0143478
0.0138831
0.00726908
0.0114689
0.0126892
0.000375649
0.00995949
0.0158717
0.00255825
0.000726691
0.0113181
0.000772435
0.003918
0.00748357
0.00744889
0.0101683
0.00484559
0.00248183
0.00647502
0.0253062
0.0114335
0.00962065
0.00820325
0.00507552
0.000829835
0.00625665
0.000735531
0.00233245
0.00463172
0.00464738
0.00822187
0.00259777
0.000143574
0.013985
0.0100568
0.0110897
0.000373541
0.00628717
0.0191777
0.0100998
0.00333489
0.00649669
0.00445736
0.00975285
0.00271466
0.00643214
0.00681179
0.0085737
0.00832392
0.0018963
0.0106107
0.00150236
0.0131637
0.00396335
0.0111156
0.00830657
9.82496e-05
0.00208211
0.00400447
0.0151849
0.00259055
0.00273275
0.00333712
0.00189473
0.005187
0.00259405
0.0107998
0.0065395
0.0099618
0.0105578
0.0115986
0.00735313
0.00638258
0.00460518
0.0131594
0.00538149
0.0096345
0.00283667
0.0132466
0.00175631
0.006025
0.00894164
0.00293097
0.0117338
0.00715314
0.00113157
0.00242314
0.000273327
0.00633746
0.00237827
0.00382749
0.00217311
0.000575094
0.00633827
0.0009972
0.00993343
0.00857065
0.00426045
0.00309881
0.000576967
0.000978043
0.00636536
0.00140461
0.00955238
0.00275283
0.00262768
0.00188821
0.00240262
0.00149068
0.00471739
0.0022515
0.00626847
0.000673924
0.00278575
0.00486949
0.000604226
0.00829412
0.0107088
0.00201052
0.00352074
0.000979841
0.00990649
0.00710379
0.00699251
0.00286792
0.0036162
0.000520861
0.00321628
0.00260288
0.0121023
0.0124744
0.0114051
0.0095474
0.0147171
0.0133294
0.00713409
0.00865007
0.0127313
0.00854276
0.00540161
0.00457185
0.00101111
0.00646868
0.0153228
0.0028182
7.19995e-06
0.00242767
0.00921938
0.0092782
0.00772657
0.0206625
0.00208588
0.010936
0.000677432
0.00254316
0.000469305
0.00185651
0.00573421
0.00115152
0.00665114
0.000971161
0.000295321
0.00178061
0.0169567
0.00116471
0.00240625
0.00390427
0.0130134
0.00336333
0.00966116
0.00552929
0.0093643
0.0115665
0.0184811
0.0132066
0.00749106
0.00994477
0.0102952
0.0088223
0.00427866
0.00653147
0.000447013
0.00644248
0.00299977
0.0043936
0.00382763
0.0138725
0.00237393
0.000248991
0.00396263
0.0181768
0.000961058
0.0135907
0.00656468
0.0112573
0.00825142
0.00478229
0.00191188
0.0125977
0.0012892
0.00626889
0.00233266
0.00475385
0.00551389
0.00411867
0.00274567
0.00613214
0.00726771
0.000522455
0.00665656
0.000516089
0.00546918
0.0106907
0.00908367
0.00665875
0.00802184
0.00257662
0.00480864
0.00455744
0.0118665
0.00459936
0.00316779
0.00359614
0.00951299
0.00942263
0.000501579
0.0116021
0.000740492
0.0149549
0.00278604
0.000462767
0.000628589
0.00969345
0.0237344
0.00127396
0.012155
0.00963835
0.00423791
0.000739472
0.00678732
0.00274719
0.00354932
0.000168241
0.0060716
0.000298714
0.00738173
0.00713582
0.00986339
0.00699838
0.0108659
0.00547223
0.0111474
0.00515913
0.00814363
0.00398018
0.00739726
0.00419161
0.00601288
0.00292325
0.000643982
0.00664791
0.00612047
0.00290354
0.002212
0.00994672
0.00938414
0.00952309
0.00419808
0.000808169
0.00757978
0.00231073
6.79204e-05
0.00433755
0.00422781
0.00654567
0.000227896
0.00926884
0.00334131
0.00361719
0.00956086
0.00125575
0.00635768
0.00617628
0.00290636
0.0014182
0.00814316
0.0106159
0.0121305
0.00130292
0.0059527
0.0208113
0.00647774
0.0132804
0.0122739
0.0155396
0.00952793
0.00239739
0.0094315
0.00928078
0.00805684
0.00942349
0.00705602
0.011092
0.00027278
0.00721683
0.0123442
0.0125088
0.00472315
0.00851747
0.00595279
0.00489522
0.0122468
0.01801
0.020992
0.00852003
0.00513391
0.0135352
0.00720841
0.0174519
0.0126541
0.00688098
0.00862955
0.0116924
0.000871159
0.00308565
0.00112151
0.00432233
0.00734382
0.00975587
0.0039418
0.00623126
0.0112412
0.00688373
0.0185882
0.00313927
0.00485712
0.0107117
0.00279577
0.0110892
0.0111737
0.0115743
0.000434479
0.0100619
0.000815853
0.00597308
0.00998336
0.0055784
0.00224502
0.000528709
0.000119588
0.0141227
0.0120601
0.0151526
0.00576635
0.00406184
0.0043987
0.00939431
0.00110995
0.00442418
0.00663628
0.00902158
0.00970983
0.000959969
0.0108183
0.0177115
0.00522449
0.00441169
0.000407889
0.00381624
0.00926934
0.00404688
0.0068429
0.00837232
0.000486677
0.00528194
0.0100789
0.00819617
0.00762124
0.00575191
0.00400316
0.00238295
0.00205132
0.00328908
0.00131204
0.00830192
0.00238198
0.00301896
0.000492549
0.0070532
0.00163272
0.00898392
0.00353735
0.00477354
0.00111898
0.00633783
0.00938697
0.00107242
0.00117756
0.00202553
0.000486982
0.00773697
0.00357267
0.0109562
0.00159941
0.00214914
0.00130783
0.0129495
0.0124038
0.00685144
0.00271453
0.00645715
0.000719365
0.00355431
0.0062872
0.0062408
0.000725015
0.00212323
0.00244653
0.0115504
0.00238267
0.000212203
0.00208287
0.00529364
0.000767354
0.003859
0.00443323
0.010475
0.00741648
0.0190911
0.00375047
0.00550228
0.00663565
0.00403711
0.00619401
0.00544066
0.00272747
0.00666224
0.0162204
0.00094652
0.00193979
0.00995934
0.0151046
0.0108727
0.00620991
0.00644862
0.00514531
0.00510653
0.0021627
0.00678783
0.00906303
0.0136681
0.00723349
0.0114838
0.0149339
0.0113718
0.00788253
0.0175552
0.0169086
0.020817
0.0131194
0.00654354
0.00286871
0.000274252
0.00785711
0.0011293
0.00268426
0.00663812
0.00555795
0.0124637
0.00840537
0.00820216
0.000680729
0.00983742
0.0010432
0.0130156
0.000151187
0.00366003
0.0143482
0.00104096
0.00395588
0.00309698
0.0108507
0.000862537
0.00649715
0.000615417
0.00863827
0.000732072
0.0170524
0.0125097
0.00699525
0.0188679
0.00297045
0.0102977
0.00116964
0.00261439
0.0112305
0.00137212
0.00715095
0.00558025
0.00247416
0.0118343
0.0172011
0.00917442
0.00780662
0.00667645
0.00483044
0.00440727
0.000850518
0.00538551
0.0148468
0.00985029
0.0157046
0.00603085
0.00248261
0.00379513
0.0136959
0.0107096
0.00943126
0.0101381
0.00288287
0.0044313
0.00258546
0.00973427
0.00084805
0.0123304
0.00300063
0.000642025
0.00330887
0.00405588
0.0118912
0.00483522
0.00736227
0.0148311
0.00752493
0.00932071
0.0124712
0.00657924
0.00634279
0.00123551
0.00404851
0.00941975
0.00775769
0.000656921
0.0117846
0.0018481
0.00130554
0.0122561
0.000991518
0.00215492
0.00784304
0.00118532
0.0075997
0.000179599
0.00834501
0.000255237
0.00794363
0.0059216
0.0117092
0.00370278
0.0067863
0.0119057
0.0101945
0.000829214
0.00145626
0.000784341
0.00160181
0.00427541
0.00329558
0.00338289
0.00893965
0.00688982
0.010078
0.00389179
0.00928834
0.00260834
0.00169606
0.000696973
0.00630752
0.0154124
0.00203819
0.00194592
0.00558811
0.00222976
0.00467812
0.00270945
0.00362513
0.0027039
0.00460147
0.00189601
0.00727624
0.0113797
0.00139793
0.00555711
0.00557644
0.00165024
0.000912764
0.00519086
0.00186789
0.00327609
0.0100793
0.00568677
0.0024048
0.000346664
0.000140853
0.00169006
0.00751463
0.00187242
7.06786e-05
0.00809297
0.00531175
0.0168137
0.00205112
0.00648174
0.00108826
0.00313416
0.00585783
0.00626146
0.00030138
0.0102502
0.0150858
0.00962995
0.0121798
0.00308023
0.00415572
0.00750772
0.00879516
0.00868359
0.00110017
0.00108247
0.00866546
0.00534517
0.00093789
0.0107143
0.00251366
0.0143513
0.00260266
0.0010934
0.00272457
0.000966834
0.000589436
0.000568924
0.0119379
0.000172459
0.0121429
0.00124073
0.00851425
0.0144123
0.00578404
0.0118799
0.00302841
0.00276103
0.00324492
0.00100208
0.0219896
0.0170435
0.0151039
0.0109684
0.00639036
0.000713867
0.0121239
0.00413235
0.0074717
0.00229475
0.00861405
0.00090308
0.00539506
0.000434233
0.00971835
0.00777904
0.00138217
0.00370937
0.0092882
0.012197
0.00968141
0.00876985
0.015889
0.013444
0.00261787
0.00216653
0.000129282
0.00341439
0.0155592
0.00241099
0.00025446
0.00596016
0.00129939
0.00182391
0.000172121
0.0106278
0.00115174
0.00212362
0.00703561
0.0127418
0.00640638
0.00548585
0.0029622
0.00112805
0.0046002
0.0133485
0.0109465
0.0151895
0.00783309
0.00505135
0.00962298
0.00297775
0.00936269
0.011655
0.00527356
0.0029453
0.000586076
0.000763457
0.00230653
0.00799039
0.00570194
0.00978288
0.0187605
0.00243858
0.00695377
0.00645776
0.00327148
0.00476949
0.0023272
0.0060915
0.005799
0.00646043
0.00131176
0.0103591
0.000970661
0.00139639
0.00398429
0.00334081
0.00676723
0.0134062
0.000202632
0.011105
0.00506326
0.00396599
0.0128187
0.0016701
0.00383382
0.00325178
0.0112926
0.00826278
0.00625627
0.000265644
6.91004e-05
0.00228555
0.00360721
0.0110072
0.00519106
0.00870917
0.00247337
0.00445932
0.00390792
0.0061603
0.0128679
0.0124983
0.00302544
0.00418711
0.00621301
0.016615
0.00699166
0.0105586
0.00981155
0.0041519
0.0068147
0.00601297
0.0129096
0.00860009
0.0182003
0.000623789
0.00403507
0.0130497
0.0182448
0.0114539
0.000355155
0.018246
0.00392487
0.00295
0.0122027
0.0101536
0.00560519
0.00122339
0.00417724
0.00583391
0.00211617
0.00502841
3.048e-05
0.000975405
0.0116563
0.0113227
0.00678942
0.00908464
0.014542
0.00464936
0.0147229
0.0115304
0.000432895
0.0138626
0.00974691
0.0136914
0.00326503
0.00523703
0.00565448
0.00579906
0.00330371
0.00468105
0.00464892
0.00894327
0.00179222
0.00594007
0.00237341
0.0043634
0.00273784
0.00616567
0.0114372
0.00613802
0.00131901
0.00796285
0.0116183
0.0119443
0.00307094
0.000567197
0.00899797
0.00486558
0.00272102
0.00481204
0.00100549
0.00131957
0.00809926
0.00684698
0.00471663
0.00465743
2.843e-05
0.019133
0.00933322
0.00935659
0.00409558
0.00687312
0.00795572
0.00540106
0.00716982
0.00370154
0.00885535
0.00207234
0.00306446
0.00154315
0.00232839
0.000208196
0.00713744
0.0023924
0.00175369
0.00424946
0.00345346
0.00781889
0.00131403
0.00828947
0.00899085
0.000505501
0.00180431
0.0121628
0.00970774
0.00247108
0.00014988
0.000481892
0.002748
0.00112334
0.0065873
0.0027712
0.00508385
0.00197019
0.00290656
0.00801271
0.00252941
0.0149396
0.0133101
0.00749113
0.0010865
0.0041994
0.00336254
0.0186564
0.00109319
0.00438889
0.00512508
0.00478493
0.0117076
0.00543943
0.00353133
0.00134061
0.00283171
0.00204832
0.000757594
0.00605151
0.00524211
0.00200272
0.0104259
0.00660875
0.0014264
0.00841875
0.0150762
0.00595567
0.00508525
0.00244896
0.0031607
0.0103965
0.0106384
0.00750839
0.00747389
0.000106817
0.00638153
0.00776595
0.000597025
0.00784945
0.00464105
0.000197774
0.0121965
0.00127706
0.00349588
0.00015488
0.0073073
0.0126688
0.00752968
0.000886772
0.000188729
0.00432093
0.00187995
0.00180612
0.00364019
0.00489988
0.00787667
0.0114006
0.0178849
0.0106949
0.00844879
0.00932058
0.00365109
0.00486448
0.00683479
0.00968426
0.00143569
0.0090137
0.00848415
0.00443714
0.00267078
0.00325121
0.00923546
0.00269842
0.00582823
0.00654026
0.0088227
0.00772101
0.000451745
0.00418742
0.00256553
0.00855979
0.000439192
0.00110868
0.0127988
0.000399381
0.00804514
0.00191541
0.00247709
0.00131597
0.00576448
0.000760492
0.00274987
0.00253473
0.0034315
0.00149489
0.000151326
0.00306932
0.00246305
0.00569025
0.0109495
0.00273589
0.00407705
0.00578447
0.00559336
0.00218435
0.00843407
8.30863e-05
0.00264741
0.00461635
0.00665277
0.00353145
0.00295195
0.00244779
0.00160549
0.00194026
0.000955108
0.00729801
0.0134002
0.00799505
0.0147069
0.0120385
0.0125508
0.00233208
0.00693184
0.0111798
0.00504816
0.00837526
0.00703089
0.00448531
0.000900962
0.00596218
0.00213847
0.00168822
0.00273614
0.00198697
0.00168325
0.00360141
0.0066456
0.0111344
0.00840323
0.011245
0.0024074
0.00320686
0.0125817
0.0005332
0.00609322
0.00830998
0.0106507
0.00268201
0.00145519
0.00611713
0.00440963
0.012358
0.00808197
0.000775692
0.000284335
0.00322847
0.00210208
0.00821222
0.00543737
0.0100375
0.00304743
0.00819399
0.00581857
0.00838437
0.00153675
0.00565302
0.00636354
0.0107136
0.00589131
0.000949474
0.00174864
0.00858327
0.000610808
0.00501646
0.00495683
0.0109312
0.00549587
0.00961792
0.00973468
0.00193037
0.000824798
0.00564523
0.005424
0.00325031
0.00207029
0.0021103
0.00914088
0.00913756
0.00677467
0.000180442
0.00147243
0.00658558
0.00282611
0.00945573
0.00299769
0.000449522
0.000310671
0.00376225
0.000740429
0.00468371
0.00411617
0.00665797
0.00293455
0.0124615
0.00399749
0.00206986
0.0106785
0.00148109
0.010973
0.0047542
0.000133809
0.00761158
0.00298576
0.00848711
0.00249097
0.0062065
0.00396631
0.0122991
0.0028681
0.00527917
0.00508702
0.0032837
0.000789503
0.00578646
0.0164292
0.00241663
0.0020754
0.00289671
0.00462962
0.00885263
0.00988682
0.0119569
0.00576797
0.00039766
0.00145585
0.0147909
0.00051749
0.013211
0.00638097
0.0116345
0.00234011
0.00649146
0.00361614
0.00640915
0.00434198
0.00079231
0.00955927
0.00385117
0.000631653
9.95953e-05
0.00918969
0.00602221
0.00569786
0.00556996
0.00702632
0.00415291
0.000337931
0.00317046
0.00751952
0.0163495
0.00448144
0.0113894
0.0101694
0.00951804
0.0013261
0.00698905
0.00750725
0.00193391
0.0149677
0.00299145
0.000226138
7.76501e-05
0.00661172
0.00458333
0.00497644
0.00463083
0.00701674
0.00971448
0.00178677
0.00733447
0.00776614
0.00501051
0.00992185
0.00878372
0.00655565
0.00192383
0.00412848
0.00428424
0.00554507
0.00131629
0.00303962
0.0055077
0.0039642
0.00312746
0.00037914
0.00566314
0.00494224
0.0103901
0.00224547
0.0040881
0.00318764
0.00514979
0.00707894
0.00149465
0.00641838
0.00215739
0.0042065
0.00291484
0.00913537
0.00612904
0.00534128
0.00218588
0.00527586
0.00334339
0.00306321
5.63207e-05
0.00375358
0.0139003
0.000565998
0.0034724
0.00684683
0.00349218
0.00915917
0.0107758
0.002779
0.000815031
0.00940389
0.00559597
0.00737034
0.00379405
0.00699491
0.00922972
0.00847154
0.000864534
0.000150791
0.00318643
0.00711927
0.0129504
0.000399991
0.013497
0.00252419
0.00121793
0.000872057
0.0133531
0.0121393
0.00757164
0.0043578
0.00108706
0.00622379
0.00678295
0.00308639
0.00680247
0.0019125
0.0109796
0.00656434
0.00822026
0.0010023
0.00174708
0.00522041
0.00157008
0.0100735
0.00252393
0.00727649
0.00501384
0.00157866
0.00732657
0.00669698
0.001029
0.00174194
0.00426314
0.00193134
0.00233722
0.0118948
0.0108613
0.00674737
0.00152412
0.00409982
0.000967527
0.00145769
0.0105111
0.00565466
0.000249328
0.00596991
0.00724326
0.00118658
0.0031625
0.00229609
0.00178168
0.00188673
0.000489032
0.00476092
0.0022404
0.00328599
0.00639118
0.00149681
0.00158316
0.000935144
0.00524258
0.000897242
0.00234584
0.000933439
0.00127425
0.00123203
0.00108527
0.0046753
0.00035978
0.00407145
0.00168235
0.00108034
4.38086e-05
0.00205269
0.00930346
0.00220239
0.0090692
0.00952502
0.00514727
0.00279384
0.00730131
0.00208355
0.00208882
0.00662995
0.00676033
0.0103141
0.00809016
0.00391009
0.000114344
0.00417139
0.0053377
0.00273167
0.0131296
0.00924735
0.00282766
0.00551128
0.0119244
0.0023751
0.000575485
0.00165826
0.00235777
0.00300172
0.00499008
0.00484851
0.0104029
0.00047442
0.00971931
0.000730296
0.000266259
0.000575292
0.00253318
0.0154909
0.00977824
0.0132309
0.00464006
0.00252521
0.0154036
0.00860769
0.00449025
0.00498434
0.000286178
0.00351288
0.00327843
0.0110025
0.00339086
0.00590717
0.000185334
0.00880365
0.0017339
0.00670613
0.0031975
0.00339827
0.00399159
0.00725227
0.0086566
0.000546072
0.000679902
0.0012495
0.000507648
0.00241057
0.0104545
0.00718188
7.20344e-06
0.000220609
0.000488109
0.000624781
0.00362414
0.000754534
0.00660522
0.0103691
0.00139271
0.00546743
0.0076934
0.00207177
0.000329488
0.00935285
0.00717228
0.0144871
0.00066122
0.00927104
0.000503522
0.0010486
0.000991727
0.00593276
0.00443474
0.00288342
0.00245027
0.00810923
0.00511704
0.0133857
0.00215367
0.0070867
0.00221258
0.00790443
0.00490977
0.0169964
0.00476427
0.00589363
0.00756234
0.00489769
0.0110152
0.00259452
0.00573329
0.00478451
0.00583138
0.00313782
0.00740434
0.0066701
0.00541111
0.00692374
0.00191522
0.0070205
0.0134204
0.00576241
0.0166425
0.0141303
0.00546786
0.00480088
0.0155477
0.0106204
0.0158721
0.00343221
0.00321498
0.00330754
0.00326053
0.00117362
0.00726829
0.00223001
0.00574004
0.00902658
0.00496264
0.0106813
0.0130805
0.0119645
0.00990363
0.00736927
0.00724809
0.0169156
0.00523334
0.00766239
0.00389687
0.003677
0.0018139
0.00452474
0.00105619
0.000359508
0.00564858
0.00146551
0.00564338
0.00906733
0.00129397
0.00406973
0.00152115
0.0171787
0.0152556
0.00932001
0.0183888
0.00178358
0.000528138
0.00944183
0.00191853
0.012743
0.0026057
0.00424242
0.0014726
0.00652165
0.00376361
0.00297141
0.00844094
0.00641247
0.00885607
0.0109261
0.0103185
0.0100601
0.00435193
0.00182132
0.00469544
0.00467889
0.00835666
0.00283102
0.000731859
0.0132265
0.00439099
0.00431345
0.00183526
0.00486959
0.00734237
0.00354076
0.00648177
0.00379651
0.0140333
0.00772072
0.000191939
0.00297221
0.0105945
2.02543e-05
0.00454544
0.00288904
0.00391918
0.00626436
0.00388509
0.00769936
0.00433131
0.00123176
0.00784277
0.00146549
0.0113027
6.48377e-05
0.00632279
0.00102526
0.00100954
0.00100407
0.00242383
0.00887198
0.0198248
0.00306438
0.00455325
0.00302186
0.00122691
0.00250621
0.00444519
0.00312888
0.00938944
0.00408234
0.00269968
0.00309356
0.00663173
0.00570935
0.0146288
0.00916576
0.00077409
0.00228056
0.000138324
0.00551097
0.000918161
0.014423
0.000728773
0.0076821
0.0100271
0.00167365
0.00449886
0.000959553
0.00564166
0.00703733
0.00173828
0.00734358
0.0132769
0.0118701
0.00238664
0.0139032
0.00670807
0.010122
0.00673077
0.0125557
0.00826375
0.000456116
0.00459081
0.00408881
0.000748438
0.00246666
0.00517932
0.00255248
0.0018036
0.00565231
0.00141703
0.00248007
0.0091
0.00243897
0.00596407
0.00273002
0.00594407
0.00289747
0.00191432
0.00727175
0.0210113
0.0127041
0.00199222
0.0067375
0.000735465
0.0145667
0.00211546
0.00546678
0.0114914
0.00193047
0.00230997
0.00115929
0.00769741
0.00173162
0.00293138
0.00927426
0.0224094
0.0118345
0.0185185
0.0138363
0.0180291
0.0026897
0.00596873
0.00226297
0.0112774
0.00122183
0.00792593
3.17262e-05
0.0069896
0.000240196
0.00191267
0.0131918
0.00355438
0.000622141
0.000485618
0.014641
0.000496067
0.016226
1.1727e-05
0.0129456
0.013505
0.0116976
0.016688
0.0134691
0.00282209
0.00715286
0.0137335
0.0127421
0.00463518
0.0119096
0.00249956
0.0109518
0.00311736
0.0102113
0.00284494
0.00259833
0.00585559
0.0143486
0.0112523
0.00647148
0.0181182
0.0105158
0.00931334
0.00925419
8.52378e-05
0.00679393
0.00936392
0.0105537
0.00413713
0.00405993
0.00456323
0.00600634
0.00634091
0.00129924
0.00645584
0.00864507
0.00895411
0.00395512
0.018593
0.0168526
0.0191732
0.012997
0.000151209
0.0129963
0.00813697
0.000141279
0.00594251
0.000221904
0.0166519
0.00237269
0.00158974
0.00429167
0.00297323
0.00194931
0.00376602
0.00176937
0.00696394
0.00126754
0.00296008
0.00256497
0.00219215
0.011195
0.0166419
0.0103737
0.00136252
0.00839614
0.000484383
0.00234068
0.00437231
0.00493612
0.00355093
0.002788
0.00543467
0.00477928
0.000563942
0.00661136
5.99353e-05
0.00382925
0.000729774
0.00761232