/*--------------------------------*- C++ -*----------------------------------*\
| =========                 |                                                 |
| \\      /  F ield         | OpenFOAM: The Open Source CFD Toolbox           |
|  \\    /   O peration     | Version:  2212                                  |
|   \\  /    A nd           | Website:  www.openfoam.com                      |
|    \\/     M anipulation  |                                                 |
\*---------------------------------------------------------------------------*/
FoamFile
{
    version     2.0;
    format      ascii;
    arch        "LSB;label=32;scalar=64";
    class       volScalarField;
    location    "0";
    object      stateMean;
}
// * * * * * * * * * * * * * * * * * * * * * * * * * * * * * * * * * * * * * //

dimensions      [0 0 0 1 0 0 0];

internalField   nonuniform List<scalar> 
3200
(
331.328
332.502
334.962
338.944
337.507
335.587
335.816
335.583
338.967
335.55
336.213
333.615
336.805
335.073
333.832
336.333
330.345
331.669
331.809
334.006
329.568
330.094
330.929
330.437
328.059
330.115
330.808
333.075
330.999
330.689
331.719
331.941
328.263
328.569
330.804
331.919
329.736
332.035
325.939
328.808
320.794
327.945
323.422
326.372
326.381
321.423
324.036
327.769
324.521
327.553
326.641
326.496
323.791
324.18
324.849
322.343
327.235
324.049
325.512
324.981
321.893
318.804
321.43
321.601
320.196
320.828
318.881
317.253
321.293
324.649
322.469
319.47
319.898
321.935
321.029
320.102
320.333
317.64
319.862
320.77
314.093
314.832
315.523
312.38
314.387
316.677
316.893
312.883
316.346
320.282
318.179
318.069
315.235
316.207
317.296
312.312
316.194
316.503
314.313
317.3
309.453
312.147
308.645
312.229
311.4
311.11
312.255
311.758
311.502
312.166
312.877
310.486
310.859
310.88
311.823
314.851
313.001
310.105
308.642
313.641
306.188
305.421
306.226
306.023
304.343
306.426
307.715
310.034
306.386
307.638
310.086
305.392
307.011
305.814
306.789
308.364
302.292
304.15
307.644
304.617
298.767
301.317
302.207
299.726
301.582
303.084
299.082
299.53
300.513
303.181
303.061
301.371
301.702
297.227
302.092
300.402
301.123
301.567
304.349
301.128
333.569
333.876
337.22
335.84
336.322
339.699
336.717
336.798
333.059
337.179
335.202
334.559
340.507
335.158
334.169
337.462
336.838
335.679
333.724
330.242
328.876
329.358
331.092
332.456
329.273
332.019
331.188
333.418
332.467
332.63
333.053
332.844
332.619
328.321
331.598
333.295
331.95
332.4
329.879
327.809
323.272
323.547
328.02
323.517
327.377
328.317
325.88
325.305
325.739
327.284
326.852
326.3
324.339
325.408
324.254
325.877
323.994
328.614
322.41
322.278
321.373
318.813
321.237
318.011
320.515
320.235
323.483
317.759
321.564
321.348
322.872
326.357
320.377
320.575
320.592
317.206
323.568
320.559
321.293
320.006
315.263
315.168
316.935
313.056
319.501
316.151
316.679
319.234
318.862
317.053
317.351
318.932
316.696
317.412
316.243
315.151
316.433
316.131
313.603
316.77
312.897
308.315
309.129
312.203
310.323
310.096
310.787
312.526
312.469
313.783
311.21
314.559
311.697
314.887
314.807
310.888
313.354
312.558
313.078
312.805
302.494
309.306
309.09
307.462
307.815
306.833
308.504
304.637
302.448
307.631
304.449
304.012
306.681
305.98
305.87
307.835
304.657
304.798
306.513
309.959
299.302
298.914
302.515
303.56
303.835
302.864
302.827
301.746
301.916
302.365
301.865
302.971
306.647
302.162
301.87
302.697
297.715
306.052
302.503
304.014
335.232
335.26
338.483
339.17
337.336
336.072
336.363
339.564
338.311
340.264
340.13
336.407
336.342
337.911
340.083
335.114
334.589
333.723
335.595
335.103
328.008
330.447
329.22
327.423
333.783
331.606
334.084
334.764
332.978
328.333
333.307
332.861
330.763
331.148
330.495
331.5
332.728
328.134
331.901
332.359
324.977
325.184
326.958
329.196
324.564
326.863
325.865
330.043
327.242
327.259
323.136
327.628
330.443
327.248
328.348
326.032
329.917
326.077
324.685
323.402
324.662
318.757
319.798
322.498
322.399
320.6
320.45
321.748
325.475
323.113
321.439
320.902
325.258
322.294
322.151
322.313
320.352
320.897
321.949
322.296
315.006
319.718
319.827
315.284
315.626
317.317
316.241
317.889
317.55
317.286
317.815
320.415
318.015
316.843
315.35
318.767
318.746
314.076
313.537
316.724
311.694
313.163
310.627
312.525
313.166
309.575
308.292
311.308
314.253
315.73
314.002
310.722
315.063
312.041
311.615
311.623
313.416
309.456
310.229
311.915
307.552
306.584
306.67
305.427
310.364
310.22
306.967
306.134
310.528
306.684
307.357
309.723
303.542
305.962
308.094
304.127
305.315
305.486
306.643
305.711
300.995
302.21
303.281
303.146
303.549
302.263
302.658
302.179
304.517
306.598
303.622
301.972
302.192
303.804
299.994
300.82
301.265
301.066
300.873
302.69
335.119
333.446
334.632
337.416
339.162
341.316
339.109
339.929
340.842
339.999
338.101
341.595
336.639
341.148
338.835
341.269
337.203
336.05
330.745
334.3
330.868
333.438
331.978
333.85
334.209
332.117
335.932
333.211
335.042
332.875
334.355
331.225
332.969
335.998
332.159
334.736
331.805
333.546
331.092
329.69
327.108
321.436
326.909
326.199
327.355
326.368
328.955
328.122
327.801
326.788
327.696
323.979
328.376
325.72
328.308
328.072
326.66
327.497
329.882
327.415
319.926
321.18
325.49
321.138
321.672
321.89
322.712
320.061
326.236
321.567
323.224
325.272
320.65
323.727
321.341
324.333
323.009
328.657
320.204
319.075
318.254
316.052
318.478
318.531
319.05
320.134
315.6
319.466
318.67
320.065
315.371
316.2
317.081
319.723
317.141
317.808
318.149
318.529
316.738
317.823
309.817
313.832
312.315
311.539
311.456
313.274
308.615
313.497
314.279
312.711
313.782
311.512
316.361
313.752
313.034
311.279
312.26
314.314
310.047
314.669
306.524
308.039
305.738
307.169
306.396
306.588
309.777
306.797
309.96
306.89
308.07
307.404
312.217
305.317
309.933
305.265
311.463
307.678
307.248
308.687
303.65
303.03
299.933
300.89
303.402
304.488
303.045
301.157
300.269
302.902
301.332
301.281
302.04
305.016
305.672
303.394
302.571
303.656
303.525
301.277
338.509
337.059
337.336
338.473
338.378
339.805
342.059
339.469
342.074
342.984
341.073
340.724
342.975
339.229
339.486
338.963
334.871
337.147
338.303
337.911
335.153
333.87
333.304
334.082
331.556
337.162
336.444
334.845
332.954
335.626
336.557
331.796
333.605
337.118
334.451
336.498
336.018
330.318
333.818
327.978
324.794
330.55
331.125
331.121
328.951
330.94
327.031
332.212
329.124
328.782
330.113
333.286
328.129
326.593
329.512
327.098
328.73
329.492
329.438
325.854
317.665
323.416
321.687
322.92
328.227
321.05
323.842
326.858
321.843
324.634
323.972
327.07
322.616
321.755
324.174
324.374
320.119
320.083
320.024
323.793
318.817
315.349
315.898
317.242
317.463
316.714
318.682
316.68
317.813
318.59
318.476
319.052
317.78
321.309
313.989
317.407
318.251
316.198
316.196
317.432
314.069
306.892
313.218
314.358
312.689
314.792
312.514
314.199
316.66
314.732
315.458
312.353
310.965
312.558
312.043
311.785
312.192
312.037
310.768
314.493
308.824
308.627
307.409
305.771
310.552
307.705
309.733
308.345
309.234
310.981
310.022
306.387
304.924
309.702
306.062
311.054
305.68
309.464
305.217
308.495
304.177
300.12
302.645
304.322
301.85
303.387
302.083
307.639
302.753
304.829
302.51
305.27
299.951
302.975
300.9
298.99
304.524
302.593
304.49
300.415
339.808
339.342
341.536
339.041
339.538
343.303
343.417
343.229
340.698
339.723
343.975
345.056
342.472
342.632
339.942
339.326
337.651
336.53
340.633
335.886
330.039
337.47
332.575
333.221
332.738
333.586
335.453
334.079
337.946
334.892
334.413
337.227
334.551
336.606
332.962
336.124
332.809
333.396
331.937
333.1
327.824
329.869
330.405
329.824
330.782
328.227
327.985
329.222
332.155
329.32
329.521
328.295
333.23
329.106
327.836
330.677
326.272
327.243
326.574
324.875
323.511
324.647
324.794
322.05
324.028
322.064
324.437
326.125
328.965
324.286
326.594
324.611
326.321
322.547
325.011
323.707
321.769
323.678
324.9
325.412
319.327
320.187
320.624
320.229
320.412
320.345
320.581
318.816
319.596
316.254
316.102
320.35
323.459
319.55
318.065
317.264
317.221
316.447
319.396
319.535
313.391
314.994
313.733
313.152
312.418
314.315
315.066
313.957
313.397
314.479
315.319
313.096
312.135
314.207
312.713
315.405
312.136
309.088
311.99
312.276
308.859
307.076
306.987
306.888
308.362
306.197
308.293
308.862
313.229
305.325
309.308
307.944
311.413
307.645
307.404
311.008
309.39
308.271
304.724
308.629
302.5
301.549
299.657
302.573
299.853
302.31
300.757
304.004
303.218
301.269
303.815
302.833
303.733
304.962
304.531
304.266
296.885
301.348
302.5
302
338.752
338.922
341.931
338.765
341.106
340.637
344.162
341.844
339.698
343.83
348.267
343.38
339.165
341.582
340.346
338.634
339.54
341.255
340.6
340.44
334.209
334.664
332.164
335.431
335.674
337.571
337.72
338.516
337.901
335.171
339.19
337.069
339.617
337.685
338.759
338.314
335.807
336.911
337.043
332.484
330.769
332.884
328.751
328.397
332.127
328.398
330.161
331.519
331.64
332.605
330.852
330.005
331.187
337.195
332.41
331.57
330.851
329.576
327.955
325.458
322.687
321.839
324.273
324.481
320.528
322.543
323.609
328.24
327.078
327.47
323.757
325.857
329.921
326.831
324.461
325.285
324.42
325.926
321.715
324.524
319.591
320.259
320.326
317.236
321.372
318.63
322.482
319.671
322.033
315.891
318.506
319.156
319.684
323.125
318.976
317.129
318.9
318.284
319.184
318.252
315.809
314.556
309.501
316.029
316.47
315.252
315.049
311.692
317.315
314.911
316.243
314.082
317.282
313.601
314.837
310.044
311.81
316.283
314.747
312.081
308.206
307.591
309.518
306.904
308.883
308.44
307.654
309.832
308.224
310.995
305.297
309.229
308.835
307.653
308.072
305.746
307.204
310.507
306.66
306.653
301.929
303.242
302.987
303.985
301.9
300.706
302.828
303.483
301.178
302.476
305.169
299.411
302.032
301.559
302.306
305.579
300.409
300.421
301.647
303.594
338.551
340.054
340.145
343.69
344.142
344.091
343.742
345.737
345.435
343.411
343.927
345.231
343.634
342.33
341.766
339.558
341.777
344.46
339.919
338.725
332.632
336.717
330.8
336.756
341.363
335.418
338.626
334.937
336.162
335.541
336.007
337.232
335.55
337.191
334.395
334.353
334.769
339.56
334.03
332.639
329.489
332.648
329.696
325.647
330.879
332.37
333.302
335.753
334.138
332.318
333.127
333.178
332.569
330.901
327.135
328.913
330.942
329.577
329.818
329.464
327.502
322.388
323.413
324.804
329.599
324.211
328.472
326.335
327.957
327.035
325.91
324.926
328.291
324.486
325.93
322.96
325.06
325.115
324.486
322.134
319.82
320.285
318.277
320.378
318.245
316.811
322.09
321.687
320.992
321.468
319.732
320.402
320.244
322.465
320.018
319.418
319.404
321.137
320.97
318.03
316.38
312.591
317.601
313.899
313.279
313.434
316.367
320.846
313.861
317.301
316.513
314.79
313.639
315.457
312.376
314.245
312.974
314.821
312.916
315.06
309.846
310.729
305.599
311.161
309.565
304.509
306.409
310.553
309.304
310.374
306.804
309.93
307.144
308.196
305.895
305.996
308.71
307.072
310.755
304.764
305.444
301.308
302.842
304.913
303.339
302.682
303.993
303.975
300.725
302.643
305.518
303.717
301.6
299.786
303.041
300.716
300.75
303.476
302.149
305.027
343.442
344.183
340.782
342.665
348.032
343.433
346.017
345.889
347.161
345.187
342.749
345.073
344.866
344.233
344.439
343.343
344.415
340.246
342.512
344.029
338.578
336.165
337.679
337.08
336.987
339.703
341.865
343.055
338.998
337.93
340.755
338.557
341.866
340.066
337.902
338.239
339.003
335.119
333.553
334.02
330.434
331.587
332.586
330.891
331.866
333.731
332.483
336.508
331.516
332.142
334.078
331.403
334.031
333.9
333.841
329.668
332.908
329.642
327.204
332.297
325.483
324.53
323.798
324.187
328.907
328.412
329.573
326.655
326.193
323.492
327.973
324.512
326.219
326.808
327.426
327.476
324.459
327.474
329.538
321.986
319.785
318.607
317.39
321.699
320.174
321.201
321.81
319.392
320.996
322.565
321.963
321.743
321.073
320.416
319.778
319.538
319.792
319.024
321.121
317.622
314.058
313.336
311.064
313.885
316.288
314.677
315.151
313.374
315.765
316.748
313.465
313.407
314.36
313.807
315.994
312.352
316.806
312.773
312.509
312.704
303.881
311.728
310.074
307.188
306.095
307.919
309.287
310.173
310.19
308.506
307.627
309.02
311.795
308.926
308.206
308.726
309.655
308.2
309.097
306.503
299.466
304.895
296.89
303.823
304.374
304.736
301.523
304.634
304.416
303.601
300.758
297.858
303.046
303.332
305.742
298.136
305.979
304.548
300.698
301.079
339.344
342.035
343.877
344.935
346.79
344.855
346.55
347.929
346.85
345.727
349.045
348.749
349.946
347.11
344.618
343.095
341.743
344.243
340.912
342.002
337.701
337.518
340.065
338.944
339.119
336.817
340.107
336.611
341.47
337.095
338.38
341.92
337.314
338.126
337.63
340.01
336.409
338.061
335.445
338.372
330.163
335.697
334.39
332.775
336.905
331.843
334.442
331.563
330.412
335.052
331.786
333.647
333.024
330.214
334.776
336.354
333.495
332.837
332.273
328.327
325.847
324.812
322.943
329.681
328.226
330.289
327.286
326.249
326.76
330.027
329.055
328.595
328.74
324.386
326.623
324.184
328.02
324.417
328.538
325.39
318.749
320.101
320.46
323.092
320.968
321.901
324.399
322.155
322.795
323.837
321.952
321.843
319.354
320.952
322.558
321.902
319.505
322.927
319.635
319.37
317.365
313.898
314.349
316.226
314.23
316.332
314.081
316.711
314.056
316.656
312.3
310.458
315.253
311.894
317.684
317.058
313.505
314.13
313.341
313.02
306.797
307.136
309.247
311.015
310.439
311.475
309.615
305.589
309.287
307.973
308.711
310.428
313.208
309.044
307.767
310.038
308.946
309.646
308.987
306.997
301.899
301.338
303.322
300.564
299.34
302.38
301.136
304.521
303.342
302.57
301.274
302.276
303.824
305.871
301.081
303.514
302.662
302.705
303.243
300.443
343.124
342.704
345.699
345.004
349.211
344.384
346.124
343.698
345.278
346.281
346.42
344.303
347.599
349.083
346.989
347.62
344.238
344.349
345.253
345.495
339.602
337.216
337.421
340.201
339.304
337.393
341.517
338.9
343.013
339.097
338.587
339.081
338.377
338.096
337.518
341.529
337.336
341.149
337.263
333.811
335.705
332.988
335.186
332.443
330.71
330.727
332.295
339.395
337.847
337.251
335.877
334.308
332.329
335.987
333.175
334.104
330.678
328.398
331.372
329.15
325.103
322.193
328.032
325.204
324.598
328.98
330.059
329.346
329.125
331.488
330.69
325.41
326.895
326.04
327.065
330.876
326.439
325.417
327.294
325.667
319.012
319.735
323.192
320.28
320.712
322.397
324.326
322.38
322.145
321.366
320.056
321.861
324.604
323.751
325.008
322.539
321.528
322.87
318.728
316.603
317.638
315.696
313.195
314.021
314.531
313.646
316.956
312.709
317.621
320.467
315.333
316.731
316.533
313.414
315.87
313.56
316.119
315.942
312.011
313.567
305.193
308.125
308.041
309.752
307.543
306.534
304.528
308.764
312.155
307.177
307.516
312.684
308.185
309.849
307.619
305.089
305.974
306.542
308.342
308.367
302.118
301.73
299.505
301.283
305.511
302.14
301.552
304.099
304.79
306.826
306.714
302.008
304.183
301.021
307.922
300.755
299.657
305.809
304.079
304.874
346.095
348.653
347.398
350.946
345.122
346.521
349.83
351.788
349.556
345.781
351.965
346.954
346.504
349.538
348.632
346.84
345.095
342.997
346.217
344.754
336.309
338.154
338.689
342.51
342.603
341.26
342.21
344.202
340.944
344.415
343.332
339.513
343.971
342.434
343.6
339.873
336.791
340.272
340.125
336.892
333.609
333.728
335.321
331.926
334.67
333.646
334.453
334.029
335.255
337.055
335.289
333.64
335.77
336.869
336.832
331.672
332.711
329.359
330.568
331.151
324.588
325.932
326.826
329.182
328.914
328.351
328.45
327.033
333.35
330.18
330.188
328.432
329.272
324.326
328.575
324.335
325.328
323.505
325.584
325.158
320.797
321.129
320.554
322.885
321.474
320.247
322.265
322.084
323.539
321.479
323.718
323.915
321.138
321.48
324.712
323.82
321.389
320.439
320.537
319.423
314.131
316.613
313.743
313.094
315.392
315.76
312.388
315.761
319.708
319.215
317.382
314.66
316.287
315.97
320.719
314.428
313.313
316.227
313.036
318.166
307.011
309.814
309.182
307.942
309.496
309.141
310.816
310.598
309.62
312.235
311.055
308.56
311.579
313.604
310.747
307.292
309.572
309.744
311.934
311.974
300.637
300.659
302.906
301.02
300.616
302.803
305.375
304.414
303.076
299.324
303.407
304.075
302.961
305.211
306.822
305.25
302.684
302.995
304.232
302.342
346.34
347.145
347.791
349.041
350.478
352.929
350.615
349.982
350.388
345.937
348.894
349.525
350.411
347.403
349.853
349.467
344.776
345.171
344.761
342.523
340.381
341.588
342.012
342.978
342.79
340.184
341.918
341.491
343.621
340.601
340.373
345.066
340.753
343.231
339.686
339.321
340.425
341.749
339.867
338.532
332.437
334.546
333.055
333.763
332.845
334.84
332.247
337.913
335.243
335.73
336.301
336.198
334.983
336.966
334.045
334.754
335.254
335.773
334.579
334.266
326.356
327.778
326.742
327.82
330.027
332.148
330.484
332.772
331.96
332.159
327.277
325.737
331.615
329.518
330.501
329.94
326.038
327.672
329.204
326.457
320.537
320.273
321.887
321.891
322.608
323.681
325.208
324.397
325.36
322.541
322.798
325.79
321.866
323.587
324.216
324.874
320.488
320.782
319.187
319.663
318.93
312.542
314.914
315.14
316.32
316.032
312.838
317.191
318.677
316.49
318.113
317.346
318.121
314.943
317.152
317.308
318.607
317.015
315.388
314.486
311.674
308.864
310.645
310.67
305.801
307.522
312.23
312.296
309.903
309.571
311.062
310.984
310.29
309.896
309.874
312.007
311.963
311.188
308.997
309.477
301.026
302.177
305.913
302.153
302.94
302.995
304.241
302.887
301.698
304.369
305.139
304.008
299.334
301.889
302.462
306.312
303.51
306.372
304.474
302.981
344.908
346.672
344.949
348.969
350.459
349.861
352.927
349.768
350.702
350.682
350.053
348.585
346.75
354.367
349.321
347.574
347.094
346.291
344.632
344.117
336.97
339.213
341.483
342.017
346.743
341.67
346.503
344.281
346.158
341.417
344.439
343.414
339.905
340.5
342.118
344.955
340.205
341.131
341.215
337.914
332.6
332.819
336.731
337.366
336.547
335.175
336.469
338.024
341.054
334.099
339.425
332.155
338.694
335.851
332.945
332.639
335.66
339.878
333.725
334.691
328.218
330.503
329.951
330.201
330.205
331.099
332.083
328.378
331.434
326.494
330.698
332.285
331.856
326.732
329.425
330.04
329.974
326.625
328.764
327.245
323.694
323.265
323.085
322.049
324.087
323.94
325.772
323.206
323.844
323.575
320.886
324.808
322
324.491
323.042
320.906
321.232
325.02
320.016
320.202
314.948
314.02
316.805
316.783
315.899
317.127
320.387
315.859
317.167
318.248
317.188
318.964
319.444
316.873
315.683
318.852
314.049
313.422
314.488
313.43
306.526
306.79
309.717
309.442
308.542
311.768
305.587
309.746
305.462
308.868
309.273
309.911
305.488
305.838
311.908
310.877
309.153
307.523
311.51
308.427
301.081
302.573
299.836
305.169
300.7
302.9
303.745
304.807
303.706
300.178
302.468
301.024
301.704
302.736
300.983
301.162
303.491
302.637
304.445
302.558
348.717
345.52
346.055
347.675
349.68
348.943
350.184
351.15
354.406
352.746
350.676
352.814
353.179
350.939
349.271
349.41
349.413
349.195
349.85
347.87
341.987
344.005
345.222
343.702
342.798
343.805
341.808
344.017
344.586
344.138
344.255
343.356
344.082
345.215
343.36
344.74
342.611
343.401
342.893
343.459
332.927
335.414
333.233
333.212
334.814
337.608
339.231
336.156
336.214
339.183
339.227
340.393
339.583
338.089
336.629
335.142
338.212
337.202
331.74
332.945
328.484
327.68
325.671
328.927
329.627
330.462
330.78
329.081
328.474
331.747
333.58
330.278
333.28
330.243
330.003
330.007
328.875
324.495
326.274
325.057
324.327
322.077
317.998
320.277
324.592
321.607
323.378
324.475
324.438
326.955
324.494
325.288
323.399
326.131
323.778
320.974
322.025
321.875
321.603
320.488
319.023
316.502
316.172
316.843
316.346
317.325
319.92
314.375
316.678
316.62
316.535
316.478
317.797
316.849
318.653
313.225
316.007
318.117
318.763
316.94
309.668
306.9
307.61
314.357
309.698
312.809
310.121
310.314
310.312
308.174
308.638
310.899
310.749
312.479
311.522
314.051
310.535
312.028
310.482
307.321
304.762
298.127
304.739
305.094
301.024
301.843
299.997
304.133
305.091
304.806
305.124
304.304
301.1
301.315
304.97
305.418
303.887
301.165
299.212
305.021
345.799
346.813
350.022
350.422
346.796
348.678
346.954
353.864
351.593
351.598
353.915
352.313
350.091
351.764
350.398
349.093
350.365
348.187
347.182
347.444
341.165
342.151
342.332
339.14
343.308
342.597
346.701
346.715
344.881
343.977
345.905
345.384
343.494
344.849
343.294
341.985
345.421
343.428
344.167
338.659
332.437
334.533
331.586
338.523
338.217
334.953
338.89
334.007
339.253
339.835
337.901
340.578
337.045
339.246
335.292
335.87
334.927
334.107
334.196
334.191
329.225
330.137
329.282
329.387
328.265
330.183
331.44
335.642
332.759
332.756
331.935
329.691
333.693
330.025
328.974
329.774
326.291
328.281
330.802
329.681
320.367
323.862
322.458
323.071
322.812
326.183
322.952
326.758
325.7
323.913
326.856
324.77
320.596
324.191
322.102
323.75
324.334
324.255
323.07
320.924
310.691
316.045
315.625
316.166
316.789
318.022
318.681
318.298
314.35
316.047
316.485
318.312
315.201
319.082
312.586
320.085
316.879
317.792
317.06
315.228
309.899
305.734
310.466
307.889
307.195
310.854
311.757
310.084
308.646
308.22
310.944
308.118
306.261
306.677
311.076
305.992
308.192
313.38
312.296
306.289
300.905
303.282
304.823
304.683
303.225
304.211
305.043
302.703
304.03
305.201
303.056
304.236
306.24
302.731
305.272
304.28
301.638
304.309
302.839
305.618
346.447
349.509
353.448
351.918
354.19
349.42
353.951
352.854
350.781
355.577
354.072
354.448
352.063
355.315
353.546
351.164
346.365
349.963
347.45
348.987
340.25
347.533
344.659
347.645
343.073
346.678
344.451
347.295
344.912
347.452
346.705
342.758
346.05
346.987
346.933
341.906
346.688
341.103
346.597
342.011
334.618
335.316
333.729
334.931
338.653
337.279
335.127
335.531
338.334
335.887
339.085
336.187
340.921
336.324
338.743
338.729
337.516
334.523
335.467
337.004
325.96
328.552
329.039
329.149
332.338
330.133
329.348
329.008
333.932
333.926
331.058
330.559
330.409
332.029
330.245
329.437
329.248
330.818
325.87
326.38
318.584
320.643
324.885
320.78
322.427
325.089
323.257
325.305
319.847
324.507
325.796
323.867
324.266
324.555
323.911
325.647
322.741
325.346
323.903
323.979
318.393
314.178
312.495
314.537
318.316
315.259
317.812
317.254
316.629
316.461
316.902
317.132
316.27
316.446
318.107
315.781
317.815
316.567
317.503
315.279
306.939
309.218
309.171
311.938
307.736
310.506
310.966
312.842
310.583
310.387
310.77
310.853
310.67
308.42
310.839
311.551
310.106
307.758
312.51
308.437
300.704
304.058
302.641
300.786
304.688
302.097
303.121
303.511
300.878
304.812
305.781
304.122
301.568
301.265
305.825
302.955
302.8
300.989
303.804
302.648
349.877
351.404
353.06
352.919
352.343
350.111
348.782
352.054
354.986
352.151
354.447
354.518
352.495
350.44
352.696
354.612
353.869
347.191
347.595
349.812
339.969
341.709
341.463
344.326
343.719
348.619
344.794
344.998
347.345
347.131
346.786
344.489
342.069
339.087
343.457
345.993
346.319
342.474
339.677
338.954
335.896
330.789
336.85
337.015
335.962
338.641
337.147
337.758
339.087
339.178
342.265
336.764
338.195
337.919
337.577
336.824
338.073
334.503
331.842
334.077
331.9
324.523
333.149
333.747
333.864
330.457
330.903
330.051
332.182
331.612
328.077
333.686
330.817
334.34
333.37
330.865
329.419
329.197
331.613
330.151
320.759
320.361
322.377
324.788
322.826
324.264
323.22
323.706
323.758
325.573
326.391
324.373
324.829
324.975
326.816
323.248
320.228
320.764
325.191
319.722
315.968
315.129
314.814
310.592
315.375
315.404
314.455
315.675
317.867
319.089
318.478
318.723
315.726
321.311
314.265
316.037
316.815
317.833
316.746
318.074
310.482
308.668
308.058
311.105
313.091
311.21
307.162
309.414
307.507
311.193
314.968
310.099
311.175
312.074
308.505
307.249
309.446
308.738
307.205
308.311
306.818
301.306
300.327
302.477
306.094
306.922
301.503
305.042
301.816
304.996
304.256
304.071
303.982
303.897
305.571
306.238
301.234
301.928
305.809
306.616
345.591
351.978
350.3
351.803
352.795
352.137
349.606
354.804
356.4
354.275
352.738
352.21
356.912
348.993
354.506
351.677
353.8
344.506
347.311
345.69
342.942
352.074
342.575
351.096
345.415
349.956
345.475
350.07
347.847
351.279
351.451
346.521
350.938
346.224
349.697
344.236
350.528
342.986
350.445
343.35
334.503
334.463
337.826
340.677
339.021
338.941
336.033
338.532
338.789
337.96
335.491
341.613
338.811
340.702
340.444
335.241
339.383
336.83
336.67
334.054
327.13
325.532
331.481
331.018
330.229
329.499
333.617
332.164
330.966
332.942
332.964
334.195
330.491
331.694
329.322
329.691
329.965
329.466
327.148
327.6
320.228
322.34
324.285
324.276
323.587
327.174
324.012
323.216
324.945
325.489
326.319
323.805
322.079
325.391
323.905
321.166
321.064
320.243
324.531
320.755
315.121
316.482
316.169
314.905
313.609
317.013
316.755
318.711
321.092
322.287
320.373
317.625
318.068
316.86
316.057
317.851
316.018
315.112
319.125
314.862
311.37
308.001
309.827
314.375
311.955
310.124
312.655
310.107
308.604
308.554
310.653
312.13
307.276
314.755
312.364
311.085
309.509
311.395
309.415
309.957
301.326
303.454
302.498
305.064
302.447
307.218
303.217
306.065
303.715
302.593
308.122
303.784
302.445
305.149
302.57
303.436
303.842
300.996
301.239
302.429
347.727
347.936
352.111
352.342
352.841
351.301
355.038
353.059
354.06
354.882
351.28
352.464
352.125
353.953
354.025
355.342
352.423
348.038
351.607
348.933
344.23
340.577
344.02
341.904
343.583
348.576
346.17
343.69
349.031
348.521
345.328
347.565
346.352
344
343.908
342.984
346.721
340.745
341.191
339.406
334.467
334.825
336.918
336.009
339.268
340.463
339.307
340.469
339.893
339.327
341.371
340.591
335.912
334.829
333.234
338.354
338.481
334.605
337.085
334.838
328.662
332.529
330.828
330.747
328.473
333.251
330.361
334.125
327.548
333.083
331.4
332.067
332.359
326.567
330.948
330.358
327.704
334.473
329.472
329.63
322.36
320.79
320.887
321.728
321.824
323.428
328.059
327.155
325.522
325.38
325.887
323.393
323.199
326.378
324.005
325.097
321.917
327.86
326.312
323.203
313.65
318.711
315.882
316.213
316.804
321.238
321.044
320.015
316.387
320.715
317.602
316.134
315.77
317.04
317.106
313.461
321.258
316.9
314.25
313.147
312.131
311.05
311.393
309.725
307.078
310.884
308.784
311.62
310.948
310.027
309.42
312.971
309.091
311.682
309.032
310.923
306.708
307.469
306.148
309.758
300.864
302.42
300.955
305.043
304.091
307.054
302.399
304.685
302.255
304.129
303.732
299.854
305.078
304.391
303.248
304.68
306.127
305.481
302.413
302.793
)
;

boundaryField
{
    hotSide
    {
        type            fixedGradient;
        gradient        nonuniform List<scalar> 
400
(
321.511
322.87
325.591
329.677
335.133
341.965
350.181
359.788
370.794
383.208
397.037
412.289
428.971
447.088
466.647
487.651
510.105
534.011
559.372
586.191
323.738
325.08
327.767
331.802
337.194
343.949
352.078
361.591
372.498
384.81
398.537
413.687
430.268
448.289
467.755
488.672
511.043
534.872
560.161
586.913
326.149
327.47
330.116
334.091
339.406
346.071
354.099
363.503
374.296
386.491
400.101
415.136
431.606
449.52
468.885
489.706
511.988
535.735
560.948
587.63
328.704
330
332.597
336.503
341.73
348.292
356.205
365.485
376.15
388.215
401.695
416.604
432.954
450.753
470.009
490.73
512.919
536.579
561.714
588.325
331.33
332.599
335.142
338.97
344.099
350.546
358.332
367.477
378.003
389.928
403.271
418.047
434.27
451.949
471.095
491.712
513.807
537.382
562.439
588.978
333.918
335.158
337.643
341.389
346.414
352.74
360.392
369.397
379.779
391.562
404.765
419.407
435.503
453.065
472.101
492.618
514.622
538.114
563.096
589.569
336.321
337.531
339.959
343.622
348.544
354.751
362.274
371.142
381.385
393.031
406.101
420.618
436.595
454.047
472.983
493.409
515.33
538.747
563.663
590.076
338.36
339.543
341.92
345.509
350.339
356.44
363.847
372.595
382.718
394.244
407.2
421.608
437.485
454.844
473.695
494.045
515.897
539.253
564.114
590.478
339.852
341.015
343.352
346.885
351.645
357.665
364.985
373.643
383.675
395.113
407.984
422.312
438.116
455.407
474.197
494.491
516.294
539.606
564.428
590.758
340.643
341.795
344.11
347.613
352.334
358.311
365.584
374.193
384.176
395.567
408.393
422.679
438.443
455.699
474.456
494.722
516.498
539.788
564.589
590.901
340.643
341.795
344.11
347.613
352.334
358.311
365.584
374.193
384.176
395.567
408.393
422.679
438.443
455.699
474.456
494.722
516.498
539.788
564.589
590.901
339.852
341.015
343.352
346.885
351.645
357.665
364.985
373.643
383.675
395.113
407.984
422.312
438.116
455.407
474.197
494.491
516.294
539.606
564.428
590.758
338.36
339.543
341.92
345.509
350.339
356.44
363.847
372.595
382.718
394.244
407.2
421.608
437.485
454.844
473.695
494.045
515.897
539.253
564.114
590.478
336.321
337.531
339.959
343.622
348.544
354.751
362.274
371.142
381.385
393.031
406.101
420.618
436.595
454.047
472.983
493.409
515.33
538.747
563.663
590.076
333.918
335.158
337.643
341.389
346.414
352.74
360.392
369.397
379.779
391.562
404.765
419.407
435.503
453.065
472.101
492.618
514.622
538.114
563.096
589.569
331.33
332.599
335.142
338.97
344.099
350.546
358.332
367.477
378.003
389.928
403.271
418.047
434.27
451.949
471.095
491.712
513.807
537.382
562.439
588.978
328.704
330
332.597
336.503
341.73
348.292
356.205
365.485
376.15
388.215
401.695
416.604
432.954
450.753
470.009
490.73
512.919
536.579
561.714
588.325
326.149
327.47
330.116
334.091
339.406
346.071
354.099
363.503
374.296
386.491
400.101
415.136
431.606
449.52
468.885
489.706
511.988
535.735
560.948
587.63
323.738
325.08
327.767
331.802
337.194
343.949
352.078
361.591
372.498
384.81
398.537
413.687
430.268
448.289
467.755
488.672
511.043
534.872
560.161
586.913
321.511
322.87
325.591
329.677
335.133
341.965
350.181
359.788
370.794
383.208
397.037
412.289
428.971
447.088
466.647
487.651
510.105
534.011
559.372
586.191
)
;
    }
    coldSide
    {
        type            mixed;
        refValue        uniform 300;
        refGradient     uniform 0;
        valueFraction   uniform 0.991591;
        source          uniform 0;
        value           nonuniform List<scalar> 
400
(
299.99
299.994
300.008
300.031
300.035
300.021
300.016
300.046
299.996
300.016
300.018
300.005
300.009
300.009
300.04
300.008
300.006
300.057
300.011
300.007
300.011
299.991
300.019
300.025
300.001
300.013
300.027
300.011
300.041
300.011
300.015
300.006
300.018
300.022
299.984
300.028
300.034
300.011
300.029
300.02
300.019
300.021
300.028