/*--------------------------------*- C++ -*----------------------------------*\
| =========                 |                                                 |
| \\      /  F ield         | OpenFOAM: The Open Source CFD Toolbox           |
|  \\    /   O peration     | Version:  2212                                  |
|   \\  /    A nd           | Website:  www.openfoam.com                      |
|    \\/     M anipulation  |                                                 |
\*---------------------------------------------------------------------------*/
FoamFile
{
    version     2.0;
    format      ascii;
    arch        "LSB;label=32;scalar=64";
    class       volScalarField;
    location    "./ITHACAoutput/true/3.6";
    object      error;
}
// * * * * * * * * * * * * * * * * * * * * * * * * * * * * * * * * * * * * * //

dimensions      [0 0 0 1 0 0 0];

internalField   nonuniform List<scalar> 
3200
(
1.83961
1.78838
1.92788
2.36692
2.85177
3.43439
4.08306
4.7281
5.23604
5.44616
5.58629
5.4028
5.00368
4.61373
4.14544
3.65306
3.2784
3.0423
2.86971
2.97123
1.47568
1.4948
1.6302
1.90212
2.37448
2.83375
3.463
3.9747
4.34583
4.57196
4.66526
4.57309
4.26585
3.87984
3.52368
3.02408
2.72355
2.57966
2.44968
2.54794
1.27249
1.19059
1.36252
1.62961
1.88295
2.39652
2.89542
3.33672
3.56496
3.83155
3.9273
3.78915
3.59628
3.24145
2.82644
2.56752
2.22543
2.06045
2.06333
2.03079
1.00024
0.953982
1.05863
1.27284
1.49632
1.92186
2.31684
2.63927
2.93856
3.08965
3.20273
3.0251
2.82319
2.56954
2.26822
2.05953
1.82412
1.71008
1.58078
1.61745
0.646817
0.739148
0.768098
0.989227
1.2092
1.4606
1.76767
2.04694
2.20611
2.38674
2.41846
2.34842
2.1346
1.99311
1.79823
1.542
1.42179
1.33145
1.21721
1.25404
0.454358
0.434245
0.590093
0.655831
0.838792
1.02348
1.31701
1.38569
1.60991
1.73111
1.79946
1.66915
1.52625
1.43575
1.24997
1.11005
0.919208
0.915087
0.859468
0.908519
0.25066
0.265896
0.320231
0.350504
0.520817
0.652718
0.706325
0.861706
0.942068
1.04537
1.04833
0.957443
0.953237
0.795956
0.723784
0.723383
0.56104
0.601684
0.516731
0.484375
0.0510947
0.0865363
0.166296
0.14064
0.19445
0.162852
0.236918
0.276842
0.386828
0.258357
0.3525
0.328753
0.328556
0.242549
0.236906
0.186055
0.149398
0.233805
0.197119
0.217134
1.18365
1.13258
1.2499
1.63179
2.06916
2.55542
3.26811
3.88586
4.27331
4.59941
4.68971
4.53141
4.22131
3.81672
3.33154
2.81608
2.48649
2.27603
2.24267
2.34438
0.986971
1.02515
1.0405
1.34917
1.73326
2.24196
2.74817
3.21182
3.67858
3.90648
3.93497
3.89609
3.5764
3.1371
2.74671
2.37347
2.14648
1.92662
1.91886
1.96655
0.801194
0.688606
0.895181
1.00435
1.42486
1.83255
2.34855
2.74378
3.05721
3.28176
3.34678
3.22499
2.99502
2.67688
2.33118
2.04137
1.77721
1.63122
1.52777
1.6637
0.668138
0.670009
0.720045
0.860483
1.14125
1.50737
1.78206
2.21644
2.49392
2.66034
2.72917
2.6189
2.42691
2.17704
1.91528
1.59895
1.47269
1.28023
1.34503
1.31943
0.497748
0.390612
0.555761
0.694691
0.853732
1.20083
1.45121
1.71779
1.8738
2.09985
2.18332
2.03422
1.86514
1.6715
1.44753
1.26739
1.15917
0.980379
1.01259
1.06561
0.31071
0.378146
0.331698
0.479217
0.665953
0.816043
1.01815
1.25754
1.34163
1.44332
1.50948
1.44611
1.2865
1.19215
1.01255
0.901762
0.729397
0.703171
0.727872
0.658829
0.191686
0.187048
0.275848
0.256359
0.406859
0.405958
0.613678
0.746387
0.852208
0.8975
0.924147
0.907058
0.712994
0.718629
0.623639
0.563568
0.407454
0.428363
0.472418
0.472801
0.0410798
0.0775259
0.0157035
0.094307
0.0916877
0.107145
0.250621
0.238976
0.182246
0.282373
0.248091
0.292146
0.252367
0.201167
0.252489
0.15576
0.14786
0.0532645
0.115949
0.124177
0.423069
0.305529
0.480926
0.707226
1.08858
1.65018
2.17617
2.72918
3.24051
3.52177
3.55945
3.4335
3.08185
2.70851
2.26112
1.86128
1.60935
1.46279
1.43661
1.58107
0.271373
0.210772
0.335712
0.59544
0.953137
1.36801
1.91481
2.38929
2.73525
3.0208
3.15147
2.97007
2.68234
2.27439
2.02805
1.65862
1.33113
1.24255
1.19305
1.32927
0.257838
0.220227
0.244898
0.429703
0.816388
1.12568
1.65244
1.95944
2.28069
2.46295
2.5976
2.46092
2.20334
1.97632
1.66449
1.29922
1.1674
1.01627
1.07157
1.12589
0.190793
0.150798
0.27252
0.370882
0.563663
0.844913
1.27103
1.65939
1.86653
2.01924
2.04241
2.04422
1.7755
1.59864
1.36021
1.06238
0.940293
0.866401
0.801001
0.841856
0.15191
0.116538
0.188202
0.276002
0.435554
0.6603
1.02379
1.25854
1.45931
1.5877
1.55511
1.59338
1.43307
1.24657
1.02114
0.85153
0.673866
0.540607
0.642442
0.682391
0.0867209
0.0348848
0.0548281
0.207795
0.321345
0.451576
0.766577
0.868716
1.01735
1.09375
1.12605
1.14545
1.07026
0.879469
0.659746
0.544095
0.462448
0.508457
0.481056
0.508668
0.0746173
-0.0100505
0.0106387
0.112958
0.242046
0.32395
0.345592
0.530739
0.595451
0.701753
0.707673
0.692636
0.599031
0.549952
0.377476
0.374318
0.269146
0.297765
0.378506
0.265743
0.0220367
-0.023464
0.0265733
0.0390049
0.0683586
0.124465
0.140823
0.18437
0.253126
0.241955
0.285314
0.207449
0.175579
0.218001
0.194477
0.17928
0.106351
0.146536
0.0575531
0.163936
-0.338477
-0.459447
-0.401304
-0.217438
0.179033
0.654966
1.16833
1.69955
2.12431
2.32856
2.52472
2.32275
2.06215
1.71662
1.32042
1.02414
0.680693
0.598016
0.695883
0.853257
-0.297748
-0.375416
-0.361285
-0.214283
0.0763967
0.503502
1.0073
1.43365
1.76979
2.04055
2.07933
1.98763
1.75867
1.499
1.1092
0.832695
0.628839
0.588762
0.586678
0.729407
-0.341245
-0.33347
-0.306666
-0.172152
0.0587636
0.454978
0.829335
1.15834
1.49218
1.68594
1.81356
1.67502
1.49562
1.21305
0.909737
0.695373
0.52007
0.459491
0.483826
0.590805
-0.2491
-0.307719
-0.336346
-0.0939883
0.0275047
0.279212
0.66034
0.896785
1.22876
1.41754
1.385
1.34045
1.18906
1.02226
0.749115
0.502548
0.428394
0.364213
0.393511
0.444008
-0.211081
-0.238766
-0.205562
-0.150388
-0.0185221
0.322086
0.523958
0.739381
0.94074
1.12326
1.13581
1.08765
0.937177
0.804595
0.49096
0.460569
0.363444
0.250978
0.265993
0.337313
-0.151171
-0.105046
-0.140911
-0.092294
0.0286356
0.179877
0.329063
0.511712
0.734125
0.798595
0.809389
0.76138
0.658357
0.509618
0.352896
0.317374
0.25485
0.214704
0.262531
0.369118
-0.12694
-0.113777
-0.0501156
-0.0735721
0.0189725
0.11916
0.204432
0.32575
0.384509
0.405736
0.462941
0.39974
0.376638
0.290853
0.274927
0.164748
0.11648
0.0933902
0.109272
0.1044
-0.00750801
-0.059889
-0.023666
-0.110452
0.0779233
0.0470474
0.0797452
0.130412
0.16664
0.160995
0.183155
0.204675
0.115886
0.0955282
0.0798302
0.0473995
-0.0248098
0.0902983
0.0380806
0.0591789
-0.979273
-1.05546
-1.12291
-0.988966
-0.668887
-0.260037
0.186849
0.604498
0.974281
1.26716
1.36994
1.31522
1.03014
0.707873
0.424935
0.168613
0.0114329
-0.0802303
0.122999
0.290765
-0.869539
-1.00661
-1.02591
-0.914348
-0.564449
-0.186892
0.171484
0.532917
0.856781
1.02344
1.19284
1.0846
0.847838
0.673641
0.35296
0.111024
-0.0108983
-0.0368093
0.0530878
0.187663
-0.678153
-0.79681
-0.944832
-0.804639
-0.47193
-0.280707
0.125869
0.454673
0.721754
0.944837
0.991729
0.879336
0.720574
0.511935
0.291564
0.0865586
0.0142191
-0.0608922
0.0413702
0.188422
-0.567267
-0.5796
-0.651797
-0.577122
-0.429385
-0.234088
0.11377
0.362146
0.5664
0.736095
0.683397
0.712815
0.53603
0.444123
0.301431
0.0785306
-0.0622286
-0.0786312
0.0532138
0.143911
-0.559208
-0.525553
-0.570814
-0.500768
-0.432326
-0.134051
-0.0301097
0.260634
0.451138
0.558113
0.577461
0.544015
0.46604
0.34708
0.121722
0.0468739
-0.0143092
-0.0589926
-0.0208886
0.129639
-0.294286
-0.417853
-0.375478
-0.344958
-0.152763
-0.0419638
0.006193
0.145411
0.319194
0.373428
0.357549
0.409514
0.338148
0.142097
0.159697
0.0814146
-0.00777154
-0.0651372
0.00505058
0.074345
-0.245669
-0.276181
-0.197616
-0.214837
-0.195791
-0.0757559
0.0374584
0.0836336
0.12511
0.211465
0.247552
0.248196
0.152756
0.208875
0.0418192
0.0179476
-0.0873547
-0.0627825
-0.0558902
0.0186733
-0.0269722
-0.103077
-0.0566302
-0.0964193
-0.00537067
-0.075379
0.0355327
0.0173534
0.0548125
0.0838322
0.0328254
0.0707051
0.0243609
0.0412753
0.0378041
-0.0600626
0.00274369
-0.027911
-0.0320023
-0.0425795
-1.29655
-1.5986
-1.62487
-1.57691
-1.44522
-1.10505
-0.64771
-0.272209
0.116564
0.30834
0.443429
0.331484
0.192352
-0.0495931
-0.305012
-0.585119
-0.628145
-0.598302
-0.424212
-0.081163
-1.24111
-1.3782
-1.4259
-1.40348
-1.20067
-0.892997
-0.5377
-0.239339
-0.0132322
0.241613
0.331626
0.209055
0.145667
-0.0805768
-0.336984
-0.491655
-0.57903
-0.547417
-0.369955
-0.15119
-1.0686
-1.13817
-1.22886
-1.17587
-1.03546
-0.824689
-0.529583
-0.234631
0.0422356
0.165953
0.340234
0.181918
0.119129
-0.135768
-0.303145
-0.43645
-0.442862
-0.461021
-0.317674
-0.051577
-0.864892
-1.01516
-1.01545
-0.942668
-0.904542
-0.713537
-0.375595
-0.21526
0.0729731
0.182516
0.245608
0.210842
0.140732
-0.079601
-0.225966
-0.275906
-0.401168
-0.43256
-0.233894
-0.152009
-0.614479
-0.728598
-0.83307
-0.768763
-0.626963
-0.49608
-0.336441
-0.155724
-0.0692263
0.0984886
0.129412
0.109885
0.0471648
-0.0395181
-0.210178
-0.290843
-0.360375
-0.254139
-0.173924
-0.0665703
-0.513646
-0.551349
-0.610974
-0.53534
-0.436342
-0.347475
-0.167674
-0.0973995
0.0372127
0.0201983
0.110913
0.0478427
0.048975
-0.0731463
-0.124076
-0.224949
-0.234815
-0.242517
-0.206855
-0.115238
-0.301787
-0.297836
-0.398826
-0.350502
-0.268777
-0.252065
-0.191929
-0.0555298
-0.00691129
-0.0374889
0.123934
0.0725009
0.0255753
-0.0539001
-0.0638168
-0.139226
-0.0901319
-0.112057
-0.0994103
-0.0725806
-0.108693
-0.191617
-0.146962
-0.0960835
-0.107484
-0.0898569
-0.0249303
-0.0606767
0.0373732
0.0602639
0.00991047
-0.0726942
0.0354707
0.0470754
-0.0123972
-0.0352751
-0.031655
-0.0717871
-0.082919
-0.0125724
-1.54089
-1.80187
-2.0194
-2.10242
-1.9247
-1.62872
-1.3061
-0.955839
-0.678791
-0.440906
-0.322393
-0.414756
-0.605487
-0.758895
-0.936939
-1.07597
-1.06665
-0.96337
-0.636901
-0.381353
-1.38644
-1.62623
-1.70346
-1.74579
-1.67441
-1.45676
-1.17057
-0.91798
-0.625201
-0.434533
-0.369157
-0.441806
-0.498418
-0.71686
-0.817936
-0.895235
-1.00356
-0.81322
-0.602864
-0.31662
-1.22894
-1.46863
-1.49557
-1.51523
-1.38637
-1.20477
-0.965775
-0.701326
-0.479922
-0.415949
-0.42579
-0.30103
-0.377233
-0.654975
-0.708372
-0.862514
-0.816317
-0.699928
-0.499656
-0.306211
-0.990104
-1.12813
-1.2636
-1.21917
-1.14871
-1.03502
-0.758065
-0.6083
-0.401049
-0.336121
-0.254764
-0.269155
-0.340281
-0.437043
-0.606826
-0.594742
-0.62891
-0.621286
-0.420813
-0.24706
-0.806695
-0.925011
-0.95793
-0.920417
-0.907844
-0.824633
-0.63057
-0.549765
-0.321406
-0.203826
-0.192748
-0.29285
-0.291694
-0.30967
-0.4346
-0.585195
-0.488752
-0.428559
-0.333042
-0.149081
-0.611204
-0.668648
-0.667769
-0.691483
-0.647993
-0.601222
-0.474401
-0.335999
-0.234024
-0.209114
-0.102694
-0.10112
-0.203107
-0.346298
-0.288932
-0.398593
-0.367548
-0.270972
-0.234981
-0.138075
-0.276899
-0.447564
-0.35942
-0.394646
-0.380233
-0.399855
-0.334537
-0.246944
-0.0878666
-0.138619
-0.117788
-0.169202
-0.0924407
-0.190574
-0.137276
-0.243499
-0.196256
-0.21023
-0.162921
-0.101931
-0.133944
-0.159474
-0.228584
-0.164532
-0.1128
-0.139565
-0.119001
-0.0696076
-0.0715045
-0.108034
0.00316013
-0.0528404
-0.0800269
0.0110158
-0.081312
-0.120512
-0.0605952
-0.0806178
-0.0545456
-0.0501731
-1.66135
-2.04432
-2.21366
-2.288
-2.28056
-2.01273
-1.83813
-1.48014
-1.34567
-1.11404
-1.00414
-1.07646
-1.18304
-1.25546
-1.40463
-1.31826
-1.29161
-1.15271
-0.805683
-0.359982
-1.50068
-1.76301
-1.93417
-1.98552
-1.94067
-1.81112
-1.65291
-1.32065
-1.13619
-0.971083
-0.966344
-1.00582
-0.982464
-1.1021
-1.15582
-1.17573
-1.14087
-1.02546
-0.707348
-0.370742
-1.23592
-1.47165
-1.64854
-1.73529
-1.65782
-1.54878
-1.40542
-1.1305
-1.00467
-0.88919
-0.839494
-0.80029
-0.872581
-0.927898
-0.996954
-1.04009
-0.909087
-0.909138
-0.620764
-0.39562
-1.03489
-1.23372
-1.32737
-1.40799
-1.39639
-1.29802
-1.1514
-0.906166
-0.824748
-0.714404
-0.653624
-0.647927
-0.679951
-0.752235
-0.824953
-0.836323
-0.890978
-0.70433
-0.474721
-0.361464
-0.85569
-0.929937
-0.994317
-1.1151
-1.08729
-0.950727
-0.893266
-0.737622
-0.66327
-0.562632
-0.558077
-0.574296
-0.596361
-0.674775
-0.670092
-0.686941
-0.658893
-0.545878
-0.370757
-0.136442
-0.588534
-0.673152
-0.695058
-0.818775
-0.77775
-0.658748
-0.641864
-0.466597
-0.437922
-0.352009
-0.406416
-0.363245
-0.412878
-0.412878
-0.476584
-0.421553
-0.453322
-0.385886
-0.295731
-0.153325
-0.332322
-0.437351
-0.474369
-0.455308
-0.457624
-0.380005
-0.423622
-0.336665
-0.30555
-0.275685
-0.255575
-0.209379
-0.17286
-0.282345
-0.308953
-0.268142
-0.242392
-0.244972
-0.172164
-0.109232
-0.123248
-0.109796
-0.122545
-0.193873
-0.155401
-0.170564
-0.13726
-0.16764
-0.0979174
-0.0715312
-0.0661924
-0.0520482
-0.0915578
-0.109771
-0.0591976
-0.120565
-0.117864
-0.123879
-0.037424
-0.0122882
-1.46108
-1.88465
-2.23256
-2.33635
-2.35016
-2.29528
-2.12907
-1.90742
-1.69458
-1.48805
-1.48451
-1.44071
-1.46734
-1.58133
-1.59291
-1.54095
-1.34825
-1.05624
-0.669924
-0.210674
-1.36188
-1.64846
-1.89974
-2.03293
-2.11647
-1.99361
-1.78463
-1.65884
-1.43038
-1.42384
-1.2751
-1.331
-1.31617
-1.33859
-1.40996
-1.39849
-1.22435
-0.905453
-0.650504
-0.252888
-1.12702
-1.43281
-1.56388
-1.75066
-1.71651
-1.66824
-1.57406
-1.39116
-1.24363
-1.16622
-1.12689
-1.06711
-1.06754
-1.16246
-1.14428
-1.16025
-1.0343
-0.74328
-0.489108
-0.182506
-0.943442
-1.1076
-1.31895
-1.46701
-1.43553
-1.46502
-1.26888
-1.19885
-1.05675
-0.922655
-0.947051
-0.92524
-0.917812
-0.935322
-1.03864
-0.917422
-0.908
-0.666585
-0.410697
-0.210027
-0.737329
-0.872541
-1.06254
-1.14533
-1.143
-1.071
-1.03267
-1.0088
-0.86887
-0.773852
-0.705091
-0.717244
-0.723992
-0.743219
-0.706602
-0.730486
-0.626906
-0.512718
-0.349475
-0.120697
-0.574197
-0.624301
-0.718988
-0.817012
-0.845714
-0.770523
-0.717665
-0.616336
-0.578227
-0.546182
-0.603726
-0.47778
-0.476035
-0.542016
-0.537363
-0.553188
-0.472404
-0.395705
-0.185434
-0.0659123
-0.309831
-0.403604
-0.398706
-0.406261
-0.468833
-0.54704
-0.401652
-0.472135
-0.383963
-0.270956
-0.347083
-0.324534
-0.320055
-0.28515
-0.36147
-0.347677
-0.242739
-0.193984
-0.127798
-0.0904817
-0.0658885
-0.109765
-0.177103
-0.179949
-0.109406
-0.152692
-0.176399
-0.0705331
-0.111675
-0.127219
-0.112161
-0.146722
-0.0956549
-0.123688
-0.110561
-0.119684
-0.0923533
-0.0653477
-0.0631104
-0.0324907
-1.098
-1.57188
-1.9219
-2.11029
-2.26249
-2.28429
-2.20175
-2.03945
-1.93389
-1.80191
-1.63827
-1.66593
-1.60625
-1.57805
-1.55833
-1.45517
-1.14478
-0.853089
-0.311845
0.175947
-0.970304
-1.38025
-1.80402
-1.89385
-2.07515
-1.90317
-1.93803
-1.85025
-1.67219
-1.48595
-1.46049
-1.43511
-1.47253
-1.46177
-1.37442
-1.27239
-1.03327
-0.81126
-0.374527
0.142421
-0.87165
-1.13483
-1.4396
-1.64336
-1.69494
-1.66828
-1.63166
-1.49622
-1.42717
-1.31464
-1.28664
-1.19917
-1.26408
-1.25955
-1.1284
-1.09812
-0.885886
-0.684269
-0.330096
0.101191
-0.726657
-0.944032
-1.24069
-1.29061
-1.40991
-1.48655
-1.33143
-1.24242
-1.15479
-1.10217
-1.03578
-1.01687
-0.953798
-0.978346
-0.92296
-0.810207
-0.755193
-0.529935
-0.247226
-0.0180721
-0.522234
-0.762213
-0.911543
-1.02131
-1.05586
-1.14275
-1.02514
-0.971622
-0.918518
-0.804561
-0.808457
-0.766045
-0.746179
-0.794263
-0.71464
-0.666822
-0.551231
-0.408385
-0.17642
0.0480024
-0.389953
-0.558657
-0.680356
-0.794628
-0.844954
-0.79375
-0.690575
-0.709364
-0.654384
-0.628751
-0.593708
-0.588716
-0.541134
-0.54894
-0.571509
-0.49614
-0.480606
-0.310411
-0.163912
0.0631822
-0.267033
-0.289837
-0.363724
-0.418418
-0.551269
-0.471609
-0.435491
-0.365641
-0.411318
-0.328192
-0.368776
-0.378882
-0.31918
-0.340836
-0.326147
-0.293935
-0.23673
-0.161881
-0.0722213
0.00400456
-0.103127
-0.0687091
-0.0691291
-0.11803
-0.157404
-0.165045
-0.14092
-0.182147
-0.148545
-0.138329
-0.0416618
-0.119263
-0.168268
-0.106175
-0.140236
-0.0671337
-0.113815
-0.0202244
-0.0753537
-0.070609
-0.449164
-0.992023
-1.45711
-1.82089
-1.89981
-2.06115
-2.03079
-1.94347
-1.8969
-1.68677
-1.61095
-1.59771
-1.54663
-1.46039
-1.29298
-1.11169
-0.825295
-0.371293
0.235427
0.803513
-0.459089
-0.813013
-1.30952
-1.6419
-1.67969
-1.86059
-1.81683
-1.68031
-1.54846
-1.46468
-1.43744
-1.37633
-1.32554
-1.3217
-1.13328
-1.01979
-0.723076
-0.330766
0.211495
0.61882
-0.461044
-0.775034
-1.05026
-1.3415
-1.46478
-1.54723
-1.48219
-1.44219
-1.37741
-1.28977
-1.30609
-1.22355
-1.16709
-1.1464
-0.974085
-0.802222
-0.562099
-0.36978
0.146931
0.452549
-0.35811
-0.715132
-0.872406
-1.10768
-1.16173
-1.29627
-1.28075
-1.17215
-1.06597
-1.05615
-0.993028
-0.991486
-1.01079
-0.859477
-0.757656
-0.760553
-0.464588
-0.186631
0.0869229
0.378527
-0.302698
-0.508986
-0.699084
-0.897144
-0.906767
-1.04756
-1.02259
-0.953434
-0.829535
-0.862321
-0.848496
-0.818354
-0.729268
-0.697682
-0.64145
-0.563767
-0.460542
-0.194768
0.0968917
0.274835
-0.1897
-0.349701
-0.497755
-0.59518
-0.714371
-0.682017
-0.74537
-0.713508
-0.657166
-0.601488
-0.604361
-0.538359
-0.542091
-0.475952
-0.416553
-0.392612
-0.29964
-0.149575
0.00360899
0.195933
-0.0396185
-0.167284
-0.219134
-0.302542
-0.426718
-0.390649
-0.398536
-0.378028
-0.389844
-0.276632
-0.372246
-0.319768
-0.256499
-0.311812
-0.316666
-0.177075
-0.162543
-0.144228
0.0169736
0.110578
-0.0320575
-0.064889
-0.0533784
-0.0916364
-0.148727
-0.103518
-0.184641
-0.147066
-0.0709341
-0.165093
-0.13705
-0.107628
-0.104295
-0.0788645
-0.152273
-0.15455
-0.126111
-0.0920324
0.0438758
0.0812446
0.3844
-0.200021
-0.733862
-1.18915
-1.36148
-1.57108
-1.60557
-1.63935
-1.55435
-1.42387
-1.34226
-1.29369
-1.15097
-1.00796
-0.800251
-0.507077
-0.153883
0.353933
0.947944
1.63023
0.281192
-0.144125
-0.654628
-1.03852
-1.25531
-1.41204
-1.42399
-1.42129
-1.32716
-1.28267
-1.17495
-1.15195
-1.04226
-1.00312
-0.829894
-0.533448
-0.202437
0.292277
0.813801
1.38651
0.246481
-0.12569
-0.635995
-0.894121
-1.07879
-1.17093
-1.21416
-1.19301
-1.1922
-1.05115
-1.06235
-0.925175
-0.840293
-0.775038
-0.562472
-0.436176
-0.161888
0.214723
0.720983
1.08833
0.197422
-0.150521
-0.513276
-0.718452
-0.891892
-0.950014
-0.954565
-1.02279
-0.887404
-0.905606
-0.860629
-0.835372
-0.737159
-0.69692
-0.549263
-0.301611
-0.150342
0.185758
0.539766
0.848328
0.123821
-0.145538
-0.372793
-0.52331
-0.734307
-0.799854
-0.72004
-0.774183
-0.754501
-0.673392
-0.709583
-0.610923
-0.570757
-0.55804
-0.416693
-0.233501
-0.127832
0.17032
0.469258
0.757581
0.0477824
-0.0976289
-0.275427
-0.295878
-0.495783
-0.568974
-0.599519
-0.508686
-0.564644
-0.527299
-0.477787
-0.467547
-0.423674
-0.362844
-0.278087
-0.203682
-0.102301
0.0914086
0.254593
0.519942
0.00395583
0.0065312
-0.149407
-0.225514
-0.325687
-0.343488
-0.354219
-0.375026
-0.330855
-0.222495
-0.300458
-0.220737
-0.245376
-0.224567
-0.124887
-0.115961
-0.0810837
-0.0132823
0.182534
0.295852
-0.0365824
0.0113468
-0.0370818
-0.0542595
-0.120433
-0.0937085
-0.097579
-0.0917688
-0.0905548
-0.0918315
-0.12123
-0.0783201
-0.0686701
-0.0328347
-0.080742
-0.0175005
-0.0329137
-0.00981718
0.0456123
0.113458
1.40515
0.775256
0.231242
-0.206806
-0.639877
-0.818699
-0.899808
-0.942112
-0.996394
-0.902796
-0.854597
-0.729425
-0.50917
-0.359309
-0.0894745
0.18113
0.713528
1.21329
1.96413
2.75514
1.19336
0.682084
0.162492
-0.249316
-0.502304
-0.75126
-0.850741
-0.90169
-0.878527
-0.797988
-0.687127
-0.665051
-0.524092
-0.327355
-0.0482316
0.303651
0.614208
1.08585
1.66769
2.23327
0.946422
0.56031
0.0805519
-0.221332
-0.521316
-0.624573
-0.698715
-0.735967
-0.690405
-0.674179
-0.578391
-0.477567
-0.500169
-0.372022
-0.0344035
0.152333
0.479307
0.932582
1.48926
1.94591
0.805255
0.483313
0.129393
-0.213841
-0.393455
-0.551382
-0.608585
-0.62122
-0.646874
-0.585713
-0.567824
-0.385732
-0.404765
-0.246513
-0.08292
0.0974967
0.382278
0.705679
1.14785
1.49275
0.539405
0.346609
0.0524567
-0.105815
-0.323954
-0.417332
-0.501639
-0.478808
-0.536495
-0.398979
-0.344692
-0.342591
-0.235353
-0.268566
-0.115991
0.0730144
0.357775
0.576673
0.911468
1.18231
0.484826
0.210363
0.052247
-0.0466741
-0.20452
-0.379936
-0.323995
-0.447009
-0.282124
-0.2735
-0.323551
-0.328234
-0.203226
-0.124708
-0.0909195
0.0229063
0.175135
0.410836
0.648321
0.868464
0.222844
0.160839
0.00800298
-0.0386775
-0.081019
-0.113
-0.180739
-0.239882
-0.218552
-0.176042
-0.186043
-0.0947153
-0.119947
-0.0674632
0.0106197
0.0436754
0.107751
0.172537
0.336459
0.531951
0.0643499
0.0892865
0.0189602
-0.0816013
0.0278659
-0.0167588
0.0212758
-0.0692457
-0.0815026
-0.0447762
-0.0928732
-0.0967724
-0.0171253
-0.054553
0.0331117
-0.024912
0.0116022
0.020235
0.14474
0.242767
2.72148
2.13704
1.39655
0.893976
0.441233
0.158918
-0.021492
-0.0198345
-0.114386
-0.0683569
0.0635362
0.151991
0.293722
0.608396
0.912884
1.23918
1.86097
2.48121
3.27859
3.98084
2.33581
1.76367
1.1832
0.73273
0.4069
0.113261
0.0483233
-0.0287457
-0.157186
-0.0806358
0.0240906
0.106912
0.240324
0.481184
0.692487
1.09764
1.58311
2.1331
2.77208
3.39735
1.9382
1.46997
1.06208
0.646468
0.316877
0.0632326
-0.0339553
-0.12557
-0.0704129
-0.0602526
0.00723117
0.130007
0.24969
0.462603
0.582828
0.943952
1.30835
1.79147
2.40676
2.81033
1.53534
1.14872
0.874681
0.430798
0.23094
0.0388975
0.00105586
-0.0453663
-0.0656774
-0.0380475
-0.0367933
0.0781601
0.0971201
0.330496
0.418957
0.752123
1.06006
1.43973
1.95157
2.34662
1.18682
0.930192
0.620324
0.358734
0.12172
0.0267824
-0.0156667
-0.0373441
-0.069923
-0.0229902
-0.0625696
0.00980694
0.0796106
0.279622
0.412847
0.612503
0.819834
1.19581
1.45433
1.83021
0.826017
0.663847
0.417515
0.24361
0.0925446
0.0483342
-0.0435196
-0.0764079
-0.0204988
-0.0481655
-0.00304717
0.0260189
0.0883436
0.147243
0.278964
0.370361
0.583283
0.780842
1.05891
1.25207
0.525429
0.358625
0.237038
0.125503
0.0925887
0.0398781
-0.00671742
-0.0939017
-0.0516386
-0.0205195
-0.00567123
0.0532446
0.0356039
0.0976233
0.193117
0.231348
0.349427
0.531587
0.64705
0.684665
0.163693
0.10972
0.114173
-0.00527557
-0.0497573
-0.0395044
0.00969387
0.00380032
-0.0748622
-0.00531321
0.0418107
0.0474477
0.0278688
0.0767338
0.111268
0.071057
0.0569523
0.156237
0.273332
0.295247
4.23227
3.59111
2.92206
2.26764
1.78671
1.41593
1.22406
1.05808
1.05152
1.12935
1.17509
1.25753
1.57209
1.82501
2.10518
2.58682
3.25903
3.97163
4.748
5.54882
3.68455
3.11817
2.43715
1.90519
1.51928
1.26937
1.096
0.973239
0.884712
0.90191
0.986222
1.08171
1.33582
1.54142
1.82106
2.24306
2.82321
3.35645
4.16464
4.72299
3.05976
2.54019
2.04766
1.67465
1.25091
0.958645
0.853056
0.769545
0.752678
0.767184
0.820776
0.911562
1.09908
1.37299
1.53733
1.85332
2.35199
2.88674
3.45298
3.99085
2.43123
2.11708
1.67162
1.2899
0.997374
0.834055
0.674839
0.674686
0.511247
0.605169
0.655604
0.770593
0.93984
1.03538
1.18637
1.6101
1.88854
2.3492
2.8097
3.16789
1.89984
1.59219
1.30319
1.04221
0.828472
0.591971
0.552879
0.52855
0.406839
0.502262
0.487945
0.547296
0.717545
0.84704
1.01356
1.20215
1.45301
1.80081
2.23018
2.48832
1.37563
1.17891
0.925028
0.665759
0.590038
0.501255
0.36036
0.323979
0.319971
0.312973
0.31258
0.404806
0.451255
0.527786
0.735306
0.799512
1.03889
1.31362
1.55186
1.80027
0.829755
0.676664
0.514761
0.441124
0.331211
0.265872
0.241596
0.160501
0.208149
0.167874
0.228607
0.250556
0.252312
0.362281
0.375223
0.530722
0.627755
0.798893
0.935307
1.10507
0.285509
0.237678
0.201214
0.115406
0.201642
0.12353
0.0721017
0.0567303
0.0293561
0.140026
0.046955
0.0890672
0.0740589
0.052577
0.0691053
0.192043
0.24755
0.242041
0.282336
0.396837
6.00567
5.35737
4.54893
3.95076
3.35131
2.96409
2.63058
2.62042
2.41696
2.49371
2.58291
2.64334
3.0074
3.28495
3.71887
4.18006
4.86886
5.73953
6.55221
7.36298
5.16528
4.6255
3.94592
3.29052
2.9072
2.57638
2.28102
2.21328
2.1239
2.07482
2.19135
2.32513
2.4662
2.80061
3.12017
3.59812
4.26566
4.86467
5.61931
6.24931
4.39838
3.81834
3.32558
2.84327
2.42303
2.14586
1.90973
1.82109
1.72628
1.79234
1.85628
1.9985
2.13873
2.40736
2.67198
3.06883
3.58006
4.1198
4.76342
5.33
3.52041
3.13693
2.70898
2.30481
1.96566
1.7474
1.56921
1.51582
1.49763
1.40257
1.49212
1.61662
1.79943
1.93361
2.14337
2.47557
2.82426
3.3063
3.89562
4.28517
2.78815
2.42986
2.09466
1.78264
1.51728
1.29951
1.19764
1.14391
1.08414
1.0646
1.07427
1.2261
1.37803
1.48149
1.7162
1.92886
2.23886
2.59937
2.98783
3.36204
2.03032
1.69754
1.44376
1.29403
1.08748
0.903153
0.873924
0.872932
0.78341
0.751242
0.837885
0.866488
0.888987
1.08499
1.18327
1.40584
1.57897
1.84367
2.11848
2.3313
1.16416
1.07527
0.849157
0.805612
0.710955
0.627532
0.529393
0.497748
0.491057
0.402513
0.528048
0.573166
0.591775
0.607178
0.68039
0.823002
0.950846
1.13646
1.28336
1.49902
0.32866
0.392644
0.285579
0.201148
0.275207
0.247171
0.242835
0.135292
0.113851
0.188845
0.1249
0.200455
0.165545
0.257124
0.234409
0.300695
0.341342
0.395579
0.442773
0.458738
8.067
7.34402
6.50451
5.78656
5.27066
4.77567
4.43377
4.21664
4.12777
4.18186
4.15772
4.38977
4.69921
4.99948
5.39562
6.07332
6.7938
7.58487
8.4709
9.35124
6.9196
6.31244
5.54052
4.97585
4.44849
4.14344
3.77888
3.6532
3.55923
3.52194
3.6687
3.75531
4.01214
4.27584
4.70053
5.16222
5.78804
6.52824
7.33422
8.02565
5.80935
5.26347
4.66729
4.26266
3.72192
3.47978
3.2348
2.96704
2.98884
2.93845
3.04914
3.11581
3.38863
3.59004
3.96292
4.39998
4.90984
5.49794
6.1633
6.68557
4.72733
4.37627
3.83403
3.46326
3.07307
2.7654
2.52275
2.47741
2.3709
2.41077
2.42149
2.61659
2.71158
2.86916
3.19549
3.56831
3.95176
4.49323
5.07441
5.49591
3.66667
3.29918
2.85974
2.63625
2.28095
2.18214
2.0111
1.94935
1.85948
1.82514
1.94707
2.03636
2.09144
2.29354
2.5297
2.78142
3.05378
3.44392
3.93131
4.27483
2.60352
2.37296
2.09702
1.85153
1.70387
1.51005
1.4351
1.4606
1.29356
1.41858
1.37361
1.40512
1.55148
1.65914
1.76486
1.95518
2.19351
2.49521
2.70817
3.02088
1.54139
1.35871
1.28013
1.20662
0.973309
0.934608
0.835268
0.83109
0.784761
0.762884
0.813108
0.872213
0.880843
0.986034
1.06335
1.15335
1.272
1.48092
1.68969
1.78195
0.543064
0.515065
0.479743
0.313718
0.289147
0.347152
0.253129
0.282067
0.291118
0.263183
0.240234
0.276331
0.270713
0.360466
0.365759
0.341986
0.479349
0.498104
0.55751
0.673432
10.2561
9.45737
8.58062
7.832
7.2167
6.72717
6.35336
6.16277
5.96957
5.9903
6.05813
6.26251
6.54605
6.95646
7.39126
8.01116
8.78403
9.67334
10.6355
11.5044
8.77897
8.11234
7.38361
6.65138
6.21615
5.72159
5.48242
5.25007
5.15233
5.13287
5.18817
5.34783
5.65154
5.9432
6.40526
6.98324
7.54548
8.28945
9.15451
9.8901
7.3596
6.79981
6.23895
5.6423
5.16504
4.84385
4.57221
4.38861
4.36959
4.29069
4.3276
4.52231
4.681
4.98181
5.30607
5.88397
6.28424
6.99201
7.61734
8.2938
5.97816
5.63683
5.04831
4.55651
4.24229
3.91032
3.70759
3.61261
3.5255
3.46569
3.57614
3.67405
3.87335
4.10388
4.35029
4.75395
5.17881
5.75023
6.26674
6.75818
4.6411
4.32506
3.95251
3.44717
3.28544
3.02753
2.93679
2.75727
2.76622
2.68363
2.77858
2.85438
3.03775
3.13908
3.31688
3.71894
3.99772
4.43449
4.82717
5.27942
3.33646
3.0376
2.78898
2.58565
2.32906
2.16155
2.08408
1.98228
1.96446
1.93551
1.87642
2.05045
2.1129
2.26983
2.40567
2.59408
2.83283
3.10537
3.43708
3.6749
1.99276
1.80037
1.64629
1.52263
1.37406
1.24217
1.26762
1.21492
1.15514
1.14395
1.18333
1.17554
1.22931
1.37035
1.42067
1.56515
1.75849
1.84248
2.07118
2.20511
0.703933
0.517638
0.578151
0.522851
0.425607
0.435756
0.467377
0.403261
0.427672
0.357891
0.347575
0.448459
0.408232
0.393986
0.489241
0.472181
0.613404
0.597121
0.697692
0.751158
12.4862
11.569
10.6781
9.86513
9.22384
8.7291
8.31148
8.10611
7.93454
7.9164
8.01504
8.16196
8.47995
8.88628
9.39211
10.0788
10.7409
11.7761
12.7292
13.6796
10.6461
9.9655
9.1256
8.49874
7.87407
7.43712
7.18198
6.87159
6.76763
6.83757
6.77061
6.95836
7.27566
7.6731
8.063
8.61762
9.29946
10.1012
10.9225
11.7028
8.95687
8.33919
7.64867
7.03746
6.63803
6.20274
5.95637
5.74983
5.65487
5.65631
5.65398
5.88167
6.12367
6.34514
6.76485
7.17534
7.83022
8.36314
9.20823
9.8409
7.26115
6.7493
6.23943
5.83477
5.3715
5.04358
4.86531
4.67507
4.56027
4.58947
4.61209
4.71034
4.87035
5.16343
5.39445
5.90094
6.3863
6.84564
7.54811
7.98169
5.57596
5.21329
4.8044
4.5073
4.15243
3.92164
3.80597
3.59262
3.51833
3.49
3.56273
3.69623
3.82233
3.96978
4.24136
4.47723
4.87571
5.28658
5.78819
6.12084
3.88936
3.71719
3.44489
3.16706
2.94746
2.79986
2.68602
2.65425
2.54427
2.53613
2.51903
2.54041
2.68243
2.79963
3.02417
3.22965
3.41779
3.84641
4.11527
4.35677
2.39713
2.25634
2.00773
1.93336
1.7784
1.63987
1.51744
1.53188
1.51068
1.53824
1.5097
1.58531
1.55292
1.73306
1.76796
1.89811
2.13859
2.29142
2.47541
2.62392
0.804977
0.725689
0.624448
0.642294
0.584541
0.593072
0.58838
0.508348
0.541188
0.536409
0.459192
0.554385
0.506428
0.533988
0.565077
0.667401
0.715777
0.710311
0.792403
0.876154
14.292
13.3191
12.4613
11.5438
10.9234
10.3611
9.94048
9.63103
9.47252
9.57296
9.57627
9.75783
10.0923
10.5388
11.055
11.6964
12.5428
13.4508
14.4586
15.4542
12.1683
11.37
10.5088
9.84335
9.32497
8.88111
8.44039
8.2306
8.11916
8.04602
8.09879
8.28375
8.58662
8.96711
9.41757
10.0437
10.6859
11.4379
12.3036
13.1234
10.1295
9.47613
8.86488
8.18332
7.68487
7.36766
7.06161
6.79059
6.63066
6.70564
6.73817
6.93843
7.09921
7.39573
7.83296
8.26717
8.89972
9.53241
10.3006
10.9491
8.17476
7.6669
7.14065
6.6847
6.25374
5.95713
5.64474
5.51083
5.41523
5.3849
5.38162
5.54268
5.78977
5.9716
6.36679
6.74151
7.15597
7.72009
8.33506
8.83503
6.30444
5.94768
5.45682
5.13304
4.88529
4.51095
4.36129
4.20519
4.13402
4.17128
4.14879
4.32993
4.40296
4.62365
4.88292
5.19867
5.49635
5.98465
6.44883
6.78855
4.47523
4.19191
3.78386
3.58615
3.39343
3.24511
3.1044
3.02173
3.02184
3.04155
2.93775
3.0907
3.15072
3.27713
3.42517
3.64631
3.91912
4.25808
4.59183
4.84172
2.71362
2.45082
2.31233
2.25802
2.05677
1.91289
1.81326
1.80228
1.70832
1.75254
1.71519
1.80855
1.84053
1.98563
2.0389
2.1313
2.35623
2.51748
2.75364
2.93846
0.871514
0.853846
0.768143
0.692329
0.676809
0.65288
0.616642
0.641986
0.565125
0.596402
0.577723
0.568277
0.63331
0.597206
0.661935
0.742814
0.6888
0.83224
0.922535
0.976738
)
;

boundaryField
{
    hotSide
    {
        type            calculated;
        value           nonuniform List<scalar> 
400
(
2.76503
2.10876
1.34762
0.585341
-0.0562239
-0.374142
-0.618817
-0.739093
-0.537908
-0.172974
0.478861
1.31676
2.34335
3.66721
5.18732
6.97198
9.0466
11.2511
13.4987
15.3244
2.77166
2.11509
1.28657
0.519558
-0.0788989
-0.62468
-0.83052
-1.07522
-0.917213
-0.605233
-0.0250523
0.768631
1.74715
3.11394
4.57495
6.35018
8.34798
10.4747