/*--------------------------------*- C++ -*----------------------------------*\
| =========                 |                                                 |
| \\      /  F ield         | OpenFOAM: The Open Source CFD Toolbox           |
|  \\    /   O peration     | Version:  2212                                  |
|   \\  /    A nd           | Website:  www.openfoam.com                      |
|    \\/     M anipulation  |                                                 |
\*---------------------------------------------------------------------------*/
FoamFile
{
    version     2.0;
    format      ascii;
    arch        "LSB;label=32;scalar=64";
    class       volScalarField;
    location    "0";
    object      relativeErrorField;
}
// * * * * * * * * * * * * * * * * * * * * * * * * * * * * * * * * * * * * * //

dimensions      [0 0 0 1 0 0 0];

internalField   nonuniform List<scalar> 
3200
(
0.0053437
0.00518175
0.00556795
0.00681206
0.00817804
0.00981425
0.0116303
0.013431
0.0148445
0.0154241
0.015821
0.0153173
0.0142139
0.0131418
0.0118462
0.0104759
0.00943533
0.00878652
0.00831485
0.00863082
0.00436103
0.0044079
0.0047936
0.00557593
0.00693864
0.00825508
0.0100594
0.0115182
0.0125718
0.0132138
0.0134834
0.0132292
0.0123619
0.0112703
0.0102649
0.00883686
0.0079839
0.00758547
0.00722369
0.00752984
0.00382712
0.00357422
0.00408045
0.00486739
0.00560875
0.00711948
0.00858053
0.00986788
0.0105271
0.0113053
0.0115879
0.0111891
0.0106355
0.00960598
0.00839667
0.00764787
0.006647
0.00617061
0.00619424
0.00610777
0.00306262
0.00291656
0.00323
0.00387498
0.00454498
0.00582457
0.00700727
0.00796877
0.00886131
0.00931077
0.00965154
0.00912228
0.00852406
0.00777157
0.00687428
0.00625571
0.00555329
0.00521763
0.00483285
0.00495245
0.0020169
0.00230209
0.00238845
0.00307068
0.00374673
0.00451775
0.00545866
0.00631245
0.00679656
0.00734921
0.00744685
0.00723499
0.00658276
0.00615483
0.00556207
0.00477792
0.00441341
0.00414021
0.00379103
0.00391036
0.00144335
0.00137828
0.00187077
0.00207653
0.00265235
0.0032322
0.00415426
0.00436655
0.00506944
0.005449
0.00566414
0.00525598
0.00480947
0.00452881
0.00394745
0.00351008
0.00291045
0.00290111
0.00272793
0.00288607
0.000811492
0.000860371
0.00103545
0.00113246
0.00168137
0.00210553
0.0022768
0.00277597
0.00303351
0.00336536
0.0033749
0.00308302
0.00307084
0.00256572
0.00233477
0.00233532
0.00181268
0.00194552
0.00167201
0.00156812
0.000168641
0.000285567
0.000548641
0.000463871
0.000641176
0.000536841
0.000780806
0.000912192
0.0012744
0.000851086
0.00116121
0.00108307
0.00108259
0.000799361
0.000780957
0.000613494
0.000492758
0.000771365
0.000650488
0.000716664
0.00343706
0.00328054
0.0036088
0.00469511
0.00593239
0.00730111
0.00930757
0.0110372
0.0121141
0.0130251
0.0132808
0.0128457
0.01199
0.01087
0.00951858
0.00807386
0.00715431
0.0065715
0.00649592
0.00680757
0.00291588
0.00302212
0.00305879
0.00395407
0.00506387
0.00653001
0.00798193
0.00930652
0.0106407
0.0112896
0.011372
0.0112699
0.0103629
0.00911155
0.00800017
0.00693429
0.0062908
0.00566373
0.00565678
0.0058099
0.00240903
0.00206673
0.00268027
0.00299923
0.0042435
0.00544329
0.00695909
0.00811365
0.00902711
0.0096826
0.00987444
0.00952252
0.0088566
0.007932
0.00692439
0.00607958
0.00530718
0.00488404
0.00458533
0.00500243
0.00204531
0.00204797
0.00219652
0.00261918
0.003466
0.00456785
0.00538935
0.00669159
0.00752006
0.00801666
0.00822405
0.0078969
0.00732703
0.00658383
0.00580395
0.00485604
0.00448264
0.00390539
0.00411125
0.00403904
0.00155181
0.00121637
0.00172792
0.00215612
0.00264502
0.0037139
0.00448109
0.00529708
0.00577251
0.00646554
0.00672256
0.00626672
0.00575147
0.00516128
0.0044769
0.0039266
0.00359771
0.0030481
0.00315323
0.00332221
0.000986903
0.00120008
0.00105147
0.00151718
0.00210564
0.00257692
0.00321139
0.00396255
0.00422452
0.00454299
0.00475125
0.00455349
0.00405379
0.00376022
0.00319744
0.00285123
0.00230924
0.00222903
0.00230997
0.00209262
0.000620522
0.000605196
0.000891883
0.000828228
0.00131341
0.00130948
0.00197809
0.00240441
0.0027441
0.00288927
0.00297505
0.00292072
0.00229684
0.00231639
0.00201164
0.00181929
0.00131638
0.001385
0.00152851
0.00153054
0.000135583
0.000255827
5.18073e-05
0.000311046
0.000302324
0.000353198
0.000825958
0.000787417
0.000600401
0.000930194
0.00081726
0.000962464
0.00083154
0.000662975
0.000832317
0.000513593
0.000487675
0.000175725
0.00038262
0.000409843
0.00122765
0.00088439
0.00138773
0.0020338
0.00311957
0.00471295
0.00619583
0.00774999
0.00918449
0.00997167
0.0100784
0.00973147
0.00875144
0.00771144
0.00645778
0.00533394
0.00462809
0.00422094
0.00415844
0.0045879
0.000801247
0.000620994
0.000986382
0.00174427
0.00278354
0.00398317
0.00555997
0.0069217
0.00791065
0.00872876
0.00910635
0.00858977
0.00777065
0.00660405
0.005905
0.00484382
0.00389938
0.00365084
0.00351507
0.00392476
0.000774864
0.000660645
0.000732917
0.00128268
0.00243051
0.00334267
0.00489528
0.00579321
0.00673327
0.00726583
0.00766305
0.00726534
0.0065143
0.00585473
0.00494265
0.00386798
0.00348473
0.00304146
0.00321453
0.00338355
0.000583802
0.000460743
0.000831016
0.00112853
0.00171135
0.00255975
0.00384312
0.00500906
0.00562755
0.0060841
0.00615391
0.00616329
0.00535954
0.00483368
0.0041209
0.00322553
0.00286115
0.00264198
0.00244735
0.00257597
0.000473441
0.000362781
0.000584964
0.000856403
0.00134911
0.00204177
0.00316079
0.00388044
0.00449515
0.0048882
0.00478786
0.00490815
0.00441854
0.00384858
0.00315754
0.00263758
0.00209093
0.0016803
0.00199992
0.00212673
0.00027538
0.000110684
0.000173765
0.00065774
0.00101587
0.0014258
0.00241761
0.0027371
0.00320318
0.00344247
0.00354414
0.0036065
0.00337213
0.00277365
0.00208307
0.00172006
0.0014638
0.00161144
0.00152631
0.00161526
0.000241512
3.25138e-05
3.43928e-05
0.000364896
0.000781285
0.00104486
0.00111388
0.00170962
0.00191726
0.00225903
0.00227808
0.00223018
0.00192961
0.00177256
0.0012175
0.00120824
0.000869437
0.000962619
0.00122448
0.000860125
7.27278e-05
7.74245e-05
8.7664e-05
0.000128642
0.000225393
0.000410281
0.000464089
0.000607478
0.000833901
0.000797036
0.000939867
0.000683423
0.000578513
0.000718435
0.000641064
0.000591125
0.000350753
0.000483414
0.000189909
0.000541038
0.000981151
0.00132861
0.00115693
0.000624787
0.000512699
0.00186948
0.00332477
0.00482429
0.00601897
0.00659133
0.00714656
0.00658122
0.00585353
0.00488505
0.0037689
0.00293285
0.00195591
0.00172404
0.00201232
0.00247336
0.000878306
0.00110512
0.00106067
0.00062727
0.00022297
0.00146526
0.00292361
0.00415178
0.00511695
0.0058948
0.00600683
0.00574681
0.00509304
0.00435072
0.00322793
0.00243029
0.00184079
0.0017285
0.00172702
0.00215163
0.00102471
0.000999605
0.000917144
0.000513562
0.000174854
0.00135043
0.00245594
0.00342366
0.00440426
0.00497252
0.00534892
0.00494393
0.00442055
0.00359226
0.00270021
0.00206912
0.00155147
0.00137419
0.00145031
0.0017741
0.00076171
0.000939608
0.00102506
0.000285843
8.34703e-05
0.00084558
0.00199599
0.00270636
0.00370393
0.00427036
0.00417234
0.00404058
0.00358839
0.00308996
0.00226866
0.00152512
0.00130286
0.00110999
0.00120157
0.00135771
0.00065751
0.000742909
0.000638631
0.000466445
5.7351e-05
0.000995647
0.00161723
0.00227926
0.00289732
0.00345777
0.0034964
0.00334979
0.002889
0.00248344
0.00151768
0.00142609
0.00112727
0.000779729
0.000827625
0.00105072
0.000479861
0.000333176
0.000446437
0.000292055
9.05025e-05
0.000567815
0.0010376
0.00161204
0.00231116
0.00251323
0.0025472
0.00239696
0.00207402
0.00160693
0.00111398
0.00100305
0.000806446
0.000680229
0.000832669
0.00117168
0.000410769
0.000367991
0.000161981
0.000237621
6.12304e-05
0.000384285
0.000658836
0.00104921
0.00123797
0.00130602
0.00149016
0.00128701
0.00121312
0.00093735
0.000886622
0.000531694
0.000376203
0.000301852
0.000353422
0.00033783
2.47767e-05
0.000197603
7.80674e-05
0.000364256
0.000256916
0.000155078
0.000262795
0.000429679
0.000548968
0.000530331
0.000603327
0.000674266
0.000381821
0.000314807
0.000263136
0.000156278
8.18198e-05
0.000297869
0.000125646
0.000195292
0.00283464
0.00304806
0.00323328
0.00283856
0.00191365
0.000741612
0.000531352
0.00171491
0.00275916
0.00358531
0.00387609
0.00372469
0.00292242
0.00201302
0.00121189
0.000482391
3.28151e-05
0.000231014
0.00035521
0.000841662
0.00256182
0.00295972
0.00300864
0.00267395
0.00164598
0.000543481
0.000497409
0.00154251
0.00247612
0.00295539
0.00344456
0.00313452
0.00245404
0.00195398
0.00102641
0.000323754
3.18713e-05
0.000107949
0.000156092
0.00055289
0.00203422
0.0023861
0.00282307
0.00239838
0.00140321
0.000832646
0.000372544
0.00134327
0.0021295
0.00278576
0.00292401
0.00259444
0.00212883
0.00151521
0.000864848
0.000257369
4.23827e-05
0.00018194
0.000123885
0.0005652
0.00173308
0.0017683
0.00198489
0.00175395
0.00130228
0.000708548
0.000343736
0.0010925
0.00170679
0.00221687
0.00205816
0.002148
0.00161706
0.00134184
0.000912386
0.000238175
0.000189121
0.000239453
0.00016235
0.00043967
0.00174069
0.00163415
0.00177229
0.00155233
0.00133798
0.00041421
9.29027e-05
0.000803209
0.00138908
0.00171767
0.00177722
0.00167505
0.00143622
0.00107091
0.000376116
0.000145068
4.43569e-05
0.000183163
6.49508e-05
0.000403537
0.000933671
0.00132466
0.00118906
0.00109114
0.000482632
0.000132426
1.95227e-05
0.000457987
0.00100469
0.00117501
0.00112504
0.00128898
0.00106503
0.000447944
0.00050396
0.000257218
2.45823e-05
0.000206277
1.60112e-05
0.000235871
0.000794718
0.000892995
0.000638549
0.000693699
0.000631743
0.000244262
0.0001207
0.000269342
0.000402758
0.000680616
0.000796764
0.000799001
0.00049195
0.000673045
0.000134839
5.79102e-05
0.000282065
0.000202867
0.000180714
6.04066e-05
8.89996e-05
0.000340065
0.00018679
0.000317953
1.77059e-05
0.000248447
0.000117089
5.71733e-05
0.000180563
0.000276141
0.000108126
0.000232917
8.02605e-05
0.000136013
0.000124601
0.000198013
9.0476e-06
9.2062e-05
0.00010558
0.000140499
0.00374638
0.00460884
0.00467132
0.00451968
0.00412947
0.00314809
0.00184019
0.000771616
0.000329879
0.000871856
0.00125383
0.000938105
0.000545249
0.000140898
0.000868923
0.00167188
0.00180037
0.00172005
0.00122302
0.000234521
0.00365084
0.00404628
0.00417592
0.00409924
0.00349735
0.00259431
0.00155837
0.000692269
3.82177e-05
0.000697308
0.000957089
0.000603801
0.00042133
0.000233528
0.000978996
0.00143211
0.00169122
0.00160318
0.00108615
0.000444737
0.00320113
0.00340398
0.00366736
0.00350114
0.00307584
0.00244417
0.00156631
0.000692756
0.000124547
0.000489054
0.00100265
0.000536454
0.000351733
0.000401551
0.000898446
0.00129647
0.00131861
0.00137585
0.000950079
0.000154505
0.00263942
0.00309387
0.00308924
0.00286232
0.00274119
0.00215826
0.00113411
0.000649045
0.000219798
0.000549447
0.000739379
0.000635066
0.000424333
0.000240356
0.000683485
0.000836126
0.00121811
0.00131596
0.000712828
0.000463889
0.00191104
0.00226358
0.00258453
0.00238138
0.00193912
0.00153201
0.00103758
0.000479706
0.000213075
0.000303012
0.000398152
0.00033822
0.00014529
0.000121874
0.000649079
0.000899544
0.00111633
0.000788445
0.000540342
0.000207035
0.00162858
0.0017468
0.00193373
0.00169246
0.00137792
0.00109609
0.000528389
0.000306678
0.0001171
6.35394e-05
0.000348907
0.00015055
0.000154206
0.000230505
0.000391391
0.000710367
0.000742363
0.000767564
0.000655364
0.000365376
0.000975871
0.000962651
0.00128827
0.0011314
0.000866994
0.00081254
0.000618309
0.000178801
2.22455e-05
0.000120643
0.000398832
0.00023336
8.23502e-05
0.000173642
0.000205715
0.000449102
0.00029094
0.000361958
0.00032131
0.0002347
0.000358603
0.000632092
0.000484683
0.000316811
0.000354317
0.000296142
8.21456e-05
0.000199896
0.000123108
0.000198497
3.26431e-05
0.000239456
0.000116856
0.000155114
4.08576e-05
0.000116283
0.000104374
0.000236755
0.000273527
4.14793e-05
0.00444284
0.00518422
0.00579448
0.00601536
0.00549084
0.00463343
0.0037062
0.00270656
0.00191914
0.00124558
0.000910773
0.00117264
0.0017145
0.00215344
0.00266544
0.00306957
0.00305184
0.0027643
0.00183245
0.00109955
0.00407062
0.00476584
0.00498039
0.0050912
0.00487048
0.00422691
0.00338887
0.00265266
0.0018042
0.00125309
0.00106456
0.00127496
0.00144027
0.00207536
0.00237331
0.00260404
0.00292666
0.0023776
0.00176676
0.000929601
0.00367544
0.00438546
0.00445686
0.00450555
0.00411327
0.00356685
0.00285374
0.00206899
0.00141418
0.00122493
0.00125391
0.000887045
0.00111288
0.00193537
0.00209721
0.00255903
0.00242733
0.00208581
0.00149202
0.000915798
0.00301744
0.0034337
0.00383956
0.0036978
0.00347765
0.00312788
0.0022872
0.00183287
0.00120723
0.00101128
0.000766501
0.000810209
0.0010253
0.00131863
0.00183385
0.00180054
0.0019075
0.00188783
0.00128083
0.000752939
0.00250615
0.00287085
0.00296905
0.00284865
0.00280563
0.00254486
0.00194347
0.00169262
0.000988785
0.000626807
0.000592738
0.000900935
0.00089807
0.000954432
0.0013412
0.0018085
0.00151267
0.00132829
0.00103362
0.000463148
0.00193638
0.00211685
0.00211201
0.0021847
0.00204511
0.00189554
0.0014943
0.00105752
0.000736156
0.000657606
0.000322943
0.000318086
0.000639261
0.00109079
0.00091095
0.00125799
0.00116125
0.000857027
0.000743917
0.000437442
0.000894965
0.00144593
0.00116048
0.00127339
0.00122608
0.00128854
0.00107743
0.000794944
0.000282756
0.000445997
0.000378975
0.000544495
0.000297578
0.000613774
0.000442373
0.000785176
0.000633254
0.000678782
0.000526344
0.00032945
0.00044184
0.000525977
0.000753763
0.000542429
0.000371794
0.000459916
0.000392073
0.000229298
0.000235519
0.000355816
1.04081e-05
0.000174044
0.000263621
3.62937e-05
0.000267951
0.000397216
0.00019977
0.00026584
0.000179903
0.000165506
0.00477802
0.00586753
0.00633746
0.00653254
0.0064936
0.005716
0.00520784
0.00418538
0.00379981
0.00314343
0.00283333
0.00303962
0.00334528
0.00355699
0.00398906
0.00375357
0.00368773
0.00330007
0.00231244
0.0010353
0.00439619
0.00515566
0.00564356
0.00577958
0.00563543
0.00524711
0.00477875
0.00381157
0.00327513
0.00279737
0.00278372
0.00289932
0.00283552
0.0031863
0.0033486
0.00341415
0.0033209
0.00299212
0.00206853
0.00108607
0.00368923
0.00438641
0.00490421
0.00515169
0.00491145
0.00457928
0.00414795
0.00333158
0.00295758
0.00261617
0.00246995
0.00235592
0.00257149
0.00273858
0.0029477
0.00308139
0.00269887
0.00270459
0.00185025
0.00118093
0.0031489
0.00374931
0.00402751
0.0042648
0.00422232
0.00391838
0.00347054
0.00272795
0.00248063
0.00214774
0.00196501
0.0019488
0.00204695
0.00226737
0.0024903
0.00252882
0.00269876
0.00213708
0.0014427
0.00109984
0.002655
0.00288263
0.0030783
0.00344755
0.00335692
0.00293143
0.00275097
0.0022694
0.00203919
0.00172914
0.00171514
0.00176565
0.00183479
0.00207809
0.00206613
0.00212088
0.00203709
0.00168998
0.00114928
0.000423347
0.00186284
0.00212922
0.00219648
0.00258488
0.0024529
0.00207559
0.00202063
0.00146782
0.0013769
0.00110647
0.00127749
0.0011421
0.00129883
0.00129977
0.00150162
0.00132951
0.00143114
0.00121946
0.000935413
0.000485306
0.00107349
0.00141217
0.00153084
0.00146843
0.00147499
0.00122409
0.00136386
0.00108342
0.000982976
0.000886751
0.000822066
0.000673588
0.000556279
0.000909016
0.000995213
0.000864264
0.000781748
0.000790553
0.000555905
0.000352848
0.000406479
0.000362063
0.000404025
0.00063906
0.000512133
0.000561993
0.000452174
0.000552174
0.000322485
0.00023557
0.000217989
0.000171418
0.000301573
0.000361617
0.00019505
0.00039733
0.000388512
0.000408425
0.000123409
4.05273e-05
0.00418975
0.00539406
0.00637458
0.0066541
0.00667647
0.00650482
0.00602067
0.00538418
0.00477726
0.00419219
0.00418224
0.00406154
0.00414196
0.00447174
0.0045143
0.00437764
0.0038399
0.00301586
0.00191739
0.00060412
0.0039793
0.00480873
0.00553013
0.00590464
0.00613354
0.00576515
0.00515092
0.00478025
0.00411721
0.00409598
0.00366808
0.00383116
0.00379278
0.00386353
0.00407734
0.00405282
0.00355613
0.00263577
0.00189759
0.000738917
0.00335671
0.0042615
0.00464298
0.0051875
0.00507649
0.00492462
0.00463893
0.00409426
0.00365651
0.00342714
0.00331158
0.00313748
0.00314184
0.00342588
0.0033779
0.00343138
0.00306482
0.00220671
0.00145472
0.000543572
0.00286533
0.00336004
0.00399523
0.00443657
0.00433438
0.00441661
0.00381999
0.00360505
0.00317514
0.00277104
0.00284431
0.00278
0.00275994
0.00281581
0.00313118
0.00277002
0.002746
0.00201915
0.0012459
0.000637875
0.0022844
0.0027009
0.00328514
0.00353659
0.00352487
0.0032988
0.00317724
0.00310095
0.00266909
0.0023764
0.00216524
0.00220331
0.00222549
0.00228667
0.0021764
0.00225273
0.00193578
0.00158521
0.00108178
0.000373945
0.00181552
0.00197266
0.0022699
0.00257697
0.002665
0.0024259
0.00225766
0.00193761
0.00181694
0.00171582
0.00189659
0.00150131
0.00149654
0.0017051
0.00169182
0.0017432
0.00149003
0.00124927
0.000585935
0.000208405
0.00100018
0.00130239
0.0012859
0.00130952
0.00151034
0.00176132
0.00129257
0.00151877
0.00123478
0.000871228
0.00111601
0.00104366
0.00102956
0.00091765
0.00116383
0.00112004
0.000782431
0.000625634
0.000412391
0.00029209
0.000217255
0.000361881
0.000583782
0.000593045
0.000360492
0.000503023
0.000581024
0.00023229
0.000367748
0.000418913
0.000369329
0.000483159
0.000315025
0.000407404
0.00036423
0.000394359
0.000304363
0.000215405
0.000208067
0.000107132
0.00313811
0.00448445
0.00547084
0.00599303
0.00641025
0.00645762
0.00621192
0.0057446
0.0054409
0.0050665
0.00460638
0.004687
0.00452439
0.00445223
0.00440537
0.00412288
0.00325106
0.00242839
0.000889669
0.00050286
0.00282682
0.00401494
0.00523735
0.00548676
0.0059996
0.00549156
0.00558231
0.00532178
0.00480466
0.00426723
0.00419411
0.00412347
0.00423534
0.00421048
0.00396587
0.00367869
0.00299354
0.00235522
0.00108944
0.000414921
0.00258954
0.003367
0.0042641
0.00485893
0.00500249
0.00491545
0.00480025
0.00439628
0.00418968
0.00385753
0.00377536
0.00352034
0.0037142
0.00370553
0.00332474
0.00324102
0.0026193
0.0020268
0.00097939
0.000300622
0.00220229
0.00285802
0.00375088
0.00389599
0.00424978
0.00447445
0.00400244
0.00373095
0.00346523
0.00330604
0.00310691
0.00305138
0.00286424
0.00294103
0.00277806
0.00244214
0.00227972
0.00160212
0.000748468
5.47713e-05
0.00161529
0.00235558
0.00281395
0.00314907
0.00325173
0.00351539
0.00315038
0.00298345
0.00281872
0.00246824
0.0024802
0.00235081
0.0022912
0.00244088
0.00219841
0.00205362
0.00169965
0.00126069
0.000545216
0.000148473
0.00123147
0.00176317
0.00214552
0.00250372
0.00265998
0.00249673
0.0021706
0.0022283
0.0020547
0.00197377
0.00186377
0.00184851
0.00169985
0.00172541
0.00179767
0.00156189
0.0015143
0.00097889
0.000517318
0.000199529
0.00086138
0.000934595
0.00117227
0.00134783
0.00177483
0.00151759
0.00140074
0.00117563
0.00132214
0.0010548
0.00118523
0.00121788
0.00102624
0.00109628
0.00104951
0.000946333
0.000762569
0.000521736
0.000232882
1.29177e-05
0.000339955
0.00022647
0.000227815
0.000388898
0.000518536
0.000543613
0.000464081
0.000599775
0.000489084
0.000455427
0.000137165
0.000392673
0.000554074
0.000349657
0.000461899
0.000221159
0.000375011
6.66495e-05
0.000248371
0.000232761
0.00127892
0.00281993
0.00413345
0.00515423
0.00536606
0.00580995
0.00571402
0.00546023
0.00532377
0.00473143
0.00451874
0.00448407
0.00434529
0.0041091
0.00364465
0.00314
0.00233609
0.00105327
0.000669225
0.00228787
0.00133307
0.00235739
0.00379016
0.00474307
0.00484302
0.00535496
0.00522067
0.00482204
0.00443952
0.00419729
0.00411921
0.00394603
0.00380395
0.00379791
0.0032617
0.00294035
0.0020888
0.000957338
0.000613244
0.00179689
0.0013658
0.00229318
0.00310269
0.00395652
0.00431301
0.00454873
0.0043515
0.00422926
0.00403604
0.00377764
0.00382545
0.0035852
0.00342251
0.00336567
0.00286372
0.00236213
0.00165781
0.0010924
0.000434743
0.00134064
0.00108276
0.00216006
0.00263169
0.00333681
0.00349484
0.00389451
0.00384344
0.00351419
0.00319372
0.00316317
0.00297413
0.00297055
0.00303044
0.00257922
0.00227629
0.00228797
0.00139954
0.00056299
0.000262551
0.00114449
0.0009345
0.00157013
0.00215432
0.00276164
0.00278822
0.00321783
0.00313824
0.00292379
0.00254248
0.00264223
0.00259987
0.00250821
0.00223637
0.00214112
0.00197036
0.00173353
0.00141767
0.000600203
0.000298893
0.00084848
0.000598252
0.00110222
0.00156769
0.00187303
0.00224634
0.00214298
0.00234047
0.00223919
0.00206156
0.00188651
0.00189552
0.00168886
0.00170123
0.00149449
0.00130886
0.00123457
0.000942967
0.000471089
1.13751e-05
0.000617909
0.000127692
0.000538978
0.00070571
0.000973841
0.00137287
0.00125625
0.00128108
0.00121475
0.00125242
0.000888597
0.00119573
0.00102729
0.000824228
0.00100231
0.00101833
0.0005697
0.000523205
0.000464478
5.46877e-05
0.000356399
0.000105647
0.000213818
0.000175862
0.000301857
0.000489836
0.000340883
0.000607933
0.000484161
0.000233506
0.000543442
0.00045113
0.000354296
0.000343354
0.000259663
0.000501434
0.000509014
0.000415418
0.000303212
0.000144577
0.000267744
0.00108998
0.000566291
0.00207373
0.00335356
0.00383204
0.0044138
0.00450332
0.00459194
0.00434974
0.00398263
0.00375435
0.0036203
0.00322394
0.00282714
0.00224824
0.00142722
0.000433973
0.00100013
0.00268377
0.00462255
0.000813516
0.000416413
0.00188821
0.00299024
0.00360819
0.00405205
0.00408041
0.00406787
0.00379528
0.00366645
0.00335855
0.00329421
0.00298305
0.00287442
0.0023815
0.00153331
0.000582884
0.000843046
0.00235127
0.00401132
0.000727876
0.000370752
0.00187331
0.00262961
0.00316795
0.0034337
0.00355601
0.00349048
0.00348559
0.00307206
0.00310479
0.00270489
0.00245851
0.00226991
0.00164942
0.00128087
0.000476114
0.000632463
0.00212671
0.00321391
0.00059534
0.000453485
0.00154453
0.00215919
0.00267707
0.00284816
0.0028588
0.00306051
0.00265378
0.00270736
0.0025729
0.00249817
0.00220581
0.00208719
0.0016467
0.000905305
0.000451827
0.000558976
0.00162619
0.00255819
0.000381466
0.000448043
0.00114656
0.00160787
0.0022539
0.00245279
0.00220619
0.00237047
0.00230909
0.00206034
0.00217107
0.00186968
0.0017476
0.00170982
0.00127781
0.000716713
0.000392764
0.000523837
0.00144463
0.00233393
0.00015046
0.000307257
0.000866223
0.000929855
0.00155695
0.00178558
0.00188029
0.00159461
0.0017694
0.00165207
0.00149695
0.00146513
0.00132812
0.001138
0.000872702
0.000639642
0.0003215
0.000287482
0.000801255
0.00163723
1.27379e-05
2.10238e-05
0.000480734
0.00072529
0.00104699
0.00110375
0.00113781
0.00120427
0.0010622
0.000714231
0.000964501
0.000708669
0.000787942
0.000721343
0.000401306
0.000372781
0.000260778
4.27374e-05
0.000587575
0.000952648
0.00012052
3.73776e-05
0.000122133
0.000178683
0.000396539
0.0003085
0.000321201
0.000302044
0.000298026
0.000302217
0.000398967
0.00025776
0.000226018
0.000108082
0.000265813
5.76222e-05
0.000108389
3.23341e-05
0.000150252
0.000373783
0.00396614
0.0021851
0.000650629
0.000580816
0.00179389
0.00229138
0.00251468
0.00262975
0.00277891
0.00251677
0.0023824
0.00203434
0.00142126
0.00100415
0.000250422
0.000507796
0.00200395
0.00341374
0.00553599
0.00777661
0.00343861
0.00196297
0.000466915
0.000715247
0.00143875
0.00214865
0.00242999
0.00257278
0.00250481
0.00227429
0.00195834
0.00189616
0.00149539
0.000935029
0.000137945
0.000869747
0.00176206
0.00312015
0.00479944
0.00643505
0.00278513
0.00164716
0.000236487
0.000648889
0.00152628
0.00182624
0.00204072
0.00214755
0.00201329
0.00196531
0.00168608
0.00139263
0.00145949
0.00108656
0.000100595
0.000445991
0.00140521
0.0027379
0.00437802
0.00572642
0.00242125
0.00145199
0.000388297
0.000640973
0.001178
0.00164906
0.00181843
0.00185475
0.00193029
0.00174729
0.00169393
0.00115104
0.00120849
0.000736571
0.000247995
0.000291905
0.00114585
0.00211768
0.0034484
0.00448842
0.00165795
0.00106464
0.000160985
0.000324435
0.00099236
0.00127731
0.00153419
0.00146346
0.00163907
0.00121867
0.00105285
0.00104667
0.000719351
0.000821369
0.000355008
0.000223663
0.00109696
0.00176975
0.00279967
0.00363403
0.00152408
0.000660966
0.000164056
0.000146458
0.000641335
0.00119066
0.00101479
0.00139945
0.000882966
0.000855837
0.00101246
0.00102728
0.000636239
0.0003906
0.000284927
7.18295e-05
0.000549553
0.00129003
0.00203704
0.00273006
0.000716818
0.000517214
2.57254e-05
0.000124276
0.000260217
0.000362796
0.00058008
0.000769688
0.00070111
0.000564681
0.000596763
0.000303844
0.000384862
0.000216522
3.40955e-05
0.000140277
0.000346218
0.000554615
0.00108196
0.00171112
0.000211924
0.000294017
6.24271e-05
0.000268636
9.17229e-05
5.51559e-05
7.00137e-05
0.00022785
0.000268163
0.000147319
0.000305564
0.000318405
5.63502e-05
0.000179521
0.000108976
8.2e-05
3.81949e-05
6.66244e-05
0.000476623
0.000799505
0.00764335
0.00599403
0.00391082
0.00249929
0.00123156
0.000442899
5.9818e-05
5.51457e-05
0.000317786
0.000189834
0.000176447
0.000422262
0.000816635
0.00169333
0.00254418
0.00345876
0.00520273
0.00694823
0.00919592
0.0111803
0.00670091
0.00505382
0.00338568
0.0020936
0.00116095
0.00032272
0.000137529
8.17329e-05
0.000446629
0.000229039
6.84273e-05
0.00030378
0.000683316
0.00136945
0.00197314
0.00313174
0.00452337
0.0061038
0.00794342
0.00974621
0.00568208
0.00430526
0.00310685
0.00188867
0.000924615
0.000184293
9.88631e-05
0.000365303
0.000204724
0.000175131
2.10182e-05
0.000377993
0.000726389
0.0013469
0.00169867
0.00275436
0.00382236
0.00524047
0.00704892
0.00823881
0.00460184
0.00344032
0.00261693
0.00128752
0.00068949
0.000116019
3.14661e-06
0.000135105
0.000195499
0.000113225
0.000109493
0.000232655
0.000289233
0.00098493
0.00124962
0.00224552
0.0031682
0.00430748
0.00584476
0.00703349
0.00363871
0.00285012
0.00189915
0.00109735
0.000372028
8.17952e-05
4.78148e-05
0.000113912
0.000213205
7.00862e-05
0.000190745
2.99028e-05
0.000242838
0.000853405
0.00126086
0.00187207
0.00250784
0.00366102
0.00445609
0.00561129
0.00259185
0.00208206
0.0013087
0.000763125
0.000289727
0.000151233
0.000136101
0.000238858
6.40628e-05
0.000150505
9.52163e-06
8.13143e-05
0.00027617
0.000460479
0.00087285
0.00115948
0.00182717
0.00244756
0.00332111
0.00392869
0.00168823
0.00115197
0.000761131
0.000402836
0.000297079
0.000127908
2.15393e-05
0.00030102
0.000165508
6.57617e-05
1.81754e-05
0.000170656
0.000114135
0.000313028
0.000619416
0.0007423
0.00112158
0.00170693
0.00207843
0.00219986
0.000538881
0.000361169
0.000375778
1.73612e-05
0.000163724
0.000129972
3.189e-05
1.25009e-05
0.00024624
1.74758e-05
0.000137521
0.000156067
9.16726e-05
0.000252432
0.000366077
0.000233809
0.000187422
0.000514224
0.000899731
0.00097196
0.0118224
0.0100193
0.00814073
0.006308
0.00496293
0.00392768
0.00339143
0.00292873
0.00290862
0.00312282
0.00324931
0.00347848
0.00435152
0.00505643
0.00583958
0.00718536
0.00906579
0.0110648
0.0132471
0.0155001
0.0105198
0.00889344
0.00694212
0.0054196
0.00431621
0.00360189
0.00310669
0.00275636
0.00250415
0.00255204
0.00279061
0.00306176
0.00378324
0.00436925
0.00516734
0.00637246
0.00803106
0.00956072
0.0118781
0.0134847
0.00893323
0.00740973
0.00596638
0.00487387
0.00363653
0.00278399
0.00247509
0.00223115
0.00218112
0.00222256
0.00237782
0.00264154
0.00318656
0.00398365
0.00446454
0.0053878
0.00684521
0.00841125
0.0100723
0.0116516
0.00726205
0.0063191
0.00498484
0.00384281
0.00296853
0.00248027
0.00200527
0.00200358
0.00151757
0.00179596
0.00194564
0.0022874
0.002791
0.00307661
0.00352796
0.00479221
0.00562626
0.00700539
0.00838644
0.00946243
0.00580885
0.00486542
0.00397935
0.00317998
0.00252593
0.00180361
0.00168348
0.0016086
0.00123776
0.0015278
0.00148425
0.00166508
0.00218379
0.00257917
0.00308809
0.00366522
0.00443342
0.00549887
0.00681499
0.00760816
0.00430779
0.00369021
0.00289397
0.00208166
0.00184389
0.00156564
0.00112506
0.00101111
0.000998351
0.000976389
0.000975163
0.00126305
0.00140833
0.00164777
0.00229668
0.0024985
0.00324835
0.00410968
0.00485765
0.00563753
0.00266277
0.00217093
0.00165095
0.00141429
0.00106154
0.00085186
0.000773866
0.000513992
0.000666476
0.000537478
0.000731923
0.000802262
0.000808011
0.00116043
0.00120222
0.00170098
0.00201265
0.00256223
0.00300073
0.00354629
0.000939506
0.000782044
0.000661988
0.000379637
0.000663239
0.00040627
0.000237109
0.000186545
9.65257e-05
0.000460408
0.000154389
0.000292862
0.000243526
0.000172901
0.000227276
0.000631665
0.000814335
0.000796306
0.000928984
0.00130584
0.0166795
0.0148626
0.012603
0.0109308
0.00925998
0.00818009
0.00725202
0.00721786
0.00665347
0.00686263
0.00710809
0.00727662
0.00828378
0.00905598
0.0102631
0.0115499
0.0134709
0.0159016
0.0181774
0.0204491
0.0146723
0.0131265
0.0111848
0.00931574
0.00822089
0.00727753
0.00643716
0.00624128
0.00598607
0.00584612
0.00617447
0.00655321
0.00695449
0.00790347
0.00881359
0.0101746
0.0120764
0.013789
0.0159468
0.0177516
0.0127849
0.0110899
0.00964897
0.00824091
0.00701575
0.00620739
0.00551985
0.00526019
0.00498404
0.00517355
0.00535809
0.00576996
0.00617769
0.00695818
0.00772931
0.00888564
0.0103764
0.0119533
0.0138348
0.0154929
0.0104767
0.0093293
0.00804972
0.00684271
0.00583086
0.00517933
0.004648
0.00448738
0.00443183
0.0041497
0.00441464
0.00478395
0.00532698
0.00572734
0.00635301
0.00734341
0.00838491
0.00982465
0.0115857
0.0127527
0.00849996
0.0074038
0.00637814
0.00542426
0.00461367
0.003949
0.00363746
0.00347274
0.00329026
0.00323046
0.0032598
0.0037211
0.00418349
0.00449955
0.00521527
0.0058652
0.00681247
0.00791497
0.00910393
0.0102495
0.00634436
0.00530246
0.00450753
0.00403799
0.00339176
0.00281557
0.00272335
0.00271939
0.00243995
0.00233949
0.00260931
0.0026987
0.00276941
0.0033811
0.00368884
0.0043847
0.00492713
0.00575608
0.00661732
0.00728486
0.003731
0.00344531
0.00271998
0.00257969
0.00227588
0.00200826
0.00169378
0.00159221
0.00157059
0.0012873
0.00168878
0.0018332
0.00189299
0.00194265
0.00217742
0.00263456
0.00304474
0.00364024
0.00411206
0.00480417
0.00108101
0.00129136
0.000939136
0.000661409
0.000904835
0.000812575
0.000798257
0.000444706
0.00037421
0.000620691
0.000410518
0.000658865
0.000544148
0.000845227
0.000770622
0.000988634
0.00112239
0.00130088
0.00145623
0.00150885
0.0222682
0.0202521
0.0179152
0.0159181
0.0144817
0.0131073
0.0121574
0.0115533
0.0113038
0.0114488
0.0113827
0.0120213
0.0128755
0.0137086
0.0148088
0.0166871
0.0186889
0.0208909
0.0233596
0.0258133
0.0195501
0.0178192
0.0156233
0.0140157
0.012517
0.0116473
0.0106136
0.0102537
0.00998526
0.00987826
0.0102899
0.0105353
0.0112612
0.0120094
0.0132133
0.0145253
0.0163034
0.0184086
0.0207035
0.022675
0.0168081
0.0152174
0.0134813
0.0123008
0.0107305
0.010024
0.00931147
0.0085357
0.00859492