/*--------------------------------*- C++ -*----------------------------------*\
| =========                 |                                                 |
| \\      /  F ield         | OpenFOAM: The Open Source CFD Toolbox           |
|  \\    /   O peration     | Version:  2212                                  |
|   \\  /    A nd           | Website:  www.openfoam.com                      |
|    \\/     M anipulation  |                                                 |
\*---------------------------------------------------------------------------*/
FoamFile
{
    version     2.0;
    format      ascii;
    arch        "LSB;label=32;scalar=64";
    class       volScalarField;
    location    "0";
    object      stateMean;
}
// * * * * * * * * * * * * * * * * * * * * * * * * * * * * * * * * * * * * * //

dimensions      [0 0 0 1 0 0 0];

internalField   nonuniform List<scalar> 
3200
(
342.418
343.343
344.318
345.093
345.859
346.505
346.989
347.3
347.489
347.648
347.508
347.322
347.024
346.458
345.794
345.058
344.182
343.204
342.261
341.287
336.903
337.623
338.449
339.228
339.838
340.44
340.791
341.105
341.336
341.428
341.335
341.109
340.814
340.374
339.75
339.188
338.406
337.499
336.668
335.831
331.22
331.913
332.551
333.172
333.834
334.217
334.546
334.802
335.081
335.083
334.988
334.857
334.543
334.2
333.788
333.149
332.577
331.854
331.041
330.461
325.597
326.137
326.692
327.203
327.728
328.035
328.316
328.563
328.678
328.746
328.633
328.592
328.379
328.063
327.689
327.164
326.652
326.041
325.51
324.98
320.051
320.338
320.821
321.163
321.525
321.842
322.06
322.224
322.386
322.375
322.344
322.244
322.136
321.835
321.505
321.192
320.73
320.258
319.86
319.444
314.34
314.628
314.837
315.174
315.406
315.629
315.709
315.956
315.962
315.962
315.894
315.903
315.816
315.59
315.402
315.135
314.911
314.512
314.203
313.885
308.637
308.782
308.947
309.157
309.236
309.349
309.521
309.554
309.612
309.581
309.578
309.597
309.463
309.431
309.278
309.034
308.947
308.665
308.531
308.404
302.928
302.946
302.94
303.046
303.077
303.19
303.191
303.214
303.151
303.304
303.209
303.209
303.162
303.185
303.116
303.085
303.038
302.872
302.836
302.762
343.194
344.11
345.098
345.919
346.721
347.449
347.856
348.183
348.483
348.521
348.43
348.225
347.848
347.307
346.672
345.974
345.065
344.072
343
342.034
337.495
338.19
339.127
339.86
340.547
341.089
341.551
341.903
342.03
342.117
342.088
341.813
341.539
341.162
340.584
339.907
339.063
338.241
337.296
336.515
331.778
332.498
333.094
333.865
334.349
334.829
335.13
335.424
335.613
335.652
335.587
335.445
335.173
334.802
334.331
333.733
333.092
332.358
331.659
330.915
326
326.488
327.092
327.671
328.13
328.489
328.882
329.011
329.142
329.192
329.123
329.017
328.8
328.487
328.081
327.672
327.058
326.532
325.813
325.349
320.255
320.738
321.08
321.5
321.916
322.133
322.402
322.572
322.733
322.675
322.592
322.573
322.425
322.182
321.886
321.503
321.036
320.656
320.116
319.687
314.523
314.722
315.129
315.381
315.605
315.858
316.026
316.098
316.24
316.259
316.193
316.136
316.07
315.852
315.661
315.369
315.131
314.758
314.372
314.175
308.719
308.883
309.011
309.271
309.366
309.609
309.623
309.678
309.708
309.735
309.708
309.653
309.711
309.518
309.391
309.209
309.12
308.859
308.598
308.438
302.946
302.962
303.097
303.099
303.184
303.25
303.18
303.255
303.358
303.282
303.316
303.248
303.242
303.23
303.105
303.12
303.045
303.06
302.924
302.863
344.194
345.163
346.075
347.029
347.861
348.488
349.056
349.424
349.583
349.655
349.618
349.391
349.071
348.523
347.877
347.089
346.127
345.093
344.032
343.036
338.418
339.2
340.011
340.774
341.466
342.079
342.478
342.8
343.033
343.053
342.923
342.798
342.507
342.119
341.419
340.76
340.038
339.104
338.218
337.36
332.495
333.132
333.896
334.574
335.076
335.634
335.907
336.272
336.439
336.514
336.379
336.259
336.028
335.583
335.096
334.593
333.837
333.125
332.28
331.627
326.62
327.142
327.663
328.271
328.803
329.232
329.458
329.619
329.81
329.869
329.846
329.633
329.503
329.13
328.717
328.305
327.702
327.07
326.492
325.969
320.712
321.117
321.545
322.005
322.409
322.736
322.879
323.071
323.181
323.215
323.248
323.047
322.897
322.656
322.375
321.993
321.607
321.192
320.592
320.182
314.826
315.14
315.475
315.714
316.003
316.266
316.313
316.516
316.589
316.628
316.596
316.461
316.315
316.201
316.058
315.78
315.46
315.022
314.694
314.404
308.884
309.125
309.317
309.45
309.563
309.718
309.913
309.911
309.979
309.942
309.936
309.881
309.843
309.709
309.665
309.431
309.294
309.03
308.736
308.693
302.981
303.079
303.1
303.167
303.219
303.242
303.298
303.316
303.291
303.326
303.283
303.337
303.324
303.221
303.172
303.108
303.1
302.98
302.998
302.839
345.317
346.27
347.271
348.236
349.017
349.691
350.235
350.591
350.812
350.948
350.752
350.613
350.229
349.686
349.026
348.172
347.338
346.272
345.115
344.126
339.3
340.081
340.981
341.827
342.556
343.123
343.534
343.875
344.097
344.12
344.082
343.879
343.55
343.042
342.518
341.799
340.984
340.031
339.119
338.273
333.358
333.935
334.678
335.383
336.013
336.458
336.856
337.175
337.312
337.366
337.238
337.129
336.837
336.472
336.003
335.377
334.691
333.912
333.118
332.426
327.276
327.805
328.46
328.905
329.487
329.923
330.173
330.465
330.517
330.531
330.564
330.406
330.173
329.811
329.453
329.012
328.383
327.76
327.103
326.583
321.242
321.632
322.085
322.562
322.979
323.172
323.46
323.656
323.752
323.728
323.715
323.605
323.458
323.179
323.003
322.499
322.049
321.628
321.127
320.694
315.183
315.393
315.776
316.108
316.378
316.608
316.809
316.919
316.91
316.957
316.947
316.883
316.773
316.628
316.435
316.09
315.761
315.42
315.025
314.663
309.158
309.297
309.441
309.694
309.836
309.964
310.089
310.144
310.212
310.259
310.202
310.197
310.093
310.002
309.808
309.69
309.504
309.298
309.074
308.927
303.035
303.138
303.172
303.335
303.225
303.333
303.37
303.379
303.385
303.414
303.392
303.347
303.393
303.354
303.3
303.256
303.25
303.058
303.04
302.968
346.445
347.327
348.419
349.393
350.204
350.898
351.461
351.891
352.134
352.165
352.062
351.793
351.465
350.94
350.213
349.366
348.393
347.376
346.149
345.175
340.292
341.112
342.014
342.861
343.49
344.067
344.583
344.953
345.16
345.273
345.103
344.932
344.638
344.08
343.527
342.815
341.958
341.025
340.052
339.234
334.05
334.736
335.628
336.298
336.793
337.408
337.739
338.028
338.209
338.222
338.175
338.052
337.762
337.353
336.835
336.234
335.479
334.744
333.898
333.184
327.884
328.353
329.031
329.618
330.147
330.611
330.866
331.123
331.285
331.307
331.36
331.138
330.949
330.536
330.076
329.639
329.103
328.458
327.72
327.173
321.815
322.133
322.648
323.093
323.55
323.764
324.129
324.23
324.324
324.366
324.347
324.231
324.025
323.752
323.508
323.071
322.606
322.136
321.628
321.126
315.487
315.859
316.151
316.489
316.673
316.927
317.214
317.355
317.384
317.436
317.451
317.293
317.162
317.078
316.725
316.439
316.152
315.841
315.436
315.119
309.373
309.551
309.674
309.912
310.118
310.218
310.306
310.427
310.508
310.486
310.449
310.385
310.358
310.134
310.1
309.904
309.784
309.539
309.331
309.108
303.087
303.212
303.233
303.346
303.331
303.475
303.431
303.506
303.509
303.501
303.552
303.493
303.499
303.426
303.362
303.386
303.247
303.204
303.141
303.103
347.377
348.455
349.464
350.475
351.422
352.128
352.627
353.05
353.238
353.351
353.216
353.024
352.586
352.029
351.328
350.562
349.526
348.437
347.28
346.161
341.194
341.988
342.884
343.778
344.509
345.107
345.579
345.971
346.244
346.252
346.162
346.022
345.586
345.122
344.551
343.8
342.954
342.005
340.98
340.104
334.889
335.504
336.309
337.03
337.679
338.235
338.638
338.927
339.071
339.169
338.995
338.931
338.573
338.244
337.713
337.08
336.297
335.541
334.684
333.872
328.548
329.136
329.719
330.28
330.887
331.322
331.555
331.871
331.927
331.998
331.935
331.789
331.515
331.259
330.834
330.258
329.738
329.137
328.355
327.835
322.155
322.607
323.162
323.591
323.95
324.306
324.59
324.78
324.961
324.934
324.903
324.782
324.577
324.294
324.02
323.614
323.182
322.583
322.052
321.608
315.91
316.185
316.567
316.843
317.102
317.361
317.499
317.692
317.749
317.866
317.775
317.738
317.546
317.404
317.138
316.891
316.543
316.199
315.841
315.511
309.551
309.689
309.983
310.146
310.279
310.471
310.601
310.624
310.69
310.78
310.619
310.61
310.542
310.463
310.283
310.149
309.885
309.696
309.49
309.322
303.209
303.34
303.36
303.379
303.463
303.515
303.514
303.603
303.544
303.541
303.591
303.654
303.507
303.442
303.437
303.391
303.315
303.285
303.231
303.113
348.367
349.37
350.523
351.611
352.454
353.143
353.716
354.112
354.374
354.418
354.299
354.11
353.761
353.169
352.451
351.605
350.576
349.467
348.205
347.207
341.984
342.852
343.737
344.65
345.461
346.096
346.586
346.978
347.151
347.205
347.139
346.968
346.558
346.132
345.457
344.682
343.908
342.847
341.829
340.915
335.594
336.355
337.062
337.817
338.434
338.974
339.39
339.671
339.843
339.985
339.995
339.664
339.347
339.079
338.477
337.911
337.118
336.266
335.386
334.671
329.117
329.675
330.365
330.922
331.462
331.937
332.196
332.492
332.606
332.709
332.628
332.474
332.224
331.875
331.509
330.908
330.332
329.722
328.968
328.374
322.693
323.133
323.597
324.026
324.488
324.864
325.086
325.351
325.372
325.386
325.375
325.344
325.093
324.765
324.474
324.165
323.595
323.068
322.541
322.035
316.253
316.539
316.845
317.202
317.498
317.778
317.948
318.058
318.134
318.202
318.096
318.001
317.925
317.82
317.466
317.249
316.879
316.448
316.105
315.78
309.674
309.981
310.076
310.312
310.501
310.717
310.831
310.891
310.839
310.946
310.925
310.92
310.736
310.687
310.454
310.364
310.113
309.927
309.696
309.499
303.284
303.354
303.486
303.489
303.506
303.598
303.637
303.638
303.676
303.731
303.62
303.657
303.648
303.507
303.539
303.514
303.385
303.338
303.25
303.2
349.368
350.456
351.512
352.534
353.483
354.135
354.793
355.126
355.489
355.518
355.408
355.219
354.829
354.21
353.527
352.52
351.538
350.451
349.218
348.067
342.861
343.72
344.655
345.527
346.31
346.977
347.54
347.806
348.051
348.112
348.107
347.921
347.467
346.989
346.322
345.545
344.682
343.746
342.664
341.731
336.244
336.975
337.796
338.575
339.199
339.763
340.229
340.46
340.698
340.772
340.722
340.493
340.202
339.752
339.211
338.581
337.749
337.056
336.124
335.404
329.687
330.285
330.903
331.551
332.112
332.564
332.916
333.084
333.3
333.345
333.285
333.123
332.858
332.517
332.091
331.552
331.034
330.28
329.526
329.013
323.15
323.53
324.002
324.563
324.981
325.273
325.602
325.768
325.924
325.945
325.94
325.835
325.626
325.384
324.992
324.581
324.107
323.554
322.971
322.43
316.523
316.823
317.136
317.574
317.852
318.038
318.298
318.352
318.488
318.489
318.543
318.413
318.298
318.069
317.856
317.496
317.208
316.827
316.446
316.087
309.904
310.138
310.349
310.519
310.713
310.819
311.029
311.08
311.148
311.169
311.149
311.051
310.916
310.887
310.748
310.523
310.306
310.12
309.873
309.681
303.332
303.362
303.433
303.567
303.593
303.67
303.692
303.769
303.732
303.723
303.717
303.686
303.693
303.665
303.558
303.559
303.491
303.434
303.289
303.221
350.189
351.279
352.461
353.451
354.356
355.153
355.756
356.17
356.414
356.445
356.442
356.16
355.73
355.208
354.451
353.547
352.463
351.284
350.064
348.939
343.604
344.454
345.425
346.326
347.181
347.798
348.254
348.679
348.844
349.044
348.895
348.745
348.336
347.808
347.214
346.463
345.517
344.43
343.457
342.495
336.88
337.654
338.391
339.227
339.846
340.422
340.89
341.173
341.359
341.455
341.416
341.182
340.85
340.478
339.898
339.289
338.51
337.57
336.71
335.936
330.204
330.746
331.451
332.13
332.633
333.173
333.437
333.747
333.877
333.886
333.91
333.745
333.466
333.103
332.747
332.114
331.571
330.799
330.049
329.471
323.504
323.929
324.502
324.997
325.41
325.736
326.055
326.327
326.399
326.415
326.346
326.247
326.042
325.765
325.372
324.997
324.479
323.952
323.405
322.888
316.845
317.1
317.468
317.861
318.187
318.395
318.598
318.707
318.82
318.867
318.925
318.72
318.567
318.422
318.161
317.894
317.516
317.145
316.661
316.337
310.084
310.3
310.459
310.643
310.884
311.133
311.141
311.338
311.341
311.275
311.351
311.282
311.186
311.024
310.947
310.763
310.48
310.254
310.024
309.864
303.343
303.427
303.549
303.612
303.6
303.701
303.776
303.713
303.785
303.816
303.801
303.82
303.738
303.724
303.659
303.611
303.524
303.437
303.38
303.309
350.99
352.09
353.22
354.234
355.211
356.019
356.642
357.06
357.37
357.454
357.29
357.102
356.627
356.018
355.293
354.404
353.269
352.151
350.83
349.716
344.219
345.159
346.256
347.061
347.957
348.466
349.111
349.526
349.707
349.709
349.683
349.47
349.149
348.635
347.937
347.154
346.2
345.263
344.154
343.107
337.476
338.178
339.05
339.858
340.514
341.063
341.544
341.833
342.067
342.114
342.086
341.839
341.601
341.172
340.523
339.917
339.101
338.294
337.373
336.503
330.683
331.254
332.013
332.557
333.171
333.719
333.985
334.244
334.405
334.482
334.416
334.267
333.956
333.632
333.155
332.571
332.021
331.302
330.557
329.974
323.829
324.34
324.849
325.342
325.762
326.215
326.426
326.643
326.783
326.77
326.773
326.63
326.417
326.195
325.787
325.373
324.872
324.345
323.754
323.259
317.047
317.408
317.785
318.174
318.499
318.71
318.841
319.052
319.135
319.182
319.147
319.07
318.884
318.699
318.488
318.15
317.86
317.415
317.013
316.594
310.273
310.41
310.638
310.856
311.155
311.233
311.337
311.384
311.511
311.471
311.512
311.479
311.337
311.243
311.087
310.898
310.675
310.436
310.192
310.002
303.457
303.461
303.513
303.617
303.711
303.772
303.795
303.875
303.87
303.873
303.777
303.84
303.861
303.76
303.747
303.621
303.613
303.464
303.467
303.425
351.654
352.782
353.973
355.102
355.941
356.822
357.435
357.875
358.204
358.19
358.114
357.905
357.479
356.864
356.054
355.153
354.106
352.887
351.555
350.401
344.843
345.692
346.816
347.81
348.507
349.312
349.825
350.145
350.338
350.424
350.396
350.166
349.791
349.33
348.584
347.847
346.891
345.837
344.668
343.765
338.023
338.748
339.551
340.403
341.083
341.693
342.099
342.445
342.655
342.712
342.728
342.502
342.17
341.763
341.12
340.42
339.623
338.871
337.826
337.109
331.097
331.785
332.372
333.066
333.576
334.142
334.512
334.719
334.838
334.945
334.882
334.763
334.558
334.09
333.604
333.175
332.423
331.687
330.983
330.36
324.218
324.678
325.202
325.756
326.121
326.598
326.872
327.048
327.1
327.223
327.209
327.088
326.824
326.547
326.191
325.778
325.32
324.698
324.072
323.64
317.281
317.621
318.007
318.358
318.73
318.938
319.216
319.36
319.428
319.437
319.44
319.309
319.188
318.947
318.673
318.409
318.063
317.659
317.267
316.895
310.306
310.54
310.735
310.972
311.248
311.356
311.493
311.577
311.664
311.59
311.685
311.594
311.455
311.406
311.282
310.998
310.832
310.66
310.356
310.155
303.473
303.542
303.578
303.668
303.776
303.78
303.904
303.901
303.85
303.957
303.929
303.887
303.858
303.798
303.828
303.782
303.702
303.617
303.433
303.36
352.284
353.413
354.62
355.781
356.65
357.517
358.135
358.645
358.898
358.944
358.862
358.638
358.157
357.537
356.746
355.796
354.746
353.532
352.265
351.038
345.369
346.255
347.347
348.342
349.162
349.888
350.406
350.816
351.015
351.123
351.015
350.84
350.437
349.985
349.306
348.44
347.505
346.4
345.297
344.263
338.385
339.139
340.139
340.914
341.61
342.183
342.654
342.983
343.23
343.217
343.228
342.963
342.63
342.215
341.574
340.967
340.182
339.288
338.292
337.543
331.415
332.071
332.832
333.46
334.052
334.504
334.859
335.213
335.28
335.404
335.359
335.228
334.927
334.601
334.103
333.462
332.892
332.133
331.38
330.764
324.47
324.976
325.513
325.991
326.528
326.9
327.093
327.369
327.508
327.508
327.545
327.364
327.166
326.931
326.517
326.028
325.596
324.97
324.361
323.836
317.527
317.841
318.238
318.494
318.927
319.219
319.444
319.512
319.681
319.701
319.652
319.584
319.427
319.207
318.928
318.635
318.3
317.872
317.488
317.055
310.553
310.65
310.938
311.156
311.396
311.544
311.672
311.789
311.812
311.739
311.817
311.702
311.659
311.543
311.326
311.186
311.011
310.802
310.474
310.261
303.576
303.561
303.654
303.718
303.831
303.849
303.892
303.918
303.94
303.952
303.981
303.927
303.895
303.827
303.836
303.729
303.697
303.627
303.526
303.426
352.881
354.017
355.182
356.268
357.338
358.114
358.722
359.194
359.552
359.616
359.568
359.285
358.761
358.181
357.384
356.517
355.347
354.2
352.828
351.531
345.855
346.794
347.851
348.823
349.628
350.394
350.952
351.375
351.615
351.671
351.56
351.401
350.997
350.428
349.691
348.822
347.96
346.927
345.808
344.815
338.867
339.607
340.538
341.315
342.082
342.624
343.085
343.437
343.614
343.713
343.617
343.402
343.201
342.758
342.033
341.409
340.615
339.686
338.678
337.867
331.773
332.38
333.103
333.834
334.395
334.912
335.286
335.556
335.764
335.798
335.78
335.503
335.34
334.924
334.444
333.905
333.238
332.526
331.715
331.085
324.805
325.216
325.797
326.257
326.772
327.144
327.476
327.653
327.852
327.788
327.734
327.659
327.409
327.243
326.843
326.375
325.793
325.272
324.652
324.162
317.626
318.056
318.418
318.733
319.103
319.477
319.597
319.864
319.8
319.843
319.894
319.846
319.62
319.398
319.188
318.875
318.511
318.059
317.618
317.243
310.656
310.81
311.085
311.262
311.432
311.583
311.757
311.902
311.942
311.93
311.94
311.818
311.782
311.643
311.459
311.307
311.115
310.92
310.635
310.347
303.583
303.589
303.699
303.844
303.777
303.862
303.859
303.978
304.011
303.985
304.033
304.026
303.926
303.935
303.812
303.83
303.75
303.698
303.533
303.404
353.338
354.39
355.702
356.798
357.831
358.654
359.31
359.694
360.06
360.155
360.023
359.794
359.38
358.681
357.9
357.033
355.831
354.618
353.248
352.078
346.246
347.214
348.288
349.252
350.081
350.844
351.321
351.732
352.096
352.142
352.037
351.832
351.463
350.888
350.265
349.39
348.402
347.338
346.206
345.185
339.17
339.966
340.79
341.641
342.395
343.046
343.492
343.867
344.01
344.103
344.036
343.81
343.491
342.995
342.526
341.768
340.979
340.061
339.029
338.298
332.101
332.751
333.364
334.164
334.712
335.229
335.552
335.83
336.014
336.071
336.07
335.87
335.688
335.223
334.849
334.191
333.535
332.799
331.948
331.289
324.979
325.439
326.012
326.55
327.057
327.405
327.67
327.871
328.031
328.05
328.09
327.951
327.754
327.374
327.019
326.566
326.089
325.436
324.915
324.336
317.872
318.177
318.611
318.983
319.327
319.553
319.804
319.964
319.999
320.074
320.029
319.953
319.8
319.613
319.322
319.05
318.644
318.248
317.782
317.446
310.706
310.957
311.192
311.422
311.571
311.733
311.875
312.039
312.052
312.049
312.034
311.947
311.909
311.77
311.58
311.433
311.199
310.897
310.669
310.546
303.601
303.683
303.717
303.876
303.96
303.986
303.968
304
304.097
304.037
303.99
303.975
303.976
303.901
303.835
303.839
303.814
303.675
303.52
303.47
353.755
354.828
356.022
357.218
358.225
359.085
359.705
360.216
360.465
360.514
360.468
360.259
359.702
359.104
358.396
357.425
356.227
354.972
353.671
352.438
346.564
347.496
348.63
349.632
350.474
351.148
351.692
352.115
352.413
352.505
352.421
352.216
351.752
351.247
350.596
349.75
348.714
347.711
346.449
345.526
339.455
340.278
341.152
341.922
342.733
343.383
343.803
344.14
344.335
344.413
344.359
344.176
343.811
343.283
342.805
342.131
341.245
340.313
339.365
338.524
332.355
332.912
333.669
334.375
334.985
335.442
335.858
336.065
336.375
336.356
336.305
336.115
335.8
335.498
335.09
334.372
333.776
332.992
332.219
331.618
325.159
325.654
326.185
326.698
327.159
327.623
327.862
328.048
328.283
328.247
328.261
328.143
327.859
327.568
327.201
326.785
326.287
325.687
325.016
324.571
317.96
318.289
318.715
319.155
319.407
319.659
319.943
320.094
320.179
320.228
320.228
320.094
319.967
319.775
319.425
319.197
318.782
318.326
317.916
317.536
310.784
311.016
311.281
311.463
311.679
311.842
311.952
312.102
312.104
312.169
312.108
312.061
312.011
311.832
311.733
311.479
311.276
310.997
310.758
310.509
303.607
303.681
303.753
303.875
303.824
303.935
304.015
304.054
304.098
303.995
304.088
304.038
304.037
304.034
303.99
303.834
303.742
303.712
303.637
303.496
354.057
355.103
356.392
357.484
358.562
359.39
360.107
360.427
360.847
360.882
360.793
360.621
360.04
359.453
358.635
357.733
356.566
355.201
353.908
352.7
346.877
347.753
348.848
349.931
350.729
351.442
352.071
352.407
352.684
352.83
352.714
352.483
352.154
351.551
350.898
350.038
348.956
347.929
346.759
345.793
339.631
340.489
341.331
342.176
342.947
343.548
344.066
344.382
344.636
344.652
344.588
344.364
344.064
343.569
343.022
342.301
341.439
340.537
339.544
338.699
332.501
333.108
333.822
334.522
335.148
335.632
336.041
336.28
336.428
336.59
336.501
336.309
335.997
335.676
335.236
334.638
334.003
333.225
332.349
331.736
325.231
325.761
326.317
326.859
327.349
327.772
328.054
328.253
328.414
328.485
328.476
328.272
328.019
327.771
327.356
326.937
326.403
325.813
325.203
324.657
317.99
318.444
318.856
319.17
319.537
319.868
320.026
320.13
320.293
320.362
320.275
320.21
320.114
319.815
319.588
319.218
318.885
318.456
318.024
317.689
310.86
311.022
311.343
311.485
311.676
311.847
312.023
312.116
312.167
312.277
312.152
312.085
312.022
311.945
311.795
311.564
311.34
311.056
310.814
310.525
303.702
303.662
303.801
303.919
303.877
303.935
303.964
304.093
304.129
304.061
304.125
304.043
304.062
303.95
303.948
303.851
303.779
303.691
303.612
303.572
354.198
355.286
356.566
357.734
358.683
359.575
360.263
360.756
361.039
361.084
361.108
360.777
360.274
359.698
358.955
357.881
356.727
355.486
354.159
352.914
347.022
347.938
349.09
350.045
350.948
351.598
352.262
352.628
352.89
353.013
352.866
352.694
352.269
351.765
351.04
350.234
349.233
348.103
346.916
345.916
339.82
340.622
341.538
342.272
343.131
343.666
344.164
344.636
344.756
344.88
344.769
344.629
344.214
343.809
343.183
342.453
341.625
340.707
339.722
338.943
332.599
333.155
333.959
334.6
335.25
335.798
336.248
336.46
336.682
336.702
336.692
336.436
336.225
335.902
335.368
334.755
334.111
333.3
332.457
331.83
325.363
325.889
326.531
326.965
327.523
327.808
328.141
328.332
328.513
328.594
328.472
328.336
328.19
327.858
327.46
327.023
326.547
325.947
325.257
324.755
318.137
318.48
318.901
319.296
319.589
319.916
320.107
320.173
320.405
320.313
320.358
320.294
320.083
319.883
319.661
319.338
318.954
318.503
318.145
317.72
310.916
311.165
311.33
311.494
311.815
311.933
312.102
312.162
312.247
312.289
312.239
312.16
312.112
311.951
311.805
311.635
311.429
311.129
310.834
310.675
303.632
303.683
303.747
303.943
303.997
303.966
304.083
304.073
304.077
304.112
304.135
304.092
304.084
303.976
303.947
303.944
303.778
303.729
303.64
303.502
354.281
355.416
356.695
357.855
358.863
359.713
360.398
360.836
361.202
361.271
361.203
360.909
360.453
359.795
359.049
358.069
356.903
355.603
354.238
353.033
347.113
348.064
349.141
350.23
351.006
351.812
352.322
352.769
353.018
353.114
353.059
352.822
352.367
351.861
351.129
350.239
349.336
348.236
347.021
346.002
339.905
340.701
341.556
342.454
343.22
343.806
344.307
344.672
344.819
344.963
344.926
344.667
344.38
343.897
343.344
342.501
341.812
340.803
339.884
338.971
332.677
333.207
334.036
334.774
335.326
335.874
336.264
336.508
336.7
336.813
336.703
336.552
336.248
335.868
335.434
334.814
334.152
333.334
332.577
331.897
325.417
325.878
326.437
327.135
327.481
327.907
328.144
328.44
328.513
328.636
328.541
328.425
328.159
327.942
327.618
327.047
326.584
325.956
325.376
324.779
318.136
318.537
318.919
319.259
319.648
319.936
320.118
320.304
320.38
320.438
320.498
320.294
320.173
319.932
319.692
319.383
319.012
318.603
318.138
317.797
310.902
311.156
311.39
311.595
311.823
312.028
312.065
312.168
312.263
312.292
312.253
312.242
312.154
311.963
311.849
311.632
311.36
311.194
310.885
310.69
303.618
303.824
303.791
303.874
303.997
304.012
304.002
304.082
304.069
304.145
304.155
304.049
304.077
304.075
303.959
303.951
303.784
303.772
303.644
303.571
354.246
355.473
356.737
357.927
358.928
359.75
360.451
360.88
361.208
361.307
361.208
360.981
360.506
359.876
359.087
358.073
357.051
355.639
354.313
353.052
347.107
348.051
349.212
350.167
351.104
351.826
352.327
352.832
353.072
353.072
353.139
352.882
352.428
351.836
351.2
350.36
349.367
348.237
347.094
346.05
339.853
340.689
341.651
342.54
343.205
343.881
344.337
344.709
344.919
344.977
344.979
344.692
344.335
343.948
343.319
342.668
341.747
340.937
339.82
338.969
332.637
333.325
334.057
334.688
335.369
335.895
336.245
336.571
336.78
336.8
336.777
336.63
336.376
335.947
335.545
334.84
334.137
333.45
332.526
331.916
325.436
325.934
326.515
326.99
327.514
327.899
328.148
328.467
328.615
328.681
328.608
328.437
328.238
327.984
327.58
327.189
326.621
326.032
325.359
324.891
318.258
318.526
318.921
319.325
319.667
319.924
320.133
320.241
320.404
320.439
320.456
320.408
320.213
320.019
319.7
319.384
319.074
318.52
318.128
317.79
310.9
311.098
311.42
311.571
311.799
312.004
312.184
312.214
312.267
312.256
312.284
312.193
312.193
311.968
311.876
311.679
311.365
311.137
310.879
310.673
303.651
303.749
303.876
303.884
303.965
303.979
304.004
304.099
304.077
304.087
304.164
304.064
304.101
304.058
304.007
303.883
303.81
303.79
303.683
303.58
354.169
355.434
356.642
357.913
358.87
359.738
360.422
360.939
361.242
361.217
361.214
360.957
360.478
359.823
359.044
358.097
356.914
355.652
354.294
353.007
346.996
348.042
349.206
350.18
350.992
351.702
352.373
352.764
353.002
353.14
353.087
352.837
352.408
351.846
351.165
350.273
349.337
348.277
347.108
346.041
339.814
340.674
341.542
342.486
343.234
343.778
344.279
344.705
344.972
344.952
344.92
344.665
344.397
343.945
343.313
342.652
341.769
340.875
339.849
338.995
332.613
333.288
334.024
334.695
335.331
335.814
336.287
336.548
336.732
336.808
336.811
336.604
336.269
335.96
335.404
334.843
334.224
333.445
332.62
331.953
325.378
325.862
326.517
327.008
327.417
327.936
328.211
328.467
328.607
328.605
328.627
328.411
328.269
327.948
327.564
327.103
326.645
325.989
325.361
324.893
318.139
318.513
319.038
319.356
319.664
319.916
320.147
320.3
320.349
320.355
320.459
320.28
320.171
319.974
319.736
319.411
319.023
318.564
318.113
317.772
310.859
311.177
311.386
311.512
311.782
311.989
312.143
312.197
312.32
312.291
312.329
312.219
312.158
311.97
311.863
311.708
311.414
311.181
310.874
310.635
303.676
303.712
303.822
303.922
303.96
304.005
304.059
304.049
304.136
304.11
304.128
304.133
304.058
304.079
303.996
303.894
303.925
303.758
303.643
303.571
)
;

boundaryField
{
    hotSide
    {
        type            fixedGradient;
        gradient        nonuniform List<scalar> 
400
(
321.511
322.87
325.591
329.677
335.133
341.965
350.181
359.788
370.794
383.208
397.037
412.289
428.971
447.088
466.647
487.651
510.105
534.011
559.372
586.191
323.738
325.08
327.767
331.802
337.194
343.949
352.078
361.591
372.498
384.81
398.537
413.687
430.268
448.289
467.755
488.672
511.043
534.872
560.161
586.913
326.149
327.47
330.116
334.091
339.406
346.071
354.099
363.503
374.296
386.491
400.101
415.136
431.606
449.52
468.885
489.706
511.988
535.735
560.948
587.63
328.704
330
332.597
336.503
341.73
348.292
356.205
365.485
376.15
388.215
401.695
416.604
432.954
450.753
470.009
490.73
512.919
536.579
561.714
588.325
331.33
332.599
335.142
338.97
344.099
350.546
358.332
367.477
378.003
389.928
403.271
418.047
434.27
451.949
471.095
491.712
513.807
537.382
562.439
588.978
333.918
335.158
337.643
341.389
346.414
352.74
360.392
369.397
379.779
391.562
404.765
419.407
435.503
453.065
472.101
492.618
514.622
538.114
563.096
589.569
336.321
337.531
339.959
343.622
348.544
354.751
362.274
371.142
381.385
393.031
406.101
420.618
436.595
454.047
472.983
493.409
515.33
538.747
563.663
590.076
338.36
339.543
341.92
345.509
350.339
356.44
363.847
372.595
382.718
394.244
407.2
421.608
437.485
454.844
473.695
494.045
515.897
539.253
564.114
590.478
339.852
341.015
343.352
346.885
351.645
357.665
364.985
373.643
383.675
395.113
407.984
422.312
438.116
455.407
474.197
494.491
516.294
539.606
564.428
590.758
340.643
341.795
344.11
347.613
352.334
358.311
365.584
374.193
384.176
395.567
408.393
422.679
438.443
455.699
474.456
494.722
516.498
539.788
564.589
590.901
340.643
341.795
344.11
347.613
352.334
358.311
365.584
374.193
384.176
395.567
408.393
422.679
438.443
455.699
474.456
494.722
516.498
539.788
564.589
590.901
339.852
341.015
343.352
346.885
351.645
357.665
364.985
373.643
383.675
395.113
407.984
422.312
438.116
455.407
474.197
494.491
516.294
539.606
564.428
590.758
338.36
339.543
341.92
345.509
350.339
356.44
363.847
372.595
382.718
394.244
407.2
421.608
437.485
454.844
473.695
494.045
515.897
539.253
564.114
590.478
336.321
337.531
339.959
343.622
348.544
354.751
362.274
371.142
381.385
393.031
406.101
420.618
436.595
454.047
472.983
493.409
515.33
538.747
563.663
590.076
333.918
335.158
337.643
341.389
346.414
352.74
360.392
369.397
379.779
391.562
404.765
419.407
435.503
453.065
472.101
492.618
514.622
538.114
563.096
589.569
331.33
332.599
335.142
338.97
344.099
350.546
358.332
367.477
378.003
389.928
403.271
418.047
434.27
451.949
471.095
491.712
513.807
537.382
562.439
588.978
328.704
330
332.597
336.503
341.73
348.292
356.205
365.485
376.15
388.215
401.695
416.604
432.954
450.753
470.009
490.73
512.919
536.579
561.714
588.325
326.149
327.47
330.116
334.091
339.406
346.071
354.099
363.503
374.296
386.491
400.101
415.136
431.606
449.52
468.885
489.706
511.988
535.735
560.948
587.63
323.738
325.08
327.767
331.802
337.194
343.949
352.078
361.591
372.498
384.81
398.537
413.687
430.268
448.289
467.755
488.672
511.043
534.872
560.161
586.913
321.511
322.87
325.591
329.677
335.133
341.965
350.181
359.788
370.794
383.208
397.037
412.289
428.971
447.088
466.647
487.651
510.105
534.011
559.372
586.191
)
;
    }
    coldSide
    {
        type            mixed;
        refValue        uniform 300;
        refGradient     uniform 0;
        valueFraction   uniform 0.991591;
        source          uniform 0;
        value           nonuniform List<scalar> 
400
(
300.025
300.025
300.025
300.026
300.026
300.027
300.028
300.028
300.028
300.029
300.029
300.03
300.03
300.03
300.03
300.031
300.031
300.03
300.031
300.031
300.025
300.025
300.026
300.026
300.027
300.028
300.028
300.028
300.029
300.029
300.03
300.03
300.03
300.031
300.031
300.031
300.031
300.032
300.032
300.031