/*--------------------------------*- C++ -*----------------------------------*\
| =========                 |                                                 |
| \\      /  F ield         | OpenFOAM: The Open Source CFD Toolbox           |
|  \\    /   O peration     | Version:  2212                                  |
|   \\  /    A nd           | Website:  www.openfoam.com                      |
|    \\/     M anipulation  |                                                 |
\*---------------------------------------------------------------------------*/
FoamFile
{
    version     2.0;
    format      ascii;
    arch        "LSB;label=32;scalar=64";
    class       volScalarField;
    location    "./ITHACAoutput/true/3.6";
    object      trueState;
}
// * * * * * * * * * * * * * * * * * * * * * * * * * * * * * * * * * * * * * //

dimensions      [0 0 0 1 0 0 0];

internalField   nonuniform List<scalar> 
3200
(
344.258
345.131
346.246
347.46
348.711
349.939
351.072
352.028
352.725
353.094
353.094
352.725
352.028
351.072
349.939
348.711
347.46
346.246
345.131
344.258
338.379
339.118
340.079
341.13
342.212
343.274
344.254
345.08
345.682
346
346
345.682
345.08
344.254
343.274
342.212
341.13
340.079
339.118
338.379
332.492
333.104
333.914
334.802
335.717
336.614
337.441
338.139
338.646
338.915
338.915
338.646
338.139
337.441
336.614
335.717
334.802
333.914
333.104
332.492
326.597
327.091
327.751
328.476
329.224
329.957
330.633
331.202
331.617
331.836
331.836
331.617
331.202
330.633
329.957
329.224
328.476
327.751
327.091
326.597
320.698
321.077
321.589
322.152
322.734
323.303
323.828
324.271
324.592
324.762
324.762
324.592
324.271
323.828
323.303
322.734
322.152
321.589
321.077
320.698
314.794
315.062
315.427
315.83
316.245
316.652
317.026
317.342
317.572
317.693
317.693
317.572
317.342
317.026
316.652
316.245
315.83
315.427
315.062
314.794
308.888
309.048
309.267
309.508
309.757
310.002
310.227
310.416
310.554
310.626
310.626
310.554
310.416
310.227
310.002
309.757
309.508
309.267
309.048
308.888
302.979
303.033
303.106
303.187
303.271
303.353
303.428
303.491
303.538
303.562
303.562
303.538
303.491
303.428
303.353
303.271
303.187
303.106
303.033
302.979
344.378
345.243
346.348
347.551
348.79
350.004
351.124
352.069
352.756
353.12
353.12
352.756
352.069
351.124
350.004
348.79
347.551
346.348
345.243
344.378
338.482
339.215
340.168
341.209
342.28
343.331
344.299
345.115
345.709
346.023
346.023
345.709
345.115
344.299
343.331
342.28
341.209
340.168
339.215
338.482
332.579
333.187
333.989
334.869
335.774
336.662
337.479
338.168
338.67
338.934
338.934
338.67
338.168
337.479
336.662
335.774
334.869
333.989
333.187
332.579
326.668
327.158
327.812
328.531
329.271
329.996
330.664
331.227
331.636
331.852
331.852
331.636
331.227
330.664
329.996
329.271
328.531
327.812
327.158
326.668
320.753
321.129
321.636
322.195
322.77
323.334
323.853
324.29
324.607
324.775
324.775
324.607
324.29
323.853
323.334
322.77
322.195
321.636
321.129
320.753
314.834
315.1
315.461
315.86
316.271
316.674
317.044
317.356
317.582
317.702
317.702
317.582
317.356
317.044
316.674
316.271
315.86
315.461
315.1
314.834
308.911
309.07
309.287
309.527
309.773
310.015
310.237
310.424
310.56
310.632
310.632
310.56
310.424
310.237
310.015
309.773
309.527
309.287
309.07
308.911
302.987
303.04
303.113
303.193
303.276
303.357
303.431
303.494
303.54
303.564
303.564
303.54
303.494
303.431
303.357
303.276
303.193
303.113
303.04
302.987
344.617
345.469
346.556
347.736
348.95
350.138
351.232
352.153
352.824
353.177
353.177
352.824
352.153
351.232
350.138
348.95
347.736
346.556
345.469
344.617
338.689
339.411
340.347
341.369
342.419
343.447
344.393
345.189
345.768
346.074
346.074
345.768
345.189
344.393
343.447
342.419
341.369
340.347
339.411
338.689
332.753
333.352
334.141
335.004
335.892
336.76
337.559
338.231
338.72
338.977
338.977
338.72
338.231
337.559
336.76
335.892
335.004
334.141
333.352
332.753
326.811
327.293
327.936
328.642
329.367
330.077
330.729
331.278
331.677
331.888
331.888
331.677
331.278
330.729
330.077
329.367
328.642
327.936
327.293
326.811
320.864
321.234
321.733
322.281
322.845
323.396
323.903
324.33
324.64
324.803
324.803
324.64
324.33
323.903
323.396
322.845
322.281
321.733
321.234
320.864
314.913
315.175
315.53
315.922
316.324
316.718
317.08
317.385
317.606
317.722
317.722
317.606
317.385
317.08
316.718
316.324
315.922
315.53
315.175
314.913
308.959
309.115
309.328
309.563
309.805
310.042
310.259
310.442
310.574
310.644
310.644
310.574
310.442
310.259
310.042
309.805
309.563
309.328
309.115
308.959
303.003
303.056
303.127
303.206
303.287
303.366
303.439
303.5
303.544
303.568
303.568
303.544
303.5
303.439
303.366
303.287
303.206
303.127
303.056
303.003
344.979
345.811
346.87
348.019
349.196
350.346
351.403
352.291
352.936
353.277
353.277
352.936
352.291
351.403
350.346
349.196
348.019
346.87
345.811
344.979
339.002
339.706
340.62
341.613
342.632
343.627
344.541
345.309
345.867
346.161
346.161
345.867
345.309
344.541
343.627
342.632
341.613
340.62
339.706
339.002
333.017
333.602
334.371
335.211
336.072
336.913
337.685
338.333
338.804
339.052
339.052
338.804
338.333
337.685
336.913
336.072
335.211
334.371
333.602
333.017
327.027
327.497
328.124
328.811
329.515
330.202
330.833
331.362
331.746
331.949
331.949
331.746
331.362
330.833
330.202
329.515
328.811
328.124
327.497
327.027
321.031
321.393
321.879
322.412
322.96
323.494
323.984
324.395
324.693
324.851
324.851
324.693
324.395
323.984
323.494
322.96
322.412
321.879
321.393
321.031
315.032
315.288
315.635
316.016
316.407
316.788
317.138
317.431
317.644
317.756
317.756
317.644
317.431
317.138
316.788
316.407
316.016
315.635
315.288
315.032
309.031
309.183
309.391
309.62
309.855
310.083
310.293
310.47
310.597
310.665
310.665
310.597
310.47
310.293
310.083
309.855
309.62
309.391
309.183
309.031
303.027
303.078
303.148
303.225
303.303
303.38
303.45
303.509
303.552
303.575
303.575
303.552
303.509
303.45
303.38
303.303
303.225
303.148
303.078
303.027
345.466
346.272
347.296
348.404
349.535
350.638
351.648
352.495
353.108
353.432
353.432
353.108
352.495
351.648
350.638
349.535
348.404
347.296
346.272
345.466
339.422
340.105
340.988
341.947
342.926
343.88
344.754
345.486
346.017
346.296
346.296
346.017
345.486
344.754
343.88
342.926
341.947
340.988
340.105
339.422
333.372
333.939
334.683
335.493
336.321
337.127
337.865
338.483
338.931
339.167
339.167
338.931
338.483
337.865
337.127
336.321
335.493
334.683
333.939
333.372
327.317
327.773
328.379
329.041
329.718
330.377
330.98
331.485
331.851
332.043
332.043
331.851
331.485
330.98
330.377
329.718
329.041
328.379
327.773
327.317
321.256
321.607
322.077
322.592
323.118
323.63
324.099
324.491
324.775
324.924
324.924
324.775
324.491
324.099
323.63
323.118
322.592
322.077
321.607
321.256
315.193
315.441
315.776
316.144
316.52
316.885
317.22
317.5
317.703
317.809
317.809
317.703
317.5
317.22
316.885
316.52
316.144
315.776
315.441
315.193
309.127
309.275
309.476
309.697
309.922
310.142
310.343
310.511
310.633
310.697
310.697
310.633
310.511
310.343
310.142
309.922
309.697
309.476
309.275
309.127
303.06
303.109
303.176
303.25
303.326
303.4
303.467
303.523
303.564
303.585
303.585
303.564
303.523
303.467
303.4
303.326
303.25
303.176
303.109
303.06
346.08
346.856
347.839
348.898
349.977
351.023
351.979
352.778
353.355
353.659
353.659
353.355
352.778
351.979
351.023
349.977
348.898
347.839
346.856
346.08
339.953
340.61
341.458
342.375
343.308
344.214
345.041
345.732
346.231
346.494
346.494
346.231
345.732
345.041
344.214
343.308
342.375
341.458
340.61
339.953
333.82
334.366
335.08
335.854
336.644
337.41
338.108
338.692
339.113
339.335
339.335
339.113
338.692
338.108
337.41
336.644
335.854
335.08
334.366
333.82
327.683
328.121
328.704
329.337
329.982
330.608
331.179
331.656
332
332.181
332.181
332
331.656
331.179
330.608
329.982
329.337
328.704
328.121
327.683
321.541
321.878
322.329
322.822
323.323
323.81
324.254
324.624
324.892
325.032
325.032
324.892
324.624
324.254
323.81
323.323
322.822
322.329
321.878
321.541
315.396
315.634
315.956
316.308
316.666
317.014
317.331
317.595
317.786
317.886
317.886
317.786
317.595
317.331
317.014
316.666
316.308
315.956
315.634
315.396
309.249
309.391
309.584
309.795
310.01
310.219
310.409
310.568
310.683
310.743
310.743
310.683
310.568
310.409
310.219
310.01
309.795
309.584
309.391
309.249
303.1
303.148
303.213
303.283
303.356
303.425
303.489
303.542
303.581
303.601
303.601
303.581
303.542
303.489
303.425
303.356
303.283
303.213
303.148
303.1
346.826
347.568
348.504
349.509
350.529
351.514
352.41
353.156
353.695
353.977
353.977
353.695
353.156
352.41
351.514
350.529
349.509
348.504
347.568
346.826
340.598
341.226
342.034
342.904
343.787
344.639
345.415
346.06
346.526
346.77
346.77
346.526
346.06
345.415
344.639
343.787
342.904
342.034
341.226
340.598
334.365
334.886
335.566
336.302
337.048
337.769
338.424
338.97
339.363
339.569
339.569
339.363
338.97
338.424
337.769
337.048
336.302
335.566
334.886
334.365
328.127
328.547
329.101
329.703
330.313
330.902
331.438
331.884
332.205
332.373
332.373
332.205
331.884
331.438
330.902
330.313
329.703
329.101
328.547
328.127
321.886
322.208
322.639
323.106
323.58
324.039
324.455
324.801
325.051
325.182
325.182
325.051
324.801
324.455
324.039
323.58
323.106
322.639
322.208
321.886
315.642
315.87
316.177
316.511
316.85
317.177
317.474
317.722
317.9
317.993
317.993
317.9
317.722
317.474
317.177
316.85
316.511
316.177
315.87
315.642
309.397
309.533
309.717
309.917
310.121
310.317
310.496
310.644
310.751
310.807
310.807
310.751
310.644
310.496
310.317
310.121
309.917
309.717
309.533
309.397
303.15
303.195
303.257
303.324
303.393
303.458
303.518
303.568
303.604
303.623
303.623
303.604
303.568
303.518
303.458
303.393
303.324
303.257
303.195
303.15
347.707
348.412
349.298
350.246
351.202
352.122
352.955
353.646
354.143
354.404
354.404
354.143
353.646
352.955
352.122
351.202
350.246
349.298
348.412
347.707
341.36
341.957
342.721
343.541
344.369
345.166
345.887
346.485
346.915
347.141
347.141
346.915
346.485
345.887
345.166
344.369
343.541
342.721
341.957
341.36
335.008
335.503
336.147
336.84
337.541
338.214
338.824
339.329
339.693
339.883
339.883
339.693
339.329
338.824
338.214
337.541
336.84
336.147
335.503
335.008
328.652
329.051
329.576
330.143
330.716
331.266
331.765
332.178
332.475
332.631
332.631
332.475
332.178
331.765
331.266
330.716
330.143
329.576
329.051
328.652
322.294
322.6
323.008
323.448
323.894
324.322
324.709
325.03
325.261
325.382
325.382
325.261
325.03
324.709
324.322
323.894
323.448
323.008
322.6
322.294
315.934
316.15
316.441
316.755
317.074
317.379
317.656
317.885
318.05
318.137
318.137
318.05
317.885
317.656
317.379
317.074
316.755
316.441
316.15
315.934
309.572
309.701
309.875
310.064
310.255
310.439
310.605
310.743
310.842
310.893
310.893
310.842
310.743
310.605
310.439
310.255
310.064
309.875
309.701
309.572
303.209
303.252
303.31
303.373
303.438
303.499
303.555
303.601
303.634
303.651
303.651
303.634
303.601
303.555
303.499
303.438
303.373
303.31
303.252
303.209
348.728
349.394
350.228
351.115
352.006
352.858
353.627
354.263
354.719
354.957
354.957
354.719
354.263
353.627
352.858
352.006
351.115
350.228
349.394
348.728
342.242
342.806
343.525
344.293
345.065
345.804
346.469
347.02
347.414
347.62
347.62
347.414
347.02
346.469
345.804
345.065
344.293
343.525
342.806
342.242
335.753
336.221
336.827
337.476
338.129
338.754
339.316
339.782
340.115
340.289
340.289
340.115
339.782
339.316
338.754
338.129
337.476
336.827
336.221
335.753
329.261
329.638
330.132
330.663
331.197
331.708
332.168
332.548
332.82
332.963
332.963
332.82
332.548
332.168
331.708
331.197
330.663
330.132
329.638
329.261
322.767
323.056
323.439
323.852
324.267
324.665
325.022
325.318
325.53
325.641
325.641
325.53
325.318
325.022
324.665
324.267
323.852
323.439
323.056
322.767
316.271
316.476
316.749
317.044
317.341
317.624
317.88
318.091
318.242
318.321
318.321
318.242
318.091
317.88
317.624
317.341
317.044
316.749
316.476
316.271
309.774
309.896
310.06
310.237
310.415
310.586
310.739
310.866
310.957
311.004
311.004
310.957
310.866
310.739
310.586
310.415
310.237
310.06
309.896
309.774
303.277
303.317
303.372
303.432
303.491
303.548
303.6
303.642
303.673
303.689
303.689
303.673
303.642
303.6
303.548
303.491
303.432
303.372
303.317
303.277
349.892
350.518
351.298
352.124
352.949
353.735
354.44
355.021
355.436
355.652
355.652
355.436
355.021
354.44
353.735
352.949
352.124
351.298
350.518
349.892
343.249
343.779
344.452
345.167
345.882
346.563
347.173
347.676
348.035
348.223
348.223
348.035
347.676
347.173
346.563
345.882
345.167
344.452
343.779
343.249
336.604
337.043
337.61
338.215
338.819
339.395
339.912
340.337
340.64
340.799
340.799
340.64
340.337
339.912
339.395
338.819
338.215
337.61
337.043
336.604
329.956
330.31
330.772
331.266
331.761
332.232
332.654
333.002
333.25
333.38
333.38
333.25
333.002
332.654
332.232
331.761
331.266
330.772
330.31
329.956
323.307
323.578
323.937
324.321
324.706
325.072
325.401
325.671
325.864
325.965
325.965
325.864
325.671
325.401
325.072
324.706
324.321
323.937
323.578
323.307
316.657
316.849
317.105
317.379
317.654
317.916
318.15
318.343
318.481
318.553
318.553
318.481
318.343
318.15
317.916
317.654
317.379
317.105
316.849
316.657
310.006
310.12
310.274
310.438
310.604
310.761
310.902
311.018
311.1
311.143
311.143
311.1
311.018
310.902
310.761
310.604
310.438
310.274
310.12
310.006
303.354
303.392
303.444
303.499
303.554
303.607
303.654
303.693
303.721
303.735
303.735
303.721
303.693
303.654
303.607
303.554
303.499
303.444
303.392
303.354
351.205
351.79
352.516
353.281
354.041
354.761
355.404
355.932
356.307
356.503
356.503
356.307
355.932
355.404
354.761
354.041
353.281
352.516
351.79
351.205
344.384
344.879
345.506
346.168
346.827
347.451
348.008
348.465
348.79
348.959
348.959
348.79
348.465
348.008
347.451
346.827
346.168
345.506
344.879
344.384
337.562
337.973
338.501
339.061
339.618
340.146
340.617
341.003
341.278
341.422
341.422
341.278
341.003
340.617
340.146
339.618
339.061
338.501
337.973
337.562
330.739
331.07
331.5
331.958
332.414
332.846
333.231
333.547
333.772
333.889
333.889
333.772
333.547
333.231
332.846
332.414
331.958
331.5
331.07
330.739
323.915
324.169
324.503
324.859
325.214
325.55
325.849
326.095
326.27
326.361
326.361
326.27
326.095
325.849
325.55
325.214
324.859
324.503
324.169
323.915
317.091
317.271
317.509
317.763
318.016
318.256
318.471
318.646
318.771
318.836
318.836
318.771
318.646
318.471
318.256
318.016
317.763
317.509
317.271
317.091
310.266
310.373
310.516
310.669
310.821
310.965
311.094
311.199
311.274
311.313
311.313
311.274
311.199
311.094
310.965
310.821
310.669
310.516
310.373
310.266
303.441
303.477
303.525
303.576
303.627
303.676
303.719
303.754
303.779
303.792
303.792
303.779
303.754
303.719
303.676
303.627
303.576
303.525
303.477
303.441
352.668
353.213
353.886
354.592
355.289
355.946
356.529
357.006
357.344
357.52
357.52
357.344
357.006
356.529
355.946
355.289
354.592
353.886
353.213
352.668
345.65
346.111
346.692
347.303
347.907
348.476
348.982
349.395
349.688
349.84
349.84
349.688
349.395
348.982
348.476
347.907
347.303
346.692
346.111
345.65
338.631
339.013
339.503
340.02
340.531
341.012
341.44
341.79
342.038
342.166
342.166
342.038
341.79
341.44
341.012
340.531
340.02
339.503
339.013
338.631
331.612
331.92
332.319
332.742
333.16
333.554
333.904
334.19
334.393
334.498
334.498
334.393
334.19
333.904
333.554
333.16
332.742
332.319
331.92
331.612
324.594
324.83
325.14
325.468
325.794
326.1
326.373
326.595
326.753
326.835
326.835
326.753
326.595
326.373
326.1
325.794
325.468
325.14
324.83
324.594
317.575
317.743
317.963
318.198
318.431
318.65
318.844
319.003
319.116
319.174
319.174
319.116
319.003
318.844
318.65
318.431
318.198
317.963
317.743
317.575
310.557
310.657
310.789
310.93
311.07
311.201
311.318
311.414
311.481
311.517
311.517
311.481
311.414
311.318
311.201
311.07
310.93
310.789
310.657
310.557
303.539
303.572
303.617
303.664
303.711
303.755
303.794
303.826
303.849
303.86
303.86
303.849
303.826
303.794
303.755
303.711
303.664
303.617
303.572
303.539
354.286
354.792
355.413
356.061
356.698
357.295
357.822
358.252
358.556
358.713
358.713
358.556
358.252
357.822
357.295
356.698
356.061
355.413
354.792
354.286
347.048
347.476
348.013
348.574
349.126
349.643
350.101
350.473
350.736
350.873
350.873
350.736
350.473
350.101
349.643
349.126
348.574
348.013
347.476
347.048
339.813
340.167
340.619
341.094
341.561
341.999
342.386
342.701
342.924
343.039
343.039
342.924
342.701
342.386
341.999
341.561
341.094
340.619
340.167
339.813
332.578
332.863
333.232
333.62
334.002
334.361
334.677
334.935
335.117
335.212
335.212
335.117
334.935
334.677
334.361
334.002
333.62
333.232
332.863
332.578
325.344
325.563
325.849
326.151
326.448
326.727
326.974
327.174
327.316
327.389
327.389
327.316
327.174
326.974
326.727
326.448
326.151
325.849
325.563
325.344
318.111
318.266
318.47
318.686
318.898
319.097
319.273
319.417
319.518
319.57
319.57
319.518
319.417
319.273
319.097
318.898
318.686
318.47
318.266
318.111
310.879
310.971
311.093
311.223
311.351
311.47
311.576
311.662
311.723
311.754
311.754
311.723
311.662
311.576
311.47
311.351
311.223
311.093
310.971
310.879
303.647
303.678
303.718
303.762
303.805
303.845
303.88
303.909
303.929
303.94
303.94
303.929
303.909
303.88
303.845
303.805
303.762
303.718
303.678
303.647
356.059
356.527
357.099
357.692
358.272
358.813
359.289
359.674
359.946
360.087
360.087
359.946
359.674
359.289
358.813
358.272
357.692
357.099
356.527
356.059
348.582
348.978
349.471
349.985
350.488
350.957
351.369
351.703
351.939
352.061
352.061
351.939
351.703
351.369
350.957
350.488
349.985
349.471
348.978
348.582
341.108
341.436
341.852
342.287
342.712
343.109
343.458
343.741
343.94
344.043
344.043
343.94
343.741
343.458
343.109
342.712
342.287
341.852
341.436
341.108
333.636
333.9
334.239
334.595
334.943
335.268
335.553
335.785
335.948
336.033
336.033
335.948
335.785
335.553
335.268
334.943
334.595
334.239
333.9
333.636
326.166
326.369
326.632
326.909
327.179
327.432
327.654
327.834
327.961
328.027
328.027
327.961
327.834
327.654
327.432
327.179
326.909
326.632
326.369
326.166
318.698
318.841
319.029
319.227
319.42
319.601
319.76
319.888
319.979
320.026
320.026
319.979
319.888
319.76
319.601
319.42
319.227
319.029
318.841
318.698
311.231
311.316
311.429
311.548
311.664
311.773
311.868
311.945
312
312.028
312.028
312
311.945
311.868
311.773
311.664
311.548
311.429
311.316
311.231
303.765
303.793
303.831
303.871
303.91
303.946
303.978
304.004
304.022
304.032
304.032
304.022
304.004
303.978
303.946
303.91
303.871
303.831
303.793
303.765
357.987
358.419
358.944
359.486
360.012
360.501
360.929
361.274
361.517
361.643
361.643
361.517
361.274
360.929
360.501
360.012
359.486
358.944
358.419
357.987
350.249
350.614
351.067
351.537
351.993
352.417
352.788
353.088
353.298
353.407
353.407
353.298
353.088
352.788
352.417
351.993
351.537
351.067
350.614
350.249
342.515
342.818
343.2
343.597
343.984
344.342
344.656
344.91
345.088
345.18
345.18
345.088
344.91
344.656
344.342
343.984
343.597
343.2
342.818
342.515
334.786
335.029
335.341
335.665
335.982
336.276
336.533
336.74
336.886
336.961
336.961
336.886
336.74
336.533
336.276
335.982
335.665
335.341
335.029
334.786
327.059
327.246
327.488
327.74
327.987
328.215
328.415
328.577
328.69
328.749
328.749
328.69
328.577
328.415
328.215
327.987
327.74
327.488
327.246
327.059
319.336
319.468
319.64
319.821
319.997
320.16
320.303
320.418
320.499
320.541
320.541
320.499
320.418
320.303
320.16
319.997
319.821
319.64
319.468
319.336
311.614
311.693
311.796
311.904
312.01
312.108
312.194
312.263
312.312
312.337
312.337
312.312
312.263
312.194
312.108
312.01
311.904
311.796
311.693
311.614
303.893
303.919
303.954
303.99
304.026
304.059
304.087
304.111
304.127
304.135
304.135
304.127
304.111
304.087
304.059
304.026
303.99
303.954
303.919
303.893
360.063
360.46
360.941
361.435
361.913
362.354
362.738
363.047
363.264
363.376
363.376
363.264
363.047
362.738
362.354
361.913
361.435
360.941
360.46
360.063
352.042
352.378
352.794
353.222
353.636
354.018
354.352
354.62
354.808
354.905
354.905
354.808
354.62
354.352
354.018
353.636
353.222
352.794
352.378
352.042
344.029
344.307
344.657
345.019
345.37
345.694
345.976
346.203
346.362
346.444
346.444
346.362
346.203
345.976
345.694
345.37
345.019
344.657
344.307
344.029
336.021
336.245
336.531
336.827
337.114
337.379
337.61
337.796
337.926
337.993
337.993
337.926
337.796
337.61
337.379
337.114
336.827
336.531
336.245
336.021
328.019
328.191
328.412
328.642
328.866
329.072
329.252
329.397
329.498
329.55
329.55
329.498
329.397
329.252
329.072
328.866
328.642
328.412
328.191
328.019
320.02
320.142
320.3
320.464
320.624
320.771
320.9
321.003
321.076
321.113
321.113
321.076
321.003
320.9
320.771
320.624
320.464
320.3
320.142
320.02
312.024
312.097
312.192
312.291
312.387
312.475
312.552
312.614
312.658
312.68
312.68
312.658
312.614
312.552
312.475
312.387
312.291
312.192
312.097
312.024
304.031
304.055
304.087
304.12
304.152
304.182
304.207
304.228
304.243
304.25
304.25
304.243
304.228
304.207
304.182
304.152
304.12
304.087
304.055
304.031
362.265
362.63
363.071
363.521
363.954
364.351
364.697
364.973
365.167
365.266
365.266
365.167
364.973
364.697
364.351
363.954
363.521
363.071
362.63
362.265
353.942
354.25
354.631
355.021
355.396
355.741
356.041
356.281
356.449
356.535
356.535
356.449
356.281
356.041
355.741
355.396
355.021
354.631
354.25
353.942
345.629
345.885
346.205
346.535
346.853
347.146
347.399
347.603
347.745
347.818
347.818
347.745
347.603
347.399
347.146
346.853
346.535
346.205
345.885
345.629
337.326
337.531
337.793
338.063
338.323
338.563
338.771
338.937
339.053
339.113
339.113
339.053
338.937
338.771
338.563
338.323
338.063
337.793
337.531
337.326
329.03
329.188
329.391
329.601
329.804
329.99
330.152
330.281
330.372
330.419
330.419
330.372
330.281
330.152
329.99
329.804
329.601
329.391
329.188
329.03
320.741
320.853
320.998
321.148
321.293
321.426
321.542
321.634
321.699
321.732
321.732
321.699
321.634
321.542
321.426
321.293
321.148
320.998
320.853
320.741
312.457
312.524
312.61
312.701
312.788
312.868
312.937
312.993
313.032
313.052
313.052
313.032
312.993
312.937
312.868
312.788
312.701
312.61
312.524
312.457
304.175
304.198
304.227
304.257
304.286
304.313
304.336
304.355
304.368
304.375
304.375
304.368
304.355
304.336
304.313
304.286
304.257
304.227
304.198
304.175
364.537
364.873
365.276
365.687
366.08
366.44
366.751
366.999
367.172
367.261
367.261
367.172
366.999
366.751
366.44
366.08
365.687
365.276
364.873
364.537
355.892
356.176
356.525
356.881
357.222
357.534
357.804
358.019
358.17
358.247
358.247
358.17
358.019
357.804
357.534
357.222
356.881
356.525
356.176
355.892
347.265
347.501
347.795
348.096
348.385
348.65
348.879
349.061
349.189
349.254
349.254
349.189
349.061
348.879
348.65
348.385
348.096
347.795
347.501
347.265
338.655
338.844
339.084
339.331
339.568
339.784
339.972
340.121
340.226
340.279
340.279
340.226
340.121
339.972
339.784
339.568
339.331
339.084
338.844
338.655
330.058
330.203
330.39
330.582
330.766
330.935
331.081
331.197
331.279
331.32
331.32
331.279
331.197
331.081
330.935
330.766
330.582
330.39
330.203
330.058
321.472
321.575
321.708
321.845
321.977
322.098
322.202
322.286
322.344
322.374
322.374
322.344
322.286
322.202
322.098
321.977
321.845
321.708
321.575
321.472
312.895
312.956
313.036
313.118
313.197
313.27
313.333
313.383
313.418
313.436
313.436
313.418
313.383
313.333
313.27
313.197
313.118
313.036
312.956
312.895
304.322
304.342
304.369
304.397
304.423
304.448
304.469
304.485
304.497
304.503
304.503
304.497
304.485
304.469
304.448
304.423
304.397
304.369
304.342
304.322
366.732
367.042
367.415
367.792
368.152
368.479
368.762
368.986
369.143
369.223
369.223
369.143
368.986
368.762
368.479
368.152
367.792
367.415
367.042
366.732
357.753
358.016
358.338
358.666
358.978
359.263
359.509
359.704
359.84
359.91
359.91
359.84
359.704
359.509
359.263
358.978
358.666
358.338
358.016
357.753
348.81
349.028
349.3
349.577
349.843
350.084
350.293
350.459
350.574
350.633
350.633
350.574
350.459
350.293
350.084
349.843
349.577
349.3
349.028
348.81
339.898
340.074
340.296
340.523
340.741
340.939
341.11
341.246
341.34
341.389
341.389
341.34
341.246
341.11
340.939
340.741
340.523
340.296
340.074
339.898
331.012
331.147
331.319
331.497
331.666
331.821
331.954
332.06
332.133
332.171
332.171
332.133
332.06
331.954
331.821
331.666
331.497
331.319
331.147
331.012
322.147
322.243
322.366
322.492
322.614
322.724
322.819
322.895
322.948
322.975
322.975
322.948
322.895
322.819
322.724
322.614
322.492
322.366
322.243
322.147
313.297
313.354
313.428
313.504
313.577
313.644
313.701
313.746
313.778
313.794
313.794
313.778
313.746
313.701
313.644
313.577
313.504
313.428
313.354
313.297
304.456
304.475
304.5
304.526
304.55
304.572
304.592
304.607
304.618
304.623
304.623
304.618
304.607
304.592
304.572
304.55
304.526
304.5
304.475
304.456
368.461
368.753
369.103
369.457
369.793
370.099
370.362
370.57
370.715
370.79
370.79
370.715
370.57
370.362
370.099
369.793
369.457
369.103
368.753
368.461
359.164
359.412
359.715
360.023
360.317
360.583
360.813
360.995
361.121
361.186
361.186
361.121
360.995
360.813
360.583
360.317
360.023
359.715
359.412
359.164
349.944
350.15
350.407
350.669
350.919
351.146
351.341
351.496
351.603
351.658
351.658
351.603
351.496
351.341
351.146
350.919
350.669
350.407
350.15
349.944
340.788
340.955
341.165
341.38
341.585
341.771
341.932
342.059
342.147
342.193
342.193
342.147
342.059
341.932
341.771
341.585
341.38
341.165
340.955
340.788
331.682
331.81
331.974
332.141
332.302
332.447
332.572
332.672
332.741
332.776
332.776
332.741
332.672
332.572
332.447
332.302
332.141
331.974
331.81
331.682
322.614
322.705
322.822
322.942
323.057
323.161
323.251
323.322
323.371
323.397
323.397
323.371
323.322
323.251
323.161
323.057
322.942
322.822
322.705
322.614
313.573
313.628
313.698
313.77
313.839
313.902
313.956
313.999
314.028
314.044
314.044
314.028
313.999
313.956
313.902
313.839
313.77
313.698
313.628
313.573
304.548
304.566
304.59
304.614
304.637
304.658
304.676
304.691
304.701
304.706
304.706
304.701
304.691
304.676
304.658
304.637
304.614
304.59
304.566
304.548
)
;

boundaryField
{
    hotSide
    {
        type            fixedGradient;
        gradient        nonuniform List<scalar> 
400
(
469.577
470.888
473.519
477.488
482.821
489.55
497.713
507.349
518.502
531.212
545.521
561.467
579.084
598.404
619.455
642.26
666.84
693.209
721.381
751.366
481.062
482.282
484.734
488.443
493.443
499.777
507.494
516.647
527.289
539.474
553.252
568.671
585.772
604.594
625.169
647.522
671.676
697.647
725.449
755.092
493.492
494.603
496.842
500.242
504.849
510.718
517.913
526.503
536.556
548.14
561.316
576.142
592.669
610.94
630.992
652.854
676.549
702.095
729.505
758.787
506.659
507.644
509.636
512.678
516.83
522.166
528.767
536.72
546.112
557.025
569.536
583.713
599.616
617.294
636.789
658.131
681.346
706.45
733.455
762.368
520.197
521.04
522.755
525.396
529.042
533.786
539.733
546.99
555.664
565.857
577.659
591.151
606.401
623.464
642.385
663.197
685.925
710.586
737.188
765.736
533.541
534.232
535.65
537.864
540.974
545.094
550.355
556.888
564.822
574.277
585.36
598.161
612.759
629.214
647.572
667.868
690.127
714.361
740.58
768.783
545.927
546.465
547.587
549.378
551.956
555.463
560.053
565.882
573.103
581.851
592.25
604.401
618.389
634.279
652.119
671.944
693.775
717.626
743.501
771.397
556.439
556.84
557.696
559.106
561.209
564.169
568.165
573.375
579.97
588.105
597.913
609.507
622.976
638.387
655.791
675.222
696.699
720.233
745.825
773.47
564.132
564.428
565.08
566.199
567.94
570.486
574.033
578.778
584.905
592.583
601.955
613.138
626.226
641.289
658.377
677.524
698.746
722.053
747.443
774.91
568.208
568.447
568.988
569.949
571.494
573.815
577.12
581.613
587.49
594.924
604.062
615.027
627.914
642.793
659.715
678.711
699.8
722.989
748.274
775.648
568.208
568.447
568.988
569.949
571.494
573.815
577.12
581.613
587.49
594.924
604.062
615.027
627.914
642.793
659.715
678.711
699.8
722.989
748.274
775.648
564.132
564.428
565.08
566.199
567.94
570.486
574.033
578.778
584.905
592.583
601.955
613.138
626.226
641.289
658.377
677.524
698.746
722.053
747.443
774.91
556.439
556.84
557.696
559.106
561.209
564.169
568.165
573.375
579.97
588.105
597.913
609.507
622.976
638.387
655.791
675.222
696.699
720.233
745.825
773.47
545.927
546.465
547.587
549.378
551.956
555.463
560.053
565.882
573.103
581.851
592.25
604.401
618.389
634.279
652.119
671.944
693.775
717.626
743.501
771.397
533.541
534.232
535.65
537.864
540.974
545.094
550.355
556.888
564.822
574.277
585.36
598.161
612.759
629.214
647.572
667.868
690.127
714.361
740.58
768.783
520.197
521.04
522.755
525.396
529.042
533.786
539.733
546.99
555.664
565.857
577.659
591.151
606.401
623.464
642.385
663.197
685.925
710.586
737.188
765.736
506.659
507.644
509.636
512.678
516.83
522.166
528.767
536.72
546.112
557.025
569.536
583.713
599.616
617.294
636.789
658.131
681.346
706.45
733.455
762.368
493.492
494.603
496.842
500.242
504.849
510.718
517.913
526.503
536.556
548.14
561.316
576.142
592.669
610.94
630.992
652.854
676.549
702.095
729.505
758.787
481.062
482.282
484.734
488.443
493.443
499.777
507.494
516.647
527.289
539.474
553.252
568.671
585.772
604.594
625.169
647.522
671.676
697.647
725.449
755.092
469.577
470.888
473.519
477.488
482.821
489.55
497.713
507.349
518.502
531.212
545.521
561.467
579.084
598.404
619.455
642.26
666.84
693.209
721.381
751.366
)
;
    }
    coldSide
    {
        type            mixed;
        refValue        uniform 300;
        refGradient     uniform 0;
        valueFraction   uniform 0.991591;
        source          uniform 0;
        value           nonuniform List<scalar> 
400
(
300.025
300.025
300.025
300.025
300.026
300.026
300.026
300.027
300.028
300.028
300.029
300.03
300.031
300.032
300.033
300.034
300.035
300.036
300.037
300.038
300.026
300.026
300.026
300.026
300.026
300.026
300.027
300.027
300.028
300.029
300.029
300.03
300.031
300.032
300.033
300.034
300.035
300.037