/*--------------------------------*- C++ -*----------------------------------*\
| =========                 |                                                 |
| \\      /  F ield         | OpenFOAM: The Open Source CFD Toolbox           |
|  \\    /   O peration     | Version:  2212                                  |
|   \\  /    A nd           | Website:  www.openfoam.com                      |
|    \\/     M anipulation  |                                                 |
\*---------------------------------------------------------------------------*/
FoamFile
{
    version     2.0;
    format      ascii;
    arch        "LSB;label=32;scalar=64";
    class       volScalarField;
    location    "0";
    object      stateMean;
}
// * * * * * * * * * * * * * * * * * * * * * * * * * * * * * * * * * * * * * //

dimensions      [0 0 0 1 0 0 0];

internalField   nonuniform List<scalar> 
3200
(
354.865
353.494
352.311
351.853
352.021
352.611
353.246
353.902
354.366
354.664
354.707
354.291
353.511
352.614
351.543
350.57
349.857
349.833
350.633
351.807
347.504
346.222
345.357
344.964
345.137
345.567
346.164
346.712
347.183
347.393
347.427
346.965
346.398
345.639
344.708
343.866
343.38
343.3
343.845
345.048
340.122
339.096
338.29
338.015
338.146
338.599
339.073
339.526
339.903
340.113
340.132
339.821
339.334
338.708
337.901
337.239
336.737
336.73
337.165
338.035
332.771
331.888
331.369
331.101
331.178
331.524
331.899
332.338
332.638
332.837
332.817
332.658
332.241
331.614
331.038
330.447
330.162
330.087
330.473
331.225
325.422
324.86
324.393
324.223
324.332
324.487
324.812
325.14
325.386
325.576
325.564
325.307
325.128
324.669
324.188
323.712
323.417
323.432
323.776
324.214
318.19
317.77
317.452
317.348
317.245
317.467
317.756
317.998
318.145
318.327
318.256
318.13
317.893
317.578
317.255
317.005
316.754
316.775
317.061
317.343
310.813
310.73
310.39
310.381
310.442
310.525
310.634
310.809
310.915
311.006
310.945
310.894
310.741
310.564
310.403
310.207
310.109
310.111
310.273
310.423
303.634
303.55
303.445
303.479
303.537
303.43
303.572
303.634
303.708
303.611
303.671
303.67
303.631
303.5
303.446
303.478
303.287
303.378
303.473
303.489
354.976
353.624
352.547
352.222
352.358
352.999
353.709
354.373
355.005
355.336
355.345
354.897
354.12
353.134
352.015
351.016
350.305
350.13
350.877
352.119
347.602
346.393
345.525
345.145
345.376
345.768
346.45
347.221
347.667
347.932
347.894
347.642
346.936
346.13
345.106
344.274
343.64
343.539
344.226
345.166
340.138
339.205
338.418
338.214
338.462
338.838
339.387
339.827
340.214
340.524
340.521
340.254
339.723
339.044
338.262
337.497
337.055
337.011
337.394
338.294
332.84
332.047
331.491
331.304
331.331
331.666
332.161
332.584
332.985
333.168
333.215
332.963
332.62
332.042
331.343
330.762
330.335
330.257
330.656
331.37
325.597
325.009
324.46
324.321
324.457
324.732
325.058
325.457
325.655
325.766
325.822
325.688
325.342
324.884
324.423
323.887
323.546
323.574
323.829
324.352
318.235
317.845
317.499
317.36
317.49
317.627
317.872
318.086
318.263
318.406
318.476
318.268
318.102
317.739
317.363
317.075
316.851
316.85
317.061
317.467
310.968
310.716
310.473
310.407
310.579
310.649
310.702
310.873
311.007
310.976
311.029
311.032
310.85
310.716
310.445
310.26
310.178
310.139
310.324
310.56
303.686
303.525
303.532
303.581
303.474
303.549
303.612
303.654
303.757
303.776
303.662
303.689
303.69
303.58
303.481
303.456
303.443
303.444
303.459
303.554
355.443
354.06
352.988
352.702
353.051
353.66
354.45
355.257
355.948
356.247
356.374
355.997
355.165
354.072
352.875
351.793
350.941
350.768
351.426
352.584
347.947
346.758
345.969
345.674
345.831
346.348
347.17
347.83
348.362
348.781
348.886
348.492
347.736
346.971
345.832
344.891
344.258
344.153
344.683
345.625
340.385
339.54
338.852
338.514
338.721
339.243
339.858
340.46
340.959
341.152
341.266
340.964
340.473
339.697
338.879
338.049
337.482
337.406
337.86
338.696
333.075
332.374
331.707
331.575
331.738
332.189
332.576
333.124
333.467
333.734
333.849
333.578
333.155
332.555
331.733
331.114
330.749
330.62
330.973
331.701
325.641
325.16
324.716
324.475
324.658
325.012
325.394
325.723
326.128
326.211
326.315
326.129
325.773
325.321
324.676
324.243
323.827
323.87
324.108
324.743
318.391
317.956
317.684
317.514
317.656
317.791
318.063
318.401
318.622
318.753
318.772
318.613
318.363
318.035
317.672
317.354
317.125
317.044
317.233
317.629
311.099
310.766
310.631
310.483
310.596
310.687
310.845
311.063
311.159
311.299
311.271
311.223
310.998
310.907
310.562
310.351
310.29
310.276
310.357
310.625
303.679
303.561
303.548
303.422
303.586
303.65
303.649
303.688
303.725
303.757
303.851
303.719
303.733
303.716
303.552
303.453
303.303
303.445
303.4
303.596
356.185
354.747
353.779
353.538
353.796
354.565
355.474
356.383
357.042
357.505
357.609
357.197
356.409
355.231
354.076
352.814
351.974
351.829
352.36
353.407
348.519
347.398
346.569
346.301
346.534
347.207
347.981
348.828
349.352
349.796
349.886
349.575
348.889
347.934
346.842
345.871
345.077
344.934
345.412
346.359
341.007
340.093
339.438
339.203
339.396
339.894
340.566
341.152
341.744
342.163
342.121
341.968
341.315
340.56
339.712
338.894
338.245
338.137
338.532
339.264
333.489
332.774
332.221
332.126
332.182
332.664
333.166
333.719
334.163
334.388
334.538
334.33
333.892
333.304
332.387
331.844
331.282
331.149
331.612
332.119
326.036
325.552
325.005
324.979
325.09
325.343
325.816
326.203
326.594
326.787
326.844
326.749
326.341
325.835
325.262
324.728
324.316
324.319
324.505
325.029
318.58
318.235
317.875
317.763
317.849
318.123
318.436
318.742
319.038
319.192
319.201
318.992
318.831
318.46
318.009
317.71
317.45
317.366
317.486
317.868
311.138
310.872
310.729
310.702
310.722
310.961
311.048
311.23
311.513
311.452
311.471
311.462
311.275
311.037
310.871
310.6
310.494
310.406
310.545
310.646
303.783
303.653
303.601
303.578
303.544
303.629
303.689
303.791
303.833
303.865
303.897
303.856
303.72
303.762
303.614
303.616
303.467
303.521
303.499
303.503
357.01
355.728
354.821
354.503
354.873
355.65
356.529
357.487
358.406
358.936
359.062
358.661
357.755
356.671
355.359
354.158
353.305
353.024
353.68
354.571
349.298
348.241
347.481
347.306
347.61
348.153
348.954
349.914
350.538
350.97
351.141
350.863
350.114
349.198
348.035
346.978
346.235
346.053
346.484
347.378
341.743
340.712
340.138
339.933
340.172
340.782
341.369
342.116
342.745
343.137
343.239
342.957
342.35
341.553
340.648
339.81
339.201
339.088
339.403
340.105
334.087
333.401
332.75
332.65
332.846
333.242
333.847
334.43
334.924
335.242
335.431
335.142
334.697
333.988
333.255
332.575
332.061
331.912
332.262
332.847
326.366
325.873
325.556
325.344
325.534
325.93
326.336
326.799
327.149
327.466
327.482
327.365
326.995
326.475
325.857
325.35
325.019
324.869
325.144
325.525
318.827
318.574
318.132
318.181
318.184
318.464
318.763
319.055
319.386
319.6
319.691
319.554
319.308
318.925
318.457
318.118
317.873
317.8
317.956
318.243
311.363
311.067
310.975
310.881
310.981
311.086
311.275
311.478
311.615
311.751
311.801
311.736
311.61
311.369
311.139
310.827
310.679
310.697
310.759
310.947
303.819
303.737
303.676
303.62
303.613
303.725
303.776
303.886
303.912
303.888
303.952
303.97
303.828
303.806
303.724
303.695
303.648
303.641
303.627
303.637
358.169
356.953
356.087
355.861
356.155
356.857
357.848
358.861
359.861
360.392
360.621
360.316
359.429
358.212
356.894
355.646
354.718
354.526
355.08
355.995
350.25
349.149
348.399
348.302
348.572
349.209
350.067
350.928
351.789
352.334
352.439
352.199
351.475
350.504
349.322
348.258
347.527
347.392
347.783
348.636
342.454
341.642
340.972
340.834
341.075
341.675
342.347
343.149
343.748
344.265
344.45
344.171
343.65
342.706
341.79
340.909
340.231
340.138
340.498
341.1
334.704
334.068
333.506
333.379
333.644
334.027
334.53
335.292
335.782
336.181
336.257
336.058
335.62
334.932
334.165
333.456
332.989
332.893
333.16
333.669
326.921
326.406
326.124
325.868
326.126
326.516
326.986
327.427
327.89
328.096
328.241
328.038
327.663
327.245
326.656
326.042
325.723
325.543
325.816
326.172
319.253
318.918
318.642
318.488
318.714
318.826
319.202
319.659
319.896
320.095
320.209
320.046
319.759
319.447
319.022
318.629
318.336
318.334
318.38
318.74
311.546
311.389
311.177
311.15
311.191
311.358
311.493
311.706
311.899
312.114
312.07
311.969
311.847
311.662
311.436
311.127
311.067
310.995
311.081
311.242
303.817
303.837
303.763
303.712
303.784
303.841
303.88
303.928
304.076
304.092
304.091
304.049
304.026
304.012
303.787
303.678
303.699
303.701
303.687
303.743
359.463
358.346
357.442
357.172
357.554
358.34
359.342
360.443
361.343
362.047
362.268
361.942
361.129
359.954
358.608
357.447
356.555
356.236
356.719
357.557
351.474
350.435
349.756
349.541
349.907
350.433
351.328
352.278
353.084
353.659
353.871
353.633
352.982
351.876
350.704
349.816
349.01
348.83
349.181
349.928
343.42
342.603
341.973
341.886
342.162
342.669
343.395
344.187
344.974
345.373
345.571
345.382
344.766
343.96
342.976
342.118
341.437
341.371
341.661
342.256
335.467
334.797
334.39
334.239
334.473
334.925
335.499
336.075
336.735
337.099
337.261
337.126
336.687
335.968
335.149
334.492
334.012
333.825
334.084
334.565
327.565
327.071
326.775
326.612
326.778
327.184
327.556
328.014
328.558
328.834
328.948
328.834
328.486
327.972
327.311
326.782
326.474
326.352
326.569
326.916
319.683
319.393
319.099
319.013
319.099
319.36
319.749
320.062
320.353
320.556
320.724
320.61
320.361
319.927
319.546
319.116
318.935
318.815
319.039
319.279
311.769
311.618
311.515
311.393
311.412
311.644
311.817
312.106
312.255
312.336
312.412
312.414
312.239
311.949
311.786
311.422
311.393
311.394
311.4
311.575
303.974
303.96
303.866
303.888
303.869
303.906
303.98
304.054
304.1
304.199
304.174
304.205
304.067
304.008
303.936
303.796
303.822
303.789
303.819
303.92
360.953
359.848
359.118
358.809
359.109
359.78
360.735
361.9
362.879
363.58
363.929
363.648
362.759
361.565
360.321
359.073
358.348
358.146
358.376
359.287
352.678
351.733
351.054
350.837
351.078
351.705
352.676
353.541
354.369
355.118
355.369
355.143
354.469
353.407
352.278
351.258
350.533
350.365
350.736
351.479
344.453
343.684
343.182
343.067
343.176
343.739
344.453
345.26
346.047
346.548
346.791
346.617
346.007
345.171
344.227
343.381
342.845
342.687
342.959
343.548
336.349
335.703
335.326
335.194
335.335
335.739
336.327
337.027
337.66
338.141
338.235
338.057
337.65
337.003
336.216
335.508
335.044
334.947
335.173
335.685
328.192
327.729
327.417
327.28
327.575
327.772
328.224
328.794
329.227
329.622
329.716
329.633
329.299
328.746
328.119
327.628
327.289
327.185
327.358
327.649
320.199
319.874
319.632
319.486
319.592
319.904
320.18
320.536
320.898
321.149
321.328
321.113
320.893
320.488
320.102
319.762
319.5
319.433
319.567
319.776
312.042
311.87
311.766
311.772
311.771
311.915
312.082
312.332
312.475
312.658
312.826
312.731
312.565
312.333
312.086
311.83
311.693
311.677
311.767
311.901
304.085
304.024
303.954
303.921
303.986
304.054
304.025
304.153
304.18
304.258
304.229
304.255
304.299
304.22
304.105
303.938
303.955
303.952
303.959
303.931
362.468
361.438
360.637
360.367
360.639
361.432
362.377
363.519
364.49
365.308
365.564
365.294
364.53
363.381
362.104
360.963
360.226
359.986
360.252
361.114
354.021
353.115
352.53
352.224
352.549
353.148
353.94
354.964
355.799
356.518
356.827
356.62
355.896
354.817
353.801
352.817
352.153
352.075
352.34
353.015
345.601
344.878
344.296
344.183
344.347
344.871
345.577
346.442
347.187
347.792
347.928
347.853
347.257
346.339
345.46
344.679
344.184
344.101
344.325
344.895
337.284
336.751
336.287
336.121
336.344
336.718
337.343
337.908
338.603
339.021
339.267
339.142
338.595
337.966
337.228
336.598
336.241
336.035
336.251
336.638
329.007
328.5
328.192
328.032
328.248
328.507
329.005
329.505
329.94
330.311
330.457
330.366
330.052
329.545
328.976
328.48
328.183
328.027
328.246
328.555
320.663
320.338
320.103
320.055
320.116
320.409
320.666
321.079
321.406
321.646
321.817
321.643
321.515
321.122
320.703
320.364
320.102
320.04
320.241
320.442
312.427
312.197
312.092
312.061
312.115
312.238
312.451
312.656
312.784
312.992
313.06
313.09
312.994
312.688
312.419
312.211
312.085
312.058
312.141
312.256
304.199
304.121
304.113
304.07
304.073
304.064
304.07
304.186
304.32
304.283
304.396
304.381
304.337
304.213
304.184
304.12
304.047
304.053
304.042
304.06
364.133
363.065
362.334
362.114
362.323
363.086
363.95
365.027
366.006
366.787
367.197
366.912
366.152
365.054
363.87
362.779
362.109
361.861
362.368
363.024
355.453
354.659
354.019
353.691
353.946
354.528
355.387
356.242
357.113
357.852
358.165
357.947
357.36
356.389
355.281
354.422
353.875
353.723
354.04
354.578
346.81
346.105
345.57
345.417
345.553
346.011
346.788
347.452
348.307
348.878
349.167
348.944
348.391
347.619
346.839
346.113
345.577
345.433
345.67
346.173
338.246
337.681
337.239
337.084
337.243
337.633
338.23
338.806
339.499
340.021
340.177
340.099
339.716
338.931
338.347
337.723
337.268
337.214
337.439
337.793
329.626
329.282
328.988
328.812
328.986
329.338
329.822
330.302
330.714
331.034
331.231
331.058
330.887
330.278
329.821
329.345
329.02
329.021
329.133
329.442
321.148
320.862
320.607
320.568
320.728
320.89
321.248
321.617
321.931
322.109
322.275
322.172
322.042
321.693
321.332
320.935
320.704
320.733
320.862
320.988
312.696
312.547
312.421
312.376
312.391
312.561
312.692
312.98
313.072
313.356
313.341
313.413
313.247
312.976
312.75
312.623
312.458
312.42
312.519
312.607
304.267
304.277
304.09
304.22
304.195
304.221
304.289
304.343
304.417
304.533
304.494
304.475
304.472
304.368
304.264
304.184
304.191
304.186
304.217
304.214
365.851
364.844
364.094
363.847
364.032
364.638
365.589
366.501
367.534
368.255
368.618
368.438
367.783
366.696
365.588
364.66
364.031
363.904
364.292
364.992
356.935
356.106
355.445
355.255
355.472
355.934
356.689
357.599
358.346
359.188
359.437
359.286
358.652
357.746
356.954
356.053
355.524
355.368
355.61
356.303
348.029
347.346
346.893
346.72
346.879
347.313
347.932
348.721
349.353
349.969
350.259
350.08
349.616
348.852
348.098
347.411
346.995
346.912
347.153
347.735
339.279
338.731
338.275
338.145
338.349
338.644
339.204
339.75
340.367
340.816
341.115
340.917
340.557
339.996
339.367
338.782
338.46
338.336
338.598
338.967
330.531
330.051
329.747
329.655
329.747
330.001
330.464
330.921
331.401
331.742
331.93
331.834
331.5
331.106
330.606
330.18
329.969
329.919
330.021
330.377
321.751
321.502
321.263
321.157
321.235
321.457
321.787
322.054
322.484
322.687
322.871
322.71
322.567
322.233
321.865
321.61
321.393
321.321
321.439
321.746
313.087
312.822
312.792
312.718
312.817
312.843
313.063
313.227
313.459
313.612
313.678
313.561
313.543
313.383
313.154
312.897
312.847
312.829
312.932
313.01
304.366
304.353
304.27
304.28
304.326
304.302
304.37
304.429
304.566
304.608
304.53
304.58
304.497
304.452
304.369
304.314
304.297
304.326
304.332
304.335
367.665
366.61
365.862
365.586
365.728
366.374
367.072
368.108
368.999
369.712
370.061
369.886
369.283
368.332
367.367
366.551
365.964
365.868
366.198
366.957
358.423
357.503
356.995
356.68
356.927
357.385
358.073
358.922
359.688
360.301
360.58
360.457
359.983
359.174
358.402
357.613
357.048
357.033
357.408
357.984
349.307
348.637
348.078
347.939
348.116
348.449
349.089
349.744
350.434
351.006
351.224
351.093
350.738
350.001
349.425
348.744
348.362
348.387
348.542
349.214
340.399
339.704
339.357
339.156
339.282
339.567
340.186
340.621
341.329
341.691
341.958
341.753
341.509
340.899
340.307
339.852
339.633
339.542
339.863
340.158
331.405
330.885
330.644
330.468
330.554
330.684
331.206
331.647
331.973
332.427
332.538
332.461
332.198
331.889
331.436
331.046
330.869
330.795
330.946
331.246
322.323
322.114
321.827
321.802
321.843
321.965
322.367
322.555
322.867
323.099
323.284
323.233
322.998
322.768
322.414
322.185
322.019
321.939
322.154
322.264
313.331
313.233
313.174
313.054
313.075
313.174
313.387
313.56
313.685
313.901
314.032
314.045
313.834
313.613
313.571
313.25
313.253
313.172
313.344
313.416
304.514
304.407
304.425
304.367
304.384
304.41
304.523
304.512
304.574
304.687
304.695
304.759
304.664
304.598
304.508
304.443
304.471
304.4
304.383
304.489
369.415
368.45
367.63
367.362
367.503
367.965
368.722
369.548
370.378
370.945
371.319
371.225
370.744
369.883
369.043
368.269
367.825
367.895
368.253
368.87
359.931
359.161
358.605
358.297
358.407
358.796
359.496
360.185
360.888
361.523
361.78
361.699
361.187
360.507
359.803
359.199
358.815
358.756
359.104
359.718
350.606
349.964
349.491
349.254
349.272
349.632
350.277
350.817
351.438
351.943
352.259
352.138
351.738
351.271
350.624
350.038
349.8
349.748
350.064
350.448
341.347
340.829
340.387
340.239
340.341
340.681
341.018
341.545
342.035
342.492
342.674
342.583
342.325
341.919
341.415
340.982
340.66
340.68
340.918
341.295
332.083
331.727
331.37
331.305
331.394
331.553
331.863
332.272
332.724
333.043
333.217
333.127
332.909
332.592
332.144
331.938
331.661
331.605
331.862
332.118
322.955
322.647
322.459
322.364
322.417
322.565
322.821
322.974
323.417
323.586
323.69
323.698
323.516
323.22
322.917
322.774
322.56
322.613
322.699
322.958
313.752
313.584
313.44
313.466
313.45
313.508
313.75
313.857
314.027
314.14
314.238
314.256
314.076
313.924
313.782
313.595
313.578
313.617
313.697
313.787
304.597
304.563
304.5
304.498
304.505
304.533
304.611
304.717
304.656
304.686
304.724
304.732
304.744
304.616
304.607
304.546
304.588
304.543
304.593
304.665
371.186
370.196
369.483
369.065
369.164
369.651
370.265
371.018
371.735
372.395
372.641
372.662
372.12
371.472
370.722
370.202
369.775
369.79
370.222
370.904
361.526
360.752
360.046
359.815
359.897
360.222
360.782
361.515
362.104
362.661
362.89
362.867
362.435
361.812
361.278
360.627
360.45
360.396
360.817
361.409
351.89
351.241
350.731
350.504
350.541
350.842
351.446
351.979
352.483
352.973
353.141
353.091
352.772
352.31
351.836
351.323
351.136
351.126
351.459
351.905
342.441
341.879
341.374
341.265
341.309
341.587
341.974
342.448
342.901
343.254
343.494
343.45
343.172
342.855
342.321
342.044
341.893
341.875
342.081
342.481
333.005
332.515
332.165
332.093
332.189
332.331
332.566
333.012
333.327
333.609
333.778
333.802
333.629
333.273
333.005
332.666
332.546
332.564
332.829
333.014
323.488
323.263
323.031
322.902
322.997
323.111
323.261
323.549
323.813
324.047
324.198
324.137
323.949
323.813
323.574
323.353
323.272
323.312
323.447
323.66
314.17
313.971
313.84
313.739
313.718
313.866
314.028
314.142
314.265
314.379
314.36
314.479
314.415
314.281
314.165
314.034
313.88
313.979
314.022
314.215
304.685
304.693
304.578
304.587
304.644
304.636
304.657
304.799
304.789
304.815
304.865
304.803
304.804
304.807
304.707
304.699
304.629
304.642
304.741
304.738
372.965
372.043
371.289
370.891
370.864
371.285
371.885
372.516
373.201
373.783
373.926
373.866
373.503
372.961
372.369
371.843
371.58
371.724
372.189
372.878
363.009
362.255
361.59
361.311
361.362
361.67
362.144
362.668
363.33
363.816
364.051
363.982
363.655
363.16
362.741
362.28
362.115
362.057
362.498
363.157
353.192
352.581
352.105
351.825
351.829
352.058
352.569
352.963
353.517
353.904
354.141
354.038
353.852
353.477
352.988
352.647
352.463
352.516
352.902
353.41
343.438
342.971
342.54
342.339
342.316
342.542
342.98
343.337
343.714
344.087
344.168
344.252
343.946
343.816
343.371
343.037
342.951
343.017
343.414
343.694
333.756
333.402
333.148
332.929
332.932
333.067
333.296
333.709
334.097
334.267
334.42
334.397
334.22
334.026
333.746
333.505
333.386
333.41
333.661
334.001
324.082
323.822
323.622
323.453
323.439
323.665
323.767
324.053
324.27
324.428
324.566
324.518
324.508
324.234
324.072
323.879
323.89
323.913
324.089
324.312
314.476
314.334
314.215
314.082
314.076
314.16
314.329
314.415
314.603
314.622
314.766
314.808
314.663
314.569
314.543
314.371
314.327
314.406
314.443
314.537
304.745
304.756
304.728
304.733
304.678
304.778
304.794
304.874
304.907
304.95
304.93
304.899
304.877
304.845
304.848
304.793
304.795
304.852
304.809
304.946
374.787
373.873
373.121
372.752
372.652
372.95
373.414
374.009
374.637
375.058
375.252
375.241
374.924
374.488
374.002
373.636
373.448
373.601
374.081
374.841
364.632
363.924
363.214
362.94
362.85
363.07
363.514
364.061
364.452
364.968
365.173
365.118
364.912
364.483
364.063
363.787
363.659
363.835
364.263
364.87
354.583
353.999
353.342
353.153
353.085
353.314
353.776
354.073
354.604
354.876
355.035
355.062
354.88
354.547
354.279
353.936
353.832
354.063
354.333
354.851
344.592
344.006
343.656
343.383
343.389
343.62
343.916
344.253
344.641
344.875
345.037
345
344.828
344.654
344.268
344.13
344.061
344.058
344.437
344.852
334.643
334.211
333.98
333.748
333.742
333.868
334.111
334.374
334.675
334.808
335.017
335.088
334.896
334.737
334.505
334.337
334.305
334.32
334.57
334.861
324.684
324.48
324.21
324.107
324.105
324.173
324.407
324.532
324.775
324.926
324.976
325.031
324.931
324.792
324.646
324.52
324.454
324.542
324.736
324.916
314.836
314.734
314.506
314.494
314.466
314.496
314.659
314.758
314.912
314.945
315.023
315.004
314.965
314.899
314.864
314.636
314.72
314.702
314.818
314.925
304.98
304.981
304.888
304.816
304.819
304.915
304.886
304.936
304.978
305.003
305.065
305.055
304.963
304.969
304.879
304.954
304.869
304.952
305.021
305.036
376.718
375.792
375.001
374.524
374.465
374.596
375.107
375.415
375.936
376.326
376.555
376.552
376.356
376.04
375.644
375.41
375.259
375.552
376.053
376.754
366.231
365.42
364.83
364.458
364.38
364.566
364.967
365.228
365.761
366.13
366.366
366.272
366.051
365.767
365.53
365.279
365.248
365.494
365.894
366.453
356.004
355.253
354.714
354.46
354.385
354.572
354.811
355.154
355.54
355.796
356.009
356.011
355.889
355.629
355.425
355.195
355.128
355.358
355.736
356.292
345.722
345.236
344.716
344.452
344.417
344.527
344.788
345.152
345.431
345.636
345.832
345.704
345.697
345.515
345.292
345.142
345.118
345.267
345.557
346.054
335.502
335.07
334.799
334.586
334.552
334.601
334.788
335.083
335.204
335.535
335.602
335.541
335.478
335.344
335.265
335.122
335.169
335.245
335.537
335.703
325.364
325.067
324.813
324.67
324.605
324.679
324.872
325.035
325.25
325.368
325.396
325.391
325.345
325.318
325.181
325.117
325.068
325.232
325.383
325.493
315.224
315.071
314.933
314.803
314.783
314.807
314.895
315.007
315.133
315.201
315.308
315.237
315.306
315.198
315.129
314.977
315.051
315.18
315.218
315.345
305.074
305.039
304.988
305.01
305.012
304.928
305.014
305.035
305.151
305.083
305.149
305.137
305.079
305.058
305.08
304.97
304.938
305.149
305.098
305.141
378.47
377.485
376.695
376.343
376.112
376.321
376.537
376.993
377.335
377.714
377.82
377.898
377.744
377.49
377.238
377.039
377.039
377.335
377.95
378.738
367.85
367.053
366.33
365.955
365.752
366.064
366.219
366.597
366.925
367.215
367.396
367.42
367.32
367.123
366.895
366.763
366.783
367.04
367.464
368.186
357.231
356.647
356.123
355.696
355.578
355.727
355.949
356.221
356.632
356.846
356.994
356.993
356.821
356.695
356.518
356.403
356.446
356.696
357.135
357.596
346.7
346.21
345.833
345.535
345.442
345.551
345.823
345.973
346.24
346.39
346.535
346.554
346.501
346.432
346.297
346.171
346.123
346.329
346.744
347.139
336.333
335.851
335.564
335.374
335.318
335.348
335.587
335.686
335.992
336.096
336.176
336.157
336.16
336.007
336.023
335.906
335.912
336.043
336.272
336.622
325.868
325.61
325.436
325.243
325.207
325.269
325.316
325.559
325.659
325.771
325.811
325.849
325.777
325.731
325.676
325.601
325.685
325.718
325.975
326.21
315.592
315.41
315.292
315.084
315.156
315.23
315.253
315.284
315.421
315.448
315.49
315.483
315.508
315.472
315.378
315.425
315.421
315.438
315.625
315.713
305.236
305.155
305.169
305.057
305.092
305.118
305.06
305.111
305.101
305.158
305.208
305.184
305.116
305.243
305.157
305.121
305.19
305.143
305.24
305.222
380.151
379.212
378.354
377.934
377.717
377.762
378.06
378.414
378.722
378.988
379.144
379.07
379.012
378.85
378.641
378.633
378.642
379.02
379.723
380.557
369.336
368.444
367.817
367.393
367.231
367.267
367.449
367.838
368.006
368.286
368.517
368.607
368.432
368.267
368.082
368.083
368.047
368.405
369.022
369.638
358.445
357.874
357.215
356.822
356.708
356.814
356.965
357.182
357.461
357.687
357.852
357.86
357.81
357.735
357.644
357.547
357.639
357.89
358.261
358.867
347.775
347.234
346.776
346.456
346.392
346.415
346.531
346.746
346.981
347.159
347.253
347.267
347.21
347.199
347.078
347.069
347.078
347.29
347.711
348.061
337.109
336.669
336.325
336.148
335.979
336.066
336.121
336.392
336.472
336.704
336.762
336.767
336.67
336.714
336.602
336.57
336.642
336.798
337.129
337.402
326.502
326.193
325.896
325.744
325.696
325.771
325.823
325.882
326.09
326.27
326.234
326.223
326.218
326.188
326.106
326.087
326.207
326.265
326.494
326.736
315.886
315.705
315.577
315.399
315.355
315.506
315.53
315.576
315.653
315.707
315.709
315.728
315.716
315.729
315.688
315.693
315.67
315.827
315.908
316.088
305.316
305.227
305.204
305.188
305.179
305.21
305.206
305.208
305.264
305.188
305.291
305.294
305.255
305.299
305.276
305.297
305.283
305.256
305.407
305.334
381.525
380.522
379.723
379.154
378.879
378.982
379.153
379.375
379.67
379.954
380.127
380.137
380.089
379.931
379.842
379.812
379.897
380.324
381.035
381.858
370.328
369.508
368.77
368.403
368.192
368.242
368.375
368.697
368.879
369.07
369.178
369.327
369.238
369.059
369.106
368.95
369.14
369.537
370.145
370.679
359.302
358.665
358.043
357.658
357.556
357.516
357.709
357.955
358.157
358.354
358.517
358.494
358.589
358.378
358.317
358.369
358.471
358.641
359.25
359.756
348.33
347.934
347.429
347.066
347.005
346.957
347.126
347.26
347.491
347.66
347.848
347.76
347.775
347.696
347.684
347.637
347.749
348.03
348.362
348.854
337.519
337.188
336.788
336.651
336.52
336.407
336.675
336.755
336.864
337.069
337.207
337.105
337.151
337.102
337.042
337.103
337.138
337.321
337.582
337.939
326.829
326.548
326.308
326.134
326.034
326.078
326.148
326.246
326.37
326.35
326.572
326.526
326.558
326.482
326.46
326.427
326.526
326.657
326.789
327.087
316.101
315.86
315.759
315.591
315.535
315.665
315.669
315.819
315.837
315.905
315.967
315.894
315.92
315.867
315.852
315.872
315.921
316.008
316.028
316.271
305.355
305.341
305.311
305.216
305.256
305.208
305.243
305.223
305.298
305.347
305.24
305.356
305.36
305.333
305.33
305.275
305.369
305.343
305.336
305.481
)
;

boundaryField
{
    hotSide
    {
        type            fixedGradient;
        gradient        nonuniform List<scalar> 
400
(
321.511
322.87
325.591
329.677
335.133
341.965
350.181
359.788
370.794
383.208
397.037
412.289
428.971
447.088
466.647
487.651
510.105
534.011
559.372
586.191
323.738
325.08
327.767
331.802
337.194
343.949
352.078
361.591
372.498
384.81
398.537
413.687
430.268
448.289
467.755
488.672
511.043
534.872
560.161
586.913
326.149
327.47
330.116
334.091
339.406
346.071
354.099
363.503
374.296
386.491
400.101
415.136
431.606
449.52
468.885
489.706
511.988
535.735
560.948
587.63
328.704
330
332.597
336.503
341.73
348.292
356.205
365.485
376.15
388.215
401.695
416.604
432.954
450.753
470.009
490.73
512.919
536.579
561.714
588.325
331.33
332.599
335.142
338.97
344.099
350.546
358.332
367.477
378.003
389.928
403.271
418.047
434.27
451.949
471.095
491.712
513.807
537.382
562.439
588.978
333.918
335.158
337.643
341.389
346.414
352.74
360.392
369.397
379.779
391.562
404.765
419.407
435.503
453.065
472.101
492.618
514.622
538.114
563.096
589.569
336.321
337.531
339.959
343.622
348.544
354.751
362.274
371.142
381.385
393.031
406.101
420.618
436.595
454.047
472.983
493.409
515.33
538.747
563.663
590.076
338.36
339.543
341.92
345.509
350.339
356.44
363.847
372.595
382.718
394.244
407.2
421.608
437.485
454.844
473.695
494.045
515.897
539.253
564.114
590.478
339.852
341.015
343.352
346.885
351.645
357.665
364.985
373.643
383.675
395.113
407.984
422.312
438.116
455.407
474.197
494.491
516.294
539.606
564.428
590.758
340.643
341.795
344.11
347.613
352.334
358.311
365.584
374.193
384.176
395.567
408.393
422.679
438.443
455.699
474.456
494.722
516.498
539.788
564.589
590.901
340.643
341.795
344.11
347.613
352.334
358.311
365.584
374.193
384.176
395.567
408.393
422.679
438.443
455.699
474.456
494.722
516.498
539.788
564.589
590.901
339.852
341.015
343.352
346.885
351.645
357.665
364.985
373.643
383.675
395.113
407.984
422.312
438.116
455.407
474.197
494.491
516.294
539.606
564.428
590.758
338.36
339.543
341.92
345.509
350.339
356.44
363.847
372.595
382.718
394.244
407.2
421.608
437.485
454.844
473.695
494.045
515.897
539.253
564.114
590.478
336.321
337.531
339.959
343.622
348.544
354.751
362.274
371.142
381.385
393.031
406.101
420.618
436.595
454.047
472.983
493.409
515.33
538.747
563.663
590.076
333.918
335.158
337.643
341.389
346.414
352.74
360.392
369.397
379.779
391.562
404.765
419.407
435.503
453.065
472.101
492.618
514.622
538.114
563.096
589.569
331.33
332.599
335.142
338.97
344.099
350.546
358.332
367.477
378.003
389.928
403.271
418.047
434.27
451.949
471.095
491.712
513.807
537.382
562.439
588.978
328.704
330
332.597
336.503
341.73
348.292
356.205
365.485
376.15
388.215
401.695
416.604
432.954
450.753
470.009
490.73
512.919
536.579
561.714
588.325
326.149
327.47
330.116
334.091
339.406
346.071
354.099
363.503
374.296
386.491
400.101
415.136
431.606
449.52
468.885
489.706
511.988
535.735
560.948
587.63
323.738
325.08
327.767
331.802
337.194
343.949
352.078
361.591
372.498
384.81
398.537
413.687
430.268
448.289
467.755
488.672
511.043
534.872
560.161
586.913
321.511
322.87
325.591
329.677
335.133
341.965
350.181
359.788
370.794
383.208
397.037
412.289
428.971
447.088
466.647
487.651
510.105
534.011
559.372
586.191
)
;
    }
    coldSide
    {
        type            mixed;
        refValue        uniform 300;
        refGradient     uniform 0;
        valueFraction   uniform 0.991591;
        source          uniform 0;
        value           nonuniform List<scalar> 
400
(
300.031
300.031
300.031
300.032
300.032
300.032
300.033
300.034
300.035
300.036
300.037
300.038
300.039
300.039
300.04
300.042
300.043
300.044
300.045
300.045
300.03
300.03
300.03
300.031
300.031
300.032
300.033
300.034
300.035
300.036
300.037
300.037
300.038
300.039
300.04