/*--------------------------------*- C++ -*----------------------------------*\
| =========                 |                                                 |
| \\      /  F ield         | OpenFOAM: The Open Source CFD Toolbox           |
|  \\    /   O peration     | Version:  2212                                  |
|   \\  /    A nd           | Website:  www.openfoam.com                      |
|    \\/     M anipulation  |                                                 |
\*---------------------------------------------------------------------------*/
FoamFile
{
    version     2.0;
    format      ascii;
    arch        "LSB;label=32;scalar=64";
    class       volScalarField;
    location    "./ITHACAoutput/true/17.8";
    object      error;
}
// * * * * * * * * * * * * * * * * * * * * * * * * * * * * * * * * * * * * * //

dimensions      [0 0 0 1 0 0 0];

internalField   nonuniform List<scalar> 
3200
(
2.49443
2.50859
2.48709
2.63255
2.76203
2.97255
3.12939
3.30207
3.49204
3.6174
3.74175
3.70288
3.70198
3.68122
3.61886
3.56273
3.48832
3.5122
3.58985
3.61457
1.9186
1.88354
1.97787
2.02607
2.12164
2.22186
2.44948
2.60737
2.7999
2.91315
2.96648
2.95217
2.9648
2.91074
2.82932
2.7825
2.82532
2.76252
2.84173
2.99966
1.4714
1.46758
1.43954
1.55435
1.66204
1.68955
1.91542
2.05853
2.16521
2.23281
2.22518
2.33491
2.28387
2.24627
2.26552
2.18856
2.18977
2.15239
2.23356
2.3684
1.16356
1.19901
1.0292
1.13498
1.20267
1.26513
1.42682
1.49035
1.56354
1.70629
1.76749
1.83766
1.72847
1.62438
1.72702
1.72067
1.62078
1.68928
1.72247
1.79903
0.804881
0.765281
0.765073
0.786107
0.885611
0.923822
1.05567
1.10523
1.2128
1.24022
1.29944
1.3676
1.28386
1.30612
1.25153
1.25758
1.20246
1.22491
1.28318
1.35058
0.498798
0.556285
0.507722
0.535653
0.595519
0.696066
0.776295
0.765253
0.846696
0.825982
0.853015
0.940763
0.889879
0.829533
0.846835
0.824701
0.901818
0.857842
0.863213
0.92397
0.318336
0.274264
0.329801
0.309721
0.327211
0.344295
0.444471
0.446866
0.466902
0.496893
0.498967
0.547647
0.497105
0.478213
0.508026
0.492658
0.514645
0.477935
0.513774
0.526859
0.0989801
0.148015
0.113996
0.096025
0.137209
0.10576
0.0957416
0.15734
0.108091
0.223983
0.136107
0.137128
0.15524
0.180102
0.121561
0.192049
0.205176
0.115621
0.115666
0.211581
1.74933
1.74755
1.73522
1.81157
1.93644
2.12815
2.31899
2.4388
2.59279
2.79985
2.85043
2.90291
2.90926
2.7976
2.79662
2.74827
2.70748
2.71402
2.81842
2.91466
1.35196
1.31861
1.36875
1.35405
1.54014
1.62765
1.79566
1.86969
2.05272
2.09976
2.25544
2.20925
2.23637
2.26175
2.15913
2.17234
2.09838
2.17891
2.26785
2.31107
1.0094
0.9876
0.993033
0.999773
1.10337
1.24913
1.31108
1.45974
1.57921
1.65992
1.77966
1.7408
1.74997
1.6832
1.69017
1.70575
1.64947
1.75844
1.73063
1.75923
0.738916
0.718589
0.778544
0.729605
0.810208
0.916211
0.999658
1.17356
1.23919
1.23076
1.29829
1.27613
1.31743
1.31411
1.31567
1.22616
1.29091
1.28314
1.36846
1.45323
0.55597
0.515317
0.459805
0.511969
0.630074
0.593174
0.705117
0.807023
0.895735
0.849402
0.890493
0.951072
0.976685
0.937944
0.894725
0.911986
0.935221
0.983378
0.999184
1.01025
0.373797
0.384507
0.386464
0.316081
0.384994
0.44658
0.508097
0.556457
0.564249
0.565613
0.649101
0.676794
0.607064
0.641547
0.685994
0.627507
0.597264
0.640718
0.699802
0.711237
0.23027
0.173185
0.145302
0.228468
0.161887
0.240856
0.30132
0.262922
0.329947
0.375224
0.371619
0.360477
0.407865
0.353098
0.339196
0.30274
0.390952
0.348995
0.443406
0.435941
0.103998
0.117065
0.0673576
0.0946339
0.0771709
0.108119
0.0830237
0.17012
0.155929
0.119875
0.128396
0.128031
0.135927
0.169043
0.0895683
0.20591
0.0768482
0.175704
0.192997
0.117606
0.939961
0.785089
0.831952
0.826264
0.97476
1.12513
1.28872
1.45269
1.58805
1.70859
1.78734
1.8351
1.84473
1.83855
1.64837
1.70911
1.71493
1.74501
1.83125
1.92486
0.625445
0.555375
0.535007
0.626905
0.62555
0.745462
0.826601
1.00314
1.14498
1.21679
1.24083
1.31729
1.34595
1.27687
1.22627
1.32744
1.25088
1.30809
1.49848
1.53031
0.3552
0.354952
0.304263
0.273594
0.303164
0.461861
0.521987
0.726869
0.756416
0.840668
0.9483
0.93873
0.90502
0.838655
0.926631
0.903071
0.920051
0.949253
1.01094
1.1374
0.240804
0.182624
0.173651
0.170722
0.204152
0.305845
0.289473
0.492949
0.582327
0.600367
0.658073
0.72085
0.671378
0.637308
0.556314
0.663168
0.648105
0.743082
0.799701
0.815173
0.124143
0.136941
0.0606686
0.104977
0.137158
0.146805
0.193469
0.319583
0.378343
0.36866
0.374293
0.451993
0.469968
0.442448
0.459608
0.488977
0.453225
0.529407
0.577244
0.664912
0.072465
0.0483433
0.0213117
0.057419
0.0398477
0.163769
0.171577
0.223042
0.204357
0.329978
0.251091
0.251999
0.346803
0.292676
0.277216
0.277994
0.302927
0.275551
0.326846
0.435658
0.0432481
0.0464154
0.0664215
-0.00850057
0.0643691
0.0223465
0.103719
0.122977
0.0899896
0.127871
0.153989
0.142803
0.129721
0.198157
0.139922
0.154246
0.165872
0.167158
0.254037
0.231515
-0.040306
-0.0311214
-0.0768779
-0.029497
0.0449514
0.0622553
0.0194881
0.0331152
0.0307284
0.0631103
0.0220652
0.0623781
0.0912753
0.0305503
0.0862556
0.0498558
0.0786091
0.102522
0.0977135
0.104026
-0.0128945
-0.0647294
-0.131078
-0.162422
-0.107786
0.0306478
0.136022
0.341418
0.453005
0.537368
0.583821
0.647333
0.571596
0.688541
0.640614
0.6579
0.602216
0.733326
0.932755
1.00917
-0.227604
-0.222717
-0.279361
-0.37318
-0.277919
-0.21011
-0.0171083
-0.0142008
0.162743
0.25525
0.305921
0.301122
0.285169
0.293016
0.319641
0.290093
0.296665
0.488928
0.526323
0.66689
-0.266367
-0.396957
-0.434656
-0.407678
-0.368009
-0.365844
-0.235057
-0.105131
0.00635749
0.0352596
0.128816
0.104344
0.137533
0.151118
0.0735096
0.146083
0.152321
0.176855
0.355426
0.524806
-0.244789
-0.410119
-0.378995
-0.341319
-0.447005
-0.392599
-0.32296
-0.143547
-0.0581286
-0.14722
-0.0452614
0.0115424
-0.0405005
-0.0508325
-0.0546458
0.0217474
0.109841
0.0575605
0.235617
0.299501
-0.285465
-0.379714
-0.362799
-0.332731
-0.410895
-0.303381
-0.270976
-0.237902
-0.176329
-0.144014
-0.0951453
-0.0773442
-0.0673364
-0.077138
-0.0167936
-0.0863055
0.00683113
0.0387069
0.193084
0.21286
-0.128874
-0.255655
-0.267664
-0.327944
-0.255693
-0.332809
-0.198247
-0.205826
-0.115747
-0.172209
-0.118051
-0.0434644
-0.0775506
-0.0901282
-0.116511
-0.0569311
0.00039372
0.00569287
0.0612501
0.0393958
-0.0959545
-0.185341
-0.114303
-0.208413
-0.151334
-0.14892
-0.166485
-0.115572
-0.138543
-0.0849492
-0.0423024
-0.0524441
-0.122823
-0.0953669
-0.0701884
-0.109973
-0.0711303
0.00903569
0.00956972
0.0405734
-0.0876275
-0.0464784
-0.033105
-0.148805
-0.0163333
-0.0418945
-0.0453586
-0.0492012
-0.049537
-0.0265084
-0.0742892
-0.000888716
-0.0279977
-0.0888753
0.0231801
0.0357904
0.0130838
0.0613393
0.0257123
0.00634653
-0.850071
-0.882894
-1.00991
-1.09189
-1.0741
-0.967056
-0.921508
-0.698045
-0.686471
-0.590441
-0.494275
-0.553862
-0.478871
-0.461249
-0.490391
-0.41767
-0.372478
-0.240673
-0.0335512
0.178786
-0.883195
-1.00585
-1.0779
-1.13826
-1.13382
-1.08614
-0.983252
-0.906352
-0.808193
-0.718536
-0.69638
-0.588872
-0.671477
-0.622413
-0.55
-0.544748
-0.560667
-0.455558
-0.184192
-0.0806096
-0.831781
-0.945487
-1.13977
-1.15754
-1.12897
-1.09366
-0.968258
-0.92502
-0.856105
-0.836741
-0.737138
-0.645576
-0.758608
-0.740295
-0.636067
-0.669786
-0.58147
-0.390324
-0.347314
-0.202849
-0.728006
-0.848053
-0.954428
-1.05822
-0.987278
-0.990965
-0.922017
-0.857698
-0.7572
-0.708844
-0.706477
-0.701859
-0.643866
-0.66941
-0.702926
-0.617415
-0.524834
-0.497237
-0.339572
-0.215809
-0.671906
-0.730847
-0.817221
-0.840262
-0.855264
-0.781787
-0.767957
-0.816058
-0.690604
-0.701347
-0.589
-0.556524
-0.508883
-0.536117
-0.5349
-0.543032
-0.428577
-0.395405
-0.287131
-0.304673
-0.449695
-0.572458
-0.664557
-0.594642
-0.629438
-0.6187
-0.588204
-0.515357
-0.530292
-0.488051
-0.466843
-0.42957
-0.523827
-0.433654
-0.448578
-0.360047
-0.311651
-0.339736
-0.291079
-0.198051
-0.340724
-0.363368
-0.388206
-0.336914
-0.41467
-0.336834
-0.374967
-0.353671
-0.332551
-0.286404
-0.263065
-0.257002
-0.277287
-0.299506
-0.301132
-0.245776
-0.233734
-0.256189
-0.19488
-0.193302
-0.0706647
-0.109586
-0.0972539
-0.15073
-0.0941368
-0.146513
-0.142286
-0.0457047
-0.088421
-0.133135
-0.111633
-0.080582
-0.095957
-0.0862259
-0.0874124
-0.0742482
-0.148976
-0.0439035
-0.0355381
-0.0612947
-1.54305
-1.76795
-1.87624
-1.95639
-1.91909
-1.9797
-1.88661
-1.73656
-1.69295
-1.57911
-1.57935
-1.46889
-1.4266
-1.45498
-1.42137
-1.33833
-1.24051
-1.07808
-0.885467
-0.64545
-1.49761
-1.74659
-1.84015
-1.95085
-1.97752
-1.89526
-1.86974
-1.74973
-1.71641
-1.67891
-1.60743
-1.60146
-1.52731
-1.47317
-1.40173
-1.36287
-1.33283
-1.13368
-0.938185
-0.737278
-1.43881
-1.57388
-1.60877
-1.75538
-1.77045
-1.82204
-1.75171
-1.67116
-1.63997
-1.54442
-1.51507
-1.47563
-1.41077
-1.45607
-1.43695
-1.32943
-1.27211
-1.17137
-0.965624
-0.82605
-1.2055
-1.2751
-1.43729
-1.53197
-1.54755
-1.61597
-1.48847
-1.47011
-1.40155
-1.37119
-1.38178
-1.30699
-1.30392
-1.2749
-1.23861
-1.14186
-1.0844
-1.00174
-0.942815
-0.703534
-1.0008
-1.07085
-1.13135
-1.21653
-1.25013
-1.19385
-1.22137
-1.22332
-1.19189
-1.10972
-1.07354
-1.04386
-1.0972
-1.01946
-1.02882
-0.909352
-0.898859
-0.801295
-0.695593
-0.61575
-0.70802
-0.819617
-0.848899
-0.905911
-0.913666
-0.959152
-0.895828
-0.884648
-0.882898
-0.882264
-0.794095
-0.826041
-0.802403
-0.845273
-0.769137
-0.713887
-0.659896
-0.633492
-0.582364
-0.488031
-0.454341
-0.493367
-0.521999
-0.508653
-0.559262
-0.621545
-0.539731
-0.454802
-0.518854
-0.565946
-0.507785
-0.486577
-0.549266
-0.50396
-0.446204
-0.447154
-0.418304
-0.400392
-0.363747
-0.366857
-0.150504
-0.172603
-0.200416
-0.252744
-0.13142
-0.254516
-0.207737
-0.212047
-0.187302
-0.185913
-0.122499
-0.208309
-0.184082
-0.176328
-0.16042
-0.109987
-0.0816654
-0.0856476
-0.0933298
-0.0696502
-2.16367
-2.34357
-2.57262
-2.76498
-2.70932
-2.81317
-2.72083
-2.70517
-2.55853
-2.55465
-2.45389
-2.3912
-2.45602
-2.3087
-2.29101
-2.13604
-2.00464
-1.80411
-1.58267
-1.30207
-2.10412
-2.24615
-2.44599
-2.58642
-2.68378
-2.64322
-2.61266
-2.55026
-2.47355
-2.40325
-2.35722
-2.3656
-2.34206
-2.2839
-2.23188
-2.14171
-1.98337
-1.87919
-1.54007
-1.29108
-1.87067
-2.00469
-2.19199
-2.33663
-2.36578
-2.3969
-2.30134
-2.33675
-2.27626
-2.27285
-2.15124
-2.09006
-2.10605
-2.11733
-1.99648
-1.84796
-1.88203
-1.70062
-1.53525
-1.22211
-1.68222
-1.73932
-1.77845
-1.91698
-2.04201
-2.11162
-2.02756
-2.00489
-1.93007
-1.92751
-1.86695
-1.85967
-1.85346
-1.81204
-1.81336
-1.78183
-1.60912
-1.48786
-1.29723
-1.20065
-1.28934
-1.37142
-1.54795
-1.59399
-1.56651
-1.68278
-1.58253
-1.65117
-1.54588
-1.5407
-1.5696
-1.48529
-1.492
-1.41938
-1.44782
-1.39595
-1.27821
-1.20577
-1.01966
-0.948293
-0.907704
-0.957534
-1.08543
-1.19339
-1.27756
-1.21438
-1.18885
-1.20302
-1.27771
-1.1489
-1.13631
-1.09587
-1.1049
-1.13157
-1.02603
-0.983039
-0.955387
-0.866207
-0.774283
-0.729203
-0.576548
-0.605462
-0.691143
-0.66424
-0.729907
-0.682068
-0.73573
-0.744388
-0.754605
-0.715404
-0.677174
-0.695075
-0.674747
-0.634105
-0.640438
-0.594167
-0.608941
-0.517245
-0.563161
-0.414597
-0.212957
-0.194915
-0.252476
-0.26804
-0.253242
-0.249655
-0.290367
-0.193622
-0.213802
-0.200474
-0.249394
-0.194358
-0.182496
-0.214031
-0.216576
-0.205912
-0.161774
-0.152915
-0.176747
-0.122191
-2.66285
-2.92243
-3.14839
-3.3542
-3.39623
-3.49083
-3.4626
-3.4782
-3.44044
-3.3661
-3.31159
-3.25422
-3.19986
-3.17506
-3.00584
-2.90674
-2.74318
-2.50673
-2.18849
-1.96216
-2.43238
-2.79791
-3.01883
-3.05151
-3.22134
-3.28367
-3.24152
-3.25821
-3.20404
-3.15104
-3.21777
-3.08096
-2.97117
-2.94823
-2.85816
-2.74723
-2.55484
-2.39969
-2.12113
-1.83052
-2.20209
-2.40395
-2.5642
-2.69474
-2.92815
-2.96362
-2.94251
-2.93898
-2.81815
-2.84102
-2.76334
-2.77273
-2.67731
-2.63484
-2.55356
-2.45517
-2.35497
-2.15589
-1.92394
-1.63251
-1.8505
-2.04495
-2.18448
-2.33712
-2.44464
-2.49007
-2.44248
-2.43499
-2.43231
-2.43588
-2.35322
-2.37168
-2.37123
-2.21564
-2.15957
-2.12712
-2.03243
-1.81719
-1.64087
-1.49244
-1.58988
-1.6201
-1.75374
-1.84982
-1.93055
-1.99021
-2.02869
-1.96846
-1.95236
-1.98953
-1.96348
-1.88255
-1.94173
-1.85253
-1.6923
-1.64885
-1.62289
-1.46768
-1.35466
-1.16555
-1.1194
-1.12728
-1.30857
-1.33493
-1.40745
-1.44223
-1.47983
-1.40557
-1.41388
-1.40343
-1.37845
-1.35507
-1.29308
-1.33358
-1.29264
-1.24987
-1.17222
-1.04221
-1.06312
-0.867007
-0.706578
-0.715579
-0.696549
-0.785783
-0.849216
-0.893267
-0.884326
-0.914741
-0.861421
-0.825183
-0.818357
-0.877337
-0.802267
-0.877887
-0.748222
-0.790498
-0.698868
-0.731886
-0.642295
-0.495377
-0.281653
-0.230971
-0.259278
-0.29716
-0.286243
-0.300897
-0.313641
-0.35853
-0.337175
-0.327896
-0.253471
-0.248121
-0.250514
-0.336873
-0.298698
-0.216226
-0.199509
-0.238692
-0.191089
-0.216398
-3.03104
-3.31918
-3.62551
-3.79453
-3.9453
-4.04911
-4.11271
-4.10299
-4.09321
-4.03745
-3.96035
-3.93374
-3.88265
-3.80228
-3.62266
-3.4843
-3.27048
-2.9778
-2.59965
-2.30329
-2.85312
-3.06619
-3.27701
-3.58826
-3.68507
-3.78463
-3.72743
-3.8429
-3.75665
-3.71095
-3.6757
-3.64299
-3.5197
-3.53561
-3.335
-3.23923
-3.07553
-2.77081
-2.51032
-2.27215
-2.46163
-2.68997
-3.00109
-3.09676
-3.18822
-3.29391
-3.36351
-3.40486
-3.28124
-3.34885
-3.26459
-3.27642
-3.21558
-3.16978
-2.99892
-2.92926
-2.74163
-2.52914
-2.19126
-2.12807
-2.06732
-2.26325
-2.49666
-2.64922
-2.70906
-2.81708
-2.82131
-2.8356
-2.82872
-2.79261
-2.81021
-2.72956
-2.66071
-2.64757
-2.53078
-2.48705
-2.36056
-2.19102
-1.87851
-1.79743
-1.67281
-1.8562
-1.90566
-2.07554
-2.18838
-2.26935
-2.30524
-2.24601
-2.21231
-2.2817
-2.30482
-2.19371
-2.17654
-2.07507
-2.06497
-1.94987
-1.85066
-1.74315
-1.54625
-1.36346
-1.28861
-1.33147
-1.36847
-1.49741
-1.59384
-1.65265
-1.70177
-1.68413
-1.65703
-1.67797
-1.66197
-1.67814
-1.6319
-1.50359
-1.49953
-1.4322
-1.38083
-1.3367
-1.15059
-1.04415
-0.720267
-0.732269
-0.88617
-0.890274
-0.962422
-0.918016
-0.970963
-1.01583
-1.00911
-0.993175
-0.95338
-0.980039
-0.974313
-0.878492
-0.860399
-0.898476
-0.8529
-0.803265
-0.680612
-0.63437
-0.260348
-0.305271
-0.254226
-0.344775
-0.38627
-0.197307
-0.330639
-0.369221
-0.367914
-0.315968
-0.332486
-0.30752
-0.332353
-0.347273
-0.322389
-0.346314
-0.256846
-0.212044
-0.226868
-0.154034
-3.24899
-3.60552
-3.89981
-4.14324
-4.35039
-4.48045
-4.62296
-4.67554
-4.59979
-4.55537
-4.49587
-4.46392
-4.38536
-4.24611
-4.12963
-3.885
-3.6577
-3.32433
-3.00669
-2.63397
-3.01497
-3.30887
-3.46586
-3.78176
-4.03581
-4.02909
-4.20308
-4.27402
-4.25093
-4.24827
-4.14671
-4.08185
-3.93513
-3.94492
-3.82749
-3.58378
-3.41524
-3.06003
-2.82181
-2.43293
-2.60587
-2.88826
-3.14883
-3.33078
-3.4731
-3.69629
-3.65306
-3.75722
-3.69134
-3.75597
-3.70993
-3.63957
-3.59908
-3.47319
-3.34453
-3.21741
-3.03679
-2.75733
-2.41776
-2.21316
-2.15968
-2.45208
-2.65346
-2.83304
-2.98902
-3.03591
-3.11333
-3.14648
-3.17859
-3.11197
-3.04716
-3.12754
-3.02538
-2.96218
-2.88765
-2.7406
-2.60487
-2.38947
-2.13114
-1.93776
-1.72483
-1.90263
-2.10845
-2.27627
-2.3506
-2.43652
-2.44221
-2.51727
-2.52648
-2.46632
-2.47009
-2.44119
-2.41228
-2.335
-2.30942
-2.15042
-2.08892
-1.89126
-1.7214
-1.51145
-1.26943
-1.42171
-1.49193
-1.6162
-1.73556
-1.89877
-1.82512
-1.7888
-1.84254
-1.85516
-1.82612
-1.82508
-1.69171
-1.78388
-1.61916
-1.55134
-1.51521
-1.38253
-1.1792
-1.09657
-0.791944
-0.879061
-0.943234
-0.941512
-0.995527
-1.09648
-1.14162
-1.01865
-1.09898
-1.03761
-1.08441
-1.08608
-1.03828
-1.0523
-1.04722
-0.953076
-0.857576
-0.843368
-0.804785
-0.682079
-0.296256
-0.255277
-0.296311
-0.336792
-0.372302
-0.380312
-0.355424
-0.373158
-0.39179
-0.396025
-0.434692
-0.372238
-0.359964
-0.312991
-0.332404
-0.33335
-0.34763
-0.310842
-0.213028
-0.198894
-3.27886
-3.72747
-4.05394
-4.37947
-4.61096
-4.7442
-4.84375
-4.92156
-4.96387
-4.93952
-4.94074
-4.92489
-4.76853
-4.64772
-4.37997
-4.17352
-3.85469
-3.57076
-3.10299
-2.81168
-3.00202
-3.33193
-3.71274
-4.00204
-4.15332
-4.3107
-4.4259
-4.47843
-4.59948
-4.53919
-4.5436
-4.49552
-4.32427
-4.18976
-4.11079
-3.82757
-3.62903
-3.29364
-2.90143
-2.60457
-2.69619
-2.98106
-3.22398
-3.43885
-3.72305
-3.81648
-3.82072
-4.02262
-4.0521
-4.00828
-3.95853
-3.92081
-3.80948
-3.72899
-3.61598
-3.40816
-3.12051
-2.91353
-2.62591
-2.32317
-2.28803
-2.51803
-2.81897
-2.85578
-3.1133
-3.25044
-3.27372
-3.32385
-3.34944
-3.27859
-3.31205
-3.31488
-3.26519
-3.18776
-3.10743
-2.83853
-2.67523
-2.41475
-2.2272
-1.99961
-1.81287
-1.99837
-2.15713
-2.26858
-2.52643
-2.58141
-2.62715
-2.69054
-2.6526
-2.67899
-2.65929
-2.65819
-2.70596
-2.44209
-2.44988
-2.29884
-2.16687
-1.96497
-1.72912
-1.66994
-1.35469
-1.42201
-1.58418
-1.65884
-1.79465
-1.85392
-1.87738
-1.93463
-1.94447
-1.92097
-1.92923
-1.88996
-1.92939
-1.73247
-1.74987
-1.67912
-1.57521
-1.35071
-1.23756
-1.16859
-0.783057
-0.894089
-0.914247
-0.974309
-1.02583
-1.14147
-1.16609
-1.22756
-1.24869
-1.16425
-1.09921
-1.13769
-1.19275
-1.09542
-1.09976
-1.04896
-0.914213
-0.854505
-0.742682
-0.691395
-0.26843
-0.31604
-0.304849
-0.358576
-0.273697
-0.44394
-0.487102
-0.446189
-0.40275
-0.380284
-0.399977
-0.396035
-0.402526
-0.395679
-0.313802
-0.30378
-0.359196
-0.347093
-0.250747
-0.288652
-3.19282
-3.57798
-4.04148
-4.39971
-4.642
-4.93702
-5.05569
-5.06963
-5.18003
-5.20187
-5.17126
-5.05792
-4.95184
-4.83023
-4.57864
-4.31628
-3.97643
-3.55441
-3.14199
-2.73279
-2.85738
-3.31765
-3.70283
-4.03079
-4.21289
-4.35152
-4.55225
-4.64768
-4.69011
-4.67341
-4.67624
-4.54077
-4.49911
-4.40098
-4.20416
-3.90441
-3.64596
-3.37226
-2.91537
-2.54073
-2.59116
-2.86971
-3.16829
-3.48605
-3.73237
-3.9294
-4.07118
-4.09265
-4.19348
-4.14112
-4.18824
-4.04189
-4.0295
-3.88681
-3.69004
-3.51891
-3.3222
-2.93767
-2.61907
-2.26508
-2.24957
-2.52394
-2.68732
-2.89863
-3.14228
-3.26058
-3.37783
-3.49626
-3.49278
-3.50145
-3.51295
-3.44172
-3.30049
-3.27365
-3.09683
-2.98549
-2.73788
-2.48459
-2.19251
-2.00129
-1.81557
-1.93097
-2.21141
-2.35747
-2.50066
-2.57484
-2.65216
-2.796
-2.82759
-2.71336
-2.74862
-2.76017
-2.7128
-2.56581
-2.47642
-2.32074
-2.20523
-1.95634
-1.78844
-1.58108
-1.18836
-1.38743
-1.55786
-1.67455
-1.78439
-1.91131
-1.97576
-1.97845
-2.01271
-2.03619
-1.96506
-1.99106
-1.85846
-1.95789
-1.84304
-1.69046
-1.63361
-1.42648
-1.30782
-1.18464
-0.710779
-0.861005
-0.955437
-1.01899
-1.05655
-1.13837
-1.17303
-1.22234
-1.16474
-1.22472
-1.17385
-1.20057
-1.18313
-1.18737
-1.07879
-1.13805
-0.935353
-0.810686
-0.813566
-0.681955
-0.311096
-0.353352
-0.314347
-0.390269
-0.333824
-0.404732
-0.412053
-0.351923
-0.462355
-0.452922
-0.339028
-0.372359
-0.362536
-0.397138
-0.468646
-0.313716
-0.373385
-0.328671
-0.216336
-0.25679
-2.92571
-3.32885
-3.8435
-4.25087
-4.59552
-4.77665
-4.95423
-5.08062
-5.18769
-5.16516
-5.19913
-5.01253
-4.93797
-4.79333
-4.55775
-4.30637
-3.93233
-3.57478
-2.92234
-2.5522
-2.69198
-3.11731
-3.50756
-3.9225
-4.14136
-4.37479
-4.53689
-4.60317
-4.69463
-4.7459
-4.81393
-4.6644
-4.49953
-4.3864
-4.21292
-4.00994
-3.55531
-3.23673
-2.76608
-2.47607
-2.33135
-2.74447
-3.11576
-3.3818
-3.60246
-3.8507
-4.02294
-4.07993
-4.16346
-4.14758
-4.15744
-4.04781
-4.02564
-3.88669
-3.67216
-3.47964
-3.21031
-2.82872
-2.47858
-2.16477
-2.05264
-2.27162
-2.61914
-2.81031
-2.99362
-3.26423
-3.33081
-3.44625
-3.54887
-3.48311
-3.45477
-3.4584
-3.36565
-3.25518
-3.07631
-2.95745
-2.66425
-2.44238
-2.13341
-1.84361
-1.55499
-1.77141
-2.03552
-2.28168
-2.44228
-2.52813
-2.64999
-2.65314
-2.83235
-2.76522
-2.74884
-2.69679
-2.71504
-2.57783
-2.50868
-2.30514
-2.18661
-1.91453
-1.67141
-1.53072
-1.21886
-1.35295
-1.43237
-1.66909
-1.70217
-1.90643
-1.90383
-1.97864
-2.04694
-2.02877
-2.02132
-2.03407
-1.90387
-1.84627
-1.8229
-1.7147
-1.45351
-1.42117
-1.30541
-1.06398
-0.685072
-0.869964
-0.952051
-0.949311
-1.05941
-1.09587
-1.22431
-1.24716
-1.23503
-1.16938
-1.16811
-1.24386
-1.21122
-1.09904
-1.08577
-1.04417
-0.925715
-0.800148
-0.65928
-0.631308
-0.234654
-0.226562
-0.353291
-0.313069
-0.4309
-0.398118
-0.370838
-0.405208
-0.414345
-0.486571
-0.450826
-0.4876
-0.399913
-0.412767
-0.421156
-0.322645
-0.363407
-0.322041
-0.28345
-0.224111
-2.49816
-2.98301
-3.45279
-3.96705
-4.30529
-4.5746
-4.79532
-4.96312
-5.02665
-5.12168
-5.05496
-4.97092
-4.83432
-4.6651
-4.43135
-4.07663
-3.68121
-3.14307
-2.66234
-2.16582
-2.32471
-2.71508
-3.2056
-3.55683
-3.87893
-4.2041
-4.40461
-4.59029
-4.56097
-4.61114
-4.67256
-4.50523
-4.44406
-4.23238
-4.00244
-3.75556
-3.39513
-2.99101
-2.52409
-2.02671
-1.99123
-2.36129
-2.8185
-3.13411
-3.39222
-3.66369
-3.87458
-3.9819
-4.01028
-4.13151
-4.05563
-3.96982
-3.87624
-3.72022
-3.56697
-3.34338
-3.00195
-2.704
-2.24137
-1.8643
-1.75461
-2.032
-2.35388
-2.6691
-2.89496
-3.10255
-3.22649
-3.25369
-3.34095
-3.419
-3.43076
-3.34153
-3.34462
-3.11315
-2.9127
-2.7866
-2.55447
-2.21865
-1.87079
-1.57346
-1.43846
-1.55535
-1.84482
-2.10179
-2.38572
-2.46179
-2.58408
-2.63927
-2.70947
-2.67648
-2.78477
-2.69895
-2.62425
-2.51527
-2.39411
-2.20523
-2.02636
-1.86822
-1.49864
-1.30639
-1.01241
-1.17929
-1.35829
-1.60076
-1.61283
-1.80003
-1.8984
-1.90698
-1.93363
-1.89222
-1.91953
-1.95416
-1.8978
-1.82049
-1.67342
-1.56139
-1.42905
-1.34716
-1.14099
-0.993854
-0.602968
-0.713713
-0.88038
-0.923346
-0.976618
-1.14602
-1.13675
-1.12975
-1.15495
-1.1672
-1.28556
-1.21114
-1.20037
-1.14032
-1.079
-0.972359
-0.860051
-0.763616
-0.673713
-0.554443
-0.174096
-0.198176
-0.295476
-0.344196
-0.395672
-0.344364
-0.376902
-0.417341
-0.337705
-0.383747
-0.40267
-0.443351
-0.408134
-0.373079
-0.365872
-0.298261
-0.29597
-0.264458
-0.238713
-0.210659
-1.84813
-2.40865
-2.96729
-3.37739
-3.88909
-4.14349
-4.38857
-4.64
-4.68697
-4.73938
-4.76287
-4.63381
-4.54256
-4.31048
-4.0602
-3.63372
-3.30225
-2.75944
-2.16035
-1.64442
-1.79184
-2.18317
-2.69246
-3.19869
-3.50018
-3.83292
-4.06013
-4.19046
-4.21701
-4.33854
-4.24808
-4.32401
-4.14935
-3.98424
-3.70737
-3.36439
-3.01069
-2.55077
-2.09139
-1.59294
-1.56701
-2.03846
-2.40347
-2.80746
-3.09833
-3.35683
-3.5126
-3.68465
-3.72252
-3.74419
-3.8176
-3.64986
-3.64027
-3.49963
-3.27002
-3.02647
-2.65405
-2.27471
-1.84851
-1.50729
-1.40439
-1.70993
-2.00246
-2.37231
-2.59803
-2.82714
-3.08953
-3.09343
-3.14234
-3.18667
-3.16737
-3.16165
-3.06992
-2.92526
-2.73896
-2.54192
-2.28687
-1.92183
-1.58327
-1.35002
-1.13251
-1.35601
-1.58001
-1.85865
-2.09733
-2.21267
-2.34679
-2.51674
-2.54082
-2.61015
-2.54698
-2.57704
-2.4932
-2.31874
-2.19203
-2.05813
-1.78907
-1.56265
-1.33716
-1.00578
-0.875212
-1.01568
-1.18238
-1.35766
-1.46216
-1.64335
-1.72587
-1.79622
-1.85213
-1.80716
-1.82019
-1.83528
-1.76854
-1.67515
-1.58486
-1.46534
-1.3676
-1.11283
-0.984478
-0.84654
-0.504473
-0.618137
-0.746125
-0.792655
-0.909323
-0.960115
-1.0145
-0.989642
-1.09778
-1.09736
-1.08705
-1.11056
-1.06263
-0.963204
-0.950159
-0.952528
-0.765755
-0.647582
-0.546397
-0.504332
-0.217467
-0.159965
-0.242287
-0.226057
-0.352835
-0.295743
-0.369764
-0.398008
-0.406431
-0.411574
-0.385865
-0.313781
-0.362863
-0.343512
-0.303232
-0.280544
-0.259483
-0.243207
-0.169697
-0.170225
-1.10321
-1.64754
-2.27622
-2.7627
-3.27783
-3.57867
-3.86004
-4.06847
-4.20103
-4.26814
-4.2593
-4.1329
-4.01071
-3.77069
-3.51845
-3.06262
-2.62707
-2.17171
-1.56594
-1.01741
-1.15953
-1.55893
-2.10838
-2.59096
-3.00943
-3.38566
-3.55754
-3.81023
-3.74417
-3.95431
-3.89152
-3.85264
-3.69826
-3.48373
-3.22254
-2.9061
-2.44913
-2.02942
-1.48962
-1.03948
-1.03511
-1.47744
-1.89148
-2.29691
-2.66835
-2.87811
-3.14887
-3.26281
-3.38602
-3.45486
-3.41689
-3.3111
-3.19673
-3.05753
-2.84871
-2.62296
-2.3091
-1.89184
-1.38382
-1.01865
-0.956704
-1.2652
-1.56818
-1.98291
-2.19849
-2.42665
-2.67887
-2.74917
-2.86837
-2.90767
-2.88858
-2.79467
-2.67282
-2.58869
-2.36993
-2.17893
-1.91674
-1.59006
-1.14759
-0.887013
-0.702944
-0.931449
-1.31508
-1.55858
-1.7719
-1.88698
-2.07688
-2.19584
-2.22962
-2.29053
-2.28872
-2.23892
-2.21042
-2.09617
-1.98439
-1.7827
-1.49194
-1.25874
-0.968427
-0.658345
-0.558091
-0.70535
-0.94969
-1.11835
-1.38473
-1.39828
-1.49935
-1.59335
-1.55916
-1.69761
-1.6252
-1.65447
-1.56692
-1.51094
-1.36788
-1.30164
-1.11367
-0.890946
-0.694096
-0.530985
-0.373812
-0.355369
-0.494074
-0.626055
-0.831029
-0.826329
-0.918707
-0.960467
-1.01194
-1.07449
-0.980854
-1.02907
-0.966111
-0.961604
-0.797233
-0.853571
-0.677226
-0.618146
-0.461206
-0.347899
-0.0916557
-0.117243
-0.157229
-0.222373
-0.326171
-0.305281
-0.338854
-0.326035
-0.338509
-0.420414
-0.326155
-0.337669
-0.302275
-0.345004
-0.281453
-0.358033
-0.222419
-0.210816
-0.0903761
-0.135583
-0.177707
-0.797426
-1.36534
-1.93868
-2.41748
-2.88575
-3.16376
-3.38584
-3.46882
-3.53806
-3.50023
-3.43248
-3.36752
-3.12694
-2.8223
-2.32898
-1.97105
-1.35352
-0.688123
-0.145004
-0.325006
-0.861573
-1.34034
-1.84747
-2.29303
-2.62231
-2.93368
-3.10818
-3.21273
-3.2853
-3.24178
-3.1766
-3.11993
-2.86341
-2.63082
-2.26253
-1.91056
-1.31845
-0.814648
-0.337001
-0.362149
-0.804119
-1.19771
-1.63645
-1.97723
-2.30252
-2.50278
-2.77564
-2.83846
-2.8755
-2.91106
-2.92625
-2.72402
-2.57807
-2.2519
-2.06921
-1.68684
-1.19789
-0.714606
-0.39645
-0.332621
-0.677275
-1.08403
-1.43655
-1.70832
-1.97466
-2.12318
-2.2594
-2.33477
-2.4953
-2.49539
-2.40529
-2.35823
-2.18523
-1.99302
-1.71517
-1.43207
-1.01531
-0.774255
-0.375758
-0.317282
-0.603507
-0.928021
-1.18975
-1.4035
-1.595
-1.77414
-1.80534
-1.91093
-2.00255
-1.9556
-1.90893
-1.87307
-1.77922
-1.56554
-1.37644
-1.12564
-0.82015
-0.611503
-0.370978
-0.244095
-0.384512
-0.594495
-0.915797
-0.888798
-1.13524
-1.25257
-1.32953
-1.46337
-1.40731
-1.45932
-1.33355
-1.34836
-1.24464
-1.19753
-1.0653
-0.905793
-0.662468
-0.408243
-0.327188
-0.159856
-0.213604
-0.340289
-0.538045
-0.659951
-0.676764
-0.751549
-0.788056
-0.853635
-0.846147
-0.818682
-0.859044
-0.766765
-0.8154
-0.665024
-0.636917
-0.600167
-0.438402
-0.241389
-0.224407
-0.0573458
-0.047758
-0.117545
-0.181375
-0.208369
-0.305323
-0.237707
-0.362851
-0.296058
-0.255922
-0.317412
-0.279455
-0.274644
-0.267558
-0.173635
-0.188834
-0.221774
-0.190795
-0.111506
-0.0993544
0.846228
0.192213
-0.398256
-0.95118
-1.4613
-1.89734
-2.26066
-2.49736
-2.69502
-2.74306
-2.78606
-2.6221
-2.54262
-2.22976
-1.94216
-1.50705
-1.04372
-0.364364
0.207874
0.847135
0.623701
0.119824
-0.496876
-1.0296
-1.48581
-1.86006
-2.06613
-2.34418
-2.52311
-2.52265
-2.55383
-2.44622
-2.34467
-2.11567
-1.83752
-1.51202
-0.988411
-0.495868
-0.0143797
0.503818
0.395596
-0.0400217
-0.492019
-0.958892
-1.35916
-1.60528
-1.89607
-2.08355
-2.23979
-2.2476
-2.28968
-2.26551
-2.13518
-1.89422
-1.63022
-1.41396
-0.995652
-0.522553
-0.126504
0.353713
0.254613
-0.0499958
-0.418688
-0.808518
-1.12685
-1.36439
-1.64334
-1.77261
-1.90934
-1.90422
-1.95236
-1.93344
-1.85111
-1.67339
-1.46686
-1.16705
-0.882315
-0.477332
-0.162619
0.192443
0.274561
-0.0990539
-0.394903
-0.759793
-0.925269
-1.1411
-1.32669
-1.4704
-1.50093
-1.54429
-1.60705
-1.50901
-1.45259
-1.33567
-1.12773
-0.974706
-0.678662
-0.427891
-0.111352
0.12838
0.0347059
-0.102369
-0.332264
-0.491075
-0.734
-0.859001
-1.0444
-1.01172
-1.10342
-1.16571
-1.14322
-1.10642
-1.03306
-0.946455
-0.87717
-0.717069
-0.554731
-0.396176
-0.162495
0.121741
0.105005
-0.0416927
-0.190015
-0.370933
-0.432322
-0.553811
-0.574898
-0.653684
-0.65771
-0.660069
-0.715633
-0.681944
-0.585885
-0.58511
-0.514585
-0.499302
-0.367813
-0.240549
-0.0295795
-0.00883399
-0.02113
-0.0116577
-0.102991
-0.0817785
-0.113396
-0.159495
-0.157663
-0.138782
-0.271387
-0.200304
-0.254127
-0.201971
-0.259413
-0.150215
-0.270772
-0.176947
-0.119666
-0.0836421
-0.0371284
-0.028249
1.92151
1.29196
0.64114
0.0373573
-0.617842
-0.975925
-1.34733
-1.64032
-1.7622
-1.90209
-1.81886
-1.72686
-1.63976
-1.40085
-1.03971
-0.58091
-0.0466267
0.540154
1.2042
1.83555
1.53203
0.944186
0.3538
-0.177465
-0.606822
-1.07635
-1.38905
-1.57185
-1.70975
-1.79345
-1.75918
-1.71268
-1.59775
-1.3461
-1.08409
-0.683192
-0.256186
0.237023
0.89811
1.46025
1.1576
0.718675
0.221434
-0.211475
-0.623077
-1.01071
-1.31031
-1.43134
-1.58273
-1.66731
-1.67547
-1.59335
-1.53499
-1.29232
-1.05759
-0.703877
-0.381138
0.157185
0.644344
1.0258
0.873107
0.518453
0.0761852
-0.251208
-0.62459
-0.868043
-1.07714
-1.30999
-1.42341
-1.41241
-1.49595
-1.37637
-1.41369
-1.21046
-0.89274
-0.678941
-0.310826
0.00595538
0.408771
0.805242
0.683648
0.398124
0.0597663
-0.266124
-0.47741
-0.714712
-0.892724
-1.03097
-1.07319
-1.10223
-1.12084
-1.11964
-1.09727
-0.987796
-0.781707
-0.595938
-0.278997
0.0583295
0.306922
0.605824
0.47644
0.281912
0.0378918
-0.112596
-0.395895
-0.554818
-0.646502
-0.797834
-0.74911
-0.858184
-0.88593
-0.865218
-0.77974
-0.682929
-0.56828
-0.474921
-0.24904
-0.11473
0.205997
0.417283
0.294132
0.190414
-0.0313789
-0.124313
-0.200728
-0.343083
-0.41644
-0.460909
-0.444288
-0.556793
-0.525379
-0.548828
-0.469782
-0.433964
-0.321817
-0.247627
-0.137851
-0.0683842
0.106106
0.238353
0.102429
0.018632
0.0375183
0.00587276
-0.0895701
-0.140897
-0.175329
-0.217481
-0.154387
-0.11847
-0.18879
-0.188346
-0.164607
-0.102871
-0.123568
0.00774995
0.0102349
-0.0832332
0.0193985
0.0804313
2.84742
2.13891
1.48012
0.806592
0.258226
-0.189547
-0.578274
-0.806202
-1.08621
-1.06578
-1.1201
-0.969997
-0.889255
-0.634822
-0.282101
0.171219
0.735924
1.4122
2.02417
2.6866
2.27122
1.65392
1.03884
0.503966
0.0931752
-0.427581
-0.716365
-1.00918
-1.11418
-1.14127
-1.13429
-1.09329
-0.949054
-0.784651
-0.417279
-0.0742432
0.398705
0.931726
1.56888
2.06078
1.81272
1.32354
0.744644
0.273597
-0.143787
-0.46196
-0.72318
-1.00352
-1.08726
-1.13886
-1.15651
-1.08475
-1.00789
-0.825665
-0.565241
-0.192932
0.279114
0.696032
1.22156
1.63773
1.29456
1.01552
0.588835
0.0801541
-0.232021
-0.512034
-0.73836
-0.877036
-1.012
-1.01191
-1.09039
-1.02619
-0.882088
-0.770811
-0.553977
-0.260338
0.098492
0.450102
0.921191
1.20316
1.01846
0.710943
0.456784
0.100972
-0.228225
-0.422288
-0.62877
-0.703821
-0.886828
-0.902244
-0.889625
-0.856906
-0.746486
-0.645603
-0.485557
-0.218907
0.0166261
0.306691
0.637254
0.865881
0.719794
0.537478
0.259604
0.0733522
-0.159338
-0.337808
-0.446141
-0.503131
-0.625467
-0.586929
-0.669206
-0.608974
-0.523117
-0.492406
-0.463297
-0.198576
-0.0243463
0.190063
0.52891
0.663132
0.393587
0.233341
0.129818
0.0708997
-0.128753