/*--------------------------------*- C++ -*----------------------------------*\
| =========                 |                                                 |
| \\      /  F ield         | OpenFOAM: The Open Source CFD Toolbox           |
|  \\    /   O peration     | Version:  2212                                  |
|   \\  /    A nd           | Website:  www.openfoam.com                      |
|    \\/     M anipulation  |                                                 |
\*---------------------------------------------------------------------------*/
FoamFile
{
    version     2.0;
    format      ascii;
    arch        "LSB;label=32;scalar=64";
    class       volScalarField;
    location    "0";
    object      Ttrue;
}
// * * * * * * * * * * * * * * * * * * * * * * * * * * * * * * * * * * * * * //

dimensions      [0 0 0 1 0 0 0];

internalField   nonuniform List<scalar> 
3200
(
343.064
344.009
345.216
346.532
347.887
349.217
350.445
351.481
352.236
352.635
352.635
352.236
351.481
350.445
349.217
347.887
346.532
345.216
344.009
343.064
337.351
338.152
339.193
340.331
341.504
342.654
343.716
344.611
345.263
345.607
345.607
345.263
344.611
343.716
342.654
341.504
340.331
339.193
338.152
337.351
331.628
332.292
333.169
334.131
335.122
336.093
336.99
337.745
338.295
338.586
338.586
338.295
337.745
336.99
336.093
335.122
334.131
333.169
332.292
331.628
325.894
326.429
327.144
327.93
328.74
329.534
330.266
330.883
331.332
331.569
331.569
331.332
330.883
330.266
329.534
328.74
327.93
327.144
326.429
325.894
320.153
320.564
321.118
321.729
322.359
322.976
323.545
324.024
324.372
324.556
324.556
324.372
324.024
323.545
322.976
322.359
321.729
321.118
320.564
320.153
314.406
314.697
315.092
315.528
315.978
316.419
316.825
317.167
317.415
317.546
317.546
317.415
317.167
316.825
316.419
315.978
315.528
315.092
314.697
314.406
308.655
308.829
309.066
309.328
309.597
309.862
310.106
310.311
310.46
310.539
310.539
310.46
310.311
310.106
309.862
309.597
309.328
309.066
308.829
308.655
302.902
302.96
303.039
303.127
303.217
303.306
303.387
303.456
303.506
303.533
303.533
303.506
303.456
303.387
303.306
303.217
303.127
303.039
302.96
302.902
343.17
344.108
345.304
346.608
347.949
349.264
350.478
351.501
352.246
352.64
352.64
352.246
351.501
350.478
349.264
347.949
346.608
345.304
344.108
343.17
337.443
338.237
339.269
340.397
341.558
342.695
343.744
344.629
345.272
345.612
345.612
345.272
344.629
343.744
342.695
341.558
340.397
339.269
338.237
337.443
331.705
332.364
333.233
334.186
335.167
336.128
337.014
337.76
338.303
338.59
338.59
338.303
337.76
337.014
336.128
335.167
334.186
333.233
332.364
331.705
325.957
326.488
327.197
327.975
328.777
329.563
330.286
330.896
331.339
331.573
331.573
331.339
330.896
330.286
329.563
328.777
327.975
327.197
326.488
325.957
320.202
320.61
321.159
321.764
322.388
322.998
323.56
324.034
324.378
324.559
324.559
324.378
324.034
323.56
322.998
322.388
321.764
321.159
320.61
320.202
314.441
314.73
315.122
315.554
315.999
316.435
316.836
317.174
317.419
317.549
317.549
317.419
317.174
316.836
316.435
315.999
315.554
315.122
314.73
314.441
308.676
308.848
309.083
309.343
309.61
309.872
310.112
310.315
310.463
310.54
310.54
310.463
310.315
310.112
309.872
309.61
309.343
309.083
308.848
308.676
302.909
302.966
303.045
303.132
303.221
303.309
303.39
303.458
303.507
303.533
303.533
303.507
303.458
303.39
303.309
303.221
303.132
303.045
302.966
302.909
343.383
344.306
345.482
346.761
348.076
349.363
350.548
351.546
352.272
352.656
352.656
352.272
351.546
350.548
349.363
348.076
346.761
345.482
344.306
343.383
337.627
338.409
339.423
340.53
341.667
342.781
343.806
344.668
345.296
345.627
345.627
345.296
344.668
343.806
342.781
341.667
340.53
339.423
338.409
337.627
331.86
332.509
333.363
334.299
335.26
336.201
337.066
337.794
338.324
338.603
338.603
338.324
337.794
337.066
336.201
335.26
334.299
333.363
332.509
331.86
326.084
326.606
327.303
328.067
328.853
329.622
330.329
330.924
331.356
331.583
331.583
331.356
330.924
330.329
329.622
328.853
328.067
327.303
326.606
326.084
320.301
320.702
321.242
321.836
322.447
323.044
323.594
324.055
324.391
324.568
324.568
324.391
324.055
323.594
323.044
322.447
321.836
321.242
320.702
320.301
314.512
314.795
315.181
315.605
316.041
316.468
316.86
317.189
317.429
317.555
317.555
317.429
317.189
316.86
316.468
316.041
315.605
315.181
314.795
314.512
308.718
308.888
309.119
309.373
309.635
309.891
310.127
310.325
310.468
310.544
310.544
310.468
310.325
310.127
309.891
309.635
309.373
309.119
308.888
308.718
302.923
302.979
303.057
303.142
303.23
303.316
303.395
303.461
303.509
303.534
303.534
303.509
303.461
303.395
303.316
303.23
303.142
303.057
302.979
302.923
343.705
344.606
345.753
346.997
348.273
349.519
350.663
351.626
352.325
352.693
352.693
352.325
351.626
350.663
349.519
348.273
346.997
345.753
344.606
343.705
337.905
338.668
339.658
340.734
341.838
342.916
343.906
344.738
345.342
345.66
345.66
345.342
344.738
343.906
342.916
341.838
340.734
339.658
338.668
337.905
332.095
332.728
333.562
334.471
335.404
336.315
337.151
337.854
338.363
338.632
338.632
338.363
337.854
337.151
336.315
335.404
334.471
333.562
332.728
332.095
326.276
326.786
327.465
328.209
328.971
329.716
330.399
330.973
331.389
331.608
331.608
331.389
330.973
330.399
329.716
328.971
328.209
327.465
326.786
326.276
320.45
320.841
321.368
321.946
322.539
323.117
323.648
324.094
324.417
324.587
324.587
324.417
324.094
323.648
323.117
322.539
321.946
321.368
320.841
320.45
314.618
314.895
315.271
315.683
316.107
316.52
316.899
317.217
317.447
317.569
317.569
317.447
317.217
316.899
316.52
316.107
315.683
315.271
314.895
314.618
308.782
308.947
309.173
309.421
309.675
309.923
310.15
310.341
310.48
310.552
310.552
310.48
310.341
310.15
309.923
309.675
309.421
309.173
308.947
308.782
302.944
302.999
303.075
303.158
303.243
303.326
303.402
303.466
303.513
303.537
303.537
303.513
303.466
303.402
303.326
303.243
303.158
303.075
302.999
302.944
344.138
345.012
346.121
347.321
348.547
349.741
350.835
351.753
352.418
352.768
352.768
352.418
351.753
350.835
349.741
348.547
347.321
346.121
345.012
344.138
338.28
339.02
339.976
341.015
342.076
343.109
344.056
344.849
345.423
345.726
345.726
345.423
344.849
344.056
343.109
342.076
341.015
339.976
339.02
338.28
332.411
333.025
333.831
334.708
335.606
336.479
337.278
337.948
338.433
338.688
338.688
338.433
337.948
337.278
336.479
335.606
334.708
333.831
333.025
332.411
326.534
327.028
327.685
328.402
329.136
329.85
330.503
331.05
331.446
331.655
331.655
331.446
331.05
330.503
329.85
329.136
328.402
327.685
327.028
326.534
320.65
321.03
321.539
322.097
322.667
323.222
323.729
324.154
324.462
324.624
324.624
324.462
324.154
323.729
323.222
322.667
322.097
321.539
321.03
320.65
314.761
315.03
315.393
315.791
316.198
316.594
316.957
317.26
317.48
317.595
317.595
317.48
317.26
316.957
316.594
316.198
315.791
315.393
315.03
314.761
308.868
309.028
309.246
309.485
309.73
309.968
310.185
310.367
310.499
310.568
310.568
310.499
310.367
310.185
309.968
309.73
309.485
309.246
309.028
308.868
302.973
303.026
303.099
303.18
303.262
303.341
303.414
303.475
303.519
303.543
303.543
303.519
303.475
303.414
303.341
303.262
303.18
303.099
303.026
302.973
344.687
345.528
346.593
347.74
348.909
350.042
351.077
351.943
352.569
352.898
352.898
352.569
351.943
351.077
350.042
348.909
347.74
346.593
345.528
344.687
338.754
339.466
340.384
341.378
342.389
343.37
344.266
345.014
345.555
345.84
345.84
345.555
345.014
344.266
343.37
342.389
341.378
340.384
339.466
338.754
332.812
333.402
334.176
335.015
335.87
336.7
337.457
338.089
338.545
338.786
338.786
338.545
338.089
337.457
336.7
335.87
335.015
334.176
333.402
332.812
326.861
327.337
327.967
328.653
329.353
330.031
330.649
331.165
331.539
331.735
331.735
331.539
331.165
330.649
330.031
329.353
328.653
327.967
327.337
326.861
320.904
321.269
321.758
322.292
322.835
323.362
323.843
324.244
324.534
324.686
324.686
324.534
324.244
323.843
323.362
322.835
322.292
321.758
321.269
320.904
314.942
315.201
315.549
315.93
316.319
316.695
317.038
317.325
317.532
317.64
317.64
317.532
317.325
317.038
316.695
316.319
315.93
315.549
315.201
314.942
308.977
309.131
309.34
309.569
309.802
310.028
310.234
310.406
310.53
310.595
310.595
310.53
310.406
310.234
310.028
309.802
309.569
309.34
309.131
308.977
303.009
303.061
303.131
303.208
303.286
303.361
303.431
303.488
303.53
303.552
303.552
303.53
303.488
303.431
303.361
303.286
303.208
303.131
303.061
303.009
345.355
346.159
347.174
348.263
349.367
350.434
351.405
352.213
352.796
353.103
353.103
352.796
352.213
351.405
350.434
349.367
348.263
347.174
346.159
345.355
339.332
340.012
340.887
341.83
342.786
343.71
344.55
345.249
345.754
346.018
346.018
345.754
345.249
344.55
343.71
342.786
341.83
340.887
340.012
339.332
333.299
333.864
334.601
335.398
336.206
336.987
337.697
338.288
338.714
338.937
338.937
338.714
338.288
337.697
336.987
336.206
335.398
334.601
333.864
333.299
327.259
327.714
328.315
328.966
329.627
330.266
330.846
331.329
331.677
331.859
331.859
331.677
331.329
330.846
330.266
329.627
328.966
328.315
327.714
327.259
321.213
321.562
322.029
322.535
323.049
323.545
323.996
324.372
324.642
324.784
324.784
324.642
324.372
323.996
323.545
323.049
322.535
322.029
321.562
321.213
315.163
315.41
315.742
316.104
316.471
316.826
317.148
317.416
317.609
317.71
317.71
317.609
317.416
317.148
316.826
316.471
316.104
315.742
315.41
315.163
309.109
309.257
309.456
309.673
309.894
310.107
310.3
310.461
310.577
310.637
310.637
310.577
310.461
310.3
310.107
309.894
309.673
309.456
309.257
309.109
303.054
303.103
303.17
303.243
303.316
303.388
303.453
303.507
303.545
303.566
303.566
303.545
303.507
303.453
303.388
303.316
303.243
303.17
303.103
303.054
346.147
346.911
347.871
348.897
349.933
350.929
351.832
352.581
353.12
353.402
353.402
353.12
352.581
351.832
350.929
349.933
348.897
347.871
346.911
346.147
340.016
340.662
341.491
342.379
343.276
344.139
344.92
345.568
346.034
346.278
346.278
346.034
345.568
344.92
344.139
343.276
342.379
341.491
340.662
340.016
333.877
334.413
335.111
335.862
336.621
337.35
338.01
338.558
338.952
339.158
339.158
338.952
338.558
338.01
337.35
336.621
335.862
335.111
334.413
333.877
327.731
328.163
328.732
329.346
329.966
330.563
331.102
331.55
331.872
332.04
332.04
331.872
331.55
331.102
330.563
329.966
329.346
328.732
328.163
327.731
321.58
321.911
322.353
322.83
323.312
323.776
324.196
324.544
324.794
324.925
324.925
324.794
324.544
324.196
323.776
323.312
322.83
322.353
321.911
321.58
315.425
315.659
315.974
316.315
316.659
316.991
317.29
317.539
317.717
317.811
317.811
317.717
317.539
317.29
316.991
316.659
316.315
315.974
315.659
315.425
309.266
309.406
309.595
309.8
310.007
310.206
310.386
310.535
310.642
310.698
310.698
310.642
310.535
310.386
310.206
310.007
309.8
309.595
309.406
309.266
303.106
303.153
303.216
303.285
303.354
303.421
303.481
303.531
303.567
303.586
303.586
303.567
303.531
303.481
303.421
303.354
303.285
303.216
303.153
303.106
347.066
347.788
348.691
349.652
350.617
351.541
352.374
353.063
353.556
353.815
353.815
353.556
353.063
352.374
351.541
350.617
349.652
348.691
347.788
347.066
340.811
341.421
342.201
343.033
343.869
344.669
345.39
345.986
346.413
346.637
346.637
346.413
345.986
345.39
344.669
343.869
343.033
342.201
341.421
340.811
334.548
335.054
335.711
336.414
337.122
337.798
338.408
338.912
339.273
339.462
339.462
339.273
338.912
338.408
337.798
337.122
336.414
335.711
335.054
334.548
328.279
328.687
329.222
329.797
330.376
330.929
331.428
331.84
332.135
332.289
332.289
332.135
331.84
331.428
330.929
330.376
329.797
329.222
328.687
328.279
322.006
322.319
322.734
323.181
323.631
324.061
324.449
324.769
324.998
325.118
325.118
324.998
324.769
324.449
324.061
323.631
323.181
322.734
322.319
322.006
315.728
315.95
316.246
316.565
316.887
317.194
317.471
317.7
317.864
317.949
317.949
317.864
317.7
317.471
317.194
316.887
316.565
316.246
315.95
315.728
309.449
309.581
309.759
309.95
310.143
310.328
310.494
310.632
310.73
310.781
310.781
310.73
310.632
310.494
310.328
310.143
309.95
309.759
309.581
309.449
303.168
303.212
303.271
303.335
303.4
303.462
303.518
303.564
303.597
303.614
303.614
303.597
303.564
303.518
303.462
303.4
303.335
303.271
303.212
303.168
348.118
348.796
349.641
350.536
351.43
352.281
353.045
353.674
354.123
354.358
354.358
354.123
353.674
353.045
352.281
351.43
350.536
349.641
348.796
348.118
341.72
342.294
343.023
343.798
344.572
345.309
345.971
346.515
346.905
347.108
347.108
346.905
346.515
345.971
345.309
344.572
343.798
343.023
342.294
341.72
335.316
335.792
336.406
337.061
337.716
338.34
338.899
339.36
339.689
339.86
339.86
339.689
339.36
338.899
338.34
337.716
337.061
336.406
335.792
335.316
328.906
329.289
329.79
330.326
330.862
331.372
331.83
332.206
332.475
332.615
332.615
332.475
332.206
331.83
331.372
330.862
330.326
329.79
329.289
328.906
322.493
322.787
323.176
323.592
324.009
324.406
324.761
325.054
325.263
325.372
325.372
325.263
325.054
324.761
324.406
324.009
323.592
323.176
322.787
322.493
316.076
316.285
316.562
316.859
317.157
317.44
317.694
317.904
318.053
318.131
318.131
318.053
317.904
317.694
317.44
317.157
316.859
316.562
316.285
316.076
309.658
309.782
309.948
310.127
310.305
310.476
310.628
310.754
310.844
310.89
310.89
310.844
310.754
310.628
310.476
310.305
310.127
309.948
309.782
309.658
303.238
303.279
303.335
303.395
303.454
303.512
303.563
303.605
303.635
303.651
303.651
303.635
303.605
303.563
303.512
303.454
303.395
303.335
303.279
303.238
349.307
349.941
350.728
351.556
352.38
353.16
353.856
354.428
354.834
355.046
355.046
354.834
354.428
353.856
353.16
352.38
351.556
350.728
349.941
349.307
342.748
343.284
343.963
344.681
345.394
346.07
346.674
347.168
347.521
347.704
347.704
347.521
347.168
346.674
346.07
345.394
344.681
343.963
343.284
342.748
336.184
336.629
337.201
337.808
338.411
338.983
339.493
339.912
340.21
340.365
340.365
340.21
339.912
339.493
338.983
338.411
337.808
337.201
336.629
336.184
329.615
329.974
330.44
330.936
331.43
331.898
332.315
332.658
332.901
333.028
333.028
332.901
332.658
332.315
331.898
331.43
330.936
330.44
329.974
329.615
323.044
323.319
323.681
324.066
324.451
324.815
325.139
325.405
325.595
325.693
325.693
325.595
325.405
325.139
324.815
324.451
324.066
323.681
323.319
323.044
316.47
316.664
316.922
317.198
317.472
317.732
317.964
318.154
318.29
318.36
318.36
318.29
318.154
317.964
317.732
317.472
317.198
316.922
316.664
316.47
309.894
310.01
310.165
310.33
310.495
310.651
310.79
310.905
310.986
311.028
311.028
310.986
310.905
310.79
310.651
310.495
310.33
310.165
310.01
309.894
303.317
303.355
303.407
303.463
303.518
303.57
303.617
303.655
303.683
303.697
303.697
303.683
303.655
303.617
303.57
303.518
303.463
303.407
303.355
303.317
350.636
351.226
351.956
352.72
353.475
354.186
354.819
355.335
355.702
355.892
355.892
355.702
355.335
354.819
354.186
353.475
352.72
351.956
351.226
350.636
343.897
344.397
345.026
345.688
346.342
346.959
347.507
347.954
348.272
348.437
348.437
348.272
347.954
347.507
346.959
346.342
345.688
345.026
344.397
343.897
337.154
337.569
338.099
338.659
339.213
339.734
340.198
340.576
340.845
340.984
340.984
340.845
340.576
340.198
339.734
339.213
338.659
338.099
337.569
337.154
330.409
330.742
331.174
331.632
332.085
332.512
332.891
333.201
333.421
333.535
333.535
333.421
333.201
332.891
332.512
332.085
331.632
331.174
330.742
330.409
323.66
323.916
324.252
324.607
324.96
325.292
325.587
325.828
325.999
326.087
326.087
325.999
325.828
325.587
325.292
324.96
324.607
324.252
323.916
323.66
316.91
317.091
317.33
317.584
317.836
318.073
318.284
318.456
318.578
318.642
318.642
318.578
318.456
318.284
318.073
317.836
317.584
317.33
317.091
316.91
310.158
310.266
310.409
310.562
310.713
310.856
310.982
311.086
311.159
311.197
311.197
311.159
311.086
310.982
310.856
310.713
310.562
310.409
310.266
310.158
303.405
303.441
303.489
303.54
303.591
303.639
303.681
303.716
303.741
303.753
303.753
303.741
303.716
303.681
303.639
303.591
303.54
303.489
303.441
303.405
352.109
352.657
353.33
354.032
354.722
355.368
355.94
356.405
356.734
356.905
356.905
356.734
356.405
355.94
355.368
354.722
354.032
353.33
352.657
352.109
345.171
345.635
346.216
346.823
347.421
347.982
348.477
348.88
349.166
349.313
349.313
349.166
348.88
348.477
347.982
347.421
346.823
346.216
345.635
345.171
338.23
338.615
339.104
339.619
340.125
340.599
341.018
341.359
341.6
341.726
341.726
341.6
341.359
341.018
340.599
340.125
339.619
339.104
338.615
338.23
331.288
331.597
331.996
332.417
332.831
333.219
333.562
333.841
334.038
334.141
334.141
334.038
333.841
333.562
333.219
332.831
332.417
331.996
331.597
331.288
324.343
324.581
324.89
325.217
325.539
325.841
326.108
326.325
326.479
326.559
326.559
326.479
326.325
326.108
325.841
325.539
325.217
324.89
324.581
324.343
317.397
317.565
317.786
318.02
318.25
318.466
318.657
318.812
318.921
318.978
318.978
318.921
318.812
318.657
318.466
318.25
318.02
317.786
317.565
317.397
310.451
310.551
310.683
310.824
310.962
311.091
311.206
311.299
311.365
311.399
311.399
311.365
311.299
311.206
311.091
310.962
310.824
310.683
310.551
310.451
303.503
303.537
303.581
303.628
303.674
303.718
303.756
303.788
303.81
303.821
303.821
303.81
303.788
303.756
303.718
303.674
303.628
303.581
303.537
303.503
353.727
354.234
354.854
355.497
356.125
356.711
357.226
357.644
357.938
358.091
358.091
357.938
357.644
357.226
356.711
356.125
355.497
354.854
354.234
353.727
346.571
346.999
347.534
348.091
348.636
349.143
349.59
349.952
350.207
350.34
350.34
350.207
349.952
349.59
349.143
348.636
348.091
347.534
346.999
346.571
339.413
339.768
340.219
340.69
341.151
341.58
341.959
342.265
342.481
342.593
342.593
342.481
342.265
341.959
341.58
341.151
340.69
340.219
339.768
339.413
332.253
332.539
332.907
333.292
333.669
334.021
334.331
334.581
334.758
334.85
334.85
334.758
334.581
334.331
334.021
333.669
333.292
332.907
332.539
332.253
325.094
325.313
325.598
325.898
326.191
326.465
326.706
326.901
327.038
327.11
327.11
327.038
326.901
326.706
326.465
326.191
325.898
325.598
325.313
325.094
317.933
318.088
318.292
318.506
318.715
318.911
319.083
319.223
319.321
319.372
319.372
319.321
319.223
319.083
318.911
318.715
318.506
318.292
318.088
317.933
310.772
310.865
310.987
311.115
311.241
311.359
311.462
311.546
311.605
311.635
311.635
311.605
311.546
311.462
311.359
311.241
311.115
310.987
310.865
310.772
303.611
303.642
303.683
303.726
303.768
303.808
303.842
303.87
303.89
303.9
303.9
303.89
303.87
303.842
303.808
303.768
303.726
303.683
303.642
303.611
355.491
355.959
356.528
357.115
357.685
358.215
358.678
359.052
359.316
359.452
359.452
359.316
359.052
358.678
358.215
357.685
357.115
356.528
355.959
355.491
348.096
348.491
348.982
349.491
349.985
350.444
350.846
351.171
351.399
351.517
351.517
351.399
351.171
350.846
350.444
349.985
349.491
348.982
348.491
348.096
340.7
341.028
341.442
341.872
342.291
342.68
343.02
343.294
343.488
343.587
343.587
343.488
343.294
343.02
342.68
342.291
341.872
341.442
341.028
340.7
333.305
333.569
333.907
334.258
334.601
334.919
335.198
335.423
335.581
335.662
335.662
335.581
335.423
335.198
334.919
334.601
334.258
333.907
333.569
333.305
325.911
326.113
326.375
326.649
326.915
327.163
327.38
327.554
327.677
327.741
327.741
327.677
327.554
327.38
327.163
326.915
326.649
326.375
326.113
325.911
318.516
318.66
318.846
319.042
319.232
319.409
319.564
319.689
319.777
319.823
319.823
319.777
319.689
319.564
319.409
319.232
319.042
318.846
318.66
318.516
311.122
311.208
311.32
311.437
311.552
311.658
311.751
311.826
311.879
311.906
311.906
311.879
311.826
311.751
311.658
311.552
311.437
311.32
311.208
311.122
303.728
303.757
303.794
303.834
303.872
303.908
303.939
303.964
303.982
303.991
303.991
303.982
303.964
303.939
303.908
303.872
303.834
303.794
303.757
303.728
357.395
357.825
358.346
358.881
359.399
359.876
360.293
360.628
360.862
360.984
360.984
360.862
360.628
360.293
359.876
359.399
358.881
358.346
357.825
357.395
349.74
350.104
350.554
351.017
351.466
351.88
352.242
352.532
352.736
352.841
352.841
352.736
352.532
352.242
351.88
351.466
351.017
350.554
350.104
349.74
342.088
342.39
342.769
343.161
343.541
343.892
344.198
344.443
344.616
344.705
344.705
344.616
344.443
344.198
343.892
343.541
343.161
342.769
342.39
342.088
334.438
334.681
334.99
335.311
335.622
335.909
336.16
336.361
336.502
336.575
336.575
336.502
336.361
336.16
335.909
335.622
335.311
334.99
334.681
334.438
326.79
326.977
327.217
327.466
327.708
327.932
328.126
328.283
328.393
328.45
328.45
328.393
328.283
328.126
327.932
327.708
327.466
327.217
326.977
326.79
319.144
319.276
319.447
319.625
319.798
319.958
320.097
320.209
320.288
320.328
320.328
320.288
320.209
320.097
319.958
319.798
319.625
319.447
319.276
319.144
311.499
311.578
311.68
311.787
311.891
311.987
312.071
312.138
312.185
312.21
312.21
312.185
312.138
312.071
311.987
311.891
311.787
311.68
311.578
311.499
303.854
303.881
303.915
303.951
303.986
304.018
304.046
304.069
304.084
304.093
304.093
304.084
304.069
304.046
304.018
303.986
303.951
303.915
303.881
303.854
359.417
359.813
360.29
360.778
361.247
361.678
362.052
362.351
362.561
362.669
362.669
362.561
362.351
362.052
361.678
361.247
360.778
360.29
359.813
359.417
351.485
351.819
352.231
352.653
353.06
353.434
353.759
354.019
354.2
354.294
354.294
354.2
354.019
353.759
353.434
353.06
352.653
352.231
351.819
351.485
343.558
343.835
344.182
344.54
344.884
345.201
345.476
345.696
345.85
345.929
345.929
345.85
345.696
345.476
345.201
344.884
344.54
344.182
343.835
343.558
335.636
335.859
336.143
336.435
336.717
336.977
337.202
337.382
337.508
337.573
337.573
337.508
337.382
337.202
336.977
336.717
336.435
336.143
335.859
335.636
327.72
327.891
328.111
328.338
328.558
328.76
328.935
329.075
329.173
329.224
329.224
329.173
329.075
328.935
328.76
328.558
328.338
328.111
327.891
327.72
319.806
319.928
320.084
320.247
320.404
320.548
320.674
320.774
320.844
320.88
320.88
320.844
320.774
320.674
320.548
320.404
320.247
320.084
319.928
319.806
311.896
311.968
312.063
312.16
312.254
312.341
312.416
312.477
312.519
312.541
312.541
312.519
312.477
312.416
312.341
312.254
312.16
312.063
311.968
311.896
303.988
304.012
304.043
304.076
304.108
304.137
304.162
304.182
304.196
304.203
304.203
304.196
304.182
304.162
304.137
304.108
304.076
304.043
304.012
303.988
361.508
361.871
362.309
362.754
363.18
363.569
363.906
364.175
364.362
364.459
364.459
364.362
364.175
363.906
363.569
363.18
362.754
362.309
361.871
361.508
353.279
353.587
353.965
354.35
354.72
355.058
355.35
355.584
355.747
355.83
355.83
355.747
355.584
355.35
355.058
354.72
354.35
353.965
353.587
353.279
345.063
345.319
345.637
345.964
346.277
346.563
346.811
347.009
347.147
347.218
347.218
347.147
347.009
346.811
346.563
346.277
345.964
345.637
345.319
345.063
336.859
337.065
337.325
337.592
337.848
338.083
338.286
338.448
338.561
338.619
338.619
338.561
338.448
338.286
338.083
337.848
337.592
337.325
337.065
336.859
328.665
328.823
329.025
329.233
329.432
329.615
329.773
329.899
329.987
330.033
330.033
329.987
329.899
329.773
329.615
329.432
329.233
329.025
328.823
328.665
320.479
320.591
320.735
320.883
321.026
321.157
321.27
321.36
321.423
321.455
321.455
321.423
321.36
321.27
321.157
321.026
320.883
320.735
320.591
320.479
312.299
312.366
312.452
312.541
312.627
312.706
312.774
312.828
312.866
312.885
312.885
312.866
312.828
312.774
312.706
312.627
312.541
312.452
312.366
312.299
304.122
304.145
304.174
304.203
304.232
304.259
304.281
304.3
304.312
304.319
304.319
304.312
304.3
304.281
304.259
304.232
304.203
304.174
304.145
304.122
363.53
363.866
364.27
364.678
365.068
365.423
365.729
365.972
366.142
366.228
366.228
366.142
365.972
365.729
365.423
365.068
364.678
364.27
363.866
363.53
354.994
355.279
355.628
355.982
356.321
356.63
356.896
357.107
357.254
357.33
357.33
357.254
357.107
356.896
356.63
356.321
355.982
355.628
355.279
354.994
346.487
346.723
347.017
347.318
347.605
347.867
348.093
348.273
348.398
348.462
348.462
348.398
348.273
348.093
347.867
347.605
347.318
347.017
346.723
346.487
338.005
338.195
338.435
338.682
338.917
339.132
339.317
339.465
339.567
339.62
339.62
339.567
339.465
339.317
339.132
338.917
338.682
338.435
338.195
338.005
329.544
329.69
329.877
330.069
330.253
330.42
330.564
330.679
330.759
330.8
330.8
330.759
330.679
330.564
330.42
330.253
330.069
329.877
329.69
329.544
321.101
321.204
321.338
321.475
321.606
321.726
321.829
321.911
321.969
321.998
321.998
321.969
321.911
321.829
321.726
321.606
321.475
321.338
321.204
321.101
312.67
312.732
312.812
312.894
312.973
313.045
313.107
313.156
313.191
313.209
313.209
313.191
313.156
313.107
313.045
312.973
312.894
312.812
312.732
312.67
304.246
304.267
304.294
304.321
304.348
304.372
304.393
304.409
304.421
304.427
304.427
304.421
304.409
304.393
304.372
304.348
304.321
304.294
304.267
304.246
365.125
365.441
365.82
366.204
366.568
366.899
367.184
367.41
367.567
367.647
367.647
367.567
367.41
367.184
366.899
366.568
366.204
365.82
365.441
365.125
356.295
356.563
356.892
357.226
357.544
357.833
358.081
358.278
358.415
358.486
358.486
358.415
358.278
358.081
357.833
357.544
357.226
356.892
356.563
356.295
347.533
347.756
348.034
348.318
348.589
348.834
349.046
349.213
349.33
349.39
349.39
349.33
349.213
349.046
348.834
348.589
348.318
348.034
347.756
347.533
338.826
339.006
339.234
339.467
339.689
339.891
340.064
340.202
340.298
340.347
340.347
340.298
340.202
340.064
339.891
339.689
339.467
339.234
339.006
338.826
330.162
330.301
330.478
330.66
330.833
330.991
331.126
331.234
331.309
331.347
331.347
331.309
331.234
331.126
330.991
330.833
330.66
330.478
330.301
330.162
321.532
321.63
321.757
321.887
322.011
322.124
322.221
322.298
322.352
322.379
322.379
322.352
322.298
322.221
322.124
322.011
321.887
321.757
321.63
321.532
312.925
312.983
313.059
313.137
313.212
313.28
313.339
313.385
313.417
313.434
313.434
313.417
313.385
313.339
313.28
313.212
313.137
313.059
312.983
312.925
304.331
304.351
304.376
304.402
304.427
304.45
304.47
304.485
304.496
304.502
304.502
304.496
304.485
304.47
304.45
304.427
304.402
304.376
304.351
304.331
)
;

boundaryField
{
    hotSide
    {
        type            fixedGradient;
        gradient        nonuniform List<scalar> 
400
(
455.896
457.062
459.406
462.945
467.71
473.733
481.056
489.723
499.778
511.268
524.236
538.724
554.769
572.406
591.665
612.571
635.146
659.406
685.367
713.037
468.337
469.406
471.555
474.813
479.217
484.812
491.652
499.795
509.297
520.217
532.611
546.528
562.015
579.113
597.855
618.271
640.385
664.214
689.773
717.073
481.802
482.752
484.672
487.595
491.572
496.664
502.939
510.472
519.336
529.605
541.346
554.622
569.486
585.987
604.163
624.047
645.664
669.033
694.167
721.076
496.066
496.88
498.531
501.067
504.552
509.065
514.697
521.539
529.687
539.23
550.251
562.823
577.012
592.87
610.443
629.764
650.86
673.75
698.446
724.955
510.731
511.391
512.742
514.844
517.78
521.653
526.576
532.665
540.036
548.798
559.051
570.88
584.361
599.554
616.505
635.252
655.821
678.23
702.49
728.604
525.187
525.682
526.711
528.351
530.706
533.903
538.083
543.387
549.956
557.92
567.392
578.475
591.249
605.782
622.124
640.312
660.372
682.32
706.164
731.905
538.604
538.934
539.643
540.823
542.603
545.136
548.588
553.131
558.926
566.124
574.857
585.234
597.348
611.269
627.05
644.727
664.325
685.857
709.328
734.736
549.992
550.173
550.594
551.361
552.626
554.567
557.376
561.247
566.366
572.899
580.992
590.765
602.317
615.72
631.028
648.278
667.493
688.681
711.846
736.982
558.325
558.393
558.593
559.045
559.919
561.41
563.733
567.1
571.712
577.75
585.37
594.699
605.838
618.864
633.83
650.771
669.71
690.653
713.599
738.542
562.741
562.747
562.826
563.108
563.768
565.016
567.077
570.172
574.512
580.286
587.653
596.745
607.666
620.492
635.278
652.058
670.852
691.666
714.499
739.341
562.741
562.747
562.826
563.108
563.768
565.016
567.077
570.172
574.512
580.286
587.653
596.745
607.666
620.492
635.278
652.058
670.852
691.666
714.499
739.341
558.325
558.393
558.593
559.045
559.919
561.41
563.733
567.1
571.712
577.75
585.37
594.699
605.838
618.864
633.83
650.771
669.71
690.653
713.599
738.542
549.992
550.173
550.594
551.361
552.626
554.567
557.376
561.247
566.366
572.899
580.992
590.765
602.317
615.72
631.028
648.278
667.493
688.681
711.846
736.982
538.604
538.934
539.643
540.823
542.603
545.136
548.588
553.131
558.926
566.124
574.857
585.234
597.348
611.269
627.05
644.727
664.325
685.857
709.328
734.736
525.187
525.682
526.711
528.351
530.706
533.903
538.083
543.387
549.956
557.92
567.392
578.475
591.249
605.782
622.124
640.312
660.372
682.32
706.164
731.905
510.731
511.391
512.742
514.844
517.78
521.653
526.576
532.665
540.036
548.798
559.051
570.88
584.361
599.554
616.505
635.252
655.821
678.23
702.49
728.604
496.066
496.88
498.531
501.067
504.552
509.065
514.697
521.539
529.687
539.23
550.251
562.823
577.012
592.87
610.443
629.764
650.86
673.75
698.446
724.955
481.802
482.752
484.672
487.595
491.572
496.664
502.939
510.472
519.336
529.605
541.346
554.622
569.486
585.987
604.163
624.047
645.664
669.033
694.167
721.076
468.337
469.406
471.555
474.813
479.217
484.812
491.652
499.795
509.297
520.217
532.611
546.528
562.015
579.113
597.855
618.271
640.385
664.214
689.773
717.073
455.896
457.062
459.406
462.945
467.71
473.733
481.056
489.723
499.778
511.268
524.236
538.724
554.769
572.406
591.665
612.571
635.146
659.406
685.367
713.037
)
;
    }
    coldSide
    {
        type            mixed;
        refValue        uniform 300;
        refGradient     uniform 0;
        valueFraction   uniform 0.991591;
        source          uniform 0;
        value           nonuniform List<scalar> 
400
(
300.024
300.024
300.025
300.025
300.025
300.025
300.026
300.026
300.027
300.027
300.028
300.029
300.029
300.03
300.031
300.032
300.034
300.035
300.036
300.036
300.025
300.025
300.025
300.025
300.025
300.026
300.026
300.027
300.027
300.028
300.028
300.029
300.03
300.031
300.032
300.033
300.034