/*--------------------------------*- C++ -*----------------------------------*\
| =========                 |                                                 |
| \\      /  F ield         | OpenFOAM: The Open Source CFD Toolbox           |
|  \\    /   O peration     | Version:  2212                                  |
|   \\  /    A nd           | Website:  www.openfoam.com                      |
|    \\/     M anipulation  |                                                 |
\*---------------------------------------------------------------------------*/
FoamFile
{
    version     2.0;
    format      ascii;
    arch        "LSB;label=32;scalar=64";
    class       volScalarField;
    location    "./ITHACAoutput/true/18.4";
    object      error;
}
// * * * * * * * * * * * * * * * * * * * * * * * * * * * * * * * * * * * * * //

dimensions      [0 0 0 1 0 0 0];

internalField   nonuniform List<scalar> 
3200
(
-1.30799
-0.542893
0.186211
0.560555
0.701453
0.658191
0.489692
0.28636
-0.00730898
-0.0411776
-0.210531
-0.344071
-0.336621
-0.330654
-0.235451
-0.307596
-0.526759
-0.93547
-1.5788
-2.3465
-1.20853
-0.487515
0.0425388
0.449899
0.564952
0.556738
0.50144
0.219757
0.116259
-0.0841958
-0.161506
-0.28748
-0.285634
-0.290496
-0.199677
-0.246975
-0.395789
-0.777795
-1.26696
-1.88451
-0.976925
-0.448354
0.0836851
0.319927
0.46149
0.464888
0.26756
0.15256
0.0192158
-0.113152
-0.232496
-0.158076
-0.164277
-0.141233
-0.205821
-0.27083
-0.296564
-0.570283
-1.03443
-1.60038
-0.982079
-0.360683
0.0113927
0.300626
0.362075
0.397501
0.303006
0.105566
0.0545635
-0.0754683
-0.0906126
-0.180149
-0.196414
-0.166402
-0.12305
-0.144009
-0.223985
-0.428369
-0.790422
-1.22108
-0.681779
-0.345486
0.043546
0.270809
0.247706
0.271463
0.142907
0.159003
0.014978
-0.0489291
-0.181117
-0.138551
-0.136783
-0.0695959
-0.0659793
-0.103542
-0.0854937
-0.374456
-0.614891
-0.93528
-0.41732
-0.237231
0.0361616
0.177768
0.273403
0.183163
0.157822
0.0795955
0.0792632
0.00396358
-0.0540739
-0.0124556
-0.112133
-0.0378582
-0.0819965
-0.0805553
-0.0673431
-0.260594
-0.449814
-0.612954
-0.309708
-0.0900156
-0.0370325
0.0737293
0.106376
0.121179
0.12529
0.00260298
0.00160331
0.0284378
-0.0924567
-0.114482
-0.0378385
-0.00948321
0.0144269
-0.0517878
-0.0660708
-0.0951688
-0.213935
-0.39728
-0.0479392
-0.0709422
-0.0632893
-0.0122617
0.0211185
0.0638211
0.0255271
0.012776
0.00213687
0.0845241
-0.0140995
0.0155418
-0.0320161
0.0648295
-0.00187438
-0.0441281
-0.00906556
-0.0212781
-0.124441
-0.21927
-1.41747
-0.614422
0.0576954
0.39687
0.569712
0.436196
0.268562
0.059059
-0.091
-0.388285
-0.45061
-0.593237
-0.616577
-0.526522
-0.50725
-0.517961
-0.627732
-1.00939
-1.70016
-2.41295
-1.30044
-0.66854
0.0252582
0.264635
0.455872
0.456916
0.253292
0.0560122
-0.117479
-0.294234
-0.332003
-0.45201
-0.465887
-0.429507
-0.364132
-0.337541
-0.510539
-0.87427
-1.35912
-2.03966
-1.09259
-0.522615
0.0474495
0.20908
0.319815
0.273459
0.253728
-0.0221981
-0.0933209
-0.209132
-0.357773
-0.45104
-0.365198
-0.397435
-0.28247
-0.3052
-0.372961
-0.615018
-1.15541
-1.57155
-0.8599
-0.436976
-0.117742
0.22241
0.220502
0.31531
0.132615
-0.0366954
-0.0679251
-0.167413
-0.229606
-0.27424
-0.263999
-0.299322
-0.311217
-0.236555
-0.300734
-0.477994
-0.850277
-1.26307
-0.694406
-0.295286
-0.112164
0.135594
0.202979
0.15761
0.0427599
0.106534
-0.0794811
-0.172586
-0.199061
-0.220407
-0.209605
-0.162552
-0.144268
-0.184182
-0.221967
-0.327095
-0.652627
-0.987093
-0.512337
-0.319881
-0.0658523
0.0712929
0.172582
0.149126
0.0960429
0.076816
-0.0444147
-0.0489533
-0.0588546
-0.226626
-0.110246
-0.133805
-0.132264
-0.0533299
-0.17846
-0.32041
-0.518262
-0.639908
-0.336348
-0.14417
0.0511082
0.000534496
0.0977626
0.0964276
0.0304661
-0.0189684
-0.0810428
-0.0956471
-0.152014
-0.164706
-0.0646428
-0.133585
-0.0289707
-0.0774833
-0.0709211
-0.124871
-0.239179
-0.362106
-0.0668283
-0.0630172
-0.122865
-0.0868854
0.0712412
0.0226334
0.0364136
-0.0449303
0.0188771
-0.0146384
0.037477
-0.00880305
-0.0740547
-0.00458267
0.014419
-0.116074
-0.0732999
-0.0380976
-0.126412
-0.112473
-1.67489
-0.880929
-0.249169
0.157052
0.198537
0.213933
-0.126477
-0.2712
-0.526417
-0.68221
-0.942542
-1.02283
-0.934351
-0.939249
-0.755036
-0.714563
-0.883307
-1.17017
-1.81707
-2.49343
-1.44218
-0.782731
-0.203219
0.206032
0.24129
0.0394677
-0.0921164
-0.327702
-0.457638
-0.665956
-0.727247
-0.816984
-0.820916
-0.784541
-0.6088
-0.559297
-0.737078
-1.05442
-1.48808
-2.09499
-1.23583
-0.705235
-0.159646
0.0323805
0.126272
0.0878567
-0.0608818
-0.245102
-0.358341
-0.578291
-0.639548
-0.694252
-0.628828
-0.507051
-0.562556
-0.390924
-0.564884
-0.76604
-1.22729
-1.67238
-1.03412
-0.588257
-0.207534
0.0353163
0.131589
0.0500358
-0.105129
-0.189362
-0.311521
-0.526466
-0.53355
-0.519402
-0.45746
-0.416649
-0.416677
-0.412968
-0.417892
-0.561613
-0.894261
-1.30312
-0.768187
-0.567346
-0.127311
0.0340138
0.0489594
0.0657008
-0.099478
-0.17676
-0.246796
-0.308295
-0.40363
-0.434129
-0.310539
-0.347439
-0.319662
-0.316342
-0.341718
-0.464629
-0.765571
-1.04204
-0.61143
-0.357268
-0.146761
-0.0357653
0.0177028
-0.0465305
0.0422473
-0.100118
-0.203349
-0.214234
-0.207789
-0.291801
-0.334076
-0.181085
-0.138018
-0.188462
-0.146618
-0.346474
-0.456415
-0.801878
-0.332749
-0.29307
-0.0597188
0.0280101
0.0446959
0.0580547
-0.0100153
-0.0869986
-0.114477
-0.1463
-0.214764
-0.195538
-0.19523
-0.105718
-0.0894755
-0.104117
-0.128599
-0.229428
-0.266601
-0.469582
-0.147182
-0.0920602
-0.0345398
0.0190229
-0.0713435
0.00067756
-0.00134503
-0.127482
-0.0510324
-0.067715
-0.0214075
-0.0716604
-0.0338085
-0.0541288
-0.0574139
-0.0794063
-0.027626
-0.13871
-0.193631
-0.129746
-1.92077
-1.17778
-0.453102
-0.157416
-0.0440009
-0.217783
-0.409324
-0.737295
-0.919568
-1.16353
-1.39303
-1.42001
-1.40177
-1.19415
-1.19539
-1.01179
-1.13357
-1.44565
-2.07232
-2.68186
-1.73467
-1.07721
-0.539523
-0.198989
-0.111857
-0.203313
-0.44597
-0.626996
-0.83841
-1.00535
-1.1269
-1.22975
-1.19022
-0.990215
-0.930027
-0.943432
-0.99306
-1.17733
-1.71584
-2.26024
-1.51791
-0.939636
-0.482802
-0.194441
-0.118043
-0.174297
-0.42341
-0.576034
-0.752329
-0.89562
-0.919048
-1.03216
-0.977081
-0.858479
-0.765541
-0.719032
-0.759669
-0.944552
-1.31908
-1.94682
-1.17989
-0.821525
-0.441753
-0.139878
-0.0941138
-0.208712
-0.348146
-0.478878
-0.63643
-0.71744
-0.818094
-0.763028
-0.777717
-0.734703
-0.573265
-0.558026
-0.6238
-0.772453
-1.10761
-1.54232
-0.98254
-0.670773
-0.391269
-0.0760515
-0.130452
-0.135419
-0.266052
-0.365997
-0.497074
-0.592436
-0.633554
-0.610636
-0.597218
-0.542281
-0.45712
-0.41771
-0.536295
-0.551751
-0.837244
-1.10562
-0.702801
-0.423164
-0.295867
-0.194643
-0.00325259
-0.186925
-0.217031
-0.210599
-0.320308
-0.4042
-0.405756
-0.355743
-0.459032
-0.443777
-0.326248
-0.239895
-0.319877
-0.425998
-0.536989
-0.790079
-0.377459
-0.280188
-0.0898985
-0.0605198
-0.0286127
-0.0464106
-0.129817
-0.142987
-0.264235
-0.24801
-0.190743
-0.202785
-0.243266
-0.264667
-0.147392
-0.162366
-0.146552
-0.264574
-0.380264
-0.461372
-0.10947
-0.0903988
0.00626256
-0.100774
-0.0344824
0.0213852
0.00477315
-0.0929097
-0.0537664
-0.10558
-0.119541
-0.123107
-0.0928106
-0.0994017
-0.0240739
-0.15133
0.0198285
-0.109928
-0.0852909
-0.153468
-2.35998
-1.61064
-0.949449
-0.677768
-0.474292
-0.655874
-0.979318
-1.23169
-1.45819
-1.68603
-1.84227
-1.88577
-1.83726
-1.76707
-1.51927
-1.48613
-1.48919
-1.72039
-2.30379
-2.90196
-2.02347
-1.378
-0.770871
-0.572622
-0.507591
-0.546369
-0.809448
-1.02365
-1.33352
-1.53685
-1.60689
-1.65664
-1.56783
-1.37137
-1.36848
-1.17703
-1.25252
-1.37283
-1.93903
-2.47924
-1.7277
-1.23571
-0.708098
-0.511481
-0.383194
-0.461858
-0.698355
-0.872871
-0.968733
-1.2583
-1.3592
-1.43328
-1.34401
-1.13815
-1.06579
-1.00333
-1.01667
-1.15674
-1.57291
-2.01495
-1.44202
-0.961056
-0.633118
-0.364624
-0.355476
-0.496531
-0.61049
-0.784709
-0.891726
-1.05197
-1.10583
-1.14423
-1.06097
-1.07053
-0.867579
-0.789899
-0.785391
-0.983363
-1.25919
-1.68721
-1.13459
-0.833089
-0.471146
-0.394574
-0.321539
-0.372625
-0.420356
-0.531313
-0.716604
-0.813627
-0.789411
-0.832092
-0.810798
-0.825381
-0.67131
-0.65889
-0.583655
-0.807149
-0.96149
-1.15243
-0.850277
-0.532453
-0.326411
-0.273064
-0.255472
-0.199855
-0.262294
-0.309397
-0.47366
-0.598115
-0.60535
-0.632701
-0.592162
-0.526001
-0.500243
-0.486082
-0.420805
-0.491785
-0.718062
-0.848268
-0.474814
-0.38189
-0.212782
-0.193836
-0.209797
-0.128017
-0.159076
-0.249425
-0.315849
-0.353768
-0.392995
-0.308085
-0.341053
-0.321466
-0.223717
-0.183709
-0.259524
-0.321429
-0.396658
-0.533193
-0.18027
-0.0728784
-0.0767858
-0.0632652
-0.0453713
-0.0187851
-0.120393
-0.0977264
-0.0867236
-0.126933
-0.116738
-0.174521
-0.0735781
-0.126535
-0.11917
-0.0495695
-0.0806171
-0.115849
-0.100722
-0.0726377
-2.70102
-1.95996
-1.50875
-1.11254
-0.946081
-1.07553
-1.33096
-1.64717
-2.00994
-2.19685
-2.48564
-2.35662
-2.31528
-2.02905
-1.93943
-1.81177
-1.8461
-2.16723
-2.51729
-3.1952
-2.40394
-1.84534
-1.27312
-0.972204
-0.879835
-0.962312
-1.11369
-1.45117
-1.6822
-1.88608
-2.10028
-2.14085
-1.9923
-1.7737
-1.6704
-1.48435
-1.54968
-1.71259
-2.23875
-2.71601
-2.07835
-1.61454
-1.13252
-0.814395
-0.812973
-0.819034
-1.01931
-1.28241
-1.43359
-1.60342
-1.71655
-1.77267
-1.68096
-1.48073
-1.33993
-1.2688
-1.29376
-1.49524
-1.8223
-2.29299
-1.69531
-1.24177
-0.933563
-0.717313
-0.691453
-0.700085
-0.816312
-0.957421
-1.24322
-1.28513
-1.43248
-1.51678
-1.41138
-1.19568
-1.07612
-1.00105
-0.975984
-1.19898
-1.48796
-1.77008
-1.33235
-1.00151
-0.807022
-0.537926
-0.539627
-0.532528
-0.70319
-0.734394
-0.945622
-0.998936
-1.09936
-1.06656
-1.01898
-0.970904
-0.895934
-0.73619
-0.753977
-0.915039
-1.13407
-1.4124
-0.964277
-0.697446
-0.552508
-0.460514
-0.32295
-0.376608
-0.527129
-0.568781
-0.741629
-0.778249
-0.730373
-0.770853
-0.738133
-0.631899
-0.63459
-0.503042
-0.602393
-0.592446
-0.784076
-0.970872
-0.535865
-0.353808
-0.273934
-0.283247
-0.250358
-0.22557
-0.278676
-0.340909
-0.430856
-0.413641
-0.396838
-0.463387
-0.505648
-0.418074
-0.358637
-0.306712
-0.255651
-0.35892
-0.4985
-0.542924
-0.227095
-0.116753
-0.0869591
-0.0973229
-0.0195173
-0.106462
-0.158198
-0.14123
-0.161867
-0.172283
-0.182045
-0.16581
-0.100297
-0.176119
-0.150374
-0.0497628
-0.18194
-0.143605
-0.127328
-0.197635
-3.18087
-2.52446
-1.92049
-1.59628
-1.461
-1.6291
-1.81543
-2.09721
-2.45668
-2.80117
-2.88685
-2.90998
-2.76984
-2.54985
-2.35243
-2.21208
-2.22827
-2.40622
-2.90924
-3.45334
-2.72433
-2.20362
-1.62397
-1.43027
-1.35788
-1.42801
-1.60119
-1.79773
-2.15433
-2.36818
-2.47841
-2.47113
-2.39882
-2.23329
-1.91529
-1.85335
-1.88926
-1.9664
-2.48192
-2.96293
-2.40098
-1.96826
-1.4991
-1.23814
-1.17889
-1.19196
-1.40316
-1.61828
-1.80097
-2.0058
-2.09034
-2.11344
-1.92908
-1.88791
-1.60077
-1.47389
-1.54882
-1.76535
-1.92216
-2.32507
-1.93821
-1.57394
-1.28468
-0.994387
-0.911339
-0.965483
-1.05733
-1.27648
-1.45136
-1.66178
-1.65835
-1.75351
-1.55257
-1.47436
-1.29823
-1.21699
-1.27506
-1.34631
-1.63266
-1.89876
-1.57979
-1.13126
-0.944449
-0.842631
-0.763817
-0.763498
-0.878025
-1.03797
-1.13813
-1.28768
-1.31219
-1.3667
-1.25517
-1.13767
-1.04862
-0.949681
-0.920154
-1.09029
-1.18345
-1.43469
-1.16913
-0.908192
-0.692513
-0.609171
-0.496901
-0.563017
-0.612428
-0.779653
-0.831977
-0.889777
-0.92325
-0.975902
-0.934836
-0.798113
-0.717842
-0.668375
-0.733253
-0.776308
-0.896448
-1.07303
-0.678256
-0.52141
-0.381038
-0.40358
-0.362152
-0.331653
-0.340859
-0.392615
-0.552847
-0.553177
-0.59179
-0.597588
-0.560126
-0.555384
-0.47452
-0.369257
-0.447974
-0.420923
-0.568206
-0.63699
-0.191486
-0.141123
-0.133563
-0.0903011
-0.101533
-0.115374
-0.166541
-0.166987
-0.17747
-0.216344
-0.239606
-0.16767
-0.131578
-0.130741
-0.161065
-0.124442
-0.112873
-0.0930523
-0.218109
-0.153947
-3.60146
-2.9395
-2.39695
-2.08272
-1.98339
-2.03446
-2.30019
-2.57076
-2.91211
-3.12363
-3.32706
-3.32766
-3.21109
-2.94397
-2.66813
-2.55023
-2.43987
-2.75672
-3.1629
-3.74683
-3.14779
-2.64441
-2.12683
-1.87581
-1.7804
-1.83926
-1.98436
-2.25926
-2.48161
-2.76854
-2.82862
-2.846
-2.65753
-2.47873
-2.27716
-2.1617
-2.10928
-2.36684
-2.67994
-3.18992
-2.72707
-2.22099
-1.73178
-1.55688
-1.4116
-1.57168
-1.68886
-1.88201
-2.15156
-2.34788
-2.38721
-2.39165
-2.39195
-2.10472
-1.97589
-1.82762
-1.80644
-1.95673
-2.28524
-2.64307
-2.22871
-1.95432
-1.48845
-1.38206
-1.23158
-1.32511
-1.42052
-1.58135
-1.70835
-1.94162
-1.95879
-1.83024
-1.91808
-1.74867
-1.59251
-1.49935
-1.45165
-1.58207
-1.76651
-2.07234
-1.77937
-1.54285
-1.20628
-1.03713
-0.977206
-0.978785
-1.1048
-1.28716
-1.38643
-1.54387
-1.55639
-1.55322
-1.41858
-1.30459
-1.19253
-1.09084
-1.1055
-1.23887
-1.37208
-1.5396
-1.15272
-0.948498
-0.92349
-0.798716
-0.67543
-0.713053
-0.732461
-0.830497
-0.97735
-1.07045
-1.14107
-1.10418
-0.995217
-0.954665
-0.862552
-0.786291
-0.847869
-0.923904
-0.959073
-1.12961
-0.740611
-0.648222
-0.52111
-0.453209
-0.48797
-0.432971
-0.408265
-0.566055
-0.689083
-0.636547
-0.668223
-0.690141
-0.632808
-0.600201
-0.577239
-0.456525
-0.455106
-0.548001
-0.581816
-0.697871
-0.264319
-0.182035
-0.201492
-0.18073
-0.135978
-0.151346
-0.233499
-0.203815
-0.171816
-0.194381
-0.214427
-0.25249
-0.16754
-0.216744
-0.156486
-0.237706
-0.152199
-0.18564
-0.28594
-0.213815
-4.08593
-3.44394
-2.97447
-2.57492
-2.38189
-2.45233
-2.71462
-2.99215
-3.26808
-3.57784
-3.71669
-3.69943
-3.47385
-3.3463
-2.9923
-2.84207
-2.89189
-3.04229
-3.40417
-3.99747
-3.53317
-3.0313
-2.6083
-2.19063
-2.13895
-2.21549
-2.40591
-2.65923
-2.81761
-3.11868
-3.20242
-3.16076
-3.07584
-2.78503
-2.59551
-2.44661
-2.33114
-2.55088
-2.9019
-3.38447
-2.96261
-2.64628
-2.27524
-1.95483
-1.85448
-1.967
-2.02822
-2.23235
-2.5414
-2.60845
-2.76625
-2.62371
-2.59
-2.38225
-2.17415
-2.01483
-1.9728
-2.12444
-2.42577
-2.7732
-2.40709
-2.16195
-1.82015
-1.59448
-1.5067
-1.57195
-1.65542
-1.81911
-2.01415
-2.13495
-2.17834
-2.17692
-2.05814
-1.92394
-1.77067
-1.64042
-1.5558
-1.78927
-1.94367
-2.26293
-1.87426
-1.66295
-1.46188
-1.28894
-1.25621
-1.19626
-1.25624
-1.39496
-1.53279
-1.62428
-1.72567
-1.68055
-1.6315
-1.49032
-1.31591
-1.23235
-1.29575
-1.3385
-1.53858
-1.75868
-1.42608
-1.12598
-1.00556
-0.853084
-0.821121
-0.917606
-0.931267
-0.987243
-1.05009
-1.1485
-1.21165
-1.09769
-1.21411
-1.06987
-0.982929
-0.96787
-0.880415
-0.971904
-1.07402
-1.26141
-0.790798
-0.74623
-0.603488
-0.56706
-0.497162
-0.57877
-0.543746
-0.571339
-0.632614
-0.700355
-0.665718
-0.771616
-0.751451
-0.653695
-0.539004
-0.488472
-0.552131
-0.585322
-0.60175
-0.719296
-0.346117
-0.247399
-0.192349
-0.208629
-0.178247
-0.17846
-0.181919
-0.172124
-0.288549
-0.291726
-0.237469
-0.165531
-0.289527
-0.270138
-0.201147
-0.231472
-0.201952
-0.174471
-0.237375
-0.189613
-4.4381
-3.88371
-3.30788
-3.048
-2.79146
-2.94016
-3.1741
-3.30757
-3.49967
-3.87841
-3.99008
-3.93865
-3.73768
-3.50648
-3.28865
-3.11075
-3.0516
-3.26855
-3.63796
-4.12997
-3.88336
-3.35387
-2.94484
-2.57562
-2.48376
-2.508
-2.72363
-2.8548
-3.12441
-3.35093
-3.47781
-3.39759
-3.28941
-3.01585
-2.84221
-2.59974
-2.62165
-2.79301
-3.05406
-3.4834
-3.32732
-2.87234
-2.46948
-2.20009
-2.1596
-2.20043
-2.24385
-2.45812
-2.63345
-2.80409
-2.93962
-2.85186
-2.76662
-2.52154
-2.41428
-2.21752
-2.14108
-2.33868
-2.64519
-2.92837
-2.7118
-2.41294
-2.11511
-1.9256
-1.73017
-1.76328
-2.02822
-1.97927
-2.14917
-2.38647
-2.36708
-2.29695
-2.26432
-2.10904
-1.9597
-1.7528
-1.77755
-1.91012
-2.06004
-2.28103
-2.21257
-1.91487
-1.61311
-1.4696
-1.37722
-1.35506
-1.49782
-1.56454
-1.66263
-1.81895
-1.83632
-1.87337
-1.76023
-1.64936
-1.52081
-1.38728
-1.38587
-1.42853
-1.56154
-1.77236
-1.5003
-1.42967
-1.1192
-1.0787
-0.975675
-1.05307
-1.04687
-1.17063
-1.15793
-1.2805
-1.28106
-1.31489
-1.23504
-1.12509
-1.09604
-0.902019
-0.977162
-1.02792
-1.23226
-1.30103
-0.902436
-0.824113
-0.672466
-0.64601
-0.594073
-0.599097
-0.701517
-0.605955
-0.725508
-0.737382
-0.838303
-0.746746
-0.765085
-0.635633
-0.603802
-0.636353
-0.629388
-0.6583
-0.641821
-0.748043
-0.281479
-0.267042
-0.25442
-0.179053
-0.185914
-0.172646
-0.261626
-0.175151
-0.218455
-0.294712
-0.337331
-0.305369
-0.209663
-0.217694
-0.190534
-0.197741
-0.218195
-0.185602
-0.140523
-0.365897
-4.80904
-4.22241
-3.72183
-3.32954
-3.20882
-3.05581
-3.32958
-3.58171
-3.78676
-4.00441
-4.18717
-4.21165
-3.94707
-3.69954
-3.42385
-3.22597
-3.16375
-3.38169
-3.80839
-4.24884
-4.24812
-3.71263
-3.24561
-2.87059
-2.76922
-2.73846
-2.97202
-3.15422
-3.33218
-3.5187
-3.60063
-3.53602
-3.45194
-3.05264
-2.99035
-2.83171
-2.8204
-2.92383
-3.21823
-3.6297
-3.57496
-3.20633
-2.7783
-2.57146
-2.38102
-2.40327
-2.52481
-2.62438
-2.76336
-2.89978
-3.04716
-3.0503
-2.8246
-2.69628
-2.43136
-2.3618
-2.26835
-2.46562
-2.65667
-3.01938
-2.93168
-2.63626
-2.32663
-2.0965
-1.97598
-1.99275
-2.04475
-2.17395
-2.35101
-2.50042
-2.44621
-2.49071
-2.35653
-2.24638
-2.018
-1.888
-1.89349
-2.01508
-2.181
-2.45886
-2.36333
-2.10341
-1.79336
-1.68075
-1.50879
-1.50363
-1.5616
-1.75948
-1.79685
-1.87228
-1.98451
-1.92311
-1.85049
-1.63522
-1.54588
-1.51857
-1.45359
-1.55378
-1.62964
-1.78433
-1.6237
-1.41456
-1.35239
-1.14508
-1.13443
-1.11587
-1.24039
-1.22958
-1.38894
-1.34377
-1.36145
-1.34934
-1.3561
-1.27628
-1.16144
-1.03708
-1.05844
-1.11898
-1.18136
-1.33106
-0.964128
-0.884653
-0.783468
-0.708495
-0.652567
-0.698282
-0.664526
-0.730103
-0.771626
-0.798505
-0.903918
-0.827449
-0.842854
-0.696929
-0.695444
-0.641351
-0.635586
-0.678213
-0.751062
-0.834101
-0.292956
-0.279681
-0.246418
-0.174904
-0.234151
-0.244776
-0.269494
-0.286762
-0.278545
-0.238474
-0.267612
-0.306067
-0.265364
-0.259745
-0.148142
-0.159542
-0.216175
-0.214302
-0.29044
-0.278305
-5.01075
-4.49447
-4.05323
-3.68103
-3.43342
-3.43157
-3.55759
-3.76764
-4.01341
-4.19919
-4.23425
-4.18169
-4.03489
-3.70239
-3.47914
-3.34631
-3.43351
-3.52876
-3.84709
-4.31859
-4.41767
-3.91192
-3.52512
-3.19539
-3.14887
-3.07329
-3.2074
-3.25985
-3.43588
-3.63164
-3.71
-3.57172
-3.4273
-3.21828
-3.02882
-2.89911
-2.86516
-3.0791
-3.29248
-3.66494
-3.83016
-3.35497
-3.02129
-2.84205
-2.68421
-2.55569
-2.66455
-2.83994
-2.96089
-3.09608
-3.13552
-2.95397
-2.87752
-2.73532
-2.574
-2.47296
-2.39793
-2.53325
-2.84328
-3.03122
-3.2338
-2.71368
-2.45379
-2.23586
-2.24724
-2.1427
-2.20318
-2.34749
-2.39119
-2.56568
-2.51224
-2.41392
-2.48409
-2.16246
-2.06557
-2.00712
-1.87623
-2.0768
-2.26572
-2.52585
-2.45291
-2.216
-1.9626
-1.82903
-1.6944
-1.72954
-1.70295
-1.75488
-1.79165
-1.94984
-2.03613
-1.90633
-1.85822
-1.77618
-1.67223
-1.54246
-1.44685
-1.60502
-1.74634
-1.86877
-1.68784
-1.56264
-1.40199
-1.26902
-1.24312
-1.2465
-1.19898
-1.27809
-1.32666
-1.30264
-1.49917
-1.48569
-1.33485
-1.25906
-1.14363
-1.06446
-1.04092
-1.08847
-1.27674
-1.34785
-1.06265
-0.882832
-0.77194
-0.737948
-0.72614
-0.700458
-0.764547
-0.841478
-0.8287
-0.8502
-0.844228
-0.767729
-0.82524
-0.709594
-0.702465
-0.705363
-0.610432
-0.698174
-0.702859
-0.760303
-0.272183
-0.185026
-0.276438
-0.241728
-0.248501
-0.253975
-0.247378
-0.241976
-0.301986
-0.308427
-0.338942
-0.381411
-0.233609
-0.262207
-0.189095
-0.179069
-0.206909
-0.228897
-0.221846
-0.25043
-5.27856
-4.92448
-4.26881
-3.89774
-3.69116
-3.58991
-3.73057
-3.79817
-4.02403
-4.1839
-4.20737
-4.14084
-3.89934
-3.72161
-3.52772
-3.4161
-3.3839
-3.4991
-3.8593
-4.30631
-4.65335
-4.18159
-3.78079
-3.47702
-3.26372
-3.2109
-3.29034
-3.3596
-3.50766
-3.61201
-3.63596
-3.59974
-3.50447
-3.2365
-2.99152
-2.87143
-2.87186
-2.93784
-3.34854
-3.61857
-3.98059
-3.63926
-3.2431
-2.99692
-2.83688
-2.71812
-2.75453
-2.80159
-2.99894
-3.14401
-3.1496
-3.02326
-2.88981
-2.80596
-2.55064
-2.4934
-2.368
-2.50317
-2.79126
-3.01616
-3.19674
-3.04535
-2.67232
-2.48286
-2.25576
-2.26271
-2.29312
-2.30048
-2.46002
-2.46089
-2.51504
-2.4749
-2.38296
-2.17148
-2.05091
-1.96832
-1.97801
-2.04771
-2.3451
-2.53009
-2.52446
-2.31729
-2.12801
-1.87064
-1.76128
-1.75835
-1.76445
-1.821
-1.89201
-1.92923
-1.97733
-1.92141
-1.88823
-1.67787
-1.6962
-1.51513
-1.55114
-1.615
-1.74405
-1.90865
-1.82158
-1.72238
-1.46744
-1.39546
-1.30053
-1.29588
-1.34729
-1.35417
-1.29444
-1.41371
-1.41273
-1.41777
-1.31779
-1.16589
-1.18483
-1.10596
-1.10163
-1.14224
-1.30165
-1.29646
-1.11499
-1.02116
-0.868741
-0.832382
-0.819934
-0.701155
-0.702119
-0.754392
-0.769517
-0.922515
-0.83594
-0.802612
-0.80387
-0.72426
-0.590884
-0.685344
-0.63156
-0.698407
-0.751766
-0.793451
-0.333971
-0.360479
-0.286423
-0.267473
-0.25511
-0.242954
-0.272215
-0.173483
-0.243507
-0.30127
-0.243169
-0.318949
-0.284252
-0.199053
-0.216588
-0.250514
-0.250658
-0.248478
-0.224808
-0.239381
-5.46413
-4.98786
-4.39833
-4.05601
-3.83092
-3.75575
-3.71552
-3.84334
-3.95504
-3.99716
-4.13477
-4.02836
-3.76372
-3.58899
-3.44217
-3.34707
-3.27379
-3.48835
-3.71505
-4.20793
-4.72895
-4.37866
-3.98647
-3.6088
-3.41363
-3.34377
-3.28032
-3.38889
-3.50967
-3.61891
-3.49011
-3.39302
-3.34288
-3.109
-3.00468
-2.84406
-2.86902
-2.96061
-3.29099
-3.59588
-4.06376
-3.77813
-3.35614
-3.06352
-2.91317
-2.79576
-2.83224
-2.83326
-2.92517
-2.94535
-3.06412
-2.92842
-2.83971
-2.66301
-2.48872
-2.3346
-2.368
-2.54288
-2.7109
-3.0472
-3.40843
-3.11076
-2.78698
-2.55945
-2.4033
-2.33751
-2.28188
-2.38723
-2.36692
-2.44235
-2.48231
-2.38326
-2.31265
-2.13695
-2.0781
-1.97176
-1.87844
-2.0184
-2.19216
-2.46045
-2.64575
-2.39379
-2.15669
-2.02424
-1.84202
-1.76343
-1.83047
-1.85998
-1.89202
-1.85508
-1.89024
-1.83108
-1.80527
-1.70583
-1.60825
-1.57358
-1.4896
-1.50502
-1.74608
-1.8708
-1.90079
-1.80569
-1.54975
-1.34822
-1.29715
-1.31235
-1.38229
-1.34675
-1.4218
-1.30924
-1.35371
-1.3159
-1.29017
-1.18243
-1.08847
-1.14418
-1.06467
-1.11251
-1.27235
-1.29988
-1.09845
-1.05123
-1.0095
-0.904042
-0.926626
-0.752922
-0.782587
-0.828155
-0.798307
-0.830316
-0.815711
-0.832314
-0.86318
-0.69453
-0.717942
-0.651984
-0.62759
-0.640852
-0.69319
-0.831626
-0.328483
-0.302689
-0.298906
-0.338126
-0.234128
-0.254873
-0.296092
-0.192482
-0.258847
-0.23749
-0.247551
-0.328312
-0.280722
-0.178332
-0.145121
-0.237353
-0.273541
-0.218579
-0.213586
-0.226459
-5.5176
-4.99963
-4.56397
-4.08505
-3.94272
-3.80122
-3.7651
-3.81241
-3.76973
-3.86056
-3.84714
-3.72448
-3.65705
-3.40132
-3.25836
-3.101
-3.22462
-3.27493
-3.59676
-4.12544
-4.78835
-4.4368
-3.94542
-3.69161
-3.48819
-3.3215
-3.28455
-3.30855
-3.36964
-3.31767
-3.39506
-3.26851
-3.10904
-2.90503
-2.79071
-2.74147
-2.66754
-2.83407
-3.159
-3.41586
-4.0956
-3.77716
-3.4489
-3.15541
-2.94079
-2.82295
-2.76815
-2.67727
-2.816
-2.89118
-2.84691
-2.75489
-2.68883
-2.5335
-2.36866
-2.2881
-2.29168
-2.42605
-2.61426
-2.89993
-3.41301
-3.15322
-2.83391
-2.58304
-2.50335
-2.35347
-2.36019
-2.36782
-2.31322
-2.3238
-2.26678
-2.26574
-2.22574
-2.09478
-1.89339
-1.85842
-1.87573
-1.95258
-2.12225
-2.39165
-2.67536
-2.385
-2.19402
-2.05838
-1.90887
-1.91486
-1.75326
-1.76592
-1.8138
-1.87344
-1.79552
-1.77047
-1.60461
-1.7119
-1.47285
-1.39961
-1.45852
-1.56397
-1.61887
-1.79186
-1.89031
-1.7837
-1.58154
-1.48768
-1.3903
-1.30036
-1.31336
-1.26182
-1.3834
-1.24414
-1.29142
-1.2714
-1.18411
-1.10727
-1.06396
-1.10346
-0.975299
-1.11635
-1.148
-1.28024
-1.22863
-1.06011
-0.984702
-0.858525
-0.772964
-0.751412
-0.7629
-0.748697
-0.791269
-0.72091
-0.852619
-0.695407
-0.66131
-0.705539
-0.705878
-0.660665
-0.615706
-0.62661
-0.730724
-0.812015
-0.398555
-0.356875
-0.314429
-0.249563
-0.325058
-0.31767
-0.196192
-0.192177
-0.23908
-0.315693
-0.267379
-0.240313
-0.252444
-0.253005
-0.325668
-0.255399
-0.232351
-0.222791
-0.223248
-0.247749
-5.52879
-4.98647
-4.59638
-4.07714
-3.84074
-3.7658
-3.64533
-3.60633
-3.56813
-3.62681
-3.5824
-3.52258
-3.31746
-3.1687
-3.07004
-2.94453
-2.92905
-3.13081
-3.4532
-3.88909
-4.84847
-4.41636
-3.99102
-3.65813
-3.41871
-3.17481
-3.20932
-3.08867
-3.21251
-3.15768
-3.20162
-3.05709
-2.92214
-2.78156
-2.56343
-2.59043
-2.55388
-2.70621
-2.91984
-3.3297
-4.16286
-3.80646
-3.39666
-3.16301
-2.99088
-2.81633
-2.69651
-2.71237
-2.71299
-2.58219
-2.69371
-2.49271
-2.45598
-2.31983
-2.16874
-2.0305
-2.14783
-2.21001
-2.4537
-2.72348
-3.38623
-3.18785
-2.8309
-2.54236
-2.41913
-2.33387
-2.26094
-2.22603
-2.17344
-2.2178
-2.25923
-2.02975
-2.00892
-1.87546
-1.76979
-1.72206
-1.75974
-1.85328
-2.03002
-2.2208
-2.76768
-2.45369
-2.19008
-2.01715
-1.80326
-1.81975
-1.74751
-1.77193
-1.69736
-1.68745
-1.73423
-1.71473
-1.62804
-1.5147
-1.40377
-1.32896
-1.36811
-1.42426
-1.59466
-1.70461
-1.92973
-1.7461
-1.59711
-1.45331
-1.34528
-1.24553
-1.22873
-1.2214
-1.16802
-1.23235
-1.22241
-1.14555
-1.18276
-1.12965
-0.965432
-0.934567
-0.930386
-1.05277
-1.16721
-1.16735
-1.15029
-1.0369
-0.945838
-0.851245
-0.889226
-0.759184
-0.737545
-0.774207
-0.730661
-0.747008
-0.686061
-0.674714
-0.670514
-0.613885
-0.517467
-0.534764
-0.655017
-0.671659
-0.730348
-0.745005
-0.412022
-0.345863
-0.398845
-0.287253
-0.273338
-0.252054
-0.277973
-0.206069
-0.247634
-0.251655
-0.291704
-0.243494
-0.209646
-0.226775
-0.190775
-0.192843
-0.15812
-0.262022
-0.21497
-0.237391
-5.43223
-4.87373
-4.42356
-4.07698
-3.76705
-3.58336
-3.41047
-3.35219
-3.37755
-3.28563
-3.25232
-3.12876
-3.00221
-2.86872
-2.70258
-2.58098
-2.71197
-2.86346
-3.22918
-3.59281
-4.78209
-4.35199
-3.92512
-3.55225
-3.25554
-3.08572
-3.06177
-2.93896
-2.91172
-2.84289
-2.8797
-2.73222
-2.59302
-2.57152
-2.38684
-2.19352
-2.2999
-2.49188
-2.7208
-3.05751
-4.12005
-3.69734
-3.42192
-3.07094
-2.76477
-2.67568
-2.56558
-2.56478
-2.46512
-2.41413
-2.44047
-2.27695
-2.1456
-2.01177
-1.93075
-1.8344
-1.96974
-2.10887
-2.35214
-2.49489
-3.4552
-3.1236
-2.84804
-2.484
-2.39036
-2.20556
-2.0737
-2.07883
-1.96846
-1.99881
-1.99889
-1.92711
-1.78275
-1.6715
-1.52923
-1.52456
-1.56301
-1.63024
-1.80653
-2.05422
-2.52699
-2.45521
-2.13703
-1.93223
-1.83528
-1.70798
-1.73947
-1.61174
-1.68495
-1.55612
-1.5606
-1.53241
-1.46912
-1.30287
-1.29701
-1.20639
-1.24089
-1.27001
-1.47755
-1.65604
-1.87316
-1.71548
-1.54204
-1.44046
-1.33443
-1.23061
-1.2072
-1.18447
-1.15577
-1.10578
-1.09692
-0.989292
-1.00442
-0.913243
-0.843441
-0.884381
-0.853479
-0.905522
-1.0041
-1.14733
-1.18872
-1.08773
-0.90491
-0.796801
-0.762505
-0.860239
-0.740641
-0.659306
-0.65836
-0.667999
-0.622402
-0.590691
-0.630807
-0.562268
-0.548475
-0.546392
-0.510966
-0.523835
-0.679986
-0.671944
-0.390501
-0.342511
-0.333419
-0.305849
-0.334524
-0.256302
-0.285203
-0.209273
-0.213405
-0.293005
-0.222946
-0.178567
-0.260504
-0.236464
-0.183215
-0.149679
-0.14911
-0.15624
-0.18403
-0.241601
-5.22727
-4.78226
-4.30683
-3.85854
-3.57655
-3.31253
-3.13226
-3.04675
-2.97681
-2.90041
-2.89365
-2.68201
-2.60446
-2.54612
-2.35465
-2.28351
-2.33922
-2.49124
-2.87254
-3.18905
-4.54169
-4.25172
-3.80603
-3.50203
-3.16481
-2.93272
-2.79226
-2.71023
-2.59085
-2.53157
-2.41253
-2.34215
-2.27676
-2.08767
-2.05442
-1.95066
-2.11901
-2.12118
-2.47109
-2.68927
-3.96873
-3.61024
-3.26526
-2.91786
-2.73636
-2.49036
-2.44509
-2.32296
-2.23098
-2.15556
-2.16247
-2.04576
-1.81466
-1.72971
-1.70266
-1.66969
-1.71306
-1.86827
-2.01785
-2.32895
-3.29313
-3.03842
-2.71862
-2.50401
-2.27895
-2.0291
-2.01456
-1.93505
-1.81054
-1.77321
-1.72705
-1.67759
-1.53707
-1.54342
-1.38841
-1.32146
-1.33417
-1.41268
-1.67246
-1.81919
-2.61718
-2.41441
-2.17257
-1.96991
-1.85075
-1.6083
-1.46736
-1.41808
-1.45049
-1.31512
-1.38039
-1.33992
-1.17238
-1.17165
-1.07232
-1.04417
-1.03412
-1.16931
-1.24638
-1.49256
-1.82735
-1.73761
-1.5484
-1.39655
-1.42186
-1.19118
-1.14923
-1.11005
-0.994728
-1.07373
-1.06369
-0.873269
-0.817282
-0.835834
-0.800894
-0.715798
-0.754053
-0.813157
-0.862161
-1.01162
-1.08439
-1.04868
-0.864865
-0.824306
-0.758349
-0.803069
-0.703381
-0.609755
-0.606959
-0.619722
-0.663286
-0.522091
-0.487612
-0.512712
-0.551672
-0.48567
-0.415134
-0.548099
-0.534379
-0.557073
-0.321906
-0.359418
-0.328292
-0.212119
-0.25643
-0.203532
-0.205721
-0.20096
-0.244269
-0.186289
-0.230722
-0.183796
-0.190961
-0.171479
-0.179854
-0.0973948
-0.170913
-0.209374
-0.171543
-0.204891
-5.0404
-4.64091
-4.16667
-3.66344
-3.22978
-3.00647
-2.89757
-2.76814
-2.6002
-2.51615
-2.3978
-2.27871
-2.19037
-2.05637
-1.96788
-1.94925
-2.09942
-2.24669
-2.56836
-2.92297
-4.47306
-4.09425
-3.7059
-3.3107
-2.91642
-2.70745
-2.57087
-2.39101
-2.35884
-2.15077
-2.15305
-1.99172
-1.95151
-1.83961
-1.72741
-1.68188
-1.78639
-1.94699
-2.12964
-2.4738
-3.77429
-3.46169
-3.15457
-2.79224
-2.5519
-2.32718
-2.22742
-2.09168
-1.96843
-1.81016
-1.83753
-1.73492
-1.53419
-1.52471
-1.42375
-1.40377
-1.48125
-1.61344
-1.83477
-2.15054
-3.08025
-2.89088
-2.57869
-2.32232
-2.12718
-1.86766
-1.79875
-1.71874
-1.61639
-1.50327
-1.52012
-1.50164
-1.32039
-1.1797
-1.26439
-1.11796
-1.22187
-1.30667
-1.45259
-1.6654
-2.44637
-2.27175
-2.02237
-1.88386
-1.67719
-1.48714
-1.34844
-1.29598
-1.24817
-1.22635
-1.15593
-1.10292
-0.996679
-0.957879
-0.867267
-0.89259
-0.869056
-0.962735
-1.13738
-1.34835
-1.80934
-1.58188
-1.39748
-1.37802
-1.20892
-1.12046
-1.06701
-0.974662
-1.00307
-0.924711
-0.860806
-0.733081
-0.714833
-0.721002
-0.70705
-0.609297
-0.609167
-0.690797
-0.813785
-0.901453
-1.09542
-0.922827
-0.902399
-0.851283
-0.735837
-0.648686
-0.629449
-0.529294
-0.552436
-0.58262
-0.46636
-0.460646
-0.406148
-0.42797
-0.45359
-0.428818
-0.313163
-0.431667
-0.424438
-0.475017
-0.359687
-0.381813
-0.240203
-0.254562
-0.255571
-0.320529
-0.234287
-0.130057
-0.203534
-0.192859
-0.237181
-0.178443
-0.08171
-0.199278
-0.0957693
-0.0733494
-0.0751999
-0.225322
-0.145781
-0.213672
-4.84545
-4.39522
-3.98443
-3.52117
-3.05705
-2.90496
-2.58579
-2.51862
-2.28794
-2.25588
-2.14022
-1.99456
-1.88676
-1.78954
-1.68684
-1.67935
-1.69505
-1.91231
-2.26753
-2.61399
-4.23857
-3.85033
-3.49723
-3.02648
-2.8193
-2.55751
-2.31173
-2.18945
-2.09388
-1.96062
-1.88239
-1.72961
-1.72912
-1.55574
-1.4497
-1.41395
-1.44798
-1.70148
-1.90897
-2.30305
-3.6273
-3.37485
-2.8427
-2.62311
-2.37724
-2.21268
-2.08131
-1.88245
-1.73304
-1.72558
-1.61849
-1.52741
-1.49928
-1.30686
-1.2406
-1.32703
-1.31858
-1.37996
-1.73416
-1.96279
-3.05061
-2.80031
-2.50276
-2.1743
-1.98256
-1.88449
-1.71415
-1.58929
-1.50086
-1.37649
-1.35066
-1.26214
-1.18105