/*--------------------------------*- C++ -*----------------------------------*\
| =========                 |                                                 |
| \\      /  F ield         | OpenFOAM: The Open Source CFD Toolbox           |
|  \\    /   O peration     | Version:  2212                                  |
|   \\  /    A nd           | Website:  www.openfoam.com                      |
|    \\/     M anipulation  |                                                 |
\*---------------------------------------------------------------------------*/
FoamFile
{
    version     2.0;
    format      ascii;
    arch        "LSB;label=32;scalar=64";
    class       volScalarField;
    location    "0";
    object      relativeErrorField;
}
// * * * * * * * * * * * * * * * * * * * * * * * * * * * * * * * * * * * * * //

dimensions      [0 0 0 1 0 0 0];

internalField   nonuniform List<scalar> 
3200
(
0.00410584
0.0017031
0.000583696
0.00175559
0.00219491
0.00205774
0.00152972
0.000893934
2.28052e-05
0.000128447
0.000656723
0.00107356
0.00105084
0.00103291
0.000736103
0.000962495
0.00164975
0.00293232
0.00495282
0.00736578
0.00382197
0.00154094
0.000134364
0.00141999
0.00178174
0.0017545
0.00157913
0.000691645
0.000365747
0.000264817
0.000507976
0.000904402
0.000898979
0.000914826
0.000629262
0.000778908
0.00124921
0.00245677
0.00400462
0.00595975
0.00311325
0.00142817
0.000266411
0.00101783
0.00146724
0.00147708
0.000849607
0.000484192
6.09644e-05
0.00035892
0.000737478
0.000501514
0.000521381
0.00044847
0.000653953
0.000861063
0.000943504
0.0018155
0.00329505
0.00510005
0.00315431
0.00115805
3.6561e-05
0.000964247
0.00116071
0.00127359
0.000970353
0.000337927
0.00017461
0.000241469
0.000289925
0.0005765
0.000628738
0.00053289
0.000394251
0.00046165
0.000718422
0.00137471
0.00253781
0.00392196
0.00220739
0.00111826
0.000140896
0.000875858
0.000800795
0.00087723
0.000461624
0.000513453
4.83555e-05
0.000157944
0.000584651
0.000447302
0.000441698
0.000224812
0.000213211
0.000334736
0.000276506
0.00121158
0.00199027
0.00302815
0.00136222
0.000774221
0.000117984
0.000579829
0.000891487
0.000597059
0.000514312
0.000259326
0.0002582
1.29102e-05
0.00017613
4.05742e-05
0.000365336
0.000123373
0.000267285
0.000262667
0.000219654
0.000850237
0.001468
0.00200082
0.00101937
0.000296241
0.000121854
0.000242559
0.000349898
0.000398517
0.000411964
8.55762e-06
5.27055e-06
9.34779e-05
0.000303915
0.000376336
0.000124399
3.11816e-05
4.74451e-05
0.000170343
0.000217364
0.000313149
0.000704061
0.0013076
0.000159117
0.000235458
0.000210046
4.06919e-05
7.00797e-05
0.000211771
8.46995e-05
4.23889e-05
7.08957e-06
0.000280424
4.67776e-05
5.15635e-05
0.000106225
0.000215105
6.21956e-06
0.000146435
3.00852e-05
7.06182e-05
0.000413022
0.000727788
0.00444855
0.0019271
0.000180816
0.00124271
0.00178236
0.00136347
0.000838804
0.000184336
0.000283893
0.00121102
0.00140541
0.00185073
0.00192448
0.0016445
0.00158557
0.00162045
0.00196561
0.0031634
0.00533244
0.00757274
0.00411188
0.00211275
7.97673e-05
0.000835115
0.0014375
0.0014397
0.000797546
0.000176264
0.000369535
0.000925319
0.0010441
0.00142182
0.00146609
0.0013524
0.00114735
0.00106436
0.00161112
0.00276101
0.00429515
0.00644923
0.00348129
0.00166446
0.000151033
0.000665083
0.00101666
0.000868743
0.000805584
7.04435e-05
0.000296038
0.000663294
0.00113473
0.00143082
0.00115892
0.00126185
0.000897369
0.000970201
0.00118639
0.00195761
0.00367984
0.00500738
0.00276151
0.00140282
0.000377805
0.000713285
0.000706784
0.00101014
0.000424646
0.000117454
0.000217348
0.000535606
0.000734581
0.000877517
0.000845003
0.000958456
0.000997031
0.000758241
0.000964475
0.00153377
0.00272964
0.00405626
0.00224804
0.00095568
0.000362879
0.000438501
0.00065614
0.000509271
0.000138113
0.000343993
0.00025658
0.00055707
0.000642527
0.000711515
0.000676804
0.000525039
0.000466162
0.000595379
0.000717824
0.00105824
0.0021122
0.00319557
0.00167226
0.00104388
0.00021484
0.000232521
0.000562702
0.000486078
0.000312968
0.000250256
0.000144673
0.000159443
0.000191691
0.000738195
0.000359169
0.00043602
0.000431115
0.000173882
0.000582043
0.00104532
0.00169126
0.00208864
0.001107
0.000474441
0.000168162
1.75834e-06
0.000321553
0.000317104
0.000100172
6.2359e-05
0.000266402
0.000314392
0.00049967
0.000541419
0.000212514
0.000439224
9.52709e-05
0.000254852
0.000233311
0.000410866
0.000787102
0.00119178
0.000221809
0.000209151
0.000407763
0.000288336
0.000236404
7.51011e-05
0.000120819
0.000149071
6.26285e-05
4.85648e-05
0.000124335
2.92059e-05
0.0002457
1.52052e-05
4.78446e-05
0.000385177
0.000243251
0.000126438
0.000419555
0.000373309
0.0052542
0.00276184
0.000780573
0.000491584
0.000620897
0.000668482
0.0003949
0.000846213
0.00164177
0.00212712
0.00293883
0.00318995
0.00291541
0.00293262
0.00235928
0.0022347
0.00276482
0.00366579
0.00569678
0.007822
0.00455833
0.00247272
0.000641555
0.000649957
0.00076061
0.000124321
0.000289965
0.00103095
0.00143914
0.00209378
0.00228648
0.00256918
0.00258261
0.00246959
0.00191768
0.00176305
0.00232522
0.00332876
0.00470097
0.0066217
0.00393641
0.00224538
0.000508001
0.000102972
0.000401295
0.000279035
0.00019325
0.000777621
0.00113649
0.00183373
0.00202797
0.00220184
0.00199505
0.00160948
0.00178669
0.00124237
0.00179637
0.00243758
0.00390753
0.00532697
0.00332013
0.00188799
0.000665757
0.000113235
0.00042169
0.000160262
0.00033656
0.000605982
0.000996621
0.00168402
0.00170668
0.00166168
0.00146393
0.00133387
0.00133459
0.0013234
0.00133989
0.00180162
0.00287009
0.00418376
0.00248637
0.00183581
0.0004118
0.000109977
0.000158235
0.000212256
0.000321258
0.000570657
0.000796584
0.000994966
0.00130264
0.00140124
0.00100255
0.00112203
0.00103272
0.0010224
0.00110488
0.00150289
0.00247723
0.00337274
0.00199539
0.00116571
0.000478732
0.000116632
5.77121e-05
0.000151648
0.000137652
0.000326135
0.0006623
0.000697691
0.000676702
0.000950387
0.00108825
0.000590018
0.000449815
0.000614397
0.000478128
0.00113019
0.00148921
0.00261691
0.00109505
0.000964364
0.000196476
9.21379e-05
0.000146999
0.0001909
3.29276e-05
0.00028599
0.000376282
0.000480857
0.000705885
0.000642724
0.000641778
0.000347574
0.00029422
0.000342427
0.000423021
0.000754825
0.000877265
0.00154536
0.000488493
0.000305534
0.000114626
6.31269e-05
0.000236738
2.2482e-06
4.46266e-06
0.000422952
0.000169306
0.000224649
7.1021e-05
0.000237743
0.000112168
0.000179594
0.000190504
0.000263492
9.16762e-05
0.000460335
0.000642631
0.000430626
0.00602168
0.00369018
0.00141858
0.000492437
0.000137531
0.000680153
0.00127739
0.00229945
0.0028666
0.00362623
0.0043415
0.00442665
0.00437178
0.00372663
0.00373331
0.00316249
0.0035461
0.00452606
0.00649296
0.00840774
0.00547973
0.00340113
0.00170235
0.00062742
0.000352431
0.000640125
0.00140321
0.0019717
0.00263548
0.00315959
0.00354157
0.00386563
0.00374285
0.00311563
0.00292817
0.0029725
0.00313115
0.0037148
0.00541751
0.00713997
0.0048326
0.00299027
0.00153559
0.000618061
0.000374984
0.00055335
0.00134347
0.00182689
0.0023852
0.00283898
0.00291325
0.00327238
0.00309881
0.00272394
0.0024304
0.00228414
0.00241473
0.00300423
0.00419779
0.00619813
0.00378663
0.00263562
0.00141658
0.000448326
0.000301491
0.00066827
0.00111421
0.00153201
0.00203548
0.00229423
0.0026161
0.00244037
0.00248805
0.00235134
0.00183552
0.00178762
0.00199936
0.00247705
0.00355344
0.00494977
0.00317917
0.00216982
0.00126522
0.000245826
0.0004215
0.000437375
0.000858986
0.00118131
0.00160403
0.00191154
0.00204421
0.00197049
0.00192762
0.00175083
0.00147641
0.00134965
0.0017335
0.00178417
0.00270832
0.00357742
0.00229306
0.00138041
0.000964906
0.000634605
1.06015e-05
0.000609094
0.000707012
0.000685908
0.00104306
0.00131614
0.0013212
0.00115845
0.00149504
0.00144567
0.00106307
0.000781917
0.00104291
0.0013893
0.00175172
0.00257782
0.00124202
0.000921849
0.000295729
0.000199051
9.40917e-05
0.000152593
0.000426757
0.000469991
0.000868441
0.000815073
0.000626868
0.000666478
0.000799602
0.000870059
0.000484607
0.000533933
0.000482015
0.000870341
0.00125111
0.00151813
0.000363312
0.000300006
2.07825e-05
0.000334401
0.000114417
7.0955e-05
1.58362e-05
0.000308239
0.000178371
0.000350258
0.000396571
0.00040841
0.00030791
0.000329792
7.98759e-05
0.000502135
6.57977e-05
0.0003648
0.000283055
0.000509333
0.00739231
0.0050422
0.00297014
0.00211858
0.00148135
0.00204689
0.00305412
0.00383886
0.00454282
0.00525141
0.00573805
0.00587488
0.00572625
0.00551082
0.00474143
0.00464161
0.00465494
0.00538185
0.00721213
0.00908999
0.00638724
0.00434762
0.00243057
0.00180425
0.00159822
0.00171915
0.00254533
0.00321722
0.0041895
0.00482734
0.00504734
0.00520465
0.00492749
0.00431231
0.00430591
0.00370606
0.00394651
0.00432856
0.00611769
0.00782591
0.00549697
0.00393001
0.00225079
0.00162486
0.0012166
0.00146549
0.00221472
0.00276694
0.00306982
0.00398675
0.00430643
0.00454191
0.00426041
0.00360946
0.0033818
0.00318545
0.00322974
0.00367688
0.00500243
0.00641089
0.00462541
0.00308164
0.0020292
0.00116809
0.00113822
0.00158911
0.00195297
0.00250938
0.00285085
0.00336267
0.00353485
0.00365812
0.00339284
0.00342464
0.00277663
0.00252923
0.00251604
0.00315177
0.00403762
0.00541186
0.00366961
0.00269376
0.0015229
0.00127492
0.00103853
0.00120307
0.00135672
0.00171434
0.00231172
0.00262443
0.00254632
0.00268428
0.00261613
0.00266396
0.00216742
0.00212813
0.00188586
0.00260898
0.00310894
0.00372732
0.00277338
0.0017364
0.00106421
0.000890035
0.000832463
0.000651058
0.000854251
0.00100745
0.00154208
0.00194712
0.00197067
0.00205987
0.00192817
0.0017131
0.00162962
0.00158391
0.00137159
0.00160338
0.0023417
0.00276683
0.00156208
0.00125623
0.00069984
0.000637424
0.000689795
0.000420838
0.000522864
0.000819727
0.00103793
0.00116249
0.00129139
0.00101242
0.00112086
0.00105662
0.00073544
0.000604019
0.000853438
0.00105718
0.00130481
0.00175414
0.000598247
0.000241847
0.000254801
0.000209923
0.00015054
6.23246e-05
0.000399416
0.000324204
0.000287693
0.000421075
0.000387255
0.000578949
0.000244093
0.000419792
0.00039538
0.00016447
0.0002675
0.000384425
0.000334245
0.000241057
0.00845153
0.00612934
0.00471496
0.00347416
0.00295209
0.00335351
0.00414717
0.00512954
0.00625668
0.00683704
0.0077358
0.00733586
0.00721011
0.00632236
0.00604719
0.00565333
0.00576487
0.00677279
0.00787225
0.00999782
0.00758107
0.0058167
0.00401056
0.00306062
0.00276798
0.00302549
0.00349935
0.00455748
0.00528118
0.00592014
0.0065925
0.0067211
0.00625696
0.0055732
0.0052517
0.00466979
0.00487859
0.005395
0.00705677
0.0085652
0.00660725
0.00513075
0.00359712
0.00258523
0.00257925
0.00259703
0.00323044
0.00406256
0.00454011
0.00507716
0.00543537
0.00561396
0.00532513
0.00469279
0.00424872
0.00402541
0.00410693
0.00474918
0.00579095
0.00728961
0.0054342
0.00397914
0.00299024
0.00229653
0.00221269
0.00223929
0.00260998
0.00306007
0.00397256
0.0041059
0.0045767
0.00484667
0.00451099
0.00382292
0.00344207
0.00320342
0.00312468
0.00384037
0.00476802
0.00567387
0.00430693
0.00323667
0.00260726
0.00173725
0.0017421
0.00171857
0.00226859
0.00236861
0.00304928
0.00322087
0.00354467
0.00343927
0.00328649
0.00313227
0.00289135
0.00237668
0.002435
0.00295623
0.00366506
0.00456571
0.00314402
0.00227362
0.0018007
0.00150049
0.00105198
0.00122646
0.00171624
0.00185149
0.00241379
0.0025328
0.00237698
0.00250891
0.00240276
0.00205735
0.0020666
0.00163862
0.00196277
0.00193087
0.00255603
0.00316552
0.00176252
0.00116359
0.000900772
0.00093125
0.000822986
0.000741384
0.000915801
0.00112018
0.00141561
0.00135899
0.00130379
0.0015225
0.00166149
0.0013739
0.00117874
0.00100823
0.00084052
0.00118023
0.00163945
0.00178574
0.000753586
0.000387416
0.000288537
0.000322908
6.4753e-05
0.000353194
0.000524805
0.000468496
0.000536937
0.000571482
0.000603864
0.000550018
0.00033271
0.000584254
0.000498873
0.000165099
0.00060366
0.000476492
0.000422507
0.000655827
0.00994014
0.00788471
0.00599432
0.00497882
0.00455358
0.00507396
0.00565072
0.00652435
0.00763972
0.00870926
0.00897566
0.00904937
0.00861685
0.00793666
0.00732683
0.00689453
0.00695
0.0075104
0.0090865
0.0107916
0.00858171
0.00693833
0.00511027
0.00449795
0.00426761
0.00448528
0.00502642
0.00564077
0.00675744
0.00742693
0.00777262
0.00775116
0.00752684
0.00701068
0.00601576
0.00582477
0.0059414
0.00618784
0.00781458
0.00933331
0.00762551
0.00624883
0.00475699
0.00392682
0.00373689
0.00377637
0.00444336
0.00512257
0.00569927
0.00634654
0.006614
0.00668809
0.00610641
0.00597842
0.00507154
0.00467201
0.00491215
0.00560188
0.00610247
0.0073844
0.00620777
0.00503954
0.00411168
0.0031812
0.00291423
0.00308604
0.0033783
0.00407718
0.00463471
0.00530599
0.00529503
0.00559958
0.00495904
0.00471077
0.00414961
0.00389163
0.00407912
0.00430894
0.00522757
0.00608141
0.00510355
0.00365369
0.00304938
0.0027197
0.00246446
0.0024626
0.00283113
0.00334601
0.00366822
0.00414984
0.00422881
0.00440491
0.00404619
0.00366836
0.00338223
0.00306415
0.00296991
0.00352027
0.00382227
0.00463481
0.00381018
0.00295929
0.002256
0.00198401
0.00161795
0.00183278
0.00199319
0.00253697
0.00270687
0.00289473
0.00300363
0.00317514
0.00304193
0.00259752
0.00233678
0.00217628
0.00238813
0.00252898
0.00292103
0.00349699
0.00223023
0.00171432
0.00125262
0.00132653
0.00119018
0.00108979
0.00111989
0.00128979
0.00181602
0.00181703
0.00194386
0.00196299
0.00184008
0.00182471
0.00155924
0.00121353
0.00147245
0.00138374
0.00186818
0.00209454
0.00063536
0.000468238
0.000443134
0.000299584
0.000336829
0.000382726
0.000552438
0.000553895
0.000588651
0.000717581
0.00079474
0.000556148
0.000436445
0.000433684
0.000534298
0.000412828
0.000374468
0.000308727
0.000723673
0.000510802
0.0112375
0.00916736
0.00747062
0.0064869
0.00617334
0.00632817
0.0071505
0.00798771
0.00904513
0.00970035
0.0103321
0.0103359
0.00997728
0.00915179
0.00829918
0.00793765
0.00759931
0.00859194
0.0098641
0.0116911
0.0099024
0.0083153
0.00668414
0.00589177
0.00558879
0.00577025
0.00622227
0.00708124
0.00777578
0.00867347
0.00886166
0.00891754
0.00832958
0.00777245
0.00714406
0.00678572
0.00662509
0.00743844
0.00842704
0.0100349
0.00865126
0.00704327
0.00548933
0.00493247
0.00446993
0.00497444
0.00534297
0.00595186
0.0068025
0.00742222
0.00754653
0.00756158
0.00756453
0.00665858
0.00625376
0.0057873
0.00572311
0.00620234
0.00724702
0.00838478
0.00713144
0.00625163
0.00475955
0.00441753
0.00393489
0.00423204
0.00453513
0.00504706
0.00545121
0.00619484
0.00624963
0.00584016
0.00612177
0.00558275
0.00508603
0.00479041
0.00463996
0.00505892
0.00565085
0.00663109
0.005744
0.00497939
0.00389198
0.00334514
0.00315082
0.00315493
0.00356011
0.00414677
0.00446582
0.00497251
0.00501285
0.00500307
0.00457016
0.00420389
0.00384389
0.00351721
0.00356565
0.00399711
0.00442822
0.00497001
0.00375467
0.00308899
0.0030069
0.00260002
0.00219818
0.00232009
0.00238275
0.00270122
0.00317847
0.00348102
0.00371068
0.00359093
0.00323697
0.0031056
0.00280653
0.00255898
0.00276003
0.00300824
0.00312343
0.00367939
0.00243447
0.00213057
0.00171256
0.0014892
0.00160319
0.0014223
0.00134098
0.00185906
0.00226294
0.00209034
0.00219436
0.00226641
0.00207829
0.0019714
0.00189622
0.00149988
0.00149543
0.00180093
0.00191231
0.00229398
0.000876926
0.000603916
0.000668433
0.00059953
0.000451054
0.000502006
0.000774474
0.000675993
0.000569849
0.000644679
0.000711163
0.000837412
0.000555679
0.000718898
0.000519056
0.000788493
0.000504884
0.000615847
0.000948627
0.000709369
0.012727
0.0107222
0.00925517
0.00800692
0.00740199
0.00761632
0.00842633
0.00928363
0.0101365
0.0110954
0.011526
0.0114744
0.0107782
0.0103871
0.00929332
0.00883206
0.00899256
0.00946618
0.0105984
0.0124515
0.0110978
0.00951757
0.00818524
0.00687076
0.00670498
0.00694123
0.00753428
0.0083243
0.00881761
0.00975833
0.0100204
0.00989146
0.00962843
0.00872152
0.00813186
0.0076694
0.00731145
0.00800506
0.00911128
0.0106307
0.00938614
0.00838113
0.00720285
0.00618563
0.00586533
0.00621842
0.00640936
0.00705205
0.00802642
0.00823716
0.00873545
0.00828639
0.0081819
0.00752812
0.00687327
0.00637246
0.00624249
0.00672546
0.00768278
0.00878607
0.00769386
0.00690841
0.00581412
0.00509129
0.00480912
0.00501554
0.00528008
0.00580061
0.00642125
0.00680565
0.00694399
0.00694019
0.0065628
0.00613654
0.00564959
0.00523594
0.00496777
0.00571548
0.00621089
0.00723307
0.00604514
0.00536246
0.00471275
0.00415398
0.00404724
0.003853
0.00404509
0.00449081
0.00493377
0.00522784
0.00555418
0.00540938
0.00525231
0.00479886
0.00423835
0.00397038
0.00417593
0.00431499
0.0049614
0.00567235
0.0046422
0.00366476
0.00327216
0.00277538
0.00267081
0.00298402
0.00302786
0.00320936
0.00341329
0.00373293
0.00393818
0.00356801
0.00394686
0.0034785
0.00319644
0.00314813
0.0028643
0.00316264
0.00349563
0.00410615
0.00259846
0.00245179
0.00198256
0.00186264
0.00163283
0.00190061
0.00178539
0.00187581
0.00207685
0.00229916
0.00218546
0.00253319
0.00246715
0.00214641
0.00177002
0.00160429
0.0018136
0.00192288
0.00197709
0.00236352
0.00114816
0.000820662
0.000638025
0.000691996
0.000591193
0.000591877
0.000603325
0.000570822
0.000956904
0.000967428
0.000787499
0.000548946
0.000960171
0.000895897
0.000667119
0.000767726
0.00066985
0.000578723
0.000787409
0.000628994
0.0137969
0.0120681
0.0102731
0.0094605
0.00865919
0.00911543
0.00983581
0.0102452
0.0108371
0.012008
0.0123538
0.0121964
0.0115775
0.0108658
0.0101959
0.00964961
0.00947167
0.010151
0.0113045
0.012839
0.0121767
0.0105125
0.00922597
0.00806512
0.00777352
0.00784557
0.00851639
0.00892336
0.00976359
0.0104701
0.0108665
0.0106173
0.0102818
0.00943014
0.00889104
0.00813648
0.00820926
0.0087503
0.00957275
0.0109226
0.010526
0.00908382
0.00780657
0.00695193
0.00682106
0.00694715
0.00708159
0.00775544
0.00830682
0.00884408
0.00927153
0.00899574
0.00872877
0.00795797
0.0076223
0.007004
0.00676548
0.00739308
0.00836544
0.00926396
0.00865715
0.00770109
0.00674828
0.00614144
0.00551616
0.00561979
0.00646224
0.00630468
0.00684463
0.00759967
0.00753793
0.00731526
0.00721265
0.00671974
0.00624582
0.00558829
0.00566925
0.00609425
0.00657478
0.00728195
0.00712939
0.00616889
0.00519542
0.00473185
0.00443315
0.00436065
0.00481889
0.00503256
0.00534732
0.00584964
0.0059055
0.00602513
0.00566204
0.00530644
0.00489403
0.00446554
0.00446226
0.00460092
0.00503061
0.00571093
0.00488036
0.00464994
0.00363946
0.00350708
0.00317146
0.00342238
0.00340163
0.00380324
0.00376158
0.00415953
0.00416135
0.00427149
0.00401249
0.00365579
0.003562
0.00293204
0.00317695
0.00334264
0.00400787
0.00423215
0.00296403
0.00270655
0.00220825
0.00212112
0.00195034
0.0019666
0.00230257
0.00198874
0.00238096
0.00241985
0.00275104
0.00245066
0.002511
0.00208632
0.00198205
0.00208915
0.00206654
0.00216173
0.00210786
0.00245692
0.000933603
0.000885695
0.000843796
0.000593814
0.000616543
0.000572521
0.000867557
0.000580788
0.000724366
0.000977213
0.00111853
0.00101256
0.000695227
0.00072188
0.000631839
0.000655764
0.000723623
0.000615559
0.000466069
0.0012136
0.0149174
0.0130923
0.0115343
0.010313
0.00993371
0.00945524
0.0102977
0.0110733
0.0117042
0.0123752
0.01294
0.0130174
0.0122029
0.0114419
0.010594
0.00998682
0.00979945
0.0104802
0.0118085
0.0131797
0.0132949
0.0116149
0.0101493
0.00897237
0.00865145
0.00855157
0.00927724
0.0098428
0.0103957
0.0109763
0.0112319
0.0110316
0.0107718
0.0095289
0.00933817
0.00884669
0.00881549
0.00914308
0.0100682
0.0113595
0.0112908
0.0101235
0.00876876
0.00811268
0.00750885
0.00757614
0.00795659
0.0082681
0.00870424
0.00913299
0.00959717
0.00960805
0.00889891
0.00849697
0.00766469
0.00744824
0.00715639
0.00778188
0.00838806
0.00953607
0.00934626
0.00840246
0.00741326
0.00667778
0.00629182
0.00634322
0.00650693
0.00691651
0.00747859
0.00795323
0.00778077
0.007923
0.00749737
0.00714858
0.0064236
0.00601166
0.00603114
0.00642058
0.00695141
0.00783889
0.00760692
0.00676905
0.00576985
0.00540616
0.00485177
0.004834
0.00501928
0.00565428
0.00577362
0.0060156
0.00637619
0.00617933
0.00594675
0.00525589
0.00496982
0.00488322
0.00467548
0.00499906
0.00524441
0.00574328
0.00527765
0.00459724
0.00439443
0.00372009
0.0036848
0.00362388
0.00402765
0.00399201
0.00450899
0.00436213
0.00441953
0.00438042
0.00440279
0.00414416
0.00377187
0.00336861
0.00343862
0.00363599
0.00383935
0.00432647
0.00316514
0.00290401
0.00257157
0.00232522
0.00214143
0.0022912
0.00218023
0.00239519
0.00253128
0.00261937
0.00296516
0.0027144
0.00276509
0.00228654
0.00228189
0.00210463
0.00208594
0.00222609
0.00246547
0.00273828
0.000971513
0.000927465
0.000817132
0.000579965
0.000776395
0.000811593
0.00089352
0.000950748
0.000923486
0.000790628
0.00088723
0.00101473
0.000879804
0.000861199
0.00049119
0.000529006
0.000716814
0.000710633
0.000963145
0.000922927
0.0155057
0.0139027
0.0125319
0.0113755
0.0106051
0.0105945
0.010979
0.0116234
0.0123787
0.0129501
0.0130582
0.0128977
0.0124479
0.0114259
0.0107413
0.010336
0.0106105
0.0109103
0.0119002
0.0133638
0.0137962
0.0122127
0.0110006
0.0099673
0.00981801
0.00957846
0.00999286
0.0101533
0.0106994
0.0113077
0.0115517
0.0111224
0.0106749
0.0100268
0.00943986
0.00903927
0.00893722
0.00960877
0.0102789
0.0114454
0.0120747
0.0105737
0.00951874
0.00895071
0.00845052
0.00804314
0.00838318
0.00893274
0.00931154
0.00973581
0.00985983
0.00928978
0.00905095
0.00860583
0.00810077
0.00778547
0.00755203
0.00798116
0.00896104
0.00955604
0.0102938
0.00863625
0.00780687
0.00711135
0.0071454
0.00681105
0.0070015
0.00745858
0.0075963
0.00815002
0.00798026
0.00766852
0.00789258
0.00687211
0.00656587
0.00638189
0.00596752
0.00660748
0.00721061
0.00804025
0.00788584
0.00712297
0.00630703
0.00587637
0.00544252
0.00555416
0.00546768
0.00563351
0.00575088
0.00625827
0.00653522
0.00611899
0.00596523
0.00570278
0.0053701
0.00495449
0.00464849
0.00515791
0.00561334
0.00600787
0.0054814
0.00507416
0.00455176
0.00411933
0.00403458
0.0040449
0.00389013
0.00414632
0.00430353
0.00422544
0.00486293
0.0048194
0.00433046
0.00408505
0.00371108
0.00345474
0.00337892
0.00353387
0.0041458
0.00437726
0.00348675
0.00289652
0.00253244
0.00242067
0.00238168
0.00229722
0.00250719
0.00275928
0.00271724
0.00278766
0.00276808
0.00251732
0.00270603
0.00232698
0.00230381
0.00231354
0.00200238
0.00229044
0.00230604
0.0024947
0.000902464
0.000613465
0.000916516
0.00080141
0.000823835
0.000841957
0.000820062
0.000802135
0.00100105
0.00102239
0.00112354
0.00126433
0.0007744
0.000869221
0.00062687
0.000593653
0.000685973
0.000758896
0.000735544
0.000830337
0.0162914
0.0151932
0.0131645
0.0120147
0.0113729
0.0110563
0.0114852
0.0116898
0.0123824
0.0128729
0.0129451
0.0127418
0.0120012
0.0114577
0.0108648
0.0105254
0.0104308
0.0107908
0.0119068
0.0132907
0.0144984
0.0130246
0.0117717
0.0108217
0.0101538
0.0099858
0.0102296
0.0104421
0.0109003
0.0112235
0.0112979
0.0111864
0.0108924
0.0100622
0.00930356
0.00893335
0.00893819
0.00914715
0.0104299
0.0112744
0.0125239
0.0114471
0.0101977
0.00942038
0.00891434
0.00853851
0.00865047
0.00879629
0.0094144
0.00986902
0.00988656
0.00949076
0.00907327
0.00881196
0.00801238
0.00783501
0.00744349
0.00787104
0.00877974
0.00948954
0.010159
0.00967585
0.00848837
0.00788437
0.00716125
0.00718144
0.00727629
0.0072983
0.00780339
0.00780562
0.00797739
0.00785058
0.00755997
0.00689032
0.00650923
0.00624871
0.00628122
0.00650436
0.00745099
0.00804041
0.00810526
0.00743888
0.00682986
0.0060025
0.00565035
0.00563982
0.00565836
0.00583885
0.0060659
0.0061849
0.0063391
0.00616016
0.0060544
0.00538072
0.00544047
0.0048607
0.00497727
0.00518336
0.0055987
0.00612808
0.00591012
0.00558761
0.00475985
0.00452566
0.0042171
0.00420141
0.00436751
0.00438937
0.00419545
0.00458183
0.00457865
0.00459517
0.00427144
0.00377949
0.00384138
0.0035862
0.00357273
0.00370501
0.0042227
0.00420637
0.00365639
0.00334846
0.0028484
0.00272892
0.00268786
0.00229827
0.00230125
0.00247243
0.00252188
0.00302322
0.0027395
0.00263034
0.00263459
0.00237382
0.00193682
0.00224665
0.00207054
0.00228991
0.00246509
0.00260196
0.00110711
0.00119496
0.000949444
0.000886597
0.00084559
0.000805272
0.000902235
0.000574983
0.000807055
0.000998489
0.000805927
0.00105709
0.000942108
0.000659744
0.000717881
0.000830354
0.000830862
0.000823663
0.000745222
0.000793548
0.0168159
0.0153452
0.013526
0.0124681
0.0117714
0.0115361
0.0114087
0.011798
0.0121386
0.0122667
0.012689
0.0123637
0.0115536
0.0110202
0.0105729
0.0102847
0.0100636
0.0107276
0.0114294
0.0129499
0.0146969
0.0136044
0.0123816
0.0112045
0.0105948
0.0103745
0.0101747
0.010509
0.0108817
0.0112195
0.0108201
0.01052
0.0103663
0.0096433
0.00932245
0.00882702
0.00890766
0.00919535
0.0102251
0.0111755
0.0127579
0.0118584
0.0105308
0.00960961
0.00913521
0.00876455
0.00887671
0.00887809
0.0091648
0.00922734
0.00959943
0.00917499
0.00889831
0.00834633
0.00780199
0.0073209
0.0074279
0.00797894
0.0085087
0.00956649
0.0108122
0.00986607
0.008837
0.00811348
0.00761656
0.00740634
0.00722857
0.00756102
0.00749584
0.00773424
0.00786077
0.00754757
0.00732481
0.00676948
0.00658438
0.00624892
0.00595465
0.00639998
0.00695264
0.00780505
0.00848259
0.00767367
0.00691227
0.00648645
0.00590138
0.00564857
0.00586233
0.00595607
0.00605812
0.00593956
0.0060521
0.00586297
0.00578089
0.00546316
0.0051515
0.00504136
0.00477326
0.00482364
0.00559731
0.00599803
0.00616075
0.00585192
0.00502177
0.0043681
0.00420205
0.00425069
0.00447671
0.00436119
0.00460392
0.0042393
0.00438328
0.00426102
0.00417796
0.00382945
0.00352555
0.00370648
0.00344942
0.00360493
0.00412346
0.00421312
0.00359987
0.00344489
0.00330788
0.00296206
0.00303579
0.00246651
0.00256351
0.00271261
0.00261474
0.00271953
0.0026717
0.00272613
0.00282733
0.00227506
0.00235192
0.00213601
0.00205628
0.00209991
0.0022716
0.00272544
0.00108869
0.00100318
0.000990614
0.00112056
0.000775884
0.000844609
0.000981178
0.000637828
0.000857729
0.000786953
0.000820291
0.00108791
0.000930227
0.00059095
0.000480909
0.000786572
0.000906523
0.000724399
0.000707872
0.000750552
0.0169283
0.0153345
0.0139932
0.01252
0.0120794
0.0116419
0.0115279
0.0116699
0.0115373
0.0118142
0.0117732
0.0113988
0.0111943
0.010414
0.0099793
0.00950062
0.00988297
0.010041
0.0110317
0.0126571
0.0148412
0.0137481
0.0122215
0.0114316
0.0107981
0.0102791
0.0101621
0.0102342
0.0104216
0.0102601
0.0104994
0.0101088
0.00961704
0.00898787
0.00863642
0.00848657
0.00826037
0.00877897
0.00978861
0.0105872
0.0128279
0.0118279
0.0107971
0.00987551
0.00920128
0.00883031
0.00865696
0.00837122
0.00880392
0.00903835
0.00889996
0.00861285
0.00840738
0.00792312
0.00740927
0.0071591
0.00717229
0.00759497
0.0081864
0.00908292
0.0108058
0.00998153
0.00896874
0.00817287
0.00791893
0.00744324
0.00746312
0.00748612
0.00731272
0.00734578
0.00716552
0.00716264
0.00703691
0.00662389
0.00598816
0.00587882
0.0059349
0.00617952
0.00671801
0.00757212
0.00856444
0.00763388
0.00702134
0.00658609
0.00610659
0.00612476
0.00560703
0.00564687
0.00579949
0.00598992
0.00574079
0.00566096
0.00513105
0.00547478
0.00471098
0.00447744
0.00466674
0.00500507
0.00518167
0.00573615
0.00612001
0.00577427
0.0051192
0.00481476
0.00449899
0.00420744
0.00424907
0.00408198
0.00447502
0.00402442
0.00417736
0.00411271
0.00383057
0.0035823
0.00344256
0.00357078
0.00315647
0.00361346
0.00371635
0.00414485
0.00402378
0.00347168
0.00322449
0.00281108
0.00253073
0.00245999
0.00249744
0.00245081
0.00259008
0.00235973
0.00279084
0.00227629
0.00216476
0.00230966
0.00231092
0.00216306
0.00201602
0.00205189
0.002393
0.00265937
0.00132063
0.0011825
0.00104183
0.000826877
0.00107699
0.00105248
0.000649995
0.00063668
0.000792062
0.00104587
0.00088581
0.000796146
0.000836344
0.000838221
0.00107898
0.000846192
0.000769849
0.000738194
0.000739727
0.000820925
0.0169071
0.0152445
0.0140472
0.012456
0.01173
0.0114975
0.0111268
0.0110053
0.0108872
0.0110653
0.0109299
0.0107482
0.0101238
0.00967195
0.00937327
0.00899285
0.00894853
0.00956823
0.010557
0.0118929
0.0149842
0.0136456
0.0123278
0.0112961
0.0105537
0.00979818
0.00990234
0.00952828
0.00990899
0.00973922
0.00987476
0.00942962
0.00901455
0.0085825
0.0079113
0.00799678
0.00788625
0.00835915
0.00902166
0.0102905
0.0130063
0.0118904
0.0106076
0.00987543
0.00933568
0.00878883
0.0084132
0.00846136
0.00846231
0.00805386
0.00840169
0.0077752
0.00766154
0.00723795
0.00676792
0.00633797
0.00670588
0.00690176
0.00766471
0.00850913
0.0106989
0.0100706
0.0089411
0.00802807
0.00763734
0.00736677
0.00713537
0.00702429
0.00685768
0.0069973
0.00712802
0.00640433
0.0063392
0.00591885
0.0055863
0.00543665
0.00555677
0.00585339
0.00641292
0.00701673
0.00884558
0.00784108
0.00699754
0.00644394
0.00575972
0.00581151
0.00558009
0.00565747
0.00541897
0.00538713
0.00553649
0.00547443
0.00519805
0.00483668
0.00448304
0.00424478
0.00437052
0.00455066
0.00509596
0.00544799
0.00624026
0.00564598
0.00516362
0.00469812
0.00434839
0.00402553
0.00397084
0.00394686
0.00377416
0.00398192
0.00394982
0.00370155
0.003822
0.00365065
0.00312025
0.00302082
0.00300766
0.00340371
0.00377414
0.00377491
0.00376454
0.00339326
0.00309504
0.0027853
0.00290937
0.00248374
0.0024128
0.00253262
0.00239009
0.00244353
0.00224416
0.00220708
0.00219341
0.00200826
0.00169294
0.00174964
0.00214324
0.00219785
0.00239007
0.00243816
0.00136492
0.00114573
0.00132121
0.000951527
0.000905414
0.000834892
0.000920726
0.000682548
0.000820214
0.000833526
0.000966177
0.0008065
0.000694396
0.000751145
0.000631916
0.000638778
0.000523773
0.000867972
0.000712127
0.00078641
0.0165549
0.0148491
0.0134734
0.0124139
0.0114668
0.0109046
0.010376
0.0101967
0.0102725
0.00999223
0.00989093
0.00951585
0.00913218
0.00872779
0.00822432
0.00785642
0.00825763
0.00872159
0.00983854
0.0109492
0.0147345
0.0134064
0.0120882
0.0109369
0.0100207
0.0094957
0.00942002
0.00904063
0.00895581
0.00874358
0.00885679
0.0084037
0.00797649
0.00791168
0.00734502
0.00675177
0.00708106
0.00767425
0.00838149
0.00942078
0.0128392
0.0115198
0.0106593
0.00956375
0.00860831
0.00832918
0.00798503
0.00798138
0.00767046
0.00751143
0.0075934
0.00708496
0.00667694
0.00626135
0.00601027
0.00571151
0.00613432
0.00656913
0.00732858
0.00777477
0.0108934
0.00984651
0.00897616
0.00782732
0.00753085
0.00694743
0.0065311
0.00654647
0.00619838
0.00629371
0.00629394
0.00606817
0.00561409
0.00526437
0.00481702
0.00480313
0.0049252
0.00513804
0.00569472
0.00647648
0.00806266