/*--------------------------------*- C++ -*----------------------------------*\
| =========                 |                                                 |
| \\      /  F ield         | OpenFOAM: The Open Source CFD Toolbox           |
|  \\    /   O peration     | Version:  2212                                  |
|   \\  /    A nd           | Website:  www.openfoam.com                      |
|    \\/     M anipulation  |                                                 |
\*---------------------------------------------------------------------------*/
FoamFile
{
    version     2.0;
    format      ascii;
    arch        "LSB;label=32;scalar=64";
    class       volScalarField;
    location    "0";
    object      stateMean;
}
// * * * * * * * * * * * * * * * * * * * * * * * * * * * * * * * * * * * * * //

dimensions      [0 0 0 1 0 0 0];

internalField   nonuniform List<scalar> 
3200
(
319.876
319.31
318.834
318.736
318.881
319.203
319.629
320.051
320.503
320.62
320.79
320.84
320.674
320.45
320.096
319.89
319.824
319.955
320.346
320.915
317.415
316.862
316.55
316.382
316.513
316.763
317.042
317.511
317.752
318.024
318.102
318.155
318.017
317.833
317.52
317.325
317.228
317.371
317.641
318.091
314.773
314.383
314.036
314.002
314.069
314.269
314.654
314.928
315.178
315.371
315.49
315.355
315.245
315.063
314.94
314.801
314.619
314.69
314.969
315.396
312.327
311.819
311.597
311.472
311.581
311.712
311.961
312.288
312.433
312.613
312.629
312.668
312.59
312.43
312.233
312.087
311.997
312.036
312.248
312.566
309.544
309.293
309.02
308.922
309.077
309.184
309.431
309.516
309.733
309.836
309.968
309.887
309.812
309.644
309.521
309.429
309.278
309.438
309.563
309.797
306.769
306.65
306.46
306.409
306.409
306.592
306.702
306.852
306.905
307.008
307.066
306.996
307.044
306.898
306.857
306.763
306.654
306.757
306.863
306.965
304.133
303.949
303.946
303.89
303.915
303.955
304.003
304.168
304.2
304.191
304.311
304.316
304.209
304.137
304.062
304.073
304.03
304.004
304.073
304.22
301.331
301.366
301.375
301.342
301.328
301.304
301.359
301.386
301.408
301.33
301.429
301.394
301.431
301.32
301.37
301.393
301.339
301.333
301.419
301.502
320.053
319.447
319.026
318.961
319.07
319.481
319.903
320.328
320.634
321.014
321.077
321.136
321.004
320.699
320.424
320.158
319.986
320.093
320.533
321.049
317.565
317.1
316.623
316.62
316.673
316.911
317.336
317.719
318.027
318.275
318.313
318.362
318.241
318.019
317.732
317.467
317.396
317.522
317.79
318.305
314.939
314.507
314.12
314.158
314.254
314.503
314.708
315.141
315.326
315.502
315.651
315.684
315.484
315.359
315.058
314.879
314.74
314.782
315.139
315.418
312.247
311.935
311.765
311.589
311.758
311.829
312.163
312.461
312.586
312.734
312.797
312.792
312.688
312.595
312.455
312.216
312.112
312.125
312.348
312.65
309.588
309.275
309.207
309.086
309.15
309.323
309.557
309.592
309.85
309.983
310.009
309.991
309.909
309.763
309.625
309.537
309.444
309.422
309.633
309.881
306.887
306.755
306.584
306.538
306.529
306.645
306.782
306.872
307.045
307.077
307.087
307.228
307.059
307.012
306.926
306.755
306.787
306.838
306.953
307.015
304.173
304.017
303.871
303.976
303.935
303.992
304.109
304.2
304.293
304.325
304.381
304.377
304.246
304.273
304.117
304.11
304.048
304.047
304.112
304.199
301.354
301.363
301.439
301.421
301.282
301.349
301.353
301.448
301.394
301.434
301.382
301.422
301.477
301.394
301.358
301.469
301.407
301.354
301.426
301.399
320.446
319.846
319.462
319.324
319.559
319.814
320.403
320.758
321.166
321.402
321.663
321.663
321.421
321.216
320.783
320.473
320.364
320.383
320.782
321.264
317.825
317.33
316.963
316.787
316.991
317.427
317.773
318.191
318.452
318.73
318.791
318.811
318.684
318.466
318.075
317.791
317.73
317.814
318.035
318.478
315.183
314.788
314.423
314.427
314.535
314.771
315.102
315.439
315.663
315.942
316.004
315.999
315.823
315.548
315.422
315.052
315.024
315.029
315.31
315.619
312.504
312.167
311.934
311.851
311.92
312.163
312.467
312.676
312.889
313.151
313.159
313.096
312.944
312.779
312.63
312.465
312.304
312.288
312.473
312.773
309.727
309.61
309.284
309.247
309.361
309.469
309.75
309.925
310.065
310.163
310.259
310.252
310.059
309.998
309.855
309.726
309.623
309.622
309.809
310.001
307.032
306.838
306.709
306.687
306.725
306.879
306.873
307.084
307.237
307.275
307.269
307.326
307.318
307.096
306.97
306.931
306.798
306.908
306.937
307.223
304.198
304.193
304.009
303.974
304.012
304.053
304.171
304.289
304.347
304.394
304.463
304.429
304.397
304.267
304.2
304.161
304.131
304.178
304.167
304.335
301.444
301.401
301.36
301.324
301.432
301.378
301.397
301.537
301.471
301.493
301.446
301.492
301.444
301.45
301.436
301.44
301.371
301.464
301.503
301.427
320.896
320.343
319.859
319.824
319.979
320.415
320.847
321.377
321.707
322.028
322.257
322.207
322.042
321.632
321.392
320.947
320.801
320.852
321.237
321.657
318.296
317.798
317.469
317.354
317.499
317.817
318.268
318.624
318.962
319.196
319.318
319.354
319.187
318.812
318.544
318.33
318.148
318.106
318.437
318.821
315.616
315.171
314.89
314.792
314.912
315.159
315.584
315.884
316.168
316.368
316.391
316.448
316.285
316.019
315.751
315.513
315.358
315.352
315.55
316.045
312.774
312.523
312.286
312.14
312.255
312.526
312.809
313.06
313.305
313.432
313.533
313.432
313.359
313.196
312.89
312.719
312.624
312.616
312.809
313.136
310.039
309.809
309.64
309.447
309.625
309.752
309.994
310.188
310.387
310.518
310.56
310.501
310.419
310.27
310.074
309.913
309.907
309.801
309.975
310.162
307.194
306.972
306.924
306.91
306.807
307.078
307.187
307.248
307.406
307.515
307.517
307.442
307.496
307.414
307.217
307.044
307.035
307.054
307.086
307.281
304.284
304.222
304.079
304.102
304.123
304.193
304.324
304.377
304.528
304.527
304.47
304.467
304.477
304.459
304.294
304.256
304.188
304.254
304.322
304.368
301.42
301.413
301.332
301.457
301.408
301.37
301.402
301.514
301.484
301.542
301.556
301.553
301.514
301.506
301.415
301.525
301.336
301.448
301.408
301.464
321.608
321.043
320.614
320.595
320.649
321.081
321.634
322.08
322.446
322.748
322.904
322.874
322.685
322.422
321.944
321.661
321.406
321.385
321.736
322.15
318.822
318.333
317.927
317.947
318.105
318.36
318.822
319.204
319.634
319.901
319.971
319.957
319.748
319.384
319.182
318.774
318.627
318.529
318.894
319.278
316.029
315.666
315.307
315.295
315.355
315.618
316.022
316.338
316.536
316.878
316.979
317
316.809
316.462
316.222
315.975
315.801
315.756
316.003
316.316
313.203
312.826
312.636
312.519
312.663
312.955
313.205
313.495
313.685
313.889
313.943
313.937
313.771
313.666
313.326
313.098
312.939
312.986
313.124
313.448
310.321
310.099
309.844
309.885
309.932
310.1
310.253
310.454
310.704
310.835
310.81
310.819
310.734
310.658
310.398
310.269
310.074
310.18
310.227
310.338
307.435
307.173
307.043
307.074
307.142
307.17
307.308
307.419
307.63
307.778
307.785
307.789
307.702
307.572
307.47
307.373
307.222
307.209
307.359
307.433
304.438
304.379
304.256
304.287
304.354
304.322
304.399
304.527
304.622
304.674
304.713
304.614
304.619
304.561
304.418
304.328
304.353
304.364
304.394
304.496
301.51
301.414
301.433
301.436
301.435
301.426
301.543
301.533
301.532
301.576
301.566
301.62
301.509
301.55
301.526
301.44
301.454
301.472
301.442
301.403
322.291
321.727
321.5
321.345
321.424
321.792
322.264
322.762
323.257
323.513
323.802
323.604
323.43
322.962
322.655
322.29
322.078
322.158
322.284
322.785
319.502
319.093
318.714
318.621
318.742
319.03
319.37
319.865
320.209
320.473
320.687
320.668
320.406
320.03
319.738
319.346
319.199
319.154
319.487
319.814
316.634
316.295
315.975
315.833
316.011
316.192
316.551
316.947
317.195
317.414
317.528
317.534
317.346
317.013
316.713
316.467
316.313
316.337
316.502
316.849
313.665
313.312
313.137
313.064
313.185
313.337
313.582
313.832
314.196
314.28
314.427
314.47
314.286
313.962
313.713
313.495
313.323
313.402
313.558
313.74
310.682
310.429
310.336
310.18
310.296
310.4
310.671
310.786
311.059
311.144
311.244
311.18
311.071
310.939
310.763
310.492
310.396
310.444
310.561
310.762
307.666
307.453
307.382
307.37
307.314
307.447
307.669
307.771
307.988
308.047
307.999
308.017
307.94
307.774
307.705
307.494
307.511
307.421
307.54
307.673
304.57
304.42
304.384
304.441
304.457
304.481
304.577
304.675
304.791
304.788
304.771
304.823
304.84
304.716
304.614
304.514
304.414
304.469
304.564
304.577
301.58
301.481
301.466
301.492
301.432
301.533
301.6
301.595
301.625
301.639
301.649
301.629
301.554
301.618
301.577
301.462
301.577
301.523
301.491
301.551
323.184
322.696
322.305
322.21
322.307
322.7
323.09
323.541
324.024
324.432
324.518
324.477
324.214
323.825
323.423
323.058
322.842
322.791
323.081
323.456
320.182
319.805
319.409
319.413
319.542
319.806
320.156
320.5
320.962
321.232
321.342
321.279
321.101
320.788
320.293
320.037
319.872
319.751
320.083
320.421
317.263
316.949
316.635
316.541
316.652
316.829
317.19
317.529
317.801
318.053
318.137
318.113
317.84
317.675
317.238
316.947
316.852
316.901
316.903
317.187
314.161
313.892
313.73
313.576
313.631
313.82
314.034
314.354
314.602
314.852
314.848
314.905
314.631
314.451
314.153
313.937
313.857
313.791
313.951
314.122
311.127
310.751
310.662
310.668
310.697
310.8
311.01
311.249
311.406
311.585
311.609
311.635
311.466
311.27
311.086
310.883
310.745
310.808
310.803
310.982
308.012
307.803
307.658
307.65
307.615
307.756
307.872
308.097
308.189
308.268
308.301
308.333
308.252
308.058
307.911
307.786
307.774
307.741
307.791
307.916
304.797
304.671
304.573
304.641
304.646
304.66
304.71
304.796
304.98
304.993
305.032
305.025
304.963
304.924
304.803
304.653
304.685
304.613
304.718
304.756
301.573
301.533
301.54
301.512
301.539
301.567
301.633
301.644
301.662
301.706
301.73
301.653
301.609
301.597
301.613
301.561
301.535
301.499
301.61
301.536
324.088
323.587
323.247
323.148
323.266
323.527
323.982
324.411
324.865
325.136
325.339
325.281
325.051
324.626
324.161
323.833
323.505
323.607
323.811
324.234
321.029
320.661
320.318
320.254
320.346
320.587
320.896
321.307
321.628
321.966
322.026
321.992
321.706
321.391
321.025
320.728
320.487
320.558
320.697
321.071
317.949
317.556
317.214
317.197
317.211
317.524
317.78
318.088
318.441
318.68
318.719
318.681
318.598
318.196
317.928
317.627
317.446
317.439
317.62
317.865
314.748
314.564
314.217
314.24
314.221
314.439
314.648
314.903
315.097
315.367
315.384
315.219
315.24
314.976
314.707
314.488
314.31
314.311
314.377
314.591
311.557
311.391
311.147
311.078
311.12
311.219
311.433
311.688
311.84
312.025
312.037
312.007
311.82
311.633
311.433
311.234
311.146
311.18
311.22
311.318
308.162
308.006
308.047
307.995
307.943
308.051
308.133
308.283
308.468
308.58
308.651
308.595
308.448
308.356
308.201
308.054
308.044
308.048
308.017
308.139
304.959
304.896
304.809
304.784
304.862
304.849
304.862
305.051
305.197
305.156
305.187
305.198
305.118
305.054
304.993
304.831
304.786
304.836
304.83
304.916
301.68
301.607
301.64
301.634
301.604
301.633
301.727
301.709
301.684
301.71
301.73
301.764
301.673
301.711
301.638
301.706
301.605
301.625
301.711
301.63
325.13
324.64
324.359
324.162
324.172
324.436
324.874
325.296
325.676
326.04
326.179
326.107
325.778
325.505
324.976
324.632
324.479
324.427
324.6
325.041
321.9
321.526
321.267
321.025
321.148
321.393
321.735
322.113
322.362
322.71
322.793
322.705
322.53
322.114
321.774
321.456
321.165
321.21
321.397
321.751
318.599
318.388
318.155
317.983
318.031
318.286
318.475
318.785
319.17
319.277
319.435
319.253
319.143
318.829
318.493
318.192
318.001
318.004
318.168
318.409
315.266
315.107
314.877
314.772
314.807
314.988
315.176
315.426
315.683
315.837
315.88
315.846
315.665
315.445
315.187
314.94
314.734
314.846
314.889
315.122
311.918
311.773
311.659
311.58
311.642
311.672
311.814
312.02
312.206
312.322
312.424
312.354
312.256
312.048
311.792
311.618
311.587
311.535
311.649
311.803
308.625
308.372
308.314
308.228
308.264
308.425
308.497
308.601
308.698
308.814
308.878
308.746
308.828
308.636
308.49
308.411
308.255
308.28
308.32
308.46
305.124
305.107
305.001
305.006
304.976
305.097
305.097
305.153
305.235
305.313
305.279
305.374
305.333
305.207
305.057
304.967
304.991
304.983
304.963
305.052
301.8
301.71
301.668
301.698
301.681
301.694
301.71
301.709
301.833
301.84
301.785
301.71
301.827
301.798
301.717
301.734
301.691
301.65
301.7
301.644
326.112
325.7
325.302
325.23
325.161
325.488
325.883
326.149
326.436
326.863
326.975
326.875
326.579
326.215
325.837
325.481
325.234
325.263
325.454
325.804
322.799
322.391
322.135
321.929
322
322.179
322.534
322.779
323.13
323.4
323.527
323.404
323.213
322.826
322.513
322.116
321.975
321.983
322.091
322.399
319.431
319.076
318.802
318.671
318.768
318.939
319.101
319.412
319.656
319.863
319.999
319.875
319.721
319.379
319.153
318.826
318.612
318.672
318.849
319.032
315.956
315.738
315.545
315.468
315.385
315.525
315.886
315.916
316.143
316.409
316.39
316.291
316.201
315.967
315.722
315.408
315.32
315.34
315.385
315.525
312.558
312.322
312.101
312.046
312.04
312.102
312.32
312.448
312.59
312.769
312.786
312.8
312.643
312.471
312.268
312.05
311.962
311.917
311.969
312.117
308.915
308.889
308.636
308.658
308.618
308.755
308.802
308.97
308.988
309.127
309.128
309.145
309.034
308.88
308.798
308.544
308.556
308.545
308.691
308.716
305.365
305.313
305.196
305.207
305.193
305.234
305.369
305.299
305.438
305.459
305.56
305.459
305.458
305.303
305.239
305.235
305.19
305.182
305.131
305.211
301.779
301.773
301.772
301.71
301.729
301.728
301.828
301.75
301.799
301.879
301.921
301.886
301.785
301.784
301.746
301.741
301.749
301.704
301.647
301.864
327.186
326.733
326.398
326.18
326.232
326.243
326.663
327.035
327.326
327.588
327.771
327.751
327.4
327.033
326.611
326.249
326.014
326.058
326.319
326.626
323.779
323.357
323.032
322.808
322.856
322.967
323.328
323.614
323.866
324.091
324.173
324.07
323.912
323.409
323.219
322.919
322.757
322.71
322.862
323.161
320.202
319.926
319.619
319.539
319.476
319.618
319.848
320.034
320.236
320.406
320.553
320.523
320.235
320.019
319.646
319.457
319.236
319.307
319.377
319.646
316.606
316.385
316.174
316.049
316.032
316.147
316.287
316.488
316.716
316.891
316.837
316.856
316.671
316.488
316.172
315.944
315.845
315.862
315.93
316.133
313.044
312.842
312.608
312.577
312.486
312.557
312.683
312.936
313.014
313.11
313.223
313.14
313.027
312.756
312.599
312.496
312.35
312.369
312.369
312.465
309.28
309.112
309.103
308.954
309.001
309.037
309.21
309.24
309.427
309.397
309.414
309.387
309.366
309.246
309.082
308.904
308.867
308.87
308.878
308.987
305.572
305.517
305.448
305.408
305.387
305.465
305.461
305.55
305.609
305.645
305.75
305.664
305.663
305.493
305.462
305.375
305.336
305.343
305.383
305.442
301.839
301.834
301.811
301.752
301.822
301.844
301.878
301.904
301.902
301.864
301.894
301.929
301.882
301.869
301.747
301.748
301.793
301.779
301.844
301.824
328.167
327.774
327.486
327.275
327.185
327.334
327.593
327.911
328.233
328.459
328.494
328.402
328.178
327.737
327.381
327.098
327.028
326.962
327.127
327.475
324.628
324.227
323.972
323.782
323.873
323.927
324.176
324.323
324.566
324.796
324.874
324.702
324.49
324.187
323.883
323.623
323.452
323.526
323.607
323.875
321.035
320.648
320.425
320.364
320.322
320.304
320.51
320.765
320.942
321.106
321.146
320.935
320.803
320.58
320.322
320.111
319.92
319.937
320.136
320.236
317.384
316.934
316.765
316.643
316.749
316.735
316.875
317.084
317.174
317.373
317.319
317.197
317.221
316.834
316.658
316.509
316.283
316.388
316.486
316.676
313.506
313.322
313.14
313.081
313.02
313.126
313.161
313.263
313.336
313.513
313.599
313.45
313.366
313.234
313.068
312.868
312.699
312.782
312.852
312.922
309.61
309.523
309.413
309.333
309.36
309.414
309.41
309.525
309.6
309.589
309.785
309.759
309.582
309.47
309.311
309.181
309.105
309.099
309.237
309.27
305.831
305.674
305.593
305.591
305.611
305.615
305.707
305.804
305.808
305.837
305.831
305.747
305.788
305.652
305.617
305.59
305.463
305.519
305.494
305.528
301.872
301.793
301.894
301.87
301.888
301.903
301.905
301.907
301.972
301.981
302.012
302.051
301.899
301.92
301.838
301.818
301.835
301.847
301.83
301.85
329.288
329.049
328.535
328.312
328.249
328.284
328.545
328.71
329.005
329.201
329.224
329.122
328.811
328.536
328.222
327.974
327.798
327.765
327.984
328.315
325.608
325.235
324.956
324.779
324.692
324.757
324.94
325.095
325.303
325.438
325.462
325.395
325.239
324.887
324.538
324.299
324.174
324.113
324.402
324.574
321.821
321.559
321.266
321.128
321.075
321.055
321.181
321.299
321.547
321.718
321.724
321.571
321.387
321.232
320.888
320.731
320.499
320.526
320.711
320.856
317.869
317.782
317.493
317.392
317.252
317.34
317.443
317.508
317.71
317.732
317.786
317.725
317.591
317.321
317.128
316.964
316.887
316.869
317.082
317.202
313.984
313.827
313.703
313.515
313.472
313.533
313.595
313.698
313.801
313.855
313.903
313.83
313.765
313.509
313.471
313.226
313.195
313.19
313.254
313.369
310.036
309.972
309.763
309.74
309.694
309.735
309.826
309.866
309.829
309.961
309.96
309.953
309.83
309.645
309.624
309.499
309.447
309.438
309.552
309.51
306.059
305.986
305.862
305.854
305.871
305.78
305.805
305.876
305.906
306.066
305.979
305.939
305.926
305.827
305.67
305.736
305.654
305.691
305.717
305.737
301.993
302.026
301.961
301.952
301.95
301.947
301.984
301.892
301.967
302.027
301.969
302.042
302.003
301.911
301.921
301.946
301.936
301.923
301.891
301.898
330.402
330.032
329.573
329.366
329.273
329.321
329.389
329.604
329.778
329.852
329.99
329.851
329.525
329.262
329.007
328.789
328.584
328.663
328.759
329.146
326.494
326.234
325.954
325.694
325.613
325.65
325.68
325.865
326.04
326.176
326.047
325.923
325.819
325.509
325.311
325.043
324.954
324.929
325.146
325.361
322.593
322.382
322.055
321.862
321.808
321.781
321.896
321.962
322.099
322.143
322.262
322.102
321.969
321.727
321.474
321.23
321.166
321.242
321.315
321.576
318.647
318.41
318.163
318.016
317.939
317.948
317.957
318.115
318.132
318.226
318.266
318.148
318.041
317.812
317.688
317.508
317.335
317.394
317.491
317.699
314.549
314.343
314.166
314.096
313.976
313.954
314.072
314.143
314.204
314.182
314.217
314.143
314.088
313.948
313.799
313.708
313.562
313.514
313.695
313.774
310.433
310.37
310.157
310
309.993
310.049
310.155
310.15
310.245
310.143
310.188
310.139
310.093
309.955
309.825
309.84
309.717
309.72
309.836
309.832
306.233
306.206
306.189
306.111
306.161
306.011
306.063
306.126
306.108
306.146
306.132
306.142
306.161
305.975
305.976
305.886
305.835
305.821
305.848
305.967
302.051
302.033
302.037
302.085
301.99
302.019
302.068
301.97
302.041
302.021
302.032
302.11
302.059
301.95
301.909
301.993
302.021
301.957
301.944
301.949
331.457
331.038
330.721
330.366
330.343
330.313
330.374
330.5
330.513
330.633
330.619
330.467
330.345
330.01
329.77
329.501
329.506
329.432
329.635
330.064
327.427
327.159
326.77
326.624
326.524
326.455
326.502
326.594
326.703
326.676
326.753
326.602
326.394
326.122
325.924
325.777
325.6
325.659
325.881
326.055
323.369
323.119
322.878
322.674
322.548
322.512
322.528
322.495
322.674
322.77
322.726
322.613
322.507
322.293
322.058
321.895
321.811
321.855
321.956
322.173
319.263
319.058
318.81
318.633
318.625
318.542
318.607
318.663
318.641
318.669
318.612
318.594
318.521
318.342
318.082
317.98
317.926
317.929
318.027
318.242
315.055
314.808
314.672
314.593
314.5
314.558
314.442
314.491
314.565
314.638
314.561
314.521
314.33
314.401
314.116
313.991
313.994
314.042
314.042
314.172
310.764
310.688
310.525
310.472
310.414
310.361
310.407
310.382
310.522
310.392
310.439
310.41
310.304
310.201
310.125
310.127
309.959
310.059
310.052
310.154
306.57
306.419
306.367
306.266
306.204
306.204
306.236
306.238
306.291
306.227
306.359
306.195
306.15
306.179
306.159
306.092
306.023
306.009
306.09
306.153
302.191
302.155
302.12
302.064
302.147
302.148
302.032
302.034
302.084
302.163
302.114
302.085
302.094
302.089
302.156
302.077
302.046
302.029
302.021
302.04
332.538
332.086
331.805
331.399
331.271
331.297
331.263
331.295
331.306
331.39
331.345
331.261
331.006
330.787
330.601
330.375
330.251
330.34
330.553
330.898
328.419
328.064
327.733
327.498
327.353
327.196
327.306
327.247
327.414
327.381
327.425
327.258
327.08
326.879
326.584
326.524
326.394
326.448
326.568
326.901
324.228
323.935
323.606
323.454
323.362
323.26
323.206
323.272
323.31
323.197
323.309
323.09
323.016
322.829
322.613
322.402
322.439
322.419
322.583
322.788
319.887
319.74
319.448
319.226
319.169
319.144
319.124
319.131
319.108
319.168
319.209
318.965
318.914
318.738
318.58
318.472
318.444
318.47
318.582
318.722
315.656
315.381
315.168
315.047
314.884
314.948
314.917
314.974
314.922
314.924
314.971
314.94
314.83
314.684
314.532
314.41
314.398
314.402
314.522
314.593
311.168
311.011
310.898
310.792
310.72
310.655
310.667
310.682
310.646
310.718
310.708
310.624
310.644
310.568
310.374
310.31
310.269
310.354
310.432
310.405
306.71
306.613
306.544
306.471
306.531
306.421
306.418
306.468
306.435
306.456
306.395
306.379
306.365
306.294
306.179
306.177
306.275
306.27
306.306
306.305
302.278
302.217
302.277
302.173
302.166
302.152
302.184
302.117
302.162
302.168
302.208
302.157
302.121
302.133
302.091
302.086
302.044
302.14
302.086
302.103
333.566
333.091
332.742
332.497
332.286
332.192
332.098
332.103
332.173
332.104
332.07
331.924
331.753
331.557
331.312
331.1
331.132
331.181
331.446
331.727
329.332
328.972
328.632
328.348
328.137
328.046
328.09
328.022
328.033
327.983
328.02
327.853
327.676
327.6
327.347
327.075
327.096
327.199
327.341
327.608
325.016
324.651
324.449
324.173
323.94
323.917
323.865
323.91
323.843
323.808
323.834
323.655
323.491
323.311
323.172
323.009
323.072
323.136
323.306
323.391
320.637
320.353
320.137
319.834
319.799
319.67
319.585
319.628
319.544
319.588
319.588
319.503
319.332
319.182
318.993
318.934
318.913
318.919
319.036
319.236
315.946
315.91
315.638
315.481
315.43
315.346
315.414
315.316
315.41
315.291
315.296
315.257
315.173
314.978
314.935
314.801
314.79
314.771
314.933
315.075
311.491
311.358
311.218
311.15
311.077
311.004
311.007
311.005
310.992
310.949
310.94
310.825
310.825
310.713
310.616
310.627
310.563
310.582
310.647
310.765
306.977
306.891
306.728
306.641
306.627
306.742
306.639
306.569
306.577
306.592
306.546
306.51
306.541
306.46
306.43
306.41
306.355
306.347
306.483
306.46
302.333
302.29
302.287
302.267
302.302
302.229
302.264
302.192
302.199
302.281
302.211
302.165
302.244
302.215
302.156
302.117
302.11
302.11
302.131
302.184
334.51
334.142
333.759
333.404
333.212
333.03
332.919
332.891
332.86
332.803
332.797
332.565
332.448
332.333
332.072
331.919
331.884
331.943
332.233
332.472
330.087
329.861
329.495
329.272
329.013
328.852
328.772
328.739
328.654
328.613
328.494
328.405
328.306
328.068
327.973
327.799
327.889
327.81
328.08
328.234
325.706
325.4
325.122
324.844
324.728
324.542
324.549
324.468
324.405
324.345
324.351
324.22
323.96
323.834
323.755
323.662
323.639
323.725
323.808
324.066
321.162
320.95
320.686
320.527
320.356
320.155
320.184
320.138
320.038
320.012
319.966
319.905
319.74
319.712
319.514
319.398
319.357
319.38
319.584
319.688
316.57
316.4
316.202
316.042
315.965
315.761
315.653
315.63
315.681
315.555
315.62
315.571
315.384
315.358
315.225
315.158
315.106
315.198
315.232
315.446
311.826
311.76
311.6
311.481
311.536
311.332
311.314
311.294
311.192
311.278
311.268
311.07
311.001
311.001
310.942
310.83
310.838
310.865
310.884
311.011
307.101
307.08
306.914
306.892
306.844
306.905
306.82
306.738
306.743
306.76
306.803
306.658
306.616
306.63
306.654
306.572
306.483
306.597
306.565
306.574
302.341
302.382
302.358
302.248
302.298
302.251
302.258
302.257
302.303
302.246
302.291
302.243
302.247
302.223
302.227
302.139
302.207
302.239
302.195
302.224
335.42
335.091
334.702
334.284
333.933
333.783
333.74
333.661
333.528
333.463
333.345
333.207
333.083
332.898
332.745
332.652
332.72
332.782
333.018
333.303
330.955
330.636
330.321
330.001
329.677
329.533
329.453
329.317
329.316
329.124
329.126
328.949
328.878
328.722
328.553
328.443
328.476
328.562
328.672
328.956
326.294
326.032
325.787
325.487
325.307
325.137
325.085
324.987
324.89
324.745
324.773
324.657
324.429
324.383
324.234
324.159
324.176
324.245
324.405
324.671
321.584
321.435
321.173
320.968
320.823
320.609
320.579
320.53
320.448
320.346
320.363
320.334
320.131
319.96
320.005
319.814
319.868
319.901
319.997
320.169
316.888
316.745
316.534
316.437
316.268
316.114
316.005
315.977
315.946
315.932
315.862
315.801
315.678
315.615
315.494
315.484
315.422
315.475
315.61
315.79
312.155
311.95
311.793
311.803
311.661
311.598
311.566
311.492
311.532
311.46
311.396
311.262
311.232
311.22
311.185
311.061
311.034
311.087
311.182
311.247
307.32
307.161
307.157
307.123
307.025
306.953
306.946
306.856
306.886
306.921
306.804
306.795
306.733
306.745
306.758
306.718
306.585
306.687
306.662
306.7
302.448
302.475
302.338
302.359
302.366
302.436
302.353
302.253
302.329
302.319
302.363
302.303
302.205
302.318
302.211
302.183
302.179
302.323
302.239
302.302
336.074
335.69
335.359
334.976
334.589
334.506
334.247
334.228
334.03
334.015
333.899
333.737
333.596
333.451
333.288
333.211
333.15
333.287
333.563
333.843
331.42
331.087
330.803
330.403
330.262
330.062
329.868
329.787
329.72
329.602
329.523
329.356
329.327
329.112
328.954
328.857
328.825
329.007
329.146
329.484
326.714
326.509
326.035
325.875
325.686
325.573
325.486
325.322
325.197
325.203
325.095
324.991
324.939
324.712
324.601
324.636
324.571
324.572
324.868
325.05
322.002
321.789
321.54
321.26
321.116
321.059
320.926
320.83
320.762
320.647
320.622
320.523
320.422
320.327
320.232
320.115
320.115
320.203
320.307
320.475
317.136
317.017
316.785
316.597
316.503
316.423
316.304
316.257
316.187
316.085
316.079
316.004
315.87
315.838
315.781
315.773
315.749
315.788
315.855
316.082
312.234
312.149
312.014
311.935
311.785
311.725
311.661
311.597
311.628
311.582
311.514
311.49
311.397
311.338
311.293
311.243
311.278
311.358
311.35
311.49
307.395
307.349
307.213
307.198
307.073
307.132
307.041
307.035
307.05
306.976
306.87
306.865
306.8
306.816
306.765
306.693
306.703
306.761
306.861
306.895
302.503
302.445
302.463
302.433
302.385
302.429
302.408
302.363
302.342
302.362
302.289
302.327
302.284
302.284
302.281
302.267
302.306
302.27
302.304
302.349
)
;

boundaryField
{
    hotSide
    {
        type            fixedGradient;
        gradient        nonuniform List<scalar> 
400
(
321.511
322.87
325.591
329.677
335.133
341.965
350.181
359.788
370.794
383.208
397.037
412.289
428.971
447.088
466.647
487.651
510.105
534.011
559.372
586.191
323.738
325.08
327.767
331.802
337.194
343.949
352.078
361.591
372.498
384.81
398.537
413.687
430.268
448.289
467.755
488.672
511.043
534.872
560.161
586.913
326.149
327.47
330.116
334.091
339.406
346.071
354.099
363.503
374.296
386.491
400.101
415.136
431.606
449.52
468.885
489.706
511.988
535.735
560.948
587.63
328.704
330
332.597
336.503
341.73
348.292
356.205
365.485
376.15
388.215
401.695
416.604
432.954
450.753
470.009
490.73
512.919
536.579
561.714
588.325
331.33
332.599
335.142
338.97
344.099
350.546
358.332
367.477
378.003
389.928
403.271
418.047
434.27
451.949
471.095
491.712
513.807
537.382
562.439
588.978
333.918
335.158
337.643
341.389
346.414
352.74
360.392
369.397
379.779
391.562
404.765
419.407
435.503
453.065
472.101
492.618
514.622
538.114
563.096
589.569
336.321
337.531
339.959
343.622
348.544
354.751
362.274
371.142
381.385
393.031
406.101
420.618
436.595
454.047
472.983
493.409
515.33
538.747
563.663
590.076
338.36
339.543
341.92
345.509
350.339
356.44
363.847
372.595
382.718
394.244
407.2
421.608
437.485
454.844
473.695
494.045
515.897
539.253
564.114
590.478
339.852
341.015
343.352
346.885
351.645
357.665
364.985
373.643
383.675
395.113
407.984
422.312
438.116
455.407
474.197
494.491
516.294
539.606
564.428
590.758
340.643
341.795
344.11
347.613
352.334
358.311
365.584
374.193
384.176
395.567
408.393
422.679
438.443
455.699
474.456
494.722
516.498
539.788
564.589
590.901
340.643
341.795
344.11
347.613
352.334
358.311
365.584
374.193
384.176
395.567
408.393
422.679
438.443
455.699
474.456
494.722
516.498
539.788
564.589
590.901
339.852
341.015
343.352
346.885
351.645
357.665
364.985
373.643
383.675
395.113
407.984
422.312
438.116
455.407
474.197
494.491
516.294
539.606
564.428
590.758
338.36
339.543
341.92
345.509
350.339
356.44
363.847
372.595
382.718
394.244
407.2
421.608
437.485
454.844
473.695
494.045
515.897
539.253
564.114
590.478
336.321
337.531
339.959
343.622
348.544
354.751
362.274
371.142
381.385
393.031
406.101
420.618
436.595
454.047
472.983
493.409
515.33
538.747
563.663
590.076
333.918
335.158
337.643
341.389
346.414
352.74
360.392
369.397
379.779
391.562
404.765
419.407
435.503
453.065
472.101
492.618
514.622
538.114
563.096
589.569
331.33
332.599
335.142
338.97
344.099
350.546
358.332
367.477
378.003
389.928
403.271
418.047
434.27
451.949
471.095
491.712
513.807
537.382
562.439
588.978
328.704
330
332.597
336.503
341.73
348.292
356.205
365.485
376.15
388.215
401.695
416.604
432.954
450.753
470.009
490.73
512.919
536.579
561.714
588.325
326.149
327.47
330.116
334.091
339.406
346.071
354.099
363.503
374.296
386.491
400.101
415.136
431.606
449.52
468.885
489.706
511.988
535.735
560.948
587.63
323.738
325.08
327.767
331.802
337.194
343.949
352.078
361.591
372.498
384.81
398.537
413.687
430.268
448.289
467.755
488.672
511.043
534.872
560.161
586.913
321.511
322.87
325.591
329.677
335.133
341.965
350.181
359.788
370.794
383.208
397.037
412.289
428.971
447.088
466.647
487.651
510.105
534.011
559.372
586.191
)
;
    }
    coldSide
    {
        type            mixed;
        refValue        uniform 300;
        refGradient     uniform 0;
        valueFraction   uniform 0.991591;
        source          uniform 0;
        value           nonuniform List<scalar> 
400
(
300.011
300.011
300.012
300.012
300.013
300.013
300.013
300.014
300.015
300.015
300.015
300.016
300.017
300.017
300.018
300.019
300.02
300.02
300.021
300.021
300.011
300.011
300.012
300.012
300.012
300.012
300.013
300.014
300.014
300.015
300.015
300.015
300.017
300.017
300.018
300.019
300.019
300.02
300.021
300.021
300.012