/*--------------------------------*- C++ -*----------------------------------*\
| =========                 |                                                 |
| \\      /  F ield         | OpenFOAM: The Open Source CFD Toolbox           |
|  \\    /   O peration     | Version:  2212                                  |
|   \\  /    A nd           | Website:  www.openfoam.com                      |
|    \\/     M anipulation  |                                                 |
\*---------------------------------------------------------------------------*/
FoamFile
{
    version     2.0;
    format      ascii;
    arch        "LSB;label=32;scalar=64";
    class       volScalarField;
    location    "./ITHACAoutput/true/18.4";
    object      trueState;
}
// * * * * * * * * * * * * * * * * * * * * * * * * * * * * * * * * * * * * * //

dimensions      [0 0 0 1 0 0 0];

internalField   nonuniform List<scalar> 
3200
(
318.568
318.767
319.02
319.297
319.582
319.861
320.119
320.337
320.496
320.579
320.579
320.496
320.337
320.119
319.861
319.582
319.297
319.02
318.767
318.568
316.206
316.374
316.593
316.832
317.078
317.32
317.543
317.731
317.868
317.94
317.94
317.868
317.731
317.543
317.32
317.078
316.832
316.593
316.374
316.206
313.796
313.935
314.12
314.322
314.53
314.734
314.922
315.081
315.197
315.258
315.258
315.197
315.081
314.922
314.734
314.53
314.322
314.12
313.935
313.796
311.345
311.458
311.608
311.773
311.943
312.11
312.264
312.394
312.488
312.538
312.538
312.488
312.394
312.264
312.11
311.943
311.773
311.608
311.458
311.345
308.862
308.948
309.064
309.193
309.325
309.455
309.574
309.675
309.748
309.787
309.787
309.748
309.675
309.574
309.455
309.325
309.193
309.064
308.948
308.862
306.352
306.413
306.496
306.587
306.682
306.775
306.86
306.932
306.984
307.012
307.012
306.984
306.932
306.86
306.775
306.682
306.587
306.496
306.413
306.352
303.823
303.859
303.909
303.964
304.021
304.076
304.128
304.171
304.202
304.219
304.219
304.202
304.171
304.128
304.076
304.021
303.964
303.909
303.859
303.823
301.283
301.295
301.312
301.33
301.349
301.368
301.385
301.399
301.41
301.415
301.415
301.41
301.399
301.385
301.368
301.349
301.33
301.312
301.295
301.283
318.636
318.833
319.084
319.358
319.64
319.917
320.172
320.387
320.543
320.626
320.626
320.543
320.387
320.172
319.917
319.64
319.358
319.084
318.833
318.636
316.265
316.431
316.648
316.885
317.129
317.368
317.589
317.775
317.91
317.981
317.981
317.91
317.775
317.589
317.368
317.129
316.885
316.648
316.431
316.265
313.846
313.984
314.167
314.367
314.574
314.776
314.962
315.119
315.233
315.293
315.293
315.233
315.119
314.962
314.776
314.574
314.367
314.167
313.984
313.846
311.387
311.498
311.647
311.811
311.979
312.144
312.296
312.424
312.518
312.567
312.567
312.518
312.424
312.296
312.144
311.979
311.811
311.647
311.498
311.387
308.894
308.98
309.095
309.222
309.353
309.481
309.6
309.699
309.771
309.81
309.81
309.771
309.699
309.6
309.481
309.353
309.222
309.095
308.98
308.894
306.375
306.435
306.518
306.609
306.702
306.794
306.878
306.949
307.001
307.028
307.028
307.001
306.949
306.878
306.794
306.702
306.609
306.518
306.435
306.375
303.837
303.873
303.922
303.977
304.033
304.088
304.139
304.181
304.212
304.229
304.229
304.212
304.181
304.139
304.088
304.033
303.977
303.922
303.873
303.837
301.287
301.3
301.316
301.334
301.353
301.372
301.389
301.403
301.413
301.419
301.419
301.413
301.403
301.389
301.372
301.353
301.334
301.316
301.3
301.287
318.771
318.965
319.213
319.481
319.758
320.028
320.277
320.487
320.64
320.72
320.72
320.64
320.487
320.277
320.028
319.758
319.481
319.213
318.965
318.771
316.383
316.547
316.76
316.993
317.232
317.466
317.681
317.863
317.994
318.064
318.064
317.994
317.863
317.681
317.466
317.232
316.993
316.76
316.547
316.383
313.947
314.083
314.263
314.459
314.661
314.859
315.041
315.194
315.305
315.364
315.364
315.305
315.194
315.041
314.859
314.661
314.459
314.263
314.083
313.947
311.47
311.579
311.726
311.886
312.052
312.213
312.362
312.487
312.577
312.625
312.625
312.577
312.487
312.362
312.213
312.052
311.886
311.726
311.579
311.47
308.959
309.043
309.157
309.281
309.41
309.535
309.651
309.748
309.818
309.855
309.855
309.818
309.748
309.651
309.535
309.41
309.281
309.157
309.043
308.959
306.421
306.481
306.562
306.651
306.743
306.832
306.915
306.984
307.034
307.061
307.061
307.034
306.984
306.915
306.832
306.743
306.651
306.562
306.481
306.421
303.865
303.9
303.949
304.002
304.057
304.111
304.161
304.202
304.233
304.248
304.248
304.233
304.202
304.161
304.111
304.057
304.002
303.949
303.9
303.865
301.297
301.309
301.325
301.343
301.361
301.379
301.396
301.41
301.42
301.425
301.425
301.42
301.41
301.396
301.379
301.361
301.343
301.325
301.309
301.297
318.975
319.165
319.406
319.667
319.935
320.197
320.438
320.64
320.787
320.864
320.864
320.787
320.64
320.438
320.197
319.935
319.667
319.406
319.165
318.975
316.561
316.721
316.929
317.155
317.387
317.614
317.822
317.997
318.124
318.191
318.191
318.124
317.997
317.822
317.614
317.387
317.155
316.929
316.721
316.561
314.098
314.231
314.407
314.598
314.794
314.985
315.161
315.308
315.416
315.472
315.472
315.416
315.308
315.161
314.985
314.794
314.598
314.407
314.231
314.098
311.594
311.701
311.844
312
312.161
312.317
312.461
312.581
312.669
312.715
312.715
312.669
312.581
312.461
312.317
312.161
312
311.844
311.701
311.594
309.056
309.138
309.249
309.371
309.495
309.617
309.728
309.822
309.89
309.926
309.926
309.89
309.822
309.728
309.617
309.495
309.371
309.249
309.138
309.056
306.491
306.549
306.628
306.715
306.804
306.891
306.97
307.037
307.086
307.111
307.111
307.086
307.037
306.97
306.891
306.804
306.715
306.628
306.549
306.491
303.907
303.942
303.989
304.041
304.094
304.147
304.194
304.234
304.264
304.279
304.279
304.264
304.234
304.194
304.147
304.094
304.041
303.989
303.942
303.907
301.311
301.323
301.338
301.356
301.374
301.391
301.407
301.421
301.43
301.436
301.436
301.43
301.421
301.407
301.391
301.374
301.356
301.338
301.323
301.311
319.248
319.432
319.665
319.917
320.175
320.425
320.655
320.848
320.988
321.062
321.062
320.988
320.848
320.655
320.425
320.175
319.917
319.665
319.432
319.248
316.799
316.955
317.156
317.374
317.597
317.814
318.013
318.18
318.3
318.364
318.364
318.3
318.18
318.013
317.814
317.597
317.374
317.156
316.955
316.799
314.301
314.43
314.599
314.784
314.972
315.156
315.324
315.465
315.567
315.62
315.62
315.567
315.465
315.324
315.156
314.972
314.784
314.599
314.43
314.301
311.761
311.865
312.003
312.154
312.308
312.458
312.595
312.71
312.793
312.837
312.837
312.793
312.71
312.595
312.458
312.308
312.154
312.003
311.865
311.761
309.186
309.266
309.373
309.49
309.61
309.727
309.833
309.923
309.987
310.021
310.021
309.987
309.923
309.833
309.727
309.61
309.49
309.373
309.266
309.186
306.585
306.641
306.717
306.801
306.887
306.97
307.046
307.11
307.156
307.18
307.18
307.156
307.11
307.046
306.97
306.887
306.801
306.717
306.641
306.585
303.963
303.997
304.043
304.093
304.144
304.194
304.24
304.278
304.306
304.32
304.32
304.306
304.278
304.24
304.194
304.144
304.093
304.043
303.997
303.963
301.33
301.341
301.356
301.373
301.39
301.407
301.423
301.435
301.445
301.449
301.449
301.445
301.435
301.423
301.407
301.39
301.373
301.356
301.341
301.33
319.59
319.767
319.991
320.232
320.478
320.716
320.933
321.115
321.247
321.316
321.316
321.247
321.115
320.933
320.716
320.478
320.232
319.991
319.767
319.59
317.098
317.248
317.441
317.649
317.862
318.068
318.256
318.414
318.527
318.587
318.587
318.527
318.414
318.256
318.068
317.862
317.649
317.441
317.248
317.098
314.556
314.68
314.842
315.019
315.198
315.373
315.532
315.665
315.761
315.811
315.811
315.761
315.665
315.532
315.373
315.198
315.019
314.842
314.68
314.556
311.97
312.07
312.203
312.347
312.494
312.637
312.766
312.875
312.953
312.995
312.995
312.953
312.875
312.766
312.637
312.494
312.347
312.203
312.07
311.97
309.35
309.427
309.529
309.642
309.756
309.867
309.968
310.052
310.113
310.145
310.145
310.113
310.052
309.968
309.867
309.756
309.642
309.529
309.427
309.35
306.702
306.756
306.829
306.909
306.991
307.07
307.142
307.202
307.246
307.269
307.269
307.246
307.202
307.142
307.07
306.991
306.909
306.829
306.756
306.702
304.034
304.066
304.11
304.158
304.207
304.255
304.298
304.334
304.36
304.374
304.374
304.36
304.334
304.298
304.255
304.207
304.158
304.11
304.066
304.034
301.353
301.364
301.379
301.395
301.412
301.427
301.442
301.454
301.463
301.467
301.467
301.463
301.454
301.442
301.427
301.412
301.395
301.379
301.364
301.353
320.003
320.172
320.385
320.614
320.846
321.071
321.275
321.444
321.567
321.631
321.631
321.567
321.444
321.275
321.071
320.846
320.614
320.385
320.172
320.003
317.458
317.601
317.785
317.983
318.184
318.378
318.555
318.702
318.808
318.864
318.864
318.808
318.702
318.555
318.378
318.184
317.983
317.785
317.601
317.458
314.862
314.981
315.136
315.303
315.473
315.637
315.787
315.911
316
316.047
316.047
316
315.911
315.787
315.637
315.473
315.303
315.136
314.981
314.862
312.223
312.318
312.445
312.582
312.72
312.855
312.977
313.078
313.151
313.19
313.19
313.151
313.078
312.977
312.855
312.72
312.582
312.445
312.318
312.223
309.547
309.62
309.718
309.825
309.933
310.037
310.132
310.211
310.268
310.297
310.297
310.268
310.211
310.132
310.037
309.933
309.825
309.718
309.62
309.547
306.843
306.895
306.965
307.041
307.118
307.193
307.26
307.317
307.357
307.378
307.378
307.357
307.317
307.26
307.193
307.118
307.041
306.965
306.895
306.843
304.119
304.15
304.192
304.237
304.284
304.328
304.369
304.403
304.427
304.44
304.44
304.427
304.403
304.369
304.328
304.284
304.237
304.192
304.15
304.119
301.382
301.392
301.406
301.422
301.437
301.452
301.466
301.477
301.485
301.49
301.49
301.485
301.477
301.466
301.452
301.437
301.422
301.406
301.392
301.382
320.487
320.648
320.85
321.065
321.283
321.493
321.682
321.84
321.953
322.012
322.012
321.953
321.84
321.682
321.493
321.283
321.065
320.85
320.648
320.487
317.881
318.017
318.191
318.378
318.566
318.748
318.912
319.048
319.146
319.197
319.197
319.146
319.048
318.912
318.748
318.566
318.378
318.191
318.017
317.881
315.222
315.335
315.482
315.64
315.799
315.952
316.091
316.206
316.289
316.332
316.332
316.289
316.206
316.091
315.952
315.799
315.64
315.482
315.335
315.222
312.519
312.61
312.729
312.858
312.989
313.114
313.227
313.322
313.389
313.425
313.425
313.389
313.322
313.227
313.114
312.989
312.858
312.729
312.61
312.519
309.778
309.848
309.941
310.041
310.143
310.24
310.328
310.401
310.454
310.481
310.481
310.454
310.401
310.328
310.24
310.143
310.041
309.941
309.848
309.778
307.009
307.058
307.124
307.196
307.268
307.338
307.401
307.453
307.491
307.51
307.51
307.491
307.453
307.401
307.338
307.268
307.196
307.124
307.058
307.009
304.218
304.248
304.288
304.331
304.374
304.416
304.454
304.485
304.508
304.519
304.519
304.508
304.485
304.454
304.416
304.374
304.331
304.288
304.248
304.218
301.416
301.425
301.439
301.453
301.468
301.482
301.494
301.505
301.512
301.516
301.516
301.512
301.505
301.494
301.482
301.468
301.453
301.439
301.425
301.416
321.044
321.196
321.385
321.587
321.79
321.984
322.159
322.304
322.408
322.462
322.462
322.408
322.304
322.159
321.984
321.79
321.587
321.385
321.196
321.044
318.367
318.495
318.659
318.834
319.009
319.178
319.329
319.454
319.544
319.591
319.591
319.544
319.454
319.329
319.178
319.009
318.834
318.659
318.495
318.367
315.636
315.742
315.88
316.028
316.177
316.319
316.447
316.553
316.629
316.669
316.669
316.629
316.553
316.447
316.319
316.177
316.028
315.88
315.742
315.636
312.859
312.945
313.057
313.178
313.3
313.416
313.521
313.607
313.669
313.702
313.702
313.669
313.607
313.521
313.416
313.3
313.178
313.057
312.945
312.859
310.044
310.11
310.197
310.291
310.386
310.476
310.558
310.625
310.673
310.698
310.698
310.673
310.625
310.558
310.476
310.386
310.291
310.197
310.11
310.044
307.199
307.246
307.308
307.375
307.443
307.507
307.566
307.614
307.648
307.666
307.666
307.648
307.614
307.566
307.507
307.443
307.375
307.308
307.246
307.199
304.333
304.361
304.398
304.439
304.479
304.518
304.553
304.582
304.602
304.613
304.613
304.602
304.582
304.553
304.518
304.479
304.439
304.398
304.361
304.333
301.454
301.463
301.476
301.489
301.503
301.516
301.528
301.537
301.544
301.548
301.548
301.544
301.537
301.528
301.516
301.503
301.489
301.476
301.463
301.454
321.674
321.816
321.994
322.182
322.37
322.548
322.709
322.841
322.936
322.985
322.985
322.936
322.841
322.709
322.548
322.37
322.182
321.994
321.816
321.674
318.916
319.037
319.19
319.353
319.516
319.671
319.81
319.924
320.006
320.049
320.049
320.006
319.924
319.81
319.671
319.516
319.353
319.19
319.037
318.916
316.104
316.204
316.333
316.471
316.608
316.739
316.857
316.954
317.023
317.059
317.059
317.023
316.954
316.857
316.739
316.608
316.471
316.333
316.204
316.104
313.244
313.325
313.43
313.542
313.655
313.762
313.858
313.937
313.994
314.023
314.023
313.994
313.937
313.858
313.762
313.655
313.542
313.43
313.325
313.244
310.345
310.407
310.488
310.576
310.663
310.747
310.822
310.883
310.927
310.95
310.95
310.927
310.883
310.822
310.747
310.663
310.576
310.488
310.407
310.345
307.415
307.459
307.517
307.579
307.642
307.702
307.755
307.799
307.83
307.847
307.847
307.83
307.799
307.755
307.702
307.642
307.579
307.517
307.459
307.415
304.463
304.489
304.524
304.561
304.599
304.635
304.667
304.693
304.712
304.722
304.722
304.712
304.693
304.667
304.635
304.599
304.561
304.524
304.489
304.463
301.498
301.506
301.518
301.531
301.543
301.555
301.566
301.575
301.581
301.584
301.584
301.581
301.575
301.566
301.555
301.543
301.531
301.518
301.506
301.498
322.377
322.511
322.676
322.85
323.023
323.187
323.333
323.453
323.539
323.584
323.584
323.539
323.453
323.333
323.187
323.023
322.85
322.676
322.511
322.377
319.531
319.644
319.786
319.937
320.087
320.229
320.356
320.46
320.534
320.572
320.572
320.534
320.46
320.356
320.229
320.087
319.937
319.786
319.644
319.531
316.627
316.72
316.841
316.968
317.095
317.215
317.323
317.41
317.473
317.506
317.506
317.473
317.41
317.323
317.215
317.095
316.968
316.841
316.72
316.627
313.674
313.749
313.847
313.952
314.056
314.154
314.242
314.314
314.365
314.391
314.391
314.365
314.314
314.242
314.154
314.056
313.952
313.847
313.749
313.674
310.681
310.739
310.815
310.896
310.977
311.053
311.121
311.177
311.217
311.238
311.238
311.217
311.177
311.121
311.053
310.977
310.896
310.815
310.739
310.681
307.656
307.697
307.751
307.809
307.867
307.921
307.97
308.01
308.038
308.053
308.053
308.038
308.01
307.97
307.921
307.867
307.809
307.751
307.697
307.656
304.608
304.632
304.665
304.7
304.734
304.767
304.796
304.82
304.837
304.846
304.846
304.837
304.82
304.796
304.767
304.734
304.7
304.665
304.632
304.608
301.546
301.554
301.565
301.577
301.588
301.599
301.609
301.617
301.623
301.626
301.626
301.623
301.617
301.609
301.599
301.588
301.577
301.565
301.554
301.546
323.156
323.28
323.433
323.594
323.752
323.902
324.035
324.143
324.22
324.26
324.26
324.22
324.143
324.035
323.902
323.752
323.594
323.433
323.28
323.156
320.21
320.315
320.447
320.587
320.724
320.854
320.969
321.063
321.13
321.164
321.164
321.13
321.063
320.969
320.854
320.724
320.587
320.447
320.315
320.21
317.205
317.293
317.404
317.522
317.638
317.748
317.845
317.925
317.981
318.01
318.01
317.981
317.925
317.845
317.748
317.638
317.522
317.404
317.293
317.205
314.15
314.22
314.311
314.407
314.502
314.592
314.672
314.737
314.783
314.807
314.807
314.783
314.737
314.672
314.592
314.502
314.407
314.311
314.22
314.15
311.053
311.106
311.177
311.252
311.326
311.396
311.458
311.508
311.544
311.563
311.563
311.544
311.508
311.458
311.396
311.326
311.252
311.177
311.106
311.053
307.922
307.96
308.011
308.064
308.117
308.167
308.211
308.247
308.273
308.286
308.286
308.273
308.247
308.211
308.167
308.117
308.064
308.011
307.96
307.922
304.768
304.791
304.821
304.853
304.885
304.915
304.942
304.963
304.979
304.987
304.987
304.979
304.963
304.942
304.915
304.885
304.853
304.821
304.791
304.768
301.6
301.608
301.618
301.628
301.639
301.649
301.658
301.665
301.67
301.673
301.673
301.67
301.665
301.658
301.649
301.639
301.628
301.618
301.608
301.6
324.009
324.125
324.266
324.414
324.558
324.694
324.814
324.912
324.981
325.017
325.017
324.981
324.912
324.814
324.694
324.558
324.414
324.266
324.125
324.009
320.955
321.053
321.175
321.302
321.428
321.546
321.65
321.735
321.795
321.826
321.826
321.795
321.735
321.65
321.546
321.428
321.302
321.175
321.053
320.955
317.84
317.92
318.023
318.131
318.238
318.337
318.426
318.497
318.548
318.574
318.574
318.548
318.497
318.426
318.337
318.238
318.131
318.023
317.92
317.84
314.672
314.737
314.821
314.909
314.996
315.077
315.15
315.208
315.25
315.271
315.271
315.25
315.208
315.15
315.077
314.996
314.909
314.821
314.737
314.672
311.46
311.51
311.575
311.644
311.711
311.775
311.831
311.877
311.909
311.926
311.926
311.909
311.877
311.831
311.775
311.711
311.644
311.575
311.51
311.46
308.214
308.25
308.296
308.345
308.393
308.439
308.479
308.512
308.535
308.547
308.547
308.535
308.512
308.479
308.439
308.393
308.345
308.296
308.25
308.214
304.944
304.965
304.993
305.022
305.051
305.079
305.103
305.122
305.136
305.143
305.143
305.136
305.122
305.103
305.079
305.051
305.022
304.993
304.965
304.944
301.659
301.666
301.675
301.685
301.695
301.704
301.712
301.719
301.723
301.726
301.726
301.723
301.719
301.712
301.704
301.695
301.685
301.675
301.666
301.659
324.938
325.044
325.175
325.31
325.442
325.565
325.673
325.761
325.823
325.855
325.855
325.823
325.761
325.673
325.565
325.442
325.31
325.175
325.044
324.938
321.765
321.855
321.968
322.085
322.199
322.306
322.4
322.476
322.53
322.557
322.557
322.53
322.476
322.4
322.306
322.199
322.085
321.968
321.855
321.765
318.529
318.604
318.699
318.798
318.895
318.985
319.064
319.129
319.174
319.198
319.198
319.174
319.129
319.064
318.985
318.895
318.798
318.699
318.604
318.529
315.239
315.299
315.376
315.457
315.536
315.61
315.675
315.728
315.765
315.784
315.784
315.765
315.728
315.675
315.61
315.536
315.457
315.376
315.299
315.239
311.903
311.949
312.009
312.072
312.134
312.191
312.242
312.283
312.312
312.327
312.327
312.312
312.283
312.242
312.191
312.134
312.072
312.009
311.949
311.903
308.532
308.564
308.607
308.652
308.696
308.737
308.773
308.803
308.823
308.834
308.834
308.823
308.803
308.773
308.737
308.696
308.652
308.607
308.564
308.532
305.135
305.155
305.18
305.207
305.234
305.258
305.28
305.298
305.31
305.316
305.316
305.31
305.298
305.28
305.258
305.234
305.207
305.18
305.155
305.135
301.723
301.73
301.738
301.747
301.756
301.764
301.772
301.778
301.782
301.784
301.784
301.782
301.778
301.772
301.764
301.756
301.747
301.738
301.73
301.723
325.939
326.038
326.157
326.281
326.4
326.512
326.609
326.688
326.743
326.772
326.772
326.743
326.688
326.609
326.512
326.4
326.281
326.157
326.038
325.939
322.639
322.722
322.825
322.932
323.036
323.133
323.217
323.285
323.333
323.358
323.358
323.333
323.285
323.217
323.133
323.036
322.932
322.825
322.722
322.639
319.273
319.342
319.429
319.519
319.607
319.689
319.76
319.818
319.858
319.879
319.879
319.858
319.818
319.76
319.689
319.607
319.519
319.429
319.342
319.273
315.85
315.905
315.976
316.05
316.122
316.189
316.247
316.295
316.328
316.345
316.345
316.328
316.295
316.247
316.189
316.122
316.05
315.976
315.905
315.85
312.38
312.423
312.478
312.535
312.591
312.643
312.689
312.725
312.751
312.765
312.765
312.751
312.725
312.689
312.643
312.591
312.535
312.478
312.423
312.38
308.874
308.904
308.943
308.984
309.024
309.061
309.094
309.12
309.139
309.148
309.148
309.139
309.12
309.094
309.061
309.024
308.984
308.943
308.904
308.874
305.341
305.359
305.382
305.407
305.431
305.453
305.473
305.489
305.5
305.506
305.506
305.5
305.489
305.473
305.453
305.431
305.407
305.382
305.359
305.341
301.792
301.798
301.806
301.814
301.822
301.83
301.836
301.842
301.845
301.847
301.847
301.845
301.842
301.836
301.83
301.822
301.814
301.806
301.798
301.792
327.009
327.1
327.209
327.322
327.43
327.531
327.618
327.689
327.738
327.763
327.763
327.738
327.689
327.618
327.531
327.43
327.322
327.209
327.1
327.009
323.571
323.648
323.742
323.84
323.934
324.021
324.097
324.158
324.201
324.223
324.223
324.201
324.158
324.097
324.021
323.934
323.84
323.742
323.648
323.571
320.065
320.129
320.209
320.291
320.371
320.444
320.509
320.56
320.597
320.615
320.615
320.597
320.56
320.509
320.444
320.371
320.291
320.209
320.129
320.065
316.501
316.552
316.617
316.684
316.75
316.81
316.863
316.905
316.935
316.95
316.95
316.935
316.905
316.863
316.81
316.75
316.684
316.617
316.552
316.501
312.888
312.927
312.978
313.03
313.081
313.128
313.169
313.202
313.225
313.237
313.237
313.225
313.202
313.169
313.128
313.081
313.03
312.978
312.927
312.888
309.238
309.265
309.301
309.339
309.375
309.409
309.438
309.461
309.478
309.486
309.486
309.478
309.461
309.438
309.409
309.375
309.339
309.301
309.265
309.238
305.56
305.576
305.598
305.62
305.642
305.662
305.68
305.694
305.704
305.709
305.709
305.704
305.694
305.68
305.662
305.642
305.62
305.598
305.576
305.56
301.866
301.871
301.878
301.886
301.893
301.9
301.906
301.911
301.914
301.916
301.916
301.914
301.911
301.906
301.9
301.893
301.886
301.878
301.871
301.866
328.134
328.217
328.318
328.42
328.519
328.609
328.688
328.751
328.795
328.818
328.818
328.795
328.751
328.688
328.609
328.519
328.42
328.318
328.217
328.134
324.55
324.62
324.707
324.796
324.881
324.96
325.028
325.083
325.121
325.14
325.14
325.121
325.083
325.028
324.96
324.881
324.796
324.707
324.62
324.55
320.896
320.954
321.027
321.102
321.175
321.241
321.299
321.345
321.378
321.394
321.394
321.378
321.345
321.299
321.241
321.175
321.102
321.027
320.954
320.896
317.182
317.229
317.289
317.35
317.409
317.464
317.511
317.549
317.576
317.589
317.589
317.576
317.549
317.511
317.464
317.409
317.35
317.289
317.229
317.182
313.419
313.455
313.501
313.549
313.595
313.638
313.675
313.704
313.725
313.735
313.735
313.725
313.704
313.675
313.638
313.595
313.549
313.501
313.455
313.419
309.618
309.643
309.676
309.71
309.743
309.773
309.8
309.821
309.836
309.843
309.843
309.836
309.821
309.8
309.773
309.743
309.71
309.676
309.643
309.618
305.788
305.803
305.823
305.844
305.864
305.882
305.898
305.91
305.919
305.924
305.924
305.919
305.91
305.898
305.882
305.864
305.844
305.823
305.803
305.788
301.942
301.947
301.954
301.961
301.967
301.973
301.979
301.983
301.986
301.988
301.988
301.986
301.983
301.979
301.973
301.967
301.961
301.954
301.947
301.942
329.283
329.36
329.452
329.545
329.635
329.717
329.787
329.844
329.883
329.903
329.903
329.883
329.844
329.787
329.717
329.635
329.545
329.452
329.36
329.283
325.545
325.609
325.689
325.77
325.848
325.919
325.98
326.029
326.063
326.081
326.081
326.063
326.029
325.98
325.919
325.848
325.77
325.689
325.609
325.545
321.737
321.79
321.857
321.926
321.992
322.052
322.104
322.145
322.174
322.189
322.189
322.174
322.145
322.104
322.052
321.992
321.926
321.857
321.79
321.737
317.869
317.912
317.967
318.023
318.077
318.126
318.169
318.203
318.227
318.239
318.239
318.227
318.203
318.169
318.126
318.077
318.023
317.967
317.912
317.869
313.953
313.986
314.029
314.072
314.114
314.153
314.186
314.212
314.231
314.24
314.24
314.231
314.212
314.186
314.153
314.114
314.072
314.029
313.986
313.953
309.999
310.022
310.052
310.084
310.114
310.141
310.165
310.184
310.197
310.204
310.204
310.197
310.184
310.165
310.141
310.114
310.084
310.052
310.022
309.999
306.017
306.031
306.049
306.068
306.086
306.102
306.117
306.128
306.136
306.14
306.14
306.136
306.128
306.117
306.102
306.086
306.068
306.049
306.031
306.017
302.019
302.023
302.03
302.036
302.042
302.047
302.052
302.056
302.059
302.06
302.06
302.059
302.056
302.052
302.047
302.042
302.036
302.03
302.023
302.019
330.38
330.45
330.535
330.621
330.703
330.777
330.842
330.893
330.928
330.947
330.947
330.928
330.893
330.842
330.777
330.703
330.621
330.535
330.45
330.38
326.482
326.542
326.615
326.69
326.761
326.826
326.882
326.926
326.957
326.973
326.973
326.957
326.926
326.882
326.826
326.761
326.69
326.615
326.542
326.482
322.52
322.57
322.632
322.695
322.755
322.81
322.858
322.895
322.922
322.935
322.935
322.922
322.895
322.858
322.81
322.755
322.695
322.632
322.57
322.52
318.504
318.544
318.594
318.646
318.696
318.741
318.78
318.811
318.832
318.843
318.843
318.832
318.811
318.78
318.741
318.696
318.646
318.594
318.544
318.504
314.442
314.473
314.512
314.553
314.591
314.627
314.657
314.681
314.698
314.706
314.706
314.698
314.681
314.657
314.627
314.591
314.553
314.512
314.473
314.442
310.346
310.368
310.396
310.425
310.452
310.478
310.499
310.517
310.529
310.535
310.535
310.529
310.517
310.499
310.478
310.452
310.425
310.396
310.368
310.346
306.225
306.238
306.255
306.272
306.289
306.304
306.317
306.327
306.334
306.338
306.338
306.334
306.327
306.317
306.304
306.289
306.272
306.255
306.238
306.225
302.088
302.093
302.098
302.104
302.11
302.115
302.119
302.123
302.125
302.126
302.126
302.125
302.123
302.119
302.115
302.11
302.104
302.098
302.093
302.088
331.229
331.295
331.375
331.455
331.532
331.601
331.661
331.709
331.742
331.759
331.759
331.742
331.709
331.661
331.601
331.532
331.455
331.375
331.295
331.229
327.181
327.237
327.306
327.377
327.443
327.504
327.556
327.598
327.626
327.641
327.641
327.626
327.598
327.556
327.504
327.443
327.377
327.306
327.237
327.181
323.087
323.134
323.192
323.252
323.309
323.36
323.405
323.44
323.464
323.477
323.477
323.464
323.44
323.405
323.36
323.309
323.252
323.192
323.134
323.087
318.951
318.989
319.037
319.086
319.133
319.175
319.212
319.241
319.261
319.271
319.271
319.261
319.241
319.212
319.175
319.133
319.086
319.037
318.989
318.951
314.781
314.811
314.848
314.886
314.922
314.956
314.984
315.007
315.022
315.031
315.031
315.022
315.007
314.984
314.956
314.922
314.886
314.848
314.811
314.781
310.584
310.604
310.631
310.658
310.684
310.708
310.729
310.745
310.756
310.762
310.762
310.756
310.745
310.729
310.708
310.684
310.658
310.631
310.604
310.584
306.366
306.378
306.394
306.41
306.426
306.44
306.453
306.462
306.469
306.473
306.473
306.469
306.462
306.453
306.44
306.426
306.41
306.394
306.378
306.366
302.135
302.139
302.145
302.15
302.155
302.16
302.164
302.168
302.17
302.171
302.171
302.17
302.168
302.164
302.16
302.155
302.15
302.145
302.139
302.135
)
;

boundaryField
{
    hotSide
    {
        type            fixedGradient;
        gradient        nonuniform List<scalar> 
400
(
184.711
185.383
186.728
188.752
191.459
194.857
198.955
203.762
209.287
215.54
222.53
230.266
238.756
248.007
258.025
268.816
280.384
292.733
305.866
319.784
187.326
187.976
189.281
191.245
193.877
197.185
201.182
205.878
211.287
217.421
224.29
231.906
240.279
249.416
259.326
270.014
281.485
293.743
306.792
320.632
190.155
190.781
192.038
193.931
196.473
199.676
203.553
208.122
213.397
219.393
226.126
233.607
241.849
250.861
260.652
271.228
282.594
294.756
307.715
321.473
193.152
193.75
194.95
196.762
199.201
202.282
206.024
210.448
215.572
221.416
227.997
235.33
243.43
252.307
261.971
272.429
283.686
295.747
308.614
322.288
196.234
196.799
197.936
199.657
201.98
204.927
208.52
212.785
217.747
223.426
229.846
237.024
244.975
253.712
263.245
273.582
284.729
296.689
309.464
323.055
199.272
199.802
200.872
202.496
204.697
207.501
210.938
215.039
219.831
225.343
231.599
238.619
246.422
255.021
264.426
274.646
285.685
297.548
310.236
323.749
202.091
202.587
203.589
205.117
207.197
209.861
213.146
217.086
221.716
227.067
233.167
240.04
247.704
256.174
265.461
275.573
286.516
298.291
310.901
324.344
204.484
204.949
205.89
207.331
209.303
211.843
214.993
218.792
223.279
228.491
234.457
241.202
248.748
257.109
266.297
276.32
287.181
298.885
311.43
324.816
206.235
206.676
207.571
208.946
210.835
213.281
216.328
220.022
224.403
229.51
235.377
242.029
249.488
257.77
266.886
276.844
287.647
299.299
311.798
325.143
207.163
207.591
208.461
209.799
211.644
214.039
217.031
220.667
224.991
230.043
235.856
242.459
249.872
258.112
267.19
277.114
287.887
299.512
311.987
325.311
207.163
207.591
208.461
209.799
211.644
214.039
217.031
220.667
224.991
230.043
235.856
242.459
249.872
258.112
267.19
277.114
287.887
299.512
311.987
325.311
206.235
206.676
207.571
208.946
210.835
213.281
216.328
220.022
224.403
229.51
235.377
242.029
249.488
257.77
266.886
276.844
287.647
299.299
311.798
325.143
204.484
204.949
205.89
207.331
209.303
211.843
214.993
218.792
223.279
228.491
234.457
241.202
248.748
257.109
266.297
276.32
287.181
298.885
311.43
324.816
202.091
202.587
203.589
205.117
207.197
209.861
213.146
217.086
221.716
227.067
233.167
240.04
247.704
256.174
265.461
275.573
286.516
298.291
310.901
324.344
199.272
199.802
200.872
202.496
204.697
207.501
210.938
215.039
219.831
225.343
231.599
238.619
246.422
255.021
264.426
274.646
285.685
297.548
310.236
323.749
196.234
196.799
197.936
199.657
201.98
204.927
208.52
212.785
217.747
223.426
229.846
237.024
244.975
253.712
263.245
273.582
284.729
296.689
309.464
323.055
193.152
193.75
194.95
196.762
199.201
202.282
206.024
210.448
215.572
221.416
227.997
235.33
243.43
252.307
261.971
272.429
283.686
295.747
308.614
322.288
190.155
190.781
192.038
193.931
196.473
199.676
203.553
208.122
213.397
219.393
226.126
233.607
241.849
250.861
260.652
271.228
282.594
294.756
307.715
321.473
187.326
187.976
189.281
191.245
193.877
197.185
201.182
205.878
211.287
217.421
224.29
231.906
240.279
249.416
259.326
270.014
281.485
293.743
306.792
320.632
184.711
185.383
186.728
188.752
191.459
194.857
198.955
203.762
209.287
215.54
222.53
230.266
238.756
248.007
258.025
268.816
280.384
292.733
305.866
319.784
)
;
    }
    coldSide
    {
        type            mixed;
        refValue        uniform 300;
        refGradient     uniform 0;
        valueFraction   uniform 0.991591;
        source          uniform 0;
        value           nonuniform List<scalar> 
400
(
300.011
300.011
300.011
300.011
300.011
300.011
300.012
300.012
300.012
300.013
300.013
300.013
300.014
300.014
300.015
300.016
300.016
300.017
300.018
300.018
300.011
300.011
300.011
300.011
300.011
300.011
300.012
300.012
300.012
300.013
300.013
300.014
300.014