/*--------------------------------*- C++ -*----------------------------------*\
| =========                 |                                                 |
| \\      /  F ield         | OpenFOAM: The Open Source CFD Toolbox           |
|  \\    /   O peration     | Version:  2212                                  |
|   \\  /    A nd           | Website:  www.openfoam.com                      |
|    \\/     M anipulation  |                                                 |
\*---------------------------------------------------------------------------*/
FoamFile
{
    version     2.0;
    format      ascii;
    arch        "LSB;label=32;scalar=64";
    class       volScalarField;
    location    "0";
    object      Tdirect;
}
// * * * * * * * * * * * * * * * * * * * * * * * * * * * * * * * * * * * * * //

dimensions      [0 0 0 1 0 0 0];

internalField   nonuniform List<scalar> 
3200
(
342.68
343.664
344.92
346.29
347.7
349.084
350.362
351.441
352.227
352.642
352.642
352.227
351.441
350.362
349.084
347.7
346.29
344.92
343.664
342.68
337.024
337.857
338.941
340.125
341.346
342.543
343.648
344.58
345.259
345.617
345.617
345.259
344.58
343.648
342.543
341.346
340.125
338.941
337.857
337.024
331.354
332.045
332.958
333.959
334.991
336.003
336.935
337.722
338.294
338.597
338.597
338.294
337.722
336.935
336.003
334.991
333.959
332.958
332.045
331.354
325.673
326.23
326.974
327.792
328.635
329.462
330.224
330.866
331.333
331.58
331.58
331.333
330.866
330.224
329.462
328.635
327.792
326.974
326.23
325.673
319.983
320.41
320.987
321.623
322.278
322.921
323.513
324.011
324.374
324.566
324.566
324.374
324.011
323.513
322.921
322.278
321.623
320.987
320.41
319.983
314.286
314.588
314.999
315.453
315.921
316.38
316.802
317.158
317.417
317.554
317.554
317.417
317.158
316.802
316.38
315.921
315.453
314.999
314.588
314.286
308.583
308.763
309.01
309.283
309.564
309.839
310.093
310.306
310.462
310.544
310.544
310.462
310.306
310.093
309.839
309.564
309.283
309.01
308.763
308.583
302.877
302.938
303.02
303.112
303.206
303.298
303.383
303.455
303.507
303.534
303.534
303.507
303.455
303.383
303.298
303.206
303.112
303.02
302.938
302.877
342.78
343.756
345.002
346.358
347.754
349.124
350.386
351.452
352.227
352.637
352.637
352.227
351.452
350.386
349.124
347.754
346.358
345.002
343.756
342.78
337.11
337.937
339.011
340.185
341.393
342.577
343.669
344.59
345.259
345.613
345.613
345.259
344.59
343.669
342.577
341.393
340.185
339.011
337.937
337.11
331.427
332.113
333.018
334.01
335.031
336.031
336.953
337.73
338.295
338.594
338.594
338.295
337.73
336.953
336.031
335.031
334.01
333.018
332.113
331.427
325.733
326.285
327.023
327.833
328.668
329.485
330.238
330.873
331.334
331.577
331.577
331.334
330.873
330.238
329.485
328.668
327.833
327.023
326.285
325.733
320.029
320.453
321.025
321.655
322.304
322.939
323.524
324.017
324.375
324.564
324.564
324.375
324.017
323.524
322.939
322.304
321.655
321.025
320.453
320.029
314.319
314.618
315.026
315.476
315.939
316.393
316.811
317.162
317.418
317.553
317.553
317.418
317.162
316.811
316.393
315.939
315.476
315.026
314.618
314.319
308.603
308.782
309.027
309.296
309.575
309.847
310.098
310.309
310.462
310.543
310.543
310.462
310.309
310.098
309.847
309.575
309.296
309.027
308.782
308.603
302.884
302.944
303.026
303.116
303.21
303.301
303.385
303.456
303.507
303.534
303.534
303.507
303.456
303.385
303.301
303.21
303.116
303.026
302.944
302.884
342.981
343.942
345.166
346.498
347.866
349.205
350.439
351.478
352.234
352.633
352.633
352.234
351.478
350.439
349.205
347.866
346.498
345.166
343.942
342.981
337.284
338.098
339.154
340.306
341.49
342.649
343.715
344.613
345.266
345.61
345.61
345.266
344.613
343.715
342.649
341.49
340.306
339.154
338.098
337.284
331.574
332.249
333.139
334.112
335.113
336.092
336.992
337.75
338.301
338.592
338.592
338.301
337.75
336.992
336.092
335.113
334.112
333.139
332.249
331.574
325.853
326.396
327.121
327.917
328.735
329.535
330.271
330.89
331.339
331.576
331.576
331.339
330.89
330.271
329.535
328.735
327.917
327.121
326.396
325.853
320.122
320.539
321.102
321.72
322.356
322.978
323.549
324.03
324.379
324.564
324.564
324.379
324.03
323.549
322.978
322.356
321.72
321.102
320.539
320.122
314.385
314.68
315.081
315.523
315.977
316.421
316.829
317.172
317.421
317.553
317.553
317.421
317.172
316.829
316.421
315.977
315.523
315.081
314.68
314.385
308.643
308.819
309.059
309.324
309.597
309.864
310.109
310.315
310.464
310.543
310.543
310.464
310.315
310.109
309.864
309.597
309.324
309.059
308.819
308.643
302.897
302.956
303.037
303.126
303.217
303.306
303.388
303.458
303.508
303.534
303.534
303.508
303.458
303.388
303.306
303.217
303.126
303.037
302.956
302.897
343.285
344.224
345.418
346.713
348.04
349.337
350.528
351.53
352.258
352.641
352.641
352.258
351.53
350.528
349.337
348.04
346.713
345.418
344.224
343.285
337.547
338.342
339.371
340.492
341.641
342.763
343.793
344.659
345.288
345.619
345.619
345.288
344.659
343.793
342.763
341.641
340.492
339.371
338.342
337.547
331.796
332.455
333.322
334.269
335.24
336.189
337.059
337.79
338.32
338.6
338.6
338.32
337.79
337.059
336.189
335.24
334.269
333.322
332.455
331.796
326.034
326.564
327.271
328.045
328.839
329.614
330.325
330.922
331.355
331.584
331.584
331.355
330.922
330.325
329.614
328.839
328.045
327.271
326.564
326.034
320.263
320.67
321.219
321.82
322.437
323.04
323.592
324.056
324.392
324.569
324.569
324.392
324.056
323.592
323.04
322.437
321.82
321.219
320.67
320.263
314.485
314.774
315.165
315.594
316.035
316.465
316.859
317.19
317.43
317.557
317.557
317.43
317.19
316.859
316.465
316.035
315.594
315.165
314.774
314.485
308.703
308.875
309.109
309.367
309.632
309.89
310.127
310.326
310.47
310.546
310.546
310.47
310.326
310.127
309.89
309.632
309.367
309.109
308.875
308.703
302.918
302.975
303.054
303.14
303.229
303.315
303.395
303.461
303.509
303.535
303.535
303.509
303.461
303.395
303.315
303.229
303.14
303.054
302.975
302.918
343.696
344.605
345.76
347.009
348.285
349.528
350.666
351.621
352.313
352.678
352.678
352.313
351.621
350.666
349.528
348.285
347.009
345.76
344.605
343.696
337.902
338.672
339.668
340.748
341.853
342.928
343.913
344.739
345.337
345.652
345.652
345.337
344.739
343.913
342.928
341.853
340.748
339.668
338.672
337.902
332.095
332.734
333.573
334.486
335.42
336.329
337.161
337.858
338.363
338.629
338.629
338.363
337.858
337.161
336.329
335.42
334.486
333.573
332.734
332.095
326.278
326.792
327.476
328.223
328.986
329.729
330.409
330.979
331.391
331.608
331.608
331.391
330.979
330.409
329.729
328.986
328.223
327.476
326.792
326.278
320.453
320.848
321.378
321.958
322.552
323.129
323.658
324.1
324.42
324.589
324.589
324.42
324.1
323.658
323.129
322.552
321.958
321.378
320.848
320.453
314.621
314.9
315.278
315.693
316.117
316.529
316.906
317.222
317.451
317.571
317.571
317.451
317.222
316.906
316.529
316.117
315.693
315.278
314.9
314.621
308.784
308.951
309.178
309.426
309.681
309.929
310.155
310.345
310.482
310.554
310.554
310.482
310.345
310.155
309.929
309.681
309.426
309.178
308.951
308.784
302.945
303.001
303.077
303.16
303.245
303.328
303.404
303.468
303.514
303.538
303.538
303.514
303.468
303.404
303.328
303.245
303.16
303.077
303.001
302.945
344.216
345.091
346.199
347.394
348.61
349.79
350.867
351.768
352.419
352.762
352.762
352.419
351.768
350.867
349.79
348.61
347.394
346.199
345.091
344.216
338.351
339.092
340.048
341.082
342.134
343.156
344.088
344.867
345.43
345.726
345.726
345.43
344.867
344.088
343.156
342.134
341.082
340.048
339.092
338.351
332.474
333.089
333.895
334.768
335.658
336.521
337.309
337.967
338.443
338.692
338.692
338.443
337.967
337.309
336.521
335.658
334.768
333.895
333.089
332.474
326.588
327.083
327.739
328.453
329.181
329.887
330.531
331.068
331.456
331.661
331.661
331.456
331.068
330.531
329.887
329.181
328.453
327.739
327.083
326.588
320.693
321.073
321.582
322.137
322.703
323.252
323.752
324.17
324.472
324.63
324.63
324.472
324.17
323.752
323.252
322.703
322.137
321.582
321.073
320.693
314.792
315.061
315.424
315.821
316.225
316.617
316.974
317.272
317.488
317.601
317.601
317.488
317.272
316.974
316.617
316.225
315.821
315.424
315.061
314.792
308.887
309.048
309.265
309.503
309.746
309.981
310.196
310.375
310.504
310.572
310.572
310.504
310.375
310.196
309.981
309.746
309.503
309.265
309.048
308.887
302.979
303.033
303.106
303.186
303.267
303.346
303.418
303.478
303.521
303.544
303.544
303.521
303.478
303.418
303.346
303.267
303.186
303.106
303.033
302.979
344.85
345.687
346.742
347.876
349.025
350.136
351.146
351.988
352.595
352.914
352.914
352.595
351.988
351.146
350.136
349.025
347.876
346.742
345.687
344.85
338.899
339.607
340.518
341.499
342.495
343.456
344.33
345.058
345.583
345.859
345.859
345.583
345.058
344.33
343.456
342.495
341.499
340.518
339.607
338.899
332.937
333.525
334.292
335.121
335.963
336.776
337.514
338.13
338.573
338.805
338.805
338.573
338.13
337.514
336.776
335.963
335.121
334.292
333.525
332.937
326.966
327.439
328.064
328.742
329.43
330.095
330.699
331.201
331.564
331.754
331.754
331.564
331.201
330.699
330.095
329.43
328.742
328.064
327.439
326.966
320.987
321.35
321.835
322.362
322.897
323.414
323.883
324.274
324.555
324.703
324.703
324.555
324.274
323.883
323.414
322.897
322.362
321.835
321.35
320.987
315.002
315.259
315.605
315.981
316.363
316.732
317.068
317.347
317.547
317.653
317.653
317.547
317.347
317.068
316.732
316.363
315.981
315.605
315.259
315.002
309.013
309.166
309.374
309.6
309.829
310.051
310.252
310.42
310.54
310.603
310.603
310.54
310.42
310.252
310.051
309.829
309.6
309.374
309.166
309.013
303.022
303.073
303.142
303.218
303.295
303.369
303.437
303.493
303.533
303.554
303.554
303.533
303.493
303.437
303.369
303.295
303.218
303.142
303.073
303.022
345.602
346.397
347.396
348.465
349.543
350.58
351.519
352.299
352.86
353.153
353.153
352.86
352.299
351.519
350.58
349.543
348.465
347.396
346.397
345.602
339.549
340.222
341.084
342.009
342.943
343.841
344.654
345.328
345.813
346.068
346.068
345.813
345.328
344.654
343.841
342.943
342.009
341.084
340.222
339.549
333.486
334.044
334.77
335.552
336.342
337.101
337.788
338.359
338.768
338.983
338.983
338.768
338.359
337.788
337.101
336.342
335.552
334.77
334.044
333.486
327.414
327.863
328.455
329.094
329.74
330.361
330.923
331.389
331.724
331.899
331.899
331.724
331.389
330.923
330.361
329.74
329.094
328.455
327.863
327.414
321.335
321.68
322.139
322.636
323.138
323.621
324.058
324.42
324.68
324.816
324.816
324.68
324.42
324.058
323.621
323.138
322.636
322.139
321.68
321.335
315.25
315.494
315.822
316.177
316.536
316.881
317.192
317.451
317.637
317.734
317.734
317.637
317.451
317.192
316.881
316.536
316.177
315.822
315.494
315.25
309.162
309.308
309.504
309.717
309.933
310.14
310.327
310.482
310.594
310.652
310.652
310.594
310.482
310.327
310.14
309.933
309.717
309.504
309.308
309.162
303.071
303.12
303.186
303.257
303.33
303.399
303.462
303.514
303.551
303.571
303.571
303.551
303.514
303.462
303.399
303.33
303.257
303.186
303.12
303.071
346.477
347.228
348.168
349.168
350.173
351.135
352.001
352.718
353.232
353.501
353.501
353.232
352.718
352.001
351.135
350.173
349.168
348.168
347.228
346.477
340.305
340.941
341.752
342.618
343.488
344.321
345.072
345.692
346.137
346.37
346.37
346.137
345.692
345.072
344.321
343.488
342.618
341.752
340.941
340.305
334.124
334.652
335.335
336.067
336.803
337.508
338.142
338.667
339.043
339.239
339.239
339.043
338.667
338.142
337.508
336.803
336.067
335.335
334.652
334.124
327.935
328.36
328.917
329.516
330.118
330.694
331.213
331.641
331.949
332.109
332.109
331.949
331.641
331.213
330.694
330.118
329.516
328.917
328.36
327.935
321.74
322.066
322.498
322.964
323.432
323.88
324.283
324.616
324.855
324.98
324.98
324.855
324.616
324.283
323.88
323.432
322.964
322.498
322.066
321.74
315.54
315.77
316.078
316.411
316.745
317.065
317.353
317.592
317.762
317.851
317.851
317.762
317.592
317.353
317.065
316.745
316.411
316.078
315.77
315.54
309.336
309.473
309.658
309.858
310.059
310.251
310.424
310.567
310.669
310.723
310.723
310.669
310.567
310.424
310.251
310.059
309.858
309.658
309.473
309.336
303.13
303.176
303.238
303.304
303.372
303.436
303.494
303.542
303.576
303.594
303.594
303.576
303.542
303.494
303.436
303.372
303.304
303.238
303.176
303.13
347.48
348.185
349.065
349.996
350.927
351.812
352.607
353.262
353.73
353.974
353.974
353.73
353.262
352.607
351.812
350.927
349.996
349.065
348.185
347.48
341.172
341.77
342.529
343.335
344.141
344.908
345.597
346.164
346.569
346.78
346.78
346.569
346.164
345.597
344.908
344.141
343.335
342.529
341.77
341.172
334.856
335.352
335.991
336.673
337.355
338.004
338.586
339.066
339.408
339.587
339.587
339.408
339.066
338.586
338.004
337.355
336.673
335.991
335.352
334.856
328.533
328.932
329.454
330.011
330.569
331.1
331.576
331.968
332.248
332.394
332.394
332.248
331.968
331.576
331.1
330.569
330.011
329.454
328.932
328.533
322.205
322.511
322.915
323.349
323.782
324.195
324.566
324.87
325.088
325.202
325.202
325.088
324.87
324.566
324.195
323.782
323.349
322.915
322.511
322.205
315.871
316.088
316.376
316.686
316.996
317.291
317.555
317.773
317.929
318.01
318.01
317.929
317.773
317.555
317.291
316.996
316.686
316.376
316.088
315.871
309.535
309.664
309.837
310.023
310.209
310.386
310.545
310.676
310.769
310.818
310.818
310.769
310.676
310.545
310.386
310.209
310.023
309.837
309.664
309.535
303.196
303.24
303.298
303.36
303.422
303.482
303.535
303.579
303.61
303.626
303.626
303.61
303.579
303.535
303.482
303.422
303.36
303.298
303.24
303.196
348.614
349.274
350.093
350.956
351.813
352.625
353.35
353.944
354.368
354.588
354.588
354.368
353.944
353.35
352.625
351.813
350.956
350.093
349.274
348.614
342.153
342.712
343.419
344.165
344.908
345.612
346.24
346.755
347.121
347.312
347.312
347.121
346.755
346.24
345.612
344.908
344.165
343.419
342.712
342.153
335.685
336.148
336.744
337.375
338.004
338.599
339.13
339.566
339.876
340.037
340.037
339.876
339.566
339.13
338.599
338.004
337.375
336.744
336.148
335.685
329.21
329.583
330.069
330.585
331.099
331.586
332.021
332.377
332.631
332.763
332.763
332.631
332.377
332.021
331.586
331.099
330.585
330.069
329.583
329.21
322.731
323.017
323.393
323.795
324.195
324.574
324.912
325.189
325.386
325.488
325.488
325.386
325.189
324.912
324.574
324.195
323.795
323.393
323.017
322.731
316.247
316.449
316.718
317.005
317.29
317.561
317.802
318
318.141
318.215
318.215
318.141
318
317.802
317.561
317.29
317.005
316.718
316.449
316.247
309.76
309.881
310.042
310.214
310.386
310.548
310.694
310.812
310.897
310.941
310.941
310.897
310.812
310.694
310.548
310.386
310.214
310.042
309.881
309.76
303.272
303.312
303.366
303.424
303.482
303.536
303.585
303.624
303.653
303.668
303.668
303.653
303.624
303.585
303.536
303.482
303.424
303.366
303.312
303.272
349.885
350.5
351.259
352.054
352.84
353.581
354.239
354.776
355.158
355.356
355.356
355.158
354.776
354.239
353.581
352.84
352.054
351.259
350.5
349.885
343.252
343.773
344.427
345.116
345.797
346.439
347.01
347.475
347.806
347.978
347.978
347.806
347.475
347.01
346.439
345.797
345.116
344.427
343.773
343.252
336.613
337.045
337.597
338.179
338.755
339.299
339.781
340.175
340.454
340.6
340.6
340.454
340.175
339.781
339.299
338.755
338.179
337.597
337.045
336.613
329.969
330.316
330.766
331.242
331.714
332.158
332.553
332.875
333.104
333.223
333.223
333.104
332.875
332.553
332.158
331.714
331.242
330.766
330.316
329.969
323.32
323.586
323.935
324.306
324.673
325.018
325.325
325.576
325.754
325.846
325.846
325.754
325.576
325.325
325.018
324.673
324.306
323.935
323.586
323.32
316.667
316.856
317.105
317.37
317.632
317.879
318.098
318.277
318.404
318.47
318.47
318.404
318.277
318.098
317.879
317.632
317.37
317.105
316.856
316.667
310.013
310.125
310.275
310.433
310.591
310.739
310.871
310.979
311.055
311.095
311.095
311.055
310.979
310.871
310.739
310.591
310.433
310.275
310.125
310.013
303.357
303.394
303.444
303.497
303.55
303.6
303.644
303.68
303.706
303.719
303.719
303.706
303.68
303.644
303.6
303.55
303.497
303.444
303.394
303.357
351.295
351.866
352.566
353.297
354.015
354.688
355.283
355.767
356.11
356.287
356.287
356.11
355.767
355.283
354.688
354.015
353.297
352.566
351.866
351.295
344.472
344.955
345.559
346.192
346.815
347.398
347.914
348.333
348.63
348.784
348.784
348.63
348.333
347.914
347.398
346.815
346.192
345.559
344.955
344.472
337.643
338.044
338.553
339.088
339.615
340.109
340.545
340.9
341.151
341.282
341.282
341.151
340.9
340.545
340.109
339.615
339.088
338.553
338.044
337.643
330.81
331.132
331.548
331.986
332.417
332.821
333.178
333.468
333.674
333.78
333.78
333.674
333.468
333.178
332.821
332.417
331.986
331.548
331.132
330.81
323.974
324.221
324.543
324.884
325.219
325.533
325.811
326.037
326.197
326.28
326.28
326.197
326.037
325.811
325.533
325.219
324.884
324.543
324.221
323.974
317.134
317.309
317.539
317.782
318.022
318.247
318.445
318.607
318.721
318.78
318.78
318.721
318.607
318.445
318.247
318.022
317.782
317.539
317.309
317.134
310.293
310.397
310.535
310.681
310.825
310.96
311.079
311.176
311.245
311.28
311.28
311.245
311.176
311.079
310.96
310.825
310.681
310.535
310.397
310.293
303.45
303.485
303.532
303.58
303.629
303.674
303.714
303.746
303.769
303.781
303.781
303.769
303.746
303.714
303.674
303.629
303.58
303.532
303.485
303.45
352.847
353.375
354.02
354.689
355.343
355.952
356.489
356.923
357.23
357.389
357.389
357.23
356.923
356.489
355.952
355.343
354.689
354.02
353.375
352.847
345.814
346.26
346.817
347.396
347.963
348.492
348.957
349.334
349.599
349.737
349.737
349.599
349.334
348.957
348.492
347.963
347.396
346.817
346.26
345.814
338.777
339.147
339.616
340.106
340.586
341.033
341.427
341.746
341.971
342.087
342.087
341.971
341.746
341.427
341.033
340.586
340.106
339.616
339.147
338.777
331.737
332.034
332.417
332.818
333.21
333.577
333.899
334.16
334.344
334.439
334.439
334.344
334.16
333.899
333.577
333.21
332.818
332.417
332.034
331.737
324.693
324.922
325.219
325.53
325.836
326.121
326.372
326.574
326.718
326.792
326.792
326.718
326.574
326.372
326.121
325.836
325.53
325.219
324.922
324.693
317.648
317.81
318.021
318.244
318.463
318.666
318.845
318.99
319.093
319.146
319.146
319.093
318.99
318.845
318.666
318.463
318.244
318.021
317.81
317.648
310.601
310.698
310.825
310.959
311.09
311.212
311.32
311.407
311.468
311.5
311.5
311.468
311.407
311.32
311.212
311.09
310.959
310.825
310.698
310.601
303.554
303.586
303.629
303.673
303.717
303.758
303.794
303.824
303.844
303.855
303.855
303.844
303.824
303.794
303.758
303.717
303.673
303.629
303.586
303.554
354.54
355.027
355.619
356.23
356.824
357.375
357.858
358.247
358.521
358.662
358.662
358.521
358.247
357.858
357.375
356.824
356.23
355.619
355.027
354.54
347.278
347.69
348.201
348.73
349.245
349.723
350.141
350.479
350.716
350.839
350.839
350.716
350.479
350.141
349.723
349.245
348.73
348.201
347.69
347.278
340.013
340.355
340.785
341.233
341.669
342.073
342.428
342.713
342.914
343.018
343.018
342.914
342.713
342.428
342.073
341.669
341.233
340.785
340.355
340.013
332.746
333.021
333.372
333.738
334.095
334.426
334.716
334.95
335.115
335.2
335.2
335.115
334.95
334.716
334.426
334.095
333.738
333.372
333.021
332.746
325.478
325.689
325.961
326.246
326.524
326.781
327.007
327.189
327.317
327.383
327.383
327.317
327.189
327.007
326.781
326.524
326.246
325.961
325.689
325.478
318.208
318.357
318.552
318.755
318.954
319.138
319.299
319.429
319.52
319.568
319.568
319.52
319.429
319.299
319.138
318.954
318.755
318.552
318.357
318.208
310.938
311.027
311.143
311.265
311.385
311.495
311.592
311.67
311.725
311.753
311.753
311.725
311.67
311.592
311.495
311.385
311.265
311.143
311.027
310.938
303.666
303.696
303.735
303.776
303.816
303.853
303.886
303.912
303.93
303.94
303.94
303.93
303.912
303.886
303.853
303.816
303.776
303.735
303.696
303.666
356.369
356.817
357.36
357.917
358.455
358.953
359.386
359.734
359.979
360.105
360.105
359.979
359.734
359.386
358.953
358.455
357.917
357.36
356.817
356.369
348.858
349.237
349.706
350.188
350.655
351.086
351.462
351.764
351.976
352.086
352.086
351.976
351.764
351.462
351.086
350.655
350.188
349.706
349.237
348.858
341.347
341.661
342.056
342.464
342.859
343.225
343.543
343.799
343.978
344.071
344.071
343.978
343.799
343.543
343.225
342.859
342.464
342.056
341.661
341.347
333.835
334.088
334.41
334.744
335.067
335.366
335.627
335.836
335.983
336.059
336.059
335.983
335.836
335.627
335.366
335.067
334.744
334.41
334.088
333.835
326.323
326.517
326.767
327.027
327.279
327.511
327.714
327.877
327.991
328.05
328.05
327.991
327.877
327.714
327.511
327.279
327.027
326.767
326.517
326.323
318.811
318.949
319.127
319.312
319.492
319.659
319.804
319.92
320.002
320.044
320.044
320.002
319.92
319.804
319.659
319.492
319.312
319.127
318.949
318.811
311.3
311.381
311.488
311.6
311.708
311.808
311.895
311.965
312.014
312.039
312.039
312.014
311.965
311.895
311.808
311.708
311.6
311.488
311.381
311.3
303.788
303.815
303.851
303.888
303.925
303.958
303.987
304.011
304.027
304.036
304.036
304.027
304.011
303.987
303.958
303.925
303.888
303.851
303.815
303.788
358.315
358.727
359.224
359.731
360.219
360.668
361.057
361.369
361.587
361.7
361.7
361.587
361.369
361.057
360.668
360.219
359.731
359.224
358.727
358.315
350.537
350.885
351.314
351.753
352.177
352.566
352.904
353.174
353.364
353.461
353.461
353.364
353.174
352.904
352.566
352.177
351.753
351.314
350.885
350.537
342.761
343.05
343.411
343.783
344.142
344.471
344.758
344.987
345.147
345.229
345.229
345.147
344.987
344.758
344.471
344.142
343.783
343.411
343.05
342.761
334.988
335.22
335.515
335.82
336.113
336.383
336.617
336.805
336.936
337.004
337.004
336.936
336.805
336.617
336.383
336.113
335.82
335.515
335.22
334.988
327.217
327.396
327.624
327.861
328.09
328.3
328.482
328.628
328.73
328.783
328.783
328.73
328.628
328.482
328.3
328.09
327.861
327.624
327.396
327.217
319.449
319.575
319.738
319.907
320.071
320.221
320.351
320.456
320.529
320.566
320.566
320.529
320.456
320.351
320.221
320.071
319.907
319.738
319.575
319.449
311.682
311.757
311.855
311.957
312.055
312.145
312.223
312.286
312.33
312.353
312.353
312.33
312.286
312.223
312.145
312.055
311.957
311.855
311.757
311.682
303.916
303.941
303.974
304.008
304.041
304.071
304.097
304.118
304.133
304.141
304.141
304.133
304.118
304.097
304.071
304.041
304.008
303.974
303.941
303.916
360.328
360.707
361.162
361.625
362.068
362.474
362.824
363.104
363.299
363.4
363.4
363.299
363.104
362.824
362.474
362.068
361.625
361.162
360.707
360.328
352.265
352.585
352.978
353.379
353.764
354.116
354.421
354.664
354.833
354.92
354.92
354.833
354.664
354.421
354.116
353.764
353.379
352.978
352.585
352.265
344.211
344.476
344.808
345.148
345.474
345.772
346.03
346.236
346.38
346.453
346.453
346.38
346.236
346.03
345.772
345.474
345.148
344.808
344.476
344.211
336.166
336.379
336.65
336.928
337.195
337.44
337.651
337.82
337.937
337.998
337.998
337.937
337.82
337.651
337.44
337.195
336.928
336.65
336.379
336.166
328.128
328.292
328.502
328.719
328.927
329.117
329.281
329.413
329.504
329.552
329.552
329.504
329.413
329.281
329.117
328.927
328.719
328.502
328.292
328.128
320.097
320.213
320.363
320.517
320.666
320.802
320.92
321.014
321.079
321.113
321.113
321.079
321.014
320.92
320.802
320.666
320.517
320.363
320.213
320.097
312.07
312.139
312.229
312.322
312.411
312.493
312.564
312.62
312.66
312.68
312.68
312.66
312.62
312.564
312.493
312.411
312.322
312.229
312.139
312.07
304.046
304.069
304.099
304.13
304.16
304.187
304.211
304.23
304.243
304.25
304.25
304.243
304.23
304.211
304.187
304.16
304.13
304.099
304.069
304.046
362.277
362.627
363.046
363.472
363.877
364.247
364.565
364.818
364.995
365.085
365.085
364.995
364.818
364.565
364.247
363.877
363.472
363.046
362.627
362.277
353.917
354.213
354.576
354.946
355.298
355.619
355.896
356.116
356.27
356.349
356.349
356.27
356.116
355.896
355.619
355.298
354.946
354.576
354.213
353.917
345.582
345.828
346.135
346.448
346.747
347.019
347.254
347.441
347.571
347.638
347.638
347.571
347.441
347.254
347.019
346.747
346.448
346.135
345.828
345.582
337.269
337.467
337.718
337.974
338.219
338.443
338.636
338.789
338.896
338.95
338.95
338.896
338.789
338.636
338.443
338.219
337.974
337.718
337.467
337.269
328.975
329.127
329.322
329.521
329.713
329.887
330.037
330.156
330.24
330.282
330.282
330.24
330.156
330.037
329.887
329.713
329.521
329.322
329.127
328.975
320.696
320.803
320.942
321.085
321.222
321.346
321.454
321.539
321.599
321.63
321.63
321.599
321.539
321.454
321.346
321.222
321.085
320.942
320.803
320.696
312.427
312.491
312.575
312.66
312.743
312.818
312.882
312.934
312.969
312.988
312.988
312.969
312.934
312.882
312.818
312.743
312.66
312.575
312.491
312.427
304.165
304.186
304.214
304.243
304.271
304.296
304.318
304.335
304.347
304.353
304.353
304.347
304.335
304.318
304.296
304.271
304.243
304.214
304.186
304.165
363.814
364.143
364.538
364.937
365.316
365.661
365.957
366.192
366.356
366.44
366.44
366.356
366.192
365.957
365.661
365.316
364.937
364.538
364.143
363.814
355.171
355.451
355.793
356.14
356.471
356.772
357.03
357.236
357.378
357.451
357.451
357.378
357.236
357.03
356.772
356.471
356.14
355.793
355.451
355.171
346.591
346.823
347.113
347.408
347.69
347.945
348.165
348.34
348.461
348.524
348.524
348.461
348.34
348.165
347.945
347.69
347.408
347.113
346.823
346.591
338.061
338.249
338.486
338.728
338.959
339.169
339.35
339.494
339.594
339.645
339.645
339.594
339.494
339.35
339.169
338.959
338.728
338.486
338.249
338.061
329.571
329.715
329.9
330.089
330.269
330.433
330.574
330.687
330.764
330.804
330.804
330.764
330.687
330.574
330.433
330.269
330.089
329.9
329.715
329.571
321.111
321.214
321.345
321.481
321.61
321.728
321.829
321.909
321.965
321.993
321.993
321.965
321.909
321.829
321.728
321.61
321.481
321.345
321.214
321.111
312.673
312.734
312.813
312.894
312.972
313.043
313.104
313.152
313.186
313.203
313.203
313.186
313.152
313.104
313.043
312.972
312.894
312.813
312.734
312.673
304.247
304.267
304.294
304.321
304.347
304.371
304.391
304.407
304.419
304.424
304.424
304.419
304.407
304.391
304.371
304.347
304.321
304.294
304.267
304.247
)
;

boundaryField
{
    hotSide
    {
        type            fixedGradient;
        gradient        nonuniform List<scalar> 
400
(
451.174
452.277
454.492
457.84
462.351
468.061
475.011
483.248
492.819
503.771
516.149
529.997
545.354
562.257
580.735
600.815
622.521
645.869
670.875
697.548
464.124
465.123
467.137
470.192
474.328
479.592
486.04
493.731
502.726
513.085
524.865
538.12
552.896
569.236
587.177
606.748
627.973
650.873
675.461
701.749
478.137
479.015
480.789
483.496
487.188
491.927
497.787
504.844
513.175
522.856
533.958
546.544
560.672
576.391
593.743
612.76
633.468
655.888
680.034
705.915
492.984
493.719
495.214
497.518
500.697
504.835
510.025
516.363
523.949
532.874
543.225
555.08
568.505
583.556
600.279
618.71
638.876
660.798
684.487
709.953
508.248
508.823
510.005
511.857
514.465
517.937
522.389
527.943
534.719
542.832
552.384
563.466
576.154
590.512
606.588
624.422
644.04
665.461
688.696
713.75
523.293
523.696
524.544
525.915
527.918
530.687
534.365
539.103
545.045
552.326
561.067
571.37
583.323
596.994
612.436
629.688
648.777
669.718
692.521
717.186
537.258
537.49
538.004
538.896
540.301
542.378
545.3
549.244
554.381
560.866
568.835
578.406
589.671
602.705
617.563
634.283
652.891
673.399
695.814
720.133
549.11
549.188
549.401
549.864
550.733
552.194
554.446
557.692
562.124
567.917
575.221
584.162
594.842
607.338
621.704
637.98
656.188
676.339
698.435
722.47
557.784
557.743
557.727
557.862
558.323
559.316
561.062
563.783
567.689
572.966
579.778
588.256
598.507
610.61
624.62
640.575
658.495
678.39
700.259
724.094
562.38
562.274
562.133
562.09
562.33
563.07
564.543
566.981
570.603
575.605
582.154
590.386
600.41
612.305
626.127
641.914
659.684
679.446
701.196
724.926
562.38
562.274
562.133
562.09
562.33
563.07
564.543
566.981
570.603
575.605
582.154
590.386
600.41
612.305
626.127
641.914
659.684
679.446
701.196
724.926
557.784
557.743
557.727
557.862
558.323
559.316
561.062
563.783
567.689
572.966
579.778
588.256
598.507
610.61
624.62
640.575
658.495
678.39
700.259
724.094
549.11
549.188
549.401
549.864
550.733
552.194
554.446
557.692
562.124
567.917
575.221
584.162
594.842
607.338
621.704
637.98
656.188
676.339
698.435
722.47
537.258
537.49
538.004
538.896
540.301
542.378
545.3
549.244
554.381
560.866
568.835
578.406
589.671
602.705
617.563
634.283
652.891
673.399
695.814
720.133
523.293
523.696
524.544
525.915
527.918
530.687
534.365
539.103
545.045
552.326
561.067
571.37
583.323
596.994
612.436
629.688
648.777
669.718
692.521
717.186
508.248
508.823
510.005
511.857
514.465
517.937
522.389
527.943
534.719
542.832
552.384
563.466
576.154
590.512
606.588
624.422
644.04
665.461
688.696
713.75
492.984
493.719
495.214
497.518
500.697
504.835
510.025
516.363
523.949
532.874
543.225
555.08
568.505
583.556
600.279
618.71
638.876
660.798
684.487
709.953
478.137
479.015
480.789
483.496
487.188
491.927
497.787
504.844
513.175
522.856
533.958
546.544
560.672
576.391
593.743
612.76
633.468
655.888
680.034
705.915
464.124
465.123
467.137
470.192
474.328
479.592
486.04
493.731
502.726
513.085
524.865
538.12
552.896
569.236
587.177
606.748
627.973
650.873
675.461
701.749
451.174
452.277
454.492
457.84
462.351
468.061
475.011
483.248
492.819
503.771
516.149
529.997
545.354
562.257
580.735
600.815
622.521
645.869
670.875
697.548
)
;
    }
    coldSide
    {
        type            mixed;
        refValue        uniform 300;
        refGradient     uniform 0;
        valueFraction   uniform 0.991591;
        source          uniform 0;
        value           nonuniform List<scalar> 
400
(
300.024
300.024
300.024
300.025
300.025
300.025
300.025
300.026
300.026
300.027
300.028
300.028
300.029
300.03
300.031
300.032
300.033
300.034
300.035
300.036
300.025
300.025
300.025
300.025
300.025
300.026
300.026
300.026
300.027
300.027
300.028
300.029
300.029
300.03
300.031
300.032
300.033
300.034
300.035
300.036
300.025
300.025
300.026