/*--------------------------------*- C++ -*----------------------------------*\
| =========                 |                                                 |
| \\      /  F ield         | OpenFOAM: The Open Source CFD Toolbox           |
|  \\    /   O peration     | Version:  2212                                  |
|   \\  /    A nd           | Website:  www.openfoam.com                      |
|    \\/     M anipulation  |                                                 |
\*---------------------------------------------------------------------------*/
FoamFile
{
    version     2.0;
    format      ascii;
    arch        "LSB;label=32;scalar=64";
    class       volScalarField;
    location    "0";
    object      stateMean;
}
// * * * * * * * * * * * * * * * * * * * * * * * * * * * * * * * * * * * * * //

dimensions      [0 0 0 1 0 0 0];

internalField   nonuniform List<scalar> 
3200
(
350.714
353.021
351.182
350.746
348.939
349.859
350.079
353.484
352.795
351.11
353.812
352.46
348.942
351.582
349.728
349.108
348.407
346.117
349.781
348.269
345.312
343.919
345.915
342.545
344.532
346.176
344.409
345.364
344.961
345.963
347.321
344.197
346.778
343.755
343.101
341.969
342.585
341.003
343.364
342.12
339.699
337.27
336.082
336.331
336.977
337.578
337.304
339.97
339.785
337.114
337.402
337.967
336.641
336.631
336.195
335.795
335.549
331.849
335.889
334.645
328.295
330.656
331.758
329.119
329.293
328.214
330.342
330.9
331.144
330.932
330.357
333.024
330.858
331.031
326.787
328.366
326.773
329.085
330.489
330.74
326.8
324.983
322.976
323.806
322.612
321.84
323.148
323.709
324.205
325.725
324.59
324.661
322.971
323.688
321.687
321.253
321.298
322.176
322.598
321.792
315.173
317.277
316.104
316.327
317.011
318.41
318.365
316.785
313.848
316.68
318.181
318.768
317.38
315.935
316.954
317.323
317.313
316.495
314.001
314.979
309.352
312.022
310.691
308.424
309.323
310.22
310.291
309.847
310.704
310.083
310.578
310.792
309.629
312.695
312.183
312.758
310.182
309.178
308.315
309.264
301.389
304.01
302.647
303.401
303.563
303.875
305.923
306.182
303.925
302.045
304.352
306.263
303.58
304.929
305.532
302.271
304.687
301.798
303.285
302.649
354.284
350.148
352.072
349.468
350.116
350.287
354.059
351.049
352.077
352.931
351.657
353.56
350.986
348.722
349.218
348.557
346.807
345.87
346.618
350.392
345.602
342.729
342.493
344.15
341.171
345.316
343.484
346.801
344.795
348.269
347.02
343.017
346.763
343.981
345.282
340.104
343.98
341.749
343.065
342.097
338.289
336.794
336.549
337.129
336.791
337.98
337.854
340.248
337.103
342.202
337.56
337.448
336.922
338.442
336.906
335.933
334.26
335.289
334.405
337.633
330.428
329.302
331.786
331.286
331.17
330.842
331.767
334.013
330.465
330.113
330.478
332.466
331.32
328.733
331.194
327.798
327.853
327.793
326.903
331.83
323.205
323.521
322.912
325.031
321.584
326.328
325.627
323.924
324.326
324.707
326.537
325.029
324.198
321.761
324.1
322.22
321.9
322.474
322.972
323.63
316.06
317.522
315.487
316.835
315.125
319.418
316.631
317.058
315.99
317.778
315.936
317.475
317.1
315.948
316.121
317.485
316.384
316.693
315.79
316.614
310.878
309.249
311.074
310.069
308.9
309.308
309.841
308.12
309.712
310.51
310.289
308.828
308.75
311.001
309.819
311.03
309.028
310.692
311.071
308.658
304.736
304.499
301.87
302.878
304.364
300.537
304.55
304.563
303.122
306.08
301.367
303.482
302.189
300.276
303.953
301.99
302.272
302.986
302.526
302.748
351.56
352.826
352.621
352.379
352.002
352.113
351.993
352.123
354.164
352.609
351.572
352.679
350.069
351.215
350.003
349.045
346.482
351.077
348.359
351.603
345.081
345.268
341.953
343.907
344.226
344.398
344.069
345.794
347.501
346.371
349.333
345.485
347.804
344.24
344.576
343.329
340.824
341.1
342.828
343.351
337.03
337.287
337.995
339.025
336.599
340.504
340.078
337.306
338.128
337.867
339.539
341.069
337.996
339.082
336.279
334.249
336.503
335.806
337.81
338.014
331.811
332.436
330.721
329.754
329.416
331.007
332.637
330.745
328.344
333.066
332.042
330.937
332.385
329.9
330.362
327.218
333.491
329.988
327.251
330.307
324.935
322.289
324.163
323.978
319.395
323.42
325.994
326.239
323.677
326.916
323.404
324.245
325.184
324.076
324.374
325.041
322.127
322.68
322.096
320.969
319.629
315.78
316.164
319.823
318.6
318.707
317.191
319.104
316.003
318.794
319.167
318.317
314.641
319.417
316.214
315.432
315.767
316.614
317.168
314.262
310.121
312.753
310.828
307.643
309.339
311.469
308.117
310.397
312.422
311.615
308.44
307.015
312.328
310.347
309.006
311.533
311.752
310.127
309.455
311.484
300.71
304.033
301.792
302.328
304.347
301.158
302.373
301.901
302.72
304.9
304.867
304.312
304.196
303.955
303.516
305.256
302.921
304.031
301.838
304.009
353.746
353.15
349.983
350.891
351.172
353.005
353.605
352.022
354.95
358.537
351.484
355.648
352.782
354.286
352.532
352.059
351.528
349.212
353.929
351.862
345.152
342.633
342.302
344.764
344.171
345.83
343.817
347.896
345.197
348.819
347.907
345.811
347.426
345.28
346.576
341.911
344.749
342.894
343.276
343.052
338.636
341.098
336.877
336.848
337.225
340.657
339.088
338.991
340.053
340.169
342.555
338.495
337.677
338.211
338.421
337.77
334.41
336.189
336.362
339.114
331.565
332.95
330.269
330.57
331.885
332.355
330.736
333.758
330.328
331.87
334.529
333.275
332.662
332.769
327.235
327.526
328.72
329.77
329.403
330.806
324.751
325.171
324.979
325.482
323.693
325.45
324.493
325.982
326.721
326.781
327.032
323.677
323.872
323.461
324.646
324.726
322.68
323.344
322.976
324.17
317.579
317.735
318.47
319.309
317.267
318.724
318.292
319.405
318.284
316.67
316.171
317.835
318.434
318.181
315.276
316.391
317.397
315.691
317.803
315.878
310.735
311.198
310.817
310.822
311.494
310.203
309.445
310.77
311.759
310.346
310.408
311.195
311.697
310.264
309.717
309.039
310.761
308.156
309.358
309.663
303.92
302.106
302.991
302.621
301.269
306.257
303.942
304.329
302.138
302.365
304.123
305.582
305.077
302.094
305.054
304.506
302.967
305.251
304.908
303.453
356.812
351.324
351.74
353.341
351.306
350.156
355.182
355.787
353.878
356.567
355.743
353.592
355.371
354.159
351.601
351.639
349.781
352.458
350.644
349.84
346.667
343.554
347.493
347.664
346.685
348.789
346.9
347.68
349.232
347.696
349.796
347.395
346.653
347.815
346.36
343.338
343.917
344.239
344.203
345.982
335.627
339.042
336.595
338.752
339.896
340.654
339.465
340.147
339.046
340.74
342.829
340.211
341.86
340.235
339.207
339.662
337.564
336.105
337.217
339.558
333.21
330.981
330.342
332.328
328.382
333.165
332.08
331.57
333.798
334.428
334.33
333.596
333.559
330.428
334.157
331.715
330.644
329.567
330.448
329.842
325.789
323.207
325.147
322.932
323.878
324.597
327.002
326.438
324.461
323.782
328.309
326.468
327.418
322.162
326.074
325.145
325.483
321.809
324.295
323.495
321.242
316.868
316.551
317.058
318.042
318.146
317.205
319.407
318.013
317.612
319.549
322.366
318.307
317.697
317.473
318.447
316.459
316.565
316.954
317.648
310.212
310.89
311.118
307.533
308.783
309.723
312.496
309.732
312.935
310.117
307.073
309.59
312.21
312.239
308.678
310.97
311.383
308.498
308.888
310.98
302.094
303.761
304.783
303.664
301.612
301.86
303.745
303.483
304.476
305.744
300.748
303.892
303.515
301.972
304.137
303.931
302.712
301.915
303.265
302.39
355.96
353.499
353.589
352.977
351.894
351.117
354.643
356.158
356.216
359.986
360.195
358.748
354.226
355.607
353.307
354.05
351.603
350.587
350.151
354.122
348.723
345.032
346.677
346.125
345.44
346.998
346.27
348.211
347.537
349.452
349.196
348.493
348.701
347.809
346.875
346.379
344.953
344.419
344.348
346.239
341.759
338.197
338.571
339.206
339.38
337.68
340.185
339.903
341.807
341.676
341.871
342.961
339.593
338.26
339.325
339.953
336.461
338.453
340.126
339.313
332.404
331.412
333.798
331.876
334.632
331.469
332.834
334.49
335.41
336.605
333.146
334.537
333.163
334.717
331.498
332.012
328.731
331.556
331.559
329.46
325.232
325.104
325.625
323.499
325.265
324.882
324.565
327.321
323.926
324.82
325.361
326.759
327.5
326.73
323.706
322.863
324.079
324.959
323.183
324.784
320.186
318.864
318.795
316.897
320.717
315.298
318.716
318.514
318.939
319.14
321.07
317.499
318.203
318.264
317.623
316.849
316.489
317.325
317.063
318.214
313.96
311.866
310.298
309.936
310.169
311.822
312.243
311.608
312.458
310.322
312.277
309.889
312.605
309.145
310.402
308.812
308.396
310.137
309.563
311.062
306.116
304.843
303.853
301.301
305.558
303.326
302.933
305.762
304.067
303.707
302.636
303.617
303.927
302.345
304.09
301.341
302.241
302.546
304.441
305.875
354.184
356.234
354.309
354.943
354.579
355.406
355.332
356.217
358.093
357.955
357.235
356.277
357.655
355.707
357.105
352.526
354.433
352.754
351.674
354.849
348.207
348.39
348.142
348.09
347.657
347.171
348.233
349.546
352.57
348.636
351.128
349.343
347.994
351.338
347.244
349.699
346.537
347.397
345.415
344.617
342.316
341.356
341.712
338.581
340.231
340.396
338.256
341.31
343.012
343.742
343.142
343.475
340.888
341.537
340.637
340.071
338.516
336.555
339.8
337.266
335.544
333.288
335.443
333.879
331.046
331.335
330.538
333.469
335.058
336.497
332.117
333.262
335.921
332.553
335.42
332.418
334.933
333.372
334.941
333.154
326.857
326.763
327.448
325.238
324.212
326.236
326.259
327.327
327.499
328.4
327.36
326.886
329.894
326.127
323.927
324.506
325.985
324.461
325.076
328.034
318.063
319.718
320.38
317.869
318.691
317.764
318.619
320.33
319.536
319.402
319.864
319.234
319.125
317.428
318.435
319.254
316.668
319.296
317.3
319.373
313.125
311.682
309.429
310.795
312.36
311.972
313.849
309.703
311.706
310.158
313.562
310.1
313.264
310.514
311.341
311.314
309.082
309.665
307.969
311.585
304.604
301.075
306.19
304.153
305.29
302.203
305.847
305.131
305.546
303.613
302.414
303.028
302.472
303.267
303.024
303.567
302.589
303.209
307.86
303.878
360.377
355.97
355.993
357.301
357.28
357.654
359.979
356.492
359.74
360.504
361.851
361.412
359.509
358.383
357.758
354.163
354.591
354.201
355.641
356.496
352.025
345.905
347.893
347.416
345.687
348.664
348.534
349.65
352.346
350.697
350.278
354.98
349.398
350.83
348.54
346.595
347.519
348.556
345.987
347.832
341.43
343.308
341.006
338.346
340.272
342.422
342.597
342.413
342.713
344.774
345.323
342.098
342.592
340.349
338.471
341.763
340.64
339.395
340.112
341.179
332.899
334.248
334.539
333.48
333.033
332.806
335.776
335.648
338.256
337.266
335.474
334.719
335.889
333.751
334.879
332.634
333.574
332.364
332.53
331.066
329.281
324.921
325.96
328.005
325.465
326.683
329.346
326.502
327.593
326.206
326.133
328.994
329.847
326.407
326.851
325.952
324.726
325.822
324.643
326.838
319.148
320.233
318.304
317.852
318.043
320.11
317.675
318.752
319.968
321.158
318.756
319.283
318.963
318.192
317.215
315.913
316.917
320.359
317.355
320.273
309.927
311.595
310.651
312.149
310.006
311.56
313.653
308.993
310.629
312.64
312.882
311.813
311.457
311.081
310.75
310.419
309.509
310.189
311.25
312.563
303.83
304.763
301.788
302.403
303.009
303.016
303.944
304.758
302.886
304.106
305.229
302.678
304.385
306.132
303.096
302.91
304.147
304.946
302.178
302.324
360.519
358.501
355.724
358.065
358.58
358.451
357.914
359.501
359.042
362.209
362.074
363.218
361.066
361.056
358.341
356.503
356.034
356.645
359.218
358.417
349.259
350.514
346.887
348.634
347.664
349.955
351.249
352.245
352.715
351.677
352.311
353.6
351.735
351.693
348.808
348.906
348.785
349.939
349.122
352.718
344.375
342.215
340.07
341.871
341.838
340.588
342.648
344.264
345.04
347.86
344.689
344.517
342.076
342.919
343.723
343.724
343.218
341.176
343.222
342.952
334.208
334.538
335.558
333.867
333.526
334.307
333.501
335.13
335.928
336.92
338.42
336.64
335.76
332.483
333.282
334.379
334.224
332.466
333.027
333.74
326.22
328.798
329.365
325.779
326.422
328.764
327.169
326.88
327.412
326.645
326.162
330.458
330.374
328.018
328.37
325.813
325.89
327.832
327.283
327.019
319.205
319.928
316.64
318.401
318.171
320.8
320.783
320.162
321.651
321.086
321.7
319.022
319.199
319.459
316.873
319.297
317.614
317.761
317.898
319.258
311.041
310.356
308.038
312.446
310.731
311.47
311.56
311.254
313.88
312.777
311.947
310.479
313.904
313.52
315.147
310.019
312.865
309.399
313.689
311.181
303.563
304.158
303.324
304.32
305.429
303.904
304.758
304.457
300.752
305.4
302.674
304.586
304.181
301.963
304.18
303.886
304.159
302.614
304.529
301.646
361.308
359.806
359.327
359.099
359.569
358.127
359.473
360.046
363.97
362.402
362.771
363.144
363.154
361.894
362.131
358.468
359.267
359.324
360.794
357.853
350.285
348.695
351.929
349.814
353.698
350.883
350.353
351.839
354.323
351.633
351.596
356.505
352.039
353.357
350.596
350.901
350.085
350.324
348.228
352.061
345.418
342.872
341.671
344.774
342.575
344.136
342.198
344.175
345.633
346.992
344.152
345.601
345.477
341.511
342.819
343.042
343.208
346.1
343.098
344.375
336.532
335.781
334.555
335.547
333.224
334.728
336.061
337.494
337.432
337.126
336.854
335.829
336.442
337.276
335.838
334.189
336.951
333.988
331.287
336.754
329.343
327.676
325.815
329.668
326.217
327.606
328.034
328.959
330.246
331.283
330.365
327.845
330.873
328.044
327.739
328.517
327.17
330.177
328.751
327.649
319.318
319.175
321.216
320.675
319.676
321.521
322.185
320.76
320.235
321.124
323.782
320.753
319.406
319.856
319.42
320.457
320.859
320.045
317.063
320.784
312.941
311.512
312.232
313.877
310.815
313.551
313.788
313.582
313.089
311.116
313.468
312.518
310.896
313.904
313.242
311.586
312.401
311.499
311.509
311.723
302.962
304.203
303.058
304.599
303.014
303.453
303.424
303.745
303.507
306.347
304.001
305.281
303.434
302.289
305.454
303.912
303.772
303.162
302.781
303.072
365.061
360.723
357.382
361.469
358.629
363.192
360.875
362.664
365.05
366.203
363.464
362.284
365.591
363.89
363.071
360.011
357.636
358.875
361.726
363.18
353.351
351.111
353.066
350.987
350.468
351.291
354.22
352.887
353.748
353.604
354.317
357.991
352.504
354.151
352.052
351.533
350.521
350.758
349.87
353.85
345.928
342.836
343.717
345.67
342.84
344.978
343.746
345.775
346.121
348.797
347.459
345.353
349.725
346.31
344.968
346.686
344.077
341.094
343.862
342.945
336.374
336.975
336.157
337.861
333.975
336.891
334.298
334.936
340.134
338.31
337.859
340.426
336.58
335.06
335.223
335.184
335.837
336.604
336.564
334.389
331.43
327.09
328.409
327.19
328.736
328.8
329.255
329.294
329.047
330.791
328.865
329.806
327.559
330.335
328.175
329.159
327.978
328.591
327.036
324.459
319.124
318.638
321.931
319.146
319.737
319.507
319.373
323.374
321.281
321.884
320.533
321.246
320.713
322.499
321.331
321.193
321.92
319.571
319.607
319.934
312.766
312.731
313.713
310.725
311.908
310.49
314.038
313.731
312.829
313.02
310.416
314.051
312.773
311.204
312.125
313.264
312.556
312.461
309.677
312.439
302.172
304.62
305.227
303.31
305.294
304.271
304.11
305.911
304.666
303.38
305.885
305.025
303.651
304.282
306.347
303.735
301.402
305.24
302.152
304.298
362.18
362.667
361.874
360.556
362.854
364.582
364.648
363.289
363.372
364.718
368.9
365.168
364.571
366.654
365.454
362.609
362.105
358.829
362.211
363.916
354.261
353.884
351.909
351.908
353.77
353.084
353.366
357.423
358.027
355.643
355.096
354.512
355.294
356.059
356.238
352.957
353.849
353.956
355.968
352.957
345.382
346.054
345.719
345.88
346.812
347.094
345.622
348.389
345.503
350.198
348.93
347.126
346.77
348.478
347.808
348.931
346.813
346.409
345.284
344.838
337.833
336.688
337.937
337.686
336.897
336.916
336.837
339.378
338.995
336.771
339.332
340.336
337.478
338.546
337.353
335.314
338.65
337.035
339.106
338.45
329.922
327.822
330.259
326.05
327.777
330.739
329.11
331.679
329.628
329.981
331.285
331.012
328.396
328.464
332.69
328.794
327.029
328.889
331.304
328.671
320.625
320.901
322.992
320.212
320.663
319.912
322.345
320.93
323.19
321.704
320.439
321.976
321.987
318.636
322.476
321.752
318.912
319.664
319.41
320.469
315.141
314.228
312.69
312.551
311.538
313.619
310.679
312.649
314.982
312.405
315.016
312.409
314.567
311.766
314.617
314.052
312.154
310.717
312.927
313.802
306.912
303.17
303.175
305.488
305.426
304.149
303.678
305.357
304.235
305.391
303.672
305.592
304.246
304.062
306.082
303.175
301.795
303.579
303.598
304.497
365.394
363.77
361.446
360.809
363.027
362.986
366.54
364.274
366.072
367.436
367.249
368.567
366.844
365.837
364.111
365.827
362.946
363.668
362.89
364.157
356.332
352.195
355.296
354.365
354.565
355.38
355.28
356.216
355.155
354.941
355.581
358.912
355.41
354.925
354.741
356.894
353.816
355.782
352.569
356.499
350.1
346.922
345.985
347.567
342.837
343.223
346.568
346.253
347.908
350.473
348.926
348.911
352.287
347.936
345.997
349.855
347.007
350.521
346.934
346.621
341.564
338.232
338.906
340.864
335.96
338.978
335.615
340.692
339.424
340.46
339.803
342.184
337.937
338.984
339.664
337.379
336.906
338.643
338.191
339.273
332.949
327.742
331.089
330.223
329.064
330.754
331.727
331.215
332.826
331.56
331.772
333.865
329.533
330.84
331.217
329.962
330.246
329.351
330.362
329.322
320.712
323.719
322.978
319.91
322.071
321.246
323.634
319.482
322.623
322.022
321.932
320.417
320.503
320.512
319.826
319.801
321.913
321.421
323.049
319.217
314.834
310.274
310.73
312.575
312.039
313.287
312.677
312.476
310.909
314.704
314.207
313.354
310.245
314.069
312.611
311.086
312.377
313.287
313.506
313.274
305.913
305.073
302.94
306.005
302.007
304.719
304.855
303.973
303.166
304.52
302.961
304.186
303.953
303.332
306.048
302.443
303.654
302.068
302.142
303.891
365.264
366.834
362.462
364.419
366.973
363.423
365.939
363.399
370.488
368.422
368.341
369.688
370.17
366.484
366.573
366.193
365.833
366.247
364.995
367.735
360.466
355.769
357.445
358.041
355.77
355.26
357.078
357.948
356.111
358.495
360.281
360.144
357.088
357.944
359.685
359.691
355.77
356.071
356.111
358.197
348.827
346.326
346.273
345.671
346.918
348.153
347.826
348.986
349.917
351.346
348.678
350.038
351.923
348.65
348.104
349.024
346.443
346.222
345.657
351.987
338.628
338.808
340.525
337.903
338.65
342.176
340.263
342.32
339.224
340.202
343.645
342.134
340.949
338.592
339.903
339.727
341.447
339.578
339.541
341.009
330.246
331.833
330.636
328.837
331.612
329.571
330.371
331.017
331.829
330.567
330.517
332.88
333.165
329.077
330.54
327.82
332.609
328.278
332.254
331.673
320.515
321.1
322.567
319.66
320.88
321.165
319.553
320.714
319.999
322.606
321.894
321.922
323.401
324.351
322.785
321.352
322.593
323.306
321.523
321.494
312.107
313.167
312.048
313.765
313.779
313.145
311.996
315.177
312.871
314.245
313.017
312.975
314.213
312.686
314.251
314.657
312.095
314.761
314.196
313.135
303.001
303.82
304.214
303.083
303.087
304.866
303.182
304.794
305.421
306.116
304.618
303.666
303.852
304.288
304.488
303.532
302.771
306.85
303.369
304.503
368.514
366.458
364.292
364.099
367.086
365.288
365.162
365.44
367.882
368.56
368.125
368.135
368.643
370.185
368.692
367.059
364.997
367.791
366.597
368.843
359.922
356.897
359.415
356.867
358.433
358.776
359.098
358.54
361.407
358.607
359.455
359.331
358.457
359.285
357.967
359.627
357.671
358.659
356.797
359.968
351.11
349.91
348.232
348.637
346.922
348.511
348.956
350.8
348.57
349.615
351.607
352.818
351.22
350.949
348.983
350.392
350.311
352.376
349.274
348.014
341.556
339.433
338.489
339.441
339.44
338.111
340.802
340.311
341.225
340.487
343.484
340.511
342.066
342.113
338.943
340.921
342.198
339.195
339.032
339.008
331.273
331.806
332.316
331.841
332.184
332.493
333.062
331.949
332.714
330.415
333.459
333.51
331.112
331.733
332.308
331.609
332.144
330.455
331.512
331.556
323.14
322.45
319.982
322.161
321.685
320.527
322.302
324.632
322.74
324.757
322.72
322.865
321.805
320.713
322.291
322.446
323.998
323.659
322.86
322.044
311.925
311.215
311.709
312.53
313.146
312.218
314.161
312.198
312.806
313.975
312.522
316.472
314.379
314.526
314.321
313.952
313.512
314.146
313.861
311.629
305.722
303.974
305.605
302.73
303.791
304.792
305.202
305.403
305.366
306.331
304.503
304.761
304.053
301.692
305.397
305.231
307.038
305.136
307.157
305.717
368.468
368.959
367.609
368.173
369.48
368.694
368.69
369.575
370.751
372.18
369.532
370.165
370.072
371.037
369.547
368.418
369.063
368.667
369.675
369.336
361.282
361.682
359.631
358.673
360.888
358.78
358.6
360.064
360.88
359.494
359.079
360.981
363.178
358.313
359.564
360.061
361.918
362.432
360.331
363.806
352.2
348.571
350.52
350.631
352.14
349.334
350.357
348.453
351.142
354.103
351.171
354.183
352.023
351.077
349.656
352.909
349.15
349.31
349.304
351.588
340.366
340.785
338.69
340.366
339.927
342.675
341.439
343.453
343.102
343.094
342.095
340.644
341.76
342.925
341.787
341.363
339.553
341.692
342.541
343.776
332.687
333.681
332.019
332.838
329.753
332.87
330.619
332.47
329.962
334.828
331.762
333.102
334.71
330.335
333.39
334.309
330.735
331.833
332.291
331.051
321.348
323.945
324.468
322.065
322.354
321.666
322.621
325.455
323.438
326.586
325.359
325.778
321.53
322.844
323.71
322.758
324.679
323.425
322.165
323.585
312.687
314.292
311.266
315.318
313.615
314.692
316.108
312.796
313.798
314.306
315.246
314.989
316.02
313.7
313.478
313.082
314.182
314.159
314.753
315.473
305.925
305.645
307.029
303.892
303.562
304.311
303.426
301.726
304.328
304.371
303.08
302.499
305.944
305.364
305.042
304.058
305.553
304.22
304.575
303.852
371.61
370.168
369.365
368.739
370.62
371
369.689
370.459
368.294
368.752
371.715
374.41
373.779
370.818
372.037
371.591
371.041
371.564
374.071
372.869
362.06
361.512
362.519
362.15
361.927
362.413
360.633
362.671
361.228
363.055
362.894
363.348
363.13
362.141
361.874
361.222
361.672
361.436
361.795
360.612
351.493
353.478
351.813
351.926
349.492
350.747
351.897
351.526
353.609
352.255
353.552
350.859
354.177
348.547
352.109
353.631
350.711
350.809
352.357
356.443
342.409
338.768
341.911
341.961
341.601
340.48
341.99
340.408
341.787
342.208
343.972
343.702
343.214
342.542
344.572
343.065
344.424
340.009
339.741
343.819
331.6
332.874
334.459
333.624
331.672
333.431
333.33
337.057
335.207
330.865
334.56
331.953
332.811
332.786
333.257
334.484
331.803
332.625
332.722
332.658
324.277
324.564
322.77
318.366
321.557
323.23
322.66
323.198
322.766
323.685
322.408
323.444
321.164
325.292
324.792
320.373
324.698
325.566
323.947
323.278
316.013
313.912
314.743
314.337
313.106
314.434
312.625
314.594
313.978
314.318
313.207
314.904
315.042
312.135
316.616
316.366
312.385
312.808
315.208
314.871
303.818
305.661
303.108
303.711
306.556
303.946
302.714
305.006
305.107
304.811
305.03
304.721
304.369
303.062
303.138
305.43
304.872
303.638
301.924
306.437
372.181
373.102
370.459
369.361
370.233
370.846
372.155
372.357
371.143
371.047
371.203
371.675
370.22
372.845
370.846
372.916
372.145
371.429
373.081
376.115
362.578
362.771
361.354
365.082
360.816
362.265
362.665
363.366
366.05
362.57
363.906
365.334
361.363
361.75
362.391
363.03
363.985
363.08
363.856
365.837
350.719
351.066
350.953
353.824
352.313
352.586
352.085
349.464
353.222
352.29
354.479
350.592
352.017
354.153
352.74
354.087
351.744
351.356
352.964
352.637
345.366
343.964
344.217
341.946
341
343.574
339.322
343.202
344.64
342.705
344.107
341.486
344.129
343.47
344.666
345.211
342.744
343.277
342.388
345.056
336.198
333.963
331.486
334.888
331.06
333.658
333.981
332.699
333.185
335.349
332.843
334.225
333.464
334.614
336.527
333.539
336.008
332.477
333.759
333.956
324.696
324.24
323.475
324.683
325.472
320.627
323.59
324.361
322.694
324.905
325.035
321.978
325.198
326.716
322.794
326.319
322.337
325.785
323.875
325.714
314.553
315.168
315.311
314.039
313.816
312.233
311.98
313.864
313.876
315.427
315.419
317.809
313.66
315.752
315.349
312.916
314.265
317.2
317.369
313.706
305.936
306.043
304.905
304.662
302.349
305.352
305.999
307.201
304.584
305.282
304.679
305.05
304.096
304.173
305.279
304.863
305.189
306.825
308.165
306.208
372.826
374.216
373.089
374.25
373.781
373.275
371.355
371.951
369.642
372.965
374.592
374.218
375.367
375.369
376.025
373.041
374.504
375.289
375.129
375.537
363.652
365.874
362.599
365.868
361.516
366.239
362.461
367.12
360.034
366.49
366.402
363.346
367.19
363.706
366.146
363.464
366.089
364.74
366.31
368.215
356.386
352.099
353.238
351.929
354.625
351.644
355.632
353.549
352.841
356.621
356.083
351.92
356.188
356.903
354.337
352.922
354.78
354.325
355.269
356.332
344.264
343.13
341.512
340.929
342.735
344.116
342.501
342.201
345.776
344.596
344.973
344.458
345.737
342.759
341.931
345.847
347.734
344.478
343.206
345.368
332.841
333.325
332.395
332.095
335.872
330.753
332.871
335.769
333.908
334.087
333.592
335.664
331.586
337.22
335.623
334.956
335.757
334.01
336.834
335.521
324.707
324.523
326.166
322.484
321.707
324.537
324.788
324.803
323.637
324.842
324.883
324.357
324.789
326.83
323.477
322.674
326.109
325.138
325.71
325.585
315.495
315.378
314.554
314.7
315.337
314.326
317.009
316.409
312.727
317.033
314.662
313.578
314.403
312.538
315.54
314.427
314.57
316.444
314.845
313.053
305.956
304.315
306.32
303.854
306.669
307.116
305.673
305.398
302.363
303.089
307.561
307.861
302.565
304.303
304.977
302.372
304.287
305.569
304.282
307.696
375.066
375.39
373.892
370.675
372.715
373.622
374.476
374.482
375.633
372.964
374.399
373.605
375.375
374.229
373.41
376.729
375.753
373.472
378.94
375.222
364.764
363.04
365.222
364.26
362.884
362.51
364.385
364.68
363.866
364.873
365.119
362.253
368.204
362.994
366.695
364.092
365.484
364.477
365.682
366.047
355.855
352.729
354.327
353.76
351.012
353.13
355.151
357.367
355.319
354.993
354.676
354.362
354.22
352.486
354.923
355.21
353.707
354.611
356.305
356.281
345.483
343.671
344.34
344.383
344.09
341.127
342.719
344.823
346.583
344.184
345.487
344.605
345.022
344.551
342.679
344.846
345.697
344.593
346.277
343.469
336.495
335.886
333.662
335.07
331.515
333.002
336.48
336.745
332.914
336.47
334.716
330.767
334.763
333.654
332.944
333.952
336.893
333.657
335.073
335.662
324.516
322.972
323.476
320.892
324.22
324.963
326.215
324.045
324.28
322.879
323.317
324.779
327.095
323.514
322.532
324.102
327.087
322.658
326.738
325.809
316.496
315.029
312.988
311.479
315.391
315.853
313.753
313.956
314.379
316.068
314.032
314.816
315.927
314.095
315.24
313.837
316.641
314.631
312.421
315.5
304.018
304.428
303.667
305.429
306.689
306.983
306.749
306.824
305.973
304.71
303.72
305.292
305.177
303.384
305.719
305.278
305.751
303.929
302.415
305.615
)
;

boundaryField
{
    hotSide
    {
        type            fixedGradient;
        gradient        nonuniform List<scalar> 
400
(
321.511
322.87
325.591
329.677
335.133
341.965
350.181
359.788
370.794
383.208
397.037
412.289
428.971
447.088
466.647
487.651
510.105
534.011
559.372
586.191
323.738
325.08
327.767
331.802
337.194
343.949
352.078
361.591
372.498
384.81
398.537
413.687
430.268
448.289
467.755
488.672
511.043
534.872
560.161
586.913
326.149
327.47
330.116
334.091
339.406
346.071
354.099
363.503
374.296
386.491
400.101
415.136
431.606
449.52
468.885
489.706
511.988
535.735
560.948
587.63
328.704
330
332.597
336.503
341.73
348.292
356.205
365.485
376.15
388.215
401.695
416.604
432.954
450.753
470.009
490.73
512.919
536.579
561.714
588.325
331.33
332.599
335.142
338.97
344.099
350.546
358.332
367.477
378.003
389.928
403.271
418.047
434.27
451.949
471.095
491.712
513.807
537.382
562.439
588.978
333.918
335.158
337.643
341.389
346.414
352.74
360.392
369.397
379.779
391.562
404.765
419.407
435.503
453.065
472.101
492.618
514.622
538.114
563.096
589.569
336.321
337.531
339.959
343.622
348.544
354.751
362.274
371.142
381.385
393.031
406.101
420.618
436.595
454.047
472.983
493.409
515.33
538.747
563.663
590.076
338.36
339.543
341.92
345.509
350.339
356.44
363.847
372.595
382.718
394.244
407.2
421.608
437.485
454.844
473.695
494.045
515.897
539.253
564.114
590.478
339.852
341.015
343.352
346.885
351.645
357.665
364.985
373.643
383.675
395.113
407.984
422.312
438.116
455.407
474.197
494.491
516.294
539.606
564.428
590.758
340.643
341.795
344.11
347.613
352.334
358.311
365.584
374.193
384.176
395.567
408.393
422.679
438.443
455.699
474.456
494.722
516.498
539.788
564.589
590.901
340.643
341.795
344.11
347.613
352.334
358.311
365.584
374.193
384.176
395.567
408.393
422.679
438.443
455.699
474.456
494.722
516.498
539.788
564.589
590.901
339.852
341.015
343.352
346.885
351.645
357.665
364.985
373.643
383.675
395.113
407.984
422.312
438.116
455.407
474.197
494.491
516.294
539.606
564.428
590.758
338.36
339.543
341.92
345.509
350.339
356.44
363.847
372.595
382.718
394.244
407.2
421.608
437.485
454.844
473.695
494.045
515.897
539.253
564.114
590.478
336.321
337.531
339.959
343.622
348.544
354.751
362.274
371.142
381.385
393.031
406.101
420.618
436.595
454.047
472.983
493.409
515.33
538.747
563.663
590.076
333.918
335.158
337.643
341.389
346.414
352.74
360.392
369.397
379.779
391.562
404.765
419.407
435.503
453.065
472.101
492.618
514.622
538.114
563.096
589.569
331.33
332.599
335.142
338.97
344.099
350.546
358.332
367.477
378.003
389.928
403.271
418.047
434.27
451.949
471.095
491.712
513.807
537.382
562.439
588.978
328.704
330
332.597
336.503
341.73
348.292
356.205
365.485
376.15
388.215
401.695
416.604
432.954
450.753
470.009
490.73
512.919
536.579
561.714
588.325
326.149
327.47
330.116
334.091
339.406
346.071
354.099
363.503
374.296
386.491
400.101
415.136
431.606
449.52
468.885
489.706
511.988
535.735
560.948
587.63
323.738
325.08
327.767
331.802
337.194
343.949
352.078
361.591
372.498
384.81
398.537
413.687
430.268
448.289
467.755
488.672
511.043
534.872
560.161
586.913
321.511
322.87
325.591
329.677
335.133
341.965
350.181
359.788
370.794
383.208
397.037
412.289
428.971
447.088
466.647
487.651
510.105
534.011
559.372
586.191
)
;
    }
    coldSide
    {
        type            mixed;
        refValue        uniform 300;
        refGradient     uniform 0;
        valueFraction   uniform 0.991591;
        source          uniform 0;
        value           nonuniform List<scalar> 
400
(
300.012
300.04
300.006
300.033
300.018
300.051
300.039
300.032
300.03
300.025
300.018
300.058
300.05
300.025
300.048
300.05
300.032
300.05
300.05
300.034
300.034
300.038
300.034
300.018
300.032
300.041
300.009
300.04
300.035
300.035
300.039
300.027
300.043
300.032
300.033
300.047
300.048
300.051
300.036
300.037
300.022
300.016
300.015
300.025