/*--------------------------------*- C++ -*----------------------------------*\
| =========                 |                                                 |
| \\      /  F ield         | OpenFOAM: The Open Source CFD Toolbox           |
|  \\    /   O peration     | Version:  2212                                  |
|   \\  /    A nd           | Website:  www.openfoam.com                      |
|    \\/     M anipulation  |                                                 |
\*---------------------------------------------------------------------------*/
FoamFile
{
    version     2.0;
    format      ascii;
    arch        "LSB;label=32;scalar=64";
    class       volScalarField;
    location    "0";
    object      Ttrue;
}
// * * * * * * * * * * * * * * * * * * * * * * * * * * * * * * * * * * * * * //

dimensions      [0 0 0 1 0 0 0];

internalField   nonuniform List<scalar> 
3200
(
345.027
345.866
346.936
348.103
349.305
350.485
351.574
352.493
353.162
353.516
353.516
353.162
352.493
351.574
350.485
349.305
348.103
346.936
345.866
345.027
339.042
339.752
340.676
341.685
342.725
343.746
344.687
345.481
346.059
346.365
346.365
346.059
345.481
344.687
343.746
342.725
341.685
340.676
339.752
339.042
333.051
333.64
334.418
335.271
336.149
337.011
337.806
338.477
338.964
339.222
339.222
338.964
338.477
337.806
337.011
336.149
335.271
334.418
333.64
333.051
327.053
327.528
328.162
328.859
329.577
330.282
330.931
331.478
331.876
332.086
332.086
331.876
331.478
330.931
330.282
329.577
328.859
328.162
327.528
327.053
321.052
321.416
321.908
322.449
323.008
323.555
324.059
324.484
324.794
324.957
324.957
324.794
324.484
324.059
323.555
323.008
322.449
321.908
321.416
321.052
315.047
315.304
315.655
316.042
316.44
316.831
317.191
317.495
317.715
317.832
317.832
317.715
317.495
317.191
316.831
316.44
316.042
315.655
315.304
315.047
309.039
309.193
309.403
309.635
309.875
310.109
310.326
310.508
310.64
310.71
310.71
310.64
310.508
310.326
310.109
309.875
309.635
309.403
309.193
309.039
303.03
303.082
303.152
303.23
303.31
303.389
303.461
303.522
303.566
303.59
303.59
303.566
303.522
303.461
303.389
303.31
303.23
303.152
303.082
303.03
345.154
345.986
347.047
348.203
349.393
350.559
351.635
352.543
353.204
353.553
353.553
353.204
352.543
351.635
350.559
349.393
348.203
347.047
345.986
345.154
339.152
339.856
340.772
341.772
342.801
343.81
344.741
345.525
346.096
346.397
346.397
346.096
345.525
344.741
343.81
342.801
341.772
340.772
339.856
339.152
333.143
333.727
334.499
335.344
336.214
337.066
337.852
338.514
338.995
339.25
339.25
338.995
338.514
337.852
337.066
336.214
335.344
334.499
333.727
333.143
327.129
327.599
328.228
328.919
329.63
330.326
330.968
331.509
331.902
332.109
332.109
331.902
331.509
330.968
330.326
329.63
328.919
328.228
327.599
327.129
321.11
321.471
321.959
322.496
323.049
323.59
324.089
324.508
324.813
324.974
324.974
324.813
324.508
324.089
323.59
323.049
322.496
321.959
321.471
321.11
315.088
315.344
315.692
316.075
316.47
316.856
317.212
317.512
317.729
317.844
317.844
317.729
317.512
317.212
316.856
316.47
316.075
315.692
315.344
315.088
309.064
309.217
309.425
309.655
309.892
310.124
310.338
310.518
310.648
310.717
310.717
310.648
310.518
310.338
310.124
309.892
309.655
309.425
309.217
309.064
303.039
303.09
303.159
303.236
303.316
303.394
303.465
303.526
303.569
303.592
303.592
303.569
303.526
303.465
303.394
303.316
303.236
303.159
303.09
303.039
345.408
346.227
347.27
348.405
349.57
350.712
351.763
352.648
353.292
353.632
353.632
353.292
352.648
351.763
350.712
349.57
348.405
347.27
346.227
345.408
339.372
340.065
340.965
341.946
342.955
343.942
344.851
345.617
346.173
346.466
346.466
346.173
345.617
344.851
343.942
342.955
341.946
340.965
340.065
339.372
333.329
333.904
334.662
335.491
336.344
337.178
337.946
338.592
339.061
339.309
339.309
339.061
338.592
337.946
337.178
336.344
335.491
334.662
333.904
333.329
327.28
327.743
328.361
329.039
329.736
330.418
331.045
331.572
331.956
332.158
332.158
331.956
331.572
331.045
330.418
329.736
329.039
328.361
327.743
327.28
321.228
321.583
322.063
322.59
323.131
323.661
324.148
324.558
324.856
325.012
325.012
324.856
324.558
324.148
323.661
323.131
322.59
322.063
321.583
321.228
315.172
315.424
315.766
316.142
316.529
316.907
317.255
317.547
317.76
317.872
317.872
317.76
317.547
317.255
316.907
316.529
316.142
315.766
315.424
315.172
309.115
309.265
309.47
309.696
309.928
310.155
310.364
310.539
310.667
310.734
310.734
310.667
310.539
310.364
310.155
309.928
309.696
309.47
309.265
309.115
303.055
303.106
303.174
303.25
303.328
303.404
303.474
303.533
303.575
303.598
303.598
303.575
303.533
303.474
303.404
303.328
303.25
303.174
303.106
303.055
345.792
346.591
347.608
348.712
349.843
350.948
351.963
352.817
353.437
353.764
353.764
353.437
352.817
351.963
350.948
349.843
348.712
347.608
346.591
345.792
339.703
340.38
341.257
342.212
343.191
344.147
345.025
345.763
346.299
346.581
346.581
346.299
345.763
345.025
344.147
343.191
342.212
341.257
340.38
339.703
333.608
334.17
334.909
335.716
336.543
337.351
338.093
338.716
339.168
339.406
339.406
339.168
338.716
338.093
337.351
336.543
335.716
334.909
334.17
333.608
327.509
327.961
328.563
329.223
329.899
330.56
331.166
331.674
332.043
332.238
332.238
332.043
331.674
331.166
330.56
329.899
329.223
328.563
327.961
327.509
321.405
321.753
322.22
322.732
323.258
323.772
324.242
324.637
324.924
325.075
325.075
324.924
324.637
324.242
323.772
323.258
322.732
322.22
321.753
321.405
315.299
315.545
315.878
316.244
316.62
316.986
317.322
317.604
317.809
317.916
317.916
317.809
317.604
317.322
316.986
316.62
316.244
315.878
315.545
315.299
309.191
309.337
309.537
309.757
309.982
310.202
310.404
310.573
310.696
310.761
310.761
310.696
310.573
310.404
310.202
309.982
309.757
309.537
309.337
309.191
303.081
303.13
303.197
303.271
303.346
303.42
303.487
303.544
303.585
303.607
303.607
303.585
303.544
303.487
303.42
303.346
303.271
303.197
303.13
303.081
346.307
347.082
348.065
349.13
350.217
351.276
352.246
353.06
353.65
353.96
353.96
353.65
353.06
352.246
351.276
350.217
349.13
348.065
347.082
346.307
340.148
340.804
341.653
342.574
343.515
344.431
345.271
345.974
346.484
346.752
346.752
346.484
345.974
345.271
344.431
343.515
342.574
341.653
340.804
340.148
333.984
334.529
335.243
336.022
336.817
337.592
338.301
338.895
339.325
339.552
339.552
339.325
338.895
338.301
337.592
336.817
336.022
335.243
334.529
333.984
327.816
328.254
328.837
329.473
330.123
330.757
331.336
331.821
332.172
332.357
332.357
332.172
331.821
331.336
330.757
330.123
329.473
328.837
328.254
327.816
321.644
321.98
322.432
322.927
323.433
323.925
324.375
324.752
325.025
325.168
325.168
325.025
324.752
324.375
323.925
323.433
322.927
322.432
321.98
321.644
315.469
315.707
316.03
316.383
316.744
317.095
317.417
317.686
317.881
317.983
317.983
317.881
317.686
317.417
317.095
316.744
316.383
316.03
315.707
315.469
309.293
309.435
309.628
309.84
310.057
310.268
310.461
310.623
310.739
310.801
310.801
310.739
310.623
310.461
310.268
310.057
309.84
309.628
309.435
309.293
303.115
303.163
303.227
303.298
303.371
303.442
303.507
303.561
303.6
303.62
303.62
303.6
303.561
303.507
303.442
303.371
303.298
303.227
303.163
303.115
346.957
347.703
348.647
349.664
350.701
351.706
352.624
353.392
353.947
354.239
354.239
353.947
353.392
352.624
351.706
350.701
349.664
348.647
347.703
346.957
340.71
341.342
342.156
343.037
343.934
344.804
345.598
346.262
346.742
346.994
346.994
346.742
346.262
345.598
344.804
343.934
343.037
342.156
341.342
340.71
334.459
334.982
335.669
336.413
337.171
337.907
338.578
339.139
339.544
339.757
339.757
339.544
339.139
338.578
337.907
337.171
336.413
335.669
334.982
334.459
328.203
328.625
329.184
329.793
330.413
331.014
331.563
332.021
332.352
332.526
332.526
332.352
332.021
331.563
331.014
330.413
329.793
329.184
328.625
328.203
321.945
322.269
322.703
323.176
323.658
324.125
324.551
324.907
325.164
325.299
325.299
325.164
324.907
324.551
324.125
323.658
323.176
322.703
322.269
321.945
315.684
315.913
316.223
316.56
316.905
317.239
317.543
317.797
317.981
318.077
318.077
317.981
317.797
317.543
317.239
316.905
316.56
316.223
315.913
315.684
309.422
309.559
309.744
309.947
310.154
310.354
310.537
310.689
310.799
310.857
310.857
310.799
310.689
310.537
310.354
310.154
309.947
309.744
309.559
309.422
303.158
303.204
303.266
303.334
303.404
303.471
303.532
303.583
303.62
303.639
303.639
303.62
303.583
303.532
303.471
303.404
303.334
303.266
303.204
303.158
347.745
348.458
349.358
350.324
351.303
352.249
353.11
353.827
354.345
354.616
354.616
354.345
353.827
353.11
352.249
351.303
350.324
349.358
348.458
347.745
341.391
341.995
342.771
343.607
344.455
345.275
346.019
346.64
347.087
347.322
347.322
347.087
346.64
346.019
345.275
344.455
343.607
342.771
341.995
341.391
335.034
335.535
336.189
336.895
337.612
338.305
338.934
339.459
339.836
340.035
340.035
339.836
339.459
338.934
338.305
337.612
336.895
336.189
335.535
335.034
328.673
329.076
329.609
330.187
330.774
331.34
331.854
332.283
332.591
332.753
332.753
332.591
332.283
331.854
331.34
330.774
330.187
329.609
329.076
328.673
322.31
322.62
323.033
323.482
323.938
324.378
324.778
325.111
325.351
325.477
325.477
325.351
325.111
324.778
324.378
323.938
323.482
323.033
322.62
322.31
315.945
316.164
316.459
316.779
317.105
317.419
317.705
317.943
318.114
318.204
318.204
318.114
317.943
317.705
317.419
317.105
316.779
316.459
316.164
315.945
309.578
309.709
309.886
310.078
310.274
310.463
310.634
310.777
310.88
310.934
310.934
310.88
310.777
310.634
310.463
310.274
310.078
309.886
309.709
309.578
303.211
303.255
303.314
303.378
303.444
303.507
303.565
303.612
303.647
303.665
303.665
303.647
303.612
303.565
303.507
303.444
303.378
303.314
303.255
303.211
348.675
349.353
350.204
351.115
352.033
352.917
353.717
354.382
354.86
355.11
355.11
354.86
354.382
353.717
352.917
352.033
351.115
350.204
349.353
348.675
342.196
342.769
343.504
344.292
345.088
345.853
346.546
347.12
347.534
347.75
347.75
347.534
347.12
346.546
345.853
345.088
344.292
343.504
342.769
342.196
335.713
336.189
336.808
337.474
338.147
338.794
339.379
339.865
340.214
340.397
340.397
340.214
339.865
339.379
338.794
338.147
337.474
336.808
336.189
335.713
329.228
329.611
330.116
330.66
331.211
331.74
332.218
332.615
332.901
333.05
333.05
332.901
332.615
332.218
331.74
331.211
330.66
330.116
329.611
329.228
322.741
323.035
323.427
323.85
324.278
324.689
325.061
325.37
325.592
325.708
325.708
325.592
325.37
325.061
324.689
324.278
323.85
323.427
323.035
322.741
316.252
316.461
316.74
317.042
317.348
317.642
317.907
318.128
318.286
318.369
318.369
318.286
318.128
317.907
317.642
317.348
317.042
316.74
316.461
316.252
309.763
309.887
310.054
310.236
310.42
310.596
310.756
310.888
310.983
311.033
311.033
310.983
310.888
310.756
310.596
310.42
310.236
310.054
309.887
309.763
303.273
303.314
303.37
303.431
303.493
303.552
303.605
303.65
303.681
303.698
303.698
303.681
303.65
303.605
303.552
303.493
303.431
303.37
303.314
303.273
349.752
350.392
351.193
352.045
352.901
353.721
354.459
355.07
355.508
355.737
355.737
355.508
355.07
354.459
353.721
352.901
352.045
351.193
350.392
349.752
343.127
343.668
344.359
345.097
345.839
346.548
347.188
347.717
348.096
348.294
348.294
348.096
347.717
347.188
346.548
345.839
345.097
344.359
343.668
343.127
336.499
336.949
337.531
338.155
338.782
339.382
339.923
340.37
340.69
340.857
340.857
340.69
340.37
339.923
339.382
338.782
338.155
337.531
336.949
336.499
329.87
330.232
330.707
331.217
331.73
332.221
332.663
333.028
333.29
333.427
333.427
333.29
333.028
332.663
332.221
331.73
331.217
330.707
330.232
329.87
323.24
323.518
323.886
324.282
324.681
325.063
325.407
325.691
325.894
326.001
326.001
325.894
325.691
325.407
325.063
324.681
324.282
323.886
323.518
323.24
316.609
316.805
317.068
317.351
317.636
317.909
318.154
318.357
318.502
318.578
318.578
318.502
318.357
318.154
317.909
317.636
317.351
317.068
316.805
316.609
309.977
310.094
310.251
310.422
310.593
310.756
310.904
311.026
311.113
311.159
311.159
311.113
311.026
310.904
310.756
310.593
310.422
310.251
310.094
309.977
303.344
303.384
303.436
303.493
303.551
303.606
303.655
303.696
303.725
303.74
303.74
303.725
303.696
303.655
303.606
303.551
303.493
303.436
303.384
303.344
350.978
351.58
352.329
353.123
353.916
354.67
355.348
355.906
356.304
356.512
356.512
356.304
355.906
355.348
354.67
353.916
353.123
352.329
351.58
350.978
344.187
344.696
345.343
346.03
346.717
347.371
347.957
348.44
348.786
348.966
348.966
348.786
348.44
347.957
347.371
346.717
346.03
345.343
344.696
344.187
337.395
337.817
338.362
338.943
339.524
340.077
340.573
340.982
341.273
341.426
341.426
341.273
340.982
340.573
340.077
339.524
338.943
338.362
337.817
337.395
330.602
330.942
331.386
331.861
332.336
332.789
333.195
333.529
333.767
333.892
333.892
333.767
333.529
333.195
332.789
332.336
331.861
331.386
330.942
330.602
323.808
324.069
324.414
324.783
325.153
325.505
325.82
326.08
326.265
326.362
326.362
326.265
326.08
325.82
325.505
325.153
324.783
324.414
324.069
323.808
317.015
317.199
317.445
317.709
317.973
318.224
318.45
318.635
318.768
318.837
318.837
318.768
318.635
318.45
318.224
317.973
317.709
317.445
317.199
317.015
310.22
310.33
310.478
310.636
310.795
310.946
311.081
311.193
311.272
311.314
311.314
311.272
311.193
311.081
310.946
310.795
310.636
310.478
310.33
310.22
303.426
303.463
303.512
303.565
303.618
303.669
303.714
303.752
303.778
303.792
303.792
303.778
303.752
303.714
303.669
303.618
303.565
303.512
303.463
303.426
352.359
352.921
353.619
354.354
355.084
355.776
356.394
356.9
357.261
357.449
357.449
357.261
356.9
356.394
355.776
355.084
354.354
353.619
352.921
352.359
345.381
345.857
346.459
347.095
347.728
348.328
348.863
349.302
349.614
349.777
349.777
349.614
349.302
348.863
348.328
347.728
347.095
346.459
345.857
345.381
338.403
338.798
339.305
339.844
340.379
340.886
341.339
341.71
341.974
342.112
342.112
341.974
341.71
341.339
340.886
340.379
339.844
339.305
338.798
338.403
331.426
331.743
332.157
332.597
333.035
333.45
333.82
334.124
334.34
334.453
334.453
334.34
334.124
333.82
333.45
333.035
332.597
332.157
331.743
331.426
324.449
324.692
325.013
325.356
325.696
326.019
326.307
326.543
326.711
326.799
326.799
326.711
326.543
326.307
326.019
325.696
325.356
325.013
324.692
324.449
317.472
317.644
317.873
318.117
318.361
318.591
318.797
318.966
319.086
319.148
319.148
319.086
318.966
318.797
318.591
318.361
318.117
317.873
317.644
317.472
310.495
310.598
310.735
310.882
311.028
311.166
311.29
311.391
311.463
311.501
311.501
311.463
311.391
311.29
311.166
311.028
310.882
310.735
310.598
310.495
303.518
303.552
303.598
303.647
303.697
303.743
303.784
303.818
303.842
303.855
303.855
303.842
303.818
303.784
303.743
303.697
303.647
303.598
303.552
303.518
353.896
354.42
355.067
355.745
356.414
357.045
357.606
358.064
358.389
358.558
358.558
358.389
358.064
357.606
357.045
356.414
355.745
355.067
354.42
353.896
346.711
347.154
347.712
348.299
348.879
349.426
349.912
350.309
350.591
350.737
350.737
350.591
350.309
349.912
349.426
348.879
348.299
347.712
347.154
346.711
339.526
339.894
340.364
340.861
341.352
341.815
342.226
342.561
342.8
342.923
342.923
342.8
342.561
342.226
341.815
341.352
340.861
340.364
339.894
339.526
332.344
332.639
333.023
333.429
333.831
334.209
334.546
334.82
335.015
335.116
335.116
335.015
334.82
334.546
334.209
333.831
333.429
333.023
332.639
332.344
325.162
325.389
325.686
326.002
326.314
326.609
326.871
327.084
327.236
327.314
327.314
327.236
327.084
326.871
326.609
326.314
326.002
325.686
325.389
325.162
317.981
318.141
318.353
318.579
318.802
319.013
319.2
319.352
319.461
319.517
319.517
319.461
319.352
319.2
319.013
318.802
318.579
318.353
318.141
317.981
310.8
310.896
311.023
311.159
311.293
311.419
311.532
311.623
311.688
311.722
311.722
311.688
311.623
311.532
311.419
311.293
311.159
311.023
310.896
310.8
303.62
303.652
303.695
303.74
303.785
303.828
303.865
303.896
303.918
303.929
303.929
303.918
303.896
303.865
303.828
303.785
303.74
303.695
303.652
303.62
355.594
356.08
356.677
357.3
357.911
358.485
358.992
359.404
359.696
359.848
359.848
359.696
359.404
358.992
358.485
357.911
357.3
356.677
356.08
355.594
348.179
348.59
349.105
349.645
350.175
350.672
351.111
351.469
351.722
351.853
351.853
351.722
351.469
351.111
350.672
350.175
349.645
349.105
348.59
348.179
340.767
341.108
341.542
341.998
342.447
342.867
343.239
343.542
343.756
343.867
343.867
343.756
343.542
343.239
342.867
342.447
341.998
341.542
341.108
340.767
333.357
333.631
333.985
334.358
334.726
335.07
335.374
335.621
335.797
335.887
335.887
335.797
335.621
335.374
335.07
334.726
334.358
333.985
333.631
333.357
325.949
326.16
326.434
326.724
327.01
327.278
327.515
327.707
327.843
327.914
327.914
327.843
327.707
327.515
327.278
327.01
326.724
326.434
326.16
325.949
318.543
318.692
318.888
319.095
319.299
319.49
319.66
319.797
319.894
319.945
319.945
319.894
319.797
319.66
319.49
319.299
319.095
318.888
318.692
318.543
311.138
311.227
311.344
311.469
311.591
311.706
311.808
311.89
311.949
311.979
311.979
311.949
311.89
311.808
311.706
311.591
311.469
311.344
311.227
311.138
303.733
303.763
303.802
303.844
303.885
303.924
303.958
303.986
304.005
304.015
304.015
304.005
303.986
303.958
303.924
303.885
303.844
303.802
303.763
303.733
357.453
357.902
358.452
359.022
359.579
360.099
360.556
360.926
361.187
361.323
361.323
361.187
360.926
360.556
360.099
359.579
359.022
358.452
357.902
357.453
349.787
350.167
350.641
351.135
351.618
352.068
352.465
352.785
353.012
353.129
353.129
353.012
352.785
352.465
352.068
351.618
351.135
350.641
350.167
349.787
342.124
342.44
342.84
343.257
343.666
344.047
344.383
344.654
344.846
344.945
344.945
344.846
344.654
344.383
344.047
343.666
343.257
342.84
342.44
342.124
334.466
334.72
335.046
335.387
335.722
336.034
336.308
336.531
336.688
336.769
336.769
336.688
336.531
336.308
336.034
335.722
335.387
335.046
334.72
334.466
326.811
327.006
327.259
327.524
327.785
328.027
328.241
328.414
328.536
328.599
328.599
328.536
328.414
328.241
328.027
327.785
327.524
327.259
327.006
326.811
319.158
319.296
319.476
319.666
319.852
320.026
320.178
320.302
320.389
320.434
320.434
320.389
320.302
320.178
320.026
319.852
319.666
319.476
319.296
319.158
311.507
311.589
311.698
311.811
311.923
312.027
312.119
312.193
312.246
312.273
312.273
312.246
312.193
312.119
312.027
311.923
311.811
311.698
311.589
311.507
303.857
303.885
303.921
303.959
303.997
304.032
304.062
304.087
304.105
304.114
304.114
304.105
304.087
304.062
304.032
303.997
303.959
303.921
303.885
303.857
359.472
359.886
360.391
360.912
361.418
361.887
362.298
362.63
362.864
362.984
362.984
362.864
362.63
362.298
361.887
361.418
360.912
360.391
359.886
359.472
351.532
351.883
352.318
352.769
353.208
353.615
353.972
354.259
354.462
354.566
354.566
354.462
354.259
353.972
353.615
353.208
352.769
352.318
351.883
351.532
343.599
343.889
344.256
344.638
345.009
345.354
345.656
345.899
346.07
346.159
346.159
346.07
345.899
345.656
345.354
345.009
344.638
344.256
343.889
343.599
335.67
335.904
336.204
336.516
336.82
337.102
337.349
337.548
337.688
337.761
337.761
337.688
337.548
337.349
337.102
336.82
336.516
336.204
335.904
335.67
327.746
327.926
328.158
328.401
328.637
328.857
329.049
329.204
329.313
329.37
329.37
329.313
329.204
329.049
328.857
328.637
328.401
328.158
327.926
327.746
319.826
319.953
320.119
320.292
320.461
320.618
320.755
320.866
320.944
320.984
320.984
320.944
320.866
320.755
320.618
320.461
320.292
320.119
319.953
319.826
311.908
311.984
312.083
312.187
312.289
312.383
312.466
312.532
312.579
312.603
312.603
312.579
312.532
312.466
312.383
312.289
312.187
312.083
311.984
311.908
303.992
304.017
304.05
304.085
304.119
304.151
304.178
304.201
304.216
304.224
304.224
304.216
304.201
304.178
304.151
304.119
304.085
304.05
304.017
303.992
361.644
362.025
362.487
362.962
363.421
363.845
364.214
364.511
364.719
364.827
364.827
364.719
364.511
364.214
363.845
363.421
362.962
362.487
362.025
361.644
353.408
353.731
354.13
354.541
354.939
355.307
355.627
355.885
356.065
356.158
356.158
356.065
355.885
355.627
355.307
354.939
354.541
354.13
353.731
353.408
345.182
345.449
345.786
346.134
346.471
346.782
347.053
347.271
347.424
347.503
347.503
347.424
347.271
347.053
346.782
346.471
346.134
345.786
345.449
345.182
336.963
337.178
337.452
337.737
338.013
338.268
338.49
338.668
338.793
338.858
338.858
338.793
338.668
338.49
338.268
338.013
337.737
337.452
337.178
336.963
328.75
328.915
329.128
329.349
329.564
329.762
329.935
330.074
330.171
330.222
330.222
330.171
330.074
329.935
329.762
329.564
329.349
329.128
328.915
328.75
320.542
320.659
320.811
320.969
321.122
321.264
321.388
321.487
321.556
321.592
321.592
321.556
321.487
321.388
321.264
321.122
320.969
320.811
320.659
320.542
312.338
312.407
312.499
312.593
312.686
312.771
312.845
312.905
312.946
312.968
312.968
312.946
312.905
312.845
312.771
312.686
312.593
312.499
312.407
312.338
304.136
304.159
304.189
304.221
304.252
304.281
304.305
304.325
304.339
304.347
304.347
304.339
304.325
304.305
304.281
304.252
304.221
304.189
304.159
304.136
363.946
364.296
364.72
365.152
365.568
365.95
366.282
366.548
366.733
366.829
366.829
366.733
366.548
366.282
365.95
365.568
365.152
364.72
364.296
363.946
355.394
355.69
356.056
356.43
356.791
357.123
357.411
357.641
357.803
357.886
357.886
357.803
357.641
357.411
357.123
356.791
356.43
356.056
355.69
355.394
346.855
347.101
347.409
347.726
348.031
348.312
348.556
348.751
348.888
348.958
348.958
348.888
348.751
348.556
348.312
348.031
347.726
347.409
347.101
346.855
338.326
338.524
338.776
339.035
339.285
339.515
339.715
339.875
339.986
340.044
340.044
339.986
339.875
339.715
339.515
339.285
339.035
338.776
338.524
338.326
329.808
329.959
330.154
330.356
330.551
330.73
330.885
331.01
331.097
331.142
331.142
331.097
331.01
330.885
330.73
330.551
330.356
330.154
329.959
329.808
321.296
321.403
321.543
321.687
321.826
321.954
322.065
322.154
322.216
322.248
322.248
322.216
322.154
322.065
321.954
321.826
321.687
321.543
321.403
321.296
312.79
312.854
312.937
313.024
313.108
313.185
313.251
313.305
313.342
313.361
313.361
313.342
313.305
313.251
313.185
313.108
313.024
312.937
312.854
312.79
304.287
304.308
304.336
304.365
304.393
304.419
304.442
304.459
304.472
304.478
304.478
304.472
304.459
304.442
304.419
304.393
304.365
304.336
304.308
304.287
366.318
366.641
367.029
367.423
367.801
368.147
368.445
368.684
368.85
368.936
368.936
368.85
368.684
368.445
368.147
367.801
367.423
367.029
366.641
366.318
357.431
357.704
358.039
358.381
358.709
359.009
359.268
359.475
359.619
359.694
359.694
359.619
359.475
359.268
359.009
358.709
358.381
358.039
357.704
357.431
348.564
348.79
349.073
349.362
349.64
349.894
350.114
350.289
350.412
350.475
350.475
350.412
350.289
350.114
349.894
349.64
349.362
349.073
348.79
348.564
339.715
339.897
340.128
340.365
340.592
340.8
340.98
341.124
341.224
341.276
341.276
341.224
341.124
340.98
340.8
340.592
340.365
340.128
339.897
339.715
330.881
331.021
331.2
331.384
331.562
331.724
331.864
331.976
332.054
332.094
332.094
332.054
331.976
331.864
331.724
331.562
331.384
331.2
331.021
330.881
322.06
322.159
322.286
322.418
322.545
322.661
322.761
322.841
322.897
322.926
322.926
322.897
322.841
322.761
322.661
322.545
322.418
322.286
322.159
322.06
313.247
313.306
313.383
313.462
313.538
313.608
313.668
313.716
313.75
313.767
313.767
313.75
313.716
313.668
313.608
313.538
313.462
313.383
313.306
313.247
304.44
304.46
304.485
304.512
304.537
304.561
304.581
304.597
304.608
304.614
304.614
304.608
304.597
304.581
304.561
304.537
304.512
304.485
304.46
304.44
368.61
368.908
369.265
369.628
369.973
370.288
370.56
370.775
370.926
371.003
371.003
370.926
370.775
370.56
370.288
369.973
369.628
369.265
368.908
368.61
359.374
359.626
359.936
360.25
360.551
360.824
361.06
361.248
361.379
361.446
361.446
361.379
361.248
361.06
360.824
360.551
360.25
359.936
359.626
359.374
350.176
350.386
350.647
350.914
351.169
351.401
351.601
351.76
351.871
351.928
351.928
351.871
351.76
351.601
351.401
351.169
350.914
350.647
350.386
350.176
341.013
341.181
341.395
341.613
341.822
342.013
342.177
342.307
342.398
342.445
342.445
342.398
342.307
342.177
342.013
341.822
341.613
341.395
341.181
341.013
331.877
332.007
332.172
332.343
332.506
332.654
332.782
332.884
332.955
332.991
332.991
332.955
332.884
332.782
332.654
332.506
332.343
332.172
332.007
331.877
322.764
322.856
322.974
323.096
323.212
323.319
323.41
323.483
323.534
323.56
323.56
323.534
323.483
323.41
323.319
323.212
323.096
322.974
322.856
322.764
313.667
313.722
313.793
313.866
313.936
314
314.055
314.099
314.13
314.145
314.145
314.13
314.099
314.055
314
313.936
313.866
313.793
313.722
313.667
304.58
304.599
304.622
304.647
304.67
304.692
304.71
304.725
304.735
304.741
304.741
304.735
304.725
304.71
304.692
304.67
304.647
304.622
304.599
304.58
370.413
370.694
371.03
371.37
371.693
371.987
372.239
372.44
372.579
372.651
372.651
372.579
372.44
372.239
371.987
371.693
371.37
371.03
370.694
370.413
360.845
361.083
361.375
361.671
361.953
362.209
362.43
362.604
362.726
362.788
362.788
362.726
362.604
362.43
362.209
361.953
361.671
361.375
361.083
360.845
351.36
351.558
351.805
352.056
352.296
352.514
352.702
352.85
352.954
353.007
353.007
352.954
352.85
352.702
352.514
352.296
352.056
351.805
351.558
351.36
341.941
342.101
342.303
342.51
342.707
342.886
343.04
343.162
343.247
343.291
343.291
343.247
343.162
343.04
342.886
342.707
342.51
342.303
342.101
341.941
332.576
332.699
332.857
333.018
333.171
333.311
333.432
333.527
333.593
333.627
333.627
333.593
333.527
333.432
333.311
333.171
333.018
332.857
332.699
332.576
323.252
323.339
323.451
323.567
323.677
323.777
323.863
323.932
323.979
324.004
324.004
323.979
323.932
323.863
323.777
323.677
323.567
323.451
323.339
323.252
313.956
314.008
314.075
314.144
314.211
314.271
314.323
314.364
314.393
314.407
314.407
314.393
314.364
314.323
314.271
314.211
314.144
314.075
314.008
313.956
304.676
304.694
304.716
304.739
304.762
304.782
304.799
304.813
304.823
304.828
304.828
304.823
304.813
304.799
304.782
304.762
304.739
304.716
304.694
304.676
)
;

boundaryField
{
    hotSide
    {
        type            fixedGradient;
        gradient        nonuniform List<scalar> 
400
(
478.137
479.526
482.312
486.514
492.155
499.267
507.887
518.051
529.802
543.178
558.22
574.963
593.442
613.687
635.724
659.576
685.262
712.797
742.194
773.461
489.172
490.473
493.088
497.04
502.361
509.094
517.285
526.984
538.244
551.115
565.647
581.885
599.869
619.635
641.214
664.631
689.908
717.061
746.102
777.04
501.114
502.311
504.721
508.376
513.319
519.605
527.295
536.454
547.148
559.442
573.395
589.064
606.495
625.732
646.809
669.754
694.59
721.335
749.999
780.591
513.765
514.841
517.014
520.325
524.831
530.604
537.723
546.27
556.329
567.978
581.293
596.337
613.17
631.837
652.378
674.825
699.199
725.518
753.794
784.032
526.772
527.711
529.618
532.544
536.564
541.769
548.259
556.137
565.507
576.464
589.097
603.484
619.688
637.764
657.755
679.692
703.599
729.492
757.38
787.268
539.593
540.386
542.007
544.523
548.028
552.634
558.465
565.647
574.306
584.554
596.496
610.219
625.797
643.288
662.738
684.18
707.636
733.12
760.639
790.195
551.493
552.14
553.477
555.585
558.58
562.596
567.782
574.289
582.261
591.831
603.116
616.214
631.207
648.155
667.107
688.095
711.141
736.257
763.446
792.706
561.593
562.108
563.189
564.932
567.47
570.961
575.576
581.488
588.859
597.84
608.557
621.12
635.613
652.102
670.636
691.245
713.951
738.761
765.679
794.698
568.984
569.398
570.283
571.747
573.937
577.03
581.214
586.679
593.601
602.143
612.441
624.609
638.736
654.891
673.12
693.457
715.917
740.51
767.234
796.082
572.901
573.26
574.038
575.35
577.352
580.229
584.18
589.403
596.085
604.391
614.465
626.424
640.358
656.335
674.405
694.598
716.93
741.409
768.032
796.791
572.901
573.26
574.038
575.35
577.352
580.229
584.18
589.403
596.085
604.391
614.465
626.424
640.358
656.335
674.405
694.598
716.93
741.409
768.032
796.791
568.984
569.398
570.283
571.747
573.937
577.03
581.214
586.679
593.601
602.143
612.441
624.609
638.736
654.891
673.12
693.457
715.917
740.51
767.234
796.082
561.593
562.108
563.189
564.932
567.47
570.961
575.576
581.488
588.859
597.84
608.557
621.12
635.613
652.102
670.636
691.245
713.951
738.761
765.679
794.698
551.493
552.14
553.477
555.585
558.58
562.596
567.782
574.289
582.261
591.831
603.116
616.214
631.207
648.155
667.107
688.095
711.141
736.257
763.446
792.706
539.593
540.386
542.007
544.523
548.028
552.634
558.465
565.647
574.306
584.554
596.496
610.219
625.797
643.288
662.738
684.18
707.636
733.12
760.639
790.195
526.772
527.711
529.618
532.544
536.564
541.769
548.259
556.137
565.507
576.464
589.097
603.484
619.688
637.764
657.755
679.692
703.599
729.492
757.38
787.268
513.765
514.841
517.014
520.325
524.831
530.604
537.723
546.27
556.329
567.978
581.293
596.337
613.17
631.837
652.378
674.825
699.199
725.518
753.794
784.032
501.114
502.311
504.721
508.376
513.319
519.605
527.295
536.454
547.148
559.442
573.395
589.064
606.495
625.732
646.809
669.754
694.59
721.335
749.999
780.591
489.172
490.473
493.088
497.04
502.361
509.094
517.285
526.984
538.244
551.115
565.647
581.885
599.869
619.635
641.214
664.631
689.908
717.061
746.102
777.04
478.137
479.526
482.312
486.514
492.155
499.267
507.887
518.051
529.802
543.178
558.22
574.963
593.442
613.687
635.724
659.576
685.262
712.797
742.194
773.461
)
;
    }
    coldSide
    {
        type            mixed;
        refValue        uniform 300;
        refGradient     uniform 0;
        valueFraction   uniform 0.991591;
        source          uniform 0;
        value           nonuniform List<scalar> 
400
(
300.025
300.026
300.026
300.026
300.026
300.027
300.027
300.028
300.028
300.029
300.03
300.03
300.031
300.032
300.034
300.035
300.036
300.037
300.039
300.039
300.026
300.026
300.026
300.026
300.027
300.027
300.027
300.028
300.028
300.029
300.03
300.031
300.032