/*--------------------------------*- C++ -*----------------------------------*\
| =========                 |                                                 |
| \\      /  F ield         | OpenFOAM: The Open Source CFD Toolbox           |
|  \\    /   O peration     | Version:  2212                                  |
|   \\  /    A nd           | Website:  www.openfoam.com                      |
|    \\/     M anipulation  |                                                 |
\*---------------------------------------------------------------------------*/
FoamFile
{
    version     2.0;
    format      ascii;
    arch        "LSB;label=32;scalar=64";
    class       volScalarField;
    location    "0";
    object      T;
}
// * * * * * * * * * * * * * * * * * * * * * * * * * * * * * * * * * * * * * //

dimensions      [0 0 0 1 0 0 0];

internalField   nonuniform List<scalar> 
3200
(
337.295
336.489
335.778
335.849
336.407
337.268
338.33
339.34
340.293
340.897
341.495
341.752
341.661
341.495
341.234
340.984
340.975
341.407
342.168
343.487
332.274
331.635
331.032
331.095
331.581
332.304
333.242
334.117
334.932
335.463
335.956
336.197
336.111
335.952
335.711
335.504
335.523
335.888
336.53
337.61
327.282
326.758
326.27
326.35
326.721
327.365
328.112
328.899
329.578
330.026
330.447
330.646
330.566
330.398
330.202
330.056
330.055
330.364
330.877
331.762
322.3
321.883
321.513
321.569
321.86
322.407
323.016
323.677
324.208
324.569
324.927
325.087
325.015
324.865
324.695
324.615
324.579
324.819
325.245
325.93
317.322
316.994
316.763
316.781
317.007
317.427
317.914
318.442
318.828
319.114
319.38
319.513
319.455
319.338
319.202
319.163
319.109
319.284
319.615
320.14
312.344
312.12
311.983
312.019
312.143
312.464
312.792
313.187
313.46
313.655
313.834
313.942
313.908
313.815
313.705
313.702
313.64
313.779
314.008
314.384
307.389
307.285
307.189
307.234
307.289
307.483
307.694
307.92
308.087
308.187
308.328
308.356
308.35
308.296
308.221
308.236
308.204
308.279
308.407
308.647
302.472
302.434
302.416
302.427
302.439
302.509
302.579
302.654
302.717
302.738
302.795
302.8
302.794
302.784
302.753
302.762
302.748
302.766
302.819
302.902
337.662
336.696
336.069
336.156
336.669
337.589
338.724
339.763
340.607
341.343
341.981
342.313
342.18
341.985
341.64
341.416
341.318
341.733
342.307
343.532
332.608
331.864
331.28
331.372
331.81
332.607
333.589
334.461
335.18
335.834
336.378
336.679
336.566
336.374
336.075
335.867
335.813
336.191
336.619
337.649
327.561
326.976
326.525
326.583
326.933
327.63
328.431
329.174
329.771
330.347
330.791
331.041
330.93
330.744
330.524
330.349
330.3
330.601
330.938
331.801
322.542
322.095
321.741
321.781
322.027
322.618
323.268
323.877
324.374
324.842
325.203
325.406
325.309
325.133
324.96
324.835
324.811
325.009
325.27
325.955
317.515
317.184
316.942
316.951
317.139
317.596
318.096
318.599
318.99
319.322
319.611
319.777
319.703
319.557
319.403
319.321
319.315
319.42
319.62
320.15
312.503
312.284
312.133
312.101
312.243
312.582
312.95
313.291
313.599
313.798
314.026
314.135
314.105
313.962
313.861
313.811
313.813
313.852
314.008
314.39
307.495
307.373
307.288
307.258
307.35
307.572
307.779
307.98
308.186
308.3
308.449
308.5
308.483
308.387
308.344
308.286
308.295
308.311
308.414
308.625
302.508
302.466
302.446
302.44
302.466
302.535
302.608
302.667
302.742
302.781
302.84
302.86
302.842
302.818
302.797
302.774
302.787
302.777
302.815
302.893
338.231
337.191
336.506
336.6
337.143
338.129
339.362
340.332
341.316
342.228
342.712
343.016
342.962
342.55
342.278
342.09
341.769
342.14
342.819
343.75
333.098
332.261
331.66
331.744
332.198
333.062
334.103
334.956
335.805
336.577
337.01
337.283
337.214
336.869
336.653
336.464
336.193
336.52
337.074
337.839
327.962
327.307
326.812
326.865
327.253
327.989
328.849
329.584
330.302
330.948
331.302
331.554
331.454
331.217
331.015
330.832
330.611
330.913
331.344
331.983
322.871
322.357
321.945
321.981
322.301
322.899
323.615
324.198
324.803
325.329
325.604
325.809
325.717
325.539
325.373
325.194
325.063
325.318
325.621
326.127
317.772
317.414
317.091
317.117
317.353
317.816
318.387
318.824
319.33
319.707
319.903
320.089
319.988
319.883
319.717
319.563
319.478
319.697
319.906
320.318
312.689
312.459
312.225
312.226
312.41
312.735
313.146
313.444
313.832
314.084
314.248
314.372
314.284
314.209
314.097
313.962
313.926
314.083
314.207
314.528
307.621
307.483
307.354
307.339
307.453
307.65
307.9
308.061
308.301
308.462
308.566
308.643
308.58
308.546
308.449
308.38
308.361
308.455
308.518
308.733
302.548
302.51
302.46
302.457
302.494
302.559
302.654
302.709
302.781
302.841
302.865
302.898
302.881
302.868
302.828
302.812
302.808
302.837
302.856
302.937
338.696
337.86
337.332
337.303
337.877
338.861
339.991
341.096
342.214
343.142
343.785
343.995
343.869
343.435
343.063
342.67
342.487
342.817
343.384
344.403
333.544
332.85
332.4
332.36
332.843
333.676
334.661
335.601
336.568
337.376
337.943
338.114
338.035
337.624
337.308
336.963
336.822
337.106
337.561
338.412
328.399
327.838
327.433
327.404
327.78
328.506
329.343
330.108
330.943
331.609
332.107
332.257
332.186
331.821
331.552
331.246
331.146
331.398
331.764
332.456
323.248
322.818
322.448
322.423
322.714
323.344
324.012
324.63
325.329
325.847
326.255
326.407
326.297
326.047
325.811
325.562
325.489
325.698
325.979
326.519
318.089
317.765
317.473
317.437
317.666
318.174
318.685
319.159
319.705
320.096
320.433
320.554
320.428
320.291
320.075
319.875
319.841
319.982
320.21
320.602
312.917
312.695
312.5
312.45
312.625
312.995
313.367
313.684
314.073
314.34
314.608
314.692
314.579
314.508
314.344
314.208
314.176
314.256
314.431
314.729
307.739
307.612
307.505
307.481
307.585
307.828
308.005
308.216
308.457
308.614
308.774
308.828
308.745
308.708
308.61
308.537
308.514
308.553
308.679
308.846
302.591
302.538
302.519
302.508
302.545
302.629
302.682
302.756
302.831
302.883
302.938
302.957
302.927
302.912
302.88
302.854
302.861
302.874
302.912
302.968
339.542
338.829
338.301
338.348
338.954
339.838
341.049
342.199
343.279
344.208
344.87
345.146
344.968
344.39
343.987
343.671
343.389
343.532
344.167
345.219
334.272
333.675
333.235
333.265
333.757
334.515
335.58
336.562
337.483
338.291
338.843
339.111
338.944
338.433
338.113
337.838
337.572
337.725
338.242
339.13
329.006
328.509
328.157
328.168
328.577
329.194
330.103
330.925
331.713
332.376
332.817
333.068
332.932
332.478
332.226
331.998
331.757
331.925
332.347
333.091
323.743
323.336
323.052
323.046
323.404
323.893
324.611
325.308
325.941
326.462
326.813
327.044
326.92
326.566
326.346
326.174
325.97
326.139
326.462
327.05
318.479
318.162
317.937
317.933
318.225
318.587
319.156
319.681
320.171
320.556
320.813
321.018
320.918
320.668
320.501
320.333
320.196
320.345
320.574
321.04
313.221
312.979
312.83
312.812
313.032
313.284
313.686
314.075
314.417
314.668
314.858
315.009
314.939
314.75
314.63
314.528
314.419
314.543
314.695
315.04
307.957
307.8
307.693
307.694
307.841
307.981
308.225
308.45
308.666
308.796
308.939
309.022
308.959
308.845
308.789
308.729
308.664
308.737
308.828
309.028
302.661
302.612
302.569
302.585
302.622
302.673
302.756
302.834
302.904
302.949
303.006
303.019
302.995
302.969
302.945
302.924
302.9
302.936
302.964
303.029
340.671
339.768
339.443
339.46
340.239
341.045
342.217
343.264
344.463
345.306
346.006
346.291
346.216
345.593
345.152
344.701
344.496
344.646
345.23
346.196
335.208
334.478
334.208
334.214
334.895
335.587
336.58
337.471
338.507
339.234
339.844
340.095
340.019
339.464
339.113
338.716
338.555
338.659
339.192
339.971
329.779
329.201
328.978
328.963
329.538
330.105
330.932
331.714
332.549
333.18
333.681
333.92
333.835
333.344
333.086
332.728
332.595
332.69
333.146
333.783
324.375
323.919
323.725
323.712
324.189
324.622
325.297
325.959
326.619
327.127
327.542
327.756
327.677
327.254
327.059
326.757
326.642
326.753
327.118
327.635
318.99
318.62
318.458
318.45
318.829
319.143
319.675
320.206
320.719
321.083
321.42
321.572
321.526
321.183
321.038
320.784
320.73
320.818
321.094
321.483
313.583
313.299
313.19
313.166
313.462
313.679
314.058
314.431
314.811
315.062
315.299
315.396
315.374
315.132
315.029
314.831
314.823
314.876
315.07
315.352
308.143
307.984
307.922
307.896
308.087
308.215
308.437
308.671
308.873
309.057
309.18
309.232
309.21
309.09
309.037
308.905
308.916
308.935
309.049
309.23
302.716
302.665
302.658
302.647
302.711
302.749
302.831
302.908
302.977
303.042
303.078
303.094
303.084
303.052
303.03
302.973
302.988
302.985
303.033
303.091
341.935
341.121
340.682
340.864
341.517
342.31
343.351
344.534
345.773
346.62
347.322
347.62
347.491
346.906
346.437
345.888
345.648
345.82
346.341
347.372
336.334
335.655
335.302
335.439
336.002
336.651
337.564
338.596
339.619
340.386
340.982
341.255
341.143
340.594
340.224
339.742
339.54
339.709
340.126
340.991
330.741
330.198
329.91
329.996
330.492
331.005
331.756
332.649
333.498
334.137
334.668
334.898
334.814
334.281
334.028
333.593
333.44
333.609
333.917
334.638
325.156
324.738
324.533
324.57
324.973
325.367
325.961
326.707
327.386
327.92
328.36
328.544
328.467
328.006
327.84
327.464
327.368
327.488
327.726
328.321
319.554
319.265
319.105
319.137
319.433
319.751
320.181
320.766
321.297
321.712
322.05
322.188
322.129
321.756
321.643
321.349
321.308
321.362
321.561
322.019
313.966
313.773
313.668
313.689
313.877
314.137
314.427
314.835
315.21
315.513
315.742
315.841
315.767
315.517
315.453
315.258
315.239
315.281
315.394
315.737
308.379
308.284
308.208
308.227
308.326
308.496
308.661
308.91
309.114
309.297
309.44
309.516
309.458
309.312
309.286
309.172
309.16
309.181
309.237
309.451
302.8
302.777
302.744
302.763
302.78
302.849
302.907
302.991
303.054
303.122
303.155
303.186
303.176
303.115
303.114
303.071
303.078
303.075
303.095
303.163
343.438
342.612
342.219
342.292
342.812
343.69
344.645
345.909
347.037
348.003
348.63
348.9
348.733
348.176
347.617
347.139
346.918
347.074
347.678
348.526
337.62
336.935
336.62
336.683
337.115
337.877
338.681
339.787
340.734
341.572
342.12
342.355
342.219
341.707
341.25
340.84
340.659
340.787
341.291
342
331.815
331.263
331.034
331.043
331.422
332.062
332.704
333.656
334.442
335.159
335.622
335.834
335.704
335.273
334.883
334.54
334.392
334.521
334.918
335.495
326.029
325.6
325.421
325.414
325.74
326.247
326.722
327.521
328.161
328.751
329.118
329.331
329.205
328.863
328.523
328.264
328.122
328.23
328.536
328.992
320.26
319.908
319.806
319.79
320.03
320.423
320.762
321.394
321.897
322.349
322.651
322.829
322.739
322.434
322.166
321.985
321.857
321.97
322.185
322.51
314.493
314.21
314.172
314.161
314.312
314.584
314.832
315.288
315.642
315.952
316.192
316.31
316.255
315.998
315.832
315.698
315.615
315.711
315.84
316.092
308.689
308.546
308.531
308.505
308.594
308.747
308.903
309.196
309.398
309.593
309.742
309.803
309.767
309.6
309.503
309.427
309.373
309.427
309.494
309.686
302.904
302.86
302.854
302.85
302.868
302.937
302.978
303.088
303.149
303.212
303.261
303.276
303.268
303.228
303.186
303.162
303.141
303.152
303.183
303.245
344.857
344.127
343.705
343.807
344.181
344.985
345.997
347.089
348.291
349.291
349.926
350.07
350.008
349.434
348.878
348.422
348.253
348.305
348.915
349.715
338.861
338.244
337.885
337.978
338.306
338.978
339.83
340.808
341.827
342.693
343.218
343.374
343.329
342.807
342.332
341.935
341.793
341.825
342.348
343.036
332.877
332.354
332.066
332.146
332.407
332.984
333.685
334.526
335.369
336.089
336.558
336.685
336.645
336.214
335.801
335.46
335.354
335.368
335.792
336.373
326.866
326.455
326.23
326.316
326.516
326.984
327.558
328.264
328.949
329.524
329.905
330.022
329.97
329.645
329.275
328.988
328.921
328.922
329.255
329.719
320.867
320.583
320.4
320.468
320.641
320.979
321.44
321.98
322.523
322.956
323.277
323.375
323.308
323.066
322.752
322.534
322.48
322.491
322.753
323.091
314.887
314.694
314.58
314.618
314.757
314.996
315.314
315.699
316.11
316.405
316.654
316.737
316.661
316.468
316.249
316.098
316.064
316.075
316.239
316.481
308.952
308.818
308.745
308.754
308.876
309.001
309.194
309.431
309.682
309.853
310.002
310.058
309.998
309.879
309.757
309.678
309.638
309.643
309.751
309.902
303
302.958
302.933
302.937
302.982
303.007
303.08
303.16
303.257
303.297
303.353
303.373
303.352
303.308
303.266
303.241
303.224
303.232
303.271
303.32
346.414
345.699
345.244
345.364
345.688
346.364
347.427
348.487
349.628
350.628
351.236
351.337
351.268
350.816
350.151
349.763
349.542
349.634
350.287
351.039
340.2
339.612
339.214
339.305
339.589
340.172
341.091
341.987
342.977
343.828
344.386
344.459
344.379
344.02
343.443
343.105
342.916
342.961
343.545
344.162
334.011
333.512
333.191
333.244
333.504
334.001
334.746
335.516
336.349
337.033
337.553
337.609
337.516
337.211
336.747
336.458
336.305
336.334
336.806
337.324
327.81
327.422
327.152
327.194
327.416
327.839
328.382
329.029
329.743
330.279
330.725
330.775
330.697
330.429
330.061
329.832
329.689
329.719
330.091
330.51
321.609
321.333
321.126
321.155
321.347
321.671
322.059
322.555
323.163
323.527
323.91
323.938
323.884
323.657
323.39
323.206
323.068
323.129
323.378
323.73
315.426
315.256
315.075
315.109
315.27
315.488
315.766
316.107
316.59
316.801
317.069
317.112
317.074
316.884
316.707
316.587
316.462
316.536
316.683
316.961
309.259
309.176
309.057
309.063
309.157
309.304
309.479
309.665
309.977
310.086
310.262
310.286
310.249
310.12
310.021
309.965
309.894
309.946
310.015
310.186
303.104
303.073
303.048
303.029
303.071
303.125
303.185
303.234
303.345
303.381
303.446
303.449
303.431
303.39
303.354
303.339
303.325
303.328
303.357
303.421
348.01
347.268
346.904
347.008
347.296
347.94
348.727
349.735
350.917
351.747
352.402
352.566
352.394
352.047
351.334
351.049
350.918
351.032
351.602
352.456
341.565
340.954
340.656
340.735
340.974
341.54
342.213
343.078
344.102
344.807
345.401
345.5
345.36
345.065
344.447
344.195
344.076
344.199
344.692
345.401
335.136
334.631
334.398
334.458
334.667
335.151
335.701
336.442
337.259
337.873
338.402
338.465
338.37
338.101
337.564
337.373
337.287
337.388
337.8
338.38
328.758
328.313
328.144
328.19
328.365
328.768
329.217
329.821
330.45
330.945
331.402
331.453
331.378
331.18
330.721
330.566
330.486
330.567
330.893
331.391
322.364
322.009
321.903
321.917
322.055
322.369
322.749
323.183
323.675
324.047
324.436
324.471
324.407
324.255
323.895
323.767
323.692
323.759
324.017
324.398
315.989
315.728
315.645
315.635
315.776
315.963
316.278
316.554
316.911
317.192
317.474
317.492
317.448
317.346
317.08
316.985
316.921
316.975
317.157
317.413
309.609
309.439
309.393
309.383
309.476
309.577
309.781
309.941
310.17
310.322
310.502
310.509
310.476
310.404
310.258
310.193
310.163
310.209
310.312
310.449
303.215
303.169
303.152
303.14
303.182
303.209
303.281
303.326
303.415
303.459
303.527
303.526
303.514
303.482
303.442
303.414
303.409
303.422
303.451
303.504
349.511
348.872
348.455
348.457
348.836
349.443
350.115
351.036
352.104
352.825
353.467
353.772
353.657
353.255
352.679
352.305
352.28
352.497
353.093
353.746
342.861
342.345
341.961
341.963
342.308
342.841
343.414
344.187
345.114
345.755
346.321
346.561
346.485
346.143
345.598
345.275
345.294
345.468
346.003
346.519
336.254
335.817
335.503
335.475
335.793
336.228
336.73
337.378
338.142
338.682
339.205
339.372
339.315
339.049
338.555
338.269
338.298
338.44
338.884
339.3
329.648
329.289
329.061
329.033
329.296
329.613
330.065
330.561
331.207
331.599
332.082
332.188
332.177
331.939
331.518
331.292
331.334
331.443
331.799
332.115
323.055
322.771
322.61
322.61
322.781
323.014
323.384
323.739
324.281
324.546
324.958
325.04
325.055
324.842
324.493
324.337
324.357
324.452
324.71
324.949
316.472
316.263
316.128
316.159
316.278
316.428
316.715
316.939
317.357
317.533
317.835
317.864
317.919
317.758
317.473
317.391
317.407
317.467
317.636
317.813
309.893
309.769
309.68
309.712
309.779
309.856
310.053
310.16
310.431
310.535
310.737
310.738
310.78
310.654
310.485
310.454
310.447
310.492
310.578
310.681
303.318
303.267
303.244
303.26
303.28
303.304
303.36
303.404
303.5
303.529
303.601
303.597
303.625
303.575
303.509
303.51
303.505
303.515
303.541
303.571
351.093
350.658
350.119
349.981
350.315
350.926
351.468
352.333
353.345
353.949
354.49
354.825
354.697
354.374
353.977
353.724
353.666
353.936
354.429
355.115
344.256
343.909
343.419
343.306
343.634
344.121
344.591
345.323
346.197
346.719
347.207
347.482
347.385
347.105
346.769
346.532
346.501
346.712
347.148
347.708
337.445
337.16
336.722
336.655
336.947
337.331
337.712
338.334
339.068
339.498
339.923
340.161
340.087
339.824
339.57
339.333
339.338
339.501
339.872
340.325
330.647
330.39
330.031
329.985
330.278
330.537
330.834
331.344
331.946
332.309
332.639
332.859
332.809
332.537
332.384
332.171
332.184
332.302
332.612
332.959
323.851
323.634
323.351
323.325
323.583
323.751
323.969
324.354
324.844
325.12
325.374
325.568
325.536
325.287
325.19
325.01
325.022
325.117
325.343
325.604
317.047
316.871
316.676
316.655
316.862
316.989
317.144
317.377
317.779
317.952
318.124
318.26
318.238
318.057
317.997
317.867
317.87
317.96
318.08
318.271
310.244
310.127
310.007
310.011
310.141
310.214
310.306
310.411
310.677
310.781
310.888
310.959
310.958
310.844
310.798
310.73
310.743
310.805
310.854
310.966
303.432
303.395
303.359
303.361
303.394
303.423
303.454
303.484
303.573
303.612
303.651
303.671
303.671
303.646
303.611
303.59
303.595
303.632
303.646
303.677
352.756
352.42
351.707
351.591
351.847
352.437
352.949
353.745
354.54
355.135
355.529
355.912
355.677
355.459
355.245
354.896
354.93
355.053
355.701
356.343
345.67
345.406
344.805
344.708
344.927
345.431
345.877
346.572
347.241
347.748
348.109
348.421
348.225
348.034
347.872
347.536
347.562
347.701
348.248
348.754
338.619
338.404
337.9
337.824
338.013
338.424
338.791
339.402
339.961
340.39
340.71
340.957
340.761
340.625
340.5
340.203
340.214
340.364
340.79
341.221
331.585
331.406
331.012
330.942
331.11
331.407
331.711
332.23
332.713
333.053
333.321
333.492
333.325
333.193
333.129
332.9
332.883
333.018
333.349
333.709
324.573
324.413
324.15
324.087
324.199
324.413
324.663
325.046
325.443
325.706
325.907
326.059
325.88
325.819
325.76
325.602
325.575
325.686
325.964
326.195
317.566
317.434
317.253
317.236
317.312
317.433
317.629
317.889
318.184
318.382
318.507
318.62
318.451
318.46
318.405
318.296
318.262
318.353
318.552
318.698
310.563
310.471
310.361
310.374
310.399
310.464
310.595
310.736
310.916
311.043
311.111
311.185
311.069
311.075
311.055
310.988
310.975
311.016
311.143
311.231
303.536
303.517
303.471
303.476
303.475
303.509
303.554
303.598
303.649
303.701
303.72
303.742
303.706
303.713
303.708
303.683
303.684
303.687
303.733
303.771
354.564
354.009
353.391
353.249
353.432
353.88
354.307
354.977
355.635
356.3
356.589
356.884
356.834
356.719
356.536
356.241
356.141
356.512
357.076
357.728
347.266
346.808
346.254
346.152
346.264
346.668
347.055
347.62
348.192
348.755
349.022
349.287
349.226
349.148
348.989
348.709
348.603
348.925
349.425
349.967
339.991
339.572
339.125
339.072
339.127
339.48
339.805
340.291
340.761
341.253
341.482
341.694
341.625
341.569
341.449
341.177
341.092
341.386
341.783
342.218
332.727
332.348
332.01
331.97
331.999
332.292
332.548
332.97
333.338
333.763
333.944
334.129
334.041
334.029
333.914
333.656
333.612
333.875
334.163
334.51
325.438
325.143
324.905
324.874
324.903
325.118
325.311
325.643
325.914
326.252
326.415
326.559
326.474
326.49
326.381
326.15
326.147
326.345
326.572
326.822
318.18
317.955
317.803
317.77
317.814
317.94
318.092
318.333
318.519
318.768
318.879
318.987
318.916
318.926
318.853
318.679
318.681
318.841
318.992
319.148
310.913
310.774
310.701
310.667
310.702
310.779
310.871
311.015
311.113
311.267
311.34
311.416
311.361
311.374
311.321
311.227
311.213
311.32
311.41
311.497
303.653
303.601
303.596
303.578
303.585
303.614
303.651
303.7
303.721
303.783
303.798
303.832
303.805
303.81
303.791
303.755
303.764
303.8
303.826
303.852
356.203
355.653
355.071
354.794
354.875
355.178
355.754
356.307
356.87
357.359
357.707
358.046
357.898
357.793
357.674
357.459
357.335
357.798
358.495
359.122
348.69
348.218
347.726
347.473
347.535
347.81
348.309
348.765
349.265
349.703
350.025
350.291
350.151
350.055
349.977
349.769
349.633
350.051
350.671
351.156
341.176
340.8
340.373
340.15
340.203
340.467
340.87
341.227
341.692
342.052
342.325
342.565
342.417
342.335
342.283
342.093
341.955
342.347
342.86
343.23
333.684
333.38
333.033
332.847
332.891
333.125
333.436
333.717
334.107
334.417
334.638
334.828
334.693
334.607
334.588
334.43
334.291
334.662
335.061
335.32
326.185
325.963
325.706
325.543
325.582
325.797
326.017
326.214
326.538
326.79
326.943
327.083
326.992
326.908
326.915
326.794
326.661
326.945
327.264
327.418
318.707
318.573
318.358
318.238
318.278
318.441
318.605
318.721
318.973
319.134
319.25
319.349
319.298
319.228
319.263
319.144
319.05
319.246
319.467
319.566
311.236
311.155
311.017
310.95
310.965
311.072
311.178
311.256
311.395
311.478
311.556
311.624
311.572
311.56
311.588
311.483
311.438
311.555
311.688
311.743
303.765
303.742
303.696
303.666
303.678
303.701
303.751
303.779
303.824
303.845
303.873
303.898
303.873
303.876
303.889
303.843
303.84
303.88
303.925
303.943
357.935
357.268
356.72
356.431
356.503
356.666
357.097
357.596
358.062
358.536
358.733
358.931
358.902
358.932
358.813
358.659
358.821
359.216
359.852
360.435
350.173
349.601
349.17
348.889
348.949
349.108
349.446
349.883
350.306
350.72
350.878
351.059
351.012
351.046
350.932
350.794
350.958
351.295
351.838
352.313
342.433
341.935
341.609
341.333
341.413
341.559
341.837
342.2
342.561
342.939
343.046
343.198
343.155
343.155
343.07
342.97
343.115
343.391
343.845
344.219
334.709
334.291
334.043
333.8
333.874
334.03
334.242
334.539
334.848
335.16
335.217
335.342
335.308
335.289
335.237
335.161
335.274
335.484
335.846
336.148
326.978
326.655
326.486
326.284
326.355
326.504
326.642
326.899
327.133
327.357
327.408
327.505
327.467
327.46
327.383
327.371
327.427
327.587
327.855
328.109
319.263
319.042
318.932
318.769
318.837
318.948
319.03
319.237
319.404
319.547
319.595
319.667
319.634
319.607
319.554
319.57
319.608
319.709
319.882
320.1
311.574
311.433
311.382
311.286
311.338
311.382
311.415
311.553
311.665
311.761
311.775
311.801
311.797
311.773
311.735
311.768
311.772
311.836
311.944
312.074
303.879
303.834
303.82
303.789
303.805
303.812
303.833
303.873
303.916
303.945
303.948
303.952
303.962
303.949
303.932
303.946
303.945
303.967
303.995
304.051
359.482
358.748
358.319
357.916
358.042
358.209
358.53
358.912
359.257
359.684
359.839
359.93
360.033
360.003
359.922
359.937
360.081
360.456
361.045
361.813
351.489
350.885
350.51
350.176
350.3
350.437
350.705
351.04
351.334
351.701
351.825
351.892
352.008
351.961
351.872
351.914
352.027
352.35
352.847
353.499
343.507
343.055
342.738
342.444
342.566
342.658
342.872
343.195
343.418
343.725
343.832
343.884
343.985
343.926
343.85
343.901
343.982
344.277
344.669
345.203
335.561
335.227
334.952
334.722
334.808
334.894
335.057
335.328
335.513
335.76
335.865
335.9
335.961
335.914
335.845
335.915
335.96
336.207
336.525
336.949
327.657
327.399
327.183
327.012
327.07
327.139
327.242
327.501
327.605
327.799
327.904
327.924
327.953
327.934
327.871
327.939
327.971
328.156
328.393
328.719
319.76
319.579
319.429
319.305
319.347
319.384
319.466
319.645
319.731
319.856
319.934
319.961
319.977
319.958
319.917
319.951
319.999
320.109
320.277
320.523
311.865
311.754
311.694
311.593
311.61
311.636
311.688
311.794
311.857
311.926
311.965
312.024
311.998
311.978
311.971
311.982
312.039
312.082
312.182
312.336
303.981
303.944
303.928
303.881
303.892
303.903
303.924
303.958
303.973
303.992
304.023
304.037
304.015
304.01
304.021
304.011
304.035
304.052
304.083
304.142
360.77
360.212
359.785
359.526
359.36
359.436
359.719
360.046
360.254
360.636
360.736
360.948
361.06
361.087
360.919
361.002
361.285
361.712
362.361
363.085
352.602
352.125
351.779
351.55
351.414
351.457
351.703
352.011
352.179
352.519
352.591
352.757
352.886
352.884
352.747
352.81
353.043
353.427
353.99
354.572
344.47
344.045
343.796
343.58
343.481
343.501
343.716
343.975
344.102
344.416
344.441
344.616
344.713
344.691
344.585
344.637
344.807
345.146
345.64
346.099
336.358
336.025
335.813
335.616
335.554
335.574
335.72
335.965
336.061
336.329
336.343
336.489
336.554
336.529
336.452
336.485
336.624
336.887
337.336
337.682
328.255
328.018
327.849
327.699
327.628
327.657
327.754
327.983
328.044
328.256
328.248
328.371
328.422
328.406
328.337
328.339
328.491
328.673
329.026
329.279
320.181
320.015
319.896
319.787
319.726
319.758
319.813
319.996
320.024
320.178
320.176
320.256
320.315
320.296
320.247
320.23
320.366
320.463
320.727
320.894
312.101
312.013
311.952
311.872
311.858
311.851
311.899
312.008
312.025
312.112
312.102
312.153
312.196
312.207
312.179
312.157
312.237
312.285
312.449
312.546
304.06
304.035
304.008
303.99
303.966
303.975
303.988
304.025
304.039
304.067
304.047
304.074
304.091
304.102
304.088
304.082
304.102
304.123
304.169
304.21
361.872
361.394
360.92
360.633
360.296
360.471
360.628
360.922
361.17
361.375
361.526
361.69
361.964
361.899
361.87
361.921
362.274
362.558
363.402
364.057
353.505
353.114
352.724
352.433
352.147
352.325
352.468
352.706
352.948
353.106
353.206
353.36
353.605
353.548
353.543
353.574
353.866
354.113
354.824
355.364
345.196
344.877
344.543
344.286
344.064
344.207
344.341
344.539
344.751
344.881
344.933
345.104
345.3
345.239
345.237
345.273
345.49
345.708
346.298
346.74
336.927
336.671
336.398
336.165
336.029
336.13
336.248
336.385
336.578
336.678
336.686
336.873
337.031
336.986
336.995
337.016
337.168
337.357
337.834
338.16
328.69
328.52
328.293
328.067
328.024
328.09
328.188
328.287
328.447
328.511
328.478
328.666
328.779
328.768
328.772
328.764
328.883
329.047
329.403
329.622
320.482
320.4
320.2
319.998
320.033
320.057
320.148
320.209
320.299
320.363
320.313
320.458
320.543
320.548
320.561
320.523
320.649
320.75
321.014
321.145
312.314
312.257
312.137
312.001
312.029
312.055
312.102
312.124
312.192
312.231
312.17
312.274
312.336
312.338
312.368
312.303
312.417
312.461
312.627
312.688
304.13
304.107
304.066
304.017
304.025
304.045
304.058
304.059
304.078
304.101
304.076
304.115
304.143
304.135
304.141
304.119
304.156
304.175
304.232
304.253
)
;

boundaryField
{
    hotSide
    {
        type            fixedGradient;
        gradient        nonuniform List<scalar> 
400
(
403.574
404.544
408.55
415.518
425.149
437.008
450.629
465.586
481.525
498.169
515.308
532.789
550.501
568.372
586.357
604.431
622.586
640.826
659.156
677.582
387.507
388.676
393.095
400.669
411.039
423.69
438.09
453.768
470.344
487.53
505.115
522.948
540.927
558.988
577.095
595.236
613.415
631.646
649.947
668.331
379.776
381.42
386.269
394.221
404.916
417.848
432.486
448.357
465.08
482.361
499.986
517.806
535.721
553.672
571.629
589.589
607.564
625.576
643.649
661.803
379.875
382.25
387.561
395.706
406.38
419.149
433.547
449.137
465.555
482.511
499.79
517.239
534.761
552.299
569.83
587.355
604.893
622.47
640.116
657.856
385.747
388.993
394.83
403.152
413.711
426.157
440.101
455.161
471.004
487.352
503.996
520.789
537.637
554.491
571.337
588.186
605.063
622.002
639.037
656.197
395.061
399.225
405.67
414.28
424.838
437.051
450.586
465.108
480.311
495.937
511.79
527.736
543.699
559.65
575.594
591.558
607.581
623.708
639.978
656.426
405.921
411
418.128
427.175
437.933
450.128
463.452
477.586
492.237
507.159
522.174
537.173
552.113
567.002
581.878
596.799
611.827
627.017
642.42
658.074
416.903
422.851
430.703
440.314
451.467
463.884
477.243
491.212
505.481
519.8
534.006
548.025
561.869
575.602
589.315
603.108
617.07
631.274
645.779
660.622
426.912
433.618
442.16
452.382
464.054
476.875
490.489
504.516
518.596
532.452
545.927
558.997
571.748
584.321
596.878
609.565
622.498
635.768
649.434
663.535
435.091
442.348
451.43
462.176
474.344
487.612
501.579
515.799
529.844
543.385
556.264
568.516
580.31
591.877
603.445
615.201
627.287
639.799
652.797
666.314
440.836
448.336
457.674
468.69
481.136
494.676
508.877
523.246
537.297
550.657
563.166
574.898
586.087
597.023
607.979
619.167
630.74
642.797
655.4
668.577
443.881
451.248
460.47
471.385
483.744
497.203
511.33
525.628
539.61
552.905
565.353
577.022
588.143
599.006
609.882
620.988
632.481
644.465
657.005
670.132
444.375
451.241
459.985
470.446
482.372
495.425
509.192
523.217
537.066
550.409
563.085
575.12
586.68
597.993
609.293
620.779
632.604
644.88
657.677
671.035
442.903
448.977
456.99
466.782
478.104
490.626
503.96
517.698
531.466
544.973
558.057
570.694
582.967
595.031
607.059
619.221
631.659
644.485
657.778
671.588
440.451
445.552
452.718
461.798
472.541
484.612
497.635
511.226
525.042
538.815
552.378
565.665
578.701
591.574
604.408
617.339
630.496
643.989
657.903
672.291
438.402
442.452
448.769
457.213
467.515
479.314
492.211
505.816
519.794
533.882
547.905
561.776
575.48
589.066
602.621
616.258
630.094
644.241
658.785
673.784
438.571
441.59
447.121
455.036
465.029
476.686
489.562
503.245
517.393
531.744
546.123
560.43
574.632
588.753
602.86
617.051
631.438
646.136
661.235
676.793
443.133
445.251
450.08
457.499
467.17
478.626
491.385
505.017
519.18
533.616
548.152
562.685
577.173
591.625
606.093
620.663
635.444
650.55
666.075
682.073
454.011
455.475
459.675
466.505
475.632
486.594
498.915
512.178
526.05
540.284
554.709
569.22
583.767
598.347
612.997
627.788
642.818
658.189
673.986
690.255
471.802
472.886
476.523
482.629
490.929
501.035
512.535
525.057
538.294
552.013
566.046
580.285
594.671
609.186
623.852
638.72
653.861
669.354
685.263
701.62
)
;
    }
    coldSide
    {
        type            mixed;
        refValue        uniform 300;
        refGradient     uniform 0;
        valueFraction   uniform 0.991591;
        source          uniform 0;
        value           nonuniform List<scalar> 
400
(
300.021
300.021
300.021
300.022
300.022
300.023
300.024
300.024
300.025
300.026
300.027
300.028
300.029
300.03
300.031
300.032
300.033
300.033
300.034
300.035
300.02
300.021
300.021
300.021
300.022
300.022
300.023
300.024
300.025
300.026
300.027
300.027
300.029
300.03
300.03
300.031
300.032
300.033
300.034
300.035
300.02