/*--------------------------------*- C++ -*----------------------------------*\
| =========                 |                                                 |
| \\      /  F ield         | OpenFOAM: The Open Source CFD Toolbox           |
|  \\    /   O peration     | Version:  2212                                  |
|   \\  /    A nd           | Website:  www.openfoam.com                      |
|    \\/     M anipulation  |                                                 |
\*---------------------------------------------------------------------------*/
FoamFile
{
    version     2.0;
    format      ascii;
    arch        "LSB;label=32;scalar=64";
    class       volScalarField;
    location    "0";
    object      Ttrue;
}
// * * * * * * * * * * * * * * * * * * * * * * * * * * * * * * * * * * * * * //

dimensions      [0 0 0 1 0 0 0];

internalField   nonuniform List<scalar> 
3200
(
320.239
320.58
321.015
321.489
321.978
322.458
322.9
323.274
323.546
323.69
323.69
323.546
323.274
322.9
322.458
321.978
321.489
321.015
320.58
320.239
317.515
317.804
318.179
318.59
319.013
319.427
319.81
320.133
320.368
320.492
320.492
320.368
320.133
319.81
319.427
319.013
318.59
318.179
317.804
317.515
314.803
315.043
315.359
315.706
316.063
316.414
316.737
317.009
317.208
317.313
317.313
317.208
317.009
316.737
316.414
316.063
315.706
315.359
315.043
314.803
312.101
312.294
312.552
312.835
313.127
313.414
313.678
313.9
314.062
314.148
314.148
314.062
313.9
313.678
313.414
313.127
312.835
312.552
312.294
312.101
309.407
309.555
309.755
309.975
310.202
310.425
310.63
310.802
310.928
310.994
310.994
310.928
310.802
310.63
310.425
310.202
309.975
309.755
309.555
309.407
306.718
306.823
306.966
307.123
307.285
307.444
307.59
307.714
307.803
307.851
307.851
307.803
307.714
307.59
307.444
307.285
307.123
306.966
306.823
306.718
304.034
304.096
304.182
304.276
304.374
304.469
304.557
304.631
304.685
304.713
304.713
304.685
304.631
304.557
304.469
304.374
304.276
304.182
304.096
304.034
301.352
301.373
301.401
301.433
301.466
301.498
301.527
301.552
301.57
301.579
301.579
301.57
301.552
301.527
301.498
301.466
301.433
301.401
301.373
301.352
320.299
320.638
321.069
321.539
322.023
322.497
322.935
323.304
323.573
323.714
323.714
323.573
323.304
322.935
322.497
322.023
321.539
321.069
320.638
320.299
317.568
317.854
318.226
318.633
319.051
319.462
319.84
320.159
320.391
320.513
320.513
320.391
320.159
319.84
319.462
319.051
318.633
318.226
317.854
317.568
314.847
315.085
315.399
315.742
316.096
316.443
316.762
317.031
317.227
317.33
317.33
317.227
317.031
316.762
316.443
316.096
315.742
315.399
315.085
314.847
312.137
312.328
312.584
312.865
313.154
313.437
313.698
313.918
314.078
314.162
314.162
314.078
313.918
313.698
313.437
313.154
312.865
312.584
312.328
312.137
309.435
309.581
309.78
309.998
310.223
310.443
310.646
310.816
310.94
311.006
311.006
310.94
310.816
310.646
310.443
310.223
309.998
309.78
309.581
309.435
306.738
306.842
306.983
307.139
307.3
307.457
307.602
307.723
307.812
307.859
307.859
307.812
307.723
307.602
307.457
307.3
307.139
306.983
306.842
306.738
304.046
304.108
304.193
304.286
304.382
304.477
304.564
304.637
304.69
304.718
304.718
304.69
304.637
304.564
304.477
304.382
304.286
304.193
304.108
304.046
301.356
301.377
301.405
301.436
301.469
301.5
301.529
301.554
301.572
301.581
301.581
301.572
301.554
301.529
301.5
301.469
301.436
301.405
301.377
301.356
320.421
320.754
321.178
321.64
322.114
322.578
323.005
323.365
323.627
323.765
323.765
323.627
323.365
323.005
322.578
322.114
321.64
321.178
320.754
320.421
317.673
317.954
318.32
318.719
319.13
319.531
319.901
320.212
320.438
320.557
320.557
320.438
320.212
319.901
319.531
319.13
318.719
318.32
317.954
317.673
314.936
315.17
315.478
315.815
316.162
316.501
316.813
317.076
317.267
317.367
317.367
317.267
317.076
316.813
316.501
316.162
315.815
315.478
315.17
314.936
312.209
312.397
312.649
312.924
313.208
313.485
313.74
313.954
314.11
314.192
314.192
314.11
313.954
313.74
313.485
313.208
312.924
312.649
312.397
312.209
309.491
309.635
309.83
310.044
310.264
310.48
310.678
310.845
310.965
311.029
311.029
310.965
310.845
310.678
310.48
310.264
310.044
309.83
309.635
309.491
306.778
306.88
307.019
307.172
307.329
307.483
307.625
307.744
307.83
307.875
307.875
307.83
307.744
307.625
307.483
307.329
307.172
307.019
306.88
306.778
304.07
304.131
304.214
304.306
304.4
304.493
304.578
304.649
304.701
304.728
304.728
304.701
304.649
304.578
304.493
304.4
304.306
304.214
304.131
304.07
301.364
301.384
301.412
301.443
301.475
301.506
301.534
301.558
301.575
301.584
301.584
301.575
301.558
301.534
301.506
301.475
301.443
301.412
301.384
301.364
320.605
320.93
321.344
321.792
322.252
322.701
323.114
323.461
323.713
323.846
323.846
323.713
323.461
323.114
322.701
322.252
321.792
321.344
320.93
320.605
317.831
318.106
318.463
318.851
319.249
319.638
319.995
320.295
320.513
320.627
320.627
320.513
320.295
319.995
319.638
319.249
318.851
318.463
318.106
317.831
315.069
315.297
315.598
315.926
316.263
316.591
316.893
317.146
317.33
317.426
317.426
317.33
317.146
316.893
316.591
316.263
315.926
315.598
315.297
315.069
312.318
312.502
312.747
313.015
313.29
313.558
313.805
314.012
314.162
314.241
314.241
314.162
314.012
313.805
313.558
313.29
313.015
312.747
312.502
312.318
309.575
309.716
309.906
310.114
310.328
310.537
310.728
310.889
311.005
311.067
311.067
311.005
310.889
310.728
310.537
310.328
310.114
309.906
309.716
309.575
306.838
306.938
307.073
307.222
307.375
307.524
307.661
307.775
307.858
307.902
307.902
307.858
307.775
307.661
307.524
307.375
307.222
307.073
306.938
306.838
304.106
304.165
304.247
304.336
304.428
304.517
304.599
304.668
304.718
304.744
304.744
304.718
304.668
304.599
304.517
304.428
304.336
304.247
304.165
304.106
301.376
301.396
301.423
301.453
301.484
301.514
301.541
301.564
301.581
301.59
301.59
301.581
301.564
301.541
301.514
301.484
301.453
301.423
301.396
301.376
320.851
321.166
321.566
321.999
322.441
322.872
323.266
323.597
323.837
323.963
323.963
323.837
323.597
323.266
322.872
322.441
321.999
321.566
321.166
320.851
318.043
318.31
318.655
319.029
319.412
319.785
320.126
320.412
320.619
320.728
320.728
320.619
320.412
320.126
319.785
319.412
319.029
318.655
318.31
318.043
315.248
315.469
315.76
316.076
316.4
316.715
317.003
317.245
317.42
317.512
317.512
317.42
317.245
317.003
316.715
316.4
316.076
315.76
315.469
315.248
312.464
312.642
312.879
313.137
313.402
313.659
313.895
314.092
314.235
314.31
314.31
314.235
314.092
313.895
313.659
313.402
313.137
312.879
312.642
312.464
309.688
309.825
310.009
310.21
310.415
310.615
310.798
310.952
311.063
311.121
311.121
311.063
310.952
310.798
310.615
310.415
310.21
310.009
309.825
309.688
306.919
307.016
307.147
307.29
307.437
307.58
307.711
307.82
307.899
307.941
307.941
307.899
307.82
307.711
307.58
307.437
307.29
307.147
307.016
306.919
304.154
304.212
304.29
304.377
304.465
304.551
304.629
304.695
304.742
304.767
304.767
304.742
304.695
304.629
304.551
304.465
304.377
304.29
304.212
304.154
301.392
301.411
301.438
301.467
301.496
301.525
301.551
301.573
301.589
301.598
301.598
301.589
301.573
301.551
301.525
301.496
301.467
301.438
301.411
301.392
321.162
321.465
321.849
322.263
322.684
323.093
323.466
323.778
324.004
324.122
324.122
324.004
323.778
323.466
323.093
322.684
322.263
321.849
321.465
321.162
318.311
318.568
318.899
319.257
319.622
319.975
320.298
320.568
320.763
320.866
320.866
320.763
320.568
320.298
319.975
319.622
319.257
318.899
318.568
318.311
315.474
315.687
315.966
316.268
316.577
316.876
317.149
317.377
317.541
317.628
317.628
317.541
317.377
317.149
316.876
316.577
316.268
315.966
315.687
315.474
312.648
312.819
313.046
313.294
313.546
313.791
314.014
314.2
314.334
314.405
314.405
314.334
314.2
314.014
313.791
313.546
313.294
313.046
312.819
312.648
309.831
309.962
310.139
310.331
310.527
310.717
310.89
311.035
311.14
311.194
311.194
311.14
311.035
310.89
310.717
310.527
310.331
310.139
309.962
309.831
307.02
307.114
307.239
307.377
307.517
307.652
307.776
307.879
307.954
307.993
307.993
307.954
307.879
307.776
307.652
307.517
307.377
307.239
307.114
307.02
304.215
304.271
304.346
304.429
304.513
304.594
304.668
304.73
304.775
304.799
304.799
304.775
304.73
304.668
304.594
304.513
304.429
304.346
304.271
304.215
301.413
301.431
301.456
301.484
301.512
301.54
301.564
301.585
301.6
301.608
301.608
301.6
301.585
301.564
301.54
301.512
301.484
301.456
301.431
301.413
321.537
321.827
322.193
322.586
322.984
323.369
323.719
324.011
324.221
324.331
324.331
324.221
324.011
323.719
323.369
322.984
322.586
322.193
321.827
321.537
318.635
318.88
319.196
319.536
319.881
320.214
320.517
320.769
320.951
321.046
321.046
320.951
320.769
320.517
320.214
319.881
319.536
319.196
318.88
318.635
315.747
315.95
316.216
316.503
316.795
317.077
317.333
317.546
317.699
317.78
317.78
317.699
317.546
317.333
317.077
316.795
316.503
316.216
315.95
315.747
312.87
313.034
313.251
313.486
313.724
313.954
314.164
314.338
314.463
314.529
314.529
314.463
314.338
314.164
313.954
313.724
313.486
313.251
313.034
312.87
310.003
310.129
310.297
310.48
310.665
310.844
311.007
311.142
311.24
311.291
311.291
311.24
311.142
311.007
310.844
310.665
310.48
310.297
310.129
310.003
307.144
307.233
307.352
307.483
307.615
307.743
307.859
307.956
308.025
308.062
308.062
308.025
307.956
307.859
307.743
307.615
307.483
307.352
307.233
307.144
304.289
304.342
304.414
304.492
304.572
304.649
304.718
304.776
304.818
304.84
304.84
304.818
304.776
304.718
304.649
304.572
304.492
304.414
304.342
304.289
301.437
301.455
301.479
301.505
301.532
301.558
301.581
301.601
301.615
301.622
301.622
301.615
301.601
301.581
301.558
301.532
301.505
301.479
301.455
301.437
321.98
322.256
322.602
322.972
323.346
323.705
324.03
324.301
324.495
324.597
324.597
324.495
324.301
324.03
323.705
323.346
322.972
322.602
322.256
321.98
319.017
319.25
319.549
319.869
320.193
320.504
320.785
321.019
321.187
321.275
321.275
321.187
321.019
320.785
320.504
320.193
319.869
319.549
319.25
319.017
316.068
316.262
316.513
316.784
317.058
317.321
317.559
317.757
317.899
317.973
317.973
317.899
317.757
317.559
317.321
317.058
316.784
316.513
316.262
316.068
313.133
313.288
313.493
313.715
313.939
314.154
314.348
314.51
314.626
314.687
314.687
314.626
314.51
314.348
314.154
313.939
313.715
313.493
313.288
313.133
310.207
310.326
310.485
310.658
310.832
310.999
311.15
311.276
311.366
311.413
311.413
311.366
311.276
311.15
310.999
310.832
310.658
310.485
310.326
310.207
307.289
307.373
307.487
307.61
307.734
307.853
307.962
308.051
308.116
308.149
308.149
308.116
308.051
307.962
307.853
307.734
307.61
307.487
307.373
307.289
304.376
304.426
304.495
304.568
304.643
304.715
304.78
304.833
304.872
304.892
304.892
304.872
304.833
304.78
304.715
304.643
304.568
304.495
304.426
304.376
301.467
301.483
301.506
301.531
301.556
301.58
301.602
301.62
301.633
301.64
301.64
301.633
301.62
301.602
301.58
301.556
301.531
301.506
301.483
301.467
322.492
322.752
323.078
323.424
323.772
324.106
324.406
324.654
324.832
324.925
324.925
324.832
324.654
324.406
324.106
323.772
323.424
323.078
322.752
322.492
319.458
319.678
319.959
320.259
320.561
320.849
321.109
321.324
321.478
321.559
321.559
321.478
321.324
321.109
320.849
320.561
320.259
319.959
319.678
319.458
316.44
316.623
316.86
317.113
317.368
317.612
317.832
318.014
318.144
318.212
318.212
318.144
318.014
317.832
317.612
317.368
317.113
316.86
316.623
316.44
313.436
313.583
313.776
313.983
314.192
314.391
314.571
314.72
314.826
314.882
314.882
314.826
314.72
314.571
314.391
314.192
313.983
313.776
313.583
313.436
310.442
310.555
310.705
310.866
311.028
311.183
311.323
311.439
311.521
311.564
311.564
311.521
311.439
311.323
311.183
311.028
310.866
310.705
310.555
310.442
307.456
307.536
307.643
307.758
307.874
307.985
308.085
308.167
308.226
308.257
308.257
308.226
308.167
308.085
307.985
307.874
307.758
307.643
307.536
307.456
304.477
304.524
304.588
304.657
304.727
304.794
304.854
304.903
304.939
304.957
304.957
304.939
304.903
304.854
304.794
304.727
304.657
304.588
304.524
304.477
301.5
301.516
301.538
301.561
301.584
301.606
301.627
301.643
301.655
301.661
301.661
301.655
301.643
301.627
301.606
301.584
301.561
301.538
301.516
301.5
323.074
323.318
323.623
323.946
324.268
324.575
324.85
325.077
325.239
325.324
325.324
325.239
325.077
324.85
324.575
324.268
323.946
323.623
323.318
323.074
319.96
320.167
320.43
320.709
320.988
321.254
321.493
321.689
321.829
321.903
321.903
321.829
321.689
321.493
321.254
320.988
320.709
320.43
320.167
319.96
316.863
317.035
317.256
317.492
317.729
317.954
318.155
318.321
318.44
318.502
318.502
318.44
318.321
318.155
317.954
317.729
317.492
317.256
317.035
316.863
313.781
313.919
314.099
314.292
314.486
314.67
314.835
314.97
315.067
315.118
315.118
315.067
314.97
314.835
314.67
314.486
314.292
314.099
313.919
313.781
310.709
310.816
310.956
311.106
311.256
311.399
311.528
311.633
311.709
311.748
311.748
311.709
311.633
311.528
311.399
311.256
311.106
310.956
310.816
310.709
307.647
307.722
307.822
307.929
308.037
308.139
308.231
308.306
308.36
308.388
308.388
308.36
308.306
308.231
308.139
308.037
307.929
307.822
307.722
307.647
304.591
304.636
304.696
304.76
304.825
304.886
304.941
304.986
305.019
305.036
305.036
305.019
304.986
304.941
304.886
304.825
304.76
304.696
304.636
304.591
301.539
301.554
301.574
301.595
301.617
301.637
301.656
301.671
301.682
301.688
301.688
301.682
301.671
301.656
301.637
301.617
301.595
301.574
301.554
301.539
323.727
323.956
324.24
324.538
324.835
325.117
325.368
325.574
325.721
325.797
325.797
325.721
325.574
325.368
325.117
324.835
324.538
324.24
323.956
323.727
320.523
320.717
320.962
321.22
321.478
321.722
321.939
322.118
322.245
322.311
322.311
322.245
322.118
321.939
321.722
321.478
321.22
320.962
320.717
320.523
317.338
317.499
317.705
317.924
318.141
318.348
318.532
318.683
318.79
318.846
318.846
318.79
318.683
318.532
318.348
318.141
317.924
317.705
317.499
317.338
314.168
314.297
314.465
314.644
314.822
314.991
315.142
315.265
315.353
315.399
315.399
315.353
315.265
315.142
314.991
314.822
314.644
314.465
314.297
314.168
311.01
311.109
311.24
311.379
311.517
311.649
311.766
311.862
311.93
311.966
311.966
311.93
311.862
311.766
311.649
311.517
311.379
311.24
311.109
311.01
307.862
307.932
308.025
308.124
308.223
308.317
308.401
308.469
308.518
308.543
308.543
308.518
308.469
308.401
308.317
308.223
308.124
308.025
307.932
307.862
304.72
304.762
304.817
304.877
304.936
304.993
305.043
305.084
305.114
305.129
305.129
305.114
305.084
305.043
304.993
304.936
304.877
304.817
304.762
304.72
301.582
301.596
301.614
301.634
301.654
301.673
301.69
301.704
301.714
301.719
301.719
301.714
301.704
301.69
301.673
301.654
301.634
301.614
301.596
301.582
324.454
324.667
324.93
325.205
325.478
325.734
325.962
326.148
326.281
326.349
326.349
326.281
326.148
325.962
325.734
325.478
325.205
324.93
324.667
324.454
321.15
321.33
321.557
321.796
322.032
322.254
322.452
322.613
322.728
322.787
322.787
322.728
322.613
322.452
322.254
322.032
321.796
321.557
321.33
321.15
317.866
318.016
318.207
318.409
318.609
318.797
318.964
319.1
319.197
319.248
319.248
319.197
319.1
318.964
318.797
318.609
318.409
318.207
318.016
317.866
314.599
314.719
314.875
315.04
315.204
315.358
315.494
315.606
315.685
315.726
315.726
315.685
315.606
315.494
315.358
315.204
315.04
314.875
314.719
314.599
311.345
311.437
311.558
311.686
311.813
311.933
312.039
312.126
312.188
312.22
312.22
312.188
312.126
312.039
311.933
311.813
311.686
311.558
311.437
311.345
308.1
308.165
308.252
308.343
308.434
308.52
308.596
308.658
308.702
308.725
308.725
308.702
308.658
308.596
308.52
308.434
308.343
308.252
308.165
308.1
304.863
304.902
304.953
305.008
305.063
305.114
305.16
305.197
305.224
305.238
305.238
305.224
305.197
305.16
305.114
305.063
305.008
304.953
304.902
304.863
301.63
301.643
301.66
301.678
301.697
301.714
301.729
301.742
301.751
301.755
301.755
301.751
301.742
301.729
301.714
301.697
301.678
301.66
301.643
301.63
325.255
325.452
325.695
325.948
326.197
326.43
326.636
326.804
326.923
326.984
326.984
326.923
326.804
326.636
326.43
326.197
325.948
325.695
325.452
325.255
321.841
322.008
322.218
322.437
322.653
322.855
323.034
323.179
323.282
323.335
323.335
323.282
323.179
323.034
322.855
322.653
322.437
322.218
322.008
321.841
318.449
318.587
318.764
318.949
319.132
319.303
319.454
319.577
319.664
319.709
319.709
319.664
319.577
319.454
319.303
319.132
318.949
318.764
318.587
318.449
315.074
315.185
315.329
315.481
315.63
315.77
315.894
315.995
316.066
316.103
316.103
316.066
315.995
315.894
315.77
315.63
315.481
315.329
315.185
315.074
311.713
311.799
311.91
312.028
312.145
312.253
312.35
312.428
312.483
312.512
312.512
312.483
312.428
312.35
312.253
312.145
312.028
311.91
311.799
311.713
308.363
308.424
308.503
308.587
308.67
308.748
308.817
308.873
308.913
308.933
308.933
308.913
308.873
308.817
308.748
308.67
308.587
308.503
308.424
308.363
305.02
305.057
305.104
305.155
305.205
305.252
305.293
305.326
305.35
305.363
305.363
305.35
305.326
305.293
305.252
305.205
305.155
305.104
305.057
305.02
301.682
301.694
301.71
301.727
301.744
301.76
301.774
301.785
301.793
301.797
301.797
301.793
301.785
301.774
301.76
301.744
301.727
301.71
301.694
301.682
326.13
326.313
326.536
326.768
326.995
327.206
327.392
327.542
327.649
327.704
327.704
327.649
327.542
327.392
327.206
326.995
326.768
326.536
326.313
326.13
322.596
322.751
322.944
323.145
323.341
323.524
323.685
323.816
323.908
323.956
323.956
323.908
323.816
323.685
323.524
323.341
323.145
322.944
322.751
322.596
319.085
319.214
319.376
319.546
319.712
319.867
320.004
320.114
320.192
320.232
320.232
320.192
320.114
320.004
319.867
319.712
319.546
319.376
319.214
319.085
315.593
315.696
315.829
315.968
316.104
316.231
316.342
316.433
316.496
316.529
316.529
316.496
316.433
316.342
316.231
316.104
315.968
315.829
315.696
315.593
312.116
312.195
312.298
312.406
312.512
312.611
312.697
312.768
312.817
312.843
312.843
312.817
312.768
312.697
312.611
312.512
312.406
312.298
312.195
312.116
308.65
308.706
308.78
308.857
308.932
309.003
309.065
309.115
309.151
309.169
309.169
309.151
309.115
309.065
309.003
308.932
308.857
308.78
308.706
308.65
305.193
305.226
305.27
305.317
305.362
305.404
305.442
305.472
305.493
305.504
305.504
305.493
305.472
305.442
305.404
305.362
305.317
305.27
305.226
305.193
301.74
301.751
301.766
301.782
301.797
301.811
301.824
301.834
301.841
301.844
301.844
301.841
301.834
301.824
301.811
301.797
301.782
301.766
301.751
301.74
327.08
327.248
327.454
327.665
327.871
328.062
328.229
328.364
328.459
328.508
328.508
328.459
328.364
328.229
328.062
327.871
327.665
327.454
327.248
327.08
323.416
323.558
323.735
323.919
324.097
324.262
324.407
324.524
324.607
324.649
324.649
324.607
324.524
324.407
324.262
324.097
323.919
323.735
323.558
323.416
319.776
319.894
320.043
320.198
320.349
320.489
320.612
320.711
320.781
320.817
320.817
320.781
320.711
320.612
320.489
320.349
320.198
320.043
319.894
319.776
316.156
316.251
316.373
316.5
316.623
316.738
316.838
316.919
316.976
317.006
317.006
316.976
316.919
316.838
316.738
316.623
316.5
316.373
316.251
316.156
312.553
312.626
312.72
312.819
312.915
313.004
313.082
313.145
313.19
313.213
313.213
313.19
313.145
313.082
313.004
312.915
312.819
312.72
312.626
312.553
308.962
309.013
309.081
309.151
309.22
309.284
309.34
309.385
309.416
309.433
309.433
309.416
309.385
309.34
309.284
309.22
309.151
309.081
309.013
308.962
305.38
305.41
305.451
305.493
305.534
305.573
305.606
305.633
305.652
305.662
305.662
305.652
305.633
305.606
305.573
305.534
305.493
305.451
305.41
305.38
301.803
301.813
301.827
301.841
301.855
301.867
301.879
301.888
301.894
301.897
301.897
301.894
301.888
301.879
301.867
301.855
301.841
301.827
301.813
301.803
328.1
328.255
328.443
328.636
328.823
328.995
329.145
329.266
329.351
329.394
329.394
329.351
329.266
329.145
328.995
328.823
328.636
328.443
328.255
328.1
324.295
324.426
324.588
324.755
324.917
325.067
325.197
325.302
325.375
325.413
325.413
325.375
325.302
325.197
325.067
324.917
324.755
324.588
324.426
324.295
320.516
320.625
320.762
320.903
321.04
321.167
321.277
321.366
321.428
321.46
321.46
321.428
321.366
321.277
321.167
321.04
320.903
320.762
320.625
320.516
316.759
316.847
316.959
317.074
317.186
317.29
317.38
317.453
317.504
317.53
317.53
317.504
317.453
317.38
317.29
317.186
317.074
316.959
316.847
316.759
313.021
313.088
313.174
313.264
313.352
313.432
313.502
313.559
313.598
313.619
313.619
313.598
313.559
313.502
313.432
313.352
313.264
313.174
313.088
313.021
309.295
309.343
309.405
309.469
309.531
309.589
309.639
309.679
309.708
309.722
309.722
309.708
309.679
309.639
309.589
309.531
309.469
309.405
309.343
309.295
305.58
305.608
305.645
305.684
305.721
305.756
305.786
305.81
305.827
305.836
305.836
305.827
305.81
305.786
305.756
305.721
305.684
305.645
305.608
305.58
301.87
301.879
301.892
301.905
301.917
301.929
301.939
301.947
301.953
301.956
301.956
301.953
301.947
301.939
301.929
301.917
301.905
301.892
301.879
301.87
329.181
329.323
329.495
329.671
329.84
329.996
330.13
330.238
330.314
330.353
330.353
330.314
330.238
330.13
329.996
329.84
329.671
329.495
329.323
329.181
325.224
325.345
325.494
325.646
325.793
325.927
326.044
326.138
326.204
326.238
326.238
326.204
326.138
326.044
325.927
325.793
325.646
325.494
325.345
325.224
321.298
321.398
321.523
321.652
321.776
321.89
321.989
322.069
322.124
322.153
322.153
322.124
322.069
321.989
321.89
321.776
321.652
321.523
321.398
321.298
317.396
317.476
317.578
317.684
317.785
317.879
317.96
318.025
318.071
318.094
318.094
318.071
318.025
317.96
317.879
317.785
317.684
317.578
317.476
317.396
313.513
313.575
313.654
313.736
313.816
313.888
313.951
314.002
314.037
314.056
314.056
314.037
314.002
313.951
313.888
313.816
313.736
313.654
313.575
313.513
309.646
309.69
309.746
309.805
309.862
309.914
309.959
309.995
310.02
310.033
310.033
310.02
309.995
309.959
309.914
309.862
309.805
309.746
309.69
309.646
305.79
305.816
305.85
305.885
305.919
305.95
305.978
305.999
306.014
306.022
306.022
306.014
305.999
305.978
305.95
305.919
305.885
305.85
305.816
305.79
301.94
301.949
301.96
301.972
301.983
301.994
302.003
302.01
302.015
302.018
302.018
302.015
302.01
302.003
301.994
301.983
301.972
301.96
301.949
301.94
330.294
330.425
330.583
330.743
330.897
331.037
331.159
331.256
331.324
331.358
331.358
331.324
331.256
331.159
331.037
330.897
330.743
330.583
330.425
330.294
326.178
326.289
326.425
326.564
326.698
326.82
326.925
327.009
327.068
327.098
327.098
327.068
327.009
326.925
326.82
326.698
326.564
326.425
326.289
326.178
322.096
322.188
322.303
322.421
322.534
322.637
322.727
322.798
322.848
322.873
322.873
322.848
322.798
322.727
322.637
322.534
322.421
322.303
322.188
322.096
318.043
318.117
318.211
318.307
318.4
318.485
318.558
318.616
318.657
318.678
318.678
318.657
318.616
318.558
318.485
318.4
318.307
318.211
318.117
318.043
314.013
314.07
314.143
314.218
314.29
314.356
314.413
314.458
314.49
314.507
314.507
314.49
314.458
314.413
314.356
314.29
314.218
314.143
314.07
314.013
310.002
310.042
310.094
310.147
310.199
310.246
310.287
310.319
310.342
310.354
310.354
310.342
310.319
310.287
310.246
310.199
310.147
310.094
310.042
310.002
306.003
306.027
306.058
306.09
306.121
306.149
306.174
306.193
306.207
306.214
306.214
306.207
306.193
306.174
306.149
306.121
306.09
306.058
306.027
306.003
302.011
302.019
302.03
302.041
302.051
302.06
302.069
302.075
302.08
302.082
302.082
302.08
302.075
302.069
302.06
302.051
302.041
302.03
302.019
302.011
331.37
331.492
331.637
331.784
331.925
332.053
332.163
332.251
332.312
332.343
332.343
332.312
332.251
332.163
332.053
331.925
331.784
331.637
331.492
331.37
327.089
327.191
327.317
327.445
327.567
327.678
327.774
327.851
327.904
327.931
327.931
327.904
327.851
327.774
327.678
327.567
327.445
327.317
327.191
327.089
322.85
322.936
323.042
323.15
323.254
323.348
323.43
323.494
323.54
323.563
323.563
323.54
323.494
323.43
323.348
323.254
323.15
323.042
322.936
322.85
318.649
318.718
318.804
318.893
318.978
319.056
319.122
319.176
319.213
319.232
319.232
319.213
319.176
319.122
319.056
318.978
318.893
318.804
318.718
318.649
314.478
314.53
314.598
314.667
314.733
314.794
314.846
314.887
314.916
314.931
314.931
314.916
314.887
314.846
314.794
314.733
314.667
314.598
314.53
314.478
310.33
310.367
310.415
310.464
310.512
310.555
310.592
310.622
310.643
310.653
310.653
310.643
310.622
310.592
310.555
310.512
310.464
310.415
310.367
310.33
306.198
306.22
306.249
306.279
306.307
306.333
306.356
306.374
306.386
306.392
306.392
306.386
306.374
306.356
306.333
306.307
306.279
306.249
306.22
306.198
302.077
302.084
302.094
302.104
302.113
302.122
302.129
302.135
302.14
302.142
302.142
302.14
302.135
302.129
302.122
302.113
302.104
302.094
302.084
302.077
332.22
332.334
332.471
332.609
332.74
332.86
332.962
333.044
333.1
333.129
333.129
333.1
333.044
332.962
332.86
332.74
332.609
332.471
332.334
332.22
327.78
327.877
327.995
328.116
328.23
328.334
328.424
328.495
328.544
328.57
328.57
328.544
328.495
328.424
328.334
328.23
328.116
327.995
327.877
327.78
323.405
323.486
323.586
323.688
323.786
323.874
323.951
324.011
324.053
324.075
324.075
324.053
324.011
323.951
323.874
323.786
323.688
323.586
323.486
323.405
319.084
319.149
319.231
319.315
319.395
319.468
319.53
319.58
319.615
319.632
319.632
319.615
319.58
319.53
319.468
319.395
319.315
319.231
319.149
319.084
314.804
314.854
314.918
314.984
315.046
315.103
315.152
315.191
315.218
315.232
315.232
315.218
315.191
315.152
315.103
315.046
314.984
314.918
314.854
314.804
310.557
310.593
310.638
310.685
310.73
310.771
310.806
310.834
310.853
310.863
310.863
310.853
310.834
310.806
310.771
310.73
310.685
310.638
310.593
310.557
306.333
306.354
306.381
306.409
306.436
306.461
306.482
306.499
306.51
306.516
306.516
306.51
306.499
306.482
306.461
306.436
306.409
306.381
306.354
306.333
302.121
302.128
302.138
302.147
302.156
302.164
302.171
302.177
302.181
302.183
302.183
302.181
302.177
302.171
302.164
302.156
302.147
302.138
302.128
302.121
)
;

boundaryField
{
    hotSide
    {
        type            fixedGradient;
        gradient        nonuniform List<scalar> 
400
(
218.998
219.681
221.049
223.112
225.877
229.359
233.571
238.53
244.252
250.752
258.048
266.154
275.083
284.848
295.46
306.928
319.259
332.46
346.536
361.491
223.484
224.131
225.431
227.391
230.027
233.354
237.392
242.162
247.684
253.979
261.068
268.968
277.696
287.266
297.692
308.983
321.148
334.194
348.125
362.946
228.339
228.944
230.16
232
234.482
237.628
241.462
246.012
251.304
257.365
264.218
271.886
280.39
289.745
299.966
311.066
323.052
335.931
349.71
364.39
233.483
234.039
235.158
236.858
239.163
242.1
245.702
250.003
255.037
260.835
267.429
274.844
283.103
292.227
302.231
313.127
324.925
337.632
351.253
365.789
238.771
239.271
240.282
241.826
243.933
246.639
249.986
254.015
258.768
264.285
270.602
277.749
285.754
294.637
304.417
315.106
326.714
339.248
352.711
367.104
243.984
244.424
245.319
246.697
248.594
251.056
254.135
257.881
262.346
267.575
273.61
280.488
288.237
296.883
306.443
316.931
328.355
340.723
354.036
368.295
248.822
249.203
249.983
251.194
252.884
255.107
257.923
261.395
265.58
270.533
276.301
282.925
290.437
298.862
308.219
318.523
329.781
341.998
355.177
369.316
252.929
253.256
253.931
254.994
256.498
258.507
261.092
264.322
268.263
272.976
278.514
284.92
292.228
300.466
309.654
319.803
330.923
343.017
356.085
370.125
255.934
256.22
256.816
257.765
259.127
260.975
263.384
266.432
270.191
274.726
280.093
286.338
293.498
301.6
310.664
320.702
331.722
343.727
356.717
370.688
257.526
257.79
258.342
259.23
260.516
262.275
264.59
267.54
271.2
275.64
280.916
287.076
294.157
302.187
311.186
321.166
332.134
344.093
357.041
370.976
257.526
257.79
258.342
259.23
260.516
262.275
264.59
267.54
271.2
275.64
280.916
287.076
294.157
302.187
311.186
321.166
332.134
344.093
357.041
370.976
255.934
256.22
256.816
257.765
259.127
260.975
263.384
266.432
270.191
274.726
280.093
286.338
293.498
301.6
310.664
320.702
331.722
343.727
356.717
370.688
252.929
253.256
253.931
254.994
256.498
258.507
261.092
264.322
268.263
272.976
278.514
284.92
292.228
300.466
309.654
319.803
330.923
343.017
356.085
370.125
248.822
249.203
249.983
251.194
252.884
255.107
257.923
261.395
265.58
270.533
276.301
282.925
290.437
298.862
308.219
318.523
329.781
341.998
355.177
369.316
243.984
244.424
245.319
246.697
248.594
251.056
254.135
257.881
262.346
267.575
273.61
280.488
288.237
296.883
306.443
316.931
328.355
340.723
354.036
368.295
238.771
239.271
240.282
241.826
243.933
246.639
249.986
254.015
258.768
264.285
270.602
277.749
285.754
294.637
304.417
315.106
326.714
339.248
352.711
367.104
233.483
234.039
235.158
236.858
239.163
242.1
245.702
250.003
255.037
260.835
267.429
274.844
283.103
292.227
302.231
313.127
324.925
337.632
351.253
365.789
228.339
228.944
230.16
232
234.482
237.628
241.462
246.012
251.304
257.365
264.218
271.886
280.39
289.745
299.966
311.066
323.052
335.931
349.71
364.39
223.484
224.131
225.431
227.391
230.027
233.354
237.392
242.162
247.684
253.979
261.068
268.968
277.696
287.266
297.692
308.983
321.148
334.194
348.125
362.946
218.998
219.681
221.049
223.112
225.877
229.359
233.571
238.53
244.252
250.752
258.048
266.154
275.083
284.848
295.46
306.928
319.259
332.46
346.536
361.491
)
;
    }
    coldSide
    {
        type            mixed;
        refValue        uniform 300;
        refGradient     uniform 0;
        valueFraction   uniform 0.991591;
        source          uniform 0;
        value           nonuniform List<scalar> 
400
(
300.011
300.011
300.011
300.012
300.012
300.012
300.012
300.012
300.013
300.013
300.013
300.014
300.014
300.015
300.015
300.016
300.016
300.017
300.017
300.018
300.012
300.012
300.012
300.012
300.012
300.012
300.012
300.012
300.013
300.013
300.013
300.014
300.014
300.015
300.015
300.016
300.016
300.017
300.018
300.018