/*--------------------------------*- C++ -*----------------------------------*\
| =========                 |                                                 |
| \\      /  F ield         | OpenFOAM: The Open Source CFD Toolbox           |
|  \\    /   O peration     | Version:  2212                                  |
|   \\  /    A nd           | Website:  www.openfoam.com                      |
|    \\/     M anipulation  |                                                 |
\*---------------------------------------------------------------------------*/
FoamFile
{
    version     2.0;
    format      ascii;
    arch        "LSB;label=32;scalar=64";
    class       volScalarField;
    location    "0";
    object      Tdirect;
}
// * * * * * * * * * * * * * * * * * * * * * * * * * * * * * * * * * * * * * //

dimensions      [0 0 0 1 0 0 0];

internalField   nonuniform List<scalar> 
3200
(
343.189
343.698
344.347
345.055
345.784
346.5
347.16
347.717
348.124
348.338
348.338
348.124
347.717
347.16
346.5
345.784
345.055
344.347
343.698
343.189
337.532
337.963
338.523
339.135
339.766
340.385
340.956
341.438
341.788
341.974
341.974
341.788
341.438
340.956
340.385
339.766
339.135
338.523
337.963
337.532
331.833
332.19
332.662
333.179
333.712
334.235
334.717
335.124
335.42
335.576
335.576
335.42
335.124
334.717
334.235
333.712
333.179
332.662
332.19
331.833
326.098
326.385
326.77
327.193
327.628
328.056
328.449
328.781
329.023
329.15
329.15
329.023
328.781
328.449
328.056
327.628
327.193
326.77
326.385
326.098
320.334
320.554
320.853
321.181
321.52
321.852
322.158
322.416
322.603
322.702
322.702
322.603
322.416
322.158
321.852
321.52
321.181
320.853
320.554
320.334
314.547
314.703
314.916
315.151
315.393
315.63
315.848
316.032
316.166
316.236
316.236
316.166
316.032
315.848
315.63
315.393
315.151
314.916
314.703
314.547
308.745
308.838
308.965
309.106
309.251
309.394
309.525
309.635
309.715
309.758
309.758
309.715
309.635
309.525
309.394
309.251
309.106
308.965
308.838
308.745
302.932
302.964
303.006
303.053
303.102
303.15
303.194
303.231
303.258
303.272
303.272
303.258
303.231
303.194
303.15
303.102
303.053
303.006
302.964
302.932
343.342
343.847
344.49
345.191
345.913
346.621
347.273
347.824
348.225
348.436
348.436
348.225
347.824
347.273
346.621
345.913
345.191
344.49
343.847
343.342
337.665
338.092
338.647
339.254
339.878
340.49
341.055
341.53
341.876
342.059
342.059
341.876
341.53
341.055
340.49
339.878
339.254
338.647
338.092
337.665
331.945
332.299
332.767
333.28
333.807
334.325
334.801
335.203
335.495
335.649
335.649
335.495
335.203
334.801
334.325
333.807
333.28
332.767
332.299
331.945
326.19
326.475
326.856
327.275
327.707
328.129
328.518
328.846
329.085
329.21
329.21
329.085
328.846
328.518
328.129
327.707
327.275
326.856
326.475
326.19
320.405
320.624
320.92
321.246
321.581
321.909
322.212
322.466
322.651
322.749
322.749
322.651
322.466
322.212
321.909
321.581
321.246
320.92
320.624
320.405
314.598
314.753
314.964
315.197
315.436
315.671
315.886
316.068
316.2
316.27
316.27
316.2
316.068
315.886
315.671
315.436
315.197
314.964
314.753
314.598
308.775
308.868
308.994
309.134
309.278
309.418
309.548
309.657
309.736
309.778
309.778
309.736
309.657
309.548
309.418
309.278
309.134
308.994
308.868
308.775
302.943
302.974
303.016
303.063
303.111
303.158
303.201
303.238
303.265
303.279
303.279
303.265
303.238
303.201
303.158
303.111
303.063
303.016
302.974
302.943
343.648
344.144
344.777
345.465
346.172
346.865
347.502
348.039
348.43
348.636
348.636
348.43
348.039
347.502
346.865
346.172
345.465
344.777
344.144
343.648
337.93
338.351
338.896
339.492
340.104
340.703
341.254
341.718
342.055
342.233
342.233
342.055
341.718
341.254
340.703
340.104
339.492
338.896
338.351
337.93
332.17
332.519
332.979
333.482
333.999
334.505
334.97
335.362
335.647
335.797
335.797
335.647
335.362
334.97
334.505
333.999
333.482
332.979
332.519
332.17
326.374
326.655
327.03
327.441
327.863
328.277
328.657
328.977
329.21
329.332
329.332
329.21
328.977
328.657
328.277
327.863
327.441
327.03
326.655
326.374
320.549
320.764
321.055
321.375
321.703
322.025
322.32
322.569
322.749
322.844
322.844
322.749
322.569
322.32
322.025
321.703
321.375
321.055
320.764
320.549
314.701
314.853
315.061
315.289
315.524
315.753
315.964
316.141
316.27
316.338
316.338
316.27
316.141
315.964
315.753
315.524
315.289
315.061
314.853
314.701
308.837
308.928
309.052
309.189
309.33
309.468
309.595
309.701
309.778
309.819
309.819
309.778
309.701
309.595
309.468
309.33
309.189
309.052
308.928
308.837
302.963
302.994
303.035
303.081
303.129
303.175
303.217
303.253
303.279
303.292
303.292
303.279
303.253
303.217
303.175
303.129
303.081
303.035
302.994
302.963
344.108
344.593
345.21
345.879
346.565
347.235
347.851
348.369
348.745
348.943
348.943
348.745
348.369
347.851
347.235
346.565
345.879
345.21
344.593
344.108
338.329
338.74
339.272
339.851
340.445
341.025
341.558
342.005
342.33
342.501
342.501
342.33
342.005
341.558
341.025
340.445
339.851
339.272
338.74
338.329
332.508
332.849
333.297
333.787
334.289
334.779
335.228
335.606
335.88
336.025
336.025
335.88
335.606
335.228
334.779
334.289
333.787
333.297
332.849
332.508
326.651
326.925
327.291
327.691
328.101
328.502
328.869
329.178
329.401
329.519
329.519
329.401
329.178
328.869
328.502
328.101
327.691
327.291
326.925
326.651
320.765
320.975
321.259
321.569
321.888
322.2
322.485
322.725
322.899
322.99
322.99
322.899
322.725
322.485
322.2
321.888
321.569
321.259
320.975
320.765
314.855
315.004
315.206
315.428
315.656
315.878
316.082
316.253
316.377
316.443
316.443
316.377
316.253
316.082
315.878
315.656
315.428
315.206
315.004
314.855
308.93
309.019
309.14
309.273
309.41
309.543
309.666
309.768
309.843
309.882
309.882
309.843
309.768
309.666
309.543
309.41
309.273
309.14
309.019
308.93
302.994
303.024
303.065
303.109
303.155
303.2
303.241
303.275
303.3
303.313
303.313
303.3
303.275
303.241
303.2
303.155
303.109
303.065
303.024
302.994
344.723
345.193
345.79
346.435
347.095
347.737
348.326
348.819
349.177
349.366
349.366
349.177
348.819
348.326
347.737
347.095
346.435
345.79
345.193
344.723
338.864
339.262
339.776
340.335
340.906
341.462
341.971
342.398
342.707
342.869
342.869
342.707
342.398
341.971
341.462
340.906
340.335
339.776
339.262
338.864
332.961
333.291
333.725
334.197
334.68
335.149
335.579
335.94
336.201
336.338
336.338
336.201
335.94
335.579
335.149
334.68
334.197
333.725
333.291
332.961
327.022
327.288
327.641
328.027
328.422
328.806
329.157
329.451
329.664
329.777
329.777
329.664
329.451
329.157
328.806
328.422
328.027
327.641
327.288
327.022
321.053
321.257
321.532
321.831
322.138
322.437
322.71
322.938
323.104
323.191
323.191
323.104
322.938
322.71
322.437
322.138
321.831
321.532
321.257
321.053
315.062
315.206
315.402
315.616
315.835
316.048
316.243
316.406
316.524
316.586
316.586
316.524
316.406
316.243
316.048
315.835
315.616
315.402
315.206
315.062
309.054
309.14
309.257
309.386
309.517
309.645
309.762
309.86
309.931
309.969
309.969
309.931
309.86
309.762
309.645
309.517
309.386
309.257
309.14
309.054
303.036
303.065
303.104
303.147
303.191
303.234
303.273
303.306
303.33
303.342
303.342
303.33
303.306
303.273
303.234
303.191
303.147
303.104
303.065
303.036
345.496
345.949
346.522
347.139
347.767
348.377
348.934
349.4
349.736
349.913
349.913
349.736
349.4
348.934
348.377
347.767
347.139
346.522
345.949
345.496
339.535
339.918
340.412
340.946
341.49
342.018
342.5
342.903
343.194
343.347
343.347
343.194
342.903
342.5
342.018
341.49
340.946
340.412
339.918
339.535
333.53
333.848
334.264
334.715
335.175
335.622
336.029
336.369
336.614
336.743
336.743
336.614
336.369
336.029
335.622
335.175
334.715
334.264
333.848
333.53
327.488
327.744
328.083
328.452
328.828
329.193
329.526
329.804
330.004
330.11
330.11
330.004
329.804
329.526
329.193
328.828
328.452
328.083
327.744
327.488
321.416
321.613
321.876
322.163
322.455
322.739
322.997
323.213
323.369
323.451
323.451
323.369
323.213
322.997
322.739
322.455
322.163
321.876
321.613
321.416
315.321
315.46
315.648
315.853
316.062
316.264
316.449
316.603
316.714
316.773
316.773
316.714
316.603
316.449
316.264
316.062
315.853
315.648
315.46
315.321
309.21
309.293
309.405
309.528
309.654
309.775
309.886
309.979
310.045
310.08
310.08
310.045
309.979
309.886
309.775
309.654
309.528
309.405
309.293
309.21
303.088
303.116
303.154
303.195
303.237
303.278
303.315
303.346
303.368
303.38
303.38
303.368
303.346
303.315
303.278
303.237
303.195
303.154
303.116
303.088
346.429
346.862
347.408
347.993
348.587
349.161
349.683
350.119
350.432
350.597
350.597
350.432
350.119
349.683
349.161
348.587
347.993
347.408
346.862
346.429
340.345
340.711
341.182
341.689
342.203
342.7
343.152
343.528
343.799
343.942
343.942
343.799
343.528
343.152
342.7
342.203
341.689
341.182
340.711
340.345
334.216
334.52
334.916
335.345
335.78
336.2
336.582
336.9
337.129
337.249
337.249
337.129
336.9
336.582
336.2
335.78
335.345
334.916
334.52
334.216
328.05
328.295
328.618
328.968
329.324
329.668
329.98
330.239
330.427
330.525
330.525
330.427
330.239
329.98
329.668
329.324
328.968
328.618
328.295
328.05
321.854
322.042
322.293
322.565
322.841
323.108
323.351
323.553
323.698
323.775
323.775
323.698
323.553
323.351
323.108
322.841
322.565
322.293
322.042
321.854
315.634
315.767
315.946
316.14
316.338
316.529
316.702
316.846
316.95
317.004
317.004
316.95
316.846
316.702
316.529
316.338
316.14
315.946
315.767
315.634
309.398
309.477
309.584
309.701
309.82
309.934
310.038
310.125
310.187
310.22
310.22
310.187
310.125
310.038
309.934
309.82
309.701
309.584
309.477
309.398
303.151
303.178
303.214
303.253
303.293
303.331
303.366
303.395
303.416
303.427
303.427
303.416
303.395
303.366
303.331
303.293
303.253
303.214
303.178
303.151
347.524
347.935
348.452
349.004
349.561
350.097
350.582
350.985
351.275
351.427
351.427
351.275
350.985
350.582
350.097
349.561
349.004
348.452
347.935
347.524
341.295
341.643
342.089
342.567
343.049
343.513
343.934
344.282
344.533
344.664
344.664
344.533
344.282
343.934
343.513
343.049
342.567
342.089
341.643
341.295
335.022
335.31
335.686
336.09
336.498
336.89
337.245
337.54
337.752
337.863
337.863
337.752
337.54
337.245
336.89
336.498
336.09
335.686
335.31
335.022
328.71
328.942
329.248
329.579
329.912
330.233
330.524
330.765
330.938
331.028
331.028
330.938
330.765
330.524
330.233
329.912
329.579
329.248
328.942
328.71
322.368
322.546
322.784
323.04
323.3
323.549
323.775
323.962
324.097
324.167
324.167
324.097
323.962
323.775
323.549
323.3
323.04
322.784
322.546
322.368
316.002
316.128
316.297
316.481
316.666
316.844
317.005
317.139
317.235
317.285
317.285
317.235
317.139
317.005
316.844
316.666
316.481
316.297
316.128
316.002
309.619
309.694
309.796
309.906
310.017
310.124
310.221
310.301
310.359
310.389
310.389
310.359
310.301
310.221
310.124
310.017
309.906
309.796
309.694
309.619
303.225
303.251
303.285
303.322
303.359
303.395
303.427
303.454
303.473
303.483
303.483
303.473
303.454
303.427
303.395
303.359
303.322
303.285
303.251
303.225
348.783
349.172
349.657
350.174
350.694
351.191
351.639
352.009
352.275
352.414
352.414
352.275
352.009
351.639
351.191
350.694
350.174
349.657
349.172
348.783
342.388
342.717
343.136
343.584
344.034
344.464
344.852
345.173
345.402
345.523
345.523
345.402
345.173
344.852
344.464
344.034
343.584
343.136
342.717
342.388
335.948
336.22
336.574
336.952
337.332
337.696
338.024
338.295
338.49
338.591
338.591
338.49
338.295
338.024
337.696
337.332
336.952
336.574
336.22
335.948
329.469
329.688
329.976
330.286
330.597
330.895
331.163
331.384
331.543
331.626
331.626
331.543
331.384
331.163
330.895
330.597
330.286
329.976
329.688
329.469
322.959
323.127
323.351
323.591
323.833
324.065
324.273
324.445
324.569
324.633
324.633
324.569
324.445
324.273
324.065
323.833
323.591
323.351
323.127
322.959
316.424
316.544
316.703
316.875
317.047
317.213
317.362
317.485
317.573
317.619
317.619
317.573
317.485
317.362
317.213
317.047
316.875
316.703
316.544
316.424
309.873
309.944
310.039
310.142
310.246
310.346
310.435
310.509
310.562
310.589
310.589
310.562
310.509
310.435
310.346
310.246
310.142
310.039
309.944
309.873
303.311
303.334
303.366
303.401
303.436
303.469
303.499
303.524
303.541
303.551
303.551
303.541
303.524
303.499
303.469
303.436
303.401
303.366
303.334
303.311
350.209
350.574
351.029
351.51
351.991
352.449
352.86
353.198
353.44
353.566
353.566
353.44
353.198
352.86
352.449
351.991
351.51
351.029
350.574
350.209
343.626
343.935
344.327
344.744
345.161
345.557
345.913
346.206
346.415
346.525
346.525
346.415
346.206
345.913
345.557
345.161
344.744
344.327
343.935
343.626
336.997
337.253
337.584
337.936
338.288
338.624
338.925
339.172
339.349
339.442
339.442
339.349
339.172
338.925
338.624
338.288
337.936
337.584
337.253
336.997
330.328
330.535
330.804
331.092
331.38
331.655
331.901
332.104
332.248
332.324
332.324
332.248
332.104
331.901
331.655
331.38
331.092
330.804
330.535
330.328
323.628
323.786
323.995
324.219
324.444
324.657
324.848
325.006
325.118
325.177
325.177
325.118
325.006
324.848
324.657
324.444
324.219
323.995
323.786
323.628
316.903
317.015
317.164
317.324
317.484
317.637
317.773
317.886
317.966
318.008
318.008
317.966
317.886
317.773
317.637
317.484
317.324
317.164
317.015
316.903
310.16
310.227
310.316
310.413
310.509
310.6
310.682
310.75
310.798
310.823
310.823
310.798
310.75
310.682
310.6
310.509
310.413
310.316
310.227
310.16
303.407
303.429
303.459
303.492
303.524
303.554
303.582
303.605
303.621
303.629
303.629
303.621
303.605
303.582
303.554
303.524
303.492
303.459
303.429
303.407
351.804
352.146
352.569
353.014
353.457
353.877
354.252
354.559
354.778
354.892
354.892
354.778
354.559
354.252
353.877
353.457
353.014
352.569
352.146
351.804
345.011
345.3
345.665
346.051
346.435
346.798
347.123
347.389
347.579
347.677
347.677
347.579
347.389
347.123
346.798
346.435
346.051
345.665
345.3
345.011
338.17
338.41
338.718
339.044
339.369
339.676
339.951
340.176
340.336
340.42
340.42
340.336
340.176
339.951
339.676
339.369
339.044
338.718
338.41
338.17
331.29
331.483
331.733
332
332.266
332.518
332.742
332.926
333.057
333.126
333.126
333.057
332.926
332.742
332.518
332.266
332
331.733
331.483
331.29
324.377
324.525
324.719
324.927
325.133
325.329
325.504
325.647
325.749
325.802
325.802
325.749
325.647
325.504
325.329
325.133
324.927
324.719
324.525
324.377
317.438
317.543
317.682
317.83
317.978
318.118
318.242
318.345
318.417
318.455
318.455
318.417
318.345
318.242
318.118
317.978
317.83
317.682
317.543
317.438
310.482
310.544
310.628
310.717
310.805
310.889
310.964
311.026
311.07
311.092
311.092
311.07
311.026
310.964
310.889
310.805
310.717
310.628
310.544
310.482
303.515
303.536
303.564
303.593
303.623
303.651
303.677
303.697
303.712
303.719
303.719
303.712
303.697
303.677
303.651
303.623
303.593
303.564
303.536
303.515
353.57
353.888
354.28
354.691
355.097
355.48
355.82
356.098
356.295
356.398
356.398
356.295
356.098
355.82
355.48
355.097
354.691
354.28
353.888
353.57
346.544
346.813
347.151
347.507
347.86
348.191
348.486
348.727
348.897
348.986
348.986
348.897
348.727
348.486
348.191
347.86
347.507
347.151
346.813
346.544
339.47
339.693
339.978
340.279
340.577
340.857
341.107
341.31
341.455
341.53
341.53
341.455
341.31
341.107
340.857
340.577
340.279
339.978
339.693
339.47
332.354
332.534
332.766
333.012
333.256
333.486
333.69
333.856
333.975
334.036
334.036
333.975
333.856
333.69
333.486
333.256
333.012
332.766
332.534
332.354
325.205
325.343
325.524
325.715
325.905
326.083
326.242
326.372
326.464
326.511
326.511
326.464
326.372
326.242
326.083
325.905
325.715
325.524
325.343
325.205
318.031
318.128
318.257
318.394
318.529
318.657
318.77
318.863
318.929
318.963
318.963
318.929
318.863
318.77
318.657
318.529
318.394
318.257
318.128
318.031
310.838
310.896
310.974
311.056
311.137
311.214
311.282
311.337
311.377
311.397
311.397
311.377
311.337
311.282
311.214
311.137
311.056
310.974
310.896
310.838
303.634
303.654
303.68
303.707
303.734
303.76
303.783
303.802
303.815
303.822
303.822
303.815
303.802
303.783
303.76
303.734
303.707
303.68
303.654
303.634
355.508
355.803
356.165
356.543
356.914
357.262
357.569
357.819
357.996
358.088
358.088
357.996
357.819
357.569
357.262
356.914
356.543
356.165
355.803
355.508
348.227
348.476
348.789
349.116
349.437
349.739
350.005
350.222
350.376
350.455
350.455
350.376
350.222
350.005
349.739
349.437
349.116
348.789
348.476
348.227
340.895
341.102
341.366
341.642
341.914
342.169
342.395
342.578
342.708
342.776
342.776
342.708
342.578
342.395
342.169
341.914
341.642
341.366
341.102
340.895
333.522
333.689
333.903
334.13
334.352
334.561
334.746
334.896
335.002
335.057
335.057
335.002
334.896
334.746
334.561
334.352
334.13
333.903
333.689
333.522
326.115
326.243
326.409
326.585
326.759
326.921
327.065
327.181
327.264
327.307
327.307
327.264
327.181
327.065
326.921
326.759
326.585
326.409
326.243
326.115
318.681
318.772
318.891
319.016
319.14
319.256
319.359
319.442
319.501
319.532
319.532
319.501
319.442
319.359
319.256
319.14
319.016
318.891
318.772
318.681
311.229
311.283
311.354
311.43
311.504
311.574
311.635
311.686
311.721
311.739
311.739
311.721
311.686
311.635
311.574
311.504
311.43
311.354
311.283
311.229
303.765
303.783
303.807
303.833
303.857
303.881
303.902
303.918
303.93
303.936
303.936
303.93
303.918
303.902
303.881
303.857
303.833
303.807
303.783
303.765
357.618
357.891
358.224
358.57
358.908
359.223
359.5
359.725
359.883
359.966
359.966
359.883
359.725
359.5
359.223
358.908
358.57
358.224
357.891
357.618
350.058
350.289
350.577
350.876
351.169
351.442
351.682
351.877
352.015
352.086
352.086
352.015
351.877
351.682
351.442
351.169
350.876
350.577
350.289
350.058
342.447
342.638
342.881
343.134
343.382
343.613
343.817
343.982
344.098
344.158
344.158
344.098
343.982
343.817
343.613
343.382
343.134
342.881
342.638
342.447
334.793
334.947
335.145
335.352
335.555
335.744
335.911
336.046
336.141
336.19
336.19
336.141
336.046
335.911
335.744
335.555
335.352
335.145
334.947
334.793
327.105
327.223
327.376
327.537
327.695
327.843
327.972
328.077
328.151
328.189
328.189
328.151
328.077
327.972
327.843
327.695
327.537
327.376
327.223
327.105
319.389
319.473
319.582
319.697
319.81
319.915
320.008
320.083
320.136
320.163
320.163
320.136
320.083
320.008
319.915
319.81
319.697
319.582
319.473
319.389
311.654
311.704
311.77
311.839
311.907
311.97
312.026
312.071
312.102
312.119
312.119
312.102
312.071
312.026
311.97
311.907
311.839
311.77
311.704
311.654
303.908
303.925
303.947
303.97
303.993
304.014
304.032
304.047
304.058
304.064
304.064
304.058
304.047
304.032
304.014
303.993
303.97
303.947
303.925
303.908
359.898
360.149
360.455
360.771
361.078
361.363
361.612
361.813
361.955
362.028
362.028
361.955
361.813
361.612
361.363
361.078
360.771
360.455
360.149
359.898
352.036
352.249
352.513
352.786
353.052
353.299
353.516
353.69
353.813
353.876
353.876
353.813
353.69
353.516
353.299
353.052
352.786
352.513
352.249
352.036
344.122
344.299
344.521
344.753
344.978
345.187
345.37
345.518
345.622
345.675
345.675
345.622
345.518
345.37
345.187
344.978
344.753
344.521
344.299
344.122
336.165
336.307
336.489
336.678
336.862
337.034
337.183
337.304
337.389
337.433
337.433
337.389
337.304
337.183
337.034
336.862
336.678
336.489
336.307
336.165
328.173
328.282
328.423
328.57
328.713
328.846
328.963
329.057
329.123
329.157
329.157
329.123
329.057
328.963
328.846
328.713
328.57
328.423
328.282
328.173
320.153
320.23
320.33
320.435
320.538
320.633
320.716
320.784
320.831
320.855
320.855
320.831
320.784
320.716
320.633
320.538
320.435
320.33
320.23
320.153
312.113
312.159
312.219
312.282
312.344
312.401
312.451
312.492
312.52
312.535
312.535
312.52
312.492
312.451
312.401
312.344
312.282
312.219
312.159
312.113
304.062
304.077
304.097
304.118
304.139
304.158
304.175
304.189
304.198
304.203
304.203
304.198
304.189
304.175
304.158
304.139
304.118
304.097
304.077
304.062
362.336
362.567
362.848
363.136
363.414
363.671
363.895
364.075
364.201
364.267
364.267
364.201
364.075
363.895
363.671
363.414
363.136
362.848
362.567
362.336
354.15
354.346
354.588
354.837
355.079
355.302
355.496
355.652
355.762
355.818
355.818
355.762
355.652
355.496
355.302
355.079
354.837
354.588
354.346
354.15
345.912
346.074
346.278
346.489
346.694
346.882
347.047
347.179
347.272
347.32
347.32
347.272
347.179
347.047
346.882
346.694
346.489
346.278
346.074
345.912
337.63
337.761
337.927
338.1
338.267
338.421
338.556
338.664
338.74
338.779
338.779
338.74
338.664
338.556
338.421
338.267
338.1
337.927
337.761
337.63
329.312
329.413
329.542
329.676
329.806
329.926
330.031
330.115
330.174
330.205
330.205
330.174
330.115
330.031
329.926
329.806
329.676
329.542
329.413
329.312
320.967
321.038
321.13
321.226
321.319
321.405
321.48
321.54
321.582
321.604
321.604
321.582
321.54
321.48
321.405
321.319
321.226
321.13
321.038
320.967
312.602
312.645
312.7
312.757
312.813
312.865
312.91
312.946
312.972
312.985
312.985
312.972
312.946
312.91
312.865
312.813
312.757
312.7
312.645
312.602
304.226
304.24
304.258
304.278
304.296
304.314
304.329
304.341
304.349
304.354
304.354
304.349
304.341
304.329
304.314
304.296
304.278
304.258
304.24
304.226
364.906
365.119
365.376
365.638
365.89
366.122
366.323
366.485
366.597
366.655
366.655
366.597
366.485
366.323
366.122
365.89
365.638
365.376
365.119
364.906
356.375
356.555
356.776
357.004
357.222
357.424
357.598
357.738
357.836
357.886
357.886
357.836
357.738
357.598
357.424
357.222
357.004
356.776
356.555
356.375
347.792
347.941
348.128
348.32
348.506
348.676
348.824
348.942
349.025
349.068
349.068
349.025
348.942
348.824
348.676
348.506
348.32
348.128
347.941
347.792
339.166
339.286
339.439
339.596
339.748
339.887
340.008
340.105
340.173
340.208
340.208
340.173
340.105
340.008
339.887
339.748
339.596
339.439
339.286
339.166
330.506
330.598
330.717
330.839
330.957
331.066
331.16
331.235
331.288
331.315
331.315
331.288
331.235
331.16
331.066
330.957
330.839
330.717
330.598
330.506
321.82
321.885
321.969
322.056
322.141
322.219
322.286
322.34
322.378
322.397
322.397
322.378
322.34
322.286
322.219
322.141
322.056
321.969
321.885
321.82
313.114
313.153
313.203
313.256
313.307
313.353
313.394
313.426
313.449
313.461
313.461
313.449
313.426
313.394
313.353
313.307
313.256
313.203
313.153
313.114
304.397
304.41
304.427
304.445
304.462
304.477
304.491
304.502
304.509
304.513
304.513
304.509
304.502
304.491
304.477
304.462
304.445
304.427
304.41
304.397
367.541
367.737
367.972
368.211
368.441
368.65
368.831
368.976
369.077
369.129
369.129
369.077
368.976
368.831
368.65
368.441
368.211
367.972
367.737
367.541
358.644
358.81
359.013
359.221
359.42
359.601
359.759
359.884
359.972
360.017
360.017
359.972
359.884
359.759
359.601
359.42
359.221
359.013
358.81
358.644
349.702
349.839
350.011
350.186
350.355
350.509
350.642
350.749
350.823
350.861
350.861
350.823
350.749
350.642
350.509
350.355
350.186
350.011
349.839
349.702
340.722
340.832
340.972
341.116
341.254
341.38
341.489
341.576
341.637
341.668
341.668
341.637
341.576
341.489
341.38
341.254
341.116
340.972
340.832
340.722
331.711
331.796
331.905
332.016
332.124
332.222
332.307
332.375
332.423
332.447
332.447
332.423
332.375
332.307
332.222
332.124
332.016
331.905
331.796
331.711
322.678
322.738
322.815
322.895
322.972
323.043
323.103
323.152
323.186
323.203
323.203
323.186
323.152
323.103
323.043
322.972
322.895
322.815
322.738
322.678
313.629
313.664
313.711
313.759
313.805
313.847
313.884
313.913
313.933
313.944
313.944
313.933
313.913
313.884
313.847
313.805
313.759
313.711
313.664
313.629
304.57
304.581
304.597
304.613
304.629
304.643
304.655
304.665
304.672
304.675
304.675
304.672
304.665
304.655
304.643
304.629
304.613
304.597
304.581
304.57
370.069
370.25
370.467
370.686
370.896
371.087
371.252
371.383
371.474
371.52
371.52
371.474
371.383
371.252
371.087
370.896
370.686
370.467
370.25
370.069
360.795
360.949
361.136
361.327
361.509
361.675
361.818
361.932
362.011
362.052
362.052
362.011
361.932
361.818
361.675
361.509
361.327
361.136
360.949
360.795
351.492
351.62
351.778
351.94
352.094
352.235
352.357
352.453
352.52
352.555
352.555
352.52
352.453
352.357
352.235
352.094
351.94
351.778
351.62
351.492
342.166
342.269
342.398
342.531
342.657
342.773
342.872
342.952
343.007
343.035
343.035
343.007
342.952
342.872
342.773
342.657
342.531
342.398
342.269
342.166
332.822
332.901
333.001
333.105
333.203
333.293
333.371
333.433
333.476
333.498
333.498
333.476
333.433
333.371
333.293
333.203
333.105
333.001
332.901
332.822
323.465
323.521
323.592
323.666
323.737
323.801
323.857
323.901
323.932
323.948
323.948
323.932
323.901
323.857
323.801
323.737
323.666
323.592
323.521
323.465
314.098
314.132
314.175
314.219
314.262
314.3
314.334
314.36
314.379
314.388
314.388
314.379
314.36
314.334
314.3
314.262
314.219
314.175
314.132
314.098
304.727
304.738
304.752
304.767
304.781
304.794
304.805
304.814
304.821
304.824
304.824
304.821
304.814
304.805
304.794
304.781
304.767
304.752
304.738
304.727
372.043
372.213
372.417
372.623
372.82
372.998
373.151
373.272
373.357
373.4
373.4
373.357
373.272
373.151
372.998
372.82
372.623
372.417
372.213
372.043
362.412
362.557
362.733
362.913
363.084
363.239
363.373
363.479
363.553
363.591
363.591
363.553
363.479
363.373
363.239
363.084
362.913
362.733
362.557
362.412
352.797
352.917
353.067
353.22
353.365
353.497
353.611
353.701
353.764
353.796
353.796
353.764
353.701
353.611
353.497
353.365
353.22
353.067
352.917
352.797
343.193
343.29
343.413
343.538
343.658
343.766
343.86
343.934
343.985
344.012
344.012
343.985
343.934
343.86
343.766
343.658
343.538
343.413
343.29
343.193
333.597
333.672
333.767
333.865
333.958
334.043
334.116
334.174
334.214
334.235
334.235
334.214
334.174
334.116
334.043
333.958
333.865
333.767
333.672
333.597
324.007
324.059
324.128
324.198
324.264
324.325
324.377
324.419
324.448
324.462
324.462
324.448
324.419
324.377
324.325
324.264
324.198
324.128
324.059
324.007
314.419
314.451
314.492
314.534
314.574
314.61
314.642
314.667
314.684
314.693
314.693
314.684
314.667
314.642
314.61
314.574
314.534
314.492
314.451
314.419
304.833
304.844
304.858
304.872
304.885
304.897
304.908
304.916
304.922
304.925
304.925
304.922
304.916
304.908
304.897
304.885
304.872
304.858
304.844
304.833
)
;

boundaryField
{
    hotSide
    {
        type            fixedGradient;
        gradient        nonuniform List<scalar> 
400
(
448.624
450.227
453.439
458.27
464.735
472.853
482.647
494.138
507.352
522.314
539.046
557.572
577.911
600.082
624.101
649.981
677.735
707.372
738.898
772.32
455.317
456.867
459.975
464.654
470.925
478.813
488.347
499.556
512.473
527.128
543.551
561.77
581.809
603.689
627.43
653.047
680.553
709.958
741.268
774.491
462.56
464.047
467.03
471.53
477.572
485.189
494.418
505.3
517.874
532.178
548.251
566.124
585.828
607.387
630.824
656.155
683.393
712.55
743.632
776.645
470.233
471.646
474.486
478.777
484.554
491.86
500.743
511.254
523.442
537.356
553.041
570.536
589.876
611.09
634.202
659.23
686.189
715.088
745.934
778.731
478.122
479.453
482.131
486.188
491.67
498.632
507.134
517.238
529.009
542.503
557.775
574.87
593.83
614.685
637.463
662.182
688.857
717.498
748.109
780.694
485.898
487.14
489.645
493.454
498.624
505.222
513.324
523.007
534.345
547.41
562.262
578.956
597.535
618.036
640.486
664.904
691.306
719.698
750.086
782.47
493.116
494.269
496.602
500.164
505.024
511.264
518.975
528.248
539.171
551.824
566.277
582.592
600.816
620.988
643.135
667.279
693.432
721.601
751.788
783.993
499.242
500.315
502.493
505.833
510.416
516.338
523.702
532.614
543.173
555.468
569.578
585.567
603.489
623.382
645.276
669.19
695.136
723.12
753.142
785.201
503.725
504.737
506.796
509.966
514.338
520.019
527.122
535.763
546.049
558.078
571.933
587.683
605.383
625.073
646.783
670.531
696.329
724.18
754.085
786.04
506.101
507.079
509.073
512.151
516.409
521.959
528.921
537.415
547.555
559.442
573.161
588.784
606.366
625.949
647.562
671.223
696.943
724.726
754.57
786.47
506.101
507.079
509.073
512.151
516.409
521.959
528.921
537.415
547.555
559.442
573.161
588.784
606.366
625.949
647.562
671.223
696.943
724.726
754.57
786.47
503.725
504.737
506.796
509.966
514.338
520.019
527.122
535.763
546.049
558.078
571.933
587.683
605.383
625.073
646.783
670.531
696.329
724.18
754.085
786.04
499.242
500.315
502.493
505.833
510.416
516.338
523.702
532.614
543.173
555.468
569.578
585.567
603.489
623.382
645.276
669.19
695.136
723.12
753.142
785.201
493.116
494.269
496.602
500.164
505.024
511.264
518.975
528.248
539.171
551.824
566.277
582.592
600.816
620.988
643.135
667.279
693.432
721.601
751.788
783.993
485.898
487.14
489.645
493.454
498.624
505.222
513.324
523.007
534.345
547.41
562.262
578.956
597.535
618.036
640.486
664.904
691.306
719.698
750.086
782.47
478.122
479.453
482.131
486.188
491.67
498.632
507.134
517.238
529.009
542.503
557.775
574.87
593.83
614.685
637.463
662.182
688.857
717.498
748.109
780.694
470.233
471.646
474.486
478.777
484.554
491.86
500.743
511.254
523.442
537.356
553.041
570.536
589.876
611.09
634.202
659.23
686.189
715.088
745.934
778.731
462.56
464.047
467.03
471.53
477.572
485.189
494.418
505.3
517.874
532.178
548.251
566.124
585.828
607.387
630.824
656.155
683.393
712.55
743.632
776.645
455.317
456.867
459.975
464.654
470.925
478.813
488.347
499.556
512.473
527.128
543.551
561.77
581.809
603.689
627.43
653.047
680.553
709.958
741.268
774.491
448.624
450.227
453.439
458.27
464.735
472.853
482.647
494.138
507.352
522.314
539.046
557.572
577.911
600.082
624.101
649.981
677.735
707.372
738.898
772.32
)
;
    }
    coldSide
    {
        type            mixed;
        refValue        uniform 300;
        refGradient     uniform 0;
        valueFraction   uniform 0.991591;
        source          uniform 0;
        value           nonuniform List<scalar> 
400
(
300.025
300.025
300.025
300.025
300.026
300.026
300.027
300.027
300.028
300.029
300.03
300.031
300.032
300.033
300.034
300.036
300.037
300.038
300.04
300.041
300.025
300.025
300.025
300.025
300.026
300.026
300.027
300.027
300.028
300.029
300.03
300.031
300.032
300.033
300.034
300.036
300.037
300.039