/*--------------------------------*- C++ -*----------------------------------*\
| =========                 |                                                 |
| \\      /  F ield         | OpenFOAM: The Open Source CFD Toolbox           |
|  \\    /   O peration     | Version:  2212                                  |
|   \\  /    A nd           | Website:  www.openfoam.com                      |
|    \\/     M anipulation  |                                                 |
\*---------------------------------------------------------------------------*/
FoamFile
{
    version     2.0;
    format      ascii;
    arch        "LSB;label=32;scalar=64";
    class       volScalarField;
    location    "0";
    object      stateMean;
}
// * * * * * * * * * * * * * * * * * * * * * * * * * * * * * * * * * * * * * //

dimensions      [0 0 0 1 0 0 0];

internalField   nonuniform List<scalar> 
3200
(
346.782
347.363
348.097
345.35
345.834
348.12
349.411
349.059
348.873
349.558
350.736
348.731
348.33
347.239
349.42
348.044
345.78
342.938
345.185
344.806
341.131
341.105
339.707
340.217
341.444
340.777
341.583
341.951
343.328
344.08
342.935
344.274
341.566
340.203
341.161
341.094
339.269
339.893
340.597
341.083
336.804
333.565
334.492
332.521
333.369
337.214
335.469
337.513
337.384
336.771
336.149
336.012
338.153
333.382
336.157
336.013
334.5
333.4
335.894
334.511
328.83
328.76
326.896
327.634
329.675
331.031
330.254
329.984
330.898
331.912
329.337
328.739
331.973
327.746
329.485
329.267
327.314
327.706
327.337
326.49
321.775
323.447
320.905
321.583
321.273
322.922
324.398
322.011
323.491
326.629
322.538
323.414
323.372
322.335
322.977
321.376
322.561
321.604
320.164
321.017
315.148
313.191
316.312
315.076
315.819
315.001
316.246
317.121
318.485
316.181
315.797
316.424
314.977
315.697
316.843
314.446
316.424
315.334
315.813
315.624
310.561
310.927
310.166
309.165
309.154
311.219
309.867
307.054
308.771
310.11
311.863
308.989
311.724
311.065
308.569
308.909
310.194
308.649
307.075
309.436
305.56
304.89
301.153
303.342
302.228
302.224
304.388
302.979
304.81
302.205
303.069
302.789
304.597
304.179
300.722
303.947
302.97
302.5
302.545
303.623
345.632
346.967
344.072
346.973
346.506
347.821
350.318
348.548
352.058
351.071
351.575
349.865
349.232
349.452
347.933
346.557
345.555
346.33
346.157
344.36
339.552
339.104
340.446
340.909
340.734
343.933
343.263
345.705
345.866
346.729
347.657
343.666
345.82
344.295
343.939
341.036
341.16
338.853
339.185
341.878
338.422
333.243
334.919
333.903
335.773
335.694
334.946
337.54
337.981
338.599
337.522
338.309
336.942
333.478
335.022
333.95
332.721
335.396
334.112
332.532
327.817
324.219
328.623
329.013
326.469
329.921
330.228
330.863
329.557
332.104
330.813
330.43
330.127
328.71
329.079
327.747
327.387
327.089
327.613
326.834
320.881
320.978
322.18
324.334
322.979
323.474
323.102
322.745
325.215
323.671
323.884
325.196
324.238
323.548
323.84
320.645
320.986
321.168
321.012
322.369
319.195
316.406
314.58
316.11
314.625
317.792
315.602
315.063
316.736
318.959
317.615
316.744
314.733
318.545
316.608
316.968
313.79
313.98
315.61
315.629
308.612
307.661
309.093
309.071
308.359
309.14
309.565
310.625
311.017
312.412
311.933
309.524
310.194
309.787
312.884
308.614
309.885
309.406
307.623
307.03
303.404
302.966
302.897
302.342
303.552
304.767
303.47
303.375
303.526
305.56
302.128
304.709
303.709
302.749
302.79
302.473
300.318
303.485
304.683
304.343
347.47
345.645
346.499
347.857
347.395
346.629
348.645
350.335
351.833
351.836
352.398
350.642
351.872
349.355
349.499
346.052
348.1
344.741
347.702
345.013
343.53
341.478
341.454
338.344
341.04
342.038
341.965
344.062
343.807
342.55
344.216
344.969
344.999
343.36
341.139
338.518
340.596
340.372
340.483
340.94
336.439
333.694
334.824
335.161
333.643
335.789
336.831
336.849
336.137
335.701
335.759
336.614
336.997
336.074
334.243
333.635
330.91
332.282
335.088
334.406
328.598
327.137
329.832
330.173
328.97
330.384
330.275
330.196
329.837
331.743
332.494
330.977
330.071
330.977
328.481
326.954
328.019
327.412
325.37
328.408
322.118
320.78
322.167
321.263
323.007
324.352
323.312
323.017
323.492
324.691
324.025
323.212
324.638
323.776
320.353
321.441
319.613
322.421
321.704
321.553
315.325
313.817
313.038
315.467
317
317.566
316.013
317.946
316.16
315.775
315.843
319.232
316.557
315.19
315.803
316.451
313.5
316.8
317.453
315.011
309.42
309.951
309.713
309.2
310.872
309.802
310.42
308.698
308.447
311.41
308.521
309.169
311.115
309.945
308.387
310.563
308.17
310.034
310.788
310.422
305.82
301.244
304.677
303.57
302.161
303.029
301.974
303.44
304.089
302.75
303
303.138
303.433
305.331
304.174
302.992
303.635
302.395
302.911
304.133
348.233
348.527
344.97
347.535
345.996
348.435
349.828
347.137
350.676
353.1
354.247
351.371
352.01
350.093
349.169
347.546
345.01
344.177
346.884
344.156
342.029
339.66
342.353
341.655
343.346
344.126
344.757
346.438
344.105
347.457
346.948
345.155
346.211
344.555
344.391
342.937
341.343
340.226
339.496
339.436
335.523
338.416
336.714
335.491
333.375
336.754
336.582
338.673
338.103
338.43
338.62
338.716
336.344
339.602
333.875
335.152
334.822
334.145
335.748
335.368
329.938
328.656
330.416
328.423
329.297
329.816
330.224
329.969
329.518
331.626
331.396
332.718
332.885
330.572
330.538
327.444
327.533
326.071
327.172
327.546
322.943
322.188
321.882
321.601
321.658
323.586
326.283
322.459
323.06
323.947
323.411
323.391
322.99
322.569
325.743
321.719
321.578
323.424
321.618
321.067
317.942
316.16
316.503
317.069
316.651
314.443
316.468
317.369
316.797
319.638
316.861
317.164
319.774
315.29
318.22
316.322
317.849
316.238
314.488
315.42
308.663
309.705
308.42
309.075
310.731
311.341
312.021
309.502
308.831
309.73
306.116
310.915
310.518
311.625
310.447
309.289
307.659
306.607
310.607
308.361
301.618
302.425
302.725
303.451
303.393
304.937
304.352
303.916
302.148
302.965
302.401
302.881
300.629
304.171
304.099
302.152
305.976
304.457
302.55
303.793
347.542
349.047
345.981
344.553
350.126
350.318
350.691
351.333
354.57
352.191
354.237
352.681
350.208
347.893
349.369
346.175
345.333
346.015
345.831
347.132
340.29
341.933
340.328
341.56
342.164
343.258
343.638
345.406
345.268
345.575
345.242
347.118
343.291
344.18
343.238
341.713
342.956
338.81
340.006
340.919
334.665
335.862
336.366
335.254
336.62
338.926
335.974
335.854
339.446
339.013
338.099
340.286
336.955
336.338
337.079
336.91
337.696
333.548
333.641
333.425
330.282
329.152
327.997
329.811
331.052
331.868
332.692
332.431
331.381
331.281
333.017
333.544
331.487
330.852
329.638
328.702
328.027
328.052
328.338
327.568
324.33
321.86
321.811
324.968
323.743
324.157
324.505
323.404
323.892
326.473
328.383
325.15
324.67
323.921
322.886
325.054
322.608
321.986
320.771
323.142
317.015
316.476
316.636
314.82
313.666
315.134
316.997
316.871
317.234
318.512
317.842
317.97
318.15
318.344
314.057
317.768
314.964
315.028
315.497
315.827
309.108
308.625
309.432
310.612
308.494
311.039
308.51
310.609
310.865
310.301
312.516
310.809
309.706
308.248
309.088
308.955
310.657
308.396
309.566
308.749
303.2
302.788
303.914
303.892
304.45
300.928
301.919
304.918
303.603
302.253
301.631
303.775
302.772
303.532
301.801
302.327
303.488
301.144
302.507
302.605
349.611
345.869
347.618
348.203
349.994
349.91
350.397
352.003
355.227
353.628
355.504
354.862
349.743
349.891
352.55
348.619
347.588
348.717
347.559
347.928
344.019
339.691
338.245
342.328
343.034
344.671
342.887
346.369
347.574
347.553
346.642
346.621
346.068
343.467
344.365
343.272
342.142
342.38
339.086
341.392
335.584
336.813
334.606
338.099
336.646
339.557
338.105
337.739
341.407
341.348
340.918
339.166
338.981
339.125
335.876
334.316
335.847
334.302
333.627
334.746
330.833
328.509
329.528
329.454
328.688
330.812
330.258
330.622
331.701
332.207
334.685
332.319
333.236
331.746
330.387
330.294
328.713
328.277
326.851
327.805
325.663
321.71
322.976
323.863
323.592
321.957
323.122
324.794
323.639
325.564
326.363
326.741
324.314
324.196
323.47
322.437
323.798
321.977
321.103
320.233
315.973
314.495
317.307
314.162
314.703
317.114
316.012
318.545
319.832
318.446
317.17
319.544
318.581
316.956
318.07
316.442
316.801
315.129
316.465
317.568
310.387
310.781
309.659
311.187
309.913
310.033
309.33
311.013
311.191
310.367
310.631
308.19
311.52
309.079
310.63
309.098
310.135
308.146
307.822
310.215
303.891
302.883
305.328
303.841
303.755
301.71
303.107
302.965
304.125
302.92
304.683
305.449
302.419
304.469
303.714
303.228
304.659
304.704
304.775
304.889
350.84
350.788
346.792
350.789
349.359
351.506
352.581
352.519
352.298
355.986
356.224
355.706
352.536
353.092
350.282
352.169
349.046
347.507
345.729
347.488
344.35
342.32
344.255
341.744
341.886
345.325
346.888
344.784
344.83
351.255
346.441
345.383
348.187
345.345
343.122
343.48
342.413
342.151
340.571
339.061
337.184
335.728
336.234
334.653
336.104
334.535
338.553
338.992
338.524
340.978
339.376
339.911
339.297
340.14
337.807
336.467
336.007
335.769
333.858
335.001
331.345
327.73
327.439
330.155
329.313
331.431
333.032
331.075
333.831
332.655
333.088
333.252
332.659
332.979
332.047
332.445
329.225
330.448
328.477
329.64
322.682
323.508
323.992
323.807
324.395
322.858
325.767
326.219
325.407
323.948
326.49
328.458
325.526
322.957
322.486
324.787
321.801
322.945
323.473
322.545
314.767
316.316
317.63
318.035
317.766
318.478
317.185
318.776
318.767
316.531
317.914
318.412
316.378
314.96
316.742
316.799
317.392
316.452
316.88
315.604
310.887
310.645
310.227
312.171
312.086
310.622
311.314
311.787
310.345
308.932
312.104
310.912
309.917
311.354
309.078
311.311
311.469
310.61
310.155
310.231
302.711
303.537
302.515
303.283
301.704
302.407
303.632
302.593
302.95
303.896
303.066
304.195
304.057
302.098
304.26
305.186
302.028
300.973
301.779
302.423
349.239
350.776
350.397
348.08
352.105
349.7
352.373
354.884
356.369
355.752
358.609
354.95
354.058
355.324
351.739
349.303
350.142
350.871
348.421
345.866
343.83
341.618
344.556
343.132
343.631
344.711
347.585
346.93
349.753
347.868
347.355
347.668
346.356
346.602
344.989
346.11
343.005
341.386
340.652
342.022
335.917
336.533
335.798
338.399
336.539
338.544
339.419
341.413
340.429
340.065
342.981
340.672
341.704
338.502
339.853
337.955
336.393
335.393
337.775
335.227
330.645
330.917
331.106
331.731
329.79
331.37
333.443
331.45
332.39
332.908
333.186
335.303
334.464
332.418
331.791
332.331
327.124
331.407
329.94
329.856
321.179
324.157
324.975
322.182
325.152
324.575
325.485
324.132
327.782
326.54
323.619
325.831
325.227
323.896
323.428
324.613
323.905
323.312
323.569
322.814
317.35
314.822
317.046
315.819
317.713
320.463
318.123
318.252
316.104
320.127
319.341
318.749
318.122
317.565
315.839
317.359
314.915
316.221
313.973
316.497
310.402
308.99
308.701
313.605
311.289
310.274
309.765
310.227
311.241
311.231
311.895
311.831
310.789
311.699
311.142
310.969
311.549
309.886
309.131
310.254
304.59
302.385
303.119
303.327
301.656
300.669
303.192
302.981
305.19
302.541
305.859
304.438
304.827
304.244
303.314
302.746
304.618
303.536
301.541
303.827
350.895
348.168
348.497
350.717
352.803
352.217
353.361
356.681
355.422
354.989
357.731
356.591
356.607
352.673
351.316
353.225
349.757
351.708
347.444
349.042
345.383
342.539
342.427
344.493
345.723
342.925
346.37
348.696
348.678
347.791
351.517
349.075
347.392
345.684
345.187
343.77
344.499
342.694
343.322
342.529
338.697
336.238
340.03
336.812
338.268
339.198
340.552
340.258
341.716
339.979
341.547
342.768
341.1
340.555
339.461
338.221
337.162
336.177
337.8
334.563
330.378
331.521
327.3
331.348
331.025
333.605
332.408
334.922
335.458
335.016
333.623
334.672
333.737
335.097
334.174
330.101
331.281
328.92
328.774
329.503
323.336
325.028
324.254
324.325
325.553
325.777
326.164
322.26
325.74
328.171
326.534
325.175
326.699
326.627
322.412
325.265
325.79
323.045
325.683
322.869
316.867
317.499
316.288
314.82
317.182
317.85
318.391
317.086
317.77
319.594
320.7
318.431
319.986
317.459
318.955
316.206
316.435
316.675
316.095
315.602
311.768
312.472
311.377
308.603
310.704
312.493
311.251
311.177
311.766
311.479
310.886
313.344
310.296
312.778
312.26
311.425
312.186
310.128
309.908
308.907
302.847
304.959
302.048
303.898
300.172
303.533
302.923
304.563
302.378
304.581
304.399
303.122
302.14
303.43
304.14
303.777
303.813
300.672
302.442
302.574
351.674
351.809
350.375
352.045
351.569
351.989
353.745
355.607
356.184
359.247
356.383
356.748
353.567
353.184
355.812
353.413
354.587
349.742
349.716
347.606
345.357
341.439
343.76
344.292
344.984
345.164
345.438
346.941
351.13
347.305
347.396
349.725
347.559
347.7
345.56
347.498
343.881
342.89
342.327
342.419
338.788
338.327
338.119
338.641
339.598
338.127
338.889
340.109
341.509
342.776
341.872
344.279
343.248
340.748
338.547
339.693
338.064
337.306
336.887
338.141
330.128
332.075
331.61
333.18
329.542
331.831
334.903
334.178
333.09
333.384
334.446
333.895
334.184
335.381
333.546
333.002
329.503
328.906
331.891
330.937
324.274
324.477
326.123
323.819
324.113
325.89
326.386
326.177
325.421
325.568
325.788
327.034
326.469
325.129
325.343
323.09
326.915
324.179
322.794
324.634
316.979
318.679
317.229
316.842
316.322
317.912
320.037
321.271
318.291
320.566
319.689
321.279
320.094
317.486
317.289
316.76
317.104
316.013
316.183
318.022
307.881
310.869
311.074
309.372
309.923
310.185
311.892
312.502
308.219
311.868
311.846
309.621
311.657
312.135
310.51
311.941
309.318
311.46
311.669
311.956
301.629
305.942
303.847
303.41
302.504
303.206
303.16
303.245
304.474
302.063
302.465
304.237
302.823
302.589
304.125
303.413
304.145
303.604
303.884
304.664
352.299
350.824
351.55
353.115
353.822
352.823
354.156
353.282
357.122
356.321
358.834
358.253
355.744
357.609
352.831
354.661
352.279
350.142
351.648
351.474
345.786
343.457
345.149
344.116
345.547
346.803
346.194
347.223
350.367
348.203
348.076
350.164
347.421
350.231
345.411
345.235
344.436
343.515
342.509
344.655
338.559
338.349
338.78
337.435
339.934
338.816
339.898
339.458
341.808
339.505
344.109
342.534
343.317
341.085
338.491
339.33
340.769
338.442
336.559
338.423
331.818
331.587
331.582
331.787
331.944
332.166
331.303
332.041
334.958
334.838
334.557
336.215
334.125
333.248
334.709
332.007
330.452
330.47
330.687
330.904
325.364
324.102
325.435
324.859
326.182
326.04
324.35
326.982
325.59
325.453
328.599
326.146
328.218
325.92
324.61
324.973
325.911
325.294
324.092
322.625
317.582
316.653
316.249
317.04
318.172
317.871
320.235
317.842
321.798
321.343
319.69
320.276
318.004
318.274
316.933
316.326
318.319
319.466
317.386
315.639
310.98
309.162
309.879
310.402
310.495
312.168
310.454
312.125
310.407
311.028
311.583
311.676
311.354
311.345
311.9
311.011
311.317
312.666
311.191
309.92
303.935
302.747
302.721
303.08
305.641
305.439
304.396
303.81
301.833
302.879
301.42
304.325
304.046
304.06
304.557
302.556
302.233
302.712
303.644
304.86
352.324
352.95
352.707
353.751
353.828
355.222
354.58
356.661
355.825
358.979
357.256
358.508
359.051
356.676
354.02
354.994
353.391
350.83
352.1
353.451
345.724
345.856
346.623
346.239
347.184
345.853
350.126
349.495
348.423
350.561
352.053
351.728
348.957
348.816
349.23
346.951
346.067
343.273
345.811
346.75
338.246
340.711
336.986
340.524
340.031
339.873
340.649
341.417
342.063
343.897
343.189
340.807
344.241
342.528
339.617
339.009
339.945
338.189
338.323
335.685
333.312
334.407
332.114
334.106
332.593
332.613
332.045
334.762
335.62
336.28
334.244
334.046
335.1
336.662
330.311
332.059
332.188
330.828
328.853
332.243
324.952
326.479
325.85
324.291
323.724
327.6
326.765
326.855
327.569
325.837
324.475
326.437
325.243
325.253
323.795
324.65
323.085
326.536
323.948
323.185
317.248
315.83
319.233
316.342
316.883
318.228
319.746
318.743
322.047
321.389
321.067
319.04
318.197
317.415
320.432
318.136
317.641
318.196
317.448
317.46
308.058
311.686
309.084
309.825
311.776
310.247
311.569
311.589
311.048
312.216
312.194
312.677
310.216
310.025
311.847
307.614
310.535
309.586
311.498
309.921
304.24
304.029
302.095
303.175
304.895
303.172
304.252
306.159
301.198
303.697
302.88
305.02
303.101
304.332
303.011
303.098
304.359
303.581
304.55
304.522
353.757
353.608
352.322
354.36
354.776
354.444
355.443
356.375
357.637
359.821
359.192
357.672
356.123
358.262
357.399
357.068
353.644
352.807
352.995
353.521
347.662
345.029
348.261
346.42
350.14
347.769
349.613
348.43
352.873
349.409
348.969
352.185
349.147
348.843
347.841
348.1
346.018
347.693
344.534
348.254
339.138
341.277
340.821
340.236
337.828
339.598
340.002
342.208
342.891
342.975
343.316
344.278
342.995
342.338
337.652
340.16
338.347
339.752
338.012
340.356
332.493
333.342
333.541
333.606
332.811
334.186
334.294
334.18
336.634
336.293
335.559
335.89
336.946
332.282
334.733
331.822
335.948
330.113
331.101
331.465
325.268
324.377
325.229
326.799
324.566
326.182
327.07
327.252
327.429
324.999
328.813
328.835
327.995
328.342
326.022
326.677
326.32
324.96
324.269
324.322
319.588
319.178
318.815
317.032
316.004
319.989
319.96
318.916
321.014
320.868
319.235
319.598
318.916
318.258
319.225
317.772
320.375
319.135
317.587
318.1
309.639
312.569
311.088
312.502
311.437
311.689
312.571
310.036
310.284
312.757
311.434
310.256
311.538
311.198
311.19
309.586
311.314
312.589
309.892
311.63
304.425
303.796
304.578
303.916
304.775
304.492
302.86
303.624
302.341
303.415
304.005
303.606
304.489
304.734
303.656
302.522
305.041
304.038
303.479
304.563
356.655
354.491
353.884
355.44
355.409
354.758
356.61
358.879
357.686
359.364
361.652
360.005
357.088
357.658
357.164
354.709
353.896
355.675
352.201
356.08
347.946
348.115
347.079
346.084
347.653
348.253
350.161
350.979
350.258
351.343
351.001
348.63
351.046
350.503
347.031
348.235
347.917
346.259
346.881
347.317
340.742
339.443
339.704
340.088
342.021
340.713
341.058
340.844
344.44
344.171
343.264
344.277
343.257
343.756
340.855
339.951
338.264
340.573
339.324
339.545
333.206
333.097
332.881
332.258
333.494
333.809
335.438
336.284
334.893
334.289
335.04
336.845
334.912
333.921
333.514
332.624
333.677
332.023
332.365
332.855
325.596
326.66
325.469
325.561
326.29
326.073
327.116
327.602
328.532
327.476
327.057
328.799
327.483
327.975
326.394
326.651
323.417
326.077
324.781
324.917
319.906
316.314
318.084
318.232
320.198
319.536
321.212
319.527
320.744
319.657
317.976
321.627
320.193
317.843
317.84
319.347
316.626
317.327
316.66
318.638
312.233
313.028
311.283
312.651
311.575
309.497
313.208
312.559
310.601
310.558
313.843
312.273
311.167
314.261
311.224
309.804
311.69
308.514
312.8
310.533
304.298
302.937
304.748
303.611
303.428
303.855
303.503
302.604
303.115
305.095
305.238
305.312
303.368
303.176
305.366
303.521
303.979
302.878
302.44
303.041
357.098
357.372
357.585
354.473
356.983
356.773
355.876
358.053
358.008
360.144
359.462
359.252
359.893
358.118
355.906
355.675
353.03
355.762
353.284
356.947
349.07
346.824
346.9
347.703
348.795
349.406
349.859
350.376
351.252
350.777
350.985
350.532
350.248
349.24
349.451
348.503
347.714
347.703
347.111
346.829
339.527
343.322
340.277
340.23
339.59
342.609
341.828
341.39
342.477
343.432
345.951
344.234
343.446
342.417
341.635
339.987
341.759
339.77
338.368
340.813
333.282
331.721
333.985
334.521
332.795
336.798
336.169
335.84
336.154
334.007
337.06
337.496
338.213
334.351
334.521
333.921
332.043
333.279
329.976
331.765
326.294
326.88
326.609
327.221
326.858
328.405
325.671
327.254
328.638
327.236
330.722
326.745
328.701
328.22
326.899
326.927
326.781
323.575
326.658
325.857
319.714
317.109
318.092
319.309
318.255
317.697
317.61
319.503
319.488
319.383
319.354
320.682
320.316
318.614
319.061
317.897
319.34
317.988
319.134
318.646
310.24
309.959
311.945
309.498
309.189
312.16
312.475
313.306
311.365
311.487
312.092
313.408
312.759
311.88
310.623
312.239
310.061
311.726
313.167
312.898
302.75
304.576
304.207
303.801
302.904
304.838
306.652
303.727
304.176
305.355
302.036
304.489
302.318
302.415
305.372
304.281
304.208
303.5
303.134
303.157
356.153
356.013
356.652
358.149
355.168
358.973
358.168
359.995
360.441
359.779
359.66
361.921
359.039
357.09
357.69
357.043
357.38
354.967
355.796
354.699
348.753
350.745
350.584
348.941
348.543
352.349
351.327
352.5
350.542
351.278
353.488
350.952
350.084
350.966
351.559
349.846
349.85
348.309
347.648
348.353
342.043
343.231
343.974
341.186
339.8
342.485
344.074
345.227
344.008
344.154
344.263
343.132
343.397
342.469
342.845
342.133
342.047
339.464
340.665
342.468
334.966
335.277
336.121
332.084
333.372
335.571
334.133
333.799
334.903
335.817
337.421
334.2
334.933
335.848
336.481
332.87
335.186
331.304
332.056
333.641
326.231
328.109
327.031
327.34
326.484
327.636
326.865
326.126
328.414
327.959
327.276
328.121
328.743
326.934
328.514
327.697
327.258
327.468
326.309
325.086
321.185
318.066
319.416
319.301
319.321
321.171
321.303
319.832
320.124
317.904
321.59
320.319
319.954
319.426
320.532
318.125
318.797
317.472
319.839
317.83
313.029
312.346
309.937
312.127
312.432
313.434
311.807
311.139
314.861
311.961
309.497
310.588
312.65
311.453
311.057
311.048
312.421
309.151
313.423
312.481
303.37
304
305.36
305.069
303.557
304.076
301.489
303.533
305.678
302.624
304.48
304.727
305.428
302.548
303.938
302.822
305.42
301.505
302.467
304.771
358.502
358.033
358.673
358.842
359.227
357.49
356.868
358.129
359.609
361.47
360.547
359.395
359.148
358.582
360.092
358.307
358.505
358.25
356.349
356.755
351.022
350.635
351.246
351.395
347.946
351.829
353.109
352.223
353.283
353.037
353.017
351.067
352.218
350.625
352.031
350.295
351.649
349.158
350.275
350.578
341.893
343.417
342.826
343.312
343.615
341.902
344.567
345.059
342.487
343.436
343.631
345.285
345.864
343.058
342.874
338.744
341.67
342.062
343.55
341.978
335.485
335.753
332.966
333.8
335.064
334.304
336.81
336.685
337.046
337.65
335.564
336.658
336.391
335.139
334.423
333.79
331.933
335.504
335.37
332.648
326.916
327.464
328.598
328.712
329.291
326.815
329.359
328.618
327.115
329.261
328.08
329.564
326.298
326.947
328.038
325.993
326.806
326.937
326.917
325.991
316.106
321.284
320.02
318.314
318.483
320.682
318.608
321.053
320.36
320.479
320.615
319.737
318.073
321.076
319.081
320.048
319.073
320.228
316.501
319.244
311.55
309.338
313.571
309.529
311.915
312.917
313.622
313.935
312.856
315.654
312.512
310.544
312.835
313.226
308.319
311.4
310.647
311.214
312.999
310.541
303.193
305.086
303.204
305.036
303.82
303.156
302.645
301.702
304.723
305.183
303.583
302.477
304.871
303.367
305.171
304.962
302.267
304.19
305.806
303.365
361.181
357.92
360.035
356.886
357.519
358.913
359.439
359.655
358.894
360.703
361.621
362.489
359.556
357.665
356.827
357.879
357.529
358.93
356.401
357.347
352.182
350.863
351.265
351.055
351.037
352.052
351.461
352.47
350.88
354.633
351.043
352.722
353.917
352.47
352.626
348.731
350.654
350.442
349.348
348.875
343.769
343.121
344.222
342.63
342.969
342.402
343.449
345.022
344.691
345.983
344.364
343.791
344.983
344.714
344.134
343.091
341.873
343.078
342.047
340.63
336.219
338.025
336.123
337.193
336.593
337.757
335.883
336.257
340.374
335.688
337.122
338.581
337.127
338.447
337.45
335.053
335.854
334.338
333.549
335.124
328.488
328.245
327.703
329.41
327.55
325.671
328.548
328.846
324.546
329.714
328.573
328.085
329.777
328.81
328.847
330.237
326.418
328.547
327.938
325.667
317.17
318.761
320.612
320.2
318.542
320.404
320.735
320.983
321.69
319.816
321.953
320.096
320.953
319.721
318.466
318.939
320.464
319.266
319.102
317.6
312.466
311.543
312.033
312.379
311.9
310.996
311.109
311.774
312.827
312.237
313.115
314.016
312.751
310.242
312.458
312.562
309.982
310.892
310.828
311.145
304.592
302.84
305.514
303.56
303.432
303.791
303.009
303.642
305.823
302.559
304.518
303.26
302.496
303.479
303.079
303.502
302.91
303.075
303.65
303.687
360.1
359.486
358.846
357.964
358.261
359.86
359.361
359.462
360.522
361.751
362.094
362.15
361.294
359.514
358.508
360.184
356.927
357.216
358.271
355.85
354.005
352.902
352.944
353.866
352.172
354.066
353.219
355.316
353.105
356.077
355.512
353.661
355.213
352.189
354.477
351.451
353.435
350.374
353.091
349.616
345.011
344.689
342.749
343.855
345.416
341.966
342.907
345.718
343.708
344.296
345.979
343.663
346.235
342.258
342.748
343.149
340.65
342.44
343.052
341.13
336.9
334.486
337.081
338.317
335.413
336.965
336.385
336.173
336.879
336.577
337.221
336.523
334.072
335.845
337.405
335.325
334.6
334.907
333.725
337.36
328.828
326.566
330.596
330.053
329.485
326.836
327.163
327.627
329.296
330.107
327.208
328.629
327.849
329.962
328.645
326.182
327.016
325.871
327.602
328.795
318.961
320.068
321.125
318.446
320.477
322.114
319.696
321.364
322.418
322.411
318.997
322.018
321.176
319.746
318.657
316.938
319.243
321.283
319.274
318.993
312.606
311.782
312.608
311.034
313.728
311.982
310.234
311.141
311.192
313.808
311.239
313.552
313.033
312.487
311.675
312.04
310.161
308.836
310.588
309.278
306.96
306.339
306.031
305.74
303.969
303.26
303.949
303.239
303.772
302.24
305.229
305.525
304.477
301.948
303.393
302.242
304.456
303.405
305.544
303.852
362.173
361.528
362.086
360.729
359.176
360.798
361.09
359.976
362.214
361.151
362.425
361.104
362.614
356.809
361.391
358.664
358.556
357.035
357.326
359.905
350.217
353.08
354.465
352.785
353.689
354.331
353.551
353.027
352.752
352.906
352.912
351.335
353.264
351.743
352.683
351.693
349.563
352.34
351.591
350.859
346.462
345.969
345.565
343.398
343.496
342.65
344.119
342.563
343.174
344.152
345.9
344.908
343.38
347
343.646
344.211
343.884
343.446
342.5
343.073
337.117
337.092
335.12
335.499
336.659
334.878
338.602
337.188
337.738
338.282
337.119
337.84
337.799
336.403
335.225
337.409
334.532
335.762
335.914
334.933
327.764
328.388
330.173
327.138
329.12
328.105
328.182
329.449
328.384
329.835
327.809
328.677
329.636
326.083
329.365
329.02
328.543
327.874
327.401
325.565
319.357
318.903
321.688
319.877
320.059
318.606
319.506
320.137
318.907
323.365
319.519
321.169
319.07
319.157
320.367
318.91
319.234
320.241
320.751
320.493
314.167
312.012
312.953
312.617
310.387
313.036
313.648
313.204
312.708
312.328
313.136
313.349
312.397
311.542
311.191
312.471
311.399
312.076
312.743
311.613
304.657
301.851
305.179
303.174
305.348
303.636
305.251
305.848
303.568
303.478
303.434
305.53
305.769
304.904
305.477
303.169
304.711
304.887
303.644
302.373
)
;

boundaryField
{
    hotSide
    {
        type            fixedGradient;
        gradient        nonuniform List<scalar> 
400
(
321.511
322.87
325.591
329.677
335.133
341.965
350.181
359.788
370.794
383.208
397.037
412.289
428.971
447.088
466.647
487.651
510.105
534.011
559.372
586.191
323.738
325.08
327.767
331.802
337.194
343.949
352.078
361.591
372.498
384.81
398.537
413.687
430.268
448.289
467.755
488.672
511.043
534.872
560.161
586.913
326.149
327.47
330.116
334.091
339.406
346.071
354.099
363.503
374.296
386.491
400.101
415.136
431.606
449.52
468.885
489.706
511.988
535.735
560.948
587.63
328.704
330
332.597
336.503
341.73
348.292
356.205
365.485
376.15
388.215
401.695
416.604
432.954
450.753
470.009
490.73
512.919
536.579
561.714
588.325
331.33
332.599
335.142
338.97
344.099
350.546
358.332
367.477
378.003
389.928
403.271
418.047
434.27
451.949
471.095
491.712
513.807
537.382
562.439
588.978
333.918
335.158
337.643
341.389
346.414
352.74
360.392
369.397
379.779
391.562
404.765
419.407
435.503
453.065
472.101
492.618
514.622
538.114
563.096
589.569
336.321
337.531
339.959
343.622
348.544
354.751
362.274
371.142
381.385
393.031
406.101
420.618
436.595
454.047
472.983
493.409
515.33
538.747
563.663
590.076
338.36
339.543
341.92
345.509
350.339
356.44
363.847
372.595
382.718
394.244
407.2
421.608
437.485
454.844
473.695
494.045
515.897
539.253
564.114
590.478
339.852
341.015
343.352
346.885
351.645
357.665
364.985
373.643
383.675
395.113
407.984
422.312
438.116
455.407
474.197
494.491
516.294
539.606
564.428
590.758
340.643
341.795
344.11
347.613
352.334
358.311
365.584
374.193
384.176
395.567
408.393
422.679
438.443
455.699
474.456
494.722
516.498
539.788
564.589
590.901
340.643
341.795
344.11
347.613
352.334
358.311
365.584
374.193
384.176
395.567
408.393
422.679
438.443
455.699
474.456
494.722
516.498
539.788
564.589
590.901
339.852
341.015
343.352
346.885
351.645
357.665
364.985
373.643
383.675
395.113
407.984
422.312
438.116
455.407
474.197
494.491
516.294
539.606
564.428
590.758
338.36
339.543
341.92
345.509
350.339
356.44
363.847
372.595
382.718
394.244
407.2
421.608
437.485
454.844
473.695
494.045
515.897
539.253
564.114
590.478
336.321
337.531
339.959
343.622
348.544
354.751
362.274
371.142
381.385
393.031
406.101
420.618
436.595
454.047
472.983
493.409
515.33
538.747
563.663
590.076
333.918
335.158
337.643
341.389
346.414
352.74
360.392
369.397
379.779
391.562
404.765
419.407
435.503
453.065
472.101
492.618
514.622
538.114
563.096
589.569
331.33
332.599
335.142
338.97
344.099
350.546
358.332
367.477
378.003
389.928
403.271
418.047
434.27
451.949
471.095
491.712
513.807
537.382
562.439
588.978
328.704
330
332.597
336.503
341.73
348.292
356.205
365.485
376.15
388.215
401.695
416.604
432.954
450.753
470.009
490.73
512.919
536.579
561.714
588.325
326.149
327.47
330.116
334.091
339.406
346.071
354.099
363.503
374.296
386.491
400.101
415.136
431.606
449.52
468.885
489.706
511.988
535.735
560.948
587.63
323.738
325.08
327.767
331.802
337.194
343.949
352.078
361.591
372.498
384.81
398.537
413.687
430.268
448.289
467.755
488.672
511.043
534.872
560.161
586.913
321.511
322.87
325.591
329.677
335.133
341.965
350.181
359.788
370.794
383.208
397.037
412.289
428.971
447.088
466.647
487.651
510.105
534.011
559.372
586.191
)
;
    }
    coldSide
    {
        type            mixed;
        refValue        uniform 300;
        refGradient     uniform 0;
        valueFraction   uniform 0.991591;
        source          uniform 0;
        value           nonuniform List<scalar> 
400
(
300.047
300.029
300.049
300.014
300.027
300.033
300.023
300.039
300.024
300.014
300.033
300.036
300.037
300.036
300.023
300.028
300.027
300.039
300.059
300.039
300.041
300.025
300.01
300.02
300.023
300.024
300.03
300.02
300.042
300.05
300.023
300.034
300.032
300.025
300.038
300.034
300.043
300.024
300.053
300.016
300.01
300.024
300.039