/*--------------------------------*- C++ -*----------------------------------*\
| =========                 |                                                 |
| \\      /  F ield         | OpenFOAM: The Open Source CFD Toolbox           |
|  \\    /   O peration     | Version:  2212                                  |
|   \\  /    A nd           | Website:  www.openfoam.com                      |
|    \\/     M anipulation  |                                                 |
\*---------------------------------------------------------------------------*/
FoamFile
{
    version     2.0;
    format      ascii;
    arch        "LSB;label=32;scalar=64";
    class       volScalarField;
    location    "./ITHACAoutput/true/0.7";
    object      trueState;
}
// * * * * * * * * * * * * * * * * * * * * * * * * * * * * * * * * * * * * * //

dimensions      [0 0 0 1 0 0 0];

internalField   nonuniform List<scalar> 
3200
(
344.605
345.759
347.226
348.822
350.465
352.077
353.566
354.823
355.739
356.223
356.223
355.739
354.823
353.566
352.077
350.465
348.822
347.226
345.759
344.605
338.889
339.864
341.128
342.506
343.925
345.317
346.601
347.685
348.475
348.892
348.892
348.475
347.685
346.601
345.317
343.925
342.506
341.128
339.864
338.889
333.083
333.89
334.953
336.115
337.312
338.486
339.569
340.482
341.147
341.498
341.498
341.147
340.482
339.569
338.486
337.312
336.115
334.953
333.89
333.083
327.194
327.843
328.708
329.656
330.633
331.591
332.474
333.219
333.76
334.046
334.046
333.76
333.219
332.474
331.591
330.633
329.656
328.708
327.843
327.194
321.234
321.732
322.402
323.138
323.897
324.64
325.325
325.902
326.323
326.544
326.544
326.323
325.902
325.325
324.64
323.897
323.138
322.402
321.732
321.234
315.217
315.569
316.046
316.572
317.113
317.643
318.131
318.543
318.842
319.001
319.001
318.842
318.543
318.131
317.643
317.113
316.572
316.046
315.569
315.217
309.158
309.368
309.654
309.969
310.294
310.612
310.905
311.152
311.331
311.426
311.426
311.331
311.152
310.905
310.612
310.294
309.969
309.654
309.368
309.158
303.073
303.143
303.239
303.344
303.453
303.56
303.658
303.74
303.801
303.832
303.832
303.801
303.74
303.658
303.56
303.453
303.344
303.239
303.143
303.073
344.685
345.829
347.284
348.865
350.491
352.086
353.557
354.799
355.703
356.18
356.18
355.703
354.799
353.557
352.086
350.491
348.865
347.284
345.829
344.685
338.958
339.926
341.178
342.543
343.948
345.325
346.594
347.665
348.444
348.855
348.855
348.444
347.665
346.594
345.325
343.948
342.543
341.178
339.926
338.958
333.141
333.942
334.995
336.147
337.332
338.493
339.563
340.465
341.121
341.468
341.468
341.121
340.465
339.563
338.493
337.332
336.147
334.995
333.942
333.141
327.241
327.885
328.743
329.682
330.649
331.597
332.469
333.205
333.74
334.022
334.022
333.74
333.205
332.469
331.597
330.649
329.682
328.743
327.885
327.241
321.271
321.765
322.429
323.158
323.909
324.644
325.321
325.892
326.307
326.525
326.525
326.307
325.892
325.321
324.644
323.909
323.158
322.429
321.765
321.271
315.243
315.592
316.066
316.586
317.121
317.646
318.129
318.535
318.831
318.987
318.987
318.831
318.535
318.129
317.646
317.121
316.586
316.066
315.592
315.243
309.173
309.382
309.665
309.978
310.299
310.614
310.903
311.147
311.324
311.418
311.418
311.324
311.147
310.903
310.614
310.299
309.978
309.665
309.382
309.173
303.078
303.148
303.243
303.347
303.455
303.56
303.657
303.739
303.798
303.83
303.83
303.798
303.739
303.657
303.56
303.455
303.347
303.243
303.148
303.078
344.846
345.972
347.402
348.954
350.547
352.108
353.545
354.756
355.636
356.101
356.101
355.636
354.756
353.545
352.108
350.547
348.954
347.402
345.972
344.846
339.097
340.049
341.28
342.62
343.997
345.344
346.584
347.628
348.388
348.788
348.788
348.388
347.628
346.584
345.344
343.997
342.62
341.28
340.049
339.097
333.258
334.046
335.082
336.212
337.373
338.509
339.555
340.435
341.074
341.412
341.412
341.074
340.435
339.555
338.509
337.373
336.212
335.082
334.046
333.258
327.336
327.97
328.813
329.736
330.683
331.61
332.463
333.181
333.702
333.977
333.977
333.702
333.181
332.463
331.61
330.683
329.736
328.813
327.97
327.336
321.344
321.831
322.484
323.2
323.936
324.655
325.317
325.873
326.278
326.491
326.491
326.278
325.873
325.317
324.655
323.936
323.2
322.484
321.831
321.344
315.296
315.64
316.105
316.616
317.14
317.654
318.126
318.522
318.811
318.963
318.963
318.811
318.522
318.126
317.654
317.14
316.616
316.105
315.64
315.296
309.205
309.41
309.689
309.995
310.31
310.618
310.901
311.139
311.312
311.403
311.403
311.312
311.139
310.901
310.618
310.31
309.995
309.689
309.41
309.205
303.089
303.157
303.25
303.353
303.459
303.562
303.657
303.736
303.794
303.825
303.825
303.794
303.736
303.657
303.562
303.459
303.353
303.25
303.157
303.089
345.091
346.191
347.585
349.094
350.64
352.15
353.538
354.706
355.553
356
356
355.553
354.706
353.538
352.15
350.64
349.094
347.585
346.191
345.091
339.308
340.238
341.438
342.741
344.077
345.381
346.579
347.586
348.317
348.703
348.703
348.317
347.586
346.579
345.381
344.077
342.741
341.438
340.238
339.308
333.435
334.205
335.215
336.314
337.441
338.541
339.551
340.4
341.016
341.34
341.34
341.016
340.4
339.551
338.541
337.441
336.314
335.215
334.205
333.435
327.481
328.1
328.922
329.819
330.739
331.637
332.461
333.153
333.655
333.919
333.919
333.655
333.153
332.461
331.637
330.739
329.819
328.922
328.1
327.481
321.457
321.932
322.568
323.265
323.979
324.676
325.315
325.852
326.241
326.446
326.446
326.241
325.852
325.315
324.676
323.979
323.265
322.568
321.932
321.457
315.376
315.712
316.165
316.662
317.172
317.669
318.125
318.507
318.785
318.931
318.931
318.785
318.507
318.125
317.669
317.172
316.662
316.165
315.712
315.376
309.253
309.453
309.725
310.023
310.329
310.627
310.901
311.13
311.297
311.385
311.385
311.297
311.13
310.901
310.627
310.329
310.023
309.725
309.453
309.253
303.105
303.172
303.263
303.362
303.465
303.565
303.656
303.733
303.789
303.818
303.818
303.789
303.733
303.656
303.565
303.465
303.362
303.263
303.172
303.105
345.423
346.489
347.837
349.292
350.778
352.226
353.552
354.664
355.471
355.896
355.896
355.471
354.664
353.552
352.226
350.778
349.292
347.837
346.489
345.423
339.594
340.495
341.656
342.913
344.197
345.447
346.592
347.552
348.247
348.614
348.614
348.247
347.552
346.592
345.447
344.197
342.913
341.656
340.495
339.594
333.676
334.423
335.399
336.459
337.543
338.597
339.563
340.372
340.958
341.267
341.267
340.958
340.372
339.563
338.597
337.543
336.459
335.399
334.423
333.676
327.677
328.277
329.072
329.938
330.822
331.683
332.471
333.13
333.608
333.86
333.86
333.608
333.13
332.471
331.683
330.822
329.938
329.072
328.277
327.677
321.609
322.069
322.685
323.357
324.044
324.712
325.323
325.835
326.206
326.401
326.401
326.206
325.835
325.323
324.712
324.044
323.357
322.685
322.069
321.609
315.484
315.81
316.249
316.728
317.218
317.694
318.13
318.496
318.76
318.899
318.899
318.76
318.496
318.13
317.694
317.218
316.728
316.249
315.81
315.484
309.318
309.512
309.775
310.063
310.357
310.643
310.904
311.123
311.282
311.365
311.365
311.282
311.123
310.904
310.643
310.357
310.063
309.775
309.512
309.318
303.126
303.191
303.279
303.376
303.474
303.57
303.658
303.731
303.784
303.812
303.812
303.784
303.731
303.658
303.57
303.474
303.376
303.279
303.191
303.126
345.845
346.871
348.165
349.557
350.973
352.347
353.602
354.651
355.41
355.809
355.809
355.41
354.651
353.602
352.347
350.973
349.557
348.165
346.871
345.845
339.958
340.826
341.94
343.142
344.366
345.553
346.636
347.542
348.196
348.541
348.541
348.196
347.542
346.636
345.553
344.366
343.142
341.94
340.826
339.958
333.983
334.702
335.639
336.653
337.686
338.687
339.601
340.364
340.916
341.206
341.206
340.916
340.364
339.601
338.687
337.686
336.653
335.639
334.702
333.983
327.928
328.505
329.268
330.096
330.939
331.756
332.502
333.125
333.575
333.812
333.812
333.575
333.125
332.502
331.756
330.939
330.096
329.268
328.505
327.928
321.803
322.246
322.837
323.48
324.135
324.769
325.348
325.831
326.18
326.364
326.364
326.18
325.831
325.348
324.769
324.135
323.48
322.837
322.246
321.803
315.623
315.936
316.357
316.816
317.283
317.735
318.148
318.493
318.742
318.873
318.873
318.742
318.493
318.148
317.735
317.283
316.816
316.357
315.936
315.623
309.401
309.588
309.84
310.115
310.396
310.667
310.915
311.122
311.271
311.35
311.35
311.271
311.122
310.915
310.667
310.396
310.115
309.84
309.588
309.401
303.154
303.217
303.301
303.393
303.487
303.578
303.661
303.731
303.781
303.807
303.807
303.781
303.731
303.661
303.578
303.487
303.393
303.301
303.217
303.154
346.363
347.345
348.577
349.898
351.236
352.529
353.706
354.686
355.393
355.764
355.764
355.393
354.686
353.706
352.529
351.236
349.898
348.577
347.345
346.363
340.406
341.235
342.296
343.437
344.594
345.711
346.727
347.573
348.184
348.504
348.504
348.184
347.573
346.727
345.711
344.594
343.437
342.296
341.235
340.406
334.36
335.047
335.94
336.903
337.879
338.822
339.679
340.392
340.907
341.177
341.177
340.907
340.392
339.679
338.822
337.879
336.903
335.94
335.047
334.36
328.235
328.787
329.514
330.3
331.097
331.867
332.566
333.148
333.568
333.788
333.788
333.568
333.148
332.566
331.867
331.097
330.3
329.514
328.787
328.235
322.042
322.465
323.028
323.638
324.257
324.855
325.398
325.85
326.175
326.346
326.346
326.175
325.85
325.398
324.855
324.257
323.638
323.028
322.465
322.042
315.793
316.092
316.493
316.929
317.37
317.797
318.184
318.507
318.739
318.861
318.861
318.739
318.507
318.184
317.797
317.37
316.929
316.493
316.092
315.793
309.503
309.682
309.922
310.183
310.448
310.704
310.937
311.13
311.269
311.343
311.343
311.269
311.13
310.937
310.704
310.448
310.183
309.922
309.682
309.503
303.188
303.248
303.329
303.416
303.505
303.591
303.668
303.733
303.78
303.804
303.804
303.78
303.733
303.668
303.591
303.505
303.416
303.329
303.248
303.188
346.983
347.915
349.082
350.326
351.582
352.789
353.883
354.791
355.444
355.786
355.786
355.444
354.791
353.883
352.789
351.582
350.326
349.082
347.915
346.983
340.94
341.728
342.733
343.808
344.893
345.936
346.881
347.665
348.229
348.524
348.524
348.229
347.665
346.881
345.936
344.893
343.808
342.733
341.728
340.94
334.81
335.463
336.308
337.216
338.132
339.012
339.809
340.471
340.946
341.195
341.195
340.946
340.471
339.809
339.012
338.132
337.216
336.308
335.463
334.81
328.602
329.127
329.815
330.556
331.304
332.023
332.673
333.213
333.601
333.804
333.804
333.601
333.213
332.673
332.023
331.304
330.556
329.815
329.127
328.602
322.327
322.729
323.262
323.837
324.418
324.976
325.482
325.901
326.202
326.359
326.359
326.202
325.901
325.482
324.976
324.418
323.837
323.262
322.729
322.327
315.996
316.281
316.66
317.071
317.485
317.884
318.244
318.543
318.758
318.87
318.87
318.758
318.543
318.244
317.884
317.485
317.071
316.66
316.281
315.996
309.625
309.795
310.022
310.269
310.517
310.756
310.973
311.152
311.281
311.348
311.348
311.281
311.152
310.973
310.756
310.517
310.269
310.022
309.795
309.625
303.229
303.286
303.362
303.445
303.528
303.608
303.681
303.741
303.784
303.806
303.806
303.784
303.741
303.681
303.608
303.528
303.445
303.362
303.286
303.229
347.709
348.589
349.687
350.852
352.022
353.141
354.15
354.985
355.583
355.896
355.896
355.583
354.985
354.15
353.141
352.022
350.852
349.687
348.589
347.709
341.567
342.311
343.256
344.263
345.274
346.241
347.113
347.834
348.351
348.621
348.621
348.351
347.834
347.113
346.241
345.274
344.263
343.256
342.311
341.567
335.338
335.955
336.75
337.6
338.454
339.27
340.006
340.614
341.05
341.278
341.278
341.05
340.614
340.006
339.27
338.454
337.6
336.75
335.955
335.338
329.033
329.528
330.176
330.87
331.567
332.234
332.835
333.331
333.687
333.873
333.873
333.687
333.331
332.835
332.234
331.567
330.87
330.176
329.528
329.033
322.661
323.041
323.542
324.081
324.623
325.141
325.607
325.993
326.269
326.413
326.413
326.269
325.993
325.607
325.141
324.623
324.081
323.542
323.041
322.661
316.234
316.503
316.86
317.245
317.631
318.001
318.334
318.609
318.806
318.909
318.909
318.806
318.609
318.334
318.001
317.631
317.245
316.86
316.503
316.234
309.768
309.928
310.142
310.373
310.605
310.827
311.027
311.192
311.31
311.372
311.372
311.31
311.192
311.027
310.827
310.605
310.373
310.142
309.928
309.768
303.277
303.331
303.402
303.48
303.557
303.632
303.699
303.754
303.794
303.814
303.814
303.794
303.754
303.699
303.632
303.557
303.48
303.402
303.331
303.277
348.547
349.374
350.401
351.486
352.569
353.6
354.526
355.288
355.832
356.117
356.117
355.832
355.288
354.526
353.6
352.569
351.486
350.401
349.374
348.547
342.29
342.989
343.873
344.811
345.747
346.639
347.438
348.097
348.568
348.813
348.813
348.568
348.097
347.438
346.639
345.747
344.811
343.873
342.989
342.29
335.948
336.527
337.271
338.063
338.853
339.606
340.281
340.837
341.234
341.441
341.441
341.234
340.837
340.281
339.606
338.853
338.063
337.271
336.527
335.948
329.53
329.996
330.602
331.248
331.894
332.508
333.06
333.513
333.837
334.006
334.006
333.837
333.513
333.06
332.508
331.894
331.248
330.602
329.996
329.53
323.047
323.404
323.873
324.375
324.876
325.354
325.782
326.134
326.386
326.517
326.517
326.386
326.134
325.782
325.354
324.876
324.375
323.873
323.404
323.047
316.51
316.762
317.096
317.454
317.813
318.153
318.459
318.71
318.89
318.983
318.983
318.89
318.71
318.459
318.153
317.813
317.454
317.096
316.762
316.51
309.933
310.084
310.284
310.499
310.714
310.918
311.102
311.253
311.36
311.417
311.417
311.36
311.253
311.102
310.918
310.714
310.499
310.284
310.084
309.933
303.332
303.383
303.45
303.522
303.594
303.662
303.724
303.774
303.81
303.829
303.829
303.81
303.774
303.724
303.662
303.594
303.522
303.45
303.383
303.332
349.502
350.276
351.232
352.236
353.234
354.179
355.023
355.715
356.208
356.465
356.465
356.208
355.715
355.023
354.179
353.234
352.236
351.232
350.276
349.502
343.114
343.768
344.591
345.46
346.322
347.139
347.869
348.467
348.893
349.115
349.115
348.893
348.467
347.869
347.139
346.322
345.46
344.591
343.768
343.114
336.643
337.185
337.878
338.611
339.339
340.029
340.645
341.15
341.509
341.697
341.697
341.509
341.15
340.645
340.029
339.339
338.611
337.878
337.185
336.643
330.097
330.533
331.097
331.695
332.291
332.854
333.357
333.769
334.063
334.216
334.216
334.063
333.769
333.357
332.854
332.291
331.695
331.097
330.533
330.097
323.487
323.821
324.258
324.723
325.185
325.623
326.013
326.333
326.561
326.68
326.68
326.561
326.333
326.013
325.623
325.185
324.723
324.258
323.821
323.487
316.824
317.06
317.371
317.703
318.033
318.345
318.624
318.852
319.015
319.1
319.1
319.015
318.852
318.624
318.345
318.033
317.703
317.371
317.06
316.824
310.122
310.262
310.449
310.648
310.846
311.034
311.201
311.338
311.436
311.486
311.486
311.436
311.338
311.201
311.034
310.846
310.648
310.449
310.262
310.122
303.396
303.443
303.505
303.572
303.638
303.701
303.757
303.803
303.836
303.853
303.853
303.836
303.803
303.757
303.701
303.638
303.572
303.505
303.443
303.396
350.579
351.3
352.186
353.112
354.027
354.889
355.654
356.28
356.724
356.955
356.955
356.724
356.28
355.654
354.889
354.027
353.112
352.186
351.3
350.579
344.044
344.653
345.416
346.217
347.008
347.753
348.416
348.956
349.34
349.54
349.54
349.34
348.956
348.416
347.753
347.008
346.217
345.416
344.653
344.044
337.427
337.932
338.574
339.25
339.918
340.548
341.107
341.563
341.888
342.056
342.056
341.888
341.563
341.107
340.548
339.918
339.25
338.574
337.932
337.427
330.737
331.142
331.665
332.217
332.763
333.278
333.734
334.107
334.372
334.51
334.51
334.372
334.107
333.734
333.278
332.763
332.217
331.665
331.142
330.737
323.983
324.294
324.699
325.128
325.552
325.952
326.307
326.596
326.802
326.909
326.909
326.802
326.596
326.307
325.952
325.552
325.128
324.699
324.294
323.983
317.178
317.397
317.686
317.992
318.295
318.58
318.833
319.04
319.187
319.263
319.263
319.187
319.04
318.833
318.58
318.295
317.992
317.686
317.397
317.178
310.334
310.465
310.638
310.822
311.003
311.175
311.327
311.451
311.539
311.584
311.584
311.539
311.451
311.327
311.175
311.003
310.822
310.638
310.465
310.334
303.467
303.511
303.568
303.63
303.691
303.748
303.799
303.841
303.87
303.886
303.886
303.87
303.841
303.799
303.748
303.691
303.63
303.568
303.511
303.467
351.782
352.451
353.269
354.12
354.956
355.739
356.431
356.994
357.393
357.599
357.599
357.393
356.994
356.431
355.739
354.956
354.12
353.269
352.451
351.782
345.083
345.648
346.352
347.088
347.811
348.488
349.087
349.574
349.919
350.098
350.098
349.919
349.574
349.087
348.488
347.811
347.088
346.352
345.648
345.083
338.304
338.771
339.364
339.985
340.596
341.168
341.674
342.085
342.376
342.527
342.527
342.376
342.085
341.674
341.168
340.596
339.985
339.364
338.771
338.304
331.452
331.828
332.311
332.818
333.317
333.785
334.198
334.534
334.771
334.895
334.895
334.771
334.534
334.198
333.785
333.317
332.818
332.311
331.828
331.452
324.538
324.827
325.201
325.595
325.982
326.346
326.667
326.928
327.112
327.208
327.208
327.112
326.928
326.667
326.346
325.982
325.595
325.201
324.827
324.538
317.574
317.777
318.044
318.325
318.602
318.861
319.09
319.277
319.408
319.477
319.477
319.408
319.277
319.09
318.861
318.602
318.325
318.044
317.777
317.574
310.572
310.693
310.853
311.022
311.188
311.343
311.481
311.593
311.672
311.713
311.713
311.672
311.593
311.481
311.343
311.188
311.022
310.853
310.693
310.572
303.546
303.587
303.64
303.697
303.753
303.805
303.851
303.888
303.915
303.929
303.929
303.915
303.888
303.851
303.805
303.753
303.697
303.64
303.587
303.546
353.115
353.733
354.486
355.265
356.026
356.735
357.359
357.865
358.222
358.406
358.406
358.222
357.865
357.359
356.735
356.026
355.265
354.486
353.733
353.115
346.233
346.756
347.404
348.078
348.736
349.35
349.89
350.327
350.636
350.795
350.795
350.636
350.327
349.89
349.35
348.736
348.078
347.404
346.756
346.233
339.274
339.706
340.252
340.821
341.377
341.896
342.352
342.721
342.982
343.117
343.117
342.982
342.721
342.352
341.896
341.377
340.821
340.252
339.706
339.274
332.244
332.592
333.036
333.501
333.955
334.379
334.751
335.053
335.266
335.376
335.376
335.266
335.053
334.751
334.379
333.955
333.501
333.036
332.592
332.244
325.153
325.419
325.764
326.125
326.478
326.807
327.096
327.331
327.496
327.582
327.582
327.496
327.331
327.096
326.807
326.478
326.125
325.764
325.419
325.153
318.012
318.2
318.446
318.703
318.955
319.19
319.397
319.565
319.683
319.744
319.744
319.683
319.565
319.397
319.19
318.955
318.703
318.446
318.2
318.012
310.835
310.947
311.094
311.249
311.4
311.541
311.665
311.765
311.836
311.873
311.873
311.836
311.765
311.665
311.541
311.4
311.249
311.094
310.947
310.835
303.634
303.672
303.721
303.773
303.824
303.871
303.913
303.946
303.97
303.982
303.982
303.97
303.946
303.913
303.871
303.824
303.773
303.721
303.672
303.634
354.577
355.148
355.839
356.551
357.242
357.882
358.444
358.897
359.215
359.38
359.38
359.215
358.897
358.444
357.882
357.242
356.551
355.839
355.148
354.577
347.496
347.978
348.573
349.189
349.787
350.341
350.827
351.219
351.494
351.637
351.637
351.494
351.219
350.827
350.341
349.787
349.189
348.573
347.978
347.496
340.339
340.738
341.239
341.759
342.264
342.732
343.143
343.474
343.707
343.827
343.827
343.707
343.474
343.143
342.732
342.264
341.759
341.239
340.738
340.339
333.113
333.433
333.842
334.266
334.679
335.062
335.397
335.667
335.858
335.956
335.956
335.858
335.667
335.397
335.062
334.679
334.266
333.842
333.433
333.113
325.827
326.073
326.389
326.719
327.04
327.337
327.598
327.808
327.956
328.032
328.032
327.956
327.808
327.598
327.337
327.04
326.719
326.389
326.073
325.827
318.493
318.667
318.892
319.127
319.356
319.569
319.755
319.905
320.011
320.065
320.065
320.011
319.905
319.755
319.569
319.356
319.127
318.892
318.667
318.493
311.123
311.227
311.362
311.503
311.64
311.768
311.88
311.97
312.033
312.066
312.066
312.033
311.97
311.88
311.768
311.64
311.503
311.362
311.227
311.123
303.731
303.766
303.811
303.858
303.904
303.947
303.984
304.015
304.036
304.047
304.047
304.036
304.015
303.984
303.947
303.904
303.858
303.811
303.766
303.731
356.167
356.692
357.325
357.974
358.6
359.178
359.682
360.088
360.372
360.518
360.518
360.372
360.088
359.682
359.178
358.6
357.974
357.325
356.692
356.167
348.868
349.311
349.857
350.417
350.96
351.46
351.896
352.247
352.493
352.62
352.62
352.493
352.247
351.896
351.46
350.96
350.417
349.857
349.311
348.868
341.495
341.862
342.321
342.795
343.253
343.676
344.045
344.341
344.549
344.656
344.656
344.549
344.341
344.045
343.676
343.253
342.795
342.321
341.862
341.495
334.056
334.35
334.725
335.111
335.486
335.832
336.133
336.375
336.545
336.632
336.632
336.545
336.375
336.133
335.832
335.486
335.111
334.725
334.35
334.056
326.559
326.785
327.075
327.375
327.666
327.935
328.169
328.357
328.489
328.557
328.557
328.489
328.357
328.169
327.935
327.666
327.375
327.075
326.785
326.559
319.015
319.174
319.381
319.595
319.803
319.995
320.162
320.297
320.391
320.439
320.439
320.391
320.297
320.162
319.995
319.803
319.595
319.381
319.174
319.015
311.436
311.531
311.655
311.784
311.908
312.024
312.124
312.205
312.261
312.29
312.29
312.261
312.205
312.124
312.024
311.908
311.784
311.655
311.531
311.436
303.836
303.868
303.909
303.952
303.994
304.033
304.066
304.093
304.112
304.122
304.122
304.112
304.093
304.066
304.033
303.994
303.952
303.909
303.868
303.836
357.868
358.35
358.93
359.521
360.089
360.61
361.063
361.425
361.679
361.809
361.809
361.679
361.425
361.063
360.61
360.089
359.521
358.93
358.35
357.868
350.333
350.74
351.24
351.751
352.242
352.694
353.086
353.399
353.619
353.732
353.732
353.619
353.399
353.086
352.694
352.242
351.751
351.24
350.74
350.333
342.728
343.065
343.486
343.917
344.333
344.714
345.046
345.311
345.496
345.592
345.592
345.496
345.311
345.046
344.714
344.333
343.917
343.486
343.065
342.728
335.06
335.331
335.673
336.026
336.366
336.677
336.948
337.165
337.317
337.395
337.395
337.317
337.165
336.948
336.677
336.366
336.026
335.673
335.331
335.06
327.337
327.545
327.81
328.084
328.348
328.59
328.801
328.969
329.087
329.148
329.148
329.087
328.969
328.801
328.59
328.348
328.084
327.81
327.545
327.337
319.569
319.716
319.905
320.101
320.289
320.462
320.613
320.733
320.817
320.86
320.86
320.817
320.733
320.613
320.462
320.289
320.101
319.905
319.716
319.569
311.768
311.856
311.969
312.087
312.2
312.304
312.394
312.466
312.517
312.543
312.543
312.517
312.466
312.394
312.304
312.2
312.087
311.969
311.856
311.768
303.947
303.976
304.014
304.054
304.092
304.126
304.157
304.181
304.198
304.207
304.207
304.198
304.181
304.157
304.126
304.092
304.054
304.014
303.976
303.947
359.637
360.081
360.612
361.151
361.666
362.137
362.545
362.87
363.097
363.213
363.213
363.097
362.87
362.545
362.137
361.666
361.151
360.612
360.081
359.637
351.85
352.225
352.683
353.149
353.596
354.004
354.357
354.638
354.835
354.936
354.936
354.835
354.638
354.357
354.004
353.596
353.149
352.683
352.225
351.85
344
344.31
344.696
345.09
345.467
345.812
346.111
346.349
346.515
346.601
346.601
346.515
346.349
346.111
345.812
345.467
345.09
344.696
344.31
344
336.092
336.341
336.656
336.978
337.286
337.569
337.813
338.007
338.143
338.213
338.213
338.143
338.007
337.813
337.569
337.286
336.978
336.656
336.341
336.092
328.134
328.326
328.569
328.819
329.059
329.279
329.469
329.62
329.726
329.78
329.78
329.726
329.62
329.469
329.279
329.059
328.819
328.569
328.326
328.134
320.136
320.271
320.445
320.623
320.795
320.952
321.087
321.195
321.271
321.31
321.31
321.271
321.195
321.087
320.952
320.795
320.623
320.445
320.271
320.136
312.108
312.188
312.292
312.4
312.502
312.597
312.678
312.743
312.788
312.812
312.812
312.788
312.743
312.678
312.597
312.502
312.4
312.292
312.188
312.108
304.061
304.088
304.122
304.158
304.193
304.225
304.252
304.274
304.289
304.297
304.297
304.289
304.274
304.252
304.225
304.193
304.158
304.122
304.088
304.061
361.36
361.77
362.26
362.754
363.226
363.655
364.024
364.318
364.523
364.628
364.628
364.523
364.318
364.024
363.655
363.226
362.754
362.26
361.77
361.36
353.31
353.657
354.079
354.508
354.916
355.288
355.609
355.864
356.042
356.133
356.133
356.042
355.864
355.609
355.288
354.916
354.508
354.079
353.657
353.31
345.21
345.497
345.854
346.216
346.562
346.877
347.149
347.365
347.515
347.593
347.593
347.515
347.365
347.149
346.877
346.562
346.216
345.854
345.497
345.21
337.065
337.296
337.587
337.883
338.167
338.425
338.647
338.824
338.947
339.01
339.01
338.947
338.824
338.647
338.425
338.167
337.883
337.587
337.296
337.065
328.88
329.058
329.283
329.514
329.734
329.935
330.108
330.246
330.342
330.391
330.391
330.342
330.246
330.108
329.935
329.734
329.514
329.283
329.058
328.88
320.663
320.789
320.949
321.114
321.272
321.415
321.539
321.638
321.706
321.741
321.741
321.706
321.638
321.539
321.415
321.272
321.114
320.949
320.789
320.663
312.422
312.497
312.593
312.692
312.787
312.873
312.947
313.007
313.048
313.069
313.069
313.048
313.007
312.947
312.873
312.787
312.692
312.593
312.497
312.422
304.166
304.191
304.223
304.256
304.288
304.317
304.342
304.362
304.375
304.382
304.382
304.375
304.362
304.342
304.317
304.288
304.256
304.223
304.191
304.166
362.727
363.112
363.572
364.036
364.476
364.876
365.22
365.492
365.682
365.779
365.779
365.682
365.492
365.22
364.876
364.476
364.036
363.572
363.112
362.727
354.423
354.75
355.148
355.551
355.935
356.283
356.582
356.819
356.984
357.069
357.069
356.984
356.819
356.582
356.283
355.935
355.551
355.148
354.75
354.423
346.104
346.376
346.712
347.054
347.38
347.675
347.929
348.131
348.271
348.343
348.343
348.271
348.131
347.929
347.675
347.38
347.054
346.712
346.376
346.104
337.766
337.985
338.26
338.54
338.807
339.05
339.258
339.424
339.539
339.598
339.598
339.539
339.424
339.258
339.05
338.807
338.54
338.26
337.985
337.766
329.408
329.576
329.79
330.008
330.216
330.405
330.567
330.697
330.786
330.832
330.832
330.786
330.697
330.567
330.405
330.216
330.008
329.79
329.576
329.408
321.031
321.15
321.303
321.459
321.608
321.743
321.859
321.951
322.016
322.049
322.049
322.016
321.951
321.859
321.743
321.608
321.459
321.303
321.15
321.031
312.639
312.71
312.802
312.896
312.985
313.066
313.136
313.192
313.23
313.25
313.25
313.23
313.192
313.136
313.066
312.985
312.896
312.802
312.71
312.639
304.238
304.262
304.292
304.324
304.354
304.381
304.405
304.423
304.436
304.443
304.443
304.436
304.423
304.405
304.381
304.354
304.324
304.292
304.262
304.238
)
;

boundaryField
{
    hotSide
    {
        type            fixedGradient;
        gradient        nonuniform List<scalar> 
400
(
449.447
450.345
452.152
454.893
458.602
463.323
469.105
476.003
484.073
493.37
503.948
515.86
529.151
543.864
560.035
577.696
596.874
617.59
639.861
663.7
464.796
465.572
467.141
469.534
472.798
476.991
482.178
488.429
495.816
504.41
514.28
525.487
538.09
552.137
567.671
584.728
603.337
623.521
645.298
668.679
481.407
482.038
483.322
485.303
488.041
491.612
496.102
501.601
508.201
515.992
525.057
535.473
547.307
560.618
575.453
591.854
609.85
629.466
650.718
673.618
499.004
499.467
500.42
501.922
504.054
506.912
510.607
515.255
520.971
527.866
536.042
545.59
556.591
569.109
583.2
598.907
616.261
635.286
655.997
678.403
517.097
517.369
517.952
518.919
520.373
522.441
525.262
528.98
533.738
539.669
546.898
555.531
565.658
577.354
590.679
605.677
622.381
640.813
660.985
682.905
534.93
534.999
535.185
535.582
536.319
537.554
539.458
542.208
545.977
550.923
557.189
564.9
574.155
585.038
597.611
611.92
627.996
645.859
665.518
686.977
551.483
551.348
551.139
550.969
550.997
551.411
552.419
554.229
557.042
561.045
566.398
573.239
581.68
591.808
603.688
617.366
632.872
650.222
669.422
690.47
565.532
565.214
564.648
563.969
563.362
563.046
563.26
564.242
566.22
569.402
573.966
580.062
587.809
597.298
608.596
621.748
636.78
653.706
672.528
693.24
575.813
575.354
574.516
573.449
572.358
571.488
571.102
571.462
572.816
575.388
579.368
584.915
592.153
601.177
612.052
624.823
639.515
656.138
674.691
695.165
581.261
580.726
579.739
578.461
577.107
575.938
575.227
575.252
576.271
578.515
582.184
587.44
594.408
603.186
613.839
626.41
640.924
657.389
675.802
696.151
581.261
580.726
579.739
578.461
577.107
575.938
575.227
575.252
576.271
578.515
582.184
587.44
594.408
603.186
613.839
626.41
640.924
657.389
675.802
696.151
575.813
575.354
574.516
573.449
572.358
571.488
571.102
571.462
572.816
575.388
579.368
584.915
592.153
601.177
612.052
624.823
639.515
656.138
674.691
695.165
565.532
565.214
564.648
563.969
563.362
563.046
563.26
564.242
566.22
569.402
573.966
580.062
587.809
597.298
608.596
621.748
636.78
653.706
672.528
693.24
551.483
551.348
551.139
550.969
550.997
551.411
552.419
554.229
557.042
561.045
566.398
573.239
581.68
591.808
603.688
617.366
632.872
650.222
669.422
690.47
534.93
534.999
535.185
535.582
536.319
537.554
539.458
542.208
545.977
550.923
557.189
564.9
574.155
585.038
597.611
611.92
627.996
645.859
665.518
686.977
517.097
517.369
517.952
518.919
520.373
522.441
525.262
528.98
533.738
539.669
546.898
555.531
565.658
577.354
590.679
605.677
622.381
640.813
660.985
682.905
499.004
499.467
500.42
501.922
504.054
506.912
510.607
515.255
520.971
527.866
536.042
545.59
556.591
569.109
583.2
598.907
616.261
635.286
655.997
678.403
481.407
482.038
483.322
485.303
488.041
491.612
496.102
501.601
508.201
515.992
525.057
535.473
547.307
560.618
575.453
591.854
609.85
629.466
650.718
673.618
464.796
465.572
467.141
469.534
472.798
476.991
482.178
488.429
495.816
504.41
514.28
525.487
538.09
552.137
567.671
584.728
603.337
623.521
645.298
668.679
449.447
450.345
452.152
454.893
458.602
463.323
469.105
476.003
484.073
493.37
503.948
515.86
529.151
543.864
560.035
577.696
596.874
617.59
639.861
663.7
)
;
    }
    coldSide
    {
        type            mixed;
        refValue        uniform 300;
        refGradient     uniform 0;
        valueFraction   uniform 0.991591;
        source          uniform 0;
        value           nonuniform List<scalar> 
400
(
300.026
300.026
300.026
300.026
300.026
300.027
300.027
300.027
300.028
300.028
300.029
300.029
300.03
300.031
300.031
300.032
300.033
300.034
300.035
300.036
300.026
300.026
300.027
300.027
300.027
300.027
300.027
300.028
300.028
300.028
300.029