/*--------------------------------*- C++ -*----------------------------------*\
| =========                 |                                                 |
| \\      /  F ield         | OpenFOAM: The Open Source CFD Toolbox           |
|  \\    /   O peration     | Version:  2212                                  |
|   \\  /    A nd           | Website:  www.openfoam.com                      |
|    \\/     M anipulation  |                                                 |
\*---------------------------------------------------------------------------*/
FoamFile
{
    version     2.0;
    format      ascii;
    arch        "LSB;label=32;scalar=64";
    class       volScalarField;
    location    "./ITHACAoutput/true/19.4";
    object      error;
}
// * * * * * * * * * * * * * * * * * * * * * * * * * * * * * * * * * * * * * //

dimensions      [0 0 0 1 0 0 0];

internalField   nonuniform List<scalar> 
3200
(
6.32307
6.38521
6.47076
6.72705
6.97052
7.24962
7.44998
7.6953
7.85277
7.90841
7.95293
7.90246
7.73729
7.57373
7.35013
7.14079
6.9028
6.78523
6.47811
6.49996
5.42254
5.46229
5.59691
5.77323
5.9743
6.27741
6.41511
6.58381
6.75031
6.78128
6.84627
6.75694
6.58695
6.49856
6.26493
6.0091
5.88083
5.74978
5.59862
5.53641
4.53073
4.63441
4.66936
4.89043
4.98107
5.21069
5.39014
5.56038
5.64963
5.76057
5.62939
5.67007
5.54438
5.40603
5.2769
5.06784
4.95805
4.80301
4.70882
4.604
3.69996
3.79949
3.81944
3.92891
4.08282
4.24004
4.35055
4.48763
4.53522
4.66204
4.63292
4.5636
4.47638
4.37569
4.23405
4.11646
4.00727
3.89088
3.8086
3.79426
2.84412
2.89702
2.97468
3.04842
3.13865
3.28663
3.4391
3.44532
3.56687
3.61806
3.59227
3.56267
3.42618
3.29834
3.31436
3.1943
3.1151
2.97443
2.93518
2.87918
1.99677
2.0303
2.13334
2.19414
2.24637
2.32245
2.41926
2.4594
2.498
2.51489
2.58001
2.48546
2.49973
2.41408
2.30609
2.23198
2.14664
2.12023
2.08239
2.10509
1.25812
1.23526
1.22226
1.30916
1.28409
1.40593
1.4581
1.46902
1.48318
1.55261
1.47981
1.56
1.51033
1.41074
1.4721
1.39254
1.34649
1.28769
1.2681
1.19697
0.417443
0.430031
0.510475
0.435295
0.434849
0.503836
0.497183
0.521025
0.493211
0.507644
0.508621
0.52339
0.440909
0.45712
0.46861
0.474652
0.475743
0.434801
0.437223
0.389528
5.73633
5.88295
5.99703
6.1721
6.34685
6.63958
6.85591
6.98641
7.16318
7.19555
7.28606
7.25445
7.06379
6.89996
6.68948
6.42301
6.21028
6.01603
5.96588
5.86491
4.89996
4.98929
5.15886
5.36031
5.43996
5.68623
5.8926
6.07852
6.11867
6.23385
6.19396
6.17851
6.0411
5.88359
5.73127
5.49597
5.38484
5.21003
5.12043
4.96092
4.07843
4.23065
4.29966
4.44314
4.63114
4.75262
4.93393
5.05651
5.20685
5.24925
5.32692
5.20244
5.11832
5.01813
4.83693
4.7098
4.62747
4.36694
4.21762
4.21511
3.34872
3.42962
3.57422
3.69446
3.75349
3.93596
4.05471
4.13596
4.24395
4.32435
4.34598
4.28471
4.07841
4.02058
3.9404
3.86526
3.64967
3.52447
3.53873
3.37791
2.6613
2.60017
2.71684
2.77588
2.99908
3.03452
3.13906
3.24242
3.25053
3.25288
3.31561
3.28008
3.209
3.08109
3.07605
2.90367
2.83316
2.80895
2.68711
2.63637
1.84844
1.92045
1.96571
2.0118
2.10201
2.14966
2.24423
2.30237
2.27583
2.39147
2.36923
2.44073
2.32614
2.24012
2.18137
2.04884
2.06431
1.95539
1.92633
1.85519
1.08598
1.13069
1.14285
1.18224
1.23301
1.20185
1.29598
1.39572
1.3429
1.45543
1.41001
1.37978
1.37432
1.33195
1.29311
1.28672
1.17876
1.13693
1.14852
1.11854
0.324792
0.425591
0.45354
0.42837
0.396151
0.507425
0.469969
0.507332
0.517292
0.455795
0.419569
0.492713
0.392009
0.447101
0.468094
0.398414
0.408756
0.379958
0.393777
0.378455
5.04321
5.09256
5.29563
5.3091
5.58564
5.76447
6.0405
6.1793
6.33593
6.4179
6.4068
6.27891
6.12208
6.05025
5.80806
5.62739
5.40724
5.26133
5.1476
5.11065
4.37734
4.45935
4.55134
4.69222
4.92332
4.96672
5.21953
5.33915
5.44388
5.5269
5.50864
5.44503
5.33276
5.20792
5.03927
4.87854
4.69261
4.53912
4.49076
4.35435
3.70772
3.74936
3.83136
3.93281
4.04563
4.17352
4.44587
4.51025
4.56261
4.65923
4.72231
4.6426
4.5161
4.41028
4.25177
4.1168
3.94138
3.75736
3.77538
3.70422
3.02147
3.08802
3.08203
3.26505
3.34866
3.34261
3.52343
3.6248
3.70623
3.75026
3.76988
3.81063
3.63472
3.53493
3.41741
3.34844
3.22117
3.06582
3.08837
2.97398
2.30671
2.31572
2.44945
2.54313
2.64381
2.67612
2.72812
2.84521
2.92218
2.97057
2.95063
2.89741
2.81067
2.75205
2.72866
2.53144
2.50363
2.39334
2.24753
2.24526
1.67393
1.66489
1.65026
1.83563
1.84399
1.91518
1.96522
2.02849
2.10768
2.11197
2.05547
2.02901
2.00523
1.97444
1.88115
1.81987
1.72465
1.72893
1.66845
1.54672
1.02683
1.02096
1.05436
1.12872
1.16948
1.11774
1.16719
1.18751
1.16423
1.27517
1.14584
1.17958
1.23479
1.0824
1.1217
1.13563
1.09239
0.998286
0.952789
1.05853
0.307695
0.312527
0.307885
0.358839
0.385437
0.401124
0.407634
0.407668
0.399482
0.412723
0.365012
0.393031
0.388712
0.346133
0.381185
0.349367
0.338153
0.399901
0.350632
0.354634
4.36097
4.48612
4.5061
4.60373
4.86797
4.96017
5.11061
5.29369
5.44571
5.50175
5.44134
5.43636
5.28142
5.10046
4.9919
4.82632
4.55904
4.44959
4.4181
4.32562
3.77067
3.86608
3.95091
3.97081
4.18544
4.30397
4.54298
4.64848
4.67907
4.74729
4.73306
4.65007
4.62245
4.37916
4.23384
4.08143
3.95973
3.82535
3.72726
3.64286
3.14374
3.23615
3.23509
3.4057
3.49702
3.59378
3.75882
3.88798
3.95248
3.98937
3.92844
4.00578
3.82044
3.61275
3.54458
3.39039
3.26236
3.2198
3.12058
3.02168
2.64612
2.59324
2.69535
2.83488
2.85492
2.99314
3.02859
3.21027
3.22026
3.31512
3.24269
3.15399
3.08921
3.08469
2.90178
2.85073
2.75254
2.63997
2.4846
2.52832
2.01891
2.02189
2.1158
2.12958
2.21862
2.29572
2.32292
2.36548
2.48804
2.49296
2.52834
2.47229
2.35925
2.31259
2.22177
2.1585
2.10791
2.04598
2.00981
1.90208
1.39608
1.44953
1.45486
1.49548
1.62493
1.62406
1.67975
1.7295
1.75799
1.78882
1.76605
1.78502
1.72908
1.64059
1.62352
1.58868
1.52817
1.42679
1.39321
1.35305
0.901652
0.846485
0.910994
0.870663
0.951048
0.974205
1.00326
1.09536
1.01352
1.11375
1.03382
0.985681
1.0191
1.06048
0.985809
0.953872
0.859555
0.886302
0.800993
0.837675
0.23481
0.275587
0.278954
0.271001
0.326236
0.294599
0.324357
0.356407
0.348453
0.311392
0.408901
0.369698
0.355824
0.383564
0.33
0.306725
0.357312
0.267588
0.240438
0.26505
3.84696
3.75304
3.83184
3.91665
4.02313
4.23155
4.36578
4.4238
4.53075
4.55291
4.59074
4.47136
4.42443
4.2679
4.04396
3.91902
3.8599
3.688
3.67843
3.59432
3.23142
3.25459
3.33738
3.37322
3.46837
3.63351
3.72598
3.84986
3.93264
3.96545
3.99235
3.8291
3.75082
3.64398
3.52392
3.37816
3.27193
3.15756
3.09169
3.0478
2.73792
2.72092
2.75176
2.82381
2.93304
3.04135
3.17803
3.24763
3.3145
3.26473
3.3904
3.30798
3.18576
3.13856
2.97123
2.82804
2.78041
2.67866
2.55248
2.55823
2.26914
2.20323
2.22304
2.30458
2.40591
2.50141
2.6389
2.70036
2.71549
2.70083
2.71102
2.73186
2.55113
2.51584
2.43739
2.33544
2.29646
2.11541
2.10971
2.1118
1.71203
1.71504
1.73636
1.75817
1.86082
1.97096
1.99866
2.05418
2.09334
2.12668
2.13407
2.08234
1.99782
1.93132
1.79767
1.80312
1.73167
1.66456
1.5125
1.60343
1.25096
1.25532
1.18071
1.25778
1.30468
1.38797
1.47819
1.41154
1.5287
1.50455
1.52769
1.46219
1.47437
1.39394
1.31109
1.35891
1.18033
1.14273
1.13049
1.15588
0.72482
0.709643
0.790531
0.77155
0.771986
0.780315
0.775855
0.873718
0.916498
0.893658
0.840895
0.892818
0.842244
0.884647
0.810491
0.794432
0.754494
0.682784
0.656584
0.773189
0.287635
0.164898
0.212384
0.315372
0.248404
0.291691
0.25859
0.280146
0.264291
0.351874
0.363754
0.31208
0.272751
0.289069
0.241715
0.264533
0.250653
0.271395
0.25714
0.225552
3.14601
3.19696
3.21674
3.18974
3.27951
3.41873
3.59296
3.59303
3.67586
3.76521
3.76834
3.64895
3.59177
3.46353
3.2864
3.11978
3.01562
2.90192
2.85968
2.82762
2.7569
2.73422
2.74738
2.84597
2.8276
2.88273
3.08203
3.16525
3.26611
3.2264
3.24259
3.10962
3.08511
2.95001
2.82951
2.71348
2.59807
2.52521
2.5088
2.45305
2.31156
2.25423
2.30984
2.42081
2.40679
2.48636
2.55678
2.6483
2.69373
2.72364
2.66777
2.61682
2.58913
2.49015
2.39959
2.26751
2.23039
2.15373
2.01966
2.0778
1.93033
1.76576
1.8792
1.91294
1.96512
2.11748
2.12278
2.12889
2.20314
2.21214
2.22936
2.1604
2.0608
1.9543
1.89003
1.82928
1.70736
1.70012
1.66932
1.66882
1.41494
1.49778
1.40951
1.50086
1.51562
1.54431
1.61586
1.70413
1.66522
1.7161
1.71108
1.74297
1.66283
1.5949
1.49098
1.48181
1.2809
1.33626
1.25385
1.27858
1.05269
1.04448
1.09071
1.01133
1.1128
1.17213
1.14865
1.19406
1.21742
1.23949
1.25548
1.12269
1.17683
1.12692
0.987293
1.02074
0.931365
0.944773
0.862283
0.930223
0.672975
0.658554
0.628512
0.602958
0.642609
0.623754
0.81098
0.744321
0.71374
0.728787
0.732735
0.687416
0.711742
0.65367
0.616159
0.661507
0.581077
0.512214
0.585952
0.580531
0.219364
0.188062
0.202496
0.230826
0.242148
0.2348
0.246641
0.232195
0.238656
0.26408
0.233552
0.217208
0.226421
0.246734
0.27415
0.303965
0.165434
0.21427
0.192935
0.207543
2.65168
2.6906
2.55212
2.63415
2.64063
2.76013
2.83128
2.88369
2.96749
3.03862
2.97078
2.90008
2.80295
2.66232
2.53887
2.48571
2.4192
2.34648
2.30608
2.30788
2.33028
2.2881
2.3229
2.32096
2.25101
2.31332
2.50692
2.48565
2.55533
2.56855
2.4894
2.42468
2.38387
2.32958
2.25758
2.10997
1.9888
1.94527
1.97207
1.9029
1.90306
1.87312
1.88207
1.92696
2.00772
1.96147
2.07805
2.13635
2.1446
2.16469
2.12375
2.08013
2.00839
1.92699
1.87877
1.77772
1.66131
1.64516
1.59345
1.60191
1.52925
1.6201
1.54182
1.5767
1.57928
1.64456
1.68411
1.73309
1.67191
1.74489
1.75688
1.68639
1.59297
1.54789
1.46842
1.40333
1.34011
1.29746
1.29827
1.32762
1.22811
1.21308
1.19513
1.16777
1.1975
1.2802
1.27322
1.36878
1.40314
1.32545
1.36322
1.2995
1.24339
1.21199
1.20503
1.05317
1.0077
1.0161
0.971329
1.02022
0.919333
0.798193
0.910364
0.858132
0.894392
0.915793
0.934626
0.974855
0.994604
0.910136
0.953523
0.979414
0.898949
0.936087
0.826339
0.829021
0.758923
0.720543
0.714189
0.613276
0.490785
0.528688
0.460221
0.487784
0.470953
0.603202
0.558055
0.587927
0.593031
0.543362
0.532042
0.588503
0.553867
0.475744
0.485386
0.493421
0.409469
0.414826
0.398138
0.377836
0.170233
0.163173
0.136251
0.145876
0.141583
0.106965
0.167792
0.148524
0.191082
0.218557
0.0904176
0.148823
0.186387
0.166593
0.233994
0.123809
0.187681
0.106724
0.101694
0.152272
2.26094
2.18551
2.0917
2.10713
2.13879
2.11437
2.26983
2.31414
2.23422
2.26992
2.32554
2.25996
2.04667
2.06219
1.96273
1.83392
1.80073
1.78854
1.67789
1.82865
1.8926
1.90598
1.79118
1.87799
1.82187
1.90576
1.90438
1.91488
1.98645
2.01113
2.03368
1.91979
1.71813
1.74349
1.64322
1.57332
1.47729
1.50846
1.48028
1.5283
1.61447
1.62777
1.52453
1.48634
1.53225
1.5861
1.66345
1.62458
1.66261
1.60119
1.61029
1.62706
1.42608
1.38652
1.37034
1.31437
1.25879
1.17249
1.20813
1.30768
1.27245
1.28341
1.27101
1.2435
1.20897
1.29464
1.35041
1.29258
1.30317
1.36615
1.25421
1.29459
1.276
1.15324
1.09779
1.00267
0.938203
0.990192
0.992416
0.971029
1.05745
0.963071
0.969417
0.949954
0.973712
1.02094
1.05831
1.04309
1.01378
1.07875
0.999409
0.994729
0.936332
0.877977
0.892373
0.823976
0.791539
0.707902
0.73685
0.740464
0.70557
0.65182
0.690801
0.722139
0.690213
0.737191
0.679805
0.760961
0.745729
0.773719
0.779656
0.742561
0.664829
0.622622
0.555624
0.597926
0.611563
0.564143
0.532537
0.500491
0.37562
0.415424
0.45731
0.433708
0.401798
0.431
0.399596
0.43922
0.394453
0.431844
0.424088
0.449958
0.413535
0.374595
0.348721
0.260266
0.323925
0.352343
0.262512
0.362859
0.161005
0.158579
0.08684
0.155241
0.150263
0.184537
0.17203
0.134345
0.0881359
0.176871
0.166934
0.163542
0.0868356
0.152668
0.121757
0.194187
0.162497
0.0761395
0.10281
0.0608777
1.97442
1.86581
1.83113
1.71483
1.73222
1.63501
1.76354
1.68462
1.74256
1.66302
1.61044
1.54275
1.58639
1.43598
1.35987
1.27336
1.25845
1.28558
1.2574
1.33904
1.64718
1.58147
1.51973
1.47371
1.45524
1.40456
1.44779
1.42743
1.46808
1.45407
1.45327
1.38893
1.29439
1.26427
1.17287
1.13081
1.06787
1.069
1.09738
1.1747
1.40857
1.29126
1.25398
1.26221
1.24514
1.1918
1.26078
1.29142
1.24106
1.19983
1.17153
1.1545
1.09794
1.00796
0.940984
0.930173
0.85387
0.791786
0.892138
0.928135
1.11998
1.07146
1.01829
0.97449
0.941279
0.954398
0.99575
0.871553
0.957549
0.917212
0.90349
0.930336
0.900453
0.81179
0.765911
0.789065
0.756634
0.661794
0.710089
0.744427
0.884326
0.808988
0.769019
0.747072
0.816946
0.746893
0.776854
0.757976
0.782947
0.681713
0.774385
0.731014
0.654036
0.628412
0.629244
0.520934
0.545072
0.532615
0.542537
0.57632
0.615128
0.582942
0.575269
0.600273
0.534566
0.52079
0.501015
0.513961
0.483946
0.558519
0.483578
0.497635
0.471598
0.412878
0.418484
0.318157
0.405155
0.369469
0.379343
0.427031
0.352686
0.329686
0.344092
0.308424
0.357289
0.319206
0.296468
0.290857
0.337788
0.317699
0.31658
0.297745
0.274118
0.256018
0.208419
0.172415
0.190274
0.183355
0.226847
0.13978
0.118493
0.118046
0.103254
0.0724632
0.0758203
0.0559262
0.0962965
0.0997845
0.162962
0.100049
0.122295
0.126839
0.0739081
0.0535665
-0.00306343
0.0385348
0.0356589
0.0920008
0.107915
0.0493082
1.69675
1.61459
1.44299
1.38251
1.22144
1.32743
1.31118
1.22909
1.20762
1.24267
1.16751
1.17785
1.04187
0.978934
0.838834
0.907353
0.894657
0.909023
0.892973
1.08474
1.53352
1.42209
1.26779
1.18697
1.15852
1.03923
1.12158
1.02457
1.01735
1.02755
0.959112
0.931172
0.842171
0.84587
0.749427
0.662891
0.792203
0.721521
0.76524
0.879638
1.21188
1.15277
1.02558
1.01382
0.936134
0.845703
0.900377
0.87795
0.901621
0.815759
0.802137
0.721906
0.66486
0.633423
0.594991
0.565765
0.615846
0.533902
0.629151
0.707975
0.98863
0.955737
0.840634
0.852179
0.753187
0.676689
0.658865
0.709742
0.739259
0.684959
0.616803
0.587307
0.550827
0.478927
0.478858
0.485672
0.386449
0.454226
0.492332
0.513869
0.828887
0.616713
0.6209
0.606712
0.603655
0.593282
0.518407
0.539514
0.509563
0.49167
0.561697
0.485751
0.417757
0.43142
0.332876
0.281205
0.284582
0.351395
0.349539
0.378474
0.567507
0.428905
0.473383
0.410569
0.451558
0.383619
0.324825
0.428405
0.395329
0.400213
0.340134
0.3645
0.32972
0.283535
0.240986
0.210134
0.22718
0.256972
0.239684
0.238769
0.34104
0.333557
0.209631
0.246803
0.212572
0.239211
0.192365
0.244872
0.258692
0.25076
0.133205
0.177606
0.256614
0.187025
0.125262
0.156426
0.144467
0.187347
0.223088
0.178036
0.0942639
0.131035
0.142658
0.117895
0.0556866
0.0210454
0.114592
0.113856
0.0890817
0.104077
0.124157
0.0234816
0.111237
0.0473391
0.0186327
0.131678
0.0976294
0.0356935
0.0663377
0.00710844
1.65029
1.43426
1.35593
1.1183
0.99423
0.949595
0.965197
0.895247
0.885113
0.807356
0.768178
0.793124
0.6479
0.633523
0.562062
0.555016
0.609885
0.736432
0.800666
0.86958
1.40336
1.23417
1.11914
0.950959
0.897072
0.851715
0.778375
0.756887
0.736383
0.69441
0.606347
0.577576
0.576748
0.511691
0.433036
0.461048
0.3981
0.493392
0.650128
0.770292
1.12093
1.02963
0.882931
0.87865
0.762348
0.710282
0.688275
0.589597
0.640224
0.537075
0.462925
0.537797
0.475148
0.471308
0.355519
0.365621
0.384457
0.356697
0.491015
0.617802
0.984694
0.83
0.777687
0.579603
0.570864
0.555662
0.51696
0.493636
0.517947
0.415435
0.382588
0.408755
0.386519
0.326189
0.278865
0.335596
0.280171
0.356823
0.418635
0.383659
0.692056
0.642602
0.638705
0.426074
0.415872
0.358056
0.385303
0.37933
0.35054
0.295732
0.302535
0.274383
0.254306
0.259166
0.215884
0.175362
0.138618
0.217661
0.255836
0.312136
0.517036
0.525762
0.399481
0.386896
0.339955
0.331085
0.238038
0.284026
0.232614
0.273532
0.216473
0.172587
0.245188
0.0941752
0.1366
0.119651
0.212054
0.180692
0.113235
0.227921
0.251107
0.312234
0.21642
0.315632
0.203895
0.147808
0.165256
0.180634
0.133491
0.126173
0.101736
0.182518
0.140611
0.074868
0.0574446
0.0615936
-0.00690435
0.0825989
0.12553
0.0970307
0.128486
0.12775
0.0470242
0.0733128
0.0778274
0.0142803
0.00682438
-0.00233461
0.0310283
0.0705966
0.0482302
0.0411901
0.0677131
0.0401812
0.055583
0.0450493
0.0215432
-0.00975492
0.0720231
0.0146879
1.70351
1.49015
1.22276
1.01395
0.89761
0.838974
0.713712
0.69364
0.686884
0.539112
0.51067
0.504591
0.381328
0.392082
0.354141
0.369089
0.443761
0.443313
0.67077
0.804271
1.3914
1.27518
1.05147
0.89307
0.783303
0.736876
0.586747
0.530033
0.492935
0.475488
0.439565
0.335556
0.353235
0.296308
0.227215
0.336707
0.276704
0.353605
0.568173
0.628838
1.20894
1.05379
0.877908
0.749485
0.591078
0.518961
0.452485
0.463881
0.346811
0.330535
0.325434
0.264876
0.199589
0.167112
0.266038
0.201096
0.265965
0.270805
0.449499
0.535982
0.876942
0.850869
0.747704
0.580483
0.544604
0.509699
0.34305
0.310732
0.29179
0.295815
0.230993
0.244081
0.161627
0.142931
0.17419
0.14353
0.144721
0.16621
0.260379
0.416926
0.625638
0.654364
0.538415
0.406263
0.384777
0.310966
0.292988
0.208535
0.28805
0.226702
0.15778
0.102668
0.0964222
0.143997
0.0150533
0.0987855
0.0774167
0.169136
0.253913
0.269995
0.541167
0.551886
0.39429
0.293972
0.205853
0.187404
0.216688
0.161715
0.155622
0.134501
0.161457
0.0948307
-0.0454637
0.0248514
0.0441867
0.0414864
0.0909778
0.0916862
0.0954899
0.190125
0.333169
0.195075
0.191332
0.16485
0.134423
0.147288
0.126386
0.0411265
0.0681333
0.159629
0.0374696
0.0134812
0.0352757
0.0113284
0.0534301
0.0649068
-0.0080028
0.07137
0.115287
0.0969289
0.023555
0.13786
0.0966746
0.0601102
0.063387
0.0373899
-0.0115678
0.0496417
0.019404
0.0628719
0.0718873
0.0495468
-0.00465818
-0.0243299
0.0222662
0.0456978
-0.0357319
0.0332493
0.0335144
0.0788428
1.81033
1.58899
1.36673
1.12344
0.934156
0.771948
0.685078
0.618749
0.487732
0.381595
0.314166
0.329881
0.292074
0.20623
0.266374
0.277552
0.373413
0.481119
0.654959
0.930386
1.55669
1.29771
1.10373
0.906448
0.86235
0.616474
0.549511
0.426269
0.460436
0.314522
0.323107
0.203147
0.183947
0.158732
0.183712
0.266448
0.312357
0.382844
0.518435
0.715811
1.26643
1.12723
0.93227
0.703413
0.548882
0.48819
0.446301
0.398533
0.290287
0.245746
0.139145
0.177555
0.0960917
0.144959
0.118779
0.0733493
0.197718
0.303901
0.363966
0.512576
1.03874
0.874752
0.753855
0.599132
0.509729
0.314757
0.332611
0.326685
0.24648
0.163624
0.118838
0.146734
0.0438218
0.0576138
0.041762
0.0572616
0.0920654
0.222745
0.283284
0.372101
0.760685
0.648113
0.497867
0.418011
0.326109
0.334977
0.19713
0.152627
0.165426
0.132081
0.0899591
0.0494798
0.0602583
-0.00195656
0.11744
-0.0337668
0.0479723
0.189923
0.167641
0.271405
0.621095
0.455532
0.374052
0.230589
0.276714
0.204164
0.174617
0.113964
0.0570145
0.0872215
0.0977527
0.0772319
0.0763063
0.0459798
-0.0103417
0.0213908
0.00704299
0.093634
0.0805696
0.11951
0.283049
0.320827
0.223141
0.170114
0.153713
0.152941
0.0627102
0.0614158
0.0488245
0.115808
-0.00495996
0.0326861
-0.0321494
0.0246611
0.00871752
-0.00748063
0.0469005
0.0779337
0.0998875
0.0485983
0.0853543
0.13395
0.0689492
0.0561653
0.0814037
0.0840999
0.0436001
0.0216544
-0.0231552
0.00417513
-0.0209402
-0.031358
-0.00764373
-0.0356522
-0.0732281
0.00824599
-0.0209715
-0.0498374
0.0794351
0.0152853
2.11824
1.84664
1.49129
1.30342
1.069
0.825362
0.720732
0.572545
0.448921
0.447531
0.38804
0.249994
0.26454
0.193888
0.329581
0.368038
0.420904
0.631531
0.782534
1.06202
1.7248
1.59721
1.3212
1.0674
0.842566
0.689591
0.548589
0.518849
0.365239
0.401703
0.320079
0.196655
0.235885
0.112224
0.182618
0.337212
0.370336
0.470339
0.704044
0.829161
1.40068
1.22314
0.98201
0.86635
0.683499
0.574053
0.447948
0.350016
0.255625
0.231739
0.20659
0.154438
0.0484583
0.0977767
0.0981872
0.161385
0.210625
0.380633
0.487493
0.65241
1.10755
0.959106
0.834715
0.636937
0.602317
0.433085
0.410696
0.327616
0.166639
0.198338
0.133879
0.120157
0.1321
0.146858
0.0294071
0.129347
0.178553
0.276278
0.391084
0.519048
0.816934
0.747248
0.615983
0.545742
0.332772
0.360681
0.21941
0.216918
0.116507
0.107355
0.136114
0.1056
0.0213589
0.0867744
0.0214932
0.0621854
0.0149327
0.150846
0.209575
0.338475
0.558698
0.568034
0.43244
0.404114
0.222416
0.212859
0.152799
0.144478
0.0621459
0.108712
0.031748
0.0441712
0.0459409
-0.123445
0.0509904
0.056124
0.0727669
0.101062
0.191836
0.282065
0.358192
0.347508
0.209433
0.1944
0.213125
0.128476
0.104363
-0.0195403
0.0360268
0.0155524
0.0251724
0.044446
0.0225588
-0.0465948
0.0295335
-0.0139171
0.00771118
0.0109297
0.116555
0.123616
0.129358
0.119407
0.10243
0.0263361
0.0130602
-0.0133407
0.0477137
0.0396414
0.0996852
0.0494468
-0.061512
0.0722626
-0.0274431
0.0354918
-0.0188136
0.0165546
0.0527437
0.00294274
0.0446409
-0.00218888
2.44233
2.16055
1.89335
1.56115
1.3075
1.07217
0.864625
0.748479
0.663378
0.600939
0.492335
0.405181
0.367123
0.398769
0.415181
0.551119
0.713462
0.872985
1.03388
1.39144
2.06532
1.83854
1.51364
1.25107
1.12467
0.876226
0.710434
0.586532
0.436708
0.436541
0.411039
0.289162
0.306359
0.295962
0.385932
0.378541
0.534178
0.678136
0.932985
1.03401
1.69691
1.44459
1.17156
1.06086
0.836374
0.74004
0.600886
0.447574
0.339426
0.345376
0.276812
0.269024
0.257073
0.225876
0.218243
0.292347
0.347869
0.527342
0.662848
0.824698
1.33273
1.11373
0.964353
0.874718
0.670689
0.557342
0.460545
0.38263
0.255414
0.240514
0.227782
0.11347
0.0806192
0.126263
0.168053
0.202505
0.187232
0.309406
0.44502
0.617807
1.0185
0.907831
0.805998
0.648299
0.505978
0.354113
0.362087
0.31168
0.163752
0.198372
0.11052
0.113447
0.12528
0.151137
0.0689739
0.138716
0.163791
0.215418
0.402225
0.435068
0.661668
0.598121
0.537582
0.418526
0.392714
0.271498
0.259505
0.118704
0.139473
0.0422275
0.0167246
0.147473
0.0787378
0.0320809
0.0015662
0.0433097
0.155735
0.167402
0.17096
0.370447
0.406657
0.449527
0.371454
0.282848
0.196581
0.163257
0.138941
0.155362
0.099127
0.0882958
0.0316153
0.0604242
0.0190841
0.0177071
0.0376851
0.0245386
0.0697502
0.0881006
0.150001
0.211785
0.110321
0.104536
0.152147
0.080146
0.0840777
-0.0292707
0.0475184
-0.0222404
-0.00496592
0.0668701
-0.000902172
0.0432043
-0.0325822
-0.0152551
0.0709175
0.0464624
0.0178235
0.0276904
0.104498
0.00493663
2.92353
2.72832
2.28961
1.92232
1.64204
1.3864
1.2374
1.07546
0.947154
0.814881
0.724894
0.697864
0.714016
0.766336
0.77045
0.853253
0.997874
1.25354
1.43477
1.7509
2.43448
2.19629
1.82591
1.61584
1.39883
1.21026
1.13025
0.837628
0.734531
0.698589
0.599071
0.571928
0.637673
0.500567
0.599971
0.669641
0.710541
1.00495
1.13783
1.42039
2.07831
1.8161
1.53754
1.30955
1.13243
0.947063
0.795832
0.671273
0.646285
0.552619
0.413843
0.445126
0.453846
0.434402
0.476179
0.559776
0.635975
0.704976
0.877519
1.154
1.66385
1.46053
1.31873
1.16863
0.885953
0.717058
0.658242
0.611393
0.437632
0.38634
0.361376
0.272848
0.234777
0.323379
0.299298
0.392503
0.534591
0.587407
0.685687
0.87075
1.28614
1.11634
0.970102
0.84053
0.690947
0.56346
0.47354
0.384845
0.3582
0.230711
0.278744
0.241047
0.203322
0.227689
0.201014
0.246891
0.352551
0.388194
0.584614
0.624312
0.865746
0.794781
0.676577
0.55612
0.457476
0.46108
0.359546
0.299571
0.212232
0.190893
0.183008
0.180919
0.158514
0.132931
0.199221
0.175034
0.31372
0.292647
0.340154
0.539001
0.507324
0.463354
0.371937
0.385967
0.27527
0.258879
0.153769
0.199869
0.172737
0.171144
0.168185
0.0651797
0.0868363
0.0702079
0.122868
0.136367
0.129593
0.144167
0.272598
0.257727
0.203918
0.185941
0.147892
0.156883
0.142418
0.0615944
0.0567523
0.0220753
-0.0123928
0.0332504
-0.00794021
0.0676368
-0.00037084
-0.00177131
-0.0213057
0.0681906
0.125557
0.108086
0.0343685
0.0485236
3.6277
3.20255
2.81368
2.51366
2.18877
1.92821
1.76597
1.52491
1.35406
1.2066
1.1595
1.06521
1.06845
1.10263
1.1542
1.26558
1.49031
1.74775
2.00749
2.26777
3.03722
2.73564
2.39533
2.13833
1.81513
1.6112
1.43041
1.21224
1.04745
1.0563
0.916452
0.844704
0.91007
0.973004
0.987446
1.01651
1.17669
1.43168
1.72013
1.86415
2.43944
2.30053
2.01843
1.73276
1.44798
1.24945
1.17038
0.995898
0.905413
0.743133
0.719249
0.703757
0.693347
0.719351
0.718101
0.803038
0.900923
1.16195
1.27509
1.50472
1.97892
1.78305
1.5665
1.4288
1.21274
1.04964
0.88051
0.743278
0.693893
0.623691
0.500795
0.589879
0.519371
0.489784
0.516763
0.669461
0.74175
0.807846
0.998281
1.20874
1.54608
1.36919
1.18144
1.01383
0.916337
0.782318
0.678258
0.556334
0.52092
0.461633
0.37729
0.430066
0.310841
0.387971
0.410793
0.49688
0.563975
0.630946
0.700345
0.878476
1.09892
1.01271
0.889964
0.742799
0.620956
0.561782
0.457808
0.354856
0.327933
0.363682
0.293835
0.312766
0.31512
0.226317
0.269004
0.388575
0.347753
0.435357
0.531039
0.679552
0.650835
0.592346
0.434273
0.441552
0.408123
0.35032
0.255987
0.233164
0.21669
0.0983705
0.116295
0.13096
0.128227
0.149023
0.120213
0.155288
0.280971
0.284625
0.362393
0.38545
0.237998
0.217447
0.233144
0.162864
0.0703268
0.0933236
0.0860676
0.0669295
0.066693
0.0545476
0.0213566
0.108782
0.0713709
0.0334461
-0.0103981
0.0568042
0.0837729
0.0787322
0.0730897
0.139797
4.34368
3.88233
3.59786
3.24403
2.79362
2.51344
2.3016
2.06987
1.91332
1.76171
1.72361
1.63637
1.64418
1.61229
1.72215
1.90096
2.00152
2.37294
2.64456
2.9845
3.65837
3.35752
3.0067
2.67995
2.38656
2.08632
1.8741
1.63745
1.5979
1.42154
1.37763
1.35663
1.35709
1.34056
1.47584
1.51788
1.67281
1.90132
2.19084
2.42601
3.07351
2.77688
2.39285
2.12434
1.94825
1.68831
1.56132
1.40166
1.24136
1.16353
1.07045
1.02229
1.06305
1.09316
1.20835
1.2199
1.38292
1.52888
1.69727
2.00116
2.43483
2.18906
2.00458
1.70153
1.58398
1.44185
1.13467
1.17438
1.01768
0.923609
0.826846
0.798541
0.764704
0.786647
0.901505
0.999866
1.07955
1.19239
1.4176
1.56274
1.88821
1.7183
1.492
1.32414
1.23521
1.01471
0.960639
0.887926
0.693351
0.715357
0.616337
0.611591
0.625293
0.637977
0.590893
0.673229
0.795608
0.903098
1.04064
1.09318
1.30547
1.19941
1.11204
0.867124
0.785155
0.737187
0.595745
0.571635
0.504493
0.51324
0.449039
0.418125
0.398099
0.408838
0.513419
0.473851
0.506471
0.609673
0.753319
0.796339
0.84321
0.781913
0.519242
0.528573
0.480241
0.417512
0.327143
0.350028
0.249053
0.332175
0.223535
0.251731
0.263451
0.187283
0.273337
0.240007
0.306248
0.383804
0.336283
0.479243
0.299884
0.144344
0.251061
0.149395
0.141889
0.0884239
0.126512
0.126861
0.0616022
0.116591
0.0431968
0.0833692
0.0853768
0.151219
0.104116
0.073354
0.0909241
0.157136
0.142685
0.172374
5.14148
4.73317
4.30225
3.83602
3.48761
3.16109
2.9057
2.67596
2.54913
2.4095
2.30219
2.22658
2.19222
2.25179
2.43851
2.59151
2.77422
2.99299
3.2702
3.65796
4.3134
3.89874
3.55872
3.20316
2.86927
2.66543
2.42023
2.21264
2.05802
1.95734
1.88288
1.8141
1.8952
1.89601
1.96153
2.06313
2.26294
2.55618
2.75741
2.98839
3.55898
3.29304
2.94484
2.65535
2.40171
2.11793
1.94492
1.84612
1.68899
1.60104
1.53557
1.52028
1.43031
1.44388
1.57498
1.63804
1.80001
1.89627
2.22322
2.46319
2.85443
2.5547
2.38645
2.10228
1.93481
1.67321
1.58947
1.42958
1.30206
1.17743
1.17206
1.1794
1.17935
1.12352
1.25207
1.25919
1.39595
1.65741
1.77269
1.94216
2.17388
2.01434
1.74569
1.61719
1.50976
1.27121
1.18163
1.05667
0.948373
0.981093
0.896186
0.860539
0.843836
0.89668
0.894403
0.992012
1.00758
1.2082
1.26924
1.46669
1.51717
1.34712
1.23862
1.20124
1.06196
0.902814
0.827209
0.769024
0.703103
0.664541
0.614329
0.617279
0.519546
0.625022
0.531288
0.68402
0.675818
0.824611
0.910862
1.02629
0.933693
0.804229
0.75314
0.694178
0.595851
0.495094
0.465082
0.43903
0.47158
0.425441
0.315267
0.346272
0.284214
0.342996
0.400359
0.335954
0.455476
0.477434
0.528505
0.633188
0.36577
0.329997
0.230142
0.272255
0.212689
0.196841
0.152061
0.138659
0.190409
0.084534
0.104271
0.0180488
0.0998005
0.0624204
0.1725
0.135963
0.156094
0.164335
0.246588
0.207958
5.78051
5.44669
4.88179
4.4608
4.04892
3.77431
3.43421
3.2362
3.07954
2.95985
2.84619
2.80426
2.81379
2.87613
2.93763
3.16585
3.30879
3.60775
3.9618
4.33674
4.88911
4.56345
4.04612
3.72259
3.44012
3.09212
2.87269
2.67868
2.52172
2.35839
2.30321
2.28623
2.26319
2.34117
2.40776
2.45938
2.67558
2.96292
3.21312
3.50178
3.96756
3.69637
3.40607
3.04309
2.76568
2.47096
2.26713
2.12514
1.99811
1.87121
1.8111
1.75438
1.84834
1.88215
1.92921
2.0554
2.11565
2.42059
2.62627
2.86894
3.26612
2.94774
2.66913
2.37861
2.1775
1.94911
1.75681
1.70447
1.56502
1.53338
1.41656
1.40781
1.35711
1.41669
1.43137
1.58939
1.6337
1.87706
2.00679
2.1887
2.43486
2.21423
2.1024
1.79569
1.62908
1.49209
1.33122
1.25775
1.23232
1.18702
1.00395
1.0993
1.03886
1.00615
1.08696
1.22119
1.28559
1.38575
1.57315
1.71807
1.6409
1.57823
1.49281
1.3244
1.13128
1.06736
1.03309
0.919351
0.862434
0.757762
0.735092
0.723032
0.755071
0.678895
0.769284
0.827882
0.911214
0.934314
1.08956
1.22194
0.995783
0.886373
0.763493
0.740206
0.681379
0.637066
0.534322
0.516888
0.472021
0.477202
0.422337
0.378559
0.478933
0.481341
0.416487
0.501368
0.490794
0.52569
0.635014
0.640733
0.322182
0.34266
0.286585
0.240185
0.16602
0.239743
0.190044
0.129322
0.172522
0.126168
0.0941673
0.152027
0.190211
0.10468
0.121235
0.18364
0.171957
0.234547
0.21846
0.203456
)
;

boundaryField
{
    hotSide
    {
        type            calculated;
        value           nonuniform List<scalar> 
400
(
5.69694
5.10713
4.40785
3.7164
3.1901
2.47379
1.96104
1.54881
1.23775
0.932477
0.855362
0.874883
0.944956
1.21307
1.49433
1.92964
2.5849
3.24893
3.99173
4.57273
5.75994
5.2546
4.45805
3.84237
3.09697
2.52551
2.00069
1.47408
1.1298
0.850935
0.639917
0.66207
0.724115
0.941928
1.21298
1.73483
2.16011
2.78791
3.58372
4.2392
5.84643
5.3696
4.66202
3.86323
3.17662
2.54611
1.863
1.381
1.09581
0.679984
0.562189
0.395236
0.502369
0.587056
0.94621
1.29653
1.77161
2.50376
3.15311
3.67457
6.1037
5.54565
4.67646
3.9618
3.26233
2.51997
1.94583
1.3972
0.980222
0.620169
0.325181
0.186992
0.259605
0.399665
0.614441
0.929629
1.47195
2.15027
2.68717
3.25384
6.34818
5.72141
4.95398
4.22699
3.36974
2.61061
1.95314
1.42963
0.998334
0.45976
0.201716
0.0712088
0.070826
0.165707
0.361212
0.649724
1.1474
1.70017
2.33905
2.84222
6.62829
6.01513
5.13377
4.32013
3.57905
2.75067
2.07343
1.40595
0.901813
0.566386
0.157658
0.0130978
-0.0909031
-0.0774983
0.126271
0.39443
0.88715
1.42027
2.01278
2.56784
6.82957
6.23237
5.4107
4.47143
3.7141
2.92569
2.14531
1.56209
1.03096
0.550708
0.173776
-0.111692
-0.177348
-0.181745
-0.0809313
0.245749
0.725193
1.20868
1.75761
2.22794
7.07568
6.36366
5.55026
4.65523
3.77282
2.92641
2.19833
1.60697
0.95255
0.469082
0.104252
-0.131385
-0.243332
-0.329625
-0.196805
0.0840504
0.484352
0.977133
1.52804
2.03008
7.23373
6.54099
5.70744
4.80779
3.88027
3.00971
2.28257
1.52745
1.01087
0.447943
0.0944186
-0.137868
-0.374109
-0.45303
-0.281709
-0.0440857
0.313652
0.820721
1.40134
1.87353
7.28968
6.57366
5.78971
4.86411
3.90269
3.09931
2.35393
1.56336
0.931516
0.483169
0.0168191
-0.2855
-0.480116
-0.454312
-0.34405
-0.176268