/*--------------------------------*- C++ -*----------------------------------*\
| =========                 |                                                 |
| \\      /  F ield         | OpenFOAM: The Open Source CFD Toolbox           |
|  \\    /   O peration     | Version:  2212                                  |
|   \\  /    A nd           | Website:  www.openfoam.com                      |
|    \\/     M anipulation  |                                                 |
\*---------------------------------------------------------------------------*/
FoamFile
{
    version     2.0;
    format      ascii;
    arch        "LSB;label=32;scalar=64";
    class       volScalarField;
    location    "./ITHACAoutput/true/19.4";
    object      trueState;
}
// * * * * * * * * * * * * * * * * * * * * * * * * * * * * * * * * * * * * * //

dimensions      [0 0 0 1 0 0 0];

internalField   nonuniform List<scalar> 
3200
(
319.792
319.971
320.201
320.451
320.709
320.962
321.195
321.392
321.536
321.612
321.612
321.536
321.392
321.195
320.962
320.709
320.451
320.201
319.971
319.792
317.069
317.221
317.419
317.636
317.859
318.077
318.279
318.449
318.573
318.639
318.639
318.573
318.449
318.279
318.077
317.859
317.636
317.419
317.221
317.069
314.384
314.51
314.677
314.86
315.048
315.233
315.403
315.547
315.652
315.707
315.707
315.652
315.547
315.403
315.233
315.048
314.86
314.677
314.51
314.384
311.73
311.831
311.967
312.117
312.271
312.422
312.561
312.678
312.763
312.809
312.809
312.763
312.678
312.561
312.422
312.271
312.117
311.967
311.831
311.73
309.1
309.178
309.284
309.4
309.519
309.637
309.745
309.836
309.902
309.937
309.937
309.902
309.836
309.745
309.637
309.519
309.4
309.284
309.178
309.1
306.49
306.545
306.62
306.703
306.789
306.872
306.95
307.015
307.062
307.087
307.087
307.062
307.015
306.95
306.872
306.789
306.703
306.62
306.545
306.49
303.893
303.926
303.971
304.021
304.072
304.122
304.169
304.208
304.236
304.251
304.251
304.236
304.208
304.169
304.122
304.072
304.021
303.971
303.926
303.893
301.304
301.315
301.33
301.347
301.364
301.381
301.396
301.409
301.419
301.424
301.424
301.419
301.409
301.396
301.381
301.364
301.347
301.33
301.315
301.304
319.867
320.046
320.273
320.521
320.776
321.026
321.257
321.451
321.593
321.668
321.668
321.593
321.451
321.257
321.026
320.776
320.521
320.273
320.046
319.867
317.134
317.285
317.481
317.696
317.916
318.133
318.332
318.5
318.623
318.687
318.687
318.623
318.5
318.332
318.133
317.916
317.696
317.481
317.285
317.134
314.439
314.564
314.729
314.91
315.097
315.28
315.448
315.59
315.693
315.748
315.748
315.693
315.59
315.448
315.28
315.097
314.91
314.729
314.564
314.439
311.774
311.875
312.01
312.158
312.31
312.46
312.597
312.713
312.797
312.842
312.842
312.797
312.713
312.597
312.46
312.31
312.158
312.01
311.875
311.774
309.135
309.212
309.317
309.432
309.55
309.666
309.773
309.863
309.928
309.963
309.963
309.928
309.863
309.773
309.666
309.55
309.432
309.317
309.212
309.135
306.514
306.569
306.644
306.726
306.81
306.893
306.97
307.034
307.08
307.105
307.105
307.08
307.034
306.97
306.893
306.81
306.726
306.644
306.569
306.514
303.908
303.94
303.985
304.034
304.085
304.135
304.181
304.219
304.247
304.262
304.262
304.247
304.219
304.181
304.135
304.085
304.034
303.985
303.94
303.908
301.309
301.32
301.335
301.351
301.368
301.385
301.4
301.413
301.423
301.428
301.428
301.423
301.413
301.4
301.385
301.368
301.351
301.335
301.32
301.309
320.019
320.194
320.418
320.661
320.911
321.156
321.381
321.571
321.709
321.782
321.782
321.709
321.571
321.381
321.156
320.911
320.661
320.418
320.194
320.019
317.264
317.413
317.606
317.816
318.033
318.244
318.439
318.603
318.722
318.785
318.785
318.722
318.603
318.439
318.244
318.033
317.816
317.606
317.413
317.264
314.548
314.671
314.834
315.012
315.194
315.373
315.538
315.676
315.777
315.83
315.83
315.777
315.676
315.538
315.373
315.194
315.012
314.834
314.671
314.548
311.863
311.962
312.095
312.24
312.39
312.536
312.67
312.783
312.865
312.909
312.909
312.865
312.783
312.67
312.536
312.39
312.24
312.095
311.962
311.863
309.204
309.28
309.382
309.495
309.612
309.725
309.83
309.917
309.981
310.015
310.015
309.981
309.917
309.83
309.725
309.612
309.495
309.382
309.28
309.204
306.563
306.617
306.691
306.771
306.854
306.935
307.01
307.073
307.118
307.142
307.142
307.118
307.073
307.01
306.935
306.854
306.771
306.691
306.617
306.563
303.937
303.969
304.013
304.062
304.111
304.16
304.205
304.242
304.27
304.284
304.284
304.27
304.242
304.205
304.16
304.111
304.062
304.013
303.969
303.937
301.319
301.33
301.344
301.361
301.377
301.394
301.409
301.421
301.43
301.435
301.435
301.43
301.421
301.409
301.394
301.377
301.361
301.344
301.33
301.319
320.246
320.418
320.636
320.872
321.115
321.352
321.569
321.752
321.885
321.955
321.955
321.885
321.752
321.569
321.352
321.115
320.872
320.636
320.418
320.246
317.46
317.605
317.793
317.998
318.208
318.413
318.601
318.759
318.874
318.934
318.934
318.874
318.759
318.601
318.413
318.208
317.998
317.793
317.605
317.46
314.712
314.833
314.991
315.164
315.342
315.515
315.674
315.807
315.904
315.955
315.955
315.904
315.807
315.674
315.515
315.342
315.164
314.991
314.833
314.712
311.997
312.094
312.223
312.364
312.509
312.651
312.781
312.89
312.969
313.011
313.011
312.969
312.89
312.781
312.651
312.509
312.364
312.223
312.094
311.997
309.307
309.382
309.482
309.592
309.704
309.814
309.915
310
310.062
310.094
310.094
310.062
310
309.915
309.814
309.704
309.592
309.482
309.382
309.307
306.637
306.69
306.761
306.84
306.92
306.999
307.071
307.131
307.175
307.198
307.198
307.175
307.131
307.071
306.999
306.92
306.84
306.761
306.69
306.637
303.981
304.013
304.056
304.103
304.151
304.198
304.241
304.278
304.304
304.318
304.318
304.304
304.278
304.241
304.198
304.151
304.103
304.056
304.013
303.981
301.334
301.344
301.358
301.374
301.39
301.406
301.421
301.433
301.442
301.446
301.446
301.442
301.433
301.421
301.406
301.39
301.374
301.358
301.344
301.334
320.55
320.716
320.927
321.156
321.389
321.616
321.824
321.998
322.125
322.191
322.191
322.125
321.998
321.824
321.616
321.389
321.156
320.927
320.716
320.55
317.722
317.862
318.044
318.242
318.443
318.64
318.82
318.971
319.08
319.137
319.137
319.08
318.971
318.82
318.64
318.443
318.242
318.044
317.862
317.722
314.932
315.049
315.202
315.369
315.54
315.706
315.858
315.985
316.077
316.126
316.126
316.077
315.985
315.858
315.706
315.54
315.369
315.202
315.049
314.932
312.176
312.27
312.395
312.531
312.671
312.806
312.931
313.035
313.11
313.15
313.15
313.11
313.035
312.931
312.806
312.671
312.531
312.395
312.27
312.176
309.446
309.518
309.615
309.721
309.829
309.935
310.031
310.112
310.171
310.201
310.201
310.171
310.112
310.031
309.935
309.829
309.721
309.615
309.518
309.446
306.736
306.787
306.856
306.932
307.009
307.085
307.154
307.211
307.253
307.275
307.275
307.253
307.211
307.154
307.085
307.009
306.932
306.856
306.787
306.736
304.04
304.071
304.112
304.158
304.204
304.25
304.291
304.326
304.351
304.364
304.364
304.351
304.326
304.291
304.25
304.204
304.158
304.112
304.071
304.04
301.353
301.364
301.378
301.393
301.408
301.423
301.437
301.449
301.457
301.462
301.462
301.457
301.449
301.437
301.423
301.408
301.393
301.378
301.364
301.353
320.932
321.092
321.294
321.512
321.734
321.95
322.147
322.311
322.43
322.493
322.493
322.43
322.311
322.147
321.95
321.734
321.512
321.294
321.092
320.932
318.05
318.185
318.36
318.548
318.741
318.927
319.098
319.24
319.343
319.397
319.397
319.343
319.24
319.098
318.927
318.741
318.548
318.36
318.185
318.05
315.208
315.321
315.468
315.627
315.79
315.947
316.091
316.212
316.298
316.344
316.344
316.298
316.212
316.091
315.947
315.79
315.627
315.468
315.321
315.208
312.4
312.491
312.611
312.741
312.874
313.003
313.121
313.219
313.29
313.327
313.327
313.29
313.219
313.121
313.003
312.874
312.741
312.611
312.491
312.4
309.62
309.689
309.782
309.884
309.987
310.087
310.179
310.255
310.31
310.339
310.339
310.31
310.255
310.179
310.087
309.987
309.884
309.782
309.689
309.62
306.86
306.909
306.975
307.048
307.122
307.193
307.258
307.313
307.352
307.373
307.373
307.352
307.313
307.258
307.193
307.122
307.048
306.975
306.909
306.86
304.115
304.144
304.184
304.227
304.272
304.315
304.354
304.386
304.41
304.422
304.422
304.41
304.386
304.354
304.315
304.272
304.227
304.184
304.144
304.115
301.378
301.388
301.401
301.416
301.431
301.445
301.458
301.469
301.477
301.481
301.481
301.477
301.469
301.458
301.445
301.431
301.416
301.401
301.388
301.378
321.391
321.544
321.737
321.944
322.154
322.357
322.542
322.695
322.806
322.864
322.864
322.806
322.695
322.542
322.357
322.154
321.944
321.737
321.544
321.391
318.445
318.574
318.741
318.92
319.102
319.277
319.437
319.57
319.666
319.716
319.716
319.666
319.57
319.437
319.277
319.102
318.92
318.741
318.574
318.445
315.541
315.648
315.788
315.94
316.093
316.242
316.377
316.489
316.57
316.613
316.613
316.57
316.489
316.377
316.242
316.093
315.94
315.788
315.648
315.541
312.671
312.757
312.872
312.995
313.121
313.243
313.353
313.445
313.511
313.546
313.546
313.511
313.445
313.353
313.243
313.121
312.995
312.872
312.757
312.671
309.829
309.896
309.984
310.081
310.178
310.273
310.358
310.43
310.481
310.508
310.508
310.481
310.43
310.358
310.273
310.178
310.081
309.984
309.896
309.829
307.009
307.056
307.119
307.188
307.258
307.325
307.387
307.437
307.474
307.493
307.493
307.474
307.437
307.387
307.325
307.258
307.188
307.119
307.056
307.009
304.204
304.232
304.27
304.311
304.353
304.394
304.431
304.461
304.483
304.495
304.495
304.483
304.461
304.431
304.394
304.353
304.311
304.27
304.232
304.204
301.408
301.418
301.43
301.444
301.458
301.472
301.484
301.494
301.502
301.506
301.506
301.502
301.494
301.484
301.472
301.458
301.444
301.43
301.418
301.408
321.93
322.075
322.258
322.453
322.65
322.839
323.011
323.153
323.256
323.309
323.309
323.256
323.153
323.011
322.839
322.65
322.453
322.258
322.075
321.93
318.908
319.031
319.189
319.358
319.528
319.692
319.841
319.964
320.053
320.099
320.099
320.053
319.964
319.841
319.692
319.528
319.358
319.189
319.031
318.908
315.93
316.032
316.165
316.307
316.452
316.59
316.716
316.82
316.895
316.934
316.934
316.895
316.82
316.716
316.59
316.452
316.307
316.165
316.032
315.93
312.988
313.07
313.178
313.295
313.413
313.526
313.629
313.714
313.775
313.807
313.807
313.775
313.714
313.629
313.526
313.413
313.295
313.178
313.07
312.988
310.075
310.138
310.222
310.313
310.404
310.492
310.572
310.638
310.686
310.711
310.711
310.686
310.638
310.572
310.492
310.404
310.313
310.222
310.138
310.075
307.184
307.229
307.289
307.353
307.419
307.482
307.539
307.586
307.62
307.638
307.638
307.62
307.586
307.539
307.482
307.419
307.353
307.289
307.229
307.184
304.309
304.336
304.372
304.41
304.45
304.488
304.522
304.55
304.571
304.581
304.581
304.571
304.55
304.522
304.488
304.45
304.41
304.372
304.336
304.309
301.443
301.452
301.464
301.477
301.491
301.503
301.515
301.524
301.531
301.535
301.535
301.531
301.524
301.515
301.503
301.491
301.477
301.464
301.452
301.443
322.548
322.685
322.857
323.04
323.223
323.399
323.557
323.688
323.782
323.831
323.831
323.782
323.688
323.557
323.399
323.223
323.04
322.857
322.685
322.548
319.44
319.556
319.704
319.862
320.021
320.174
320.311
320.424
320.505
320.548
320.548
320.505
320.424
320.311
320.174
320.021
319.862
319.704
319.556
319.44
316.377
316.473
316.598
316.732
316.866
316.995
317.111
317.207
317.276
317.311
317.311
317.276
317.207
317.111
316.995
316.866
316.732
316.598
316.473
316.377
313.352
313.429
313.531
313.641
313.751
313.856
313.951
314.029
314.085
314.114
314.114
314.085
314.029
313.951
313.856
313.751
313.641
313.531
313.429
313.352
310.357
310.416
310.495
310.58
310.666
310.748
310.821
310.882
310.926
310.949
310.949
310.926
310.882
310.821
310.748
310.666
310.58
310.495
310.416
310.357
307.385
307.427
307.483
307.544
307.605
307.664
307.716
307.76
307.791
307.807
307.807
307.791
307.76
307.716
307.664
307.605
307.544
307.483
307.427
307.385
304.429
304.455
304.488
304.525
304.561
304.597
304.628
304.654
304.673
304.683
304.683
304.673
304.654
304.628
304.597
304.561
304.525
304.488
304.455
304.429
301.484
301.492
301.503
301.516
301.528
301.54
301.55
301.559
301.565
301.569
301.569
301.565
301.559
301.55
301.54
301.528
301.516
301.503
301.492
301.484
323.247
323.376
323.536
323.707
323.877
324.038
324.184
324.303
324.389
324.433
324.433
324.389
324.303
324.184
324.038
323.877
323.707
323.536
323.376
323.247
320.041
320.15
320.289
320.436
320.583
320.724
320.849
320.953
321.027
321.066
321.066
321.027
320.953
320.849
320.724
320.583
320.436
320.289
320.15
320.041
316.883
316.973
317.09
317.214
317.339
317.458
317.564
317.652
317.714
317.747
317.747
317.714
317.652
317.564
317.458
317.339
317.214
317.09
316.973
316.883
313.763
313.836
313.931
314.033
314.135
314.232
314.319
314.391
314.442
314.469
314.469
314.442
314.391
314.319
314.232
314.135
314.033
313.931
313.836
313.763
310.676
310.731
310.805
310.885
310.964
311.039
311.107
311.163
311.202
311.223
311.223
311.202
311.163
311.107
311.039
310.964
310.885
310.805
310.731
310.676
307.612
307.652
307.704
307.761
307.817
307.871
307.92
307.959
307.988
308.003
308.003
307.988
307.959
307.92
307.871
307.817
307.761
307.704
307.652
307.612
304.566
304.589
304.621
304.655
304.689
304.721
304.75
304.774
304.791
304.8
304.8
304.791
304.774
304.75
304.721
304.689
304.655
304.621
304.589
304.566
301.529
301.537
301.548
301.559
301.571
301.581
301.591
301.599
301.605
301.608
301.608
301.605
301.599
301.591
301.581
301.571
301.559
301.548
301.537
301.529
324.027
324.148
324.297
324.455
324.611
324.76
324.892
325.001
325.078
325.118
325.118
325.078
325.001
324.892
324.76
324.611
324.455
324.297
324.148
324.027
320.712
320.814
320.943
321.08
321.216
321.344
321.459
321.553
321.62
321.655
321.655
321.62
321.553
321.459
321.344
321.216
321.08
320.943
320.814
320.712
317.447
317.532
317.64
317.756
317.871
317.979
318.076
318.156
318.213
318.242
318.242
318.213
318.156
318.076
317.979
317.871
317.756
317.64
317.532
317.447
314.223
314.291
314.38
314.474
314.568
314.657
314.736
314.801
314.848
314.872
314.872
314.848
314.801
314.736
314.657
314.568
314.474
314.38
314.291
314.223
311.032
311.084
311.153
311.226
311.299
311.368
311.43
311.481
311.517
311.535
311.535
311.517
311.481
311.43
311.368
311.299
311.226
311.153
311.084
311.032
307.866
307.903
307.952
308.004
308.056
308.106
308.15
308.186
308.212
308.225
308.225
308.212
308.186
308.15
308.106
308.056
308.004
307.952
307.903
307.866
304.718
304.74
304.769
304.801
304.832
304.862
304.888
304.91
304.925
304.933
304.933
304.925
304.91
304.888
304.862
304.832
304.801
304.769
304.74
304.718
301.58
301.588
301.597
301.608
301.618
301.628
301.637
301.645
301.65
301.652
301.652
301.65
301.645
301.637
301.628
301.618
301.608
301.597
301.588
301.58
324.889
325.002
325.14
325.285
325.429
325.564
325.685
325.783
325.852
325.889
325.889
325.852
325.783
325.685
325.564
325.429
325.285
325.14
325.002
324.889
321.454
321.549
321.669
321.795
321.919
322.036
322.14
322.225
322.286
322.317
322.317
322.286
322.225
322.14
322.036
321.919
321.795
321.669
321.549
321.454
318.071
318.15
318.25
318.357
318.462
318.561
318.649
318.721
318.772
318.799
318.799
318.772
318.721
318.649
318.561
318.462
318.357
318.25
318.15
318.071
314.731
314.794
314.876
314.963
315.049
315.131
315.203
315.262
315.303
315.325
315.325
315.303
315.262
315.203
315.131
315.049
314.963
314.876
314.794
314.731
311.425
311.474
311.537
311.605
311.672
311.735
311.791
311.837
311.87
311.886
311.886
311.87
311.837
311.791
311.735
311.672
311.605
311.537
311.474
311.425
308.146
308.18
308.226
308.274
308.322
308.367
308.407
308.44
308.463
308.475
308.475
308.463
308.44
308.407
308.367
308.322
308.274
308.226
308.18
308.146
304.886
304.906
304.933
304.962
304.991
305.018
305.042
305.062
305.076
305.083
305.083
305.076
305.062
305.042
305.018
304.991
304.962
304.933
304.906
304.886
301.636
301.643
301.652
301.662
301.672
301.681
301.689
301.696
301.7
301.703
301.703
301.7
301.696
301.689
301.681
301.672
301.662
301.652
301.643
301.636
325.834
325.938
326.066
326.2
326.331
326.454
326.562
326.651
326.713
326.746
326.746
326.713
326.651
326.562
326.454
326.331
326.2
326.066
325.938
325.834
322.267
322.355
322.465
322.581
322.695
322.801
322.895
322.972
323.026
323.054
323.054
323.026
322.972
322.895
322.801
322.695
322.581
322.465
322.355
322.267
318.754
318.827
318.92
319.018
319.114
319.205
319.284
319.349
319.395
319.419
319.419
319.395
319.349
319.284
319.205
319.114
319.018
318.92
318.827
318.754
315.287
315.346
315.422
315.502
315.58
315.654
315.719
315.772
315.81
315.829
315.829
315.81
315.772
315.719
315.654
315.58
315.502
315.422
315.346
315.287
311.856
311.901
311.96
312.022
312.083
312.141
312.192
312.233
312.262
312.277
312.277
312.262
312.233
312.192
312.141
312.083
312.022
311.96
311.901
311.856
308.453
308.485
308.527
308.571
308.615
308.656
308.692
308.722
308.743
308.754
308.754
308.743
308.722
308.692
308.656
308.615
308.571
308.527
308.485
308.453
305.07
305.089
305.114
305.141
305.167
305.191
305.213
305.231
305.243
305.25
305.25
305.243
305.231
305.213
305.191
305.167
305.141
305.114
305.089
305.07
301.698
301.704
301.713
301.722
301.731
301.739
301.746
301.752
301.756
301.759
301.759
301.756
301.752
301.746
301.739
301.731
301.722
301.713
301.704
301.698
326.861
326.957
327.075
327.197
327.317
327.428
327.526
327.605
327.661
327.69
327.69
327.661
327.605
327.526
327.428
327.317
327.197
327.075
326.957
326.861
323.15
323.232
323.333
323.439
323.543
323.639
323.724
323.793
323.842
323.867
323.867
323.842
323.793
323.724
323.639
323.543
323.439
323.333
323.232
323.15
319.497
319.565
319.65
319.74
319.828
319.909
319.981
320.039
320.081
320.102
320.102
320.081
320.039
319.981
319.909
319.828
319.74
319.65
319.565
319.497
315.892
315.946
316.016
316.089
316.161
316.228
316.287
316.334
316.368
316.385
316.385
316.368
316.334
316.287
316.228
316.161
316.089
316.016
315.946
315.892
312.324
312.366
312.42
312.477
312.533
312.585
312.631
312.668
312.694
312.708
312.708
312.694
312.668
312.631
312.585
312.533
312.477
312.42
312.366
312.324
308.787
308.816
308.855
308.896
308.935
308.973
309.005
309.032
309.05
309.06
309.06
309.05
309.032
309.005
308.973
308.935
308.896
308.855
308.816
308.787
305.27
305.287
305.31
305.335
305.359
305.381
305.401
305.417
305.428
305.434
305.434
305.428
305.417
305.401
305.381
305.359
305.335
305.31
305.287
305.27
301.765
301.771
301.779
301.787
301.795
301.802
301.809
301.814
301.818
301.82
301.82
301.818
301.814
301.809
301.802
301.795
301.787
301.779
301.771
301.765
327.969
328.058
328.166
328.277
328.386
328.487
328.575
328.646
328.696
328.722
328.722
328.696
328.646
328.575
328.487
328.386
328.277
328.166
328.058
327.969
324.103
324.178
324.272
324.368
324.462
324.55
324.626
324.688
324.731
324.754
324.754
324.731
324.688
324.626
324.55
324.462
324.368
324.272
324.178
324.103
320.298
320.361
320.439
320.521
320.601
320.675
320.739
320.791
320.828
320.847
320.847
320.828
320.791
320.739
320.675
320.601
320.521
320.439
320.361
320.298
316.544
316.594
316.658
316.725
316.79
316.85
316.903
316.946
316.976
316.992
316.992
316.976
316.946
316.903
316.85
316.79
316.725
316.658
316.594
316.544
312.829
312.868
312.918
312.97
313.02
313.067
313.109
313.142
313.165
313.177
313.177
313.165
313.142
313.109
313.067
313.02
312.97
312.918
312.868
312.829
309.146
309.174
309.209
309.246
309.282
309.316
309.346
309.369
309.386
309.395
309.395
309.386
309.369
309.346
309.316
309.282
309.246
309.209
309.174
309.146
305.485
305.501
305.523
305.545
305.567
305.587
305.605
305.619
305.629
305.634
305.634
305.629
305.619
305.605
305.587
305.567
305.545
305.523
305.501
305.485
301.837
301.843
301.85
301.857
301.865
301.871
301.877
301.882
301.885
301.887
301.887
301.885
301.882
301.877
301.871
301.865
301.857
301.85
301.843
301.837
329.153
329.235
329.334
329.436
329.535
329.625
329.705
329.768
329.813
329.836
329.836
329.813
329.768
329.705
329.625
329.535
329.436
329.334
329.235
329.153
325.121
325.191
325.276
325.364
325.45
325.528
325.597
325.652
325.691
325.711
325.711
325.691
325.652
325.597
325.528
325.45
325.364
325.276
325.191
325.121
321.154
321.211
321.283
321.358
321.43
321.497
321.555
321.602
321.634
321.651
321.651
321.634
321.602
321.555
321.497
321.43
321.358
321.283
321.211
321.154
317.239
317.285
317.344
317.405
317.464
317.519
317.567
317.605
317.632
317.646
317.646
317.632
317.605
317.567
317.519
317.464
317.405
317.344
317.285
317.239
313.368
313.403
313.449
313.497
313.543
313.585
313.622
313.652
313.673
313.684
313.684
313.673
313.652
313.622
313.585
313.543
313.497
313.449
313.403
313.368
309.53
309.555
309.587
309.621
309.654
309.685
309.711
309.732
309.747
309.755
309.755
309.747
309.732
309.711
309.685
309.654
309.621
309.587
309.555
309.53
305.715
305.73
305.75
305.77
305.79
305.808
305.824
305.837
305.846
305.85
305.85
305.846
305.837
305.824
305.808
305.79
305.77
305.75
305.73
305.715
301.914
301.919
301.926
301.933
301.939
301.945
301.951
301.955
301.958
301.959
301.959
301.958
301.955
301.951
301.945
301.939
301.933
301.926
301.919
301.914
330.403
330.478
330.569
330.662
330.751
330.833
330.904
330.961
331.001
331.021
331.021
331.001
330.961
330.904
330.833
330.751
330.662
330.569
330.478
330.403
326.194
326.257
326.336
326.416
326.493
326.564
326.626
326.676
326.71
326.728
326.728
326.71
326.676
326.626
326.564
326.493
326.416
326.336
326.257
326.194
322.053
322.106
322.172
322.24
322.305
322.366
322.418
322.46
322.489
322.504
322.504
322.489
322.46
322.418
322.366
322.305
322.24
322.172
322.106
322.053
317.97
318.012
318.066
318.122
318.175
318.225
318.268
318.302
318.326
318.338
318.338
318.326
318.302
318.268
318.225
318.175
318.122
318.066
318.012
317.97
313.933
313.966
314.007
314.051
314.092
314.131
314.164
314.191
314.209
314.219
314.219
314.209
314.191
314.164
314.131
314.092
314.051
314.007
313.966
313.933
309.932
309.955
309.985
310.015
310.045
310.073
310.097
310.116
310.129
310.136
310.136
310.129
310.116
310.097
310.073
310.045
310.015
309.985
309.955
309.932
305.956
305.969
305.987
306.006
306.024
306.04
306.055
306.066
306.074
306.078
306.078
306.074
306.066
306.055
306.04
306.024
306.006
305.987
305.969
305.956
301.995
301.999
302.005
302.012
302.018
302.023
302.028
302.032
302.034
302.036
302.036
302.034
302.032
302.028
302.023
302.018
302.012
302.005
301.999
301.995
331.688
331.757
331.84
331.925
332.006
332.08
332.144
332.195
332.231
332.249
332.249
332.231
332.195
332.144
332.08
332.006
331.925
331.84
331.757
331.688
327.291
327.349
327.421
327.494
327.565
327.629
327.685
327.729
327.76
327.776
327.776
327.76
327.729
327.685
327.629
327.565
327.494
327.421
327.349
327.291
322.97
323.018
323.079
323.141
323.2
323.255
323.302
323.34
323.366
323.379
323.379
323.366
323.34
323.302
323.255
323.2
323.141
323.079
323.018
322.97
318.712
318.751
318.8
318.851
318.9
318.944
318.983
319.014
319.035
319.046
319.046
319.035
319.014
318.983
318.944
318.9
318.851
318.8
318.751
318.712
314.505
314.535
314.573
314.613
314.651
314.686
314.716
314.74
314.756
314.765
314.765
314.756
314.74
314.716
314.686
314.651
314.613
314.573
314.535
314.505
310.338
310.359
310.386
310.414
310.442
310.466
310.488
310.505
310.517
310.523
310.523
310.517
310.505
310.488
310.466
310.442
310.414
310.386
310.359
310.338
306.198
306.211
306.227
306.244
306.261
306.276
306.289
306.299
306.306
306.31
306.31
306.306
306.299
306.289
306.276
306.261
306.244
306.227
306.211
306.198
302.076
302.08
302.086
302.091
302.097
302.102
302.106
302.11
302.112
302.113
302.113
302.112
302.11
302.106
302.102
302.097
302.091
302.086
302.08
302.076
332.928
332.991
333.068
333.146
333.22
333.287
333.346
333.392
333.424
333.441
333.441
333.424
333.392
333.346
333.287
333.22
333.146
333.068
332.991
332.928
328.337
328.391
328.457
328.525
328.589
328.648
328.698
328.739
328.767
328.781
328.781
328.767
328.739
328.698
328.648
328.589
328.525
328.457
328.391
328.337
323.834
323.879
323.935
323.992
324.047
324.097
324.139
324.174
324.197
324.21
324.21
324.197
324.174
324.139
324.097
324.047
323.992
323.935
323.879
323.834
319.405
319.441
319.487
319.533
319.578
319.619
319.654
319.682
319.702
319.712
319.712
319.702
319.682
319.654
319.619
319.578
319.533
319.487
319.441
319.405
315.035
315.063
315.099
315.135
315.17
315.202
315.229
315.251
315.266
315.274
315.274
315.266
315.251
315.229
315.202
315.17
315.135
315.099
315.063
315.035
310.712
310.732
310.757
310.783
310.808
310.831
310.85
310.866
310.877
310.882
310.882
310.877
310.866
310.85
310.831
310.808
310.783
310.757
310.732
310.712
306.421
306.433
306.448
306.464
306.479
306.493
306.504
306.514
306.52
306.524
306.524
306.52
306.514
306.504
306.493
306.479
306.464
306.448
306.433
306.421
302.15
302.154
302.159
302.165
302.17
302.174
302.178
302.181
302.184
302.185
302.185
302.184
302.181
302.178
302.174
302.17
302.165
302.159
302.154
302.15
333.907
333.967
334.039
334.112
334.182
334.244
334.299
334.342
334.371
334.387
334.387
334.371
334.342
334.299
334.244
334.182
334.112
334.039
333.967
333.907
329.132
329.183
329.245
329.309
329.369
329.424
329.471
329.509
329.535
329.548
329.548
329.535
329.509
329.471
329.424
329.369
329.309
329.245
329.183
329.132
324.47
324.513
324.566
324.62
324.671
324.718
324.758
324.79
324.812
324.823
324.823
324.812
324.79
324.758
324.718
324.671
324.62
324.566
324.513
324.47
319.902
319.937
319.98
320.024
320.066
320.105
320.138
320.164
320.182
320.192
320.192
320.182
320.164
320.138
320.105
320.066
320.024
319.98
319.937
319.902
315.409
315.435
315.469
315.503
315.536
315.566
315.592
315.612
315.627
315.634
315.634
315.627
315.612
315.592
315.566
315.536
315.503
315.469
315.435
315.409
310.972
310.99
311.014
311.039
311.063
311.084
311.103
311.117
311.128
311.133
311.133
311.128
311.117
311.103
311.084
311.063
311.039
311.014
310.99
310.972
306.575
306.586
306.6
306.615
306.629
306.642
306.653
306.662
306.668
306.671
306.671
306.668
306.662
306.653
306.642
306.629
306.615
306.6
306.586
306.575
302.201
302.205
302.21
302.215
302.22
302.224
302.228
302.231
302.233
302.234
302.234
302.233
302.231
302.228
302.224
302.22
302.215
302.21
302.205
302.201
)
;

boundaryField
{
    hotSide
    {
        type            fixedGradient;
        gradient        nonuniform List<scalar> 
400
(
221.33
222.198
223.935
226.546
230.035
234.41
239.678
245.847
252.927
260.924
269.849
279.709
290.511
302.261
314.966
328.63
343.257
358.85
375.413
392.946
223.695
224.544
226.245
228.802
232.223
236.517
241.693
247.762
254.736
262.626
271.442
281.193
291.889
303.536
316.143
329.713
344.253
359.764
376.25
393.714
226.256
227.082
228.739
231.233
234.572
238.77
243.839
249.792
256.645
264.411
273.103
282.732
293.309
304.843
317.342
330.812
345.257
360.68
377.086
394.475
228.968
229.768
231.374
233.794
237.04
241.128
246.074
251.897
258.613
266.241
274.796
284.291
294.74
306.152
318.536
331.899
346.245
361.577
377.899
395.212
231.756
232.528
234.076
236.414
239.556
243.522
248.333
254.012
260.581
268.06
276.469
285.823
296.137
307.423
319.689
332.942
347.188
362.429
378.668
395.906
234.505
235.245
236.732
238.982
242.013
245.851
250.521
256.051
262.467
269.795
278.055
287.267
297.447
308.607
320.757
333.904
348.053
363.207
379.367
396.534
237.056
237.765
239.191
241.353
244.275
247.987
252.519
257.904
264.173
271.355
279.474
288.553
298.607
309.651
321.694
334.744
348.805
363.879
379.969
397.072
239.221
239.902
241.273
243.357
246.181
249.78
254.189
259.447
265.587
272.643
280.641
289.604
299.552
310.497
322.45
335.419
349.407
364.416
380.447
397.499
240.806
241.465
242.794
244.818
247.568
251.081
255.398
260.56
266.604
273.565
281.473
290.352
300.221
311.095
322.983
335.893
349.829
364.791
380.781
397.796
241.645
242.292
243.599
245.59
248.3
251.767
256.034
261.144
267.136
274.047
281.907
290.741
300.569
311.404
323.258
336.138
350.046
364.984
380.952
397.948
241.645
242.292
243.599
245.59
248.3
251.767
256.034
261.144
267.136
274.047
281.907
290.741
300.569
311.404
323.258
336.138
350.046
364.984
380.952
397.948
240.806
241.465
242.794
244.818
247.568
251.081
255.398
260.56
266.604
273.565
281.473
290.352
300.221
311.095
322.983
335.893
349.829
364.791
380.781
397.796
239.221
239.902
241.273
243.357
246.181
249.78
254.189
259.447
265.587
272.643
280.641
289.604
299.552
310.497
322.45
335.419
349.407
364.416
380.447
397.499
237.056
237.765
239.191
241.353
244.275
247.987
252.519
257.904
264.173
271.355
279.474
288.553
298.607
309.651
321.694
334.744
348.805
363.879
379.969
397.072
234.505
235.245
236.732
238.982
242.013
245.851
250.521
256.051
262.467
269.795
278.055
287.267
297.447
308.607
320.757
333.904
348.053
363.207
379.367
396.534
231.756
232.528
234.076
236.414
239.556
243.522
248.333
254.012
260.581
268.06
276.469
285.823
296.137
307.423
319.689
332.942
347.188
362.429
378.668
395.906
228.968
229.768
231.374
233.794
237.04
241.128
246.074
251.897
258.613
266.241
274.796
284.291
294.74
306.152
318.536
331.899
346.245
361.577
377.899
395.212
226.256
227.082
228.739
231.233
234.572
238.77
243.839
249.792
256.645
264.411
273.103
282.732
293.309
304.843
317.342
330.812
345.257
360.68
377.086
394.475
223.695
224.544
226.245
228.802
232.223
236.517
241.693
247.762
254.736
262.626
271.442
281.193
291.889
303.536
316.143
329.713
344.253
359.764
376.25
393.714
221.33
222.198
223.935
226.546
230.035
234.41
239.678
245.847
252.927
260.924
269.849
279.709
290.511
302.261
314.966
328.63
343.257
358.85
375.413
392.946
)
;
    }
    coldSide
    {
        type            mixed;
        refValue        uniform 300;
        refGradient     uniform 0;
        valueFraction   uniform 0.991591;
        source          uniform 0;
        value           nonuniform List<scalar> 
400
(
300.011
300.011
300.011
300.011
300.011
300.012
300.012
300.012
300.012
300.013
300.013
300.014
300.014
300.015
300.015
300.016
300.017
300.017
300.018
300.019
300.011
300.011
300.011
300.011
300.011
300.012
300.012
300.012
300.013
300.013
300.013
300.014
300.014
300.015
300.015