/*--------------------------------*- C++ -*----------------------------------*\
| =========                 |                                                 |
| \\      /  F ield         | OpenFOAM: The Open Source CFD Toolbox           |
|  \\    /   O peration     | Version:  2212                                  |
|   \\  /    A nd           | Website:  www.openfoam.com                      |
|    \\/     M anipulation  |                                                 |
\*---------------------------------------------------------------------------*/
FoamFile
{
    version     2.0;
    format      ascii;
    arch        "LSB;label=32;scalar=64";
    class       volScalarField;
    location    "./ITHACAoutput/true/6.4";
    object      error;
}
// * * * * * * * * * * * * * * * * * * * * * * * * * * * * * * * * * * * * * //

dimensions      [0 0 0 1 0 0 0];

internalField   nonuniform List<scalar> 
3200
(
-4.41012
-2.39986
-0.499007
0.791839
1.47674
1.85053
1.89292
1.86329
1.70943
1.62698
1.60004
1.54316
1.72914
1.90293
2.07109
2.00595
1.62936
0.698096
-1.03721
-2.99404
-3.87578
-2.1293
-0.51321
0.591997
1.26068
1.49303
1.55679
1.50243
1.46224
1.34264
1.26814
1.33708
1.54916
1.64966
1.70312
1.63673
1.44879
0.522841
-0.886821
-2.46647
-3.26957
-1.83676
-0.556772
0.470264
0.953043
1.188
1.28447
1.24523
1.18044
1.09041
1.09073
1.09609
1.1245
1.37614
1.41412
1.41793
1.15324
0.450803
-0.773902
-2.09876
-2.66387
-1.4939
-0.443557
0.310759
0.817631
1.00205
1.11924
1.05753
0.990963
0.905281
0.80929
0.847213
1.03302
1.08588
1.10445
1.21323
0.923919
0.39045
-0.576656
-1.62336
-2.09462
-1.16053
-0.30131
0.263071
0.655285
0.757431
0.859632
0.632583
0.672941
0.708851
0.633425
0.66095
0.767091
0.822472
0.938735
0.9435
0.742076
0.263578
-0.504927
-1.17816
-1.53716
-0.949429
-0.338844
0.123334
0.458645
0.483398
0.563101
0.504413
0.550545
0.505831
0.477997
0.454071
0.534171
0.493054
0.706923
0.608193
0.625901
0.255735
-0.311325
-0.898447
-0.866678
-0.582136
-0.047924
0.150662
0.20844
0.300602
0.345812
0.385458
0.322179
0.299252
0.24921
0.22824
0.309598
0.320133
0.425358
0.411616
0.310113
0.148431
-0.180497
-0.608253
-0.3008
-0.113725
-0.065078
0.0179007
0.101724
0.06817
0.101164
0.0295539
0.0815574
0.082149
0.0493335
0.0177841
0.0302
0.0725838
0.170235
0.142414
0.0912632
0.041883
-0.0803326
-0.160179
-4.46558
-2.40421
-0.602629
0.662486
1.23472
1.48834
1.4557
1.46152
1.23837
1.0983
0.94957
1.03497
1.1005
1.32688
1.48486
1.70666
1.35937
0.399173
-1.13302
-3.15913
-3.93805
-2.19693
-0.552566
0.557537
0.947225
1.25348
1.33624
1.08529
1.07941
0.838409
0.838533
0.854338
0.958326
1.15068
1.37982
1.43367
1.15383
0.382995
-1.02627
-2.51899
-3.32173
-1.85294
-0.576236
0.429579
0.8885
1.03146
0.998707
0.923619
0.871732
0.696513
0.649368
0.624487
0.832819
1.06348
1.11259
1.22201
1.03111
0.32548
-0.835997
-2.06436
-2.73927
-1.55024
-0.467869
0.266717
0.712749
0.76823
0.851962
0.818408
0.597745
0.669811
0.505666
0.551098
0.636675
0.761972
0.951189
1.01114
0.845584
0.185621
-0.618882
-1.65654
-2.12611
-1.16234
-0.387683
0.224151
0.458705
0.6591
0.535048
0.536556
0.478586
0.452843
0.398772
0.398565
0.458459
0.57123
0.720554
0.773065
0.668176
0.259477
-0.469085
-1.29659
-1.56168
-0.898326
-0.307389
0.0675747
0.270464
0.419192
0.47269
0.405806
0.341616
0.311954
0.357828
0.321642
0.341496
0.444676
0.508126
0.562986
0.49415
0.243595
-0.355318
-0.921872
-0.850854
-0.552207
-0.197324
0.0439701
0.11295
0.316117
0.296472
0.264795
0.172552
0.212994
0.233897
0.136081
0.243727
0.262837
0.291474
0.309436
0.331687
0.167274
-0.17888
-0.567938
-0.33311
-0.23681
-0.052198
0.0545656
0.0467762
0.109658
0.119609
0.107019
0.102469
0.139969
-0.02405
0.0879734
0.0687454
0.0717319
0.052698
0.162071
0.129333
0.0313408
-0.00760298
-0.22654
-4.62193
-2.49413
-0.842408
0.385247
0.83177
1.09829
0.921414
0.719733
0.44364
0.164187
0.0913215
0.211746
0.310529
0.521978
0.881573
1.02738
0.851249
0.0602322
-1.43624
-3.37847
-4.07329
-2.26473
-0.794251
0.202629
0.734854
0.843703
0.783771
0.607504
0.406498
0.141121
0.0772976
0.101993
0.27029
0.473699
0.774558
0.961619
0.807968
0.0315952
-1.23768
-2.85028
-3.42673
-2.00638
-0.669635
0.111197
0.48175
0.674313
0.583154
0.464867
0.169419
0.176904
0.0720182
0.0295048
0.220358
0.366961
0.698762
0.741103
0.673929
0.0249643
-0.969727
-2.36557
-2.75973
-1.59176
-0.641622
0.0502442
0.464288
0.508754
0.518671
0.390237
0.169326
0.057417
0.0687333
0.0531209
0.125761
0.388079
0.504895
0.679888
0.507787
0.0659384
-0.786156
-1.81753
-2.17219
-1.3392
-0.521616
-0.0403227
0.318911
0.369158
0.332769
0.343476
0.166788
-0.027646
0.0273722
0.0628254
0.141834
0.263696
0.427808
0.455695
0.41906
-0.00863442
-0.653126
-1.38199
-1.5522
-0.945047
-0.506577
-0.0499834
0.197039
0.282849
0.288475
0.129109
0.100046
-0.0013967
-0.00607751
0.0608505
0.116706
0.223176
0.31092
0.378207
0.290917
-0.00362474
-0.480954
-1.0156
-0.929222
-0.555664
-0.20074
-0.0221162
0.150166
0.145304
0.149031
0.0951274
0.0647035
0.00859121
-0.00770712
0.0236016
0.0370062
0.102323
0.15452
0.241279
0.17032
0.000413026
-0.300758
-0.642106
-0.209589
-0.194497
-0.0311899
-0.0238035
0.0320576
0.0580721
0.0987021
0.0202268
0.0817762
0.0127891
-0.0585955
-0.034445
0.0593663
0.068591
0.0482422
0.0905005
0.0461669
-0.0302893
-0.023669
-0.239662
-4.85775
-2.87513
-1.19051
-0.0459492
0.364539
0.474491
0.317182
-0.0299866
-0.396879
-0.812526
-0.972215
-0.906579
-0.645135
-0.356742
0.11606
0.34333
0.122861
-0.500703
-2.00856
-3.68925
-4.18515
-2.54293
-1.07837
-0.150481
0.263126
0.369072
0.233519
-0.113789
-0.436856
-0.722438
-0.801396
-0.723802
-0.625879
-0.255448
0.0749714
0.296224
0.200629
-0.547663
-1.66232
-3.17748
-3.5208
-2.22582
-0.920625
-0.126825
0.150627
0.22236
0.227899
-0.0636867
-0.38564
-0.616859
-0.679981
-0.716053
-0.483696
-0.204362
0.0927053
0.250895
0.184803
-0.355241
-1.39719
-2.6573
-2.96026
-1.82494
-0.783268
-0.229265
0.133235
0.201412
0.129558
-0.123312
-0.334051
-0.591022
-0.61489
-0.494131
-0.355684
-0.164569
0.0800779
0.239243
0.151464
-0.273923
-1.10133
-2.10941
-2.31646
-1.51739
-0.66513
-0.156537
0.159362
0.0930014
0.0548232
-0.0476399
-0.268623
-0.393521
-0.421562
-0.420913
-0.321349
-0.131527
0.0318069
0.125088
0.0870792
-0.251294
-0.978726
-1.64072
-1.62297
-1.06927
-0.451667
-0.146406
0.0291206
0.135169
0.0973795
-0.0301929
-0.165418
-0.302625
-0.275119
-0.287785
-0.221936
-0.0446119
0.0703778
0.08776
0.135303
-0.173705
-0.675761
-1.09418
-1.01371
-0.701717
-0.311638
-0.134416
-0.0282943
-0.00553616
-0.0139043
-0.0266147
-0.0929802
-0.254541
-0.293868
-0.194757
-0.181243
-0.0252693
-0.00672414
0.0875616
0.0303776
-0.0396507
-0.317737
-0.697742
-0.370045
-0.205594
-0.100311
-0.0510809
-0.0227966
0.0039331
0.0320894
0.0347795
-0.0397856
-0.0551082
-0.126424
-0.0125029
-0.0616466
-0.00566448
0.064933
0.0478306
0.0551678
-0.0462717
-0.0401712
-0.307744
-5.13598
-3.25385
-1.60733
-0.645426
-0.205426
-0.208595
-0.434001
-0.932376
-1.4007
-1.84836
-2.05184
-2.05423
-1.75808
-1.35709
-0.8314
-0.465853
-0.583615
-1.30672
-2.60302
-4.34322
-4.50066
-2.8424
-1.46147
-0.570421
-0.205957
-0.225544
-0.433908
-0.877128
-1.27353
-1.63253
-1.80351
-1.73557
-1.5061
-1.09588
-0.677193
-0.36664
-0.475313
-0.99917
-2.19428
-3.64754
-3.80001
-2.54433
-1.2962
-0.596524
-0.180502
-0.208409
-0.407838
-0.78042
-1.04504
-1.42312
-1.48083
-1.44822
-1.26644
-0.839896
-0.497552
-0.292992
-0.421702
-0.862634
-1.80518
-3.04416
-3.09017
-2.08342
-1.01057
-0.507072
-0.195025
-0.224303
-0.363509
-0.511554
-0.880689
-1.002
-1.22438
-1.21714
-1.04793
-0.773992
-0.437716
-0.293647
-0.310164
-0.63044
-1.43845
-2.45942
-2.38892
-1.75524
-0.923331
-0.381655
-0.123389
-0.168987
-0.260307
-0.462415
-0.62874
-0.913604
-0.949866
-0.889046
-0.764715
-0.63178
-0.328188
-0.245575
-0.289092
-0.625274
-1.18406
-1.92281
-1.74112
-1.19665
-0.769931
-0.270248
-0.146374
-0.172996
-0.213444
-0.342681
-0.486921
-0.608823
-0.711843
-0.582432
-0.543283
-0.337206
-0.237741
-0.205818
-0.174025
-0.466254
-0.800978
-1.32809
-1.00814
-0.718743
-0.430106
-0.213883
-0.118286
-0.0432739
-0.118865
-0.258671
-0.297379
-0.391921
-0.448034
-0.39849
-0.301109
-0.212644
-0.171872
-0.0222734
-0.116773
-0.282842
-0.521875
-0.784394
-0.37439
-0.283507
-0.124716
-0.0281283
0.00411042
-0.0478938
0.0541453
-0.0460722
-0.110087
-0.0215222
-0.0844903
-0.0661608
-0.139586
-0.118497
-0.14684
-0.0882637
-0.0870792
-0.139943
-0.183702
-0.297858
-5.55327
-3.75125
-2.23064
-1.22809
-0.814582
-0.845225
-1.2842
-1.7737
-2.41609
-2.92751
-3.25063
-3.13073
-2.84295
-2.36695
-1.77648
-1.35401
-1.40841
-2.0207
-3.35942
-4.97145
-4.81355
-3.31545
-1.98274
-1.16479
-0.747452
-0.836663
-1.03514
-1.51601
-2.03835
-2.48653
-2.71253
-2.72978
-2.42148
-1.99009
-1.51598
-1.20384
-1.22787
-1.77218
-2.79439
-4.17543
-4.10665
-2.88073
-1.74268
-1.02596
-0.624867
-0.711519
-0.971088
-1.37068
-1.67168
-2.0211
-2.29856
-2.26723
-2.04485
-1.58925
-1.20094
-0.981653
-1.02699
-1.39894
-2.39447
-3.45575
-3.34316
-2.31973
-1.42189
-0.808617
-0.537366
-0.621457
-0.769245
-1.01841
-1.39544
-1.67497
-1.83307
-1.90997
-1.65214
-1.25442
-0.9838
-0.633133
-0.79667
-1.11896
-1.91173
-2.83314
-2.62151
-1.81196
-1.17356
-0.677942
-0.464971
-0.497209
-0.655161
-0.890476
-1.10982
-1.3119
-1.35816
-1.46463
-1.20239
-1.06861
-0.767486
-0.693993
-0.661089
-0.850539
-1.54958
-2.14172
-1.83497
-1.28319
-0.779094
-0.489674
-0.371123
-0.330534
-0.455772
-0.637137
-0.821078
-0.952836
-1.04473
-0.965733
-0.852368
-0.694514
-0.526082
-0.414745
-0.444747
-0.597868
-1.04406
-1.49521
-1.12304
-0.811369
-0.481091
-0.350517
-0.234803
-0.184968
-0.279662
-0.409526
-0.437695
-0.622249
-0.626432
-0.6598
-0.571068
-0.483822
-0.319362
-0.317413
-0.162938
-0.437224
-0.687242
-0.969929
-0.397279
-0.25505
-0.202302
-0.184908
-0.0999352
-0.062742
-0.0949566
-0.0975357
-0.0893644
-0.129709
-0.227245
-0.124794
-0.176681
-0.165786
-0.165036
-0.0940757
-0.10157
-0.0649077
-0.192253
-0.304268
-5.91249
-4.25027
-2.66327
-1.78925
-1.46897
-1.55825
-1.96815
-2.55389
-3.20141
-3.88516
-4.26975
-4.26548
-3.75158
-3.30295
-2.73023
-2.24308
-2.26211
-2.78776
-4.09084
-5.50344
-5.15776
-3.69411
-2.4234
-1.71534
-1.36561
-1.45733
-1.73832
-2.28276
-2.80089
-3.38601
-3.64675
-3.6139
-3.28573
-2.82861
-2.27292
-2.00774
-1.92241
-2.39071
-3.44396
-4.71298
-4.34825
-3.08122
-2.09777
-1.40624
-1.1446
-1.1678
-1.55046
-1.89701
-2.4343
-2.91871
-3.05728
-2.99024
-2.81308
-2.38657
-1.92624
-1.63986
-1.64999
-2.05684
-2.8751
-3.95671
-3.6134
-2.60309
-1.73373
-1.19611
-0.893737
-0.958629
-1.23734
-1.62317
-1.94794
-2.26502
-2.45882
-2.42059
-2.26675
-1.85108
-1.51758
-1.2478
-1.27079
-1.64545
-2.3375
-3.13809
-2.7609
-2.06472
-1.37349
-0.941494
-0.729136
-0.767167
-1.042
-1.26167
-1.54044
-1.81218
-2.00412
-1.82641
-1.69884
-1.39298
-1.19527
-1.04671
-1.01017
-1.15177
-1.78964
-2.49101
-1.96502
-1.48812
-0.912167
-0.652578
-0.530589
-0.618077
-0.72401
-0.930978
-1.0331
-1.23841
-1.34624
-1.32961
-1.27937
-1.01368
-0.795101
-0.703483
-0.680336
-0.953264
-1.26415
-1.66968
-1.22209
-0.954504
-0.524049
-0.457553
-0.32659
-0.367643
-0.531672
-0.434208
-0.678698
-0.779925
-0.774334
-0.783462
-0.676163
-0.607035
-0.509953
-0.471266
-0.45051
-0.522995
-0.780983
-1.00649
-0.321424
-0.295516
-0.176907
-0.113376
-0.0657584
-0.063361
-0.0313819
-0.125903
-0.179194
-0.221668
-0.288604
-0.310492
-0.296599
-0.226419
-0.203726
-0.210862
-0.113589
-0.145429
-0.250043
-0.409409
-6.30725
-4.73405
-3.35616
-2.34707
-2.07002
-2.1891
-2.53862
-3.38218
-3.99066
-4.78327
-5.18083
-5.06373
-4.67975
-4.06904
-3.41218
-3.0499
-3.04427
-3.55146
-4.76498
-6.193
-5.46944
-4.09112
-2.87209
-2.09038
-1.77278
-1.97099
-2.31922
-2.89259
-3.43084
-4.0684
-4.39607
-4.41563
-4.10681
-3.55029
-3.07364
-2.67537
-2.66309
-3.13512
-4.02314
-5.19169
-4.71229
-3.48491
-2.45375
-1.73894
-1.52641
-1.69422
-1.99591
-2.36337
-2.99429
-3.42216
-3.75476
-3.70548
-3.4916
-2.8769
-2.49822
-2.29698
-2.18454
-2.65562
-3.41545
-4.42492
-3.69869
-2.95831
-2.03391
-1.42302
-1.31069
-1.32829
-1.58619
-2.02845
-2.41217
-2.79997
-2.96415
-3.01893
-2.75411
-2.37029
-1.9995
-1.82834
-1.7721
-2.0893
-2.76482
-3.4974
-2.91479
-2.28855
-1.63707
-1.26754
-1.10467
-1.1023
-1.25121
-1.52138
-1.84706
-2.17733
-2.33599
-2.30574
-2.12109
-1.88527
-1.51574
-1.33329
-1.3284
-1.63981
-2.16526
-2.69428
-2.03509
-1.61797
-1.11686
-0.867536
-0.712924
-0.753531
-0.872291
-1.07063
-1.30832
-1.54748
-1.66431
-1.63012
-1.51624
-1.35506
-1.18685
-1.01348
-0.960155
-1.13864
-1.44845
-1.92756
-1.22163
-1.06919
-0.600641
-0.50034
-0.435587
-0.477946
-0.59756
-0.573818
-0.79035
-0.929152
-0.985378
-0.958244
-0.998337
-0.700189
-0.700487
-0.557036
-0.601093
-0.754125
-0.900207
-1.15499
-0.384984
-0.34203
-0.213305
-0.216793
-0.256619
-0.163682
-0.23929
-0.158721
-0.237214
-0.256946
-0.304636
-0.321637
-0.278188
-0.281965
-0.248129
-0.238697
-0.190006
-0.202656
-0.373377
-0.3473
-6.62817
-5.03654
-3.6794
-2.85758
-2.59202
-2.66765
-3.14901
-3.87121
-4.6529
-5.3257
-5.86692
-5.87513
-5.44693
-4.83377
-4.26566
-3.79773
-3.84778
-4.26828
-5.39795
-6.69599
-5.72564
-4.41498
-3.19341
-2.50103
-2.19957
-2.44578
-2.71889
-3.37923
-4.02601
-4.71069
-4.99844
-5.06707
-4.67496
-4.08924
-3.63341
-3.29614
-3.19529
-3.71387
-4.57655
-5.85206
-4.8834
-3.78901
-2.72548
-2.13287
-1.80363
-1.97264
-2.43613
-2.88029
-3.44538
-3.95947
-4.19162
-4.19983
-3.96095
-3.44027
-2.92908
-2.72792
-2.67296
-3.1257
-3.90578
-4.76713
-3.98237
-3.13783
-2.32278
-1.79194
-1.57925
-1.6015
-1.93084
-2.37654
-2.72898
-3.16821
-3.41886
-3.44657
-3.15179
-2.79409
-2.45098
-2.21901
-2.16962
-2.62257
-3.16934
-3.81635
-3.14549
-2.3532
-1.83613
-1.41633
-1.26798
-1.23042
-1.52222
-1.7683
-2.12131
-2.47699
-2.65379
-2.69603
-2.4784
-2.19273
-1.94382
-1.78557
-1.66329
-1.92066
-2.42659
-2.88104
-2.16834
-1.75658
-1.29551
-1.00532
-0.899571
-0.978679
-1.04528
-1.31605
-1.53191
-1.81614
-1.88258
-1.95217
-1.70878
-1.57939
-1.42437
-1.25081
-1.22617
-1.39342
-1.677
-2.09172
-1.28772
-1.07734
-0.769604
-0.633909
-0.503268
-0.535837
-0.658477
-0.871352
-0.915862
-1.07591
-1.1861
-1.17059
-1.05649
-0.954135
-0.861446
-0.760328
-0.674134
-0.780112
-1.05023
-1.37264
-0.4575
-0.341288
-0.236316
-0.165929
-0.184497
-0.183903
-0.124368
-0.307948
-0.314694
-0.344427
-0.405804
-0.321024
-0.341506
-0.221145
-0.25935
-0.282331
-0.287606
-0.299205
-0.278375
-0.435235
-6.79754
-5.34408
-4.02353
-3.18963
-2.9119
-3.09028
-3.60022
-4.24433
-5.12993
-5.81095
-6.30282
-6.36101
-5.83958
-5.3807
-4.72832
-4.33439
-4.34576
-4.8534
-5.90165
-7.14379
-5.9294
-4.6491
-3.54069
-2.81775
-2.54094
-2.66898
-3.15149
-3.71403
-4.36287
-4.99502
-5.37987
-5.42475
-5.11286
-4.55149
-4.09238
-3.73714
-3.72335
-4.21666
-4.96476
-6.00383
-4.96272
-3.94029
-2.95607
-2.41103
-2.19056
-2.31645
-2.63163
-3.10486
-3.68323
-4.2587
-4.59423
-4.56502
-4.28729
-3.87675
-3.41134
-3.12563
-3.06096
-3.48398
-4.19639
-5.09305
-4.11412
-3.23025
-2.43193
-2.01054
-1.79483
-1.86707
-2.16006
-2.52437
-3.02317
-3.42723
-3.69275
-3.65996
-3.45794
-3.17279
-2.75839
-2.5469
-2.57283
-2.84484
-3.40591
-4.09562
-3.14948
-2.51883
-1.93335
-1.55514
-1.46612
-1.47923
-1.63595
-2.0252
-2.3173
-2.65593
-2.76058
-2.75407
-2.69129
-2.44693
-2.05447
-1.91607
-1.91592
-2.2603
-2.6961
-3.25683
-2.23906
-1.79114
-1.39061
-1.12082
-1.06839
-0.99419
-1.20578
-1.47017
-1.65284
-1.93176
-2.09382
-2.05616
-1.89733
-1.64392
-1.55665
-1.43425
-1.3769
-1.50621
-1.84102
-2.24511
-1.33331
-1.11275
-0.836459
-0.696392
-0.586049
-0.647593
-0.699713
-0.901175
-0.984191
-1.14462
-1.21047
-1.24602
-1.13556
-1.04779
-0.926374
-0.829657
-0.809939
-0.895027
-1.09709
-1.32943
-0.439043
-0.317782
-0.302411
-0.192558
-0.230974
-0.231763
-0.193484
-0.334614
-0.37135
-0.393563
-0.451637
-0.333625
-0.383759
-0.298072
-0.3115
-0.304647
-0.362832
-0.282873
-0.421486
-0.440662
-6.86534
-5.41604
-4.14486
-3.46579
-3.14072
-3.25374
-3.74782
-4.53513
-5.2318
-5.99714
-6.51438
-6.51606
-6.13003
-5.64492
-5.1747
-4.76865
-4.74877
-5.1926
-6.28812
-7.42444
-5.93532
-4.78494
-3.62464
-2.98899
-2.68743
-2.79189
-3.24935
-3.87652
-4.55728
-5.13501
-5.50154
-5.59147
-5.25838
-4.75426
-4.33317
-3.99881
-4.06457
-4.42761
-5.33791
-6.24182
-4.95871
-4.03391
-3.16379
-2.53155
-2.29813
-2.309
-2.73438
-3.29749
-3.89018
-4.36532
-4.61099
-4.6772
-4.46
-3.98377
-3.62692
-3.41465
-3.35463
-3.74428
-4.47026
-5.24173
-4.06758
-3.35007
-2.56857
-2.10126
-1.95323
-1.90997
-2.20909
-2.64325
-3.0984
-3.57661
-3.81238
-3.7777
-3.58703
-3.16129
-2.96517
-2.69648
-2.77119
-3.05568
-3.60059
-4.27978
-3.17248
-2.55145
-1.93346
-1.6323
-1.54975
-1.56003
-1.80482
-2.12612
-2.47331
-2.75586
-2.92741
-2.97717
-2.77667
-2.48162
-2.23149
-2.18136
-2.10168
-2.33156
-2.75603
-3.26319
-2.16466
-1.89253
-1.44548
-1.19844
-1.12515
-1.16334
-1.23591
-1.43827
-1.74801
-1.94626
-2.09574
-2.064
-2.00294
-1.79133
-1.60512
-1.54041
-1.44184
-1.65031
-1.98247
-2.34063
-1.31948
-1.15484
-0.845576
-0.792388
-0.631572
-0.73521
-0.730205
-0.921885
-1.00692
-1.15696
-1.24188
-1.27473
-1.14332
-1.11462
-0.9687
-0.958175
-0.904493
-0.990819
-1.2013
-1.41362
-0.439136
-0.366596
-0.330387
-0.153976
-0.162116
-0.232222
-0.233186
-0.293491
-0.401643
-0.3803
-0.450607
-0.379526
-0.381935
-0.308339
-0.362813
-0.234397
-0.321533
-0.392469
-0.409313
-0.516515
-6.7367
-5.44988
-4.20983
-3.50144
-3.0392
-3.2569
-3.7894
-4.48202
-5.24113
-5.90674
-6.33929
-6.33756
-6.17072
-5.56736
-5.16339
-4.84786
-4.96579
-5.35106
-6.34479
-7.49108
-5.89822
-4.72374
-3.72767
-2.98995
-2.74115
-2.84989
-3.21732
-3.8943
-4.47736
-5.09281
-5.41214
-5.44332
-5.24432
-4.80225
-4.39265
-4.14436
-4.25644
-4.60322
-5.38483
-6.37365
-4.85611
-4.00058
-3.16752
-2.5389
-2.40387
-2.4949
-2.72778
-3.19306
-3.72788
-4.22557
-4.54843
-4.50355
-4.42736
-4.02012
-3.62989
-3.45297
-3.49664
-3.79345
-4.53901
-5.30035
-3.99189
-3.26564
-2.5818
-2.11143
-1.87052
-1.98997
-2.20652
-2.66644
-3.06827
-3.40693
-3.73029
-3.74468
-3.55676
-3.25602
-2.92222
-2.80267
-2.89989
-3.12878
-3.71567
-4.27834
-3.14122
-2.53027
-2.05621
-1.64129
-1.42524
-1.58165
-1.72359
-2.00144
-2.44249
-2.71407
-2.87641
-2.90411
-2.66671
-2.50995
-2.3295
-2.11941
-2.16652
-2.39665
-2.88235
-3.30387
-2.26483
-1.81108
-1.43129
-1.19163
-1.08046
-1.09827
-1.25162
-1.42577
-1.63499
-1.9353
-2.05395
-2.08581
-1.88947
-1.81828
-1.62489
-1.48511
-1.57191
-1.64701
-1.98379
-2.34601
-1.38801
-1.1399
-0.852568
-0.6812
-0.664261
-0.674346
-0.754772
-0.844329
-1.00278
-1.14413
-1.19794
-1.22922
-1.13044
-1.08255
-0.989862
-0.994528
-0.883639
-1.02995
-1.26422
-1.43759
-0.460123
-0.311052
-0.314971
-0.253689
-0.217636
-0.180013
-0.211463
-0.290167
-0.300825
-0.342897
-0.344414
-0.456596
-0.327365
-0.357984
-0.433379
-0.266046
-0.306012
-0.265874
-0.434189
-0.525793
-6.4176
-5.22019
-4.059
-3.28413
-2.99655
-3.12485
-3.5821
-4.09862
-4.84528
-5.50842
-5.93148
-5.94938
-5.75625
-5.4151
-5.04893
-4.70131
-4.92255
-5.39462
-6.28601
-7.42242
-5.58221
-4.58649
-3.52216
-2.86106
-2.5947
-2.78513
-3.05212
-3.55896
-4.2127
-4.72192
-5.05836
-5.12504
-4.93738
-4.56899
-4.2438
-4.14612
-4.14265
-4.63553
-5.4145
-6.37608
-4.80042
-3.86932
-2.98366
-2.44759
-2.24256
-2.26963
-2.56379
-3.02213
-3.49698
-3.99971
-4.22727
-4.2825
-4.15589
-3.91086
-3.53326
-3.40032
-3.43812
-3.7814
-4.56207
-5.28763
-3.82213
-3.08024
-2.4407
-1.96914
-1.851
-1.86846
-2.06275
-2.44685
-2.90837
-3.17126
-3.41285
-3.51763
-3.39203
-3.09931
-2.92091
-2.72149
-2.79327
-3.10452
-3.62697
-4.24919
-2.97588
-2.43514
-1.90066
-1.55501
-1.42378
-1.42556
-1.66987
-1.88048
-2.19302
-2.46429
-2.62938
-2.66515
-2.51101
-2.43296
-2.19724
-2.11515
-2.17465
-2.42511
-2.89019
-3.20927
-2.14278
-1.78835
-1.39461
-1.24743
-0.975258
-0.991111
-1.23394
-1.38098
-1.56197
-1.73113
-1.86563
-1.97121
-1.86323
-1.7306
-1.59503
-1.55169
-1.53557
-1.71801
-1.94724
-2.28574
-1.28595
-1.00851
-0.840229
-0.668513
-0.616988
-0.594427
-0.703705
-0.820613
-0.969493
-1.06775
-1.11138
-1.19703
-1.12021
-1.02306
-0.868291
-0.899382
-0.966684
-1.059
-1.11776
-1.3229
-0.427291
-0.41077
-0.258242
-0.178537
-0.17727
-0.224179
-0.312468
-0.202396
-0.236417
-0.394776
-0.421368
-0.397494
-0.443211
-0.379273
-0.35122
-0.303143
-0.314871
-0.295687
-0.411614
-0.384999
-6.0721
-4.73254
-3.70018
-2.98116
-2.67182
-2.72649
-3.13452
-3.71698
-4.3166
-4.84649
-5.26663
-5.3707
-5.17564
-4.99462
-4.55844
-4.45561
-4.57029
-5.14808
-5.97294
-7.03511
-5.21966
-4.20526
-3.24367
-2.55243
-2.28545
-2.36516
-2.61987
-3.18243
-3.73331
-4.19955
-4.42054
-4.58162
-4.44545
-4.15123
-3.92297
-3.78505
-3.83986
-4.33602
-5.19886
-6.04903
-4.40745
-3.56999
-2.76358
-2.18054
-1.93086
-1.99864
-2.31422
-2.61173
-3.18134
-3.48279
-3.70649
-3.81975
-3.73287
-3.46729
-3.27104
-3.16174
-3.30322
-3.64229
-4.30109
-4.98091
-3.58905
-2.87842
-2.2438
-1.76824
-1.59516
-1.66918
-1.84735
-2.22366
-2.51193
-2.89031
-3.01982
-3.10117
-3.05452
-2.84713
-2.72443
-2.57008
-2.64411
-3.01098
-3.42007
-4.06793
-2.76813
-2.27362
-1.72924
-1.36579
-1.25875
-1.25765
-1.47787
-1.66074
-1.98666
-2.16457
-2.37145
-2.49491
-2.3349
-2.21928
-2.06852
-1.93396
-2.02654
-2.28782
-2.696
-3.2401
-1.97699
-1.58894
-1.28849
-0.962236
-0.866645
-0.915682
-1.04668
-1.19944
-1.35023
-1.54989
-1.68377
-1.75425
-1.70453
-1.58384
-1.50109
-1.39259
-1.43594
-1.56421
-1.90156
-2.1906
-1.26434
-0.979077
-0.781479
-0.652395
-0.527126
-0.542115
-0.679201
-0.705254
-0.833064
-0.853913
-0.990882
-0.985249
-0.990928
-0.904142
-0.892077
-0.777773
-0.891423
-1.04923
-1.13105
-1.33663
-0.367915
-0.2722
-0.226216
-0.169739
-0.152491
-0.136218
-0.261065
-0.254732
-0.247276
-0.242076
-0.303114
-0.345825
-0.302038
-0.291674
-0.311482
-0.29879
-0.25495
-0.283215
-0.361569
-0.385448
-5.42699
-4.23707
-3.14694
-2.47774
-2.17584
-2.1294
-2.48517
-2.94833
-3.57661
-4.05369
-4.35893
-4.42635
-4.36976
-4.11167
-3.93249
-3.93189
-4.09691
-4.7169
-5.54612
-6.61655
-4.6404
-3.78997
-2.77417
-2.11735
-1.77228
-1.86442
-2.17193
-2.54782
-2.963
-3.42213
-3.76367
-3.8537
-3.77392
-3.50197
-3.33373
-3.30802
-3.55745
-3.98794
-4.78197
-5.66179
-3.96481
-3.11445
-2.35588
-1.73762
-1.50572
-1.57667
-1.75073
-2.14692
-2.52277
-2.83441
-3.17546
-3.15161
-3.12867
-2.96033
-2.87603
-2.77114
-2.89503
-3.27149
-4.04363
-4.76664
-3.20358
-2.53336
-1.93805
-1.43387
-1.21902
-1.26157
-1.4281
-1.64615
-2.06022
-2.33665
-2.55727
-2.60908
-2.52222
-2.46321
-2.30298
-2.25086
-2.35228
-2.71313
-3.23357
-3.68838
-2.49903
-1.97854
-1.44657
-1.07001
-0.955413
-0.950252
-1.174
-1.34823
-1.60944
-1.84771
-1.94303
-2.04255
-1.95768
-1.88666
-1.74758
-1.68826
-1.78412
-1.9958
-2.42949
-2.93435
-1.83176
-1.48965
-1.06688
-0.867971
-0.634111
-0.761799
-0.799238
-0.992992
-1.14271
-1.29029
-1.4793
-1.42909
-1.37109
-1.37553
-1.19219
-1.34224
-1.36564
-1.52608
-1.72441
-2.07246
-1.09813
-0.814551
-0.676136
-0.560153
-0.395488
-0.458954
-0.567279
-0.59676
-0.68349
-0.86911
-0.732646
-0.90707
-0.859434
-0.759621
-0.731967
-0.717336
-0.729467
-0.956036
-1.04685
-1.26764
-0.35698
-0.324895
-0.22372
-0.104432
-0.136972
-0.150712
-0.117061
-0.236887
-0.20004
-0.232009
-0.325992
-0.31334
-0.253592
-0.202035
-0.21494
-0.239413
-0.237815
-0.374206
-0.361677
-0.464045
-4.69082
-3.56208
-2.45306
-1.6829
-1.3444
-1.39035
-1.6151
-2.04492
-2.51353
-2.97401
-3.25816
-3.36175
-3.39966
-3.29173
-3.17917
-3.1477
-3.46258
-4.0318
-4.94828
-6.04427
-4.04775
-3.0451
-2.17276
-1.46118
-1.24898
-1.1678
-1.38686
-1.71045
-2.22728
-2.57709
-2.79703
-2.9642
-2.86653
-2.74043
-2.66694
-2.66464
-2.84548
-3.40562
-4.22208
-5.11629
-3.5032
-2.55898
-1.80728
-1.29146
-1.01566
-1.00715
-1.1831
-1.46553
-1.76882
-2.11692
-2.34642
-2.40478
-2.42005
-2.3711
-2.18589
-2.17773
-2.40905
-2.85731
-3.49732
-4.31151
-2.81743
-2.09047
-1.53443
-1.06858
-0.843914
-0.846622
-0.945275
-1.17626
-1.53353
-1.79063
-1.87634
-1.96178
-1.9594
-1.90846
-1.79989
-1.74204
-1.98319
-2.23411
-2.83621
-3.30968
-2.12621
-1.5976
-1.18515
-0.782874
-0.63833
-0.611924
-0.802673
-0.840256
-1.15178
-1.36042
-1.5052
-1.51421
-1.50603
-1.4628
-1.33791
-1.37067
-1.49455
-1.77604
-2.21725
-2.6971
-1.50742
-1.10201
-0.754376
-0.602343
-0.472779
-0.448972
-0.528731
-0.592756
-0.825237
-0.996056
-1.05836
-1.06604
-1.13846
-0.983396
-0.996346
-1.00956
-1.04762
-1.26395
-1.46724
-1.8658
-0.943494
-0.633955
-0.522073
-0.313553
-0.325413
-0.291546
-0.324969
-0.430248
-0.517678
-0.602005
-0.576834
-0.597186
-0.600893
-0.634417
-0.606227
-0.582566
-0.666375
-0.621762
-0.975285
-1.05397
-0.293905
-0.272976
-0.200664
-0.0798669
-0.0337067
-0.0235847
-0.17594
-0.0946688
-0.155939
-0.213245
-0.262971
-0.301925
-0.176478
-0.207988
-0.186481
-0.183129
-0.250995
-0.235412
-0.311029
-0.321206
-3.76578
-2.59014
-1.5639
-0.884253
-0.493307
-0.393939
-0.646084
-0.965175
-1.43337
-1.73417
-2.07971
-2.16327
-2.19279
-2.09318
-2.03202
-2.26921
-2.58629
-3.20235
-4.14191
-5.20683
-3.30533
-2.29508
-1.3748
-0.779888
-0.387926
-0.339346
-0.540529
-0.842047
-1.12475
-1.48622
-1.7525
-1.86294
-1.86132
-1.84794
-1.69327
-1.85043
-2.12199
-2.69094
-3.50566
-4.38252
-2.79024
-1.95429
-1.11628
-0.683256
-0.361212
-0.316901
-0.485695
-0.661324
-1.00377
-1.27209
-1.48476
-1.53655
-1.52961
-1.58551
-1.48331
-1.58657
-1.78048
-2.20606
-2.86682
-3.65847
-2.29779
-1.56856
-0.961916
-0.546374
-0.335921
-0.212506
-0.331987
-0.504216
-0.804778
-1.09936
-1.17527
-1.20104
-1.23735
-1.2302
-1.13035
-1.25107
-1.44849
-1.7773
-2.32584
-2.85852
-1.70558
-1.22413
-0.767898
-0.355348
-0.256281
-0.197215
-0.261744
-0.409137
-0.582049
-0.803888
-0.8466
-0.96176
-1.02468
-0.930982
-0.944137
-0.970929
-1.06779
-1.34271
-1.84305
-2.26111
-1.23659
-0.871526
-0.494199
-0.322069
-0.162447
-0.15237
-0.256165
-0.333113
-0.453134
-0.552441
-0.705592
-0.699544
-0.69244
-0.57405
-0.673628
-0.702826
-0.726034
-0.990416
-1.29321
-1.58615
-0.689103
-0.535729
-0.376118
-0.181593
-0.129218
-0.134554
-0.131189
-0.161668
-0.303071
-0.350155
-0.383506
-0.421092
-0.389911
-0.389206
-0.374869
-0.397245
-0.474273
-0.596538
-0.765368
-0.934561
-0.210686
-0.152108
-0.108116
-0.0271915
-0.0585244
-0.0661381
-0.0400658
-0.161749
-0.0282624
-0.0827352
-0.102273
-0.147975
-0.202232
-0.136549
-0.0960901
-0.211081
-0.145596
-0.219841
-0.285547
-0.324405
-2.80582
-1.66586
-0.571486
0.149407
0.599915
0.682091
0.551064
0.274359
-0.134827
-0.400734
-0.724143
-0.92317
-0.901967
-0.937387
-0.952227
-1.2458
-1.58492
-2.23384
-3.17164
-4.11186
-2.46296
-1.39444
-0.551792
0.105547
0.501333
0.588496
0.447618
0.223233
-0.109204
-0.368351
-0.58487
-0.743814
-0.777551
-0.810273
-0.805047
-0.99782
-1.31821
-1.81753
-2.77561
-3.57073
-2.07969
-1.24569
-0.453453
0.124541
0.438571
0.473202
0.375595
0.126275
-0.0392594
-0.260855
-0.511736
-0.546319
-0.641184
-0.681753
-0.651692
-0.762409
-1.05687
-1.57559
-2.26555
-2.95399
-1.6968
-0.988318
-0.40623
0.03668
0.351658
0.436353
0.243155
0.138039
-0.0650877
-0.285178
-0.312583
-0.533649
-0.454398
-0.445472
-0.500327
-0.607449
-0.854635
-1.1966
-1.75822
-2.42189
-1.34047
-0.777357
-0.329551
0.0890303
0.290672
0.284453
0.267848
0.0801481
-0.0011861
-0.215066
-0.206796
-0.347593
-0.408204
-0.331414
-0.407937
-0.496033
-0.685724
-0.960439
-1.45451
-1.84916
-0.872311
-0.55394
-0.242676
0.0269843
0.136906
0.224409
0.19884
-0.00651795
-0.00804551
-0.0934794
-0.201137
-0.24067
-0.25947
-0.25064
-0.305186
-0.357525
-0.394553
-0.663347
-0.974664
-1.29485
-0.576457
-0.433039
-0.115179
0.0485486
0.0875435
0.0808549
0.0876918
0.0545683
0.00177625
-0.00210001
-0.15948
-0.124093
-0.129737
-0.183392
-0.154145
-0.232547
-0.237905
-0.352581
-0.555817
-0.7403
-0.189918
-0.112151
-0.105379
0.0337854
-0.023152
0.0142316
0.0267589
0.0534732
-0.0224416
-0.0321028
-0.00685006
-0.0255005
-0.0998145
-0.0163496
-0.111896
-0.050985
-0.104427
-0.0249578
-0.1952
-0.221192
-1.65132
-0.663945
0.491267
1.18941
1.59255
1.74277
1.65869
1.4558
1.15958
0.762768
0.521019
0.425028
0.26317
0.287656
0.116323
-0.00346072
-0.540535
-1.22591
-2.13577
-3.17412
-1.59151
-0.529901
0.355714
1.0616
1.42593
1.5455
1.42178
1.23532
0.963014
0.740872
0.575432
0.431491
0.317491
0.285363
0.187133
-0.0112602
-0.382087
-0.987344
-1.73378
-2.62967
-1.26723
-0.471971
0.221091
0.852091
1.16024
1.31239
1.18796
0.995289
0.843294
0.640399
0.48354
0.299574
0.326563
0.299021
0.219047
0.0315448
-0.363988
-0.75539
-1.57544
-2.25618
-0.962502
-0.405656
0.126651
0.612041
0.90701
1.0783
0.8903
0.83098
0.63678
0.477104
0.360869
0.296548
0.242442
0.265267
0.202618
0.0664053
-0.274302
-0.691611
-1.22812
-1.79326
-0.807381
-0.312263
0.195757
0.492349
0.655562
0.74327
0.701309
0.633869
0.520623
0.372188
0.378762
0.244467
0.182149
0.218519
0.117457
-0.0156139
-0.21164
-0.523349
-0.93489
-1.31756
-0.538012
-0.259987
0.0902886
0.358424
0.587526
0.527504
0.469402
0.447531
0.420143
0.274586
0.203016
0.134807
0.240447
0.125522
0.0163332
0.0371156
-0.14632
-0.427137
-0.757115
-0.898326
-0.358848
-0.189344
0.0721701
0.173343
0.299682
0.459566
0.25994
0.276888
0.197011
0.0836939
0.117497
0.0810471
0.0221649
0.0435976
0.0965708
0.0495858
-0.0338852
-0.267342
-0.407067
-0.571801
-0.163342
-0.0882151
0.0469558
0.0788349
0.0753626
0.0800076
0.131926
0.0142767
-0.034788
0.0673599
0.0662913
0.0687657
0.00244305
0.0429269
-0.0145976
0.0144828
-0.0284756
0.000355452
-0.103055
-0.166961
-0.870615
0.270563
1.27368
2.18119
2.53853
2.65272
2.64172
2.4551
2.19486
1.90672
1.65119
1.5583
1.40518
1.37058
1.09598
0.852076
0.400352
-0.352101
-1.27226
-2.34164
-0.771721
0.0941599
1.05067
1.74466
2.16193
2.2344
2.17481
2.02772
1.83678
1.66148
1.3751
1.31768
1.19933
1.06785
0.979804
0.767816
0.299892
-0.303272
-1.15784
-2.00501
-0.708113
0.0910873
0.831971
1.44148
1.75785
1.77095
1.79102
1.7612
1.57323
1.25763
1.22249
1.07203
1.00678
0.960345
0.8176
0.589137
0.275202
-0.18192
-0.88074
-1.71631
-0.637207
-0.000217374
0.610747
1.1514
1.34979
1.51559
1.46862
1.3785
1.20474
1.06503
0.932246
0.805348
0.878482
0.732434
0.621234
0.528407
0.207763
-0.213597
-0.736237
-1.31849
-0.528095
-0.00663167
0.519491
0.878848
1.02478
1.11707
1.11957
0.990674
0.928533
0.767167
0.707751
0.669175
0.574998
0.506568
0.480734
0.402667
0.130006
-0.126038
-0.597804
-1.03803
-0.352443
0.0288183
0.350195
0.660425
0.78138
0.816314
0.748085