/*--------------------------------*- C++ -*----------------------------------*\
| =========                 |                                                 |
| \\      /  F ield         | OpenFOAM: The Open Source CFD Toolbox           |
|  \\    /   O peration     | Version:  2212                                  |
|   \\  /    A nd           | Website:  www.openfoam.com                      |
|    \\/     M anipulation  |                                                 |
\*---------------------------------------------------------------------------*/
FoamFile
{
    version     2.0;
    format      ascii;
    arch        "LSB;label=32;scalar=64";
    class       volScalarField;
    location    "0";
    object      relativeErrorField;
}
// * * * * * * * * * * * * * * * * * * * * * * * * * * * * * * * * * * * * * //

dimensions      [0 0 0 1 0 0 0];

internalField   nonuniform List<scalar> 
3200
(
0.0126103
0.00684927
0.00142076
0.00224863
0.00418237
0.00522725
0.00533408
0.00523991
0.00480013
0.00456502
0.00448943
0.00433324
0.00486265
0.00536229
0.00585027
0.00568116
0.00462698
0.0019876
0.00296023
0.00856117
0.0112957
0.00619564
0.00149014
0.00171495
0.00364342
0.00430491
0.0044792
0.00431504
0.00419415
0.00384845
0.0036349
0.00383513
0.00444926
0.00474641
0.00491069
0.00473021
0.00419697
0.0015181
0.00258039
0.00718837
0.00971626
0.00545082
0.0016493
0.00139028
0.00281181
0.00349801
0.0037751
0.00365413
0.00346008
0.00319432
0.00319524
0.00321287
0.00329984
0.00404453
0.00416383
0.00418338
0.00340942
0.00133539
0.00229666
0.00623693
0.00807516
0.00452344
0.00134104
0.000937988
0.00246372
0.0030144
0.00336174
0.00317228
0.00296982
0.0027117
0.00242416
0.00253901
0.00309876
0.00326154
0.00332243
0.00365575
0.00278874
0.00118048
0.00174608
0.00492099
0.00647974
0.00358696
0.000930174
0.00081106
0.00201753
0.00232895
0.00263997
0.0019407
0.00206298
0.0021722
0.00194107
0.00202622
0.00235336
0.00252585
0.00288642
0.00290491
0.00228785
0.000813691
0.00156062
0.00364468
0.00485487
0.00299669
0.00106857
0.000388567
0.00144355
0.00151999
0.00176903
0.00158347
0.00172735
0.0015866
0.0014993
0.00142466
0.00167689
0.00154897
0.00222284
0.00191425
0.00197193
0.000806477
0.000982639
0.00283759
0.00279586
0.00187721
0.000154458
0.000485293
0.000670992
0.000967099
0.00111194
0.00123885
0.00103513
0.000961295
0.000800545
0.000733311
0.000995039
0.00102937
0.00136847
0.00132504
0.000998899
0.000478388
0.000582046
0.0019622
0.0009916
0.000374848
0.000214465
5.898e-05
0.000335096
0.000224517
0.000333118
9.73015e-05
0.000268484
0.000270415
0.000162394
5.85445e-05
9.94288e-05
0.000239009
0.000560667
0.000469133
0.000300698
0.000138025
0.000264785
0.000528037
0.0127628
0.00685849
0.00171503
0.00188052
0.00349555
0.00420265
0.00410068
0.00410881
0.00347638
0.00308081
0.00266361
0.00290539
0.00309387
0.00373782
0.00419282
0.00483164
0.00385867
0.00113602
0.00323216
0.00902889
0.0114724
0.0063898
0.00160378
0.00161453
0.00273658
0.00361308
0.00384352
0.00311617
0.00309528
0.00240256
0.00240292
0.00244987
0.00275161
0.00330977
0.00397725
0.00414193
0.00334129
0.00111162
0.00298494
0.00733834
0.00986767
0.00549689
0.00170638
0.00126959
0.0026206
0.00303626
0.0029345
0.00270973
0.00255466
0.00203998
0.0019019
0.0018301
0.00244334
0.00312483
0.00327506
0.00360429
0.00304738
0.000963829
0.00248005
0.00613246
0.00830122
0.00469266
0.00141415
0.00080484
0.00214714
0.00231046
0.00255841
0.00245451
0.00179106
0.00200601
0.00151442
0.00165128
0.00190947
0.00228817
0.00286072
0.00304604
0.00255161
0.000561043
0.00187339
0.00502006
0.00657559
0.0035917
0.00119654
0.000690919
0.00141201
0.00202622
0.00164288
0.00164584
0.00146694
0.0013875
0.00122182
0.00122167
0.00140629
0.00175398
0.00221515
0.00237969
0.00205958
0.000800851
0.0014495
0.00401006
0.00493144
0.00283491
0.000969214
0.000212864
0.000851144
0.00131793
0.00148482
0.00127378
0.00107171
0.000978383
0.00112226
0.00100906
0.00107192
0.00139682
0.00159753
0.00177171
0.0015566
0.000768068
0.0011213
0.00291106
0.00274451
0.00178051
0.000635906
0.000141618
0.000363569
0.00101693
0.000953219
0.000850983
0.000554356
0.000684165
0.000751307
0.000437186
0.000783277
0.000845074
0.000937656
0.000996024
0.00106829
0.000539064
0.000576771
0.00183194
0.00109807
0.000780525
0.000172013
0.000179779
0.000154083
0.000361149
0.000393844
0.000352334
0.000337316
0.000460736
7.91652e-05
0.000289599
0.000226328
0.000236197
0.000173555
0.000533872
0.000426117
0.00010328
2.50593e-05
0.000746772
0.0131969
0.00710839
0.0023953
0.00109264
0.00235294
0.00309901
0.00259388
0.00202216
0.00124468
0.000460298
0.00025602
0.000594075
0.000872462
0.00146942
0.00248752
0.00290629
0.00241431
0.000171264
0.00409335
0.00964651
0.0118563
0.00658158
0.00230345
0.000586344
0.00212156
0.00243036
0.00225308
0.00174336
0.00116506
0.0004042
0.000221396
0.000292323
0.000775652
0.00136173
0.00223118
0.00277624
0.002338
9.16309e-05
0.00359687
0.00829641
0.0101721
0.00594788
0.00198162
0.000328425
0.00142006
0.00198384
0.00171261
0.00136319
0.00049627
0.000517901
0.000210839
8.64271e-05
0.000646182
0.00107769
0.00205577
0.00218456
0.00199048
7.38758e-05
0.00287474
0.00702213
0.00835813
0.00481549
0.00193822
0.000151535
0.00139796
0.00152938
0.00155688
0.00116991
0.000507171
0.000171896
0.000205775
0.00015911
0.000377026
0.00116489
0.00151778
0.00204714
0.00153147
0.000199188
0.00237833
0.0055046
0.00671485
0.00413626
0.0016092
0.000124238
0.000981302
0.00113446
0.00102143
0.00105325
0.000511079
8.46823e-05
8.38438e-05
0.000192513
0.000434926
0.000809409
0.0013147
0.00140219
0.00129116
2.66374e-05
0.00201725
0.00427213
0.00489976
0.00298133
0.00159674
0.000157402
0.000619898
0.00088903
0.000905931
0.000405164
0.000313796
4.37955e-06
1.90569e-05
0.000190858
0.000366242
0.000700866
0.00097726
0.00118987
0.000916121
1.14253e-05
0.00151726
0.0032059
0.00299665
0.00179128
0.000646785
7.12176e-05
0.000483272
0.000467358
0.00047909
0.000305671
0.000207844
2.75924e-05
2.4753e-05
7.58142e-05
0.000118912
0.000328939
0.000497
0.000776498
0.000548458
1.33077e-06
0.000969545
0.00207073
0.000690843
0.000641014
0.000102776
7.84212e-05
0.000105593
0.000191243
0.000324987
6.65887e-05
0.000269187
4.20959e-05
0.00019287
0.000113384
0.00019544
0.000225843
0.000158871
0.000298095
0.000152098
9.98084e-05
7.80071e-05
0.000789972
0.0138502
0.00818279
0.00338057
0.000130156
0.00103
0.00133739
0.000891991
8.41705e-05
0.00111249
0.00227595
0.00272325
0.00254123
0.00181085
0.00100324
0.000327124
0.000970076
0.000348018
0.00142179
0.00571649
0.0105187
0.0121663
0.00738095
0.00312376
0.000434957
0.00075886
0.00106211
0.000670683
0.000326267
0.00125108
0.00206762
0.0022936
0.00207285
0.00179458
0.000733664
0.000215751
0.000854316
0.000579906
0.00158643
0.00482496
0.00923702
0.0104399
0.00659138
0.00272158
0.000374223
0.000443603
0.000653636
0.000668771
0.000186621
0.00112886
0.00180471
0.00198938
0.00209606
0.00141737
0.000599701
0.000272511
0.000738896
0.000545297
0.00105018
0.00413754
0.00787943
0.00895724
0.005516
0.0023641
0.000690896
0.000400866
0.000605043
0.000388638
0.000369457
0.000999987
0.00176842
0.00183984
0.00147919
0.00106567
0.00049366
0.000240555
0.00071981
0.000456441
0.000826767
0.00332884
0.00638271
0.00715561
0.00468332
0.00205055
0.000481995
0.000490068
0.000285642
0.000168192
0.000146015
0.000822752
0.00120486
0.00129071
0.00128919
0.000984923
0.00040351
9.76909e-05
0.00038467
0.000268126
0.000774724
0.00302077
0.00506824
0.00512044
0.00337146
0.00142296
0.00046083
9.15749e-05
0.000424679
0.000305696
9.47162e-05
0.000518662
0.000948617
0.000862395
0.000902338
0.000696223
0.000140047
0.000221116
0.000275977
0.000425879
0.000547251
0.00213072
0.00345213
0.00326804
0.00226139
0.00100379
0.000432717
9.10339e-05
1.78021e-05
4.4688e-05
8.5502e-05
0.000298615
0.00081735
0.000943629
0.000625479
0.000582257
8.12148e-05
2.16221e-05
0.00028172
9.77925e-05
0.000127716
0.00102396
0.00224942
0.0012196
0.000677513
0.000330508
0.000168271
7.50816e-05
1.29514e-05
0.000105649
0.000114489
0.000130955
0.000181379
0.000416103
4.11535e-05
0.000202932
1.86494e-05
0.000213819
0.000157532
0.000181734
0.000152457
0.00013238
0.00101427
0.0146153
0.00924332
0.00455596
0.00182513
0.000579501
0.000587062
0.00121881
0.00261371
0.00392145
0.00517121
0.0057405
0.0057511
0.00492839
0.00381114
0.00233986
0.00131416
0.00165034
0.00370389
0.00739448
0.0123593
0.0130613
0.00823652
0.00422676
0.00164629
0.000593142
0.000648207
0.00124468
0.00251208
0.0036432
0.00466736
0.00515618
0.00496494
0.00431346
0.00314355
0.00194624
0.0010559
0.0013718
0.00288974
0.00635843
0.0105854
0.0112513
0.00752383
0.00382663
0.00175787
0.000530936
0.000611927
0.00119552
0.00228458
0.00305618
0.00415971
0.00432837
0.00423528
0.00370735
0.00246205
0.0014609
0.000861816
0.0012427
0.00254666
0.00533809
0.00901329
0.00933884
0.00628978
0.00304665
0.00152642
0.000586174
0.000673163
0.00108945
0.00153139
0.00263426
0.00299582
0.0036607
0.00364064
0.00313708
0.00231968
0.00131365
0.000882595
0.000933676
0.00190065
0.00434264
0.00743264
0.00737226
0.00541231
0.00284399
0.00117414
0.000379136
0.000518628
0.000798025
0.00141634
0.00192452
0.0027955
0.00290645
0.00272129
0.00234226
0.00193685
0.00100722
0.000754575
0.000889376
0.00192593
0.00365105
0.00593384
0.00548929
0.00377051
0.00242403
0.000850098
0.000460026
0.000543221
0.000669699
0.00107448
0.00152602
0.00190757
0.00223036
0.00182535
0.00170347
0.00105802
0.000746525
0.000646848
0.000547417
0.00146794
0.00252379
0.00418713
0.00324867
0.00231528
0.00138482
0.000688271
0.000380434
0.000139104
0.000381907
0.000830755
0.000954788
0.00125814
0.00143827
0.00127942
0.00096705
0.00068321
0.000552482
7.1636e-05
0.000375775
0.00091067
0.00168111
0.00252767
0.00123373
0.000934132
0.000410861
9.26475e-05
1.35362e-05
0.000157692
0.000178246
0.000151648
0.000362317
7.08297e-05
0.000278059
0.000217747
0.000459451
0.000390091
0.000483474
0.000290664
0.000286817
0.000461022
0.000605282
0.000981536
0.0157645
0.0106312
0.00630849
0.00346532
0.00229324
0.00237422
0.00359999
0.00496379
0.0067533
0.00817756
0.00908016
0.00875082
0.00795616
0.00663527
0.00499009
0.00381187
0.00397411
0.00571476
0.00952077
0.0141128
0.0139394
0.00958731
0.00572292
0.00335531
0.00214875
0.00240048
0.00296462
0.00433533
0.00582279
0.00709903
0.00774428
0.00779794
0.00692471
0.0056996
0.00434953
0.00346074
0.00353702
0.00511517
0.00808058
0.0120915
0.0121368
0.00850332
0.00513586
0.0030184
0.00183515
0.00208609
0.00284271
0.0040073
0.00488273
0.00590044
0.00671048
0.00662226
0.00597826
0.0046523
0.00352102
0.00288298
0.00302142
0.00412282
0.00706797
0.0102131
0.0100879
0.00699271
0.00428054
0.0024308
0.00161302
0.0018628
0.0023028
0.00304541
0.00416962
0.00500284
0.00547505
0.00570708
0.00494051
0.00375523
0.00294891
0.00190049
0.00239489
0.00336857
0.00576283
0.00854889
0.00808018
0.00558056
0.00361059
0.00208338
0.00142723
0.00152447
0.00200669
0.0027251
0.00339425
0.004011
0.00415244
0.00447942
0.00367963
0.00327304
0.00235315
0.00213022
0.00203159
0.00261678
0.00477245
0.00660134
0.00578005
0.00403968
0.00245083
0.0015391
0.00116549
0.00103717
0.00142907
0.00199649
0.00257171
0.00298368
0.00327143
0.00302479
0.00267092
0.00217765
0.00165077
0.00130248
0.00139789
0.00188074
0.00328686
0.00470981
0.00361697
0.00261226
0.00154818
0.00112741
0.000754826
0.000594321
0.000898167
0.00131473
0.00140477
0.00199681
0.00201023
0.00211761
0.00183334
0.00155385
0.00102614
0.00102039
0.000524074
0.00140701
0.00221262
0.00312384
0.00130891
0.000840214
0.000666341
0.00060894
0.000329048
0.000206549
0.000312551
0.000320997
0.000294077
0.000426819
0.000747773
0.000410667
0.000581471
0.000545687
0.000543305
0.000309755
0.00033449
0.000213792
0.00063334
0.00100247
0.0167353
0.0120113
0.00751141
0.00503557
0.00412522
0.00436682
0.0055051
0.0071322
0.00893036
0.0108312
0.0119034
0.0118986
0.010477
0.00923863
0.00765119
0.00629913
0.00636636
0.00786251
0.0115607
0.0155775
0.0148978
0.0106555
0.00697792
0.00492981
0.00391719
0.00417255
0.00496874
0.00651586
0.00798676
0.00965018
0.0103933
0.0103051
0.00937872
0.0080852
0.00650771
0.00575911
0.00552492
0.00688377
0.00993399
0.0136131
0.0128222
0.00907544
0.00616944
0.00412893
0.00335516
0.0034177
0.00453103
0.00553712
0.00709922
0.00850807
0.008912
0.00872055
0.00821099
0.00697449
0.00563737
0.0048069
0.00484461
0.00604907
0.00846834
0.0116677
0.0108831
0.00783269
0.0052102
0.00358965
0.00267849
0.00286914
0.00369882
0.00484733
0.00581296
0.00675665
0.00733474
0.00722344
0.00676928
0.0055335
0.00454206
0.0037396
0.00381379
0.00494491
0.00703352
0.00945152
0.00849726
0.00634986
0.00421983
0.00288946
0.00223526
0.00234936
0.00318794
0.0038569
0.00470638
0.00553493
0.00612118
0.0055801
0.00519334
0.00426174
0.00366036
0.00320883
0.00310023
0.00353862
0.00550389
0.00766664
0.00618304
0.0046799
0.00286653
0.00204913
0.00166474
0.00193773
0.00226825
0.00291495
0.00323333
0.00387503
0.00421244
0.00416135
0.00400579
0.00317577
0.00249272
0.0022072
0.0021363
0.00299568
0.00397555
0.00525375
0.00393338
0.00307111
0.00168537
0.00147079
0.0010493
0.00118064
0.00170665
0.0013933
0.00217725
0.00250165
0.00248372
0.00251334
0.00216969
0.00194857
0.00163765
0.00151413
0.00144816
0.00168198
0.00251281
0.00323946
0.00105876
0.000973305
0.00058257
0.000373292
0.000216474
0.000208549
0.000103276
0.000414289
0.00058959
0.000729306
0.00094953
0.00102159
0.000975971
0.000745129
0.000670552
0.000694149
0.000373996
0.000478911
0.000823537
0.00134858
0.0177918
0.013334
0.00943517
0.00658506
0.00579601
0.00611752
0.0070818
0.00942127
0.0111046
0.0133029
0.0144086
0.0140906
0.0130357
0.0113511
0.00953546
0.00853963
0.00854116
0.00998422
0.0134211
0.0174695
0.0157504
0.0117659
0.00824634
0.00599123
0.00507187
0.00562926
0.0066135
0.00823793
0.00976177
0.0115702
0.0125021
0.0125638
0.011696
0.010124
0.00877847
0.00765416
0.00763268
0.00900158
0.0115704
0.0149506
0.0138596
0.0102384
0.00719862
0.00509372
0.00446426
0.00494767
0.0058209
0.00688489
0.00871589
0.00995718
0.0109249
0.010786
0.0101716
0.00839024
0.00729563
0.00671794
0.006399
0.00779086
0.0100343
0.0130143
0.0111158
0.00888265
0.00609977
0.00426218
0.00392066
0.00396838
0.00473354
0.0060477
0.00718695
0.00833944
0.00882843
0.00899475
0.00821122
0.00707347
0.00597365
0.0054691
0.00530775
0.00626588
0.00830166
0.0105108
0.00895542
0.00702634
0.0050214
0.00388399
0.00338142
0.00337083
0.00382278
0.00464477
0.00563606
0.006642
0.007126
0.00703568
0.00647567
0.00576001
0.00463514
0.00408124
0.00407047
0.00502982
0.00664781
0.0082779
0.00639543
0.00508197
0.00350559
0.00272099
0.00223437
0.00235993
0.00273007
0.00334901
0.00409094
0.00483778
0.005203
0.00509715
0.00474293
0.00424103
0.00371701
0.00317635
0.00301149
0.00357397
0.00454951
0.00605751
0.00392885
0.00343749
0.00193027
0.0016072
0.00139855
0.00153387
0.00191698
0.00184019
0.00253399
0.00297864
0.00315889
0.00307229
0.00320159
0.00224621
0.00224807
0.00178849
0.00193084
0.00242352
0.00289421
0.00371453
0.00126778
0.00112621
0.000702252
0.000713623
0.000844586
0.000538627
0.000787321
0.00052217
0.000780336
0.000845213
0.00100209
0.00105805
0.000915199
0.000927732
0.000816518
0.0007856
0.000625447
0.000667194
0.00122943
0.00114369
0.0186238
0.0141317
0.0103055
0.00798872
0.00723271
0.00743035
0.00875696
0.0107509
0.0129095
0.0147688
0.0162696
0.0163005
0.015127
0.013442
0.0118814
0.0105971
0.010757
0.0119549
0.0151457
0.0188144
0.0164311
0.0126544
0.00913883
0.00714553
0.00627379
0.00696497
0.00773163
0.00959805
0.0114254
0.0133626
0.0141789
0.0143799
0.0132784
0.0116285
0.010347
0.00940152
0.00912906
0.0106283
0.0131175
0.0167939
0.0143199
0.0110992
0.00797311
0.00623053
0.00526118
0.00574627
0.00708763
0.0083713
0.0100064
0.011495
0.012169
0.0121975
0.0115121
0.0100091
0.00853238
0.00795735
0.00780826
0.00914393
0.0114413
0.013979
0.0119384
0.00939861
0.00694957
0.00535488
0.00471363
0.00477454
0.00575043
0.00707175
0.00811551
0.00941871
0.0101639
0.0102495
0.00937864
0.00832138
0.0073071
0.00662314
0.00648352
0.0078465
0.00949299
0.0114407
0.00964502
0.00721076
0.00562138
0.00433201
0.00387454
0.0037563
0.00464331
0.00539028
0.0064632
0.00754494
0.00808349
0.00821423
0.00755486
0.00668861
0.00593425
0.00545611
0.00508736
0.00588016
0.00743567
0.00883414
0.00680427
0.00550951
0.00406073
0.00314893
0.00281573
0.00306128
0.00326764
0.00411205
0.00478478
0.0056715
0.00587898
0.00609742
0.00533913
0.00493732
0.0044554
0.00391512
0.0038407
0.00436761
0.00525992
0.00656383
0.00413769
0.00346068
0.00247117
0.00203458
0.00161458
0.00171836
0.00211086
0.00279242
0.00293441
0.00344679
0.00379981
0.00375055
0.00338572
0.00305864
0.00276254
0.00243928
0.00216369
0.00250491
0.00337358
0.00441056
0.00150612
0.00112343
0.000777784
0.000546039
0.000607053
0.000605011
0.000409097
0.00101286
0.00103497
0.00113271
0.00133456
0.00105579
0.00112324
0.000727437
0.00085322
0.000928954
0.000946456
0.000984768
0.000916337
0.00143282
0.0190153
0.0149297
0.011222
0.00888071
0.00809341
0.00857503
0.00997529
0.0117457
0.0141841
0.0160599
0.0174193
0.017588
0.0161603
0.0149085
0.0131203
0.0120471
0.0120996
0.0135366
0.0164874
0.0199839
0.0169494
0.0132744
0.0100949
0.00802138
0.00722226
0.00757512
0.00893289
0.0105161
0.0123437
0.0141266
0.015215
0.0153481
0.0144768
0.0129012
0.011615
0.0106223
0.0105994
0.0120222
0.0141757
0.0171621
0.0145033
0.0115042
0.00861982
0.00702114
0.00637063
0.00672823
0.00763504
0.0089996
0.0106689
0.0123316
0.0133032
0.0132232
0.0124269
0.0112475
0.00990838
0.00909003
0.00891378
0.0101592
0.0122519
0.0148842
0.0122986
0.00964865
0.00725652
0.00599244
0.00534357
0.00555276
0.00641804
0.00749464
0.00897053
0.0101665
0.0109542
0.0108601
0.0102663
0.0094271
0.00820358
0.00758262
0.00766837
0.00848858
0.0101733
0.0122432
0.00963552
0.00770129
0.0059063
0.00474667
0.004471
0.00450717
0.00498091
0.00616221
0.00704788
0.00807592
0.00839415
0.00837629
0.00818898
0.0074501
0.00625992
0.00584315
0.00584786
0.00690511
0.00824329
0.00996396
0.00701467
0.00560884
0.00435197
0.00350539
0.00333923
0.0031054
0.00376421
0.0045875
0.00515585
0.00602486
0.0065303
0.00641394
0.00592042
0.00513203
0.00486227
0.00448272
0.00430628
0.00471374
0.00576502
0.00703362
0.00427985
0.00357088
0.00268324
0.00223303
0.00187846
0.00207493
0.00224116
0.00288564
0.00315082
0.00366406
0.00387484
0.00398905
0.00363616
0.00335606
0.00296817
0.00265929
0.00259713
0.00287111
0.0035206
0.00426739
0.00144486
0.0010457
0.00099499
0.000633467
0.000759742
0.000762236
0.000636266
0.00110026
0.00122097
0.00129396
0.00148489
0.00109693
0.00126186
0.000980201
0.00102448
0.00100207
0.00119362
0.000930707
0.00138695
0.00145018
0.0191105
0.0150576
0.0115059
0.00960546
0.0086907
0.00898987
0.0103411
0.0124997
0.0144086
0.0165097
0.0179336
0.0179455
0.0168956
0.0155756
0.0142974
0.0131953
0.0131612
0.0144144
0.0174821
0.0206668
0.0168924
0.0136038
0.0102912
0.00847435
0.00760864
0.00789386
0.00917637
0.0109369
0.0128486
0.0144722
0.0155052
0.0157643
0.0148355
0.0134263
0.0122517
0.0113214
0.0115238
0.012571
0.0151759
0.0177647
0.014437
0.0117339
0.00919219
0.00734622
0.00666074
0.00668451
0.00790784
0.00952832
0.0112342
0.0126023
0.0133116
0.0135069
0.0128874
0.0115211
0.0104999
0.00989679
0.00973472
0.0108788
0.0130031
0.015261
0.0121211
0.00997553
0.00764101
0.00624444
0.00579859
0.00566469
0.00654617
0.00782716
0.00917034
0.0105829
0.0112806
0.0111809
0.0106219
0.00936782
0.00879423
0.0080051
0.00823532
0.00909011
0.0107215
0.0127534
0.00968155
0.00778176
0.0058924
0.0049705
0.00471529
0.00474291
0.00548337
0.00645588
0.0075071
0.00836294
0.00888353
0.00903644
0.00843124
0.00753959
0.0067843
0.00663704
0.00639981
0.00710565
0.00840573
0.00995839
0.00676912
0.00591561
0.00451569
0.0037417
0.00351079
0.00362789
0.00385225
0.00448114
0.00544459
0.00606116
0.00652668
0.00642882
0.00624046
0.00558345
0.00500559
0.00480651
0.00450164
0.00515558
0.00619674
0.0073194
0.00423066
0.00370183
0.00270954
0.00253817
0.0020223
0.00235333
0.00233657
0.00294918
0.00322063
0.00370017
0.00397178
0.00407721
0.00365756
0.00356665
0.0031007
0.00306808
0.00289726
0.00317495
0.00385073
0.0045325
0.0014446
0.00120586
0.00108663
0.000506356
0.000533057
0.000763485
0.00076657
0.000964731
0.00132016
0.00124996
0.00148105
0.00124746
0.00125546
0.00101362
0.00119283
0.000770727
0.00105738
0.00129082
0.00134638
0.00169915
0.0186506
0.0150708
0.0116253
0.00965488
0.00836814
0.00895533
0.0104069
0.0122969
0.0143695
0.0161885
0.017374
0.0173756
0.01693
0.0152897
0.0141975
0.0133481
0.0136927
0.0147768
0.0175456
0.0207391
0.0167061
0.0133663
0.0105347
0.00843885
0.00772669
0.00802346
0.00904815
0.0109425
0.012573
0.0142966
0.015193
0.0152855
0.0147358
0.0135055
0.0123669
0.011682
0.0120134
0.0130091
0.0152369
0.0180527
0.0140795
0.0115893
0.00916618
0.00733878
0.00694072
0.00719598
0.00786035
0.00919411
0.0107283
0.0121571
0.013086
0.0129605
0.0127482
0.0115844
0.0104696
0.0099698
0.0101072
0.0109775
0.0131491
0.0153675
0.0118541
0.00969076
0.00765461
0.00625414
0.00553536
0.00588367
0.00651883
0.00787257
0.00905486
0.0100519
0.011006
0.011051
0.0105012
0.00961942
0.00863999
0.00829383
0.00858957
0.00927632
0.0110262
0.0127047
0.00955954
0.00769609
0.00624972
0.00498485
0.00432545
0.00479676
0.00522395
0.00606298
0.00739641
0.00821727
0.00870877
0.00879429
0.0080783
0.00760729
0.00706478
0.00643216
0.00658004
0.00728447
0.00876697
0.0100545
0.00706796
0.00564968
0.00446261
0.00371332
0.00336504
0.00341876
0.00389434
0.00443452
0.00508393
0.00601689
0.00638577
0.00648573
0.00587676
0.00565747
0.00505807
0.00462531
0.00489832
0.0051352
0.00618845
0.00732129
0.00444482
0.00364941
0.00272864
0.00217944
0.00212452
0.00215609
0.00241256
0.00269819
0.00320404
0.00365536
0.00382728
0.00392752
0.0036125
0.00346029
0.00316489
0.00318082
0.00282712
0.00329634
0.00404744
0.00460359
0.00151299
0.00102273
0.0010355
0.000833929
0.000715332
0.000591607
0.000694897
0.000953456
0.000988421
0.00112663
0.00113161
0.00150024
0.00107568
0.00117639
0.00142429
0.000874445
0.00100592
0.000874085
0.0014276
0.00172893
0.0176618
0.0143514
0.0111446
0.00900497
0.00820561
0.00854639
0.00978628
0.0111875
0.0132173
0.0150213
0.016175
0.0162291
0.0157121
0.014794
0.0138087
0.0128738
0.0134975
0.0148118
0.0172815
0.0204272
0.0157279
0.0129107
0.0099034
0.00803498
0.00727839
0.00780401
0.00854384
0.00995481
0.0117769
0.0131966
0.0141369
0.0143273
0.0138104
0.0127901
0.0118912
0.0116303
0.0116342
0.0130339
0.0152416
0.0179647
0.0138547
0.0111588
0.00859614
0.00704439
0.00644775
0.00651936
0.00735816
0.00866769
0.0100248
0.0114631
0.0121152
0.0122766
0.0119194
0.0112243
0.0101491
0.00977653
0.00989522
0.0108945
0.0131566
0.0152609
0.0113067
0.00910621
0.00720959
0.0058116
0.00545829
0.00550538
0.00607355
0.00720039
0.00855502
0.00932637
0.0100368
0.0103472
0.00998179
0.0091256
0.0086064
0.00802519
0.0082439
0.00917047
0.0107225
0.01257
0.00902884
0.00738452
0.00575993
0.0047092
0.00430884
0.0043115
0.00504754
0.00568154
0.0066237
0.00744176
0.0079403
0.0080497
0.00758658
0.00735413
0.00664537
0.00640117
0.00658573
0.00734928
0.00876445
0.00973695
0.00667215
0.00556652
0.00433888
0.00387899
0.00303113
0.00307897
0.00383175
0.00428689
0.00484761
0.00537192
0.00578929
0.00611768
0.00578394
0.00537403
0.00495508
0.0048227
0.00477499
0.00534501
0.0060611
0.0071173
0.00411232
0.00322439
0.00268557
0.00213606
0.00197081
0.0018982
0.00224659
0.00261927
0.00309402
0.00340735
0.00354658
0.00382019
0.00357556
0.00326613
0.00277274
0.00287285
0.00308878
0.00338482
0.00357366
0.00423049
0.00140437
0.00134996
0.000848603
0.000586625
0.000582397
0.000736441
0.00102638
0.000664774
0.000776479
0.00129655
0.00138389
0.00130551
0.00145574
0.00124582
0.00115378
0.00099594
0.00103458
0.000971652
0.00135273
0.00126537
0.0166037
0.0129283
0.0100962
0.00812433
0.00727263
0.00741318
0.00851426
0.0100884
0.0117093
0.0131429
0.0142823
0.0145687
0.0140474
0.0135668
0.0123942
0.0121281
0.0124551
0.0140468
0.0163168
0.019237
0.0146227
0.0117711
0.00906998
0.00712937
0.00637688
0.00659279
0.00729642
0.00885697
0.0103849
0.0116789
0.0122935
0.0127447
0.012372
0.0115613
0.0109351
0.0105611
0.0107254
0.0121244
0.0145523
0.0169462
0.0126578
0.0102454
0.00792396
0.00624631
0.00552602
0.00571508
0.00661248
0.00745803
0.00908067
0.00993891
0.0105773
0.0109029
0.0106595
0.00990721
0.00935349
0.00904871
0.00946232
0.0104434
0.0123435
0.0143047
0.0105733
0.00847479
0.00660135
0.00519811
0.00468568
0.00489957
0.00541912
0.00651967
0.00736219
0.00846959
0.00884911
0.00908918
0.00895571
0.00835193
0.00799706
0.00754944
0.0077729
0.0088584
0.0100696
0.0119841
0.0083708
0.00687223
0.00522365
0.00412315
0.00379764
0.00379214
0.00445391
0.00500299
0.00598309
0.00651793
0.00714089
0.00751374
0.0070339
0.00668833
0.00623713
0.00583476
0.00611786
0.00691099
0.0081489
0.00979802
0.00614103
0.00493399
0.00399926
0.00298524
0.00268746
0.00283832
0.00324317
0.00371538
0.00418159
0.00479938
0.00521394
0.0054328
0.00527995
0.00490757
0.00465288
0.00431843
0.00445485
0.00485506
0.00590473
0.00680458
0.00403718
0.00312566
0.00249416
0.00208158
0.00168142
0.00172878
0.00216544
0.00224808
0.00265514
0.00272141
0.00315793
0.00314019
0.0031587
0.0028826
0.00284479
0.00248093
0.00284425
0.00334869
0.00361083
0.004268
0.00120859
0.000894106
0.000742992
0.000557443
0.000500747
0.000447272
0.00085714
0.000836291
0.000811775
0.000794687
0.000995064
0.0011353
0.000991598
0.000957636
0.00102275
0.000981165
0.000837286
0.000930202
0.00118766
0.00126619
0.0147374
0.0114959
0.00852898
0.00670785
0.00588418
0.00575286
0.00670817
0.00795275
0.00964267
0.0109261
0.0117488
0.0119336
0.0117869
0.0110985
0.0106241
0.0106331
0.0110913
0.012784
0.0150476
0.0179677
0.0129204
0.0105445
0.00771095
0.00587947
0.00491656
0.0051676
0.00601523
0.00705184
0.00819738
0.00946545
0.0104101
0.0106616
0.0104454
0.00969881
0.00924005
0.00917693
0.00987835
0.0110847
0.0133044
0.0157643
0.0113261
0.00889116
0.00672004
0.00495224
0.00428775
0.00448633
0.00497825
0.00610151
0.00716691
0.00805066
0.00901936
0.00895337
0.00889163
0.00841777
0.00818361
0.00789122
0.00825088
0.00933179
0.0115438
0.0136167
0.00939567
0.00742601
0.00567706
0.00419718
0.00356577
0.00368785
0.00417227
0.00480711
0.00601437
0.00682021
0.00746416
0.00761665
0.00736544
0.00719641
0.00673211
0.00658402
0.00688552
0.0079475
0.00947851
0.0108176
0.00753019
0.00595929
0.00435463
0.00321921
0.00287283
0.00285582
0.00352665
0.00404854
0.00483168
0.00554627
0.00583239
0.00613194
0.00587867
0.00566748
0.00525207
0.00507642
0.00536766
0.00600796
0.00731755
0.00884191
0.00567506
0.00461371
0.00330298
0.00268605
0.00196153
0.00235561
0.00247056
0.00306866
0.00353066
0.00398625
0.00457018
0.00441551
0.00423711
0.00425195
0.00368645
0.00415203
0.00422616
0.00472465
0.00534082
0.00642077
0.00350079
0.00259627
0.00215455
0.0017845
0.0012596
0.00146139
0.00180594
0.00189948
0.00217529
0.00276587
0.00233159
0.00288686
0.00273556
0.00241827
0.00233071
0.00228466
0.00232389
0.00304648
0.00333669
0.00404119
0.00117202
0.00106661
0.000734394
0.000342785
0.000449553
0.000494607
0.000384142
0.000777316
0.000656381
0.000761263
0.00106963
0.00102815
0.000832132
0.000662989
0.000705388
0.00078577
0.000780594
0.00122839
0.00118737
0.00152353
0.0126449
0.00959438
0.00660078
0.00452386
0.00361043
0.00373049
0.00433017
0.00547909
0.00673169
0.00796316
0.008724
0.00900338
0.00910893
0.00882527
0.00853014
0.00845326
0.0093079
0.0108489
0.0133281
0.0162933
0.011197
0.0084175
0.00600091
0.00403199
0.00344347
0.00321709
0.00381793
0.00470612
0.00612573
0.00708638
0.00769117
0.00815251
0.00788695
0.00754419
0.007347
0.0073465
0.00785184
0.00940593
0.011671
0.0141528
0.00995104
0.00726457
0.00512675
0.00366067
0.00287674
0.00285069
0.00334666
0.00414358
0.00499937
0.00598219
0.00663074
0.00679684
0.00684236
0.0067072
0.00618703
0.00616818
0.00682852
0.00810541
0.00992839
0.0122471
0.00822402
0.00609902
0.00447395
0.00311364
0.00245745
0.00246389
0.0027496
0.00342008
0.00445761
0.00520418
0.00545329
0.00570244
0.00569713
0.0055513
0.00523816
0.00507275
0.00577862
0.00651401
0.00827475
0.0096609
0.00638255
0.00479388
0.00355447
0.00234674
0.00191249
0.00183252
0.00240277
0.00251446
0.0034459
0.00406963
0.00450273
0.00453022
0.00450677
0.00437883
0.00400663
0.00410664
0.00448006
0.00532665
0.00665327
0.00809627
0.00465722
0.00340372
0.00232915
0.00185903
0.00145861
0.00138469
0.00163018
0.00182714
0.00254333
0.00306951
0.0032615
0.00328548
0.00350925
0.003032
0.00307286
0.00311468
0.00323331
0.00390248
0.00453182
0.00576446
0.00300265
0.0020172
0.00166082
0.000997239
0.00103472
0.000926838
0.0010329
0.00136732
0.001645
0.00191286
0.00183288
0.00189765
0.00190962
0.00201646
0.00192722
0.0018524
0.00211937
0.00197795
0.00310329
0.00335424
0.000964362
0.000895634
0.000658325
0.000262001
0.000110565
7.7357e-05
0.000577041
0.000310475
0.000511397
0.000699318
0.000862389
0.000990156
0.000578777
0.000682151
0.000611653
0.000600702
0.000823382
0.000772326
0.00102049
0.00105394
0.0100733
0.00692337
0.00417656
0.00235934
0.00131508
0.00104934
0.00171979
0.00256773
0.00381182
0.00461083
0.00552955
0.00575289
0.00583367
0.00557177
0.00541273
0.00604937
0.00690068
0.00855218
0.0110712
0.013928
0.00908099
0.00630141
0.00377169
0.00213786
0.00106257
0.000928839
0.00147859
0.00230223
0.0030741
0.00406134
0.00478898
0.00509169
0.00508901
0.00505496
0.00463472
0.00506853
0.00581688
0.00738247
0.00962519
0.0120404
0.00787906
0.00551551
0.00314826
0.00192565
0.00101733
0.000891977
0.00136634
0.00185961
0.0028217
0.0035754
0.00417314
0.0043194
0.00430116
0.00446029
0.00417505
0.00446845
0.00501799
0.00622178
0.00809088
0.0103307
0.00667399
0.00455385
0.00279105
0.0015844
0.000973561
0.000615558
0.000961217
0.00145935
0.00232867
0.00318064
0.00340027
0.00347527
0.00358124
0.00356186
0.00327423
0.00362584
0.00420037
0.00515694
0.00675241
0.00830265
0.00509965
0.00365881
0.00229412
0.00106111
0.000764935
0.000588391
0.000780628
0.00121986
0.00173505
0.00239608
0.00252339
0.00286694
0.00305513
0.00277657
0.00281683
0.00289798
0.00318854
0.00401141
0.00550869
0.00676065
0.00380938
0.00268409