/*--------------------------------*- C++ -*----------------------------------*\
| =========                 |                                                 |
| \\      /  F ield         | OpenFOAM: The Open Source CFD Toolbox           |
|  \\    /   O peration     | Version:  2212                                  |
|   \\  /    A nd           | Website:  www.openfoam.com                      |
|    \\/     M anipulation  |                                                 |
\*---------------------------------------------------------------------------*/
FoamFile
{
    version     2.0;
    format      ascii;
    arch        "LSB;label=32;scalar=64";
    class       volScalarField;
    location    "0";
    object      stateMean;
}
// * * * * * * * * * * * * * * * * * * * * * * * * * * * * * * * * * * * * * //

dimensions      [0 0 0 1 0 0 0];

internalField   nonuniform List<scalar> 
3200
(
354.133
352.782
351.724
351.351
351.611
352.165
352.98
353.733
354.413
354.774
354.801
354.579
353.867
352.97
351.945
351.082
350.514
350.527
351.419
352.717
346.995
345.806
344.917
344.606
344.755
345.326
346.002
346.682
347.177
347.536
347.611
347.302
346.635
345.909
345.116
344.379
343.749
343.881
344.564
345.585
339.775
338.806
338.138
337.782
337.99
338.433
338.963
339.529
339.978
340.27
340.269
340.062
339.649
338.871
338.207
337.525
337.099
337.13
337.743
338.604
332.548
331.751
331.2
330.993
331.051
331.421
331.815
332.307
332.687
332.938
333.034
332.831
332.332
331.848
331.319
330.656
330.38
330.366
330.834
331.507
325.351
324.703
324.23
324.092
324.14
324.468
324.762
325.323
325.526
325.619
325.695
325.538
325.189
324.8
324.286
323.851
323.613
323.665
324.047
324.434
318.16
317.775
317.44
317.283
317.26
317.544
317.747
318.045
318.171
318.308
318.336
318.268
318.015
317.817
317.32
317.111
316.78
316.845
317.137
317.521
310.853
310.689
310.321
310.304
310.436
310.527
310.652
310.757
310.924
311.002
311.052
311.018
310.832
310.678
310.403
310.232
310.145
310.125
310.287
310.594
303.649
303.502
303.509
303.487
303.466
303.562
303.586
303.705
303.688
303.706
303.739
303.752
303.705
303.614
303.46
303.426
303.414
303.402
303.468
303.508
354.357
352.949
351.983
351.627
351.99
352.655
353.533
354.242
354.985
355.4
355.548
355.188
354.603
353.662
352.658
351.518
350.93
350.981
351.678
353.05
347.202
346.015
345.092
344.767
345.188
345.676
346.325
347.193
347.648
348.126
348.125
347.873
347.32
346.51
345.549
344.701
344.171
344.156
344.844
345.783
339.95
338.941
338.271
337.929
338.155
338.684
339.334
339.929
340.36
340.735
340.783
340.608
340.02
339.27
338.602
337.822
337.328
337.37
337.924
338.692
332.723
331.904
331.317
331.125
331.239
331.732
332.153
332.612
333.141
333.232
333.396
333.188
332.793
332.243
331.549
330.941
330.546
330.663
330.973
331.641
325.46
324.78
324.39
324.2
324.4
324.626
325.142
325.47
325.768
325.921
325.975
325.848
325.549
325.106
324.564
324.086
323.756
323.743
324.087
324.631
318.241
317.778
317.46
317.387
317.495
317.65
317.876
318.179
318.414
318.535
318.489
318.434
318.244
317.904
317.561
317.202
316.961
316.909
317.235
317.601
310.871
310.692
310.501
310.441
310.558
310.538
310.726
310.898
311.093
311.107
311.086
311.13
310.919
310.759
310.563
310.362
310.153
310.137
310.319
310.588
303.692
303.636
303.506
303.46
303.53
303.528
303.575
303.635
303.674
303.655
303.819
303.688
303.673
303.623
303.585
303.415
303.386
303.423
303.407
303.586
354.849
353.365
352.534
352.2
352.67
353.301
354.305
355.203
355.986
356.533
356.606
356.218
355.612
354.704
353.517
352.475
351.734
351.632
352.307
353.605
347.629
346.366
345.603
345.378
345.64
346.307
347.082
347.86
348.5
348.996
349.06
348.804
348.198
347.392
346.376
345.413
344.773
344.777
345.339
346.406
340.301
339.333
338.593
338.465
338.764
339.229
339.924
340.55
341.215
341.402
341.507
341.354
340.795
340.14
339.204
338.505
337.902
337.898
338.297
339.24
332.945
332.142
331.678
331.519
331.653
332.145
332.628
333.172
333.694
333.965
333.953
333.81
333.436
332.759
332.149
331.437
331.061
330.97
331.336
332.003
325.662
325.109
324.669
324.601
324.669
325.035
325.455
325.767
326.177
326.495
326.44
326.281
325.968
325.524
324.976
324.532
324.142
324.156
324.423
324.872
318.342
317.933
317.764
317.603
317.66
317.872
318.141
318.53
318.726
318.915
318.92
318.765
318.542
318.206
317.844
317.479
317.262
317.261
317.469
317.806
311.016
310.761
310.567
310.566
310.577
310.76
310.921
311.113
311.243
311.352
311.369
311.284
311.171
310.968
310.75
310.486
310.374
310.366
310.506
310.729
303.591
303.615
303.506
303.558
303.564
303.598
303.612
303.737
303.708
303.795
303.867
303.824
303.698
303.642
303.608
303.505
303.488
303.505
303.445
303.621
355.592
354.238
353.354
353.077
353.556
354.316
355.272
356.29
357.145
357.818
357.977
357.655
356.905
355.946
354.674
353.578
352.908
352.664
353.372
354.423
348.179
347.069
346.295
346.118
346.475
347.121
347.947
348.875
349.619
350.127
350.206
349.906
349.387
348.436
347.415
346.442
345.767
345.765
346.188
347.171
340.766
339.913
339.189
339.03
339.403
339.967
340.545
341.327
342.004
342.423
342.486
342.334
341.747
340.977
340.096
339.303
338.718
338.623
339.084
339.902
333.448
332.669
332.101
332.066
332.236
332.687
333.235
333.888
334.389
334.799
334.823
334.549
334.121
333.53
332.808
332.13
331.686
331.592
331.945
332.597
326.042
325.516
325.031
324.927
325.024
325.494
325.902
326.316
326.763
327.006
327.034
326.915
326.589
326.089
325.555
325.058
324.683
324.617
324.978
325.367
318.581
318.221
317.866
317.848
317.968
318.15
318.453
318.802
319.098
319.32
319.292
319.221
318.994
318.595
318.215
317.909
317.567
317.588
317.828
318.052
311.202
311.005
310.772
310.767
310.839
310.99
311.156
311.303
311.465
311.678
311.717
311.567
311.457
311.167
310.991
310.723
310.603
310.5
310.621
310.886
303.785
303.66
303.606
303.615
303.647
303.678
303.703
303.745
303.852
303.884
303.955
303.825
303.842
303.741
303.617
303.576
303.509
303.552
303.494
303.723
356.548
355.276
354.403
354.278
354.693
355.53
356.519
357.657
358.59
359.281
359.485
359.243
358.483
357.442
356.152
354.954
354.217
354.103
354.625
355.755
349.082
347.939
347.226
347.059
347.436
348.176
349.045
350.041
350.839
351.409
351.58
351.301
350.67
349.707
348.627
347.597
346.964
346.764
347.291
348.229
341.541
340.713
340.028
339.941
340.151
340.787
341.545
342.384
342.988
343.544
343.602
343.391
342.87
341.977
341.077
340.263
339.766
339.595
339.974
340.785
333.984
333.322
332.708
332.704
332.904
333.431
334.027
334.557
335.202
335.469
335.691
335.538
335.093
334.437
333.645
333.003
332.507
332.327
332.677
333.353
326.43
326.061
325.584
325.432
325.571
326.004
326.449
326.948
327.329
327.727
327.763
327.589
327.251
326.821
326.163
325.694
325.339
325.286
325.49
325.964
318.925
318.568
318.394
318.172
318.332
318.636
318.929
319.27
319.567
319.77
319.873
319.662
319.47
319.053
318.701
318.392
318.076
318.09
318.172
318.512
311.331
311.154
311.017
310.968
311.042
311.133
311.361
311.628
311.758
311.901
311.957
311.859
311.67
311.455
311.262
310.946
310.871
310.87
310.957
311.107
303.835
303.782
303.674
303.633
303.658
303.766
303.714
303.857
303.952
303.88
303.942
303.908
303.951
303.886
303.865
303.75
303.692
303.689
303.682
303.759
357.818
356.603
355.825
355.623
356.025
356.846
358.007
359.101
360.18
360.921
361.244
360.895
360.17
359.09
357.777
356.564
355.803
355.615
356.211
357.236
350.133
349.131
348.439
348.314
348.602
349.377
350.199
351.203
352.102
352.75
352.976
352.794
352.108
351.154
350.056
349.059
348.377
348.228
348.61
349.494
342.472
341.658
341.06
340.928
341.124
341.79
342.577
343.418
344.037
344.554
344.832
344.632
344.092
343.195
342.279
341.481
340.929
340.716
341.171
341.821
334.747
334.055
333.598
333.463
333.679
334.236
334.816
335.425
336.062
336.479
336.637
336.577
336.059
335.301
334.599
333.775
333.451
333.295
333.647
334.237
327.059
326.504
326.207
326.083
326.25
326.649
327.143
327.658
328.08
328.388
328.434
328.435
327.97
327.557
326.919
326.479
326.066
325.884
326.242
326.579
319.302
318.93
318.669
318.646
318.798
319.02
319.385
319.766
320.094
320.302
320.394
320.239
319.981
319.624
319.215
318.842
318.601
318.488
318.691
318.962
311.616
311.412
311.227
311.257
311.304
311.411
311.65
311.9
312.015
312.244
312.248
312.237
312.061
311.854
311.545
311.386
311.069
311.183
311.288
311.463
303.915
303.809
303.804
303.841
303.81
303.826
303.906
303.95
303.97
304.026
304.123
304.006
304.029
303.977
303.928
303.804
303.758
303.667
303.746
303.822
359.206
358.106
357.226
357.112
357.563
358.396
359.483
360.633
361.687
362.585
362.97
362.751
361.831
360.818
359.568
358.337
357.585
357.351
357.947
358.797
351.368
350.379
349.719
349.668
349.986
350.722
351.589
352.622
353.492
354.261
354.522
354.305
353.625
352.68
351.538
350.628
349.875
349.687
350.129
350.923
343.466
342.593
342.124
341.988
342.291
342.859
343.736
344.496
345.33
345.971
346.109
345.886
345.412
344.573
343.617
342.786
342.232
342.083
342.387
343.075
335.633
334.94
334.49
334.406
334.566
335.076
335.759
336.482
337.05
337.494
337.688
337.523
337.126
336.373
335.635
334.92
334.481
334.401
334.674
335.158
327.677
327.224
326.858
326.779
326.926
327.31
327.9
328.381
328.848
329.219
329.411
329.134
328.818
328.251
327.738
327.244
326.848
326.637
326.949
327.407
319.773
319.469
319.125
319.118
319.252
319.587
319.917
320.311
320.548
320.824
320.932
320.845
320.659
320.207
319.764
319.424
319.145
319.166
319.245
319.478
311.92
311.756
311.464
311.55
311.572
311.762
312.061
312.075
312.401
312.544
312.538
312.505
312.317
312.136
311.904
311.716
311.543
311.463
311.582
311.704
303.907
303.917
303.844
303.831
303.836
303.882
303.896
304.028
304.108
304.166
304.233
304.239
304.199
304.091
304.023
303.981
303.832
303.812
303.871
303.995
360.811
359.771
359.063
358.77
359.216
360.03
361.01
362.376
363.36
364.349
364.747
364.433
363.674
362.54
361.253
360.196
359.467
359.258
359.802
360.697
352.726
351.8
351.158
350.996
351.305
352.105
352.998
354.024
354.888
355.695
356.023
355.873
355.238
354.229
353.208
352.207
351.569
351.421
351.732
352.449
344.715
343.862
343.318
343.127
343.444
344.121
344.883
345.633
346.538
347.11
347.443
347.249
346.762
345.764
344.925
344.215
343.573
343.52
343.792
344.428
336.442
336.002
335.475
335.293
335.614
336.047
336.682
337.436
338.044
338.55
338.714
338.651
338.162
337.466
336.718
336.131
335.642
335.53
335.809
336.24
328.393
327.999
327.655
327.619
327.792
328.113
328.555
329.068
329.568
329.989
330.148
330.027
329.668
329.189
328.527
328.02
327.679
327.658
327.875
328.172
320.245
319.992
319.71
319.699
319.785
320.057
320.384
320.756
321.118
321.422
321.539
321.44
321.201
320.867
320.49
320.085
319.791
319.732
319.822
320.138
312.161
312.106
311.77
311.812
311.892
312.073
312.318
312.399
312.689
312.867
312.923
312.857
312.823
312.42
312.295
312.013
311.913
311.923
311.937
312.094
304.052
304.042
303.957
304.009
304.097
304.051
304.168
304.123
304.226
304.259
304.307
304.311
304.242
304.211
304.135
304.079
303.982
303.947
304.073
304.014
362.525
361.438
360.71
360.56
360.967
361.688
362.75
363.952
365.079
365.932
366.473
366.301
365.528
364.435
363.286
362.173
361.55
361.299
361.799
362.593
354.189
353.304
352.626
352.514
352.797
353.601
354.377
355.453
356.398
357.239
357.526
357.439
356.749
355.747
354.788
353.893
353.208
353.147
353.466
354.315
345.905
345.165
344.559
344.458
344.622
345.263
346.152
346.947
347.764
348.41
348.643
348.519
348.028
347.156
346.219
345.546
344.998
344.96
345.282
345.789
337.558
336.999
336.557
336.428
336.618
337.026
337.704
338.438
338.996
339.542
339.793
339.714
339.213
338.567
337.876
337.258
336.806
336.857
337.03
337.392
329.271
328.698
328.47
328.362
328.528
328.79
329.353
329.822
330.335
330.775
330.952
330.91
330.532
330.024
329.504
329.046
328.609
328.555
328.772
329.007
320.841
320.584
320.33
320.262
320.381
320.675
320.934
321.364
321.695
322.038
322.105
322.115
321.757
321.468
321.12
320.732
320.483
320.427
320.504
320.765
312.505
312.386
312.203
312.201
312.205
312.367
312.605
312.913
313.027
313.223
313.333
313.282
313.098
312.901
312.692
312.462
312.241
312.213
312.359
312.59
304.217
304.132
304.069
304.043
304.107
304.15
304.129
304.345
304.375
304.416
304.478
304.381
304.379
304.226
304.225
304.205
304.165
304.132
304.069
304.195
364.275
363.294
362.564
362.354
362.699
363.471
364.514
365.597
366.797
367.641
368.133
368.028
367.193
366.295
365.109
364.121
363.51
363.393
363.852
364.621
355.759
354.88
354.28
354.098
354.361
355.004
355.947
356.89
357.811
358.584
358.969
358.873
358.289
357.347
356.427
355.557
355.003
354.956
355.196
355.834
347.141
346.45
345.895
345.807
346.044
346.604
347.31
348.105
348.912
349.608
349.943
349.794
349.287
348.555
347.699
346.979
346.457
346.423
346.706
347.271
338.635
338.018
337.57
337.523
337.681
338.109
338.721
339.347
340.034
340.536
340.802
340.671
340.281
339.734
339
338.433
338.085
337.983
338.194
338.617
330.01
329.585
329.27
329.183
329.384
329.674
330.079
330.673
331.111
331.526
331.631
331.548
331.339
330.89
330.249
329.834
329.544
329.597
329.762
330.118
321.436
321.134
320.927
320.864
321.019
321.143
321.532
321.942
322.229
322.563
322.725
322.632
322.369
321.97
321.706
321.385
321.12
321.042
321.184
321.442
312.865
312.732
312.571
312.555
312.57
312.751
312.91
313.198
313.344
313.537
313.602
313.606
313.433
313.258
313.029
312.814
312.669
312.63
312.716
312.861
304.305
304.213
304.236
304.168
304.248
304.289
304.286
304.457
304.514
304.548
304.606
304.477
304.506
304.391
304.368
304.322
304.338
304.217
304.316
304.307
366.11
365.104
364.382
364.281
364.53
365.188
366.168
367.353
368.334
369.247
369.764
369.618
368.948
368.065
367.109
366.158
365.564
365.43
365.976
366.669
357.296
356.521
355.834
355.699
355.895
356.471
357.349
358.323
359.248
359.954
360.321
360.282
359.704
358.854
358.012
357.207
356.775
356.637
357.074
357.603
348.431
347.817
347.346
347.137
347.324
347.734
348.515
349.37
350.171
350.755
351.001
350.958
350.533
349.765
349.052
348.441
347.96
347.926
348.253
348.714
339.647
339.179
338.724
338.602
338.798
339.082
339.672
340.345
340.97
341.537
341.772
341.65
341.289
340.624
340.137
339.541
339.272
339.211
339.43
339.859
330.855
330.426
330.061
330.029
330.215
330.479
330.95
331.457
331.936
332.288
332.459
332.44
332.108
331.627
331.15
330.846
330.499
330.46
330.631
330.946
321.95
321.814
321.546
321.491
321.61
321.829
322.064
322.398
322.803
323.05
323.2
323.119
322.963
322.619
322.271
322.025
321.735
321.751
321.903
322.126
313.204
313.121
312.92
312.981
312.936
313.148
313.241
313.512
313.654
313.834
313.919
313.922
313.733
313.626
313.382
313.262
313.093
313.065
313.167
313.299
304.423
304.378
304.377
304.24
304.287
304.393
304.427
304.513
304.641
304.629
304.7
304.619
304.602
304.502
304.524
304.359
304.408
304.439
304.42
304.501
367.943
367.068
366.337
366.161
366.226
366.94
367.913
368.966
369.981
370.78
371.212
371.078
370.655
369.691
368.846
368.035
367.626
367.478
367.963
368.697
358.956
358.131
357.574
357.298
357.505
358.044
358.794
359.783
360.587
361.319
361.638
361.553
361.133
360.379
359.587
358.908
358.564
358.449
358.792
359.432
349.763
349.197
348.734
348.495
348.747
349.202
349.758
350.487
351.21
351.805
352.127
351.986
351.721
351.05
350.337
349.796
349.453
349.359
349.735
350.207
340.744
340.251
339.869
339.717
339.793
340.21
340.691
341.366
341.922
342.34
342.663
342.599
342.257
341.74
341.142
340.725
340.506
340.416
340.701
341.03
331.736
331.304
331.064
330.897
330.927
331.316
331.664
332.109
332.669
333.003
333.165
333.131
332.775
332.45
332.063
331.621
331.423
331.405
331.656
331.899
322.701
322.374
322.161
322.099
322.163
322.346
322.647
322.941
323.235
323.58
323.699
323.686
323.404
323.213
322.873
322.568
322.479
322.377
322.547
322.782
313.664
313.491
313.305
313.239
313.328
313.437
313.606
313.768
313.978
314.145
314.199
314.204
314.054
313.934
313.753
313.659
313.442
313.482
313.615
313.714
304.575
304.451
304.489
304.464
304.463
304.458
304.519
304.622
304.65
304.701
304.702
304.806
304.659
304.666
304.711
304.511
304.516
304.44
304.574
304.641
369.778
368.962
368.271
367.986
368.18
368.759
369.615
370.456
371.432
372.214
372.637
372.536
372.113
371.448
370.683
369.884
369.625
369.607
370.028
370.782
360.505
359.832
359.174
358.937
359.088
359.669
360.282
361.07
361.923
362.535
362.871
362.835
362.448
361.799
361.128
360.639
360.219
360.288
360.661
361.299
351.283
350.62
350.077
349.9
350.048
350.406
350.992
351.688
352.331
352.922
353.149
353.116
352.822
352.339
351.669
351.205
350.89
350.874
351.313
351.771
341.863
341.337
340.976
340.798
340.969
341.256
341.691
342.269
342.868
343.203
343.445
343.478
343.214
342.727
342.309
341.839
341.622
341.64
341.884
342.29
332.573
332.198
331.88
331.762
331.856
332.068
332.499
332.86
333.28
333.607
333.772
333.752
333.491
333.262
332.839
332.547
332.382
332.404
332.653
332.806
323.295
323.057
322.818
322.833
322.722
322.888
323.264
323.52
323.777
323.986
324.121
324.186
324.002
323.761
323.492
323.299
323.122
323.141
323.216
323.438
313.992
313.785
313.708
313.635
313.68
313.747
313.937
314.119
314.313
314.436
314.479
314.541
314.418
314.256
314.021
313.962
313.933
313.927
313.894
314.029
304.686
304.694
304.572
304.525
304.556
304.633
304.748
304.66
304.709
304.876
304.902
304.87
304.901
304.815
304.76
304.682
304.661
304.61
304.695
304.644
371.78
370.794
370.194
369.923
370.052
370.515
371.284
372.157
372.963
373.598
374.019
374.017
373.616
373.144
372.347
371.836
371.512
371.642
372.034
372.743
362.175
361.459
360.871
360.568
360.681
361.115
361.682
362.496
363.226
363.785
364.006
364.075
363.759
363.213
362.673
362.181
361.856
361.963
362.453
363.004
352.608
352.019
351.527
351.273
351.344
351.712
352.291
352.803
353.523
353.903
354.126
354.162
353.924
353.444
352.984
352.575
352.395
352.405
352.75
353.182
343.034
342.523
342.145
341.938
342.028
342.348
342.742
343.293
343.705
344.147
344.277
344.294
344.124
343.742
343.403
343.003
342.814
342.912
343.065
343.513
333.457
333.116
332.77
332.616
332.714
332.904
333.292
333.611
334.033
334.26
334.466
334.541
334.285
334.033
333.715
333.389
333.277
333.329
333.538
333.929
323.908
323.629
323.47
323.293
323.344
323.53
323.781
324.03
324.25
324.485
324.619
324.654
324.536
324.318
324.115
323.87
323.767
323.746
323.942
324.122
314.438
314.218
314.105
314.065
314.028
314.125
314.334
314.419
314.588
314.63
314.767
314.74
314.705
314.559
314.475
314.279
314.304
314.373
314.37
314.511
304.784
304.71
304.692
304.666
304.678
304.689
304.838
304.852
304.858
304.86
304.921
304.957
304.899
304.869
304.864
304.825
304.751
304.749
304.8
304.801
373.674
372.81
372.117
371.857
371.954
372.276
372.955
373.679
374.492
375.064
375.369
375.341
375.101
374.582
374.079
373.71
373.476
373.687
374.119
374.864
363.792
363.218
362.545
362.243
362.243
362.655
363.244
363.846
364.42
364.961
365.303
365.311
365.072
364.574
364.125
363.779
363.683
363.759
364.21
364.814
354.023
353.4
352.931
352.613
352.673
353.015
353.427
354.014
354.525
354.906
355.247
355.154
354.996
354.636
354.314
353.938
353.77
353.846
354.33
354.825
344.167
343.68
343.32
343.062
343.086
343.351
343.711
344.086
344.61
344.944
345.164
345.159
344.962
344.746
344.392
344.118
343.98
344.095
344.381
344.651
334.367
333.988
333.639
333.453
333.524
333.692
334.067
334.363
334.71
334.993
335.088
335.144
334.973
334.78
334.49
334.257
334.167
334.188
334.438
334.802
324.606
324.364
324.071
324.008
323.907
324.159
324.304
324.585
324.796
324.975
325.164
325.082
324.963
324.881
324.589
324.615
324.506
324.53
324.598
324.846
314.778
314.554
314.493
314.459
314.374
314.512
314.685
314.768
314.89
315.095
314.959
315.114
315.03
314.878
314.785
314.696
314.628
314.773
314.786
314.948
304.943
304.93
304.856
304.763
304.823
304.862
304.85
304.987
304.962
305.001
305.095
305.075
305.004
304.935
304.926
304.925
304.897
305.006
304.967
305.05
375.658
374.829
374.084
373.687
373.709
374.089
374.604
375.268
375.901
376.445
376.729
376.749
376.623
376.281
375.878
375.513
375.467
375.663
376.215
377.011
365.552
364.803
364.245
363.857
363.958
364.166
364.637
365.162
365.821
366.245
366.465
366.558
366.319
365.99
365.665
365.374
365.241
365.478
365.98
366.62
355.547
354.813
354.326
354.084
354.074
354.309
354.699
355.153
355.577
355.987
356.216
356.213
356.107
355.887
355.488
355.236
355.202
355.376
355.751
356.356
345.402
344.845
344.504
344.263
344.255
344.459
344.731
345.103
345.559
345.867
345.952
345.987
345.886
345.694
345.412
345.153
345.177
345.204
345.591
345.895
335.255
334.856
334.611
334.383
334.407
334.537
334.864
335.01
335.399
335.646
335.791
335.761
335.676
335.524
335.263
335.14
335.095
335.202
335.475
335.826
325.18
324.867
324.639
324.611
324.603
324.69
324.868
325.01
325.296
325.496
325.558
325.537
325.555
325.322
325.237
325.14
325.057
325.149
325.232
325.539
315.163
314.908
314.868
314.735
314.818
314.852
314.944
315.096
315.216
315.317
315.292
315.295
315.267
315.253
315.166
315.076
315.087
314.968
315.249
315.274
305.06
305.058
305.01
304.914
304.892
304.905
305.076
305.011
305.083
305.146
305.196
305.229
305.092
305.108
305.067
305.041
305.085
305.044
305.096
305.087
377.605
376.705
376.012
375.672
375.609
375.81
376.323
376.851
377.466
377.842
378.188
378.196
378.079
377.77
377.448
377.385
377.374
377.65
378.257
379.046
367.289
366.512
365.879
365.579
365.471
365.683
366.111
366.594
367.003
367.43
367.696
367.741
367.613
367.418
367.037
366.933
366.921
367.195
367.723
368.367
356.924
356.281
355.686
355.502
355.421
355.597
355.958
356.287
356.737
357.061
357.274
357.27
357.156
357.058
356.763
356.647
356.599
356.776
357.194
357.792
346.588
346.015
345.605
345.393
345.38
345.438
345.714
346.012
346.401
346.74
346.816
346.797
346.745
346.612
346.355
346.295
346.295
346.42
346.772
347.149
336.157
335.795
335.492
335.238
335.292
335.374
335.561
335.806
336.048
336.305
336.348
336.428
336.422
336.23
336.121
336.007
335.951
336.067
336.414
336.712
325.854
325.573
325.305
325.246
325.196
325.286
325.478
325.625
325.794
325.918
326.072
326.041
325.984
325.796
325.808
325.737
325.65
325.801
325.994
326.203
315.474
315.372
315.278
315.152
315.164
315.231
315.279
315.353
315.523
315.585
315.619
315.641
315.581
315.537
315.471
315.432
315.444
315.499
315.601
315.72
305.167
305.125
305.103
305.045
305.099
305.126
305.118
305.254
305.13
305.19
305.209
305.25
305.294
305.215
305.156
305.251
305.164
305.215
305.259
305.28
379.596
378.709
377.92
377.51
377.356
377.546
377.912
378.377
378.916
379.25
379.573
379.704
379.553
379.4
379.18
379.202
379.244
379.583
380.215
380.902
368.981
368.127
367.549
367.16
367.023
367.172
367.516
367.903
368.349
368.667
368.884
368.984
368.904
368.774
368.565
368.522
368.584
368.815
369.509
370.089
358.342
357.686
357.116
356.765
356.67
356.836
357.106
357.494
357.755
358.026
358.277
358.262
358.261
358.164
357.961
357.871
357.947
358.239
358.706
359.216
347.717
347.151
346.75
346.494
346.358
346.438
346.772
346.991
347.272
347.533
347.561
347.741
347.583
347.46
347.374
347.317
347.386
347.541
347.921
348.442
337.129
336.677
336.37
336.096
336.034
336.168
336.295
336.571
336.713
336.959
336.951
337.06
337.059
336.894
336.86
336.821
336.871
337
337.355
337.638
326.441
326.201
325.99
325.824
325.814
325.818
325.922
326.191
326.236
326.343
326.451
326.469
326.443
326.372
326.347
326.309
326.246
326.41
326.622
326.864
315.932
315.835
315.577
315.476
315.497
315.558
315.599
315.67
315.749
315.767
315.924
315.875
315.855
315.87
315.793
315.818
315.763
315.815
315.958
316.096
305.337
305.274
305.288
305.17
305.247
305.228
305.231
305.218
305.301
305.316
305.291
305.305
305.371
305.274
305.354
305.275
305.308
305.208
305.357
305.368
381.28
380.527
379.654
379.241
379.109
379.206
379.504
379.877
380.291
380.749
380.991
381.026
381.07
380.875
380.833
380.705
380.971
381.371
381.999
382.803
370.52
369.657
369.014
368.556
368.428
368.524
368.833
369.167
369.542
369.817
369.983
370.074
370.085
369.97
369.882
369.865
370
370.357
370.861
371.558
359.531
358.9
358.413
357.992
357.884
357.915
358.196
358.515
358.754
359.002
359.158
359.297
359.183
359.085
359.008
359.012
359.208
359.389
360.003
360.52
348.594
348.17
347.805
347.492
347.361
347.34
347.657
347.819
348.085
348.281
348.397
348.425
348.408
348.282
348.215
348.202
348.378
348.624
348.992
349.424
337.834
337.441
337.063
336.901
336.865
336.895
337.038
337.185
337.354
337.531
337.524
337.631
337.637
337.52
337.521
337.537
337.605
337.782
338.064
338.345
326.983
326.777
326.52
326.348
326.209
326.353
326.484
326.562
326.63
326.796
326.868
326.915
326.77
326.827
326.865
326.76
326.852
327.037
327.274
327.343
316.237
316.11
315.905
315.862
315.79
315.68
315.923
315.941
316.045
316.17
316.137
316.161
316.196
316.139
316.043
316.04
316.069
316.244
316.328
316.45
305.484
305.424
305.308
305.295
305.317
305.329
305.292
305.421
305.478
305.38
305.381
305.374
305.433
305.381
305.424
305.378
305.402
305.355
305.439
305.488
382.727
381.806
381.068
380.428
380.324
380.441
380.651
380.996
381.365
381.709
381.965
382.002
382.046
381.922
381.998
382.011
382.209
382.694
383.349
384.198
371.519
370.84
370.113
369.652
369.457
369.586
369.818
370.103
370.389
370.615
370.901
370.908
370.932
370.925
370.84
370.851
371.097
371.467
372.092
372.752
360.436
359.793
359.246
358.835
358.706
358.865
358.992
359.139
359.409
359.765
359.801
359.91
359.893
359.823
359.818
359.875
360.001
360.26
360.765
361.444
349.419
348.907
348.455
348.078
348.034
348.009
348.177
348.364
348.604
348.778
348.911
349.004
348.864
348.914
348.904
348.856
349.021
349.28
349.643
350.1
338.421
337.997
337.595
337.362
337.337
337.355
337.446
337.65
337.764
337.953
338.012
338.024
338.066
338.059
337.991
337.959
338.111
338.24
338.588
338.931
327.401
327.089
326.856
326.637
326.602
326.646
326.782
326.838
327.032
327.043
327.1
327.21
327.175
327.19
327.068
327.129
327.192
327.278
327.544
327.838
316.428
316.305
316.147
315.986
315.949
315.925
316.05
316.117
316.24
316.288
316.299
316.259
316.304
316.265
316.247
316.321
316.364
316.336
316.524
316.686
305.569
305.526
305.374
305.438
305.373
305.39
305.411
305.353
305.414
305.521
305.387
305.401
305.48
305.377
305.398
305.421
305.513
305.553
305.52
305.632
)
;

boundaryField
{
    hotSide
    {
        type            fixedGradient;
        gradient        nonuniform List<scalar> 
400
(
321.511
322.87
325.591
329.677
335.133
341.965
350.181
359.788
370.794
383.208
397.037
412.289
428.971
447.088
466.647
487.651
510.105
534.011
559.372
586.191
323.738
325.08
327.767
331.802
337.194
343.949
352.078
361.591
372.498
384.81
398.537
413.687
430.268
448.289
467.755
488.672
511.043
534.872
560.161
586.913
326.149
327.47
330.116
334.091
339.406
346.071
354.099
363.503
374.296
386.491
400.101
415.136
431.606
449.52
468.885
489.706
511.988
535.735
560.948
587.63
328.704
330
332.597
336.503
341.73
348.292
356.205
365.485
376.15
388.215
401.695
416.604
432.954
450.753
470.009
490.73
512.919
536.579
561.714
588.325
331.33
332.599
335.142
338.97
344.099
350.546
358.332
367.477
378.003
389.928
403.271
418.047
434.27
451.949
471.095
491.712
513.807
537.382
562.439
588.978
333.918
335.158
337.643
341.389
346.414
352.74
360.392
369.397
379.779
391.562
404.765
419.407
435.503
453.065
472.101
492.618
514.622
538.114
563.096
589.569
336.321
337.531
339.959
343.622
348.544
354.751
362.274
371.142
381.385
393.031
406.101
420.618
436.595
454.047
472.983
493.409
515.33
538.747
563.663
590.076
338.36
339.543
341.92
345.509
350.339
356.44
363.847
372.595
382.718
394.244
407.2
421.608
437.485
454.844
473.695
494.045
515.897
539.253
564.114
590.478
339.852
341.015
343.352
346.885
351.645
357.665
364.985
373.643
383.675
395.113
407.984
422.312
438.116
455.407
474.197
494.491
516.294
539.606
564.428
590.758
340.643
341.795
344.11
347.613
352.334
358.311
365.584
374.193
384.176
395.567
408.393
422.679
438.443
455.699
474.456
494.722
516.498
539.788
564.589
590.901
340.643
341.795
344.11
347.613
352.334
358.311
365.584
374.193
384.176
395.567
408.393
422.679
438.443
455.699
474.456
494.722
516.498
539.788
564.589
590.901
339.852
341.015
343.352
346.885
351.645
357.665
364.985
373.643
383.675
395.113
407.984
422.312
438.116
455.407
474.197
494.491
516.294
539.606
564.428
590.758
338.36
339.543
341.92
345.509
350.339
356.44
363.847
372.595
382.718
394.244
407.2
421.608
437.485
454.844
473.695
494.045
515.897
539.253
564.114
590.478
336.321
337.531
339.959
343.622
348.544
354.751
362.274
371.142
381.385
393.031
406.101
420.618
436.595
454.047
472.983
493.409
515.33
538.747
563.663
590.076
333.918
335.158
337.643
341.389
346.414
352.74
360.392
369.397
379.779
391.562
404.765
419.407
435.503
453.065
472.101
492.618
514.622
538.114
563.096
589.569
331.33
332.599
335.142
338.97
344.099
350.546
358.332
367.477
378.003
389.928
403.271
418.047
434.27
451.949
471.095
491.712
513.807
537.382
562.439
588.978
328.704
330
332.597
336.503
341.73
348.292
356.205
365.485
376.15
388.215
401.695
416.604
432.954
450.753
470.009
490.73
512.919
536.579
561.714
588.325
326.149
327.47
330.116
334.091
339.406
346.071
354.099
363.503
374.296
386.491
400.101
415.136
431.606
449.52
468.885
489.706
511.988
535.735
560.948
587.63
323.738
325.08
327.767
331.802
337.194
343.949
352.078
361.591
372.498
384.81
398.537
413.687
430.268
448.289
467.755
488.672
511.043
534.872
560.161
586.913
321.511
322.87
325.591
329.677
335.133
341.965
350.181
359.788
370.794
383.208
397.037
412.289
428.971
447.088
466.647
487.651
510.105
534.011
559.372
586.191
)
;
    }
    coldSide
    {
        type            mixed;
        refValue        uniform 300;
        refGradient     uniform 0;
        valueFraction   uniform 0.991591;
        source          uniform 0;
        value           nonuniform List<scalar> 
400
(
300.031
300.031
300.03
300.032
300.032
300.033
300.033
300.034
300.035
300.036
300.037
300.038
300.039
300.04
300.042
300.043
300.043
300.045
300.046
300.047
300.029
300.031
300.03
300.031
300.032
300.032
300.033
300.034
300.035
300.035
300.037
300.037
300.039
300.04
300.041
300.043
300.043