/*--------------------------------*- C++ -*----------------------------------*\
| =========                 |                                                 |
| \\      /  F ield         | OpenFOAM: The Open Source CFD Toolbox           |
|  \\    /   O peration     | Version:  2212                                  |
|   \\  /    A nd           | Website:  www.openfoam.com                      |
|    \\/     M anipulation  |                                                 |
\*---------------------------------------------------------------------------*/
FoamFile
{
    version     2.0;
    format      ascii;
    arch        "LSB;label=32;scalar=64";
    class       volScalarField;
    location    "0";
    object      Ttrue;
}
// * * * * * * * * * * * * * * * * * * * * * * * * * * * * * * * * * * * * * //

dimensions      [0 0 0 1 0 0 0];

internalField   nonuniform List<scalar> 
3200
(
318.71
319.072
319.534
320.038
320.557
321.066
321.536
321.933
322.222
322.375
322.375
322.222
321.933
321.536
321.066
320.557
320.038
319.534
319.072
318.71
316.24
316.546
316.945
317.381
317.83
318.27
318.677
319.019
319.269
319.401
319.401
319.269
319.019
318.677
318.27
317.83
317.381
316.945
316.546
316.24
313.76
314.014
314.35
314.718
315.098
315.47
315.813
316.103
316.313
316.424
316.424
316.313
316.103
315.813
315.47
315.098
314.718
314.35
314.014
313.76
311.272
311.477
311.751
312.051
312.362
312.666
312.946
313.182
313.354
313.445
313.445
313.354
313.182
312.946
312.666
312.362
312.051
311.751
311.477
311.272
308.777
308.934
309.147
309.38
309.621
309.858
310.075
310.259
310.392
310.463
310.463
310.392
310.259
310.075
309.858
309.621
309.38
309.147
308.934
308.777
306.276
306.388
306.539
306.706
306.878
307.047
307.202
307.333
307.428
307.479
307.479
307.428
307.333
307.202
307.047
306.878
306.706
306.539
306.388
306.276
303.772
303.838
303.929
304.029
304.132
304.234
304.327
304.406
304.463
304.493
304.493
304.463
304.406
304.327
304.234
304.132
304.029
303.929
303.838
303.772
301.265
301.287
301.317
301.351
301.385
301.419
301.451
301.477
301.496
301.506
301.506
301.496
301.477
301.451
301.419
301.385
301.351
301.317
301.287
301.265
318.761
319.12
319.578
320.077
320.591
321.095
321.559
321.951
322.236
322.387
322.387
322.236
321.951
321.559
321.095
320.591
320.077
319.578
319.12
318.761
316.284
316.588
316.983
317.415
317.86
318.295
318.697
319.035
319.282
319.412
319.412
319.282
319.035
318.697
318.295
317.86
317.415
316.983
316.588
316.284
313.798
314.05
314.383
314.748
315.123
315.491
315.83
316.116
316.324
316.434
316.434
316.324
316.116
315.83
315.491
315.123
314.748
314.383
314.05
313.798
311.303
311.506
311.777
312.075
312.382
312.683
312.96
313.194
313.363
313.453
313.453
313.363
313.194
312.96
312.683
312.382
312.075
311.777
311.506
311.303
308.801
308.957
309.167
309.399
309.638
309.871
310.087
310.268
310.4
310.469
310.469
310.4
310.268
310.087
309.871
309.638
309.399
309.167
308.957
308.801
306.293
306.404
306.554
306.719
306.89
307.057
307.21
307.34
307.434
307.483
307.483
307.434
307.34
307.21
307.057
306.89
306.719
306.554
306.404
306.293
303.782
303.848
303.938
304.037
304.139
304.24
304.332
304.409
304.466
304.496
304.496
304.466
304.409
304.332
304.24
304.139
304.037
303.938
303.848
303.782
301.268
301.29
301.32
301.353
301.388
301.421
301.452
301.478
301.497
301.507
301.507
301.497
301.478
301.452
301.421
301.388
301.353
301.32
301.29
301.268
318.864
319.217
319.668
320.157
320.661
321.153
321.607
321.99
322.268
322.414
322.414
322.268
321.99
321.607
321.153
320.661
320.157
319.668
319.217
318.864
316.373
316.672
317.061
317.485
317.92
318.346
318.739
319.069
319.309
319.436
319.436
319.309
319.069
318.739
318.346
317.92
317.485
317.061
316.672
316.373
313.873
314.121
314.448
314.806
315.175
315.535
315.866
316.145
316.348
316.454
316.454
316.348
316.145
315.866
315.535
315.175
314.806
314.448
314.121
313.873
311.364
311.564
311.831
312.124
312.424
312.719
312.989
313.217
313.383
313.47
313.47
313.383
313.217
312.989
312.719
312.424
312.124
311.831
311.564
311.364
308.849
309.002
309.209
309.436
309.67
309.899
310.109
310.286
310.415
310.482
310.482
310.415
310.286
310.109
309.899
309.67
309.436
309.209
309.002
308.849
306.328
306.436
306.584
306.746
306.913
307.076
307.227
307.353
307.444
307.493
307.493
307.444
307.353
307.227
307.076
306.913
306.746
306.584
306.436
306.328
303.802
303.867
303.956
304.053
304.154
304.252
304.342
304.417
304.472
304.501
304.501
304.472
304.417
304.342
304.252
304.154
304.053
303.956
303.867
303.802
301.275
301.297
301.326
301.359
301.392
301.425
301.456
301.481
301.499
301.509
301.509
301.499
301.481
301.456
301.425
301.392
301.359
301.326
301.297
301.275
319.019
319.364
319.803
320.28
320.768
321.245
321.683
322.052
322.319
322.46
322.46
322.319
322.052
321.683
321.245
320.768
320.28
319.803
319.364
319.019
316.507
316.8
317.178
317.59
318.013
318.426
318.805
319.123
319.355
319.477
319.477
319.355
319.123
318.805
318.426
318.013
317.59
317.178
316.8
316.507
313.986
314.229
314.548
314.896
315.253
315.602
315.922
316.191
316.386
316.489
316.489
316.386
316.191
315.922
315.602
315.253
314.896
314.548
314.229
313.986
311.457
311.652
311.912
312.197
312.489
312.774
313.036
313.255
313.415
313.499
313.499
313.415
313.255
313.036
312.774
312.489
312.197
311.912
311.652
311.457
308.921
309.071
309.272
309.494
309.721
309.942
310.145
310.316
310.44
310.505
310.505
310.44
310.316
310.145
309.942
309.721
309.494
309.272
309.071
308.921
306.379
306.485
306.629
306.787
306.949
307.107
307.252
307.374
307.463
307.509
307.509
307.463
307.374
307.252
307.107
306.949
306.787
306.629
306.485
306.379
303.833
303.897
303.983
304.078
304.175
304.27
304.357
304.43
304.483
304.511
304.511
304.483
304.43
304.357
304.27
304.175
304.078
303.983
303.897
303.833
301.285
301.306
301.335
301.367
301.4
301.432
301.461
301.485
301.503
301.512
301.512
301.503
301.485
301.461
301.432
301.4
301.367
301.335
301.306
301.285
319.227
319.562
319.987
320.446
320.915
321.373
321.792
322.143
322.397
322.531
322.531
322.397
322.143
321.792
321.373
320.915
320.446
319.987
319.562
319.227
316.688
316.971
317.337
317.735
318.141
318.537
318.899
319.203
319.423
319.539
319.539
319.423
319.203
318.899
318.537
318.141
317.735
317.337
316.971
316.688
314.139
314.374
314.682
315.018
315.362
315.696
316.002
316.259
316.445
316.542
316.542
316.445
316.259
316.002
315.696
315.362
315.018
314.682
314.374
314.139
311.582
311.771
312.023
312.297
312.578
312.851
313.101
313.311
313.463
313.542
313.542
313.463
313.311
313.101
312.851
312.578
312.297
312.023
311.771
311.582
309.018
309.163
309.358
309.572
309.79
310.002
310.197
310.359
310.477
310.539
310.539
310.477
310.359
310.197
310.002
309.79
309.572
309.358
309.163
309.018
306.448
306.551
306.69
306.843
306.999
307.15
307.289
307.405
307.489
307.534
307.534
307.489
307.405
307.289
307.15
306.999
306.843
306.69
306.551
306.448
303.875
303.936
304.02
304.111
304.205
304.296
304.379
304.449
304.5
304.526
304.526
304.5
304.449
304.379
304.296
304.205
304.111
304.02
303.936
303.875
301.299
301.32
301.348
301.378
301.41
301.44
301.468
301.492
301.508
301.517
301.517
301.508
301.492
301.468
301.44
301.41
301.378
301.348
301.32
301.299
319.49
319.813
320.22
320.659
321.107
321.541
321.937
322.269
322.508
322.634
322.634
322.508
322.269
321.937
321.541
321.107
320.659
320.22
319.813
319.49
316.916
317.188
317.54
317.92
318.307
318.683
319.026
319.313
319.52
319.629
319.629
319.52
319.313
319.026
318.683
318.307
317.92
317.54
317.188
316.916
314.331
314.558
314.854
315.175
315.503
315.82
316.11
316.352
316.527
316.619
316.619
316.527
316.352
316.11
315.82
315.503
315.175
314.854
314.558
314.331
311.739
311.921
312.163
312.426
312.693
312.953
313.19
313.387
313.53
313.605
313.605
313.53
313.387
313.19
312.953
312.693
312.426
312.163
311.921
311.739
309.14
309.28
309.467
309.672
309.88
310.082
310.266
310.419
310.53
310.588
310.588
310.53
310.419
310.266
310.082
309.88
309.672
309.467
309.28
309.14
306.536
306.635
306.768
306.914
307.063
307.207
307.338
307.448
307.527
307.569
307.569
307.527
307.448
307.338
307.207
307.063
306.914
306.768
306.635
306.536
303.928
303.987
304.067
304.154
304.244
304.33
304.409
304.475
304.522
304.547
304.547
304.522
304.475
304.409
304.33
304.244
304.154
304.067
303.987
303.928
301.317
301.337
301.363
301.393
301.423
301.452
301.478
301.5
301.516
301.524
301.524
301.516
301.5
301.478
301.452
301.423
301.393
301.363
301.337
301.317
319.81
320.118
320.506
320.923
321.346
321.754
322.126
322.436
322.659
322.776
322.776
322.659
322.436
322.126
321.754
321.346
320.923
320.506
320.118
319.81
317.192
317.453
317.788
318.149
318.515
318.868
319.19
319.458
319.651
319.752
319.752
319.651
319.458
319.19
318.868
318.515
318.149
317.788
317.453
317.192
314.565
314.781
315.064
315.369
315.678
315.977
316.249
316.475
316.639
316.724
316.724
316.639
316.475
316.249
315.977
315.678
315.369
315.064
314.781
314.565
311.931
312.105
312.335
312.584
312.837
313.082
313.304
313.489
313.622
313.692
313.692
313.622
313.489
313.304
313.082
312.837
312.584
312.335
312.105
311.931
309.289
309.423
309.601
309.795
309.992
310.182
310.355
310.498
310.602
310.656
310.656
310.602
310.498
310.355
310.182
309.992
309.795
309.601
309.423
309.289
306.642
306.737
306.864
307.002
307.143
307.279
307.402
307.505
307.579
307.617
307.617
307.579
307.505
307.402
307.279
307.143
307.002
306.864
306.737
306.642
303.991
304.048
304.124
304.207
304.292
304.373
304.447
304.509
304.553
304.576
304.576
304.553
304.509
304.447
304.373
304.292
304.207
304.124
304.048
303.991
301.338
301.357
301.383
301.41
301.439
301.466
301.491
301.512
301.526
301.534
301.534
301.526
301.512
301.491
301.466
301.439
301.41
301.383
301.357
301.338
320.187
320.48
320.847
321.24
321.637
322.018
322.364
322.651
322.857
322.965
322.965
322.857
322.651
322.364
322.018
321.637
321.24
320.847
320.48
320.187
317.519
317.766
318.083
318.424
318.767
319.097
319.397
319.645
319.823
319.917
319.917
319.823
319.645
319.397
319.097
318.767
318.424
318.083
317.766
317.519
314.842
315.047
315.314
315.602
315.892
316.171
316.424
316.634
316.785
316.864
316.864
316.785
316.634
316.424
316.171
315.892
315.602
315.314
315.047
314.842
312.156
312.322
312.54
312.775
313.012
313.241
313.447
313.619
313.742
313.806
313.806
313.742
313.619
313.447
313.241
313.012
312.775
312.54
312.322
312.156
309.465
309.592
309.761
309.943
310.128
310.306
310.466
310.6
310.695
310.745
310.745
310.695
310.6
310.466
310.306
310.128
309.943
309.761
309.592
309.465
306.768
306.857
306.978
307.108
307.24
307.367
307.482
307.577
307.646
307.681
307.681
307.646
307.577
307.482
307.367
307.24
307.108
306.978
306.857
306.768
304.067
304.12
304.193
304.271
304.35
304.426
304.495
304.552
304.593
304.615
304.615
304.593
304.552
304.495
304.426
304.35
304.271
304.193
304.12
304.067
301.363
301.381
301.406
301.432
301.458
301.484
301.507
301.526
301.54
301.547
301.547
301.54
301.526
301.507
301.484
301.458
301.432
301.406
301.381
301.363
320.624
320.9
321.246
321.614
321.984
322.337
322.656
322.92
323.109
323.208
323.208
323.109
322.92
322.656
322.337
321.984
321.614
321.246
320.9
320.624
317.897
318.131
318.429
318.748
319.068
319.374
319.65
319.879
320.042
320.128
320.128
320.042
319.879
319.65
319.374
319.068
318.748
318.429
318.131
317.897
315.161
315.355
315.607
315.876
316.147
316.406
316.639
316.832
316.971
317.043
317.043
316.971
316.832
316.639
316.406
316.147
315.876
315.607
315.355
315.161
312.418
312.574
312.779
312.999
313.221
313.433
313.624
313.781
313.894
313.953
313.953
313.894
313.781
313.624
313.433
313.221
312.999
312.779
312.574
312.418
309.668
309.788
309.947
310.118
310.29
310.455
310.604
310.726
310.814
310.86
310.86
310.814
310.726
310.604
310.455
310.29
310.118
309.947
309.788
309.668
306.913
306.998
307.111
307.233
307.356
307.474
307.58
307.668
307.731
307.763
307.763
307.731
307.668
307.58
307.474
307.356
307.233
307.111
306.998
306.913
304.154
304.205
304.273
304.346
304.42
304.491
304.554
304.607
304.645
304.664
304.664
304.645
304.607
304.554
304.491
304.42
304.346
304.273
304.205
304.154
301.393
301.41
301.432
301.457
301.482
301.506
301.527
301.544
301.557
301.564
301.564
301.557
301.544
301.527
301.506
301.482
301.457
301.432
301.41
301.393
321.122
321.382
321.705
322.048
322.39
322.716
323.008
323.249
323.421
323.511
323.511
323.421
323.249
323.008
322.716
322.39
322.048
321.705
321.382
321.122
318.328
318.548
318.827
319.124
319.42
319.703
319.956
320.165
320.314
320.391
320.391
320.314
320.165
319.956
319.703
319.42
319.124
318.827
318.548
318.328
315.526
315.708
315.944
316.195
316.445
316.684
316.898
317.075
317.201
317.266
317.266
317.201
317.075
316.898
316.684
316.445
316.195
315.944
315.708
315.526
312.716
312.863
313.055
313.26
313.465
313.661
313.836
313.98
314.083
314.137
314.137
314.083
313.98
313.836
313.661
313.465
313.26
313.055
312.863
312.716
309.9
310.013
310.162
310.321
310.481
310.633
310.769
310.881
310.961
311.003
311.003
310.961
310.881
310.769
310.633
310.481
310.321
310.162
310.013
309.9
307.079
307.158
307.265
307.378
307.492
307.601
307.698
307.778
307.836
307.865
307.865
307.836
307.778
307.698
307.601
307.492
307.378
307.265
307.158
307.079
304.254
304.301
304.365
304.433
304.502
304.567
304.625
304.673
304.708
304.726
304.726
304.708
304.673
304.625
304.567
304.502
304.433
304.365
304.301
304.254
301.426
301.442
301.463
301.486
301.509
301.531
301.551
301.567
301.578
301.584
301.584
301.578
301.567
301.551
301.531
301.509
301.486
301.463
301.442
301.426
321.683
321.926
322.227
322.544
322.86
323.158
323.425
323.644
323.8
323.881
323.881
323.8
323.644
323.425
323.158
322.86
322.544
322.227
321.926
321.683
318.814
319.02
319.28
319.554
319.828
320.086
320.317
320.507
320.642
320.712
320.712
320.642
320.507
320.317
320.086
319.828
319.554
319.28
319.02
318.814
315.937
316.108
316.327
316.559
316.79
317.009
317.204
317.365
317.479
317.538
317.538
317.479
317.365
317.204
317.009
316.79
316.559
316.327
316.108
315.937
313.053
313.19
313.368
313.558
313.747
313.927
314.086
314.217
314.311
314.359
314.359
314.311
314.217
314.086
313.927
313.747
313.558
313.368
313.19
313.053
310.162
310.267
310.405
310.553
310.7
310.84
310.964
311.066
311.138
311.176
311.176
311.138
311.066
310.964
310.84
310.7
310.553
310.405
310.267
310.162
307.266
307.34
307.439
307.544
307.649
307.749
307.838
307.911
307.962
307.989
307.989
307.962
307.911
307.838
307.749
307.649
307.544
307.439
307.34
307.266
304.366
304.41
304.469
304.533
304.596
304.656
304.709
304.753
304.784
304.8
304.8
304.784
304.753
304.709
304.656
304.596
304.533
304.469
304.41
304.366
301.464
301.479
301.498
301.52
301.541
301.561
301.579
301.593
301.604
301.609
301.609
301.604
301.593
301.579
301.561
301.541
301.52
301.498
301.479
301.464
322.308
322.535
322.814
323.106
323.395
323.668
323.91
324.108
324.248
324.321
324.321
324.248
324.108
323.91
323.668
323.395
323.106
322.814
322.535
322.308
319.356
319.547
319.788
320.042
320.292
320.528
320.738
320.909
321.031
321.094
321.094
321.031
320.909
320.738
320.528
320.292
320.042
319.788
319.547
319.356
316.395
316.554
316.757
316.971
317.183
317.383
317.561
317.705
317.808
317.862
317.862
317.808
317.705
317.561
317.383
317.183
316.971
316.757
316.554
316.395
313.427
313.555
313.721
313.896
314.069
314.233
314.378
314.497
314.581
314.624
314.624
314.581
314.497
314.378
314.233
314.069
313.896
313.721
313.555
313.427
310.453
310.551
310.68
310.816
310.951
311.078
311.191
311.283
311.348
311.382
311.382
311.348
311.283
311.191
311.078
310.951
310.816
310.68
310.551
310.453
307.474
307.543
307.635
307.732
307.829
307.919
308
308.066
308.113
308.137
308.137
308.113
308.066
308
307.919
307.829
307.732
307.635
307.543
307.474
304.491
304.532
304.587
304.646
304.704
304.758
304.807
304.846
304.874
304.889
304.889
304.874
304.846
304.807
304.758
304.704
304.646
304.587
304.532
304.491
301.506
301.519
301.538
301.557
301.577
301.595
301.611
301.625
301.634
301.639
301.639
301.634
301.625
301.611
301.595
301.577
301.557
301.538
301.519
301.506
322.999
323.209
323.467
323.736
324
324.247
324.466
324.644
324.77
324.836
324.836
324.77
324.644
324.466
324.247
324
323.736
323.467
323.209
322.999
319.954
320.132
320.354
320.587
320.816
321.031
321.22
321.375
321.484
321.541
321.541
321.484
321.375
321.22
321.031
320.816
320.587
320.354
320.132
319.954
316.901
317.049
317.236
317.433
317.627
317.808
317.969
318.099
318.192
318.24
318.24
318.192
318.099
317.969
317.808
317.627
317.433
317.236
317.049
316.901
313.841
313.96
314.113
314.274
314.432
314.581
314.712
314.819
314.895
314.934
314.934
314.895
314.819
314.712
314.581
314.432
314.274
314.113
313.96
313.841
310.775
310.866
310.985
311.11
311.233
311.349
311.451
311.534
311.593
311.623
311.623
311.593
311.534
311.451
311.349
311.233
311.11
310.985
310.866
310.775
307.704
307.768
307.853
307.942
308.03
308.113
308.186
308.245
308.287
308.309
308.309
308.287
308.245
308.186
308.113
308.03
307.942
307.853
307.768
307.704
304.629
304.667
304.718
304.772
304.825
304.874
304.918
304.954
304.979
304.992
304.992
304.979
304.954
304.918
304.874
304.825
304.772
304.718
304.667
304.629
301.552
301.565
301.582
301.6
301.618
301.634
301.649
301.661
301.669
301.674
301.674
301.669
301.661
301.649
301.634
301.618
301.6
301.582
301.565
301.552
323.756
323.95
324.188
324.434
324.674
324.899
325.096
325.256
325.369
325.427
325.427
325.369
325.256
325.096
324.899
324.674
324.434
324.188
323.95
323.756
320.61
320.774
320.979
321.192
321.401
321.595
321.766
321.905
322.003
322.053
322.053
322.003
321.905
321.766
321.595
321.401
321.192
320.979
320.774
320.61
317.456
317.592
317.765
317.945
318.121
318.286
318.431
318.548
318.631
318.674
318.674
318.631
318.548
318.431
318.286
318.121
317.945
317.765
317.592
317.456
314.295
314.404
314.545
314.693
314.837
314.972
315.09
315.186
315.254
315.289
315.289
315.254
315.186
315.09
314.972
314.837
314.693
314.545
314.404
314.295
311.128
311.212
311.321
311.436
311.548
311.653
311.745
311.82
311.872
311.9
311.9
311.872
311.82
311.745
311.653
311.548
311.436
311.321
311.212
311.128
307.956
308.015
308.093
308.175
308.255
308.33
308.396
308.45
308.487
308.507
308.507
308.487
308.45
308.396
308.33
308.255
308.175
308.093
308.015
307.956
304.78
304.816
304.863
304.912
304.96
305.005
305.045
305.077
305.099
305.111
305.111
305.099
305.077
305.045
305.005
304.96
304.912
304.863
304.816
304.78
301.603
301.615
301.63
301.647
301.663
301.678
301.691
301.702
301.71
301.713
301.713
301.71
301.702
301.691
301.678
301.663
301.647
301.63
301.615
301.603
324.579
324.758
324.976
325.201
325.419
325.622
325.799
325.943
326.043
326.095
326.095
326.043
325.943
325.799
325.622
325.419
325.201
324.976
324.758
324.579
321.322
321.474
321.662
321.856
322.046
322.222
322.376
322.5
322.587
322.632
322.632
322.587
322.5
322.376
322.222
322.046
321.856
321.662
321.474
321.322
318.058
318.184
318.342
318.507
318.667
318.816
318.946
319.051
319.125
319.164
319.164
319.125
319.051
318.946
318.816
318.667
318.507
318.342
318.184
318.058
314.787
314.888
315.018
315.152
315.284
315.405
315.512
315.598
315.659
315.69
315.69
315.659
315.598
315.512
315.405
315.284
315.152
315.018
314.888
314.787
311.511
311.588
311.688
311.793
311.895
311.99
312.073
312.14
312.187
312.211
312.211
312.187
312.14
312.073
311.99
311.895
311.793
311.688
311.588
311.511
308.229
308.284
308.356
308.431
308.504
308.571
308.631
308.678
308.712
308.729
308.729
308.712
308.678
308.631
308.571
308.504
308.431
308.356
308.284
308.229
304.945
304.977
305.02
305.065
305.109
305.15
305.185
305.214
305.234
305.245
305.245
305.234
305.214
305.185
305.15
305.109
305.065
305.02
304.977
304.945
301.658
301.669
301.683
301.698
301.713
301.726
301.738
301.748
301.755
301.758
301.758
301.755
301.748
301.738
301.726
301.713
301.698
301.683
301.669
301.658
325.464
325.629
325.829
326.033
326.232
326.414
326.574
326.702
326.792
326.838
326.838
326.792
326.702
326.574
326.414
326.232
326.033
325.829
325.629
325.464
322.088
322.227
322.4
322.577
322.749
322.908
323.046
323.157
323.235
323.275
323.275
323.235
323.157
323.046
322.908
322.749
322.577
322.4
322.227
322.088
318.705
318.821
318.966
319.116
319.262
319.396
319.513
319.607
319.673
319.707
319.707
319.673
319.607
319.513
319.396
319.262
319.116
318.966
318.821
318.705
315.316
315.409
315.527
315.65
315.769
315.879
315.975
316.052
316.106
316.134
316.134
316.106
316.052
315.975
315.879
315.769
315.65
315.527
315.409
315.316
311.922
311.993
312.085
312.18
312.273
312.359
312.433
312.493
312.535
312.557
312.557
312.535
312.493
312.433
312.359
312.273
312.18
312.085
311.993
311.922
308.523
308.573
308.639
308.707
308.773
308.834
308.888
308.931
308.961
308.976
308.976
308.961
308.931
308.888
308.834
308.773
308.707
308.639
308.573
308.523
305.121
305.151
305.19
305.231
305.271
305.308
305.34
305.366
305.384
305.393
305.393
305.384
305.366
305.34
305.308
305.271
305.231
305.19
305.151
305.121
301.717
301.727
301.74
301.754
301.767
301.779
301.79
301.799
301.805
301.808
301.808
301.805
301.799
301.79
301.779
301.767
301.754
301.74
301.727
301.717
326.402
326.554
326.736
326.923
327.103
327.268
327.411
327.526
327.606
327.647
327.647
327.606
327.526
327.411
327.268
327.103
326.923
326.736
326.554
326.402
322.898
323.026
323.184
323.346
323.502
323.645
323.769
323.869
323.938
323.974
323.974
323.938
323.869
323.769
323.645
323.502
323.346
323.184
323.026
322.898
319.389
319.495
319.628
319.765
319.897
320.018
320.123
320.207
320.266
320.297
320.297
320.266
320.207
320.123
320.018
319.897
319.765
319.628
319.495
319.389
315.874
315.959
316.068
316.18
316.288
316.387
316.473
316.542
316.59
316.615
316.615
316.59
316.542
316.473
316.387
316.288
316.18
316.068
315.959
315.874
312.354
312.42
312.504
312.591
312.675
312.753
312.82
312.873
312.911
312.93
312.93
312.911
312.873
312.82
312.753
312.675
312.591
312.504
312.42
312.354
308.832
308.878
308.938
309
309.06
309.116
309.164
309.202
309.229
309.243
309.243
309.229
309.202
309.164
309.116
309.06
309
308.938
308.878
308.832
305.306
305.334
305.37
305.407
305.443
305.476
305.505
305.528
305.544
305.553
305.553
305.544
305.528
305.505
305.476
305.443
305.407
305.37
305.334
305.306
301.779
301.788
301.8
301.813
301.825
301.836
301.846
301.853
301.859
301.861
301.861
301.859
301.853
301.846
301.836
301.825
301.813
301.8
301.788
301.779
327.369
327.508
327.676
327.846
328.009
328.158
328.287
328.39
328.462
328.499
328.499
328.462
328.39
328.287
328.158
328.009
327.846
327.676
327.508
327.369
323.729
323.847
323.992
324.139
324.281
324.41
324.522
324.612
324.674
324.706
324.706
324.674
324.612
324.522
324.41
324.281
324.139
323.992
323.847
323.729
320.086
320.184
320.306
320.431
320.551
320.661
320.756
320.831
320.884
320.911
320.911
320.884
320.831
320.756
320.661
320.551
320.431
320.306
320.184
320.086
316.441
316.52
316.619
316.722
316.82
316.91
316.987
317.05
317.093
317.115
317.115
317.093
317.05
316.987
316.91
316.82
316.722
316.619
316.52
316.441
312.794
312.854
312.931
313.011
313.087
313.157
313.218
313.266
313.3
313.317
313.317
313.3
313.266
313.218
313.157
313.087
313.011
312.931
312.854
312.794
309.144
309.187
309.242
309.299
309.354
309.404
309.447
309.481
309.506
309.518
309.518
309.506
309.481
309.447
309.404
309.354
309.299
309.242
309.187
309.144
305.493
305.519
305.552
305.586
305.619
305.649
305.675
305.696
305.71
305.718
305.718
305.71
305.696
305.675
305.649
305.619
305.586
305.552
305.519
305.493
301.841
301.85
301.861
301.873
301.884
301.894
301.902
301.909
301.914
301.917
301.917
301.914
301.909
301.902
301.894
301.884
301.873
301.861
301.85
301.841
328.301
328.43
328.584
328.741
328.89
329.026
329.143
329.236
329.301
329.334
329.334
329.301
329.236
329.143
329.026
328.89
328.741
328.584
328.43
328.301
324.521
324.63
324.763
324.899
325.029
325.147
325.249
325.33
325.386
325.415
325.415
325.386
325.33
325.249
325.147
325.029
324.899
324.763
324.63
324.521
320.744
320.834
320.947
321.062
321.172
321.273
321.359
321.428
321.476
321.5
321.5
321.476
321.428
321.359
321.273
321.172
321.062
320.947
320.834
320.744
316.971
317.044
317.136
317.23
317.32
317.403
317.473
317.53
317.569
317.589
317.589
317.569
317.53
317.473
317.403
317.32
317.23
317.136
317.044
316.971
313.2
313.256
313.328
313.401
313.472
313.536
313.591
313.635
313.666
313.681
313.681
313.666
313.635
313.591
313.536
313.472
313.401
313.328
313.256
313.2
309.432
309.472
309.523
309.575
309.626
309.671
309.711
309.742
309.764
309.776
309.776
309.764
309.742
309.711
309.671
309.626
309.575
309.523
309.472
309.432
305.665
305.689
305.719
305.751
305.781
305.809
305.832
305.851
305.865
305.871
305.871
305.865
305.851
305.832
305.809
305.781
305.751
305.719
305.689
305.665
301.899
301.907
301.917
301.928
301.938
301.947
301.955
301.961
301.966
301.968
301.968
301.966
301.961
301.955
301.947
301.938
301.928
301.917
301.907
301.899
329.034
329.155
329.3
329.447
329.586
329.713
329.822
329.909
329.969
330
330
329.969
329.909
329.822
329.713
329.586
329.447
329.3
329.155
329.034
325.119
325.222
325.348
325.475
325.597
325.708
325.803
325.878
325.931
325.958
325.958
325.931
325.878
325.803
325.708
325.597
325.475
325.348
325.222
325.119
321.226
321.311
321.418
321.526
321.63
321.724
321.805
321.869
321.914
321.937
321.937
321.914
321.869
321.805
321.724
321.63
321.526
321.418
321.311
321.226
317.349
317.418
317.506
317.595
317.68
317.757
317.824
317.876
317.913
317.932
317.932
317.913
317.876
317.824
317.757
317.68
317.595
317.506
317.418
317.349
313.486
313.539
313.607
313.676
313.742
313.803
313.855
313.896
313.925
313.939
313.939
313.925
313.896
313.855
313.803
313.742
313.676
313.607
313.539
313.486
309.631
309.669
309.717
309.767
309.814
309.858
309.895
309.924
309.945
309.956
309.956
309.945
309.924
309.895
309.858
309.814
309.767
309.717
309.669
309.631
305.783
305.805
305.834
305.864
305.893
305.919
305.941
305.959
305.971
305.978
305.978
305.971
305.959
305.941
305.919
305.893
305.864
305.834
305.805
305.783
301.938
301.946
301.955
301.965
301.975
301.984
301.991
301.997
302.001
302.003
302.003
302.001
301.997
301.991
301.984
301.975
301.965
301.955
301.946
301.938
)
;

boundaryField
{
    hotSide
    {
        type            fixedGradient;
        gradient        nonuniform List<scalar> 
400
(
196.747
197.3
198.41
200.084
202.334
205.173
208.615
212.679
217.38
222.738
228.767
235.486
242.906
251.043
259.907
269.509
279.855
290.954
302.81
315.427
201.51
202.026
203.062
204.629
206.74
209.415
212.673
216.535
221.025
226.164
231.974
238.474
245.681
253.611
262.277
271.691
281.861
292.795
304.497
316.972
206.666
207.136
208.084
209.523
211.471
213.953
216.994
220.624
224.869
229.759
235.319
241.573
248.541
256.243
264.693
273.903
283.883
294.64
306.179
318.505
212.127
212.545
213.391
214.681
216.441
218.701
221.496
224.861
228.832
233.444
238.728
244.713
251.423
258.879
267.097
276.092
285.872
296.446
307.818
319.99
217.743
218.102
218.832
219.956
221.506
223.521
226.045
229.121
232.795
237.108
242.098
247.798
254.237
261.438
269.418
278.193
287.772
298.161
309.366
321.387
223.278
223.574
224.181
225.128
226.455
228.212
230.45
233.227
236.593
240.6
245.292
250.706
256.874
263.823
271.57
280.13
289.514
299.727
310.773
322.651
228.415
228.648
229.132
229.903
231.011
232.512
234.473
236.957
240.028
243.742
248.15
253.294
259.21
265.923
273.456
281.821
291.028
301.082
311.984
323.735
232.775
232.951
233.325
233.938
234.848
236.124
237.838
240.065
242.876
246.336
250.499
255.412
261.112
267.628
274.979
283.181
292.241
302.163
312.948
324.595
235.966
236.099
236.388
236.88
237.64
238.744
240.272
242.306
244.923
248.193
252.175
256.918
262.46
268.831
276.052
284.135
293.09
302.918
313.62
325.192
237.657
237.766
238.009
238.436
239.114
240.125
241.552
243.482
245.996
249.164
253.049
257.702
263.16
269.455
276.606
284.628
293.527
303.306
313.964
325.498
237.657
237.766
238.009
238.436
239.114
240.125
241.552
243.482
245.996
249.164
253.049
257.702
263.16
269.455
276.606
284.628
293.527
303.306
313.964
325.498
235.966
236.099
236.388
236.88
237.64
238.744
240.272
242.306
244.923
248.193
252.175
256.918
262.46
268.831
276.052
284.135
293.09
302.918
313.62
325.192
232.775
232.951
233.325
233.938
234.848
236.124
237.838
240.065
242.876
246.336
250.499
255.412
261.112
267.628
274.979
283.181
292.241
302.163
312.948
324.595
228.415
228.648
229.132
229.903
231.011
232.512
234.473
236.957
240.028
243.742
248.15
253.294
259.21
265.923
273.456
281.821
291.028
301.082
311.984
323.735
223.278
223.574
224.181
225.128
226.455
228.212
230.45
233.227
236.593
240.6
245.292
250.706
256.874
263.823
271.57
280.13
289.514
299.727
310.773
322.651
217.743
218.102
218.832
219.956
221.506
223.521
226.045
229.121
232.795
237.108
242.098
247.798
254.237
261.438
269.418
278.193
287.772
298.161
309.366
321.387
212.127
212.545
213.391
214.681
216.441
218.701
221.496
224.861
228.832
233.444
238.728
244.713
251.423
258.879
267.097
276.092
285.872
296.446
307.818
319.99
206.666
207.136
208.084
209.523
211.471
213.953
216.994
220.624
224.869
229.759
235.319
241.573
248.541
256.243
264.693
273.903
283.883
294.64
306.179
318.505
201.51
202.026
203.062
204.629
206.74
209.415
212.673
216.535
221.025
226.164
231.974
238.474
245.681
253.611
262.277
271.691
281.861
292.795
304.497
316.972
196.747
197.3
198.41
200.084
202.334
205.173
208.615
212.679
217.38
222.738
228.767
235.486
242.906
251.043
259.907
269.509
279.855
290.954
302.81
315.427
)
;
    }
    coldSide
    {
        type            mixed;
        refValue        uniform 300;
        refGradient     uniform 0;
        valueFraction   uniform 0.991591;
        source          uniform 0;
        value           nonuniform List<scalar> 
400
(
300.011
300.011
300.011
300.011
300.011
300.011
300.011
300.011
300.012
300.012
300.012
300.013
300.013
300.013
300.014
300.014
300.015
300.015
300.016
300.016
300.011
300.011
300.011
300.011
300.011
300.011
300.011
300.012
300.012
300.012
300.012
300.013
300.013
300.014
300.014
300.015
300.015
300.016
300.016
300.016