/*--------------------------------*- C++ -*----------------------------------*\
| =========                 |                                                 |
| \\      /  F ield         | OpenFOAM: The Open Source CFD Toolbox           |
|  \\    /   O peration     | Version:  2212                                  |
|   \\  /    A nd           | Website:  www.openfoam.com                      |
|    \\/     M anipulation  |                                                 |
\*---------------------------------------------------------------------------*/
FoamFile
{
    version     2.0;
    format      ascii;
    arch        "LSB;label=32;scalar=64";
    class       volScalarField;
    location    "0";
    object      Tdirect;
}
// * * * * * * * * * * * * * * * * * * * * * * * * * * * * * * * * * * * * * //

dimensions      [0 0 0 1 0 0 0];

internalField   nonuniform List<scalar> 
3200
(
342.448
343.473
344.78
346.205
347.673
349.114
350.444
351.566
352.384
352.816
352.816
352.384
351.566
350.444
349.114
347.673
346.205
344.78
343.473
342.448
336.829
337.696
338.824
340.057
341.327
342.573
343.723
344.693
345.399
345.772
345.772
345.399
344.693
343.723
342.573
341.327
340.057
338.824
337.696
336.829
331.194
331.913
332.863
333.905
334.978
336.031
337.002
337.82
338.416
338.731
338.731
338.416
337.82
337.002
336.031
334.978
333.905
332.863
331.913
331.194
325.545
326.124
326.898
327.75
328.627
329.487
330.28
330.949
331.435
331.692
331.692
331.435
330.949
330.28
329.487
328.627
327.75
326.898
326.124
325.545
319.885
320.329
320.93
321.592
322.274
322.942
323.558
324.077
324.455
324.654
324.654
324.455
324.077
323.558
322.942
322.274
321.592
320.93
320.329
319.885
314.216
314.531
314.959
315.432
315.919
316.396
316.836
317.206
317.475
317.618
317.618
317.475
317.206
316.836
316.396
315.919
315.432
314.959
314.531
314.216
308.542
308.73
308.986
309.27
309.562
309.849
310.113
310.335
310.497
310.582
310.582
310.497
310.335
310.113
309.849
309.562
309.27
308.986
308.73
308.542
302.864
302.926
303.012
303.108
303.206
303.302
303.39
303.464
303.519
303.547
303.547
303.519
303.464
303.39
303.302
303.206
303.108
303.012
302.926
302.864
342.543
343.559
344.856
346.267
347.72
349.145
350.46
351.568
352.375
352.802
352.802
352.375
351.568
350.46
349.145
347.72
346.267
344.856
343.559
342.543
336.911
337.771
338.889
340.111
341.368
342.601
343.737
344.695
345.392
345.76
345.76
345.392
344.695
343.737
342.601
341.368
340.111
338.889
337.771
336.911
331.263
331.976
332.918
333.95
335.013
336.054
337.014
337.822
338.41
338.721
338.721
338.41
337.822
337.014
336.054
335.013
333.95
332.918
331.976
331.263
325.601
326.175
326.943
327.787
328.655
329.506
330.29
330.95
331.43
331.684
331.684
331.43
330.95
330.29
329.506
328.655
327.787
326.943
326.175
325.601
319.928
320.369
320.965
321.62
322.296
322.957
323.566
324.078
324.451
324.648
324.648
324.451
324.078
323.566
322.957
322.296
321.62
320.965
320.369
319.928
314.247
314.56
314.984
315.452
315.934
316.406
316.841
317.207
317.473
317.613
317.613
317.473
317.207
316.841
316.406
315.934
315.452
314.984
314.56
314.247
308.56
308.747
309.001
309.282
309.572
309.855
310.116
310.336
310.495
310.58
310.58
310.495
310.336
310.116
309.855
309.572
309.282
309.001
308.747
308.56
302.87
302.932
303.018
303.112
303.209
303.304
303.391
303.465
303.518
303.546
303.546
303.518
303.465
303.391
303.304
303.209
303.112
303.018
302.932
302.87
342.734
343.734
345.008
346.394
347.817
349.211
350.495
351.577
352.363
352.778
352.778
352.363
351.577
350.495
349.211
347.817
346.394
345.008
343.734
342.734
337.075
337.922
339.021
340.22
341.452
342.658
343.768
344.703
345.382
345.741
345.741
345.382
344.703
343.768
342.658
341.452
340.22
339.021
337.922
337.075
331.402
332.104
333.03
334.043
335.084
336.103
337.041
337.83
338.403
338.705
338.705
338.403
337.83
337.041
336.103
335.084
334.043
333.03
332.104
331.402
325.714
326.28
327.035
327.862
328.714
329.546
330.312
330.956
331.424
331.671
331.671
331.424
330.956
330.312
329.546
328.714
327.862
327.035
326.28
325.714
320.016
320.451
321.036
321.679
322.341
322.988
323.583
324.084
324.447
324.639
324.639
324.447
324.084
323.583
322.988
322.341
321.679
321.036
320.451
320.016
314.31
314.617
315.035
315.494
315.967
316.429
316.854
317.211
317.47
317.607
317.607
317.47
317.211
316.854
316.429
315.967
315.494
315.035
314.617
314.31
308.598
308.782
309.032
309.308
309.591
309.869
310.124
310.338
310.494
310.576
310.576
310.494
310.338
310.124
309.869
309.591
309.308
309.032
308.782
308.598
302.883
302.944
303.028
303.12
303.215
303.308
303.394
303.465
303.518
303.545
303.545
303.518
303.465
303.394
303.308
303.215
303.12
303.028
302.944
302.883
343.022
343.999
345.241
346.589
347.97
349.32
350.56
351.603
352.36
352.759
352.759
352.36
351.603
350.56
349.32
347.97
346.589
345.241
343.999
343.022
337.325
338.151
339.223
340.389
341.585
342.753
343.825
344.726
345.38
345.725
345.725
345.38
344.726
343.825
342.753
341.585
340.389
339.223
338.151
337.325
331.612
332.298
333.2
334.186
335.197
336.183
337.089
337.85
338.402
338.693
338.693
338.402
337.85
337.089
336.183
335.197
334.186
333.2
332.298
331.612
325.886
326.438
327.174
327.979
328.806
329.612
330.352
330.973
331.424
331.662
331.662
331.424
330.973
330.352
329.612
328.806
327.979
327.174
326.438
325.886
320.15
320.574
321.144
321.77
322.413
323.039
323.614
324.097
324.447
324.631
324.631
324.447
324.097
323.614
323.039
322.413
321.77
321.144
320.574
320.15
314.405
314.705
315.112
315.559
316.018
316.466
316.876
317.221
317.47
317.602
317.602
317.47
317.221
316.876
316.466
316.018
315.559
315.112
314.705
314.405
308.655
308.834
309.078
309.347
309.622
309.891
310.137
310.344
310.494
310.573
310.573
310.494
310.344
310.137
309.891
309.622
309.347
309.078
308.834
308.655
302.902
302.962
303.043
303.133
303.226
303.316
303.398
303.467
303.518
303.544
303.544
303.518
303.467
303.398
303.316
303.226
303.133
303.043
302.962
302.902
343.411
344.358
345.559
346.859
348.187
349.481
350.666
351.66
352.38
352.759
352.759
352.38
351.66
350.666
349.481
348.187
346.859
345.559
344.358
343.411
337.661
338.462
339.499
340.623
341.773
342.892
343.917
344.777
345.399
345.727
345.727
345.399
344.777
343.917
342.892
341.773
340.623
339.499
338.462
337.661
331.896
332.56
333.434
334.384
335.356
336.302
337.168
337.893
338.419
338.695
338.695
338.419
337.893
337.168
336.302
335.356
334.384
333.434
332.56
331.896
326.118
326.653
327.365
328.141
328.936
329.709
330.417
331.009
331.439
331.664
331.664
331.439
331.009
330.417
329.709
328.936
328.141
327.365
326.653
326.118
320.33
320.741
321.293
321.896
322.514
323.115
323.665
324.125
324.459
324.634
324.634
324.459
324.125
323.665
323.115
322.514
321.896
321.293
320.741
320.33
314.534
314.825
315.218
315.649
316.091
316.52
316.912
317.241
317.479
317.604
317.604
317.479
317.241
316.912
316.52
316.091
315.649
315.218
314.825
314.534
308.732
308.906
309.142
309.401
309.666
309.923
310.159
310.356
310.499
310.574
310.574
310.499
310.356
310.159
309.923
309.666
309.401
309.142
308.906
308.732
302.928
302.986
303.065
303.151
303.24
303.327
303.405
303.472
303.519
303.545
303.545
303.519
303.472
303.405
303.327
303.24
303.151
303.065
302.986
302.928
343.905
344.816
345.97
347.213
348.478
349.706
350.827
351.765
352.443
352.799
352.799
352.443
351.765
350.827
349.706
348.478
347.213
345.97
344.816
343.905
338.088
338.859
339.854
340.929
342.025
343.088
344.058
344.869
345.455
345.763
345.763
345.455
344.869
344.058
343.088
342.025
340.929
339.854
338.859
338.088
332.256
332.896
333.734
334.643
335.569
336.468
337.287
337.972
338.467
338.727
338.727
338.467
337.972
337.287
336.468
335.569
334.643
333.734
332.896
332.256
326.412
326.927
327.61
328.353
329.111
329.845
330.515
331.074
331.479
331.691
331.691
331.479
331.074
330.515
329.845
329.111
328.353
327.61
326.927
326.412
320.558
320.954
321.484
322.061
322.65
323.221
323.742
324.176
324.49
324.655
324.655
324.49
324.176
323.742
323.221
322.65
322.061
321.484
320.954
320.558
314.697
314.977
315.355
315.767
316.188
316.595
316.967
317.277
317.502
317.619
317.619
317.502
317.277
316.967
316.595
316.188
315.767
315.355
314.977
314.697
308.83
308.997
309.224
309.471
309.724
309.969
310.192
310.378
310.513
310.584
310.584
310.513
310.378
310.192
309.969
309.724
309.471
309.224
308.997
308.83
302.96
303.016
303.092
303.175
303.26
303.342
303.417
303.479
303.524
303.548
303.548
303.524
303.479
303.417
303.342
303.26
303.175
303.092
303.016
302.96
344.508
345.379
346.478
347.658
348.854
350.01
351.061
351.937
352.569
352.9
352.9
352.569
351.937
351.061
350.01
348.854
347.658
346.478
345.379
344.508
338.609
339.346
340.294
341.315
342.351
343.351
344.261
345.019
345.565
345.852
345.852
345.565
345.019
344.261
343.351
342.351
341.315
340.294
339.346
338.609
332.696
333.307
334.106
334.969
335.845
336.691
337.459
338.1
338.561
338.803
338.803
338.561
338.1
337.459
336.691
335.845
334.969
334.106
333.307
332.696
326.771
327.263
327.914
328.62
329.336
330.028
330.656
331.179
331.556
331.754
331.754
331.556
331.179
330.656
330.028
329.336
328.62
327.914
327.263
326.771
320.837
321.215
321.72
322.269
322.825
323.363
323.852
324.258
324.551
324.705
324.705
324.551
324.258
323.852
323.363
322.825
322.269
321.72
321.215
320.837
314.896
315.163
315.524
315.915
316.313
316.697
317.046
317.336
317.545
317.655
317.655
317.545
317.336
317.046
316.697
316.313
315.915
315.524
315.163
314.896
308.95
309.109
309.325
309.56
309.799
310.03
310.239
310.414
310.539
310.605
310.605
310.539
310.414
310.239
310.03
309.799
309.56
309.325
309.109
308.95
303
303.054
303.126
303.205
303.285
303.362
303.432
303.491
303.533
303.555
303.555
303.533
303.491
303.432
303.362
303.285
303.205
303.126
303.054
303
345.225
346.052
347.092
348.204
349.326
350.406
351.383
352.194
352.778
353.084
353.084
352.778
352.194
351.383
350.406
349.326
348.204
347.092
346.052
345.225
339.228
339.929
340.826
341.788
342.76
343.695
344.541
345.243
345.748
346.012
346.012
345.748
345.243
344.541
343.695
342.76
341.788
340.826
339.929
339.228
333.218
333.8
334.556
335.369
336.191
336.981
337.696
338.29
338.716
338.939
338.939
338.716
338.29
337.696
336.981
336.191
335.369
334.556
333.8
333.218
327.198
327.666
328.282
328.947
329.619
330.265
330.85
331.335
331.684
331.866
331.866
331.684
331.335
330.85
330.265
329.619
328.947
328.282
327.666
327.198
321.169
321.528
322.006
322.523
323.046
323.548
324.003
324.38
324.65
324.792
324.792
324.65
324.38
324.003
323.548
323.046
322.523
322.006
321.528
321.169
315.133
315.387
315.728
316.097
316.47
316.829
317.154
317.423
317.616
317.718
317.718
317.616
317.423
317.154
316.829
316.47
316.097
315.728
315.387
315.133
309.092
309.243
309.448
309.67
309.894
310.109
310.304
310.466
310.582
310.643
310.643
310.582
310.466
310.304
310.109
309.894
309.67
309.448
309.243
309.092
303.048
303.099
303.167
303.241
303.317
303.389
303.454
303.508
303.547
303.568
303.568
303.547
303.508
303.454
303.389
303.317
303.241
303.167
303.099
303.048
346.06
346.842
347.82
348.861
349.906
350.907
351.809
352.555
353.09
353.37
353.37
353.09
352.555
351.809
350.907
349.906
348.861
347.82
346.842
346.06
339.95
340.612
341.456
342.357
343.263
344.129
344.91
345.556
346.019
346.261
346.261
346.019
345.556
344.91
344.129
343.263
342.357
341.456
340.612
339.95
333.828
334.377
335.088
335.85
336.616
337.349
338.009
338.555
338.946
339.151
339.151
338.946
338.555
338.009
337.349
336.616
335.85
335.088
334.377
333.828
327.696
328.138
328.718
329.34
329.967
330.566
331.106
331.553
331.872
332.039
332.039
331.872
331.553
331.106
330.566
329.967
329.34
328.718
328.138
327.696
321.555
321.895
322.344
322.829
323.316
323.782
324.202
324.549
324.797
324.927
324.927
324.797
324.549
324.202
323.782
323.316
322.829
322.344
321.895
321.555
315.409
315.649
315.97
316.315
316.664
316.997
317.296
317.544
317.722
317.814
317.814
317.722
317.544
317.296
316.997
316.664
316.315
315.97
315.649
315.409
309.258
309.401
309.593
309.801
310.01
310.21
310.39
310.539
310.645
310.701
310.701
310.645
310.539
310.39
310.21
310.01
309.801
309.593
309.401
309.258
303.104
303.151
303.216
303.285
303.356
303.423
303.483
303.533
303.568
303.587
303.587
303.568
303.533
303.483
303.423
303.356
303.285
303.216
303.151
303.104
347.018
347.753
348.668
349.637
350.605
351.528
352.355
353.036
353.523
353.777
353.777
353.523
353.036
352.355
351.528
350.605
349.637
348.668
347.753
347.018
340.778
341.4
342.19
343.029
343.868
344.667
345.383
345.973
346.395
346.615
346.615
346.395
345.973
345.383
344.667
343.868
343.029
342.19
341.4
340.778
334.528
335.043
335.709
336.418
337.128
337.804
338.409
338.908
339.265
339.45
339.45
339.265
338.908
338.409
337.804
337.128
336.418
335.709
335.043
334.528
328.267
328.682
329.225
329.805
330.386
330.938
331.434
331.842
332.133
332.285
332.285
332.133
331.842
331.434
330.938
330.386
329.805
329.225
328.682
328.267
322
322.318
322.739
323.19
323.642
324.071
324.457
324.774
325
325.118
325.118
325
324.774
324.457
324.071
323.642
323.19
322.739
322.318
322
315.726
315.951
316.251
316.574
316.896
317.203
317.478
317.705
317.867
317.951
317.951
317.867
317.705
317.478
317.203
316.896
316.574
316.251
315.951
315.726
309.448
309.582
309.762
309.956
310.15
310.334
310.499
310.635
310.732
310.783
310.783
310.732
310.635
310.499
310.334
310.15
309.956
309.762
309.582
309.448
303.167
303.212
303.273
303.337
303.402
303.464
303.52
303.565
303.598
303.615
303.615
303.598
303.565
303.52
303.464
303.402
303.337
303.273
303.212
303.167
348.104
348.791
349.644
350.541
351.433
352.278
353.033
353.651
354.092
354.322
354.322
354.092
353.651
353.033
352.278
351.433
350.541
349.644
348.791
348.104
341.718
342.299
343.034
343.812
344.585
345.317
345.97
346.506
346.888
347.087
347.087
346.888
346.506
345.97
345.317
344.585
343.812
343.034
342.299
341.718
335.321
335.803
336.423
337.08
337.734
338.353
338.906
339.359
339.682
339.85
339.85
339.682
339.359
338.906
338.353
337.734
337.08
336.423
335.803
335.321
328.915
329.303
329.809
330.346
330.881
331.388
331.84
332.211
332.475
332.612
332.612
332.475
332.211
331.84
331.388
330.881
330.346
329.809
329.303
328.915
322.503
322.801
323.193
323.611
324.027
324.421
324.773
325.061
325.266
325.373
325.373
325.266
325.061
324.773
324.421
324.027
323.611
323.193
322.801
322.503
316.085
316.296
316.576
316.874
317.171
317.453
317.704
317.91
318.057
318.133
318.133
318.057
317.91
317.704
317.453
317.171
316.874
316.576
316.296
316.085
309.664
309.789
309.957
310.136
310.315
310.484
310.635
310.759
310.847
310.892
310.892
310.847
310.759
310.635
310.484
310.315
310.136
309.957
309.789
309.664
303.24
303.282
303.338
303.398
303.458
303.514
303.565
303.606
303.636
303.651
303.651
303.636
303.606
303.565
303.514
303.458
303.398
303.338
303.282
303.24
349.323
349.963
350.753
351.58
352.398
353.169
353.854
354.413
354.811
355.017
355.017
354.811
354.413
353.854
353.169
352.398
351.58
350.753
349.963
349.323
342.772
343.313
343.994
344.711
345.42
346.088
346.682
347.166
347.51
347.689
347.689
347.51
347.166
346.682
346.088
345.42
344.711
343.994
343.313
342.772
336.211
336.66
337.234
337.841
338.44
339.006
339.508
339.918
340.209
340.36
340.36
340.209
339.918
339.508
339.006
338.44
337.841
337.234
336.66
336.211
329.643
330.004
330.472
330.968
331.459
331.921
332.332
332.667
332.905
333.029
333.029
332.905
332.667
332.332
331.921
331.459
330.968
330.472
330.004
329.643
323.068
323.345
323.709
324.094
324.476
324.836
325.155
325.416
325.601
325.697
325.697
325.601
325.416
325.155
324.836
324.476
324.094
323.709
323.345
323.068
316.489
316.685
316.944
317.219
317.492
317.749
317.978
318.164
318.296
318.365
318.365
318.296
318.164
317.978
317.749
317.492
317.219
316.944
316.685
316.489
309.906
310.023
310.178
310.344
310.507
310.662
310.799
310.911
310.99
311.032
311.032
310.99
310.911
310.799
310.662
310.507
310.344
310.178
310.023
309.906
303.321
303.36
303.412
303.467
303.522
303.574
303.62
303.658
303.684
303.698
303.698
303.684
303.658
303.62
303.574
303.522
303.467
303.412
303.36
303.321
350.677
351.271
352
352.76
353.508
354.208
354.827
355.331
355.688
355.873
355.873
355.688
355.331
354.827
354.208
353.508
352.76
352
351.271
350.677
343.943
344.445
345.074
345.733
346.381
346.988
347.525
347.961
348.27
348.43
348.43
348.27
347.961
347.525
346.988
346.381
345.733
345.074
344.445
343.943
337.2
337.617
338.147
338.704
339.252
339.766
340.22
340.59
340.851
340.987
340.987
340.851
340.59
340.22
339.766
339.252
338.704
338.147
337.617
337.2
330.451
330.786
331.219
331.674
332.123
332.543
332.915
333.217
333.431
333.542
333.542
333.431
333.217
332.915
332.543
332.123
331.674
331.219
330.786
330.451
323.696
323.953
324.289
324.643
324.992
325.319
325.608
325.844
326.01
326.096
326.096
326.01
325.844
325.608
325.319
324.992
324.643
324.289
323.953
323.696
316.937
317.119
317.358
317.611
317.861
318.095
318.301
318.469
318.588
318.65
318.65
318.588
318.469
318.301
318.095
317.861
317.611
317.358
317.119
316.937
310.175
310.284
310.427
310.579
310.729
310.869
310.993
311.094
311.166
311.203
311.203
311.166
311.094
310.993
310.869
310.729
310.579
310.427
310.284
310.175
303.411
303.447
303.495
303.546
303.596
303.644
303.685
303.719
303.743
303.755
303.755
303.743
303.719
303.685
303.644
303.596
303.546
303.495
303.447
303.411
352.17
352.719
353.39
354.086
354.767
355.401
355.959
356.412
356.731
356.896
356.896
356.731
356.412
355.959
355.401
354.767
354.086
353.39
352.719
352.17
345.234
345.698
346.277
346.88
347.47
348.02
348.504
348.896
349.173
349.316
349.316
349.173
348.896
348.504
348.02
347.47
346.88
346.277
345.698
345.234
338.291
338.676
339.164
339.674
340.173
340.639
341.048
341.38
341.614
341.735
341.735
341.614
341.38
341.048
340.639
340.173
339.674
339.164
338.676
338.291
331.342
331.652
332.05
332.467
332.876
333.257
333.592
333.863
334.055
334.154
334.154
334.055
333.863
333.592
333.257
332.876
332.467
332.05
331.652
331.342
324.388
324.626
324.935
325.259
325.577
325.874
326.135
326.346
326.495
326.572
326.572
326.495
326.346
326.135
325.874
325.577
325.259
324.935
324.626
324.388
317.431
317.599
317.82
318.052
318.279
318.491
318.677
318.828
318.935
318.99
318.99
318.935
318.828
318.677
318.491
318.279
318.052
317.82
317.599
317.431
310.472
310.572
310.704
310.843
310.98
311.107
311.219
311.31
311.374
311.407
311.407
311.374
311.31
311.219
311.107
310.98
310.843
310.704
310.572
310.472
303.51
303.544
303.588
303.635
303.681
303.723
303.761
303.791
303.813
303.824
303.824
303.813
303.791
303.761
303.723
303.681
303.635
303.588
303.544
303.51
353.8
354.306
354.923
355.558
356.177
356.75
357.252
357.657
357.943
358.09
358.09
357.943
357.657
357.252
356.75
356.177
355.558
354.923
354.306
353.8
346.643
347.072
347.604
348.154
348.69
349.187
349.623
349.974
350.221
350.349
350.349
350.221
349.974
349.623
349.187
348.69
348.154
347.604
347.072
346.643
339.481
339.836
340.285
340.75
341.204
341.625
341.994
342.291
342.5
342.608
342.608
342.5
342.291
341.994
341.625
341.204
340.75
340.285
339.836
339.481
332.314
332.6
332.966
333.347
333.718
334.063
334.364
334.608
334.779
334.867
334.867
334.779
334.608
334.364
334.063
333.718
333.347
332.966
332.6
332.314
325.144
325.363
325.647
325.943
326.232
326.5
326.735
326.924
327.058
327.126
327.126
327.058
326.924
326.735
326.5
326.232
325.943
325.647
325.363
325.144
317.971
318.126
318.328
318.54
318.746
318.938
319.106
319.241
319.336
319.385
319.385
319.336
319.241
319.106
318.938
318.746
318.54
318.328
318.126
317.971
310.795
310.888
311.009
311.136
311.26
311.376
311.476
311.558
311.615
311.644
311.644
311.615
311.558
311.476
311.376
311.26
311.136
311.009
310.888
310.795
303.619
303.65
303.69
303.733
303.775
303.813
303.847
303.874
303.893
303.903
303.903
303.893
303.874
303.847
303.813
303.775
303.733
303.69
303.65
303.619
355.563
356.029
356.594
357.174
357.734
358.252
358.703
359.065
359.32
359.451
359.451
359.32
359.065
358.703
358.252
357.734
357.174
356.594
356.029
355.563
348.167
348.561
349.048
349.551
350.037
350.485
350.877
351.191
351.412
351.526
351.526
351.412
351.191
350.877
350.485
350.037
349.551
349.048
348.561
348.167
340.767
341.094
341.505
341.929
342.341
342.721
343.052
343.318
343.505
343.601
343.601
343.505
343.318
343.052
342.721
342.341
341.929
341.505
341.094
340.767
333.364
333.627
333.962
334.31
334.647
334.958
335.229
335.447
335.6
335.678
335.678
335.6
335.447
335.229
334.958
334.647
334.31
333.962
333.627
333.364
325.959
326.161
326.421
326.691
326.953
327.195
327.406
327.576
327.695
327.756
327.756
327.695
327.576
327.406
327.195
326.953
326.691
326.421
326.161
325.959
318.552
318.695
318.88
319.074
319.261
319.434
319.585
319.706
319.791
319.835
319.835
319.791
319.706
319.585
319.434
319.261
319.074
318.88
318.695
318.552
311.144
311.23
311.341
311.457
311.569
311.673
311.764
311.837
311.888
311.914
311.914
311.888
311.837
311.764
311.673
311.569
311.457
311.341
311.23
311.144
303.736
303.764
303.802
303.84
303.878
303.913
303.943
303.968
303.985
303.994
303.994
303.985
303.968
303.943
303.913
303.878
303.84
303.802
303.764
303.736
357.441
357.87
358.387
358.915
359.423
359.889
360.295
360.619
360.846
360.963
360.963
360.846
360.619
360.295
359.889
359.423
358.915
358.387
357.87
357.441
349.787
350.149
350.595
351.053
351.494
351.898
352.25
352.532
352.729
352.83
352.83
352.729
352.532
352.25
351.898
351.494
351.053
350.595
350.149
349.787
342.132
342.432
342.808
343.195
343.569
343.912
344.209
344.448
344.615
344.701
344.701
344.615
344.448
344.209
343.912
343.569
343.195
342.808
342.432
342.132
334.477
334.718
335.025
335.342
335.648
335.929
336.172
336.368
336.504
336.575
336.575
336.504
336.368
336.172
335.929
335.648
335.342
335.025
334.718
334.477
326.822
327.008
327.246
327.492
327.73
327.949
328.138
328.29
328.397
328.451
328.451
328.397
328.29
328.138
327.949
327.73
327.492
327.246
327.008
326.822
319.168
319.299
319.469
319.645
319.815
319.971
320.107
320.215
320.291
320.331
320.331
320.291
320.215
320.107
319.971
319.815
319.645
319.469
319.299
319.168
311.513
311.592
311.694
311.799
311.902
311.995
312.077
312.142
312.188
312.211
312.211
312.188
312.142
312.077
311.995
311.902
311.799
311.694
311.592
311.513
303.859
303.886
303.92
303.955
303.989
304.021
304.048
304.07
304.085
304.093
304.093
304.085
304.07
304.048
304.021
303.989
303.955
303.92
303.886
303.859
359.385
359.779
360.253
360.735
361.196
361.618
361.983
362.274
362.477
362.582
362.582
362.477
362.274
361.983
361.618
361.196
360.735
360.253
359.779
359.385
351.456
351.789
352.198
352.616
353.016
353.383
353.699
353.952
354.129
354.219
354.219
354.129
353.952
353.699
353.383
353.016
352.616
352.198
351.789
351.456
343.532
343.809
344.154
344.507
344.847
345.157
345.425
345.64
345.789
345.866
345.866
345.789
345.64
345.425
345.157
344.847
344.507
344.154
343.809
343.532
335.614
335.837
336.118
336.408
336.686
336.94
337.16
337.336
337.458
337.521
337.521
337.458
337.336
337.16
336.94
336.686
336.408
336.118
335.837
335.614
327.702
327.873
328.091
328.316
328.533
328.731
328.902
329.039
329.134
329.183
329.183
329.134
329.039
328.902
328.731
328.533
328.316
328.091
327.873
327.702
319.793
319.914
320.07
320.231
320.386
320.528
320.65
320.748
320.816
320.851
320.851
320.816
320.748
320.65
320.528
320.386
320.231
320.07
319.914
319.793
311.888
311.96
312.054
312.15
312.243
312.329
312.402
312.461
312.502
312.523
312.523
312.502
312.461
312.402
312.329
312.243
312.15
312.054
311.96
311.888
303.985
304.009
304.04
304.073
304.104
304.132
304.157
304.177
304.191
304.198
304.198
304.191
304.177
304.157
304.132
304.104
304.073
304.04
304.009
303.985
361.269
361.633
362.07
362.512
362.935
363.319
363.65
363.914
364.098
364.192
364.192
364.098
363.914
363.65
363.319
362.935
362.512
362.07
361.633
361.269
353.053
353.362
353.739
354.124
354.49
354.825
355.113
355.342
355.502
355.583
355.583
355.502
355.342
355.113
354.825
354.49
354.124
353.739
353.362
353.053
344.858
345.114
345.433
345.759
346.07
346.354
346.598
346.792
346.928
346.997
346.997
346.928
346.792
346.598
346.354
346.07
345.759
345.433
345.114
344.858
336.681
336.888
337.148
337.415
337.67
337.903
338.103
338.263
338.374
338.431
338.431
338.374
338.263
338.103
337.903
337.67
337.415
337.148
336.888
336.681
328.521
328.679
328.881
329.089
329.288
329.469
329.626
329.75
329.837
329.881
329.881
329.837
329.75
329.626
329.469
329.288
329.089
328.881
328.679
328.521
320.372
320.485
320.629
320.778
320.92
321.05
321.162
321.251
321.313
321.344
321.344
321.313
321.251
321.162
321.05
320.92
320.778
320.629
320.485
320.372
312.234
312.301
312.387
312.477
312.562
312.64
312.707
312.761
312.798
312.817
312.817
312.798
312.761
312.707
312.64
312.562
312.477
312.387
312.301
312.234
304.1
304.123
304.152
304.182
304.21
304.236
304.259
304.277
304.289
304.296
304.296
304.289
304.277
304.259
304.236
304.21
304.182
304.152
304.123
304.1
362.756
363.098
363.509
363.924
364.319
364.678
364.986
365.231
365.401
365.488
365.488
365.401
365.231
364.986
364.678
364.319
363.924
363.509
363.098
362.756
354.266
354.557
354.913
355.275
355.619
355.932
356.201
356.414
356.563
356.639
356.639
356.563
356.414
356.201
355.932
355.619
355.275
354.913
354.557
354.266
345.833
346.075
346.377
346.684
346.977
347.243
347.472
347.654
347.78
347.845
347.845
347.78
347.654
347.472
347.243
346.977
346.684
346.377
346.075
345.833
337.447
337.642
337.889
338.141
338.382
338.601
338.789
338.938
339.042
339.095
339.095
339.042
338.938
338.789
338.601
338.382
338.141
337.889
337.642
337.447
329.097
329.247
329.439
329.636
329.824
329.994
330.141
330.258
330.339
330.381
330.381
330.339
330.258
330.141
329.994
329.824
329.636
329.439
329.247
329.097
320.774
320.881
321.018
321.159
321.293
321.416
321.521
321.605
321.663
321.692
321.692
321.663
321.605
321.521
321.416
321.293
321.159
321.018
320.881
320.774
312.471
312.535
312.617
312.702
312.783
312.856
312.92
312.97
313.005
313.023
313.023
313.005
312.97
312.92
312.856
312.783
312.702
312.617
312.535
312.471
304.179
304.2
304.228
304.257
304.284
304.308
304.33
304.346
304.358
304.364
304.364
304.358
304.346
304.33
304.308
304.284
304.257
304.228
304.2
304.179
)
;

boundaryField
{
    hotSide
    {
        type            fixedGradient;
        gradient        nonuniform List<scalar> 
400
(
448.034
449.078
451.176
454.351
458.633
464.058
470.672
478.522
487.656
498.124
509.973
523.249
537.993
554.241
572.025
591.375
612.311
634.855
659.02
684.818
461.511
462.449
464.338
467.208
471.098
476.06
482.151
489.432
497.967
507.818
519.045
531.703
545.842
561.505
578.73
597.549
617.986
640.063
663.793
689.189
476.097
476.907
478.547
481.054
484.483
488.899
494.378
500.999
508.843
517.988
528.509
540.471
553.935
568.952
585.564
603.806
623.705
645.283
668.553
693.526
491.549
492.211
493.561
495.648
498.544
502.334
507.115
512.988
520.056
528.415
538.155
549.356
562.088
576.409
592.367
609.999
629.334
650.393
673.188
697.728
507.436
507.931
508.955
510.572
512.874
515.97
519.983
525.04
531.266
538.779
547.687
558.084
570.049
583.649
598.934
615.944
634.709
655.247
677.569
701.681
523.096
523.412
524.087
525.204
526.876
529.24
532.449
536.656
542.013
548.661
556.724
566.311
577.511
590.396
605.021
621.426
639.639
659.677
681.549
705.257
537.63
537.768
538.097
538.716
539.764
541.408
543.829
547.211
551.73
557.549
564.81
573.634
584.118
596.34
610.357
626.208
643.921
663.509
684.977
708.324
549.967
549.944
549.959
550.131
550.622
551.625
553.349
556.003
559.789
564.888
571.456
579.625
589.5
601.161
614.667
630.056
647.352
666.568
687.705
710.757
558.994
558.848
558.624
558.455
558.522
559.038
560.235
562.343
565.581
570.143
576.199
583.886
593.315
604.567
617.701
632.756
649.754
668.703
689.604
712.446
563.778
563.564
563.21
562.856
562.692
562.945
563.857
565.671
568.614
572.89
578.672
586.103
595.295
606.331
619.27
634.15
650.991
669.802
690.579
713.312
563.778
563.564
563.21
562.856
562.692
562.945
563.857
565.671
568.614
572.89
578.672
586.103
595.295
606.331
619.27
634.15
650.991
669.802
690.579
713.312
558.994
558.848
558.624
558.455
558.522
559.038
560.235
562.343
565.581
570.143
576.199
583.886
593.315
604.567
617.701
632.756
649.754
668.703
689.604
712.446
549.967
549.944
549.959
550.131
550.622
551.625
553.349
556.003
559.789
564.888
571.456
579.625
589.5
601.161
614.667
630.056
647.352
666.568
687.705
710.757
537.63
537.768
538.097
538.716
539.764
541.408
543.829
547.211
551.73
557.549
564.81
573.634
584.118
596.34
610.357
626.208
643.921
663.509
684.977
708.324
523.096
523.412
524.087
525.204
526.876
529.24
532.449
536.656
542.013
548.661
556.724
566.311
577.511
590.396
605.021
621.426
639.639
659.677
681.549
705.257
507.436
507.931
508.955
510.572
512.874
515.97
519.983
525.04
531.266
538.779
547.687
558.084
570.049
583.649
598.934
615.944
634.709
655.247
677.569
701.681
491.549
492.211
493.561
495.648
498.544
502.334
507.115
512.988
520.056
528.415
538.155
549.356
562.088
576.409
592.367
609.999
629.334
650.393
673.188
697.728
476.097
476.907
478.547
481.054
484.483
488.899
494.378
500.999
508.843
517.988
528.509
540.471
553.935
568.952
585.564
603.806
623.705
645.283
668.553
693.526
461.511
462.449
464.338
467.208
471.098
476.06
482.151
489.432
497.967
507.818
519.045
531.703
545.842
561.505
578.73
597.549
617.986
640.063
663.793
689.189
448.034
449.078
451.176
454.351
458.633
464.058
470.672
478.522
487.656
498.124
509.973
523.249
537.993
554.241
572.025
591.375
612.311
634.855
659.02
684.818
)
;
    }
    coldSide
    {
        type            mixed;
        refValue        uniform 300;
        refGradient     uniform 0;
        valueFraction   uniform 0.991591;
        source          uniform 0;
        value           nonuniform List<scalar> 
400
(
300.024
300.024
300.024
300.024
300.025
300.025
300.025
300.026
300.026
300.027
300.027
300.028
300.029
300.03
300.03
300.031
300.032
300.034
300.034
300.035
300.025
300.025
300.025
300.025
300.025
300.025
300.026
300.026
300.027
300.027
300.028
300.028
300.029
300.03
300.031
300.032
300.033
300.034
300.035
300.035
300.025