/*--------------------------------*- C++ -*----------------------------------*\
| =========                 |                                                 |
| \\      /  F ield         | OpenFOAM: The Open Source CFD Toolbox           |
|  \\    /   O peration     | Version:  2212                                  |
|   \\  /    A nd           | Website:  www.openfoam.com                      |
|    \\/     M anipulation  |                                                 |
\*---------------------------------------------------------------------------*/
FoamFile
{
    version     2.0;
    format      ascii;
    arch        "LSB;label=32;scalar=64";
    class       volScalarField;
    location    "./ITHACAoutput/true/3.2";
    object      error;
}
// * * * * * * * * * * * * * * * * * * * * * * * * * * * * * * * * * * * * * //

dimensions      [0 0 0 1 0 0 0];

internalField   nonuniform List<scalar> 
3200
(
0.835235
0.848362
1.02399
1.27503
1.92472
2.54491
3.22866
3.87763
4.35645
4.67917
4.69587
4.59056
4.21838
3.73534
3.15305
2.65595
2.27133
1.88005
1.85436
1.926
0.668642
0.658511
0.880807
1.2179
1.64723
2.16084
2.77905
3.22159
3.70465
3.92828
4.11036
3.8333
3.56305
3.13453
2.6734
2.25936
1.85067
1.68145
1.53668
1.61739
0.525918
0.568911
0.677071
0.940684
1.35512
1.80539
2.30728
2.75207
3.12336
3.42336
3.39853
3.29356
3.01535
2.57845
2.23933
1.84431
1.59484
1.36439
1.3447
1.29801
0.44447
0.41422
0.502389
0.691713
0.999134
1.45332
1.81274
2.19982
2.51446
2.65337
2.69646
2.62899
2.38812
2.09857
1.88707
1.51042
1.23137
1.08574
1.03388
1.02025
0.324104
0.340978
0.388405
0.526384
0.819191
1.07977
1.42354
1.75152
1.9634
2.09142
2.09762
2.00999
1.89868
1.55362
1.39289
1.12991
0.939709
0.907604
0.768734
0.780609
0.217809
0.22077
0.300414
0.37353
0.509506
0.834479
1.06104
1.26538
1.39847
1.42414
1.53107
1.46093
1.30248
1.20651
1.00363
0.772126
0.728968
0.606998
0.579117
0.550206
0.122124
0.181103
0.204965
0.264609
0.242638
0.53083
0.617459
0.721234
0.814734
0.900656
0.928958
0.844125
0.825604
0.683545
0.615844
0.482076
0.433924
0.325093
0.31658
0.394998
0.0107821
0.0209589
0.0838832
0.0617005
0.13501
0.13377
0.207678
0.234847
0.224223
0.291317
0.298662
0.282905
0.222314
0.27521
0.227843
0.121726
0.160527
0.220845
0.107019
0.0533665
0.124489
0.0966816
0.25674
0.561001
1.12792
1.72819
2.33866
2.97647
3.53794
3.81963
3.88268
3.67059
3.41081
2.94114
2.37875
1.87309
1.43498
1.23948
1.17671
1.24933
0.0834009
0.0800196
0.294736
0.525073
0.979933
1.41676
2.03101
2.58996
3.04319
3.23785
3.28711
3.1597
2.86448
2.46399
2.00557
1.59625
1.24017
1.07568
1.0298
1.0778
0.129947
0.0670519
0.228553
0.450705
0.824556
1.21765
1.72525
2.13512
2.50135
2.72297
2.84677
2.64475
2.38841
2.07016
1.70367
1.32741
1.0728
1.01836
0.846659
0.894873
0.0933645
0.0484669
0.169212
0.35512
0.676852
1.01391
1.36157
1.79622
2.10233
2.21038
2.28237
2.25479
2.01752
1.70413
1.39791
1.09093
0.863416
0.698545
0.728309
0.690503
0.0514634
0.0163771
0.157518
0.252068
0.499634
0.82427
1.0555
1.36346
1.58917
1.68243
1.73172
1.64945
1.58972
1.32081
1.03772
0.832164
0.713732
0.594306
0.598902
0.542892
0.0716678
0.0232204
0.0700311
0.218818
0.396305
0.564974
0.769507
0.965669
1.15093
1.27399
1.33743
1.20738
1.03624
0.928917
0.829036
0.584765
0.508191
0.400704
0.399632
0.433266
0.0488493
-0.0113284
0.0666348
0.145318
0.205001
0.300746
0.435843
0.66499
0.723324
0.774028
0.755867
0.736438
0.639439
0.556177
0.389952
0.380312
0.297416
0.200696
0.218914
0.2089
0.085579
0.00488884
-0.0125159
0.0963164
0.0856846
0.10599
0.210742
0.181717
0.144051
0.306015
0.186797
0.268531
0.192347
0.172035
0.0898142
0.119935
0.0120889
0.141827
0.0796325
0.0227186
-0.651011
-0.781015
-0.580232
-0.296088
0.179958
0.712964
1.3044
1.92322
2.37916
2.65652
2.74193
2.54173
2.29394
1.71794
1.37545
0.822949
0.594316
0.431189
0.356199
0.45973
-0.544022
-0.616125
-0.613995
-0.280333
0.112143
0.634383
1.07722
1.6703
2.05451
2.28683
2.34886
2.26545
1.934
1.57301
1.20877
0.801344
0.502606
0.389254
0.285384
0.373803
-0.447281
-0.467528
-0.359643
-0.244341
0.155773
0.529922
0.970275
1.42087
1.76643
1.90862
2.04732
1.93554
1.63357
1.32945
1.04363
0.682843
0.428257
0.319942
0.255185
0.330691
-0.359622
-0.411137
-0.314717
-0.151936
0.0387573
0.417588
0.860035
1.16686
1.47938
1.6113
1.66428
1.61423
1.38409
1.11645
0.894606
0.56818
0.332674
0.18351
0.23226
0.270586
-0.311254
-0.371101
-0.258163
-0.137305
0.0553
0.361303
0.604253
0.904686
0.993433
1.24623
1.29873
1.312
1.04873
0.900825
0.682335
0.475928
0.30244
0.270156
0.236929
0.215799
-0.187444
-0.221299
-0.178967
-0.0939013
0.0754457
0.281935
0.450806
0.613591
0.814599
0.814495
0.900247
0.918888
0.759929
0.620404
0.432377
0.348872
0.17446
0.105937
0.196517
0.184029
-0.129231
-0.0897074
-0.0502813
-0.0663845
0.00155623
0.133406
0.247246
0.357688
0.422473
0.57527
0.554902
0.487692
0.533117
0.358204
0.264142
0.183647
0.150776
0.0684545
0.047931
0.0961481
-0.0546465
-0.0709972
-0.0113824
0.0178427
-0.00508795
0.0081968
0.0892946
0.0991374
0.140698
0.136641
0.127463
0.158693
0.125994
0.14442
0.0970983
0.0538568
0.0660423
0.0112744
0.0799453
0.0633286
-1.44257
-1.52576
-1.48904
-1.2108
-0.820153
-0.332744
0.209197
0.79952
1.14665
1.53099
1.53065
1.43985
1.13791
0.755474
0.362719
0.0392848
-0.298771
-0.406119
-0.429117
-0.193626
-1.25609
-1.32403
-1.29039
-1.07686
-0.67264
-0.26634
0.253843
0.699266
1.04511
1.26774
1.34477
1.27252
0.957838
0.599759
0.262198
0.0664205
-0.272791
-0.386262
-0.35938
-0.241345
-1.01686
-1.10561
-1.11104
-0.870743
-0.601353
-0.223666
0.206514
0.628904
0.911762
1.15171
1.15971
1.06174
0.894836
0.592202
0.205149
-0.014677
-0.239529
-0.283893
-0.287757
-0.198484
-0.856878
-0.88319
-0.813874
-0.718797
-0.409518
-0.14526
0.170889
0.536535
0.742918
0.918907
0.956619
0.854957
0.712725
0.486403
0.183054
0.0586468
-0.177591
-0.235898
-0.248571
-0.103336
-0.658638
-0.677536
-0.6225
-0.595104
-0.450758
-0.124177
0.14204
0.376973
0.620438
0.761445
0.724193
0.675584
0.551478
0.338114
0.118662
0.000351184
-0.0863257
-0.207184
-0.173566
-0.122131
-0.531517
-0.520777
-0.465469
-0.362058
-0.263647
-0.101926
0.110232
0.302487
0.399924
0.550296
0.485629
0.490565
0.406566
0.291167
0.0470694
0.0241122
-0.0483119
-0.113095
-0.15005
-0.0245716
-0.285124
-0.241919
-0.24234
-0.234096
-0.159688
-0.00514136
0.097947
0.205102
0.276337
0.349727
0.277569
0.274522
0.285104
0.216154
0.0369965
0.0357806
-0.00653482
-0.0733942
-0.0945034
-0.0644642
-0.0914331
-0.060883
-0.0637963
-0.152496
-0.0901948
-0.00522728
-0.00403277
0.0433233
0.0668381
0.114528
0.120723
0.133818
0.0156372
0.029688
-0.00220135
0.0170633
0.0623887
-0.00908437
-0.00501164
0.0505999
-2.104
-2.14617
-2.12921
-2.01254
-1.74828
-1.27358
-0.887814
-0.2528
0.0645263
0.363231
0.357325
0.25582
0.0881958
-0.227408
-0.537942
-0.910972
-1.16325
-1.23821
-1.10101
-0.892857
-1.74082
-1.89763
-1.89069
-1.74642
-1.41754
-1.16957
-0.656376
-0.25442
0.0887203
0.278764
0.410634
0.298879
0.120922
-0.219617
-0.447134
-0.746329
-0.99479
-1.01922
-0.992554
-0.735794
-1.54088
-1.57623
-1.61391
-1.46632
-1.24783
-0.883361
-0.568397
-0.225583
0.119956
0.305745
0.351409
0.279803
0.0570465
-0.175777
-0.365567
-0.572919
-0.720048
-0.817508
-0.7728
-0.586266
-1.1604
-1.22694
-1.3091
-1.13294
-1.02587
-0.709356
-0.491292
-0.213478
0.0331549
0.220155
0.31693
0.233815
0.0940574
-0.121747
-0.261366
-0.449087
-0.640578
-0.659733
-0.623265
-0.483599
-0.945299
-0.979649
-0.97568
-0.936712
-0.777733
-0.569276
-0.368309
-0.148729
0.104556
0.230293
0.264566
0.159734
0.051932
-0.0618963
-0.196627
-0.338498
-0.447848
-0.51359
-0.500167
-0.394527
-0.651366
-0.707728
-0.675534
-0.669016
-0.505156
-0.415321
-0.24067
-0.0907747
0.057169
0.157834
0.133933
0.142677
0.0240321
-0.0567853
-0.176925
-0.272008
-0.43358
-0.347889
-0.394195
-0.239933
-0.340668
-0.402849
-0.476855
-0.344133
-0.322788
-0.242162
-0.13959
-0.0810937
0.00172449
0.100862
0.0148713
0.0117291
0.0568566
-0.00602565
-0.152622
-0.0922998
-0.225667
-0.233801
-0.151879
-0.104792
-0.121988
-0.136483
-0.170851
-0.201292
-0.137464
-0.12806
-0.0209138
-0.02304
-0.00183499
0.0375726
0.0218588
-0.0408133
-0.00266172
0.0143642
-0.0567402
-0.0407814
-0.0605199
-0.0658463
-0.00250287
-0.0353874
-2.50189
-2.68436
-2.82115
-2.68684
-2.48823
-2.07444
-1.71865
-1.24984
-0.865152
-0.63832
-0.587436
-0.61422
-0.843573
-1.17209
-1.32328
-1.67292
-1.77709
-1.74424
-1.60705
-1.25272
-2.13031
-2.27906
-2.45355
-2.30452
-2.10123
-1.79427
-1.41119
-0.992057
-0.789416
-0.518974
-0.442653
-0.53222
-0.676539
-0.933146
-1.21885
-1.31037
-1.55617
-1.50636
-1.31024
-1.12534
-1.75304
-1.96936
-2.00343
-1.90443
-1.71288
-1.57294
-1.16838
-0.923821
-0.594545
-0.433946
-0.334562
-0.430828
-0.639575
-0.833113
-1.02899
-1.15559
-1.24258
-1.27649
-1.10974
-0.982529
-1.51547
-1.56314
-1.60592
-1.60088
-1.41407
-1.24942
-0.925197
-0.750545
-0.516182
-0.362619
-0.315222
-0.319937
-0.492397
-0.646704
-0.812601
-0.944574
-1.04472
-1.01846
-0.927934
-0.716374
-1.17681
-1.24382
-1.22626
-1.25604
-1.14395
-0.869449
-0.754554
-0.536338
-0.443664
-0.163658
-0.178167
-0.327169
-0.401751
-0.5122
-0.606702
-0.767014
-0.799236
-0.789032
-0.651467
-0.544479
-0.751776
-0.869095
-0.917553
-0.877767
-0.753385
-0.713203
-0.529156
-0.360065
-0.180545
-0.216957
-0.0792111
-0.239492
-0.232175
-0.310574
-0.467468
-0.516165
-0.546814
-0.598694
-0.501198
-0.494195
-0.492776
-0.531783
-0.5592
-0.499052
-0.496485
-0.398093
-0.379065
-0.292603
-0.218652
-0.149543
-0.0315097
-0.108413
-0.150495
-0.255896
-0.26725
-0.318812
-0.367366
-0.314161
-0.292648
-0.269073
-0.1984
-0.162912
-0.148698
-0.164209
-0.146058
-0.130865
-0.114068
-0.108953
-0.0557889
-0.0363173
-0.0648655
0.0084006
-0.0570445
-0.0873075
0.00111058
-0.131328
-0.108843
-0.0550238
-0.09327
-0.103052
-2.87022
-3.12429
-3.28856
-3.26372
-3.03287
-2.71468
-2.33527
-2.0687
-1.76061
-1.54714
-1.45937
-1.47522
-1.62655
-1.85212
-2.07245
-2.18443
-2.22367
-2.09933
-1.80437
-1.58563
-2.44841
-2.59453
-2.7722
-2.73781
-2.65493
-2.37213
-2.03643
-1.70203
-1.5221
-1.37711
-1.21484
-1.2703
-1.47017
-1.57722
-1.71634
-1.84278
-1.84511
-1.83189
-1.62718
-1.28622
-2.05977
-2.22043
-2.34272
-2.34457
-2.17616
-1.99458
-1.79221
-1.42453
-1.25993
-1.12586
-1.00315
-1.09475
-1.18747
-1.32625
-1.44838
-1.57308
-1.58473
-1.46185
-1.36094
-1.11656
-1.65287
-1.83762
-1.91288
-1.89532
-1.78311
-1.65768
-1.40231
-1.17994
-1.04752
-0.824444
-0.804585
-0.825367
-0.885758
-1.06305
-1.13398
-1.23354
-1.2716
-1.21818
-1.13387
-0.995396
-1.23114
-1.39963
-1.46249
-1.54495
-1.32129
-1.26869
-1.05099
-0.884434
-0.751687
-0.666003
-0.645948
-0.693529
-0.772514
-0.815212
-0.892286
-1.06227
-1.03032
-0.938584
-0.848802
-0.743557
-0.906418
-1.10298
-1.03054
-1.11891
-0.971228
-0.87161
-0.710047
-0.688596
-0.524068
-0.567602
-0.486792
-0.431645
-0.532429
-0.576119
-0.586767
-0.693563
-0.718956
-0.698338
-0.561798
-0.495898
-0.524259
-0.533608
-0.632058
-0.627816
-0.600654
-0.54767
-0.446036
-0.409497
-0.35286
-0.20535
-0.293782
-0.27166
-0.297647
-0.33442
-0.306741
-0.444119
-0.327617
-0.421286
-0.416297
-0.247513
-0.197788
-0.218319
-0.242715
-0.234347
-0.2501
-0.168554
-0.203679
-0.174245
-0.115776
-0.0426655
-0.0581
-0.192281
-0.142662
-0.139054
-0.15211
-0.182482
-0.104359
-0.190948
-0.15798
-0.112097
-3.02275
-3.17623
-3.4662
-3.53604
-3.51911
-3.26273
-3.02765
-2.72995
-2.46528
-2.2361
-2.17574
-2.28143
-2.28746
-2.36368
-2.53943
-2.52984
-2.53954
-2.3703
-2.06548
-1.6469
-2.53611
-2.75687
-2.97236
-3.05361
-3.00629
-2.76238
-2.55241
-2.30208
-2.08728
-1.86581
-1.79966
-1.87316
-1.9384
-2.03828
-2.18278
-2.20706
-2.22046
-2.01593
-1.68387
-1.44604
-2.177
-2.27406
-2.52554
-2.53346
-2.48354
-2.35027
-2.1901
-1.92972
-1.71542
-1.65832
-1.60272
-1.55239
-1.56872
-1.65625
-1.82023
-1.84841
-1.81532
-1.70434
-1.40982
-1.18615
-1.74376
-1.86617
-2.05106
-2.06705
-2.02456
-1.90887
-1.75504
-1.59535
-1.41246
-1.28171
-1.20391
-1.31012
-1.24682
-1.37867
-1.40526
-1.52742
-1.48232
-1.38892
-1.13601
-0.934366
-1.4186
-1.50293
-1.57024
-1.57531
-1.5796
-1.44971
-1.34493
-1.09598
-1.03018
-1.05873
-0.963141
-0.990315
-1.02652
-1.12761
-1.10224
-1.26092
-1.18488
-1.06734
-0.984412
-0.768146
-0.925884
-1.03725
-1.09064
-1.13385
-1.12768
-0.97424
-0.938941
-0.870082
-0.719303
-0.701456
-0.664228
-0.718625
-0.764348
-0.834279
-0.767291
-0.800548
-0.818117
-0.760538
-0.600537
-0.486085
-0.565668
-0.592853
-0.668362
-0.753352
-0.645081
-0.64611
-0.620674
-0.551242
-0.495182
-0.502907
-0.402762
-0.456482
-0.390537
-0.399703
-0.501913
-0.51006
-0.452456
-0.443958
-0.433609
-0.24812
-0.232245
-0.182473
-0.191391
-0.217916
-0.274368
-0.177314
-0.231316
-0.230146
-0.173244
-0.121458
-0.137576
-0.192284
-0.152347
-0.0818025
-0.11595
-0.156712
-0.140448
-0.109093
-0.136497
-0.105065
-2.85493
-3.18809
-3.5043
-3.61118
-3.62146
-3.48948
-3.27966
-3.09119
-2.95467
-2.76021
-2.6106
-2.63006
-2.72616
-2.73803
-2.84076
-2.80763
-2.64287
-2.35793
-1.9435
-1.56039
-2.44222
-2.75661
-2.99443
-3.12066
-3.11295
-3.05341
-2.89537
-2.6806
-2.48267
-2.41796
-2.22872
-2.30025
-2.30517
-2.31324
-2.37291
-2.36097
-2.27133
-2.0449
-1.73638
-1.30755
-2.10736
-2.30352
-2.5005
-2.6133
-2.6643
-2.5972
-2.45422
-2.15073
-2.10758
-1.9877
-1.81027
-1.89487
-1.85712
-1.95411
-2.09691
-1.99195
-1.89342
-1.66298
-1.42403
-1.13523
-1.67431
-1.88562
-2.01547
-2.12452
-2.08891
-2.06649
-1.91338
-1.77157
-1.68687
-1.59099
-1.5885
-1.59251
-1.58119
-1.59152
-1.61757
-1.517
-1.57458
-1.38437
-1.18736
-0.882662
-1.34404
-1.45011
-1.54526
-1.65976
-1.70917
-1.61712
-1.47188
-1.42367
-1.36136
-1.21442
-1.15629
-1.1899
-1.19081
-1.28773
-1.35101
-1.24471
-1.15874
-1.07918
-0.897863
-0.71174
-0.937035
-1.02543
-1.19119
-1.21173
-1.21667
-1.16304
-1.068
-0.974563
-0.946668
-0.851162
-0.878516
-0.825561
-0.899852
-0.913355
-0.855881
-0.881648
-0.803148
-0.825606
-0.591282
-0.464928
-0.531527
-0.612637
-0.757913
-0.692304
-0.768848
-0.678731
-0.524865
-0.543382
-0.616497
-0.561075
-0.478642
-0.544198
-0.536104
-0.558218
-0.488932
-0.575547
-0.529517
-0.424774
-0.389949
-0.304057
-0.182654
-0.213814
-0.193115
-0.253101
-0.20489
-0.255756
-0.227471
-0.215053
-0.217833
-0.172527
-0.215959
-0.177228
-0.184871
-0.126222
-0.153001
-0.14785
-0.194286
-0.192712
-0.107894
-0.0752479
-2.50117
-2.90264
-3.3637
-3.55215
-3.62399
-3.60221
-3.46318
-3.2869
-3.14377
-3.05319
-2.86703
-2.86201
-2.84363
-2.9151
-2.87221
-2.78905
-2.49532
-2.18511
-1.70709
-1.16792
-2.19193
-2.48119
-2.90684
-3.03784
-3.14596
-3.10481
-3.02577
-2.88842
-2.73021
-2.65002
-2.4927
-2.47881
-2.51584
-2.47029
-2.41183
-2.3737
-2.16982
-1.82173
-1.51974
-0.979441
-1.83344
-2.16349
-2.42325
-2.57607
-2.61678
-2.63883
-2.50549
-2.36723
-2.2757
-2.21018
-2.06182
-2.01807
-2.07997
-2.0603
-2.01524
-1.96834
-1.84469
-1.55876
-1.25349
-0.850199
-1.53412
-1.76094
-1.91861
-2.08296
-2.13239
-2.1289
-2.08232
-1.86426
-1.81595
-1.78176
-1.70461
-1.66656
-1.77369
-1.6625
-1.72707
-1.66745
-1.53614
-1.2927
-0.974464
-0.761989
-1.21407
-1.35572
-1.52481
-1.60952
-1.63004
-1.70306
-1.54664
-1.56926
-1.46776
-1.40804
-1.27374
-1.28077
-1.29374
-1.29976
-1.32389
-1.25764
-1.12785
-0.96606
-0.79676
-0.526696
-0.840111
-0.881278
-1.04931
-1.07792
-1.206
-1.1734
-1.10219
-1.02801
-1.00038
-0.913116
-0.958335
-0.890251
-0.964193
-1.00486
-0.962401
-0.905172
-0.796301
-0.652004
-0.537761
-0.412859
-0.480347
-0.617469
-0.626462
-0.676162
-0.754551
-0.697644
-0.672695
-0.64495
-0.632618
-0.574275
-0.556702
-0.575743
-0.571092
-0.620111
-0.539792
-0.527811
-0.490719
-0.406749
-0.283597
-0.265574
-0.179344
-0.254972
-0.262085
-0.179747
-0.239655
-0.20039
-0.258191
-0.230062
-0.198611
-0.189217
-0.179506
-0.189441
-0.156164
-0.243557
-0.248373
-0.183065
-0.142264
-0.150788
-0.088753
-0.103109
-2.00194
-2.47827
-2.87167
-3.23159
-3.45381
-3.5088
-3.45518
-3.26525
-3.21566
-3.00949
-2.93407
-2.95508
-2.87066
-2.87311
-2.7252
-2.5245
-2.20464
-1.74959
-1.23753
-0.639127
-1.66559
-2.10309
-2.44661
-2.74393
-2.92601
-2.95507
-2.89485
-2.82923
-2.74298
-2.59765
-2.57541
-2.53926
-2.41479
-2.44838
-2.34716
-2.13719
-1.97677
-1.55355
-0.995745
-0.50383
-1.51346
-1.75952
-2.09986
-2.33098
-2.44967
-2.49618
-2.48627
-2.39726
-2.32943
-2.18905
-2.07239
-2.08858
-2.03827
-2.02892
-1.92752
-1.76745
-1.49036
-1.27061
-0.879622
-0.511564
-1.15446
-1.45018
-1.70259
-1.88746
-1.93804
-2.06875
-2.02378
-1.87357
-1.83149
-1.76269
-1.69073
-1.77421
-1.69828
-1.64045
-1.54794
-1.47215
-1.24029
-0.966025
-0.67953
-0.503435
-0.911916
-1.10366
-1.37099
-1.44832
-1.55663
-1.56667
-1.51822
-1.46047
-1.42829
-1.36769
-1.37718
-1.32801
-1.31899
-1.19779
-1.19951
-1.12194
-0.969627
-0.765676
-0.532372
-0.368606
-0.65142
-0.758516
-0.862097
-1.11054
-1.09208
-1.06428
-1.04486
-1.05824
-1.0243
-1.01367
-1.00481
-0.919292
-0.920496
-0.902405
-0.829986
-0.818889
-0.63476
-0.512126
-0.401116
-0.245792
-0.410618
-0.466508
-0.526348
-0.683083
-0.679256
-0.666413
-0.62724
-0.680461
-0.555079
-0.534843
-0.610593
-0.579996
-0.538291
-0.541778
-0.496356
-0.470662
-0.452747
-0.345829
-0.228746
-0.147752
-0.0661676
-0.274472
-0.199346
-0.198385
-0.233642
-0.176282
-0.248021
-0.289602
-0.12864
-0.162254
-0.208594
-0.1062
-0.179263
-0.133191
-0.220174
-0.150058
-0.0621353
-0.146993
-0.0900029
-0.0445608
-1.15154
-1.76545
-2.2378
-2.67275
-2.92678
-3.00964
-3.07782
-3.01927
-2.95117
-2.8254
-2.78571
-2.67892
-2.66362
-2.4641
-2.33162
-2.04631
-1.66254
-1.09265
-0.488327
0.11442
-1.09933
-1.5736
-1.94012
-2.26547
-2.50814
-2.64999
-2.6194
-2.57823
-2.60655
-2.40775
-2.39204
-2.35876
-2.22264
-2.15976
-1.955
-1.76299
-1.39973
-0.928161
-0.44117
0.0415176
-0.904205
-1.26621
-1.66353
-1.92716
-2.08422
-2.16806
-2.18573
-2.21456
-2.1134
-2.09417
-2.01831
-1.97473
-1.87879
-1.79047
-1.65131
-1.38669
-1.15385
-0.818956
-0.304993
0.0109641
-0.717327
-1.0194
-1.33827
-1.53081
-1.72732
-1.80537
-1.81365
-1.76927
-1.74266
-1.71844
-1.58598
-1.55646
-1.52524
-1.41879
-1.34769
-1.14703
-0.896071
-0.643331
-0.249266
0.0345914
-0.54837
-0.749501
-1.02425
-1.17682
-1.34324
-1.39448
-1.37192
-1.39069
-1.34559
-1.33192
-1.23446
-1.18731
-1.13329
-1.08787
-1.04972
-0.87862
-0.679245
-0.44083
-0.198558
0.0484488
-0.404476
-0.583012
-0.728516
-0.81688
-0.924495
-0.967152
-1.02623
-1.01516
-0.976779
-0.955734
-0.822038
-0.815543
-0.838355
-0.815673
-0.781995
-0.673102
-0.513345
-0.38674
-0.111254
0.0531139
-0.334348
-0.317467
-0.384859
-0.492687
-0.549686
-0.587934
-0.550026
-0.508898
-0.599873
-0.570175
-0.548122
-0.53501
-0.491831
-0.432654
-0.488189
-0.342504
-0.258229
-0.243358
-0.0933476
0.0363345
-0.0951866
-0.0944637
-0.176536
-0.137421
-0.135478
-0.20579
-0.205297
-0.187012
-0.154133
-0.101412
-0.174919
-0.159484
-0.181634
-0.134951
-0.141781
-0.208796
-0.056956
-0.0981159
-0.0363364
-0.0154917
-0.229522
-0.795345
-1.43944
-1.94411
-2.17398
-2.34336
-2.48767
-2.50203
-2.40984
-2.36987
-2.34406
-2.23434
-2.05127
-1.8918
-1.64119
-1.21505
-0.83684
-0.238153
0.439914
1.13265
-0.202863
-0.693484
-1.18999
-1.62957
-1.93358
-2.09879
-2.11686
-2.15416
-2.11841
-2.10442
-1.97322
-1.8542
-1.69286
-1.63647
-1.36119
-1.15888
-0.782742
-0.203048
0.432032
0.954582
-0.176587
-0.536623
-1.0221
-1.25789
-1.65079
-1.79562
-1.80595
-1.83805
-1.87504
-1.68439
-1.67827
-1.53395
-1.46011
-1.2948
-1.13353
-0.96133
-0.597754
-0.199693
0.346175
0.795984
-0.134622
-0.489951
-0.825509
-1.06742
-1.27308
-1.4216
-1.41579
-1.50085
-1.44094
-1.36727
-1.31366
-1.24549
-1.1852
-1.08657
-0.963829
-0.724214
-0.48655
-0.136877
0.241137
0.62876
-0.123142
-0.344461
-0.538848
-0.852957
-0.996077
-1.14257
-1.13396
-1.11128
-1.1041
-1.11044
-1.14367
-1.00229
-0.888508
-0.809379
-0.750613
-0.546209
-0.459416
-0.122544
0.271571
0.50391
-0.0969741
-0.162154
-0.426674
-0.59462
-0.661688
-0.76814
-0.757595
-0.842152
-0.809238
-0.749812
-0.768971
-0.725417
-0.654332
-0.626345
-0.497315
-0.373444
-0.280134
-0.0361912
0.175421
0.360695
-0.0447388
-0.101883
-0.281385
-0.376109
-0.434018
-0.489208
-0.501524
-0.477081
-0.397529
-0.474063
-0.387961
-0.395884
-0.455556
-0.419485
-0.291034
-0.293543
-0.164209
-0.0705985
0.104964
0.202367
0.00921307
0.00299638
-0.0371982
-0.163437
-0.188745
-0.154792
-0.152382
-0.167904
-0.171498
-0.13836
-0.143067
-0.15237
-0.20153
-0.161595
-0.0885922
-0.0434395
-0.0524853
-0.0935441
0.0416082
0.0972154
1.03774
0.359957
-0.241193
-0.819411
-1.21827
-1.54246
-1.60849
-1.71955
-1.66301
-1.72654
-1.56246
-1.45011
-1.26752
-1.02135
-0.744495
-0.295997
0.230533
0.844842
1.68451
2.43732
0.872921
0.313163
-0.285957
-0.693727
-1.01393
-1.22957
-1.38534
-1.45115
-1.45857
-1.39347
-1.38928
-1.19726
-1.04882
-0.90649
-0.627077
-0.318546
0.273378
0.839897
1.41856
2.12534
0.719255
0.316187
-0.171066
-0.580736
-0.852386
-1.08631
-1.19386
-1.19462
-1.20105
-1.19825
-1.10596
-1.00227
-0.895406
-0.745618
-0.466261
-0.183776
0.234332
0.736437
1.23339
1.76039
0.611171
0.261631
-0.091731
-0.439313
-0.721252
-0.890437
-1.00826
-1.00938
-0.964676
-0.988352
-0.904471
-0.916773
-0.683639
-0.552166
-0.407584
-0.146382
0.166573
0.580589
1.01903
1.43345
0.409566
0.18286
-0.122386
-0.341507
-0.554354
-0.655639
-0.777791
-0.813468
-0.756593
-0.758663
-0.773036
-0.57954
-0.546007
-0.430191
-0.270217
-0.180477
0.155893
0.439374
0.800238
1.06701
0.334326
0.0993102
-0.0301775
-0.247171
-0.316234
-0.469636
-0.526166
-0.572728
-0.514743
-0.516738
-0.479301
-0.452104
-0.380211
-0.299264
-0.247294
-0.129019
0.130516
0.305658
0.588088
0.755252
0.152864
0.109835
-0.0258364
-0.171294
-0.240056
-0.282134
-0.313642
-0.278587
-0.277963
-0.284986
-0.227407
-0.26783
-0.258686
-0.16858
-0.16112
-0.00940841
-0.0115346
0.182212
0.332799
0.514808
0.0425675
0.0117198
0.00456576
-0.0498552
-0.092772
-0.100893
-0.102497
-0.0983576
-0.0928438
-0.132856
-0.148002
-0.134497
-0.0776771
-0.0325866
-0.0515736
0.023362
-0.0257538
0.041277
0.172093
0.150489
2.45578
1.7999
1.05834
0.464079
0.0295257
-0.314511
-0.546408
-0.573912
-0.614826
-0.669238
-0.519586
-0.446597
-0.200302
0.106793
0.452131
0.969175
1.53452
2.25804
3.07128
3.87123
2.14243
1.58913
0.91771
0.416659
0.104281
-0.324205
-0.470798
-0.510003
-0.500485
-0.51459
-0.409406
-0.320979
-0.106385
0.0833696
0.464965
0.91183
1.35351
1.9806
2.70605
3.36464
1.85109
1.39354
0.796411
0.390002
0.084141
-0.223128
-0.313088
-0.415047
-0.465206
-0.405306
-0.416111
-0.278759
-0.129353
0.00135135
0.409227
0.703205
1.16597
1.61015
2.30515
2.81796
1.42556
1.09136
0.694541
0.313372
0.0266608
-0.183663
-0.294396
-0.372959
-0.403635
-0.355112
-0.318162
-0.247133
-0.0955959
0.0952353
0.294866
0.646105
0.973342
1.36407
1.85334
2.25754
1.16997
0.880068
0.46855
0.206251
0.0143199
-0.116082
-0.214815
-0.241917
-0.284691
-0.213093
-0.229686
-0.15428
-0.0721019
0.0230723
0.207854
0.478675
0.732938
1.05492
1.48441
1.79271
0.748336
0.595593
0.37682
0.151562
0.0778155
-0.060507
-0.177536
-0.116686
-0.21589
-0.186734
-0.166619
-0.0375452
-0.038191
0.0163163
0.155452
0.367193
0.523143
0.745765
1.06311
1.28248
0.465965
0.375886
0.226374
0.0722165
0.0558737
-0.0369731
-0.0560616
-0.115536
-0.167862
-0.102279
-0.0562573
-0.0480651
-0.0547557
-0.00742699
0.121224
0.194168
0.340317
0.514375
0.661003
0.79896
0.219176
0.0759993
0.00812633
0.0692095
0.0746041
-0.00569814
0.0138813
-0.0638536
-0.0262916
-0.0040906
-0.0263464
-0.06076
-0.0523262
0.0712165
0.0221259
0.0508736
0.0599305
0.152856
0.172808
0.211931
4.15243
3.49569
2.60739
2.0011
1.53725
1.16794
0.84584
0.702584
0.702552
0.681927
0.743698
0.855951
1.18722
1.46333
1.95814
2.41642
3.07177
3.86126
4.75118
5.5267
3.63103
2.93308
2.31243
1.81188
1.28892
1.0168
0.776707
0.669115
0.525102
0.623306
0.59016
0.788668
1.02897
1.29953
1.68257
2.09544
2.61674
3.31062
4.13687
4.78839
3.05588
2.56956
2.00812
1.55671
1.19887
0.826803
0.651135
0.591914
0.5442
0.530692
0.537947
0.705287
0.847773
1.12202
1.38552
1.72532
2.31475
2.81966
3.51493
4.02326
2.52291
2.11802
1.62187
1.28176
0.960401
0.724916
0.539761
0.430128
0.42398
0.408397
0.511562
0.553292
0.734978
0.938406
1.23768
1.49601
1.87916
2.3325
2.8637
3.3596
1.85891
1.58663
1.30838
0.959287
0.703132
0.541662
0.366798
0.340025
0.340399
0.315617
0.400202
0.463245
0.637975
0.686503
0.861588
1.09355
1.52292
1.76102
2.133
2.54261
1.36884
1.14608
0.883243
0.672108
0.542811
0.402573
0.346742
0.245519
0.186842
0.253553
0.315094
0.374763
0.412261
0.460054
0.669283
0.821106
1.096
1.27362
1.59882
1.81832
0.803386
0.657686
0.563112
0.34521
0.288868
0.170911
0.175083
0.147261
0.17865
0.131413
0.174204
0.174359
0.288302
0.328982
0.46674
0.448195
0.561717
0.833226
0.967851
1.09822
0.267905
0.253534
0.1671
0.0833092
0.16284
0.117663
0.0127054
0.0974682
0.0217342
0.0136975
0.0644175
0.152297
0.00805948
0.133157
0.149056
0.195323
0.161425
0.235944
0.330192
0.410119
6.1039
5.29847
4.41305
3.81914
3.20712
2.83061
2.45922
2.29256
2.23917
2.26558
2.30407
2.47265
2.74488
3.12167
3.55571
4.11243
4.86729
5.73289
6.54272
7.49108
5.25717
4.61607
3.87481
3.2951
2.83689
2.51301
2.13966
2.00263
1.96809
1.96663
1.98285
2.19023
2.39691
2.60799
3.14019
3.66877
4.23709
4.84997
5.74127
6.44549
4.42136
3.8995
3.27021
2.80962
2.4384
2.12815
1.86046
1.713
1.68094
1.65481
1.71982
1.88003
2.05329
2.24441
2.62018
3.0974
3.53644
4.19395
4.79943
5.41057
3.57569
3.21429
2.74583
2.31081
1.9703
1.71059
1.57096
1.39878
1.44189
1.34568
1.42907
1.47763
1.64633
1.91769
2.13784
2.42516
2.89625
3.40008
3.91953
4.4161
2.80323
2.4996
2.08875
1.82746
1.56015
1.42302
1.18505
1.09359
1.08213
1.11145
1.08962
1.1273
1.28363
1.45355
1.72526
1.95988
2.23768
2.6703
3.1133
3.43091
1.97178
1.75666
1.54307
1.32381
1.10543
0.920933
0.840885
0.751983
0.721599
0.725436
0.820753
0.797164
0.973079
0.967991
1.15017
1.38606
1.63003
1.88414
2.23821
2.38781
1.18108
1.07879
0.900578
0.738691
0.659233
0.573157
0.494734
0.484976
0.451943
0.447398
0.487926
0.513585
0.569403
0.611304
0.759458
0.832407
0.994274
1.17296
1.2959
1.52379
0.411899
0.348295
0.30635
0.233947
0.278635
0.173412
0.224725
0.131874
0.226464
0.183195
0.150139
0.187504
0.203301
0.224047
0.329638
0.330785
0.331621
0.415126
0.443862
0.458198
8.04578
7.37686
6.46196
5.70833
5.09153
4.72099
4.32126
4.11258
3.95303
3.99504
4.06621
4.22826
4.59663
4.88646
5.37686
6.06585
6.85317
7.75457
8.68764
9.57348
7.01401
6.31218
5.59545
5.01108
4.44606
4.04502
3.8276
3.54783
3.36341
3.48743
3.50742
3.68727
3.91882
4.23392
4.7623
5.23032
5.9124
6.67509
7.43727
8.19568
5.92273
5.34355
4.78645
4.18482
3.764
3.40255
3.17111
3.03732
2.91917
2.90949
2.96558
3.0934
3.3525
3.57264
4.05197
4.40694
4.98216
5.70299
6.35124
6.90346
4.7924
4.33578
3.81139
3.4004
3.06249
2.78989
2.59262
2.40985
2.4392
2.3964
2.46777
2.52662
2.66278
2.97324
3.26969
3.62826
4.09068
4.54613
5.18272
5.63605
3.75122
3.36961
3.01251
2.68233
2.3314
2.16409
1.93382
1.90355
1.85326
1.93085
1.84697
2.0464
2.11455
2.29072
2.51527
2.88591
3.16666
3.53834
3.9751
4.40777
2.69969
2.36474
2.12211
1.85284
1.65967
1.56837
1.41374
1.29359
1.33015
1.34517
1.30449
1.45363
1.51396
1.6113
1.79884
1.95506
2.25166
2.5664
2.89184
3.07152
1.59804
1.45464
1.29348
1.17483
0.978862
0.915603
0.867894
0.794062
0.833685
0.793372
0.867316
0.865772
0.872261
0.925717
1.11117
1.18098
1.39487
1.49042
1.72914
1.88181
0.510443
0.462849
0.42576
0.323162
0.291259
0.227466
0.284384
0.238841
0.213456
0.337546
0.282025
0.256856
0.326393
0.346462
0.464778
0.39915
0.440746
0.471031
0.567325
0.62478
10.2688
9.33924
8.52584
7.79179
7.09513
6.60114
6.17606
6.04477
5.87075
5.82781
5.89076
6.09331
6.36175
6.79978
7.38202
8.0191
8.83907
9.69162
10.7501
11.6517
8.7833
8.07268
7.33275
6.63566
6.11643
5.64068
5.31941
5.09302
5.03527
5.03709
5.15966
5.17138
5.51812
5.87141
6.32253
6.91381
7.55694
8.3549
9.14885
9.95595
7.40034
6.76863
6.13175
5.56576
5.21581
4.7252
4.44978
4.30548
4.20987
4.24571
4.3147
4.40528
4.589
4.99041
5.27938
5.81876
6.40119
7.06763
7.70891
8.40777
5.96298
5.53176
5.01749
4.55703
4.19221
3.83629
3.59745
3.45014
3.43287
3.38093
3.42187
3.59386
3.79907
3.9233
4.33674
4.68095
5.21697
5.74889
6.38477
6.81445
4.68566
4.28474
3.80446
3.48235
3.22948
2.99725
2.77542
2.70327
2.61962
2.65395
2.6948
2.81986
2.92018
3.09373
3.34731
3.65007
4.00908
4.39223
4.92765
5.25118
3.29681
3.00431
2.70651
2.5126
2.28244
2.08478
2.00217
1.91348
1.83286
1.83777
1.92682
1.99097
2.10603
2.15164
2.37948
2.62657
2.85784
3.22782
3.51364
3.73385
2.03752
1.8182
1.66783
1.45337
1.3812
1.22548
1.17277
1.1424
1.14898
1.13769
1.09682
1.19791
1.24961
1.23505
1.44325
1.59825
1.74052
1.86165
2.09198
2.23333
0.614361
0.599759
0.580059
0.481922
0.46913
0.422164
0.390506
0.363628
0.308408
0.363092
0.408972
0.409788
0.344453
0.501121
0.437299
0.55337
0.470713
0.633784
0.711114
0.820998
11.9541
11.0914
10.1898
9.41269
8.6874
8.18794
7.7507
7.46763
7.40506
7.27877
7.47945
7.59141
7.9328
8.34385
8.91106
9.62922
10.4438
11.3857
12.3776
13.3193
10.1344
9.4795
8.61325
7.90629
7.4036
6.93754
6.55809
6.37772
6.23096
6.2032
6.32083
6.50235
6.77218
7.11764
7.59704
8.2251
8.85332
9.73338
10.5549
11.2847
8.50388
7.85659
7.20106
6.62997
6.14362
5.81676
5.48636
5.2734
5.11917
5.07462
5.19577
5.44626
5.58545
5.89142
6.36525
6.78875
7.48411
8.09476
8.83435
9.54343
6.85199
6.36967
5.89374
5.41447
5.02487
4.73645
4.4505
4.29793
4.22032
4.18574
4.2569
4.3377
4.51757
4.80448
5.11763
5.48871
5.98767
6.59032
7.1399
7.70653
5.30355
4.84093
4.50342
4.10358
3.8453
3.59407
3.433
3.23079
3.18037
3.24037
3.27945
3.32281
3.45675
3.62257
3.90318
4.21093
4.64377
5.04301
5.44805
5.87354
3.61716
3.45613
3.25951
2.94228
2.65382
2.61732
2.41526
2.32057
2.27166
2.2883
2.32833
2.38493
2.50494
2.5949
2.81732
2.96063
3.32503
3.54779
3.88439
4.1942
2.22964
2.07787
2.0209
1.76797
1.61077
1.45974
1.42692
1.40405
1.40909
1.37481
1.35723
1.396
1.48145
1.61027
1.72421
1.81839
1.97459
2.15018
2.40255
2.55709
0.771563
0.697683
0.708936
0.567265
0.560739
0.581557
0.516841
0.455899
0.398031
0.473845
0.436741
0.469598
0.460337
0.542876
0.523314
0.59935
0.642714
0.767151
0.778631
0.815472
)
;

boundaryField
{
    hotSide
    {
        type            calculated;
        value           nonuniform List<scalar> 
400
(
1.71383
1.00231
0.225319
-0.568357
-1.23239
-1.6332
-2.00457
-2.16005
-1.99487
-1.64321
-1.14533
-0.295317
0.627454
1.89676
3.31832