/*--------------------------------*- C++ -*----------------------------------*\
| =========                 |                                                 |
| \\      /  F ield         | OpenFOAM: The Open Source CFD Toolbox           |
|  \\    /   O peration     | Version:  2212                                  |
|   \\  /    A nd           | Website:  www.openfoam.com                      |
|    \\/     M anipulation  |                                                 |
\*---------------------------------------------------------------------------*/
FoamFile
{
    version     2.0;
    format      ascii;
    arch        "LSB;label=32;scalar=64";
    class       volScalarField;
    location    "0";
    object      relativeErrorField;
}
// * * * * * * * * * * * * * * * * * * * * * * * * * * * * * * * * * * * * * //

dimensions      [0 0 0 1 0 0 0];

internalField   nonuniform List<scalar> 
3200
(
0.00358834
0.004268
0.0057741
0.00804373
0.0104837
0.0135015
0.0160722
0.0187621
0.0205439
0.0217871
0.0221287
0.0214234
0.0198815
0.0181884
0.0156139
0.0133547
0.0112106
0.00933424
0.0082906
0.00748784
0.00310945
0.00384699
0.00493181
0.00684506
0.00910408
0.0115524
0.0140686
0.0163834
0.0181126
0.0190399
0.0194413
0.018755
0.0175088
0.0157319
0.0136544
0.011726
0.00957028
0.00821586
0.00721413
0.00642615
0.00267467
0.00329966
0.00442575
0.00587197
0.00773483
0.00962868
0.0119138
0.0140102
0.015503
0.01609
0.0164785
0.015947
0.0150785
0.0131493
0.0114722
0.0096736
0.00828484
0.00692361
0.00598857
0.00528053
0.00202971
0.00250058
0.00337177
0.00456004
0.00613015
0.0080435
0.00986239
0.0113885
0.0128734
0.0134688
0.0136786
0.0132406
0.0121304
0.0110194
0.00963804
0.00809173
0.00665388
0.00567248
0.00458236
0.0045006
0.00177273
0.00198924
0.00260138
0.00365306
0.0049205
0.00632399
0.00781027
0.00911513
0.00997908
0.0105965
0.010855
0.0103734
0.00974007
0.00861362
0.00739813
0.00629074
0.00527039
0.00447019
0.0039673
0.00332655
0.00102921
0.00139729
0.00192482
0.00250439
0.0035307
0.00468976
0.00560855
0.0065542
0.0073418
0.0074864
0.0079057
0.00752641
0.00704535
0.00635015
0.00545653
0.00468601
0.00385813
0.00289286
0.00266845
0.0024824
0.000739671
0.000962431
0.00152404
0.00163952
0.00218589
0.00282482
0.00348866
0.00407549
0.00443013
0.00481731
0.00481009
0.00456948
0.00402132
0.00354972
0.00317289
0.0027029
0.00239828
0.00187083
0.00168997
0.00151877
5.74948e-05
0.000439807
0.000398585
0.000436634
0.000627703
0.000756324
0.00115109
0.00126265
0.00152946
0.00173556
0.00173559
0.00164209
0.00155937
0.0013969
0.00126964
0.00115661
0.000736177
0.000652638
0.000639343
0.000528642
0.00151691
0.00239181
0.00395305
0.00590637
0.00841486
0.0110976
0.0138086
0.0162536
0.0182962
0.0193861
0.0198322
0.0189968
0.0176873
0.0155972
0.013457
0.0111168
0.00901326
0.00743749
0.00634423
0.00584078
0.00148984
0.00195558
0.0033283
0.00484819
0.00733011
0.00957483
0.0120023
0.0144212
0.0159966
0.0170157
0.0172148
0.0164864
0.0153163
0.0136192
0.011769
0.0097157
0.00782787
0.00648132
0.00563161
0.00524973
0.00119629
0.00187864
0.00263458
0.00445882
0.00622899
0.00828723
0.0102833
0.0121748
0.0135612
0.0146279
0.0147395
0.0142205
0.0131194
0.0115647
0.00993861
0.00835143
0.00674478
0.00538777
0.00474046
0.00439236
0.000920418
0.00136358
0.00218615
0.00356326
0.00517262
0.00682181
0.00854618
0.0100918
0.0115321
0.0121525
0.0123278
0.0120972
0.0110494
0.00968788
0.00830994
0.00697858
0.00556028
0.00454992
0.00385441
0.0034526
0.000806575
0.000980262
0.0017944
0.00283618
0.00401293
0.00538703
0.00668511
0.00774992
0.00907475
0.00959818
0.00986505
0.00938181
0.00882589
0.00785193
0.00650335
0.00550425
0.00433488
0.00354623
0.00289783
0.00296073
0.000521052
0.000872233
0.00105862
0.00210728
0.00316392
0.003861
0.00490928
0.0057673
0.00659156
0.00704923
0.00702726
0.00680365
0.00635855
0.0055503
0.00475663
0.00405845
0.00324383
0.00270354
0.00208419
0.00180968
0.000400575
0.000551003
0.000839795
0.00141552
0.00184353
0.00248725
0.00302352
0.00377056
0.00399209
0.004348
0.00432865
0.00419541
0.00371996
0.00357873
0.00289632
0.00231074
0.00210982
0.0016342
0.00131104
0.00117783
5.61274e-05
0.000177459
0.000172056
0.000459942
0.000636897
0.00104619
0.000970286
0.00136634
0.00134666
0.00164636
0.00129484
0.00128975
0.00146012
0.00109283
0.000841007
0.000958833
0.000685624
0.000510395
0.000488261
0.000160311
0.000542929
7.75693e-05
0.00135712
0.0033817
0.00571718
0.00822266
0.010819
0.0132789
0.015047
0.0163067
0.0165676
0.0158423
0.0145532
0.0126463
0.0106728
0.00826506
0.00648101
0.00493493
0.00402183
0.00358398
0.0005316
1.16557e-06
0.00125501
0.00284656
0.00500191
0.00716109
0.00950985
0.0116237
0.0131257
0.0142396
0.0144791
0.0139018
0.012813
0.0115454
0.00938946
0.00736976
0.00589516
0.00455913
0.00343102
0.00312197
0.000555071
3.4741e-05
0.00107316
0.00257951
0.00429041
0.00617131
0.00817575
0.00984339
0.0115452
0.0123284
0.0125852
0.0119103
0.0111138
0.00962944
0.0076874
0.00655413
0.00491777
0.00364933
0.00303667
0.00278237
0.000478564
3.77994e-05
0.000943243
0.00192471
0.00342687
0.00502286
0.00660135
0.00834698
0.00938201
0.0103943
0.0102927
0.00996032
0.00923289
0.00788732
0.00649553
0.00518394
0.0039568
0.00309223
0.0027927
0.00202981
0.000419288
0.00011236
0.00054014
0.00150544
0.00274829
0.00405733
0.00523896
0.00650757
0.00734617
0.00798828
0.00824421
0.00777099
0.00734695
0.00634903
0.005175
0.00395419
0.00307416
0.00245496
0.00193497
0.00166527
0.000195509
1.74602e-05
0.000322566
0.00110191
0.00196102
0.00298205
0.00393461
0.00463613
0.00541232
0.00582244
0.00599957
0.00573485
0.00535085
0.00469146
0.00363785
0.00307065
0.00215442
0.00175029
0.00124185
0.00108763
5.07809e-05
5.91742e-05
0.000378063
0.00062426
0.00122063
0.00183756
0.00216266
0.00301908
0.00335803
0.00348957
0.00366069
0.0035762
0.00335245
0.00295495
0.00218659
0.00180778
0.00156119
0.00115193
0.000667612
0.000512468
5.04683e-05
1.88936e-05
0.000186031
0.000433191
0.000331901
0.000682022
0.000747659
0.00112235
0.0012979
0.0013462
0.00125711
0.00134255
0.0011053
0.000871806
0.000939329
0.000556625
0.000505036
0.000538153
0.000230341
0.000311983
0.00267655
0.00220489
0.0012809
0.000732755
0.00277232
0.00515938
0.00768272
0.0098774
0.0117586
0.0127266
0.0128683
0.0125707
0.0112202
0.00956945
0.00774243
0.00564523
0.00411789
0.00249763
0.00183836
0.00145632
0.00247574
0.00207357
0.000989323
0.000463863
0.00252155
0.00446173
0.00662059
0.00875558
0.0100893
0.011172
0.0113764
0.011002
0.00999802
0.00855835
0.00667849
0.00489161
0.00346598
0.00244083
0.00173384
0.00147269
0.00202285
0.00159896
0.00114085
0.000442117
0.00211473
0.00376576
0.00578335
0.00738981
0.00884204
0.00949008
0.00963452
0.00931361
0.00865741
0.00725319
0.0056703
0.0044272
0.00299464
0.0018195
0.00114703
0.00116327
0.00177824
0.00157574
0.000623282
0.000329794
0.00170505
0.00306606
0.00470266
0.00621344
0.00726243
0.00788711
0.00806244
0.00781431
0.0072344
0.00601804
0.00472295
0.0037695
0.00243409
0.00160045
0.0010479
0.000792514
0.00142836
0.00116178
0.000523672
0.000368178
0.00118327
0.00252268
0.00370785
0.00490864
0.00604886
0.00635873
0.00648954
0.00622493
0.00553313
0.00471796
0.00372574
0.00275929
0.00185919
0.00109133
0.000902486
0.000737007
0.000935128
0.000811632
0.000309258
0.0002691
0.000950967
0.00176445
0.00279167
0.00353062
0.00425135
0.00452441
0.00478029
0.00456788
0.00393592
0.00343648
0.00274191
0.00199225
0.00143282
0.000900231
0.000447485
0.000737927
0.000685699
0.000418783
0.000203548
0.000151548
0.000700268
0.00138217
0.00143558
0.00211886
0.00262919
0.0028061
0.00284888
0.00285881
0.00247858
0.00213394
0.00160246
0.00113084
0.000726488
0.000664423
0.000182864
0.000315045
0.000426528
2.72296e-06
6.08784e-05
6.17202e-05
3.40357e-05
0.000563848
0.000539223
0.000787754
0.00088739
0.00108474
0.000872692
0.00084483
0.000837418
0.000960605
0.000529144
0.000451075
0.000104407
0.000240108
4.21596e-05
0.000126176
0.00470897
0.00424314
0.00361743
0.00192042
5.02282e-05
0.00231204
0.00462896
0.00677785
0.00821997
0.00936764
0.00954359
0.00946711
0.0080501
0.00661159
0.00483921
0.00300369
0.00171108
0.000551433
0.000123972
0.000162377
0.00428074
0.00360753
0.0027538
0.00178645
0.00034638
0.00194249
0.00385263
0.00575767
0.0073157
0.00812979
0.00834849
0.00803448
0.00700131
0.00565965
0.00430037
0.0027892
0.00135608
0.000360152
0.000289445
0.000342325
0.00374854
0.00343751
0.00266662
0.00132598
3.5677e-05
0.00166629
0.00338767
0.00488501
0.00612548
0.00699668
0.00712391
0.00685024
0.00627838
0.00494495
0.00351327
0.00228984
0.00104421
0.000218622
0.000113255
0.000478059
0.00268998
0.00278377
0.00203758
0.00130498
6.83134e-05
0.0012472
0.00298347
0.00415707
0.00520443
0.00576578
0.00588276
0.00568258
0.00524512
0.00402058
0.00272606
0.0019696
0.00105491
0.000335047
0.000283857
0.000372013
0.00247305
0.00211051
0.00173928
0.00113724
6.01456e-05
0.00106582
0.00227089
0.00303386
0.00425656
0.00449575
0.00476005
0.00462355
0.00377757
0.00303458
0.00230332
0.00167981
0.000839849
0.000230925
0.000152359
0.00043551
0.00168861
0.00168864
0.00130746
0.000833175
5.91589e-05
0.000744233
0.00144131
0.00259786
0.0030745
0.00369855
0.00352811
0.00315928
0.00284472
0.0021623
0.00173448
0.000994922
0.000640673
0.000173145
0.000212843
0.000370953
0.000863323
0.00088358
0.000804967
0.000496857
3.09371e-05
0.000380462
0.000923374
0.00154882
0.00203108
0.00193358
0.00184354
0.00199672
0.00163203
0.00136436
0.00111779
0.000628319
0.000220071
6.40802e-05
0.000297818
0.000190476
0.000322806
0.000208553
1.62865e-05
0.000188578
5.61308e-05
0.000188661
0.000369996
0.000460354
0.000807528
0.000672035
0.000962261
0.000559891
0.000497136
0.000671934
0.00047504
0.000306761
0.00013776
0.000169166
1.68371e-05
6.07601e-05
0.00621097
0.00591366
0.00512405
0.00406617
0.00220842
0.000235092
0.00156187
0.00345633
0.00516619
0.00603766
0.00628314
0.00582698
0.00506036
0.00373255
0.00217005
0.000826387
0.000473523
0.00132538
0.00171317
0.0017485
0.0055917
0.00540852
0.00471657
0.00348636
0.00199256
8.75312e-05
0.00166191
0.00324182
0.004428
0.00540342
0.0057408
0.00522962
0.00425066
0.00344541
0.00185687
0.000759424
0.000422072
0.00140569
0.00156199
0.00140689
0.00463342
0.00462624
0.00388478
0.00301777
0.00169816
0.000354774
0.00121564
0.00272482
0.00388625
0.00461375
0.00478336
0.00454517
0.00362542
0.00276262
0.00161476
0.000389755
0.000177047
0.00108267
0.00132405
0.00136147
0.00399242
0.00369166
0.00316965
0.00269648
0.00150178
0.000414063
0.00104764
0.00224459
0.00316668
0.00393925
0.0041088
0.00375092
0.00305096
0.00228227
0.00136445
0.000354874
0.000531824
0.00116053
0.00125228
0.00125686
0.00308134
0.00293317
0.00258178
0.00204028
0.00113319
3.38434e-05
0.000985786
0.00168495
0.00235582
0.00319139
0.00325149
0.00299723
0.00223789
0.00194373
0.000931415
0.000364277
0.000124594
0.000857251
0.000927016
0.001126
0.00212656
0.00241681
0.00194781
0.001526
0.00113232
0.000262866
0.000651047
0.0012251
0.00167277
0.00225492
0.00220535
0.00224571
0.00178766
0.00131169
0.000814844
0.000484187
0.000233734
0.000583072
0.00053149
0.00067106
0.00155218
0.0015427
0.0013723
0.00080122
0.00078078
1.01169e-05
0.000195677
0.000782158
0.00123816
0.00138932
0.00109694
0.001193
0.00116481
0.000925854
0.000301553
7.06145e-05
6.03414e-06
0.000340734
0.000573394
0.000274263
0.000370264
0.000478156
0.000300147
0.00059975
0.00043891
0.000197239
0.000169778
0.000414217
0.000363615
0.000645511
0.000454639
0.000568783
0.000437368
0.000417588
0.000188826
0.000107406
0.000368826
0.000151614
7.28113e-05
0.000411009
0.00736103
0.00727147
0.00675416
0.00580348
0.00417303
0.00259275
0.000674699
0.000806586
0.0023916
0.00315632
0.00346389
0.00327073
0.00237055
0.00127643
6.19999e-05
0.00122171
0.00220841
0.00274112
0.00283687
0.00248258
0.00631155
0.00658148
0.00592487
0.00519507
0.00370399
0.0024767
0.000857127
0.000691364
0.00210322
0.00272257
0.00300712
0.00274528
0.00208102
0.000812351
0.000187877
0.000911978
0.00195614
0.00251589
0.00273464
0.00245492
0.00561149
0.00551032
0.00521828
0.00438063
0.00322521
0.00217375
0.000665207
0.000628032
0.00177546
0.00237304
0.00240442
0.00231285
0.00174641
0.000817027
9.08843e-05
0.000969042
0.00164977
0.00208142
0.00239774
0.00207009
0.00460737
0.00481065
0.00428441
0.00337056
0.00264182
0.0016944
0.000706923
0.000584987
0.00131135
0.00191981
0.00207349
0.00184394
0.00145813
0.000708738
0.00016126
0.000700696
0.00129854
0.00170382
0.00186041
0.00154754
0.00356626
0.00367293
0.00321698
0.00272118
0.00208129
0.00146285
0.000426918
0.000401892
0.00108469
0.00145553
0.00170819
0.001522
0.00092412
0.000665776
0.000179866
0.000691678
0.00130766
0.00149935
0.00144575
0.00141148
0.00275529
0.0027444
0.00256737
0.00202498
0.00142016
0.0010387
0.00045307
0.000378776
0.000828127
0.00113473
0.00105829
0.0010641
0.000907947
0.000393814
0.000204791
0.000467645
0.00104504
0.00100641
0.00114717
0.000973727
0.00154943
0.00170499
0.00168237
0.0012881
0.00113116
0.000663425
0.000414229
0.000202689
0.000498311
0.000682584
0.000708561
0.000575582
0.000529816
0.000167502
1.96731e-05
0.00021459
0.000560528
0.000810771
0.000689239
0.000493032
0.000379217
0.000468917
0.000416543
0.000362186
0.000210163
6.21349e-05
2.31297e-05
1.74667e-05
1.13862e-06
0.000566273
0.000272596
0.000468345
0.000224151
0.000118794
0.000387226
0.000194911
0.000237321
0.00029396
0.000249751
0.000467401
0.007845
0.00789324
0.00787922
0.00700326
0.00575287
0.00445227
0.00288601
0.00129341
0.00025611
0.000566269
0.000869121
0.00065926
0.00023692
0.00065332
0.00190581
0.00245626
0.00320555
0.00369085
0.00389562
0.00318979
0.00701265
0.00715774
0.00691856
0.0062342
0.00512289
0.00388042
0.00252279
0.00125995
0.000346398
0.000423251
0.000695472
0.000676149
0.000165935
0.000791528
0.00152269
0.00249358
0.00290812
0.0031621
0.00343499
0.00273281
0.00609127
0.00606348
0.0059376
0.00545221
0.00444614
0.00337429
0.00229473
0.00129051
8.55314e-05
0.00046916
0.000545122
0.000455366
1.84349e-05
0.000783407
0.00134457
0.00227122
0.00264935
0.00294806
0.00283506
0.00243554
0.00528623
0.00501454
0.00491526
0.00453622
0.00371845
0.00308123
0.00193211
0.000951457
0.000181201
0.000361115
0.000380077
0.000463879
0.000114727
0.000550809
0.0012149
0.0018658
0.00224262
0.00243378
0.00232601
0.00188224
0.00419485
0.00395108
0.00399871
0.00363693
0.00314376
0.00234281
0.00160882
0.000730285
0.000200375
0.000117909
0.000287641
0.000265725
8.53121e-05
0.000397938
0.00101254
0.00141565
0.00170684
0.00192435
0.0020522
0.00164234
0.00287803
0.00289691
0.00287264
0.00268093
0.00193669
0.00152259
0.00106741
0.000460386
7.77117e-05
0.000261259
0.000264591
0.000278136
5.70809e-05
0.000291087
0.000622983
0.00098804
0.0013577
0.00132112
0.00161586
0.00124662
0.00176672
0.00184332
0.00164214
0.00154913
0.00133891
0.00105842
0.000764142
0.000492086
9.68491e-05
7.74225e-05
7.31784e-05
0.000161567
4.04747e-05
0.000255992
0.000478782
0.000516778
0.000732084
0.00106105
0.000598838
0.000651321
0.00063115
0.000733648
0.000580217
0.000643096
0.000458134
0.000503293
0.000319463
8.96639e-05
5.35021e-05
9.63526e-06
2.93974e-06
8.22396e-05
5.20092e-05
4.6568e-06
0.00013481
0.000153701
0.000161946
0.000216866
0.00027982
0.000420672
0.00798513
0.00851269
0.00828494
0.00776978
0.00693735
0.00604952
0.00435678
0.00324164
0.00221304
0.00136385
0.00133358
0.0013784
0.0016233
0.00226149
0.0031284
0.0037676
0.00427815
0.00404981
0.00385939
0.00314754
0.00706345
0.00744908
0.00730379
0.00692728
0.00609441
0.00529571
0.00378008
0.00308464
0.00197712
0.00138701
0.00111986
0.00103965
0.00162302
0.00224086
0.00278756
0.00323923
0.00373058
0.00358906
0.00346064
0.00282548
0.00624487
0.0064662
0.00646841
0.00604007
0.00528696
0.00435638
0.00340501
0.00235793
0.0017671
0.00107778
0.000896047
0.000797039
0.00155425
0.00161891
0.00253876
0.00284403
0.00316884
0.00326083
0.00275519
0.00255167
0.0050914
0.00543654
0.00533503
0.00514101
0.00440558
0.00362252
0.00279055
0.00199913
0.00153952
0.00110829
0.000959865
0.000674654
0.00132802
0.00159026
0.00205193
0.00244004
0.00262957
0.00281092
0.00235298
0.00227757
0.0042117
0.00439106
0.00420835
0.0037992
0.00362355
0.00292652
0.00227527
0.00164352
0.00125943
0.000842818
0.000479838
0.000692749
0.000908581
0.00120939
0.00152633
0.00205602
0.0020293
0.0021469
0.0020063
0.00163904
0.00302844
0.00315142
0.00293588
0.00299217
0.00254637
0.00209712
0.00180128
0.00128803
0.000832887
0.000522859
0.000509916
0.000637887
0.000741921
0.000853338
0.00109134
0.00136887
0.00161285
0.00160706
0.00145839
0.00117053
0.00183296
0.00169186
0.00175955
0.00152664
0.00176768
0.00124867
0.00102617
0.000801096
0.000358235
0.000383957
6.38883e-05
0.000689568
0.000444986
0.000510142
0.000666531
0.000855202
0.00079382
0.00106563
0.000627871
0.000769436
0.000659723
0.000608005
0.000555337
0.000607787
0.000559939
0.000450528
0.000470714
0.000230879
0.000436855
0.000134025
8.50953e-05
0.000148347
5.75281e-05
6.83086e-06
0.000265235
0.000531509
0.000519472
0.00051307
0.000289056
0.000104826
0.00759946
0.00813644
0.00824559
0.00807934
0.00740051
0.006719
0.00549636
0.0045836
0.00367182
0.00300353
0.00275722
0.00260058
0.00298211
0.00342357
0.00400861
0.00405154
0.00435608
0.0039447
0.00349392
0.00243407
0.00660822
0.00708346
0.00726484
0.00728544
0.00679365
0.00604894
0.00484876
0.00411654
0.0031291
0.00267634
0.00238904
0.00249429
0.00253212
0.0031395
0.00363479
0.003781
0.00394348
0.00360155
0.00300603
0.00243106
0.00565567
0.00612089
0.00637011
0.0058748
0.00559349
0.00511904
0.00417899
0.00354962
0.00281378
0.0023941
0.00202334
0.0022743
0.00238881
0.00264225
0.00301306
0.00331175
0.00343884
0.00321323
0.00285178
0.00207646
0.0047363
0.00494093
0.00529427
0.00515872
0.00492856
0.00434436
0.00377648
0.00308718
0.00228005
0.0021656
0.00177624
0.00184787
0.00204653
0.00244658
0.00245089
0.00253925
0.0028464
0.00274566
0.00218773
0.00205961
0.00382221
0.00422884
0.00431599
0.00435197
0.00398422
0.00358359
0.0029165
0.00223989
0.00193338
0.00165291
0.00163717
0.00139267
0.00163222
0.0016619
0.0020741
0.0021758
0.00237974
0.00217793
0.00186369
0.00161267
0.00280267
0.00311475
0.00296611
0.00316612
0.00277357
0.00239324
0.00211235
0.00181413
0.00122331
0.0011822
0.000963029
0.00118049
0.001152
0.00125517
0.00171993
0.00167136
0.00152044
0.0014249
0.00130393
0.00105456
0.00167738
0.00170202
0.00190969
0.00174181
0.00183856
0.00148254
0.00131742
0.00114703
0.000886061
0.000892309
0.000468947
0.000584705
0.000892713
0.000641502
0.000879959
0.000782037
0.000897805
0.00100618
0.000946303
0.000813598
0.000594591
0.000665341
0.00055601
0.000817393
0.000610746
0.000474446
0.000548308
0.000320855
0.000139787
0.000153869
0.000373389
0.000459253
0.000111441
0.000278504
0.000275048
0.000428241
0.000303949
0.000375657
0.000408963
0.000326077
0.00655786
0.00739604
0.0077612
0.00777643
0.00754527
0.00676821
0.0060906
0.00524816
0.0044781
0.00399577
0.0036843
0.00347105
0.00372985
0.00395433
0.00410832
0.00424703
0.00389451
0.00329613
0.00269409
0.00154661
0.00578853
0.00652651
0.00705681
0.00686083
0.00676882
0.00612049
0.0054831
0.00472125
0.00402048
0.00353755
0.00305747
0.00316917
0.00344908
0.00339175
0.00358203
0.00378448
0.00364548
0.00309278
0.00226265
0.00157467
0.00502846
0.00568373
0.00583059
0.00599453
0.00577447
0.00518911
0.00479131
0.00421153
0.00355496
0.00310886
0.00287352
0.00286233
0.00281933
0.00314264
0.00326578
0.00332234
0.00335836
0.00287361
0.00187903
0.00127839
0.00438002
0.00442405
0.00503535
0.00490604
0.00477977
0.00438905
0.00398843
0.00352838
0.0029147
0.00252091
0.00248938
0.00220991
0.00256065
0.0025411
0.00290999
0.00261352
0.00251714
0.00242371
0.00165931
0.00120293
0.00338415
0.00353948
0.00398886
0.00376295
0.00346191
0.00339523
0.0031717
0.00284758
0.00253142
0.00218056
0.00181606
0.0019373
0.00212076
0.00206438
0.0022025
0.00230524
0.00222554
0.00181463
0.00137725
0.00119057
0.00237479
0.00271167
0.00276197
0.00301465
0.00268906
0.00246545
0.00231682
0.00188452
0.00170485
0.00131313
0.0012577
0.00135323
0.00143226
0.00167359
0.00150618
0.00172885
0.00168285
0.00122526
0.000925065
0.000534713
0.00143199
0.00167127
0.00178769
0.00170022
0.00166495
0.00178406
0.00134112
0.00119208
0.000979396
0.000890392
0.000640915
0.000674143
0.000960836
0.000831902
0.000954426
0.00118799
0.000756962
0.00112073
0.000705058
0.000445982
0.000510133
0.00052388
0.000571155
0.000612928
0.000552918
0.000444529
0.000331652
0.000165867
0.000300825
0.000368424
0.000454687
0.000222697
0.000398487
0.000469572
0.00017716
0.000330904
0.000355904
0.000151015
3.204e-05
0.000183172
0.00508586
0.00595914
0.00661152
0.00680184
0.00702605
0.0064477
0.00601788
0.00544753
0.00474628
0.00412049
0.00401231
0.00389269
0.00360856
0.00361666
0.00372367
0.00348213
0.00290091
0.00216219
0.000957131
0.00023388
0.00444299
0.00517362
0.00594472
0.00615284
0.0061729
0.0057051
0.0053591
0.00476601
0.00421107
0.00386376
0.0033429
0.00320318
0.00325581
0.00316587
0.003327
0.00317874
0.00261138
0.00209863
0.000780439
2.97853e-06
0.00371819
0.00455872
0.00508964
0.00525589
0.0053069
0.00490526
0.00455502
0.00397237
0.00354353
0.00332074
0.00299719
0.0028295
0.00290746
0.00268661
0.00293666
0.00263368
0.0023775
0.00169502
0.000733487
9.5054e-05
0.00332685
0.00394183
0.00433469
0.00442357
0.00436862
0.00427078
0.00393488
0.00344502
0.00293778
0.00280863
0.00231558
0.00236185
0.00232928
0.0023621
0.00235477
0.00228898
0.00211447
0.0016214
0.00075642
6.30134e-05
0.00275977
0.00306374
0.00322339
0.00346746
0.00366824
0.00311533
0.00328836
0.00271106
0.00253383
0.00210683
0.00169913
0.00192603
0.00196772
0.00166625
0.00212008
0.00205678
0.00150277
0.00114041
0.000881452
0.000122309
0.00174824
0.00213606
0.00243372
0.00268673
0.00264287
0.00257824
0.0022409
0.00212087
0.0018861
0.00172062
0.00157176
0.00139601
0.00152945
0.0014004
0.00138644
0.00136818
0.00113019
0.000856844
0.000408883
6.58205e-05
0.00129165
0.0014031
0.00148002
0.00169784
0.00154042
0.00141767
0.00127959
0.00119568
0.000895196
0.000974901
0.000910204
0.000794982
0.0009167
0.00104385
0.00109851
0.000893526
0.000550796
0.000346088
0.000354275
4.75867e-05
0.000532873
0.000517377
0.000518268
0.000582727
0.000468224
0.000642973
0.000591186
0.000480099
0.000329264
0.000388322
0.000230061
0.00024182
0.000314967
0.000411163
0.000174612
0.000463049
0.000197742
0.000266523
0.000112694
3.46501e-05
0.00306544
0.00389606
0.00465495
0.00527612
0.00557637
0.00555371
0.00523509
0.00464102
0.00425508
0.0039244
0.00341279
0.00330679
0.00322038
0.00283626
0.00250265
0.0024518
0.0013775
0.000380405
0.000772798
0.00228786
0.00243661
0.00344505
0.00418954
0.00463037
0.00487227
0.00486983
0.00450779
0.00410182
0.00365432
0.0033516
0.00306345
0.00299895
0.00267047
0.00256504
0.00253596
0.00195206
0.00140823
0.000384353
0.000875029
0.00204946
0.00234507
0.00280202
0.00390385
0.0040662
0.0041646
0.00401317
0.00392195
0.00376634
0.00329818
0.00276014
0.00267044
0.00243079
0.00250195
0.00237053
0.00231076
0.00151481
0.00113276
0.000357019
0.000655387
0.00137302
0.00183509
0.002582
0.00300877
0.0032724
0.00334541
0.00345418
0.00321231
0.0032465
0.00261934
0.00238172
0.00195041
0.00207206
0.00197927
0.00201666
0.00180551
0.00154993
0.000853787
0.000356266
0.000533153
0.00122765
0.00158316
0.00209469
0.00235389
0.00276076
0.00281208
0.00296004
0.00275594
0.00249996
0.00226964
0.00184639
0.00181255
0.00174808
0.00161188
0.00141871
0.00140492
0.00108957
0.000690658
0.000434142
0.000486496
0.000804776
0.0012057
0.00167475
0.00190834
0.00192029
0.00193979
0.00223127
0.00204889
0.00172557
0.0016213
0.00148725
0.00152805
0.00127338
0.00124225
0.00105102
0.000912219
0.000869982
0.000681881
0.000228383
0.000204481
0.000585544
0.000611052
0.000857783
0.00117267
0.00112675
0.00133122
0.00152356
0.00106348
0.00114842
0.00100691
0.000750335
0.000872071
0.000643253
0.000791792
0.000708653
0.000762365
0.000541469
0.000254375
6.01868e-05
7.341e-05
0.000379777
0.000130134
0.000432867
0.000531313
0.000301319
0.000367317
0.00054634
0.000269929
0.000461498
0.000436839
0.000178379
0.000296675
0.000194393
0.000458379
0.000259293
0.000257107
0.000283053
7.85626e-05
9.36834e-05
2.61151e-05
3.71947e-05
5.51606e-05
0.00113879
0.00244005
0.00325858
0.00372038
0.00386885
0.00351666
0.00363808
0.00284485
0.00260252
0.00239267
0.00198339
0.00181083
0.00137354
0.000902493
8.568e-05
0.000781664
0.00211923
0.00354814
0.0051863
5.28714e-05
0.00125883
0.00221413
0.00298218
0.00327949
0.00354627
0.00328047
0.00301053
0.00284736
0.00251188
0.00215906
0.00185462
0.00151924
0.00116483
0.000846269
0.000102383
0.000620738
0.00175205
0.00313384
0.00430875
3.87249e-06
0.000998611
0.00186279
0.00247186
0.00278736
0.00294412
0.00271815
0.00257238
0.00224035
0.00212755
0.00186998
0.00152427
0.00131073
0.000979489
0.000672626
4.62592e-05
0.000462723
0.0013177
0.00253399
0.00375901
0.000269803
0.000914089
0.00154924
0.0019836
0.00221303
0.00252418
0.00232403
0.00208012
0.00190502
0.00205876
0.00157376
0.0013828
0.00124504
0.000922932
0.000637024
0.00017112
0.00058917
0.00100887
0.002029
0.00314331
4.80455e-05
0.000674126
0.00131603
0.00139807
0.00189373
0.00205582
0.00200832
0.00190668
0.00160157
0.00134102
0.00134068
0.00118651
0.000905499
0.000762825
0.000620716
0.000259735
0.000466109
0.000756964
0.00159689
0.00229258
6.17767e-05
0.000793209
0.000927785
0.00106848
0.00128582
0.00140542
0.00132875
0.00142035
0.00107667
0.00113279
0.00110905
0.00074137
0.000598794
0.000684681
0.00046084
9.8509e-05
8.7156e-05
0.000749768
0.00113473
0.0017482
9.09693e-05
0.00027716
0.000511419
0.000609957
0.00081451
0.000943497
0.000749314
0.000819077
0.000771094
0.000700694
0.000714567
0.000605315
0.000525005
0.000230056
0.000408799
0.000131212
2.11462e-05
0.000494293
0.000792524
0.00098906
2.50099e-05
1.69507e-05
0.000351239
7.03183e-05
0.000173075
0.000337433
0.000213922
0.000506498
0.000380719
0.000106455
0.000219375
5.54042e-05
6.95576e-05
0.000180704
0.000126212
0.00011584
5.3353e-05
0.00014264
0.000306687
0.000588505
0.0032639
0.00173632
0.000425731
0.000650973
0.00109812
0.001469
0.00160261
0.00134273
0.00102902
0.00071579
0.000539478
2.86913e-05
0.000270131
0.000982488
0.00157984
0.00248458
0.00362859
0.0049898
0.00674724
0.00854162
0.00280938
0.00165148
0.000437546
0.000390855
0.00107081
0.00122015
0.00122261
0.00108269
0.000973604
0.00069714
0.000397241
3.757e-05
0.000244708
0.000926418
0.00131097
0.00208823
0.00321227
0.00439026
0.00576808
0.0073063
0.00228951
0.00154704
0.000340215
0.000296867
0.000872814
0.00102533
0.000978741
0.000886268
0.00100156
0.000578982
0.000506139
0.000284292
1.8112e-05
0.000590218
0.00102525
0.00171386
0.00271346
0.00382171
0.00512946
0.00638186
0.00206235
0.00114874
0.000249598
0.000682695
0.000752941
0.000966835
0.000912233
0.000978333
0.000871912
0.000840477
0.000487813
4.8196e-06
6.10133e-05
0.000409934
0.00085098
0.00146015
0.00197072
0.00302203
0.00414968
0.00526544
0.00146686
0.00112007
0.000196254
0.000147185
0.000433886
0.000848718
0.000702052
0.000653504
0.000740854
0.00057144
0.000100114
0.000119168
7.19988e-05
0.000266758
0.000594505
0.00133264
0.00176794
0.00247543
0.00304661
0.0040888
0.00119355
0.000783394
0.00016753
0.000240643
0.000452098
0.00064506
0.000651633
0.000503234
0.000543675
0.000134369
0.000357313
0.000186176
5.27818e-05
0.000311662
0.00051353
0.000821325
0.00114949
0.00158515
0.00259228
0.00293461
0.00075357
0.000404172
0.000217613
5.79435e-05
0.000107472
0.000294864
0.000401113
0.000243182
0.000104118
0.000203891
1.23598e-05
0.000146595
7.1063e-05
0.000119794
7.71307e-05
0.000405466
0.000835477
0.0010196
0.00144744
0.00190715
4.71309e-05
0.000121164
5.16168e-06
9.1103e-05
0.000120015
0.000165553
0.000228832
0.000354817
0.000126222
0.00011799
6.40738e-06
0.000110483
0.000139419
0.000180927
1.67369e-05
0.000358319
0.000259989
0.000327089
0.000716496
0.000802864
0.00728013
0.00572942
0.00415907
0.0029135
0.00209594
0.00164614
0.00122981
0.00126902
0.00128273
0.00165329
0.00225654
0.00272433
0.00309049
0.00359483
0.0045501
0.00567356
0.00700466
0.00864714
0.0107155
0.012453
0.00633449
0.005055
0.00385901
0.00253988
0.00189758
0.00137998
0.00126027
0.00112486
0.00120278
0.00170131
0.00177337
0.00224667
0.00269328
0.00326471
0.0039459
0.00481281
0.0060916
0.00749512
0.00930364
0.010998
0.00534577
0.00426754
0.003095
0.00220267
0.00164199
0.00120313
0.000910248
0.00102791
0.00105368
0.00113902
0.00141113
0.00212607
0.00228474
0.00265581
0.00346401
0.00428959
0.00535063
0.00639747
0.00778301
0.0094853
0.0044727
0.00348803
0.0026057
0.00179826
0.00128087
0.00114885
0.000857032
0.000837034
0.000968849
0.000911542
0.00134078
0.00159115
0.00170831
0.00234328
0.00303985
0.00345132
0.00433383
0.00539305
0.00671267
0.0077279
0.00354064
0.00293816
0.00215062
0.00165463
0.00110488
0.000896185
0.000675406
0.000686652
0.000603599
0.000694638
0.000975348
0.00131316
0.00149453
0.00164068
0.0023558
0.00265154
0.00328166
0.00426621
0.00524088
0.00608201
0.0024525
0.00198378
0.00139916
0.000955619
0.000716261
0.000640561
0.000434551
0.000416037
0.000581455
0.000730515
0.000803143
0.000991979
0.000984398
0.00147978
0.0014984
0.00184197
0.002621
0.00300318
0.00386954
0.00433359
0.00152745
0.00126578
0.000981167
0.000654819
0.0005613
0.000307553
0.000428148
0.00014111
0.00046342
0.000175318
0.000404909
0.000396208
0.000554607
0.000661802
0.00112762
0.0010276
0.00152171
0.00188324
0.00216617
0.00273461
0.000546231
0.000487843
0.000421916
0.000177952
0.000251063
0.000208257
0.000215833
0.000164016
0.000104729
0.000103295
7.02403e-05
6.11513e-05
0.000105067
0.000267027
0.000484872
0.000392635
0.000540447
0.000836185
0.000763932
0.00107919
0.0116044
0.0101245
0.00834461
0.00692856
0.00631702
0.0052498
0.00480852
0.00492584
0.00484103
0.00508199
0.00543739
0.00591664
0.00638481
0.00736932
0.00829414
0.00940197
0.0109147
0.0128085
0.0150623
0.0168769
0.0102804
0.00874512
0.00742109
0.00636035
0.0054016
0.00452491
0.00423919
0.00407249
0.00420697
0.00452141
0.00489813
0.00505129
0.00576403
0.0064433
0.00731733
0.008156
0.00977656
0.0112408
0.0130957
0.0148751
0.00890518
0.00739058
0.00621935
0.00530988
0.00452977
0.00395763
0.00384654
0.00354347