/*--------------------------------*- C++ -*----------------------------------*\
| =========                 |                                                 |
| \\      /  F ield         | OpenFOAM: The Open Source CFD Toolbox           |
|  \\    /   O peration     | Version:  2212                                  |
|   \\  /    A nd           | Website:  www.openfoam.com                      |
|    \\/     M anipulation  |                                                 |
\*---------------------------------------------------------------------------*/
FoamFile
{
    version     2.0;
    format      ascii;
    arch        "LSB;label=32;scalar=64";
    class       volScalarField;
    location    "0";
    object      stateMean;
}
// * * * * * * * * * * * * * * * * * * * * * * * * * * * * * * * * * * * * * //

dimensions      [0 0 0 1 0 0 0];

internalField   nonuniform List<scalar> 
3200
(
341.114
341.959
342.789
343.615
344.326
344.834
345.225
345.506
345.771
345.833
345.771
345.486
345.243
344.796
344.298
343.541
342.84
341.912
341.105
340.158
335.753
336.461
337.232
337.869
338.474
338.927
339.357
339.614
339.72
339.774
339.673
339.537
339.309
338.953
338.441
337.887
337.225
336.434
335.584
334.918
330.407
330.909
331.555
332.068
332.61
332.944
333.321
333.544
333.655
333.754
333.661
333.535
333.229
332.952
332.484
332.038
331.496
330.875
330.193
329.562
324.89
325.37
325.853
326.301
326.71
327.058
327.256
327.566
327.602
327.563
327.556
327.452
327.288
326.994
326.703
326.315
325.781
325.265
324.774
324.267
319.376
319.787
320.145
320.51
320.827
321.066
321.3
321.411
321.512
321.484
321.475
321.445
321.24
321.009
320.81
320.502
320.132
319.75
319.243
318.855
313.929
314.073
314.382
314.652
314.855
315.141
315.192
315.321
315.35
315.388
315.373
315.302
315.124
315.023
314.924
314.693
314.354
314.075
313.782
313.527
308.354
308.539
308.65
308.782
308.97
309.03
309.116
309.18
309.203
309.264
309.26
309.149
309.096
309.087
308.976
308.844
308.627
308.452
308.246
308.145
302.777
302.865
302.853
303.025
303.043
303.026
303.014
303.067
303.132
303.065
303.091
303.052
303.001
303.068
302.922
302.985
302.927
302.861
302.715
302.692
342.135
343.013
343.859
344.772
345.383
345.951
346.374
346.707
346.917
346.986
346.99
346.732
346.461
345.921
345.329
344.777
343.919
343.014
342.119
341.259
336.705
337.306
338.065
338.793
339.349
339.905
340.286
340.594
340.682
340.655
340.764
340.502
340.186
339.871
339.38
338.822
338.032
337.275
336.434
335.874
331.07
331.58
332.296
332.864
333.364
333.784
334.052
334.249
334.462
334.553
334.423
334.334
334.056
333.748
333.28
332.85
332.278
331.543
330.962
330.268
325.458
325.938
326.39
326.853
327.331
327.679
327.928
328.108
328.191
328.266
328.209
328.11
327.927
327.562
327.249
326.795
326.383
325.899
325.261
324.722
319.831
320.206
320.504
320.918
321.264
321.513
321.667
321.792
321.973
321.96
321.929
321.863
321.639
321.458
321.216
320.868
320.573
320.133
319.698
319.265
314.173
314.378
314.702
314.968
315.192
315.4
315.587
315.539
315.744
315.711
315.719
315.607
315.551
315.38
315.224
314.954
314.717
314.388
314.089
313.851
308.472
308.633
308.832
309.018
309.133
309.252
309.321
309.397
309.442
309.389
309.423
309.382
309.331
309.25
309.086
309.029
308.862
308.613
308.448
308.295
302.914
302.905
302.955
302.976
303.026
303.121
303.125
303.188
303.137
303.149
303.105
303.11
303.161
303.094
303.055
302.965
302.984
302.876
302.89
302.827
343.588
344.416
345.377
346.093
346.849
347.495
347.968
348.239
348.429
348.561
348.53
348.25
347.958
347.494
346.844
346.168
345.402
344.459
343.451
342.501
337.777
338.563
339.275
339.951
340.584
341.096
341.606
341.848
341.965
342.091
341.981
341.82
341.579
341.177
340.67
340.004
339.335
338.482
337.678
336.931
332.022
332.664
333.274
333.909
334.448
334.845
335.194
335.459
335.505
335.615
335.516
335.399
335.183
334.838
334.396
333.885
333.212
332.568
331.805
331.27
326.203
326.734
327.2
327.716
328.083
328.511
328.816
328.998
329.072
329.147
329.074
328.908
328.684
328.47
328.073
327.705
327.17
326.737
326.032
325.571
320.414
320.793
321.219
321.55
321.887
322.215
322.384
322.564
322.675
322.649
322.618
322.54
322.367
322.197
321.838
321.497
321.168
320.712
320.265
319.857
314.604
314.897
315.132
315.377
315.627
315.808
315.985
316.129
316.175
316.227
316.192
316.133
316.028
315.823
315.573
315.362
315.148
314.882
314.522
314.175
308.726
308.938
309.15
309.257
309.423
309.543
309.554
309.668
309.677
309.701
309.745
309.645
309.578
309.477
309.394
309.261
309.089
308.852
308.679
308.547
302.927
302.963
303.051
303.171
303.134
303.19
303.202
303.211
303.174
303.224
303.167
303.267
303.24
303.163
303.163
303.122
303.045
302.94
302.948
302.936
345.132
345.941
346.904
347.747
348.469
349.083
349.621
350.011
350.22
350.218
350.178
349.942
349.643
349.15
348.555
347.807
346.888
346.044
344.973
344.057
339.061
339.885
340.626
341.456
342.099
342.517
342.918
343.297
343.416
343.522
343.423
343.262
343.007
342.6
342.02
341.393
340.673
339.815
338.996
338.166
333.075
333.722
334.394
335.087
335.593
335.99
336.32
336.637
336.753
336.796
336.698
336.559
336.386
335.932
335.567
334.961
334.41
333.682
332.936
332.256
327.081
327.629
328.128
328.659
329.116
329.447
329.774
329.952
330.092
330.088
330.115
329.971
329.742
329.451
329.057
328.679
328.112
327.536
326.924
326.399
321.105
321.383
321.982
322.326
322.677
322.908
323.137
323.304
323.357
323.423
323.343
323.278
323.094
322.839
322.577
322.296
321.857
321.421
320.864
320.561
315.019
315.402
315.687
315.856
316.139
316.386
316.596
316.599
316.759
316.777
316.736
316.639
316.547
316.352
316.139
315.882
315.67
315.34
314.937
314.643
309.098
309.256
309.363
309.503
309.716
309.847
309.949
310.004
310.115
310.026
310.061
309.936
309.967
309.774
309.752
309.507
309.391
309.249
309.009
308.872
303.063
303.097
303.157
303.259
303.266
303.331
303.283
303.349
303.365
303.428
303.325
303.37
303.298
303.299
303.269
303.164
303.093
303.121
303.02
302.909
346.485
347.414
348.406
349.366
350.106
350.83
351.233
351.621
351.832
351.916
351.875
351.628
351.349
350.813
350.211
349.41
348.521
347.576
346.496
345.505
340.307
341.172
341.991
342.794
343.493
344.028
344.432
344.728
344.939
345.002
344.924
344.746
344.426
343.998
343.461
342.836
342.053
341.171
340.23
339.438
334.204
334.817
335.59
336.232
336.679
337.231
337.58
337.841
337.996
338.003
337.989
337.834
337.565
337.155
336.803
336.148
335.603
334.744
334.017
333.345
327.953
328.552
329.026
329.649
330.07
330.416
330.79
331.001
331.05
331.12
331.063
330.996
330.802
330.467
330.046
329.552
329.016
328.493
327.912
327.231
321.74
322.137
322.628
322.98
323.431
323.663
323.924
324.099
324.217
324.177
324.093
324.036
323.933
323.695
323.39
322.994
322.578
322.156
321.651
321.223
315.58
315.779
316.161
316.513
316.719
316.881
317.087
317.247
317.286
317.296
317.23
317.234
317.092
316.888
316.642
316.386
316.119
315.86
315.494
315.192
309.333
309.496
309.787
309.839
310.028
310.193
310.241
310.306
310.372
310.374
310.332
310.302
310.191
310.188
310.054
309.877
309.677
309.515
309.307
309.141
303.14
303.178
303.262
303.308
303.382
303.392
303.419
303.465
303.483
303.528
303.496
303.511
303.503
303.416
303.416
303.33
303.291
303.168
303.095
303.015
348.005
349.018
349.947
350.912
351.792
352.46
352.978
353.264
353.493
353.573
353.562
353.325
352.949
352.39
351.834
351.016
350.135
349.004
348.01
346.994
341.646
342.413
343.318
344.165
344.804
345.423
345.803
346.194
346.369
346.419
346.435
346.191
345.885
345.419
344.836
344.196
343.352
342.478
341.536
340.7
335.321
335.907
336.713
337.337
337.988
338.487
338.82
339.056
339.257
339.278
339.204
339.132
338.798
338.41
337.956
337.38
336.694
335.922
335.19
334.485
328.839
329.457
330.019
330.61
331
331.431
331.775
331.97
332.089
332.115
332.095
331.973
331.733
331.37
331.038
330.533
330.005
329.367
328.718
328.218
322.481
322.875
323.375
323.771
324.162
324.454
324.712
324.891
324.93
324.988
324.976
324.84
324.632
324.448
324.109
323.736
323.284
322.944
322.335
321.956
316.1
316.361
316.706
316.955
317.305
317.494
317.643
317.728
317.82
317.847
317.803
317.801
317.625
317.455
317.276
316.945
316.639
316.405
316.004
315.705
309.636
309.802
310.036
310.182
310.31
310.48
310.572
310.71
310.688
310.733
310.742
310.71
310.539
310.449
310.38
310.215
310.045
309.763
309.604
309.418
303.301
303.29
303.333
303.423
303.518
303.554
303.573
303.583
303.582
303.615
303.653
303.519
303.554
303.496
303.435
303.378
303.399
303.312
303.251
303.185
349.423
350.395
351.451
352.443
353.249
354.007
354.496
354.955
355.171
355.127
355.179
354.998
354.545
354.083
353.356
352.569
351.582
350.551
349.423
348.367
342.896
343.73
344.591
345.46
346.114
346.798
347.286
347.558
347.805
347.909
347.799
347.633
347.262
346.796
346.21
345.537
344.705
343.827
342.776
341.905
336.298
336.984
337.727
338.474
339
339.609
339.963
340.229
340.364
340.43
340.436
340.282
339.923
339.552
339.087
338.483
337.8
336.996
336.208
335.451
329.704
330.177
330.903
331.548
331.963
332.38
332.66
332.94
333.055
333.14
333.067
332.904
332.718
332.354
331.945
331.438
330.971
330.215
329.585
329.047
323.132
323.564
323.989
324.497
324.929
325.148
325.487
325.582
325.717
325.743
325.727
325.613
325.38
325.245
324.824
324.493
324.074
323.524
323.067
322.54
316.561
316.836
317.23
317.49
317.741
317.977
318.206
318.282
318.394
318.371
318.37
318.303
318.195
317.953
317.746
317.487
317.151
316.881
316.418
316.053
309.9
310.107
310.305
310.522
310.723
310.813
310.902
310.989
310.989
311.079
311.027
310.997
310.866
310.724
310.594
310.408
310.289
310.104
309.825
309.746
303.292
303.427
303.397
303.504
303.636
303.659
303.641
303.707
303.684
303.75
303.69
303.722
303.621
303.616
303.591
303.492
303.4
303.375
303.368
303.272
350.84
351.767
352.875
353.932
354.833
355.488
356.068
356.513
356.742
356.774
356.789
356.544
356.137
355.582
354.882
354.072
353.059
351.988
350.781
349.72
344.121
344.893
345.789
346.77
347.53
348.099
348.607
348.949
349.183
349.246
349.165
349.003
348.525
348.183
347.577
346.865
345.947
345.049
344.022
343.089
337.339
337.982
338.838
339.518
340.134
340.73
341.123
341.352
341.592
341.607
341.52
341.436
341.093
340.78
340.225
339.613
338.892
338.005
337.205
336.442
330.554
331.151
331.743
332.423
332.807
333.24
333.586
333.848
333.968
334.038
334.013
333.83
333.615
333.292
332.877
332.291
331.756
331.104
330.401
329.786
323.723
324.227
324.679
325.204
325.593
325.934
326.135
326.29
326.468
326.51
326.449
326.34
326.17
325.87
325.545
325.145
324.626
324.203
323.666
323.165
316.979
317.353
317.643
317.912
318.306
318.465
318.658
318.844
318.882
318.957
318.888
318.771
318.741
318.54
318.298
318.009
317.626
317.247
316.964
316.575
310.203
310.374
310.58
310.814
310.96
311.095
311.27
311.26
311.401
311.336
311.335
311.282
311.202
311.105
310.927
310.782
310.578
310.369
310.144
309.984
303.479
303.47
303.531
303.623
303.722
303.693
303.732
303.896
303.796
303.837
303.807
303.769
303.775
303.669
303.694
303.641
303.6
303.471
303.389
303.343
352.188
353.179
354.326
355.241
356.27
357
357.569
357.961
358.228
358.312
358.27
358.025
357.552
357.078
356.319
355.497
354.512
353.291
352.225
351.087
345.217
346.037
347.077
347.992
348.734
349.376
349.847
350.217
350.553
350.501
350.454
350.255
349.936
349.405
348.791
347.988
347.121
346.195
345.192
344.229
338.349
339.049
339.844
340.568
341.269
341.779
342.211
342.478
342.709
342.756
342.689
342.538
342.203
341.741
341.286
340.627
339.879
338.982
338.152
337.4
331.334
331.997
332.609
333.212
333.761
334.141
334.54
334.715
334.905
334.989
334.917
334.697
334.553
334.183
333.774
333.247
332.578
331.965
331.239
330.587
324.45
324.872
325.334
325.865
326.275
326.57
326.855
327.016
327.192
327.166
327.105
327.007
326.857
326.538
326.251
325.854
325.401
324.845
324.274
323.799
317.473
317.746
318.078
318.434
318.794
318.958
319.243
319.375
319.385
319.493
319.437
319.318
319.198
319.01
318.769
318.405
318.094
317.776
317.314
317.033
310.426
310.714
310.9
311.083
311.203
311.363
311.543
311.597
311.738
311.676
311.66
311.585
311.525
311.47
311.265
311.058
310.84
310.607
310.521
310.202
303.494
303.577
303.687
303.747
303.749
303.768
303.79
303.875
303.897
303.883
303.939
303.877
303.814
303.801
303.784
303.686
303.664
303.574
303.5
303.449
353.459
354.408
355.605
356.705
357.561
358.365
358.974
359.43
359.661
359.753
359.709
359.452
359.098
358.519
357.762
356.805
355.797
354.624
353.362
352.312
346.312
347.213
348.211
349.18
349.891
350.522
351.113
351.442
351.748
351.692
351.676
351.453
351.107
350.631
349.963
349.172
348.29
347.363
346.241
345.285
339.283
339.954
340.793
341.567
342.225
342.847
343.186
343.468
343.731
343.766
343.686
343.564
343.19
342.751
342.272
341.67
340.839
340.024
339.094
338.351
332.044
332.66
333.328
334.012
334.533
334.985
335.376
335.593
335.791
335.841
335.652
335.604
335.327
334.97
334.575
334.083
333.441
332.78
331.981
331.308
325.048
325.488
325.966
326.443
326.838
327.212
327.498
327.638
327.815
327.869
327.806
327.717
327.468
327.209
326.905
326.424
326.038
325.471
324.856
324.354
317.829
318.236
318.491
318.905
319.216
319.454
319.619
319.79
319.831
319.933
319.869
319.815
319.632
319.491
319.25
318.838
318.531
318.091
317.766
317.42
310.739
310.898
311.133
311.38
311.538
311.721
311.819
311.891
311.926
311.966
311.925
311.987
311.801
311.708
311.534
311.411
311.148
310.881
310.722
310.476
303.554
303.691
303.692
303.839
303.792
303.908
303.952
303.956
303.945
304.056
304.014
303.979
303.967
303.96
303.848
303.811
303.739
303.716
303.553
303.553
354.504
355.666
356.82
357.886
358.915
359.721
360.264
360.671
360.964
361.125
361.029
360.806
360.327
359.726
359.048
358.099
357.092
355.845
354.597
353.46
347.253
348.185
349.222
350.154
351.05
351.624
352.215
352.62
352.804
352.855
352.801
352.604
352.277
351.682
351.081
350.296
349.375
348.348
347.267
346.267
340.059
340.788
341.666
342.424
343.148
343.733
344.196
344.532
344.668
344.783
344.618
344.465
344.2
343.773
343.212
342.54
341.812
340.882
339.985
339.14
332.792
333.401
334.083
334.734
335.189
335.775
336.127
336.406
336.533
336.628
336.523
336.405
336.125
335.715
335.283
334.825
334.157
333.442
332.672
331.996
325.481
326.038
326.438
326.975
327.44
327.805
328.069
328.292
328.461
328.491
328.364
328.236
328.048
327.833
327.455
327.022
326.598
325.923
325.363
324.895
318.252
318.629
318.924
319.331
319.597
319.858
320.096
320.236
320.239
320.302
320.295
320.193
320.066
319.894
319.629
319.291
318.994
318.617
318.157
317.753
310.973
311.172
311.447
311.599
311.807
311.912
312.098
312.124
312.187
312.182
312.199
312.145
312.011
311.923
311.83
311.599
311.366
311.186
310.861
310.61
303.652
303.732
303.861
303.868
303.987
304.051
304.08
304.068
304.078
304.073
304.055
304.069
304.033
304.059
303.903
303.874
303.824
303.707
303.665
303.514
355.628
356.672
357.903
359.029
359.991
360.855
361.494
361.999
362.299
362.353
362.246
362.011
361.617
360.972
360.263
359.295
358.22
357.016
355.644
354.499
348.247
349.187
350.228
351.218
352.04
352.706
353.221
353.657
353.818
353.952
353.939
353.692
353.369
352.736
352.2
351.306
350.366
349.313
348.186
347.201
340.794
341.63
342.414
343.344
343.985
344.576
345.043
345.362
345.584
345.628
345.571
345.339
345.135
344.707
344.011
343.37
342.597
341.745
340.748
339.924
333.436
334.116
334.746
335.463
336.02
336.493
336.834
337.126
337.25
337.367
337.335
337.09
336.914
336.492
336.059
335.497
334.785
334.116
333.327
332.726
325.91
326.427
327.03
327.594
327.997
328.415
328.641
328.87
329.007
328.969
328.939
328.918
328.612
328.359
328.032
327.532
327.094
326.519
325.942
325.433
318.604
318.929
319.314
319.658
320.04
320.259
320.462
320.651
320.75
320.693
320.764
320.578
320.499
320.312
320.024
319.67
319.318
318.957
318.579
318.18
311.149
311.36
311.596
311.875
312.072
312.205
312.33
312.376
312.443
312.429
312.407
312.379
312.349
312.224
312.042
311.815
311.609
311.366
311.071
310.874
303.799
303.776
303.865
303.982
304.071
304.089
304.152
304.151
304.254
304.161
304.138
304.125
304.196
304.066
304.063
303.969
303.9
303.788
303.722
303.65
356.625
357.737
359.004
360.13
361.132
361.953
362.595
363.04
363.316
363.489
363.406
363.118
362.723
362.041
361.277
360.45
359.3
358.041
356.661
355.446
349.073
350.044
351.091
352.138
352.949
353.682
354.266
354.645
354.927
355.004
354.93
354.732
354.331
353.813
353.094
352.241
351.306
350.265
349.14
348.066
341.527
342.396
343.253
344.077
344.801
345.432
345.925
346.22
346.411
346.544
346.46
346.23
345.927
345.415
344.936
344.219
343.389
342.421
341.52
340.658
333.989
334.643
335.414
336.05
336.685
337.14
337.553
337.799
337.965
337.979
337.964
337.822
337.526
337.18
336.684
336.14
335.452
334.693
333.921
333.279
326.437
326.957
327.478
328.107
328.488
328.85
329.165
329.453
329.587
329.571
329.523
329.416
329.231
328.94
328.527
328.148
327.498
326.994
326.368
325.878
318.893
319.32
319.659
320.029
320.424
320.649
320.795
321.005
321.1
321.154
321.099
321.023
320.837
320.616
320.413
320.024
319.655
319.256
318.908
318.468
311.511
311.575
311.797
312.041
312.223
312.35
312.6
312.632
312.66
312.68
312.662
312.549
312.531
312.385
312.287
312.025
311.811
311.589
311.348
311.024
303.864
303.868
304.048
304.039
304.049
304.168
304.235
304.214
304.255
304.263
304.187
304.202
304.237
304.178
304.094
304.112
303.998
303.874
303.768
303.706
357.544
358.631
359.92
361.114
362.125
362.931
363.698
364.141
364.421
364.533
364.481
364.15
363.738
363.096
362.301
361.425
360.186
358.902
357.663
356.383
349.898
350.786
351.857
352.918
353.847
354.524
355.141
355.485
355.78
355.88
355.804
355.532
355.182
354.633
353.944
353.125
352.161
350.963
349.843
348.774
342.235
343
343.994
344.729
345.519
346.166
346.588
346.93
347.235
347.317
347.225
346.948
346.616
346.158
345.62
344.948
344.107
343.139
342.18
341.323
334.588
335.224
336.002
336.602
337.279
337.756
338.096
338.452
338.609
338.672
338.51
338.439
338.114
337.746
337.251
336.633
336.065
335.301
334.452
333.759
326.921
327.437
327.966
328.475
328.944
329.386
329.71
329.845
330.052
330.057
329.993
329.896
329.728
329.367
329.051
328.524
328.058
327.4
326.805
326.299
319.203
319.586
319.979
320.33
320.709
320.961
321.256
321.323
321.414
321.423
321.484
321.308
321.158
320.941
320.75
320.419
319.982
319.533
319.147
318.759
311.453
311.753
312.018
312.295
312.506
312.607
312.669
312.9
312.883
312.934
312.931
312.796
312.747
312.607
312.443
312.235
312.03
311.755
311.537
311.302
303.812
303.925
304.011
304.084
304.143
304.245
304.25
304.262
304.357
304.313
304.317
304.286
304.313
304.245
304.252
304.148
304.059
303.918
303.808
303.75
358.291
359.404
360.774
361.995
362.993
363.762
364.554
364.996
365.3
365.406
365.316
365.092
364.629
364.046
363.195
362.265
361.11
359.82
358.405
357.207
350.53
351.55
352.617
353.69
354.642
355.342
355.902
356.297
356.531
356.643
356.563
356.344
355.958
355.425
354.664
353.853
352.906
351.78
350.57
349.561
342.779
343.589
344.578
345.416
346.178
346.808
347.279
347.698
347.847
347.957
347.911
347.666
347.333
346.856
346.277
345.488
344.603
343.736
342.72
341.939
335.103
335.685
336.427
337.15
337.792
338.303
338.665
338.942
339.101
339.209
339.17
338.993
338.651
338.364
337.884
337.207
336.499
335.817
334.963
334.249
327.301
327.771
328.327
328.961
329.403
329.815
330.039
330.325
330.467
330.47
330.432
330.327
330.065
329.759
329.437
329.027
328.406
327.821
327.164
326.627
319.486
319.805
320.301
320.674
320.986
321.266
321.543
321.64
321.704
321.747
321.778
321.72
321.478
321.292
321.018
320.733
320.227
319.847
319.415
319.056
311.664
311.926
312.056
312.404
312.581
312.813
312.902
313.058
313.052
313.066
313.038
312.972
313.005
312.769
312.536
312.436
312.166
311.878
311.647
311.415
303.927
303.944
304.077
304.09
304.183
304.282
304.311
304.314
304.352
304.378
304.395
304.345
304.363
304.23
304.21
304.122
304.068
303.944
303.938
303.846
358.971
360.18
361.442
362.72
363.73
364.627
365.328
365.811
366.129
366.282
366.147
365.914
365.375
364.778
363.921
363.041
361.837
360.574
359.129
357.874
351.073
352.1
353.263
354.262
355.195
356.033
356.624
357.045
357.303
357.331
357.265
357.085
356.677
356.082
355.375
354.508
353.496
352.345
351.147
350.099
343.277
344.123
345.066
345.926
346.735
347.411
347.84
348.175
348.454
348.458
348.406
348.281
347.905
347.385
346.84
346.143
345.204
344.288
343.255
342.456
335.499
336.078
336.889
337.647
338.314
338.692
339.147
339.44
339.641
339.7
339.632
339.404
339.156
338.833
338.34
337.744
336.987
336.215
335.368
334.663
327.551
328.081
328.643
329.256
329.687
330.181
330.48
330.653
330.768
330.862
330.85
330.693
330.452
330.171
329.771
329.283
328.826
328.14
327.479
326.955
319.7
320.118
320.535
320.856
321.277
321.48
321.694
321.917
322.009
322.037
322.043
321.871
321.678
321.58
321.237
320.938
320.543
320.124
319.609
319.254
311.81
312.064
312.317
312.584
312.742
312.96
313.1
313.143
313.182
313.233
313.246
313.175
313.067
312.898
312.733
312.539
312.327
312.093
311.812
311.571
303.902
304.047
304.105
304.203
304.271
304.386
304.401
304.412
304.469
304.456
304.425
304.433
304.408
304.361
304.245
304.182
304.168
304.063
303.976
303.847
359.54
360.78
362.076
363.336
364.327
365.243
365.995
366.487
366.87
366.973
366.799
366.568
366.176
365.518
364.576
363.631
362.493
361.093
359.683
358.413
351.671
352.624
353.751
354.821
355.849
356.589
357.189
357.559
357.832
357.916
357.844
357.665
357.279
356.674
355.962
355.081
354.068
352.885
351.667
350.689
343.691
344.515
345.578
346.439
347.191
347.813
348.354
348.695
348.925
349.003
348.912
348.758
348.349
347.898
347.353
346.579
345.68
344.748
343.692
342.936
335.759
336.447
337.155
338.033
338.532
339.073
339.521
339.871
340.056
340.11
340.029
339.893
339.545
339.18
338.688
338.099
337.45
336.528
335.743
335.092
327.765
328.352
328.977
329.496
329.991
330.467
330.792
331.003
331.164
331.203
331.084
330.98
330.813
330.45
330.066
329.547
329.068
328.464
327.811
327.297
319.934
320.313
320.727
321.079
321.506
321.71
321.958
322.158
322.148
322.259
322.272
322.158
321.968
321.739
321.489
321.199
320.803
320.246
319.892
319.518
311.988
312.135
312.459
312.626
312.917
313.079
313.202
313.279
313.379
313.382
313.386
313.363
313.194
313.11
312.852
312.723
312.469
312.191
311.936
311.752
303.954
304.095
304.198
304.226
304.32
304.383
304.452
304.393
304.525
304.502
304.442
304.408
304.425
304.403
304.279
304.254
304.158
304.062
303.92
303.95
359.998
361.23
362.557
363.84
364.929
365.785
366.544
367.014
367.376
367.489
367.426
367.099
366.629
365.996
365.153
364.156
362.992
361.603
360.22
358.987
352.027
353.083
354.194
355.34
356.274
357.011
357.621
358.07
358.351
358.443
358.362
358.084
357.733
357.156
356.408
355.59
354.521
353.366
352.174
351.048
344.082
344.94
345.931
346.728
347.599
348.135
348.771
349.099
349.336
349.404
349.327
349.151
348.763
348.34
347.698
346.949
346.076
345.113
344.065
343.181
336.022
336.678
337.512
338.318
338.92
339.421
339.8
340.158
340.294
340.426
340.365
340.21
339.851
339.496
338.994
338.408
337.639
336.898
336.007
335.319
328.08
328.63
329.215
329.763
330.238
330.645
331.006
331.209
331.371
331.426
331.346
331.226
331.093
330.663
330.336
329.832
329.302
328.601
328.024
327.384
320.062
320.427
320.893
321.213
321.588
321.92
322.16
322.342
322.44
322.461
322.421
322.306
322.171
321.866
321.617
321.393
320.93
320.493
320.015
319.574
312.014
312.263
312.486
312.771
312.999
313.172
313.263
313.401
313.46
313.519
313.501
313.414
313.19
313.214
312.977
312.795
312.569
312.337
311.971
311.765
304.066
304.124
304.152
304.234
304.357
304.381
304.484
304.483
304.504
304.49
304.479
304.492
304.528
304.414
304.327
304.231
304.252
304.093
304.043
303.986
360.312
361.636
362.935
364.226
365.263
366.19
366.898
367.365
367.759
367.82
367.878
367.501
367.058
366.425
365.557
364.479
363.362
362.005
360.603
359.257
352.307
353.352
354.454
355.652
356.635
357.374
357.967
358.432
358.7
358.777
358.685
358.452
357.994
357.504
356.777
355.823
354.854
353.665
352.431
351.346
344.253
345.137
346.137
347.088
347.845
348.459
349.072
349.383
349.711
349.711
349.657
349.355
349.026
348.628
347.978
347.195
346.373
345.376
344.315
343.428
336.303
337.004
337.755
338.5
339.147
339.648
340.076
340.456
340.612
340.645
340.644
340.399
340.176
339.745
339.233
338.673
337.895
337.099
336.241
335.507
328.302
328.722
329.351
329.91
330.466
330.874
331.141
331.409
331.552
331.636
331.49
331.434
331.19
330.932
330.477
329.981
329.479
328.835
328.14
327.664
320.163
320.551
320.987
321.429
321.731
322.043
322.278
322.439
322.523
322.613
322.548
322.427
322.334
322.121
321.818
321.465
321.089
320.678
320.144
319.713
312.08
312.353
312.582
312.885
313.093
313.167
313.377
313.43
313.543
313.586
313.532
313.461
313.438
313.313
313.045
312.809
312.676
312.345
312.058
311.887
304.075
304.182
304.234
304.29
304.376
304.431
304.43
304.53
304.529
304.528
304.539
304.497
304.454
304.39
304.364
304.343
304.279
304.089
304.09
303.951
360.558
361.84
363.194
364.417
365.503
366.451
367.15
367.68
367.962
368.08
368.047
367.759
367.314
366.68
365.811
364.754
363.563
362.226
360.701
359.507
352.498
353.529
354.758
355.799
356.736
357.501
358.123
358.618
358.939
359.054
358.938
358.696
358.261
357.743
357.012
356.081
354.988
353.909
352.692
351.455
344.443
345.314
346.325
347.216
348.007
348.671
349.193
349.55
349.803
349.878
349.816
349.547
349.229
348.794
348.134
347.382
346.523
345.494
344.526
343.593
336.41
337.052
337.911
338.628
339.272
339.808
340.187
340.583
340.738
340.76
340.778
340.567
340.271
339.919
339.326
338.778
338.013
337.167
336.337
335.622
328.369
328.84
329.471
330.016
330.527
331.004
331.214
331.493
331.677
331.761
331.772
331.558
331.297
331.079
330.531
330.113
329.585
328.875
328.26
327.763
320.243
320.649
321.061
321.442
321.871
322.061
322.305
322.491
322.597
322.662
322.642
322.516
322.352
322.146
321.849
321.493
321.085
320.69
320.244
319.789
312.145
312.4
312.679
312.878
313.048
313.294
313.503
313.47
313.597
313.626
313.601
313.59
313.373
313.269
313.157
312.926
312.707
312.379
312.173
311.926
304.094
304.113
304.209
304.352
304.338
304.48
304.505
304.572
304.532
304.595
304.621
304.527
304.515
304.445
304.415
304.307
304.242
304.168
304.063
304.029
)
;

boundaryField
{
    hotSide
    {
        type            fixedGradient;
        gradient        nonuniform List<scalar> 
400
(
321.511
322.87
325.591
329.677
335.133
341.965
350.181
359.788
370.794
383.208
397.037
412.289
428.971
447.088
466.647
487.651
510.105
534.011
559.372
586.191
323.738
325.08
327.767
331.802
337.194
343.949
352.078
361.591
372.498
384.81
398.537
413.687
430.268
448.289
467.755
488.672
511.043
534.872
560.161
586.913
326.149
327.47
330.116
334.091
339.406
346.071
354.099
363.503
374.296
386.491
400.101
415.136
431.606
449.52
468.885
489.706
511.988
535.735
560.948
587.63
328.704
330
332.597
336.503
341.73
348.292
356.205
365.485
376.15
388.215
401.695
416.604
432.954
450.753
470.009
490.73
512.919
536.579
561.714
588.325
331.33
332.599
335.142
338.97
344.099
350.546
358.332
367.477
378.003
389.928
403.271
418.047
434.27
451.949
471.095
491.712
513.807
537.382
562.439
588.978
333.918
335.158
337.643
341.389
346.414
352.74
360.392
369.397
379.779
391.562
404.765
419.407
435.503
453.065
472.101
492.618
514.622
538.114
563.096
589.569
336.321
337.531
339.959
343.622
348.544
354.751
362.274
371.142
381.385
393.031
406.101
420.618
436.595
454.047
472.983
493.409
515.33
538.747
563.663
590.076
338.36
339.543
341.92
345.509
350.339
356.44
363.847
372.595
382.718
394.244
407.2
421.608
437.485
454.844
473.695
494.045
515.897
539.253
564.114
590.478
339.852
341.015
343.352
346.885
351.645
357.665
364.985
373.643
383.675
395.113
407.984
422.312
438.116
455.407
474.197
494.491
516.294
539.606
564.428
590.758
340.643
341.795
344.11
347.613
352.334
358.311
365.584
374.193
384.176
395.567
408.393
422.679
438.443
455.699
474.456
494.722
516.498
539.788
564.589
590.901
340.643
341.795
344.11
347.613
352.334
358.311
365.584
374.193
384.176
395.567
408.393
422.679
438.443
455.699
474.456
494.722
516.498
539.788
564.589
590.901
339.852
341.015
343.352
346.885
351.645
357.665
364.985
373.643
383.675
395.113
407.984
422.312
438.116
455.407
474.197
494.491
516.294
539.606
564.428
590.758
338.36
339.543
341.92
345.509
350.339
356.44
363.847
372.595
382.718
394.244
407.2
421.608
437.485
454.844
473.695
494.045
515.897
539.253
564.114
590.478
336.321
337.531
339.959
343.622
348.544
354.751
362.274
371.142
381.385
393.031
406.101
420.618
436.595
454.047
472.983
493.409
515.33
538.747
563.663
590.076
333.918
335.158
337.643
341.389
346.414
352.74
360.392
369.397
379.779
391.562
404.765
419.407
435.503
453.065
472.101
492.618
514.622
538.114
563.096
589.569
331.33
332.599
335.142
338.97
344.099
350.546
358.332
367.477
378.003
389.928
403.271
418.047
434.27
451.949
471.095
491.712
513.807
537.382
562.439
588.978
328.704
330
332.597
336.503
341.73
348.292
356.205
365.485
376.15
388.215
401.695
416.604
432.954
450.753
470.009
490.73
512.919
536.579
561.714
588.325
326.149
327.47
330.116
334.091
339.406
346.071
354.099
363.503
374.296
386.491
400.101
415.136
431.606
449.52
468.885
489.706
511.988
535.735
560.948
587.63
323.738
325.08
327.767
331.802
337.194
343.949
352.078
361.591
372.498
384.81
398.537
413.687
430.268
448.289
467.755
488.672
511.043
534.872
560.161
586.913
321.511
322.87
325.591
329.677
335.133
341.965
350.181
359.788
370.794
383.208
397.037
412.289
428.971
447.088
466.647
487.651
510.105
534.011
559.372
586.191
)
;
    }
    coldSide
    {
        type            mixed;
        refValue        uniform 300;
        refGradient     uniform 0;
        valueFraction   uniform 0.991591;
        source          uniform 0;
        value           nonuniform List<scalar> 
400
(
300.023
300.025
300.025
300.026
300.026
300.028
300.028
300.029
300.029
300.03
300.031
300.032
300.032
300.032
300.033
300.033
300.033
300.034
300.034
300.034
300.024
300.024
300.025
300.026
300.027
300.028
300.029
300.029
300.03
300.031
300.031
300.032
300.033
300.033
300.033
300.034
300.034
300.035
300.035
300.035