/*--------------------------------*- C++ -*----------------------------------*\
| =========                 |                                                 |
| \\      /  F ield         | OpenFOAM: The Open Source CFD Toolbox           |
|  \\    /   O peration     | Version:  2212                                  |
|   \\  /    A nd           | Website:  www.openfoam.com                      |
|    \\/     M anipulation  |                                                 |
\*---------------------------------------------------------------------------*/
FoamFile
{
    version     2.0;
    format      ascii;
    arch        "LSB;label=32;scalar=64";
    class       volScalarField;
    location    "0";
    object      relativeErrorField;
}
// * * * * * * * * * * * * * * * * * * * * * * * * * * * * * * * * * * * * * //

dimensions      [0 0 0 1 0 0 0];

internalField   nonuniform List<scalar> 
3200
(
0.00497477
0.0054749
0.006214
0.00692237
0.00813038
0.00931703
0.0104207
0.0116183
0.0126277
0.0130455
0.0131318
0.0131705
0.0126909
0.0119494
0.0109187
0.00993465
0.00907584
0.00846657
0.00793756
0.00780434
0.00393938
0.00408528
0.00471069
0.00559001
0.00640834
0.00753951
0.00862425
0.00952485
0.0102062
0.010607
0.010522
0.0108189
0.0104072
0.00982027
0.00904929
0.00824685
0.00750669
0.00695173
0.00663938
0.00622531
0.00306571
0.00323064
0.00367659
0.00451909
0.00510541
0.00619105
0.00697212
0.00765911
0.00856352
0.00897698
0.0089246
0.00880076
0.00839429
0.00805725
0.00738014
0.00667824
0.00618501
0.00563917
0.00532185
0.00517887
0.00230364
0.00259732
0.00270704
0.00331452
0.00404002
0.0048097
0.00553104
0.00617376
0.00690121
0.00694951
0.00720924
0.00714444
0.00653972
0.00618625
0.00557681
0.00534139
0.0047408
0.00438796
0.00426152
0.00414067
0.0017145
0.0015354
0.00224696
0.00252321
0.00306603
0.0036712
0.00405559
0.00469672
0.00502909
0.00532352
0.00547925
0.00544353
0.00528891
0.00482947
0.00441425
0.00424945
0.00364344
0.0033294
0.00303351
0.00320042
0.000930138
0.00113667
0.00148721
0.00180327
0.00215377
0.00232024
0.00269356
0.0029742
0.00345478
0.00388601
0.00397821
0.00380658
0.0034145
0.0033624
0.00290043
0.00296586
0.00243245
0.00250997
0.00195217
0.00205599
0.000622364
0.000585096
0.000689406
0.00107309
0.00140169
0.00163358
0.00165358
0.00197739
0.00220581
0.00233582
0.00241965
0.00211858
0.00223968
0.00218829
0.00175025
0.00174858
0.00142252
0.00147391
0.00127005
0.00116378
0.000315469
0.000371839
0.000101698
0.000217472
0.00089106
0.00054458
0.000690539
0.000635391
0.000854306
0.00075145
0.000777148
0.000691055
0.000733291
0.000872059
0.000573624
0.000360571
0.000349913
0.000338687
0.00039813
0.000385481
0.00302125
0.00345636
0.00405199
0.00466789
0.0058863
0.00709794
0.00810817
0.00946461
0.0103922
0.0107251
0.0109412
0.0107659
0.0103035
0.00954805
0.0087427
0.00797206
0.00727651
0.00613297
0.00597244
0.00583113
0.00220837
0.00268086
0.00307017
0.00369993
0.00458471
0.00575512
0.00674183
0.00750788
0.00855052
0.00885928
0.00922918
0.00898265
0.00844886
0.00783101
0.00711451
0.00650297
0.00561411
0.00511125
0.00479115
0.00488569
0.00188337
0.00177091
0.00225568
0.0027905
0.00377854
0.00464281
0.00569584
0.00628288
0.00687599
0.00727905
0.00736816
0.00705916
0.00681349
0.00671813
0.00579622
0.00508491
0.004467
0.00438826
0.00371184
0.00367197
0.00117745
0.00142714
0.00179964
0.00203119
0.00279104
0.0035006
0.00424011
0.00481219
0.00557006
0.00584507
0.00586102
0.00581416
0.00539661
0.00522424
0.00476841
0.00416658
0.00358806
0.00351608
0.00307406
0.00308141
0.000752574
0.000861991
0.00135275
0.00172068
0.00217144
0.0027332
0.00317297
0.00375042
0.0040857
0.00449643
0.00446796
0.00461579
0.00439253
0.00392864
0.00344776
0.0032582
0.00258225
0.00254511
0.00242718
0.00217591
0.000468142
0.000644018
0.000855003
0.00104455
0.00140657
0.00211658
0.00210981
0.00261899
0.00317607
0.00315805
0.0032154
0.00297035
0.00273871
0.00262354
0.00256277
0.00222711
0.00191819
0.00186696
0.0014633
0.00150704
0.000471193
0.00029851
0.000572867
0.000603119
0.000730789
0.00118283
0.00154189
0.00154914
0.00165768
0.0019332
0.00207848
0.00187023
0.00149792
0.00162922
0.00163744
0.00126805
0.000918085
0.000960178
0.000957008
0.00098954
6.3658e-05
2.28708e-05
0.000214037
0.0001894
0.000220583
0.000730266
0.000429991
0.000505374
0.000671701
0.000290263
0.000809558
0.000577095
0.000736836
0.000658994
0.000506953
0.000492709
0.00036969
0.000393087
0.00025157
0.000320304
0.000924165
0.00109693
0.00125875
0.00221114
0.00317856
0.00435016
0.00542214
0.00642299
0.00736375
0.00779528
0.00808404
0.00754529
0.00713563
0.00659099
0.00586167
0.00503605
0.00433838
0.00390674
0.00362031
0.00330374
0.000366447
0.000673737
0.000907604
0.00168668
0.00215239
0.00331585
0.00431441
0.00528547
0.00600407
0.00639845
0.00647304
0.00642478
0.00586741
0.00546914
0.00460458
0.00397129
0.00338073
0.00293282
0.00279042
0.00268564
9.52033e-06
0.000186636
0.000310716
0.000976976
0.00155161
0.0025573
0.00335361
0.00396078
0.00467285
0.00511213
0.0052934
0.00510717
0.00476306
0.00448591
0.00362583
0.00313258
0.0025705
0.00249282
0.00214054
0.00225015
0.000184992
0.000135649
0.00026089
0.000598323
0.00123696
0.00216165
0.00254825
0.0033046
0.00376019
0.00400324
0.00397352
0.00422352
0.00383774
0.00330637
0.0028261
0.00226711
0.0018645
0.00184371
0.00153897
0.00143895
0.000342839
1.19023e-05
0.000120618
0.000247419
0.000658549
0.00145613
0.00175104
0.00248568
0.00282921
0.00298285
0.00322507
0.00302351
0.0029019
0.00244873
0.00207747
0.00190524
0.00152947
0.00120192
0.00109229
0.00114455
0.000228387
0.000172786
4.39633e-05
0.000136852
0.000664812
0.00103251
0.0011849
0.00160174
0.0018447
0.00186932
0.00216882
0.00191971
0.00205181
0.00172964
0.00137985
0.00128611
0.000857212
0.000796101
0.000673117
0.000745459
0.000432807
9.37928e-05
3.85743e-05
0.000123219
0.000457979
0.000480784
0.000714421
0.000946439
0.00118911
0.0011736
0.00130675
0.0012396
0.00109715
0.00124981
0.000868649
0.00056937
0.000538703
0.00050651
0.000520704
0.000458142
0.000204198
3.05275e-05
5.97457e-05
0.000244248
0.000173253
7.6302e-05
0.000422365
0.000557333
0.000250177
0.000358484
0.000374438
0.000465066
0.000456321
0.000449951
0.000249273
0.000192743
0.000188093
0.000216938
1.64822e-05
0.000125763
0.00153606
0.00142232
0.00128435
0.000540706
6.94273e-05
0.00124808
0.00205474
0.00313816
0.00385294
0.00430143
0.004901
0.00442034
0.00394418
0.00338496
0.00274598
0.00215826
0.00168931
0.00107287
0.000964432
0.0010477
0.00193319
0.00162987
0.00155361
0.000815827
0.000380318
0.000619228
0.00174202
0.00248259
0.00298744
0.00352218
0.00359899
0.0033855
0.00333392
0.00274349
0.00199073
0.00133002
0.000913172
0.000701558
0.000518638
0.000612589
0.00171698
0.00173318
0.00147124
0.000888251
0.000561205
0.000268447
0.000913855
0.00156901
0.00227749
0.00261408
0.00280049
0.00276452
0.00228239
0.00201208
0.00122007
0.00105809
0.000471925
0.000390597
0.00012489
9.76489e-05
0.00182722
0.00157727
0.00142635
0.000968055
0.000375886
2.00072e-05
0.000498623
0.00147619
0.00170273
0.0021188
0.00191739
0.00221327
0.00175662
0.00135625
0.00122768
0.000594605
0.000302175
0.000129862
5.17353e-05
0.000150201
0.00132704
0.0014165
0.00140562
0.000881997
0.000634341
5.62552e-05
0.000279433
0.00104594
0.00123899
0.00153002
0.00150273
0.00161269
0.00114028
0.000908242
0.000764938
0.000565959
0.000234088
0.000117425
0.000173766
0.00017329
0.000987371
0.00114648
0.000916195
0.000656749
0.000294235
1.32475e-05
0.000251512
0.00070508
0.000630583
0.000978214
0.00103499
0.00105108
0.000904634
0.000872436
0.000567005
0.000251792
0.000338944
8.01918e-05
0.000280384
0.000194236
0.000795337
0.000392741
0.000639048
0.000579432
0.000363842
5.98801e-05
0.000104774
0.00027162
0.000540987
0.000677602
0.000715525
0.000515119
0.000569048
0.000513765
0.000120214
0.000113528
0.000110743
0.000120271
7.57546e-05
2.36516e-05
0.00027967
0.000304987
0.000204811
0.000288845
0.000138593
0.000188373
8.8092e-05
0.000201653
0.000112784
0.000177895
0.00019272
0.000217743
4.66427e-05
2.75549e-05
0.000183746
1.23559e-05
8.0302e-05
5.4752e-05
4.1089e-05
0.000109692
0.00430894
0.00391152
0.00363475
0.00338452
0.00286904
0.00174283
0.000604008
9.1529e-05
0.000686324
0.00127448
0.0013795
0.00135146
0.00106074
0.000390364
6.44727e-05
0.000818416
0.00116473
0.00125373
0.00159913
0.00151234
0.00393725
0.00390861
0.00369787
0.00306766
0.0028178
0.00180535
0.00110427
0.00042083
0.000141509
0.000706526
0.000768791
0.00071741
0.000359132
5.20307e-05
0.000590046
0.00108694
0.00151793
0.00169975
0.00171621
0.00172155
0.00357467
0.00355041
0.00357409
0.00291492
0.00247515
0.00196479
0.00123396
0.000726962
4.69796e-05
8.33835e-05
0.00022728
0.000438846
0.000130658
0.00031838
0.000615938
0.00127162
0.00155695
0.00168707
0.00167606
0.00147213
0.00297048
0.0032379
0.00304797
0.0030048
0.00233479
0.00175818
0.00149324
0.000715405
0.000277562
0.00013302
0.000195201
1.38044e-05
0.00016685
0.00058721
0.000694271
0.00111832
0.00142806
0.0017378
0.00142697
0.00164976
0.00280306
0.00250077
0.00230051
0.00230235
0.00186283
0.00157634
0.00111861
0.000732399
0.000248478
0.000451209
0.000152377
0.000118965
0.000510869
0.000542144
0.000662547
0.00106487
0.00103526
0.00119047
0.00129648
0.00124966
0.00182392
0.00181786
0.00201218
0.00171163
0.00125317
0.00117367
0.000830116
0.000559289
0.000420403
6.59718e-05
9.18318e-05
2.61958e-05
0.00016422
0.000163124
0.000591526
0.000669935
0.000822152
0.000904024
0.000885019
0.000813257
0.00117197
0.00137992
0.0010258
0.00105001
0.000696685
0.000565427
0.000655157
0.000453276
3.03026e-05
1.6816e-05
0.000158378
0.000183498
0.000298207
0.000379659
0.000246393
0.000249275
0.00057396
0.00061447
0.000723263
0.000668441
0.000259566
0.000351013
0.000399638
0.000365566
0.000251333
0.000130264
0.000191985
0.000251958
2.20203e-05
1.83508e-05
5.9194e-05
0.000102938
7.16484e-05
0.000277202
0.000440342
0.000267622
0.00020266
0.000278452
0.000474365
0.000106979
0.0063403
0.00632744
0.00597102
0.00586292
0.00499663
0.00451
0.00349402
0.00281344
0.00233872
0.00208704
0.00163124
0.0017654
0.00211644
0.00236766
0.00298475
0.0032563
0.00372545
0.00393573
0.00379139
0.00349257
0.00581547
0.00599993
0.00560662
0.00527263
0.00508324
0.0044248
0.00364108
0.0030061
0.00234948
0.00211227
0.00213097
0.0020138
0.00215382
0.0024627
0.00303431
0.00320699
0.00358569
0.00362942
0.00378446
0.00333505
0.00513211
0.00539209
0.00507225
0.00483136
0.00454904
0.00383379
0.00345682
0.00304195
0.00251443
0.00205872
0.00187993
0.00201547
0.0021081
0.00251157
0.00305048
0.00313545
0.00332073
0.00349019
0.00345203
0.00338839
0.00452424
0.00451561
0.00426839
0.00443
0.00386505
0.00352155
0.00299896
0.00248481
0.0022708
0.00192132
0.00170671
0.00175152
0.0019622
0.00229062
0.00251207
0.00275845
0.00300988
0.00305087
0.00287045
0.00291083
0.00341408
0.00354595
0.00355567
0.00342775
0.0031314
0.00294192
0.00252431
0.00203671
0.00182637
0.00167091
0.00156281
0.00158189
0.00178045
0.00205077
0.00194362
0.00240492
0.00239407
0.00242035
0.00227875
0.00226399
0.00276975
0.00254026
0.00250679
0.0026177
0.0023094
0.00212191
0.00200003
0.00168828
0.00129867
0.00127467
0.00127476
0.00118938
0.00125693
0.00132328
0.00144607
0.00156711
0.00151556
0.00186547
0.00192361
0.00165241
0.00167567
0.00155253
0.00145621
0.00135592
0.00145583
0.00132271
0.000993071
0.000952583
0.000803178
0.000780717
0.00101255
0.000710222
0.000777845
0.000879479
0.000962507
0.00111869
0.00113493
0.00091218
0.00124775
0.0012732
0.000729025
0.000677646
0.000512399
0.000510658
0.000315806
0.000521922
0.000470232
0.000364933
0.000356984
9.1484e-05
1.65535e-05
0.00034785
0.000409761
0.000113274
0.000321627
0.000188216
0.000318791
0.000500204
0.000518016
0.000173353
0.00795959
0.00797872
0.00818531
0.00793248
0.00772853
0.00703574
0.00636095
0.00570688
0.00531788
0.00463728
0.00443607
0.00470615
0.0048058
0.00512274
0.00539105
0.00587389
0.0060775
0.00597578
0.00573239
0.00548272
0.00740736
0.00751155
0.00762371
0.00747718
0.00728221
0.00665078
0.00599302
0.00530681
0.00496222
0.00454414
0.00449053
0.00438306
0.00445071
0.00493167
0.00495327
0.00539089
0.00573385
0.00571166
0.00529282
0.00538075
0.00670439
0.00689639
0.00697982
0.00658023
0.00644977
0.00581252
0.00534574
0.00498426
0.0045744
0.00427164
0.00403227
0.00426838
0.00435359
0.00457213
0.00478774
0.00504851
0.00492381
0.00515393
0.00499735
0.00468957
0.00559617
0.0057398
0.00571683
0.00551119
0.00520769
0.00508441
0.00483239
0.00413209
0.00411196
0.00372691
0.00345468
0.00355757
0.0036355
0.00369938
0.00427386
0.00413572
0.00425114
0.0042831
0.00430781
0.0041768
0.00429243
0.00461567
0.00476284
0.00451446
0.004401
0.00408128
0.00394005
0.00371433
0.0028811
0.00309823
0.00286728
0.00296879
0.00302257
0.00329546
0.0035628
0.00336163
0.00358769
0.00325659
0.00340687
0.00327973
0.00334652
0.00324302
0.00340293
0.00344436
0.00323161
0.0032177
0.00290597
0.00267177
0.00256643
0.00225986
0.00241041
0.00237944
0.00232555
0.00234562
0.0023396
0.00252617
0.00255091
0.00251762
0.00248913
0.00237322
0.00196541
0.00218062
0.00203267
0.00176683
0.00190501
0.0020307
0.00166804
0.00131699
0.0014946
0.00147475
0.0012466
0.00135477
0.00128363
0.00160647
0.00145524
0.00151248
0.00176905
0.00152371
0.00154642
0.00169451
0.000741316
0.000731525
0.000654264
0.00043851
0.000785578
0.000494583
0.000549417
0.000537343
0.000674129
0.000413142
0.000358384
0.000464716
0.000414621
0.00047621
0.000414245
0.000512064
0.000653177
0.000670754
0.000480185
0.000396496
0.00949262
0.00984633
0.0100718
0.0100564
0.00959535
0.00877752
0.0087103
0.00810658
0.00793745
0.00724834
0.00705846
0.00730579
0.00715676
0.00748054
0.00751747
0.0080039
0.00772364
0.00775564
0.00754276
0.00690948
0.0087743
0.00895061
0.00906077
0.00925317
0.00900051
0.00852184
0.00822686
0.00766196
0.00715029
0.00703468
0.00677341
0.00673571
0.00694444
0.0069564
0.00710283
0.00730461
0.00725134
0.00730457
0.00681717
0.00648886
0.00792207
0.00802844
0.00795059
0.0081175
0.00782755
0.00757646
0.00722107
0.00682454
0.00647597
0.00631421
0.00597869
0.00597015
0.00623062
0.0065002
0.00630466
0.0066006
0.00661079
0.00642843
0.00609398
0.00591479
0.00668389
0.00675794
0.00674911
0.00666902
0.00689402
0.00635112
0.0063656
0.00586554
0.00579074
0.00539901
0.00541349
0.00547266
0.00534944
0.00553022
0.00553214
0.00572492
0.00578803
0.00568571
0.00505247
0.00507657
0.00523734
0.00536596
0.0055484
0.00557356
0.00526348
0.00523489
0.00514225
0.00457651
0.00446142
0.0044311
0.00422232
0.00418366
0.00429611
0.00446568
0.00424847
0.00454518
0.00460387
0.00436786
0.00428486
0.0040663
0.00400449
0.00403043
0.00408327
0.00382003
0.00393706
0.00368715
0.00388332
0.00342961
0.00340384
0.00325817
0.00311544
0.00321105
0.00316345
0.00329696
0.0034164
0.00322309
0.0033424
0.00330135
0.00298914
0.00289977
0.00228852
0.00248644
0.00243145
0.0026053
0.0025463
0.00243269
0.00217831
0.00215643
0.00192542
0.00209476
0.00174232
0.00209896
0.00202794
0.0019595
0.00204577
0.00230054
0.00195225
0.00193435
0.00190287
0.00186041
0.000893126
0.000931681
0.000722967
0.000864662
0.00065824
0.000811131
0.000838911
0.00072105
0.000868486
0.000869794
0.000612625
0.000521863
0.000659595
0.000629413
0.000754908
0.000831957
0.000714429
0.000853477
0.000634076
0.000569727
0.0106762
0.011257
0.0115238
0.0116655
0.0113134
0.0109735
0.0106388
0.0103711
0.00967453
0.00968812
0.00940724
0.00944111
0.00971792
0.00946014
0.00973241
0.00947023
0.00952989
0.00922751
0.00870262
0.00826618
0.00973998
0.0100714
0.0102812
0.0105214
0.0103402
0.0102822
0.00984243
0.00974453
0.00921046
0.00904569
0.00899973
0.00868049
0.00879436
0.00889775
0.00909054
0.00888994
0.00894365
0.00846576
0.00791606
0.00760995
0.00854607
0.00895799
0.0091068
0.00942989
0.0091827
0.00894131
0.00865455
0.00845802
0.00822125
0.00796974
0.00774797
0.00769535
0.00779044
0.00782731
0.00799701
0.0079392
0.00802416
0.00739097
0.00717172
0.00695883
0.00726618
0.00777188
0.00781094
0.00791273
0.00794222
0.00747653
0.00748371
0.00719288
0.00696349
0.00680722
0.00665631
0.00671329
0.00680761
0.00677741
0.00690276
0.00673094
0.00661133
0.00632696
0.00605195
0.005511
0.00614201
0.00611561
0.00626871
0.0062059
0.00652701
0.00610475
0.0061974
0.00568362
0.00570408
0.00553218
0.00558742
0.00538584
0.00527297
0.00566329
0.00544602
0.00547272
0.00536923
0.00520239
0.00448471
0.00468495
0.00426061
0.00431786
0.00462649
0.00458698
0.00457001
0.00463724
0.00431201
0.00428682
0.00390594
0.00416347
0.00391475
0.00409742
0.00406877
0.00421042
0.00396282
0.00371955
0.00374155
0.00389759
0.00341698
0.00344922
0.00266578
0.00276748
0.00284818
0.00290117
0.00271723
0.00283458
0.00258333
0.00255544
0.00264279
0.00258246
0.00245319
0.00230975
0.00248512
0.00237262
0.00249544
0.00262131
0.00236288
0.00239676
0.00222751
0.00216384
0.000734071
0.00083603
0.00110948
0.00126431
0.000865459
0.00105547
0.000831498
0.000731421
0.000854921
0.000749738
0.000743264
0.000786211
0.000686185
0.000616574
0.000871023
0.000917052
0.000805518
0.000471341
0.000556031
0.000818357
0.0115376
0.0121725
0.0125689
0.0128345
0.0129359
0.012478
0.0123243
0.0121905
0.0119064
0.0116828
0.0112289
0.0113121
0.0112046
0.011245
0.0112872
0.011075
0.0108936
0.0105372
0.00987333
0.0091756
0.0104673
0.0109217
0.0115143
0.011402
0.0116864
0.0115382
0.0114208
0.0112056
0.0106394
0.0107542
0.0105893
0.0103287
0.010317
0.010277
0.0104771
0.0101939
0.010077
0.00939817
0.00911041
0.00828341
0.00900589
0.00951034
0.0101431
0.0102513
0.0101394
0.0101223
0.0104437
0.00983073
0.00966476
0.00960043
0.00936812
0.00927479
0.00940083
0.00943616
0.00906362
0.00918073
0.00854256
0.00831433
0.00794235
0.00736951
0.00796773
0.00815045
0.00852772
0.0090235
0.00862029
0.00863009
0.0085484
0.00842226
0.00828276
0.00784544
0.00801233
0.00800654
0.00772105
0.00779808
0.00767081
0.00773507
0.00747545
0.00701208
0.00683797
0.00644613
0.00627155
0.00655198
0.00677489
0.00698635
0.0070275
0.00683964
0.00677582
0.00667774
0.00660617
0.006526
0.00641176
0.00641388
0.00629964
0.00625932
0.00602147
0.00617684
0.00608324
0.00600525
0.0054363
0.00503584
0.00468907
0.00479661
0.0050376
0.00508556
0.00508751
0.00506708
0.00497876
0.00484333
0.00483003
0.00474334
0.0047715
0.00461194
0.00463818
0.00456774
0.00462546
0.00446599
0.00443019
0.00389213
0.00399942
0.00364126
0.00283655
0.00290712
0.00297289
0.00287475
0.0029885
0.00307625
0.00299257
0.00296158
0.00297091
0.0028626
0.00281725
0.00292715
0.00288083
0.00282782
0.00279081
0.00256596
0.00265765
0.00248922
0.00268626
0.00204811
0.000985866
0.00108693
0.00107535
0.000991988
0.00106471
0.00109288
0.00115374
0.000972615
0.00088115
0.000911053
0.000844944
0.00102245
0.000618685
0.000833104
0.000887812
0.000710899
0.00090328
0.000633935
0.000932041
0.000671437
0.0119643
0.012932
0.0132222
0.0136823
0.0138551
0.0137876
0.0138345
0.0136549
0.0132004
0.0129564
0.0129121
0.0127732
0.0127454
0.0126472
0.0124338
0.0122914
0.0118492
0.0113085
0.0106633
0.00965389
0.011119
0.0116856
0.0121553
0.0124716
0.0125506
0.012526
0.0124289
0.0125289
0.0120804
0.0119801
0.0118296
0.0117186
0.0116353
0.0116675
0.0113125
0.0111499
0.0108109
0.0101345
0.00955731
0.00873999
0.00972079
0.0102667
0.0104429
0.0109242
0.0111159
0.0109295
0.0112881
0.0109629
0.0109707
0.0106669
0.0105652
0.0104523
0.010306
0.0102868
0.0102546
0.00977716
0.00950828
0.00913831
0.00816977
0.00790956
0.00807879
0.00851636
0.00906172
0.0091145
0.00944074
0.00935563
0.00922612
0.00933481
0.0088744
0.00896729
0.00894294
0.00907247
0.00866658
0.00860192
0.00848423
0.00868026
0.00808822
0.00782872
0.00738128
0.00665919
0.00655815
0.00670941
0.00699181
0.00737957
0.00754366
0.00734846
0.00764608
0.00728497
0.00746503
0.00719784
0.00724834
0.00716327
0.00696221
0.00719828
0.00695878
0.00692334
0.0062463
0.00638176
0.00570464
0.00500955
0.00492224
0.00478284
0.00505671
0.00512963
0.00546656
0.00532298
0.00544653
0.00544987
0.00540637
0.00517166
0.00531882
0.00546357
0.00492742
0.00519151
0.00503338
0.00495842
0.00495611
0.00461663
0.0041347
0.00386073
0.00291215
0.00312456
0.00325501
0.00337202
0.00337186
0.00346289
0.0033549
0.00344312
0.00323251
0.00336681
0.00330068
0.00330882
0.00325609
0.00318789
0.00305596
0.00300779
0.00314239
0.00271634
0.00249949
0.00260086
0.00122413
0.00103813
0.00115087
0.00124683
0.000987165
0.00131903
0.00110739
0.00123421
0.00109052
0.000963382
0.00127386
0.00121614
0.00104899
0.000942071
0.000751176
0.000817107
0.00116261
0.00110258
0.000779981
0.000941095
0.012012
0.0128986
0.0136267
0.014295
0.0145791
0.0146079
0.0147494
0.0146488
0.0142103
0.0144924
0.01396
0.0141049
0.0137308
0.0137173
0.0132853
0.0130295
0.0124071
0.0116456
0.0108441
0.00990799
0.0112171
0.0114816
0.0124851
0.0128804
0.0132153
0.0130678
0.0133592
0.0132758
0.0132213
0.0131781
0.0129134
0.012719
0.0124978
0.0122359
0.0122149
0.0117749
0.0116456
0.0105859
0.00985889
0.00890746
0.00974801
0.0103435
0.0108963
0.011128
0.0116043
0.0117468
0.0116165
0.0116149
0.0117624
0.0113855
0.0112289
0.0111156
0.0110998
0.0109259
0.0107853
0.0105622
0.0101329
0.00944993
0.00882171
0.00795625
0.00797424
0.00865124
0.00939248
0.00935858
0.00954238
0.0101233
0.00992395
0.0099406
0.00982022
0.00962605
0.00970575
0.0095911
0.00938702
0.00947927
0.00913621
0.00885185
0.00855977
0.00780414
0.0072751
0.00684955
0.00660203
0.00696283
0.00740673
0.00760769
0.00792956
0.00790796
0.0076926
0.00773583
0.00785585
0.00812444
0.00742232
0.00770294
0.00752709
0.00753714
0.00723929
0.00707151
0.00651054
0.00621412
0.00585101
0.00528386
0.00487947
0.00502882
0.005436
0.00544536
0.005603
0.00571396
0.00587019
0.00586524
0.00568812
0.00556336
0.00553021
0.00552759
0.00549586
0.00558626
0.00527155
0.00519633
0.0049233
0.00470459
0.00424625
0.00400165
0.00309659
0.00314397
0.00328243
0.00361901
0.00357494
0.003465
0.00355729
0.00350851
0.00374907
0.00336142
0.0032872
0.00368725
0.00356855
0.00360986
0.00340333
0.00329641
0.00306887
0.00294967
0.00270497
0.00282353
0.000952605
0.0010068
0.00102013
0.00147052
0.00128552
0.00138504
0.00124533
0.00128309
0.00120897
0.00120242
0.00116427
0.00124502
0.00104687
0.00103805
0.00124032
0.000938761
0.00107759
0.00100829
0.000893579
0.000902161
0.0115914
0.0124886
0.0133519
0.0142644
0.0147858
0.0148962
0.0150447
0.0150169
0.0149817
0.0146992
0.0148014
0.0146011
0.0144955
0.0141904
0.0137973
0.0131465
0.0125281
0.0114605
0.0107767
0.00963184
0.0105861
0.0115234
0.0124331
0.012855
0.0133469
0.0135408
0.0136847
0.0137238
0.0138009
0.0135703
0.0135568
0.0134515
0.0130656
0.0129305
0.0124927
0.0121146
0.0115448
0.0106352
0.00972243
0.00893912
0.00924792
0.0100235
0.0106422
0.011447
0.0117946
0.0121017
0.0120785
0.012125
0.0118248
0.0121748
0.0117876
0.0118163
0.0115452
0.011464
0.0111399
0.0104878
0.0101037
0.00941556
0.00862433
0.00778094
0.00801493
0.0083171
0.00907229
0.00941166
0.00993469
0.0101089
0.0101339
0.0104708
0.0102869
0.0102406
0.0100192
0.00970089
0.00989667
0.00974875
0.00920335
0.00914716
0.00863342
0.00791016
0.00725132
0.00672273
0.00623425
0.00679672
0.0072616
0.00772981
0.0078469
0.00838281
0.00802435
0.00811441
0.0080665
0.00822183
0.00810131
0.00808616
0.0079054
0.00781672
0.00730525
0.0074692
0.00690215
0.00625451
0.00576884
0.0054187
0.00453096
0.00488908
0.00514545
0.00561989
0.00575733
0.0059813
0.00592966
0.00607269
0.00607828
0.00569133
0.00575311
0.00558449
0.00565416
0.00554299
0.00539303
0.00529582
0.00510079
0.00467188
0.00449595
0.00402066
0.00284608
0.0029868
0.00354583
0.00344086
0.00352871
0.00359815
0.0036725
0.0036122
0.00356366
0.00353719
0.00326442
0.00365873
0.00343052
0.00349125
0.00341763
0.00347184
0.00304511
0.00291863
0.00255298
0.00234969
0.00114871
0.000976969
0.00106848
0.00135033
0.00115417
0.00123083
0.00111893
0.00131838
0.00146433
0.00111708
0.00112297
0.00124386
0.00104118
0.00113354
0.00137324
0.00109286
0.0010729
0.0009635
0.000861149
0.00076807
0.0108123
0.0122134
0.0129703
0.0138315
0.0145128
0.0146423
0.0152349
0.0154303
0.0151602
0.0151838
0.0152195
0.0148143
0.0145224
0.0140393
0.0135886
0.0130815
0.0122537
0.0111963
0.0101482
0.00907925
0.0099438
0.010857
0.0118284
0.0128827
0.0131317
0.0133883
0.0136988
0.0138607
0.0138498
0.0137644
0.0136161
0.0133995
0.0133111
0.013134
0.012736
0.0119423
0.0112993
0.0102927
0.00927102
0.00834956
0.00876457
0.00964131
0.0102536
0.0110745
0.0114839
0.0119506
0.0122384
0.012126
0.0121852
0.0122116
0.0121235
0.0118041
0.0117784
0.0113181
0.0112044
0.0105801
0.00992882
0.00915795
0.00813944
0.00740511
0.00748083
0.00824887
0.00874903
0.00940237
0.00986737
0.0101945
0.0101673
0.0104189
0.0103496
0.0102119
0.0102699
0.0100151
0.00989589
0.00978133
0.00917061
0.00894757
0.00842261
0.00779982
0.00693226
0.00606355
0.00599874
0.00647121
0.00701635
0.00763962
0.00769841
0.00804417
0.00821677
0.00798996
0.00813036
0.00836021
0.00819672
0.00824509
0.00796402
0.00779743
0.00730287
0.00709432
0.00647155
0.0061018
0.00575309
0.0048378
0.00433565
0.00468742
0.00530673
0.00546267
0.00561859
0.00588313
0.00586469
0.00598491
0.00625125
0.00604945
0.00593336
0.00594089
0.00587792
0.00575117
0.00538102
0.00527028
0.00492935
0.00455143
0.00404127
0.00354868
0.00265973
0.00296065
0.00298569
0.00324514
0.00342772
0.0036197
0.00379105
0.00384197
0.00359304
0.0037627
0.00366335
0.00351251
0.00370084
0.00341777
0.00332788
0.00317188
0.00284609
0.00255514
0.00262712
0.00225428
0.000946212
0.000993639
0.000976634
0.00105733
0.00118334
0.00131444
0.0011145
0.00115912
0.00114649
0.00114164
0.00110335
0.00117947
0.00121152
0.00133125
0.000989594
0.00116543
0.00108798
0.001021
0.000731047
0.000555474
0.0098139
0.0110991
0.0120254
0.0130112
0.0137126
0.0143536
0.0148129
0.0148223
0.0147146
0.0150295
0.0147304
0.0145761
0.0142523
0.0139642
0.0132517
0.0124227
0.0115616
0.0106534
0.00915336
0.00788662
0.00865712
0.00978641
0.0109826
0.0117115
0.0124872
0.0130785
0.0132974
0.0135162
0.0136525
0.0136518
0.0133756
0.0133955
0.0129324
0.0125385
0.0118413
0.0113774
0.0105786
0.00930275
0.0083257
0.00746196
0.0078789
0.00891224
0.00954879
0.0104072
0.0111056
0.0115417
0.0118204
0.011881
0.0119334
0.0119064
0.0119646
0.011477
0.0112652
0.0110683
0.0105848
0.00992009
0.00942509
0.0085084
0.00748516
0.0066061
0.00687397
0.00750864
0.00811169
0.00891372
0.00930447
0.00960513
0.0100517
0.00996162
0.0102148
0.0103019
0.00998567
0.00988581
0.0097289
0.00939844
0.00920762
0.00862776
0.00789136
0.00704524
0.00630491
0.00556271
0.00539541
0.0060362
0.00649303
0.00710642
0.00738114
0.00752356
0.00812557
0.00806073
0.00816898
0.00816882
0.00799413
0.00788662
0.00763818
0.00752813
0.00734027
0.00679804
0.00632573
0.00571784
0.00515918
0.0043629
0.00415943
0.00441166
0.00463867
0.00510733
0.0054436
0.00570695
0.00575911
0.00573722
0.00579445
0.00613898
0.0058467
0.00588527
0.00578377
0.00530485
0.00512177
0.00493666
0.00449704
0.00426439
0.00365918
0.00340937
0.00245748
0.00271347
0.00295095
0.00312912
0.00315135
0.00348003
0.00365223
0.00382075
0.00376268
0.00371403
0.00344713
0.00365434
0.00348201
0.00318974
0.00333334
0.0029355
0.00294793
0.00250082
0.00227687
0.00216467
0.000882023
0.000857478
0.00105718
0.00114614
0.0012749
0.00107983
0.00103053
0.00100822
0.00117004
0.00135852
0.00122533
0.00124898
0.0011273
0.00121051
0.00101715
0.000921329
0.000870034
0.000914634
0.000762684
0.000704313
0.00813297
0.00950858
0.0107658
0.0115779
0.0127055
0.0132492
0.0139425
0.0142565
0.0140124
0.0141818
0.0138677
0.013895
0.0136104
0.012914
0.0122783
0.0113433
0.0103732
0.0090473
0.00782295
0.00624774
0.00767353
0.00856497
0.00974686
0.0105945
0.0114327
0.0122398
0.0126838
0.0129686
0.0128949
0.0129651
0.0128454
0.0124911
0.0122109
0.0117911
0.011194
0.0104304
0.00964109
0.00837601
0.00714867
0.00608706
0.00688398
0.00767289
0.00859215
0.0094908
0.010226
0.0107198
0.0109347
0.0111699
0.0116024
0.0113229
0.0112876
0.0110854
0.0106778
0.010339
0.00992403
0.00920084
0.00847628
0.00733919
0.00630832
0.00558127
0.00594962
0.00663039
0.007435
0.00799537
0.008738
0.00899747
0.00957868
0.00959573
0.0095801
0.00971533
0.00966839
0.0093406
0.00934156
0.00903272
0.00844939
0.00776375
0.00718717
0.00648753
0.00541578
0.00457852
0.00464548
0.00530714
0.00582279
0.0065294
0.00699709
0.00716186
0.00774352
0.00768692
0.00782705
0.00778337
0.00767276
0.00756144
0.00743139
0.00702658
0.00677092
0.00621433
0.00580387
0.00510627
0.00442246
0.00370358
0.00347206
0.00386274
0.00444588
0.00480152
0.00527269
0.00526507
0.00557818
0.00557467
0.00572152
0.00566166
0.00540605
0.00568463
0.00516026
0.00509362
0.00467786
0.00460624
0.00422823
0.00364205
0.00302551
0.00292342
0.00221293
0.00259049
0.00235694
0.00305857
0.00312375
0.003238
0.0033341
0.00330513
0.0032645
0.00343916
0.00353371
0.00329166
0.00330195
0.00327824
0.00304218
0.00286473
0.00254962
0.00237136
0.0020179
0.00171681
0.000928586
0.000551502
0.000778306
0.000902677
0.00114681
0.00122303
0.00143082
0.001398
0.00130596
0.00117033
0.00110447
0.000977373
0.00123818
0.000878887
0.00107048
0.000984924
0.000914996
0.000807878
0.000840308
0.00078836
0.00639284
0.00767137
0.00891775
0.0101576
0.0109301
0.0119792
0.0121477
0.0128147
0.0128839
0.0131612
0.0128623
0.0123949
0.0122504
0.0114243
0.0107812
0.00982452
0.00891346
0.00736047
0.00605853
0.00460457
0.00588523
0.00712629
0.00826754
0.00938742
0.0103493
0.0108318
0.0113602
0.0116643
0.011985
0.0118006
0.0116779
0.0115491
0.0112785
0.0105937
0.00998592
0.00909826
0.00822901
0.00690111
0.00559062
0.00425549
0.00531727
0.00638189
0.00728672
0.00819046
0.00906827
0.00957519
0.0097873
0.0105164
0.0103771
0.0105128
0.0103718
0.0100436
0.00971774
0.00948877
0.00873423
0.00816827
0.00717354
0.00608459
0.00517245
0.00389445
0.00454539
0.00551052
0.00610106
0.00692263
0.0079034
0.00813871
0.0086184
0.00853274
0.00888334
0.0087868
0.00862232
0.00869434
0.00824141
0.00794271
0.00742906
0.00689228
0.00617163
0.00519374
0.00435965
0.00352598
0.00360924
0.00450597
0.00508554
0.00547724
0.00601522
0.00668925
0.00682781
0.00703513
0.00710078
0.00718574
0.00716958
0.00709133
0.00662118
0.00653372
0.00621946
0.00567267
0.00480382
0.00425399
0.00350546
0.00281469
0.0024646
0.00322708
0.00365955
0.00429557
0.00430894
0.00496376