/*--------------------------------*- C++ -*----------------------------------*\
| =========                 |                                                 |
| \\      /  F ield         | OpenFOAM: The Open Source CFD Toolbox           |
|  \\    /   O peration     | Version:  2212                                  |
|   \\  /    A nd           | Website:  www.openfoam.com                      |
|    \\/     M anipulation  |                                                 |
\*---------------------------------------------------------------------------*/
FoamFile
{
    version     2.0;
    format      ascii;
    arch        "LSB;label=32;scalar=64";
    class       volScalarField;
    location    "./ITHACAoutput/true/10.9";
    object      trueState;
}
// * * * * * * * * * * * * * * * * * * * * * * * * * * * * * * * * * * * * * //

dimensions      [0 0 0 1 0 0 0];

internalField   nonuniform List<scalar> 
3200
(
326.57
326.991
327.528
328.113
328.716
329.308
329.854
330.315
330.651
330.828
330.828
330.651
330.315
329.854
329.308
328.716
328.113
327.528
326.991
326.57
323.144
323.5
323.964
324.47
324.992
325.503
325.975
326.374
326.664
326.817
326.817
326.664
326.374
325.975
325.503
324.992
324.47
323.964
323.5
323.144
319.669
319.965
320.355
320.783
321.223
321.656
322.054
322.391
322.635
322.765
322.765
322.635
322.391
322.054
321.656
321.223
320.783
320.355
319.965
319.669
316.152
316.39
316.708
317.058
317.418
317.772
318.097
318.372
318.571
318.677
318.677
318.571
318.372
318.097
317.772
317.418
317.058
316.708
316.39
316.152
312.602
312.784
313.031
313.303
313.583
313.857
314.11
314.323
314.479
314.56
314.56
314.479
314.323
314.11
313.857
313.583
313.303
313.031
312.784
312.602
309.025
309.154
309.33
309.524
309.724
309.92
310.1
310.252
310.363
310.421
310.421
310.363
310.252
310.1
309.92
309.724
309.524
309.33
309.154
309.025
305.428
305.506
305.611
305.728
305.848
305.965
306.074
306.165
306.231
306.266
306.266
306.231
306.165
306.074
305.965
305.848
305.728
305.611
305.506
305.428
301.821
301.847
301.882
301.921
301.961
302.001
302.037
302.068
302.09
302.102
302.102
302.09
302.068
302.037
302.001
301.961
301.921
301.882
301.847
301.821
326.653
327.07
327.603
328.182
328.779
329.364
329.904
330.359
330.691
330.866
330.866
330.691
330.359
329.904
329.364
328.779
328.182
327.603
327.07
326.653
323.216
323.569
324.029
324.53
325.047
325.553
326.019
326.413
326.699
326.85
326.85
326.699
326.413
326.019
325.553
325.047
324.53
324.029
323.569
323.216
319.73
320.023
320.41
320.834
321.27
321.698
322.092
322.424
322.666
322.793
322.793
322.666
322.424
322.092
321.698
321.27
320.834
320.41
320.023
319.73
316.203
316.439
316.754
317.1
317.457
317.806
318.128
318.399
318.597
318.701
318.701
318.597
318.399
318.128
317.806
317.457
317.1
316.754
316.439
316.203
312.641
312.822
313.067
313.336
313.613
313.885
314.135
314.345
314.498
314.579
314.579
314.498
314.345
314.135
313.885
313.613
313.336
313.067
312.822
312.641
309.053
309.181
309.355
309.547
309.745
309.939
310.118
310.268
310.377
310.435
310.435
310.377
310.268
310.118
309.939
309.745
309.547
309.355
309.181
309.053
305.445
305.522
305.626
305.742
305.861
305.977
306.084
306.174
306.24
306.274
306.274
306.24
306.174
306.084
305.977
305.861
305.742
305.626
305.522
305.445
301.827
301.852
301.887
301.926
301.966
302.005
302.041
302.071
302.093
302.104
302.104
302.093
302.071
302.041
302.005
301.966
301.926
301.887
301.852
301.827
326.818
327.229
327.752
328.321
328.906
329.479
330.006
330.45
330.773
330.943
330.943
330.773
330.45
330.006
329.479
328.906
328.321
327.752
327.229
326.818
323.36
323.708
324.159
324.652
325.158
325.653
326.109
326.493
326.772
326.919
326.919
326.772
326.493
326.109
325.653
325.158
324.652
324.159
323.708
323.36
319.853
320.141
320.521
320.937
321.365
321.784
322.169
322.493
322.728
322.852
322.852
322.728
322.493
322.169
321.784
321.365
320.937
320.521
320.141
319.853
316.303
316.535
316.845
317.185
317.535
317.877
318.191
318.456
318.648
318.75
318.75
318.648
318.456
318.191
317.877
317.535
317.185
316.845
316.535
316.303
312.719
312.898
313.138
313.402
313.674
313.94
314.184
314.39
314.539
314.618
314.618
314.539
314.39
314.184
313.94
313.674
313.402
313.138
312.898
312.719
309.109
309.235
309.406
309.595
309.789
309.979
310.153
310.3
310.406
310.463
310.463
310.406
310.3
310.153
309.979
309.789
309.595
309.406
309.235
309.109
305.479
305.554
305.657
305.77
305.887
306.001
306.106
306.194
306.258
306.291
306.291
306.258
306.194
306.106
306.001
305.887
305.77
305.657
305.554
305.479
301.838
301.863
301.898
301.935
301.975
302.013
302.048
302.077
302.099
302.11
302.11
302.099
302.077
302.048
302.013
301.975
301.935
301.898
301.863
301.838
327.068
327.469
327.979
328.532
329.1
329.654
330.163
330.591
330.902
331.066
331.066
330.902
330.591
330.163
329.654
329.1
328.532
327.979
327.469
327.068
323.577
323.917
324.357
324.836
325.327
325.807
326.247
326.617
326.886
327.027
327.027
326.886
326.617
326.247
325.807
325.327
324.836
324.357
323.917
323.577
320.037
320.319
320.69
321.094
321.509
321.915
322.287
322.599
322.826
322.945
322.945
322.826
322.599
322.287
321.915
321.509
321.094
320.69
320.319
320.037
316.455
316.681
316.984
317.314
317.654
317.985
318.289
318.544
318.729
318.827
318.827
318.729
318.544
318.289
317.985
317.654
317.314
316.984
316.681
316.455
312.838
313.012
313.246
313.503
313.767
314.024
314.26
314.459
314.602
314.678
314.678
314.602
314.459
314.26
314.024
313.767
313.503
313.246
313.012
312.838
309.193
309.317
309.484
309.667
309.856
310.039
310.208
310.35
310.452
310.506
310.506
310.452
310.35
310.208
310.039
309.856
309.667
309.484
309.317
309.193
305.53
305.604
305.704
305.814
305.927
306.037
306.139
306.224
306.285
306.318
306.318
306.285
306.224
306.139
306.037
305.927
305.814
305.704
305.604
305.53
301.855
301.88
301.913
301.95
301.988
302.025
302.059
302.087
302.108
302.119
302.119
302.108
302.087
302.059
302.025
301.988
301.95
301.913
301.88
301.855
327.402
327.791
328.284
328.818
329.363
329.895
330.381
330.789
331.085
331.241
331.241
331.085
330.789
330.381
329.895
329.363
328.818
328.284
327.791
327.402
323.869
324.198
324.623
325.085
325.557
326.017
326.438
326.791
327.046
327.181
327.181
327.046
326.791
326.438
326.017
325.557
325.085
324.623
324.198
323.869
320.285
320.558
320.916
321.307
321.706
322.094
322.45
322.748
322.964
323.077
323.077
322.964
322.748
322.45
322.094
321.706
321.307
320.916
320.558
320.285
316.658
316.878
317.17
317.489
317.815
318.133
318.423
318.667
318.843
318.936
318.936
318.843
318.667
318.423
318.133
317.815
317.489
317.17
316.878
316.658
312.996
313.165
313.391
313.639
313.893
314.14
314.366
314.555
314.692
314.764
314.764
314.692
314.555
314.366
314.14
313.893
313.639
313.391
313.165
312.996
309.307
309.426
309.588
309.765
309.946
310.122
310.284
310.419
310.516
310.568
310.568
310.516
310.419
310.284
310.122
309.946
309.765
309.588
309.426
309.307
305.598
305.67
305.766
305.873
305.982
306.087
306.184
306.265
306.324
306.355
306.355
306.324
306.265
306.184
306.087
305.982
305.873
305.766
305.67
305.598
301.878
301.902
301.934
301.97
302.006
302.042
302.074
302.101
302.121
302.131
302.131
302.121
302.101
302.074
302.042
302.006
301.97
301.934
301.902
301.878
327.823
328.197
328.671
329.181
329.701
330.205
330.666
331.051
331.329
331.476
331.476
331.329
331.051
330.666
330.205
329.701
329.181
328.671
328.197
327.823
324.235
324.552
324.96
325.402
325.852
326.289
326.687
327.02
327.261
327.387
327.387
327.261
327.02
326.687
326.289
325.852
325.402
324.96
324.552
324.235
320.596
320.859
321.203
321.576
321.957
322.326
322.662
322.944
323.147
323.254
323.254
323.147
322.944
322.662
322.326
321.957
321.576
321.203
320.859
320.596
316.914
317.125
317.406
317.711
318.022
318.324
318.599
318.828
318.994
319.082
319.082
318.994
318.828
318.599
318.324
318.022
317.711
317.406
317.125
316.914
313.196
313.358
313.576
313.813
314.055
314.289
314.503
314.681
314.81
314.878
314.878
314.81
314.681
314.503
314.289
314.055
313.813
313.576
313.358
313.196
309.45
309.565
309.72
309.889
310.062
310.229
310.382
310.51
310.602
310.65
310.65
310.602
310.51
310.382
310.229
310.062
309.889
309.72
309.565
309.45
305.684
305.753
305.846
305.948
306.051
306.152
306.243
306.32
306.375
306.404
306.404
306.375
306.32
306.243
306.152
306.051
305.948
305.846
305.753
305.684
301.907
301.93
301.961
301.995
302.03
302.063
302.094
302.12
302.138
302.148
302.148
302.138
302.12
302.094
302.063
302.03
301.995
301.961
301.93
301.907
328.332
328.69
329.141
329.626
330.117
330.592
331.023
331.383
331.643
331.779
331.779
331.643
331.383
331.023
330.592
330.117
329.626
329.141
328.69
328.332
324.679
324.982
325.371
325.79
326.216
326.627
327
327.311
327.536
327.653
327.653
327.536
327.311
327
326.627
326.216
325.79
325.371
324.982
324.679
320.973
321.224
321.552
321.907
322.266
322.614
322.93
323.192
323.382
323.481
323.481
323.382
323.192
322.93
322.614
322.266
321.907
321.552
321.224
320.973
317.223
317.425
317.693
317.982
318.277
318.561
318.819
319.034
319.188
319.27
319.27
319.188
319.034
318.819
318.561
318.277
317.982
317.693
317.425
317.223
313.437
313.592
313.8
314.025
314.254
314.474
314.675
314.842
314.962
315.025
315.025
314.962
314.842
314.675
314.474
314.254
314.025
313.8
313.592
313.437
309.623
309.733
309.88
310.041
310.205
310.362
310.506
310.625
310.711
310.756
310.756
310.711
310.625
310.506
310.362
310.205
310.041
309.88
309.733
309.623
305.788
305.854
305.942
306.039
306.137
306.232
306.318
306.389
306.441
306.468
306.468
306.441
306.389
306.318
306.232
306.137
306.039
305.942
305.854
305.788
301.942
301.964
301.993
302.026
302.058
302.09
302.119
302.143
302.16
302.169
302.169
302.16
302.143
302.119
302.09
302.058
302.026
301.993
301.964
301.942
328.932
329.272
329.699
330.156
330.616
331.06
331.461
331.794
332.034
332.159
332.159
332.034
331.794
331.461
331.06
330.616
330.156
329.699
329.272
328.932
325.201
325.489
325.857
326.252
326.652
327.035
327.383
327.671
327.878
327.987
327.987
327.878
327.671
327.383
327.035
326.652
326.252
325.857
325.489
325.201
321.417
321.655
321.966
322.3
322.638
322.962
323.256
323.499
323.675
323.766
323.766
323.675
323.499
323.256
322.962
322.638
322.3
321.966
321.655
321.417
317.588
317.78
318.033
318.306
318.582
318.847
319.087
319.287
319.43
319.505
319.505
319.43
319.287
319.087
318.847
318.582
318.306
318.033
317.78
317.588
313.721
313.869
314.065
314.277
314.492
314.698
314.885
315.04
315.151
315.209
315.209
315.151
315.04
314.885
314.698
314.492
314.277
314.065
313.869
313.721
309.826
309.931
310.071
310.222
310.376
310.523
310.656
310.767
310.846
310.888
310.888
310.846
310.767
310.656
310.523
310.376
310.222
310.071
309.931
309.826
305.911
305.973
306.057
306.148
306.24
306.329
306.409
306.475
306.523
306.548
306.548
306.523
306.475
306.409
306.329
306.24
306.148
306.057
305.973
305.911
301.983
302.004
302.032
302.062
302.093
302.123
302.15
302.172
302.188
302.196
302.196
302.188
302.172
302.15
302.123
302.093
302.062
302.032
302.004
301.983
329.624
329.945
330.347
330.774
331.204
331.615
331.985
332.291
332.511
332.626
332.626
332.511
332.291
331.985
331.615
331.204
330.774
330.347
329.945
329.624
325.804
326.075
326.422
326.792
327.164
327.52
327.841
328.106
328.296
328.395
328.395
328.296
328.106
327.841
327.52
327.164
326.792
326.422
326.075
325.804
321.929
322.154
322.446
322.759
323.074
323.375
323.646
323.87
324.031
324.115
324.115
324.031
323.87
323.646
323.375
323.074
322.759
322.446
322.154
321.929
318.008
318.189
318.428
318.683
318.941
319.187
319.409
319.592
319.723
319.792
319.792
319.723
319.592
319.409
319.187
318.941
318.683
318.428
318.189
318.008
314.049
314.189
314.373
314.572
314.772
314.964
315.136
315.279
315.381
315.434
315.434
315.381
315.279
315.136
314.964
314.772
314.572
314.373
314.189
314.049
310.061
310.16
310.291
310.433
310.576
310.713
310.836
310.938
311.011
311.049
311.049
311.011
310.938
310.836
310.713
310.576
310.433
310.291
310.16
310.061
306.052
306.111
306.19
306.275
306.361
306.443
306.517
306.578
306.622
306.645
306.645
306.622
306.578
306.517
306.443
306.361
306.275
306.19
306.111
306.052
302.03
302.05
302.076
302.105
302.134
302.161
302.186
302.206
302.221
302.229
302.229
302.221
302.206
302.186
302.161
302.134
302.105
302.076
302.05
302.03
330.41
330.712
331.088
331.486
331.883
332.262
332.602
332.882
333.082
333.186
333.186
333.082
332.882
332.602
332.262
331.883
331.486
331.088
330.712
330.41
326.488
326.744
327.068
327.413
327.757
328.085
328.379
328.622
328.795
328.885
328.885
328.795
328.622
328.379
328.085
327.757
327.413
327.068
326.744
326.488
322.511
322.722
322.996
323.287
323.578
323.856
324.105
324.31
324.456
324.532
324.532
324.456
324.31
324.105
323.856
323.578
323.287
322.996
322.722
322.511
318.486
318.656
318.879
319.117
319.356
319.583
319.786
319.954
320.073
320.136
320.136
320.073
319.954
319.786
319.583
319.356
319.117
318.879
318.656
318.486
314.422
314.553
314.726
314.911
315.096
315.273
315.431
315.561
315.654
315.703
315.703
315.654
315.561
315.431
315.273
315.096
314.911
314.726
314.553
314.422
310.328
310.421
310.544
310.676
310.809
310.935
311.048
311.141
311.207
311.242
311.242
311.207
311.141
311.048
310.935
310.809
310.676
310.544
310.421
310.328
306.212
306.268
306.342
306.421
306.501
306.576
306.644
306.7
306.74
306.761
306.761
306.74
306.7
306.644
306.576
306.501
306.421
306.342
306.268
306.212
302.084
302.102
302.127
302.154
302.18
302.206
302.229
302.247
302.261
302.268
302.268
302.261
302.247
302.229
302.206
302.18
302.154
302.127
302.102
302.084
331.292
331.574
331.924
332.293
332.659
333.006
333.316
333.57
333.751
333.846
333.846
333.751
333.57
333.316
333.006
332.659
332.293
331.924
331.574
331.292
327.257
327.495
327.797
328.117
328.434
328.735
329.003
329.223
329.38
329.462
329.462
329.38
329.223
329.003
328.735
328.434
328.117
327.797
327.495
327.257
323.163
323.361
323.616
323.886
324.154
324.409
324.636
324.822
324.955
325.024
325.024
324.955
324.822
324.636
324.409
324.154
323.886
323.616
323.361
323.163
319.022
319.181
319.389
319.609
319.829
320.037
320.223
320.375
320.483
320.54
320.54
320.483
320.375
320.223
320.037
319.829
319.609
319.389
319.181
319.022
314.84
314.962
315.123
315.295
315.466
315.628
315.772
315.891
315.975
316.019
316.019
315.975
315.891
315.772
315.628
315.466
315.295
315.123
314.962
314.84
310.627
310.714
310.829
310.951
311.073
311.189
311.292
311.377
311.437
311.468
311.468
311.437
311.377
311.292
311.189
311.073
310.951
310.829
310.714
310.627
306.393
306.444
306.513
306.587
306.66
306.729
306.791
306.842
306.878
306.897
306.897
306.878
306.842
306.791
306.729
306.66
306.587
306.513
306.444
306.393
302.144
302.162
302.185
302.209
302.234
302.257
302.278
302.295
302.307
302.313
302.313
302.307
302.295
302.278
302.257
302.234
302.209
302.185
302.162
302.144
332.272
332.535
332.859
333.199
333.535
333.852
334.133
334.363
334.526
334.611
334.611
334.526
334.363
334.133
333.852
333.535
333.199
332.859
332.535
332.272
328.11
328.332
328.612
328.907
329.198
329.472
329.716
329.915
330.056
330.13
330.13
330.056
329.915
329.716
329.472
329.198
328.907
328.612
328.332
328.11
323.889
324.073
324.309
324.558
324.804
325.036
325.243
325.411
325.53
325.592
325.592
325.53
325.411
325.243
325.036
324.804
324.558
324.309
324.073
323.889
319.617
319.765
319.958
320.161
320.363
320.553
320.722
320.859
320.957
321.008
321.008
320.957
320.859
320.722
320.553
320.363
320.161
319.958
319.765
319.617
315.305
315.418
315.568
315.726
315.883
316.031
316.162
316.269
316.345
316.384
316.384
316.345
316.269
316.162
316.031
315.883
315.726
315.568
315.418
315.305
310.96
311.041
311.147
311.26
311.372
311.478
311.571
311.648
311.702
311.731
311.731
311.702
311.648
311.571
311.478
311.372
311.26
311.147
311.041
310.96
306.593
306.641
306.705
306.772
306.84
306.903
306.959
307.005
307.038
307.055
307.055
307.038
307.005
306.959
306.903
306.84
306.772
306.705
306.641
306.593
302.211
302.228
302.249
302.272
302.294
302.315
302.334
302.35
302.361
302.366
302.366
302.361
302.35
302.334
302.315
302.294
302.272
302.249
302.228
302.211
333.351
333.595
333.895
334.207
334.514
334.801
335.056
335.262
335.409
335.485
335.485
335.409
335.262
335.056
334.801
334.514
334.207
333.895
333.595
333.351
329.05
329.256
329.514
329.785
330.051
330.3
330.52
330.7
330.827
330.892
330.892
330.827
330.7
330.52
330.3
330.051
329.785
329.514
329.256
329.05
324.687
324.858
325.076
325.304
325.53
325.741
325.927
326.079
326.186
326.242
326.242
326.186
326.079
325.927
325.741
325.53
325.304
325.076
324.858
324.687
320.273
320.41
320.588
320.775
320.959
321.132
321.284
321.408
321.496
321.542
321.542
321.496
321.408
321.284
321.132
320.959
320.775
320.588
320.41
320.273
315.816
315.921
316.059
316.205
316.348
316.482
316.601
316.698
316.766
316.801
316.801
316.766
316.698
316.601
316.482
316.348
316.205
316.059
315.921
315.816
311.326
311.401
311.499
311.603
311.705
311.801
311.886
311.955
312.004
312.029
312.029
312.004
311.955
311.886
311.801
311.705
311.603
311.499
311.401
311.326
306.813
306.857
306.916
306.979
307.04
307.098
307.149
307.19
307.22
307.235
307.235
307.22
307.19
307.149
307.098
307.04
306.979
306.916
306.857
306.813
302.285
302.3
302.32
302.341
302.362
302.381
302.398
302.412
302.422
302.427
302.427
302.422
302.412
302.398
302.381
302.362
302.341
302.32
302.3
302.285
334.529
334.755
335.031
335.316
335.596
335.856
336.086
336.271
336.403
336.47
336.47
336.403
336.271
336.086
335.856
335.596
335.316
335.031
334.755
334.529
330.075
330.266
330.504
330.752
330.994
331.22
331.419
331.58
331.693
331.752
331.752
331.693
331.58
331.419
331.22
330.994
330.752
330.504
330.266
330.075
325.558
325.716
325.917
326.126
326.331
326.523
326.691
326.827
326.923
326.973
326.973
326.923
326.827
326.691
326.523
326.331
326.126
325.917
325.716
325.558
320.988
321.115
321.279
321.45
321.618
321.774
321.912
322.023
322.102
322.143
322.143
322.102
322.023
321.912
321.774
321.618
321.45
321.279
321.115
320.988
316.374
316.471
316.598
316.732
316.862
316.984
317.091
317.178
317.239
317.271
317.271
317.239
317.178
317.091
316.984
316.862
316.732
316.598
316.471
316.374
311.726
311.795
311.885
311.98
312.074
312.161
312.237
312.299
312.343
312.366
312.366
312.343
312.299
312.237
312.161
312.074
311.98
311.885
311.795
311.726
307.053
307.094
307.149
307.206
307.262
307.314
307.36
307.397
307.424
307.437
307.437
307.424
307.397
307.36
307.314
307.262
307.206
307.149
307.094
307.053
302.366
302.38
302.398
302.417
302.436
302.453
302.469
302.481
302.49
302.495
302.495
302.49
302.481
302.469
302.453
302.436
302.417
302.398
302.38
302.366
335.805
336.013
336.266
336.527
336.781
337.017
337.223
337.389
337.507
337.567
337.567
337.507
337.389
337.223
337.017
336.781
336.527
336.266
336.013
335.805
331.186
331.362
331.58
331.806
332.026
332.231
332.41
332.554
332.655
332.708
332.708
332.655
332.554
332.41
332.231
332.026
331.806
331.58
331.362
331.186
326.501
326.647
326.831
327.023
327.209
327.382
327.533
327.655
327.741
327.786
327.786
327.741
327.655
327.533
327.382
327.209
327.023
326.831
326.647
326.501
321.762
321.879
322.029
322.186
322.338
322.48
322.604
322.704
322.774
322.81
322.81
322.774
322.704
322.604
322.48
322.338
322.186
322.029
321.879
321.762
316.977
317.067
317.184
317.306
317.424
317.534
317.631
317.709
317.763
317.792
317.792
317.763
317.709
317.631
317.534
317.424
317.306
317.184
317.067
316.977
312.158
312.221
312.304
312.391
312.476
312.555
312.624
312.679
312.719
312.739
312.739
312.719
312.679
312.624
312.555
312.476
312.391
312.304
312.221
312.158
307.313
307.351
307.401
307.453
307.504
307.551
307.593
307.626
307.649
307.662
307.662
307.649
307.626
307.593
307.551
307.504
307.453
307.401
307.351
307.313
302.453
302.466
302.482
302.5
302.517
302.533
302.547
302.558
302.566
302.57
302.57
302.566
302.558
302.547
302.533
302.517
302.5
302.482
302.466
302.453
337.173
337.365
337.597
337.835
338.065
338.277
338.463
338.612
338.716
338.77
338.77
338.716
338.612
338.463
338.277
338.065
337.835
337.597
337.365
337.173
332.376
332.537
332.738
332.944
333.143
333.328
333.488
333.618
333.708
333.755
333.755
333.708
333.618
333.488
333.328
333.143
332.944
332.738
332.537
332.376
327.511
327.645
327.814
327.988
328.157
328.313
328.449
328.559
328.635
328.675
328.675
328.635
328.559
328.449
328.313
328.157
327.988
327.814
327.645
327.511
322.59
322.698
322.835
322.978
323.117
323.244
323.356
323.445
323.508
323.54
323.54
323.508
323.445
323.356
323.244
323.117
322.978
322.835
322.698
322.59
317.623
317.706
317.812
317.923
318.031
318.13
318.217
318.287
318.336
318.361
318.361
318.336
318.287
318.217
318.13
318.031
317.923
317.812
317.706
317.623
312.619
312.678
312.754
312.834
312.91
312.982
313.044
313.093
313.128
313.146
313.146
313.128
313.093
313.044
312.982
312.91
312.834
312.754
312.678
312.619
307.591
307.625
307.671
307.719
307.765
307.808
307.845
307.875
307.896
307.907
307.907
307.896
307.875
307.845
307.808
307.765
307.719
307.671
307.625
307.591
302.546
302.558
302.573
302.589
302.605
302.619
302.631
302.641
302.648
302.652
302.652
302.648
302.641
302.631
302.619
302.605
302.589
302.573
302.558
302.546
338.618
338.794
339.006
339.223
339.432
339.623
339.79
339.923
340.016
340.064
340.064
340.016
339.923
339.79
339.623
339.432
339.223
339.006
338.794
338.618
333.629
333.778
333.961
334.149
334.33
334.497
334.641
334.757
334.837
334.879
334.879
334.837
334.757
334.641
334.497
334.33
334.149
333.961
333.778
333.629
328.573
328.696
328.851
329.01
329.163
329.304
329.426
329.524
329.593
329.628
329.628
329.593
329.524
329.426
329.304
329.163
329.01
328.851
328.696
328.573
323.46
323.559
323.685
323.815
323.941
324.056
324.156
324.236
324.292
324.321
324.321
324.292
324.236
324.156
324.056
323.941
323.815
323.685
323.559
323.46
318.3
318.376
318.474
318.575
318.673
318.762
318.84
318.903
318.946
318.969
318.969
318.946
318.903
318.84
318.762
318.673
318.575
318.474
318.376
318.3
313.103
313.157
313.227
313.299
313.369
313.433
313.489
313.534
313.565
313.581
313.581
313.565
313.534
313.489
313.433
313.369
313.299
313.227
313.157
313.103
307.881
307.913
307.955
307.999
308.041
308.079
308.113
308.14
308.158
308.168
308.168
308.158
308.14
308.113
308.079
308.041
307.999
307.955
307.913
307.881
302.644
302.654
302.668
302.683
302.697
302.71
302.721
302.73
302.736
302.74
302.74
302.736
302.73
302.721
302.71
302.697
302.683
302.668
302.654
302.644
340.099
340.261
340.456
340.654
340.843
341.016
341.166
341.286
341.369
341.412
341.412
341.369
341.286
341.166
341.016
340.843
340.654
340.456
340.261
340.099
334.909
335.046
335.214
335.385
335.55
335.7
335.83
335.934
336.007
336.044
336.044
336.007
335.934
335.83
335.7
335.55
335.385
335.214
335.046
334.909
329.653
329.766
329.908
330.053
330.192
330.32
330.43
330.518
330.579
330.611
330.611
330.579
330.518
330.43
330.32
330.192
330.053
329.908
329.766
329.653
324.34
324.432
324.547
324.666
324.781
324.885
324.975
325.047
325.098
325.124
325.124
325.098
325.047
324.975
324.885
324.781
324.666
324.547
324.432
324.34
318.983
319.053
319.143
319.236
319.325
319.406
319.476
319.532
319.571
319.592
319.592
319.571
319.532
319.476
319.406
319.325
319.236
319.143
319.053
318.983
313.591
313.641
313.705
313.771
313.834
313.892
313.943
313.983
314.011
314.025
314.025
314.011
313.983
313.943
313.892
313.834
313.771
313.705
313.641
313.591
308.174
308.203
308.242
308.282
308.32
308.355
308.385
308.409
308.426
308.434
308.434
308.426
308.409
308.385
308.355
308.32
308.282
308.242
308.203
308.174
302.742
302.752
302.764
302.778
302.791
302.802
302.812
302.82
302.826
302.829
302.829
302.826
302.82
302.812
302.802
302.791
302.778
302.764
302.752
302.742
341.519
341.669
341.848
342.03
342.203
342.361
342.497
342.606
342.681
342.72
342.72
342.681
342.606
342.497
342.361
342.203
342.03
341.848
341.669
341.519
336.121
336.247
336.402
336.56
336.711
336.848
336.967
337.061
337.126
337.16
337.16
337.126
337.061
336.967
336.848
336.711
336.56
336.402
336.247
336.121
330.664
330.769
330.9
331.033
331.161
331.278
331.378
331.458
331.514
331.542
331.542
331.514
331.458
331.378
331.278
331.161
331.033
330.9
330.769
330.664
325.158
325.243
325.35
325.459
325.564
325.66
325.742
325.807
325.853
325.876
325.876
325.853
325.807
325.742
325.66
325.564
325.459
325.35
325.243
325.158
319.613
319.678
319.761
319.846
319.928
320.003
320.067
320.118
320.153
320.172
320.172
320.153
320.118
320.067
320.003
319.928
319.846
319.761
319.678
319.613
314.038
314.084
314.143
314.204
314.262
314.316
314.362
314.398
314.424
314.437
314.437
314.424
314.398
314.362
314.316
314.262
314.204
314.143
314.084
314.038
308.441
308.468
308.504
308.54
308.576
308.608
308.635
308.657
308.672
308.68
308.68
308.672
308.657
308.635
308.608
308.576
308.54
308.504
308.468
308.441
302.831
302.84
302.852
302.864
302.876
302.887
302.896
302.903
302.909
302.911
302.911
302.909
302.903
302.896
302.887
302.876
302.864
302.852
302.84
302.831
342.625
342.766
342.935
343.105
343.267
343.415
343.541
343.642
343.712
343.747
343.747
343.712
343.642
343.541
343.415
343.267
343.105
342.935
342.766
342.625
337.029
337.148
337.295
337.443
337.585
337.713
337.823
337.911
337.972
338.003
338.003
337.972
337.911
337.823
337.713
337.585
337.443
337.295
337.148
337.029
331.398
331.498
331.622
331.748
331.868
331.977
332.071
332.146
332.198
332.224
332.224
332.198
332.146
332.071
331.977
331.868
331.748
331.622
331.498
331.398
325.738
325.818
325.919
326.023
326.122
326.211
326.289
326.35
326.393
326.414
326.414
326.393
326.35
326.289
326.211
326.122
326.023
325.919
325.818
325.738
320.051
320.113
320.192
320.272
320.35
320.42
320.48
320.528
320.561
320.578
320.578
320.561
320.528
320.48
320.42
320.35
320.272
320.192
320.113
320.051
314.344
314.388
314.444
314.502
314.557
314.608
314.651
314.685
314.709
314.721
314.721
314.709
314.685
314.651
314.608
314.557
314.502
314.444
314.388
314.344
308.622
308.648
308.682
308.717
308.75
308.781
308.806
308.827
308.842
308.849
308.849
308.842
308.827
308.806
308.781
308.75
308.717
308.682
308.648
308.622
302.891
302.9
302.911
302.923
302.934
302.944
302.953
302.96
302.965
302.967
302.967
302.965
302.96
302.953
302.944
302.934
302.923
302.911
302.9
302.891
)
;

boundaryField
{
    hotSide
    {
        type            fixedGradient;
        gradient        nonuniform List<scalar> 
400
(
269.551
270.391
272.073
274.609
278.009
282.289
287.468
293.564
300.599
308.592
317.563
327.529
338.509
350.518
363.568
377.67
392.836
409.071
426.383
444.775
275.086
275.881
277.478
279.888
283.128
287.218
292.182
298.045
304.833
312.573
321.288
331.001
341.733
353.501
366.321
380.206
395.166
411.21
428.343
446.571
281.076
281.819
283.313
285.574
288.624
292.49
297.203
302.795
309.3
316.749
325.174
334.602
345.056
356.559
369.127
382.775
397.515
413.353
430.298
448.352
287.421
288.104
289.479
291.567
294.398
298.007
302.433
307.718
313.904
321.031
329.135
338.25
348.404
359.621
371.921
385.319
399.826
415.452
432.201
450.077
293.945
294.559
295.8
297.696
300.283
303.607
307.718
312.667
318.508
325.287
333.05
341.835
351.674
362.594
374.618
387.76
402.033
417.445
434
451.7
300.376
300.916
302.015
303.705
306.033
309.056
312.837
317.438
322.921
329.345
336.761
345.213
354.738
365.365
377.117
390.011
404.058
419.264
435.635
453.169
306.345
306.812
307.768
309.253
311.326
314.053
317.51
321.772
326.911
332.995
340.081
348.22
357.451
367.806
379.309
391.975
405.816
420.838
437.042
454.428
311.411
311.812
312.639
313.941
315.784
318.249
321.419
325.383
330.221
336.009
342.811
350.681
359.661
369.786
381.078
393.555
407.225
422.094
438.162
455.427
315.118
315.468
316.197
317.359
319.028
321.293
324.247
327.986
332.599
338.167
344.758
352.43
361.228
371.185
382.325
394.664
408.212
422.971
438.942
456.121
317.083
317.405
318.081
319.166
320.741
322.897
325.735
329.353
333.845
339.295
345.774
353.341
362.041
371.909
382.969
395.236
408.72
423.422
439.343
456.477
317.083
317.405
318.081
319.166
320.741
322.897
325.735
329.353
333.845
339.295
345.774
353.341
362.041
371.909
382.969
395.236
408.72
423.422
439.343
456.477
315.118
315.468
316.197
317.359
319.028
321.293
324.247
327.986
332.599
338.167
344.758
352.43
361.228
371.185
382.325
394.664
408.212
422.971
438.942
456.121
311.411
311.812
312.639
313.941
315.784
318.249
321.419
325.383
330.221
336.009
342.811
350.681
359.661
369.786
381.078
393.555
407.225
422.094
438.162
455.427
306.345
306.812
307.768
309.253
311.326
314.053
317.51
321.772
326.911
332.995
340.081
348.22
357.451
367.806
379.309
391.975
405.816
420.838
437.042
454.428
300.376
300.916
302.015
303.705
306.033
309.056
312.837
317.438
322.921
329.345
336.761
345.213
354.738
365.365
377.117
390.011
404.058
419.264
435.635
453.169
293.945
294.559
295.8
297.696
300.283
303.607
307.718
312.667
318.508
325.287
333.05
341.835
351.674
362.594
374.618
387.76
402.033
417.445
434
451.7
287.421
288.104
289.479
291.567
294.398
298.007
302.433
307.718
313.904
321.031
329.135
338.25
348.404
359.621
371.921
385.319
399.826
415.452
432.201
450.077
281.076
281.819
283.313
285.574
288.624
292.49
297.203
302.795
309.3
316.749
325.174
334.602
345.056
356.559
369.127
382.775
397.515
413.353
430.298
448.352
275.086
275.881
277.478
279.888
283.128
287.218
292.182
298.045
304.833
312.573
321.288
331.001
341.733
353.501
366.321
380.206
395.166
411.21
428.343
446.571
269.551
270.391
272.073
274.609
278.009
282.289
287.468
293.564
300.599
308.592
317.563
327.529
338.509
350.518
363.568
377.67
392.836
409.071
426.383
444.775
)
;
    }
    coldSide
    {
        type            mixed;
        refValue        uniform 300;
        refGradient     uniform 0;
        valueFraction   uniform 0.991591;
        source          uniform 0;
        value           nonuniform List<scalar> 
400
(
300.015
300.015
300.015
300.016
300.016
300.016
300.016
300.017
300.017
300.018
300.018
300.019
300.019
300.02
300.021
300.021
300.022
300.023
300.024
300.024
300.016
300.016
300.016
300.016
300.016
300.016
300.017
300.017
300.017
300.018
300.018
300.019