/*--------------------------------*- C++ -*----------------------------------*\
| =========                 |                                                 |
| \\      /  F ield         | OpenFOAM: The Open Source CFD Toolbox           |
|  \\    /   O peration     | Version:  2212                                  |
|   \\  /    A nd           | Website:  www.openfoam.com                      |
|    \\/     M anipulation  |                                                 |
\*---------------------------------------------------------------------------*/
FoamFile
{
    version     2.0;
    format      ascii;
    arch        "LSB;label=32;scalar=64";
    class       volScalarField;
    location    "0";
    object      T;
}
// * * * * * * * * * * * * * * * * * * * * * * * * * * * * * * * * * * * * * //

dimensions      [0 0 0 1 0 0 0];

internalField   nonuniform List<scalar> 
3200
(
349.585
348.284
347.274
346.912
347.272
347.68
348.36
348.979
349.379
349.564
349.416
349.228
348.67
347.932
347.138
346.14
345.767
345.689
346.199
347.076
342.933
341.824
340.958
340.654
340.976
341.307
341.899
342.443
342.753
342.906
342.772
342.561
342.092
341.433
340.737
339.843
339.514
339.446
339.849
340.55
336.291
335.364
334.662
334.37
334.666
334.958
335.445
335.901
336.15
336.264
336.168
335.948
335.546
334.992
334.379
333.604
333.316
333.273
333.589
334.139
329.678
328.929
328.352
328.102
328.381
328.593
329.002
329.378
329.591
329.638
329.585
329.376
329.01
328.591
328.07
327.447
327.184
327.168
327.401
327.834
323.062
322.489
322.057
321.827
322.082
322.241
322.568
322.863
323.016
323.072
323.013
322.863
322.514
322.22
321.793
321.319
321.102
321.099
321.268
321.588
316.445
316.059
315.778
315.591
315.795
315.921
316.122
316.369
316.46
316.508
316.445
316.335
316.046
315.849
315.538
315.227
315.057
315.07
315.181
315.397
309.864
309.638
309.457
309.348
309.491
309.58
309.69
309.862
309.904
309.921
309.885
309.796
309.621
309.52
309.312
309.143
309.038
309.045
309.116
309.23
303.303
303.23
303.166
303.137
303.183
303.215
303.259
303.309
303.324
303.33
303.319
303.283
303.228
303.187
303.124
303.069
303.032
303.033
303.046
303.097
349.564
348.335
347.252
347.036
347.358
347.916
348.502
349.223
349.618
350.025
349.955
349.719
349.025
348.291
347.316
346.449
345.704
345.77
346.293
347.172
342.921
341.866
340.963
340.767
341.048
341.536
342.021
342.623
342.941
343.286
343.206
342.998
342.386
341.742
340.888
340.119
339.47
339.514
339.939
340.616
336.309
335.426
334.673
334.504
334.746
335.136
335.543
336.081
336.294
336.571
336.485
336.331
335.791
335.229
334.528
333.865
333.299
333.314
333.643
334.176
329.693
328.978
328.377
328.237
328.454
328.737
329.046
329.551
329.687
329.889
329.828
329.684
329.24
328.794
328.22
327.667
327.166
327.167
327.44
327.833
323.098
322.522
322.083
321.955
322.146
322.357
322.58
322.993
323.11
323.24
323.187
323.075
322.712
322.372
321.927
321.518
321.126
321.105
321.299
321.587
316.507
316.069
315.783
315.689
315.838
315.966
316.15
316.424
316.505
316.604
316.559
316.482
316.204
315.98
315.663
315.356
315.087
315.074
315.183
315.401
309.918
309.646
309.493
309.436
309.522
309.587
309.693
309.873
309.918
309.967
309.948
309.899
309.729
309.6
309.405
309.217
309.066
309.068
309.118
309.239
303.328
303.236
303.19
303.16
303.194
303.217
303.255
303.313
303.335
303.335
303.333
303.326
303.256
303.221
303.154
303.087
303.031
303.052
303.052
303.105
349.709
348.486
347.577
347.333
347.643
348.347
348.909
349.709
350.321
350.61
350.565
350.319
349.793
348.948
347.801
346.909
346.212
346.079
346.502
347.58
343.051
342.025
341.261
341.04
341.293
341.881
342.358
343.047
343.527
343.78
343.742
343.505
343.05
342.309
341.321
340.518
339.908
339.772
340.123
341.003
336.422
335.557
334.915
334.728
334.941
335.428
335.842
336.417
336.789
336.991
336.96
336.717
336.353
335.723
334.913
334.214
333.68
333.532
333.823
334.511
329.801
329.101
328.578
328.416
328.6
328.988
329.334
329.788
330.065
330.238
330.202
329.986
329.707
329.178
328.525
327.962
327.487
327.381
327.57
328.137
323.164
322.65
322.239
322.113
322.271
322.547
322.832
323.178
323.374
323.503
323.477
323.292
323.084
322.685
322.153
321.724
321.364
321.259
321.386
321.849
316.554
316.169
315.9
315.822
315.923
316.078
316.329
316.571
316.703
316.795
316.773
316.635
316.467
316.203
315.831
315.509
315.262
315.156
315.264
315.573
309.934
309.713
309.546
309.526
309.574
309.653
309.806
309.956
310.019
310.084
310.078
310
309.882
309.724
309.509
309.308
309.152
309.093
309.159
309.345
303.323
303.254
303.197
303.19
303.203
303.233
303.286
303.341
303.354
303.382
303.377
303.353
303.298
303.262
303.192
303.12
303.063
303.041
303.067
303.128
350.121
348.933
348.144
347.86
348.198
348.838
349.67
350.349
351.073
351.522
351.514
351.236
350.57
349.596
348.531
347.488
346.858
346.682
347.092
348.049
343.435
342.417
341.748
341.503
341.769
342.333
343.018
343.582
344.219
344.572
344.535
344.29
343.705
342.876
341.927
341.019
340.481
340.317
340.647
341.396
336.738
335.928
335.34
335.156
335.33
335.808
336.37
336.837
337.37
337.624
337.62
337.402
336.895
336.195
335.385
334.607
334.161
334.024
334.254
334.859
330.025
329.431
328.916
328.793
328.909
329.3
329.735
330.123
330.556
330.746
330.732
330.569
330.13
329.564
328.917
328.275
327.903
327.773
327.954
328.43
323.341
322.924
322.493
322.416
322.508
322.772
323.107
323.424
323.734
323.9
323.869
323.76
323.403
322.962
322.45
321.968
321.671
321.585
321.692
322.071
316.698
316.396
316.065
316.007
316.098
316.263
316.496
316.747
316.939
317.072
317.031
316.975
316.708
316.39
316.031
315.676
315.445
315.42
315.484
315.753
310.029
309.871
309.656
309.623
309.675
309.772
309.91
310.043
310.175
310.264
310.21
310.191
310.023
309.848
309.631
309.41
309.256
309.258
309.295
309.444
303.366
303.315
303.242
303.223
303.237
303.274
303.325
303.368
303.413
303.436
303.418
303.417
303.356
303.295
303.221
303.147
303.096
303.102
303.126
303.163
350.734
349.629
348.866
348.728
348.98
349.612
350.447
351.207
351.935
352.48
352.521
352.356
351.575
350.574
349.469
348.331
347.581
347.436
347.786
348.644
343.96
343.029
342.379
342.242
342.461
342.964
343.681
344.319
344.968
345.406
345.438
345.271
344.586
343.724
342.737
341.753
341.097
340.952
341.234
341.939
337.181
336.425
335.867
335.778
335.941
336.341
336.941
337.443
338.016
338.383
338.397
338.215
337.647
336.914
336.077
335.223
334.664
334.561
334.768
335.334
330.416
329.81
329.348
329.306
329.39
329.717
330.235
330.613
331.084
331.367
331.397
331.195
330.767
330.162
329.456
328.756
328.313
328.222
328.357
328.819
323.668
323.205
322.828
322.82
322.839
323.091
323.532
323.795
324.157
324.365
324.403
324.227
323.897
323.454
322.865
322.322
322.005
321.914
322
322.353
316.931
316.587
316.32
316.33
316.293
316.49
316.82
316.98
317.238
317.383
317.415
317.295
317.046
316.755
316.329
315.931
315.717
315.652
315.684
315.962
310.18
309.979
309.808
309.801
309.791
309.901
310.094
310.196
310.356
310.426
310.451
310.384
310.223
310.053
309.806
309.56
309.428
309.396
309.41
309.587
303.421
303.347
303.284
303.281
303.269
303.308
303.387
303.42
303.471
303.493
303.494
303.48
303.427
303.371
303.286
303.198
303.159
303.147
303.146
303.218
351.48
350.347
349.731
349.552
349.735
350.415
351.279
352.172
352.9
353.542
353.743
353.337
352.614
351.647
350.379
349.469
348.632
348.479
348.88
349.598
344.569
343.683
343.144
342.984
343.116
343.682
344.415
345.169
345.772
346.334
346.464
346.106
345.48
344.638
343.515
342.719
341.984
341.843
342.171
342.737
337.685
337
336.551
336.409
336.475
336.952
337.576
338.193
338.702
339.157
339.25
338.931
338.392
337.693
336.712
336.031
335.41
335.296
335.519
335.979
330.827
330.326
329.929
329.809
329.837
330.228
330.744
331.223
331.657
332.012
332.061
331.788
331.367
330.807
329.999
329.398
328.915
328.801
328.965
329.326
323.959
323.614
323.287
323.224
323.205
323.508
323.908
324.262
324.628
324.876
324.921
324.693
324.377
323.917
323.324
322.823
322.45
322.382
322.49
322.747
317.098
316.88
316.656
316.609
316.583
316.794
317.082
317.315
317.606
317.768
317.784
317.631
317.39
317.065
316.651
316.298
316.008
315.987
316.068
316.225
310.266
310.16
310.012
309.978
309.959
310.082
310.271
310.394
310.574
310.672
310.659
310.574
310.427
310.249
309.989
309.775
309.593
309.597
309.649
309.726
303.441
303.413
303.356
303.348
303.336
303.379
303.443
303.479
303.542
303.59
303.575
303.541
303.494
303.434
303.334
303.275
303.21
303.21
303.23
303.259
352.27
351.353
350.714
350.448
350.707
351.437
352.291
353.284
354.058
354.691
354.842
354.55
353.857
352.854
351.571
350.661
349.838
349.641
349.886
350.596
345.27
344.523
343.974
343.74
343.93
344.555
345.271
346.136
346.777
347.295
347.447
347.157
346.548
345.687
344.584
343.767
343.038
342.869
343.056
343.625
338.277
337.694
337.227
337.037
337.152
337.677
338.28
339
339.525
339.931
340.083
339.803
339.314
338.562
337.651
336.921
336.315
336.165
336.304
336.751
331.297
330.863
330.465
330.324
330.387
330.828
331.319
331.854
332.327
332.62
332.73
332.49
332.114
331.475
330.757
330.125
329.645
329.51
329.613
329.979
324.341
324.023
323.705
323.61
323.651
323.98
324.35
324.755
325.138
325.333
325.417
325.236
324.935
324.434
323.895
323.376
323.016
322.927
322.979
323.25
317.395
317.156
316.928
316.884
316.913
317.138
317.398
317.676
317.959
318.07
318.144
317.998
317.778
317.433
317.062
316.675
316.431
316.355
316.387
316.565
310.448
310.304
310.176
310.159
310.158
310.283
310.448
310.626
310.785
310.834
310.881
310.794
310.662
310.458
310.247
309.994
309.865
309.802
309.829
309.933
303.504
303.456
303.409
303.401
303.402
303.444
303.497
303.557
303.614
303.629
303.642
303.623
303.566
303.503
303.436
303.345
303.309
303.284
303.303
303.318
353.368
352.263
351.789
351.583
351.81
352.424
353.314
354.165
355.052
355.827
355.981
355.668
355.024
354.017
352.848
351.724
351.058
350.899
351.11
351.78
346.222
345.315
344.905
344.724
344.889
345.409
346.149
346.88
347.644
348.278
348.404
348.121
347.562
346.669
345.651
344.704
344.083
343.958
344.098
344.643
339.073
338.359
338.003
337.853
337.965
338.401
339.016
339.617
340.279
340.785
340.889
340.607
340.159
339.369
338.533
337.746
337.186
337.105
337.197
337.603
331.925
331.408
331.087
330.955
331.058
331.407
331.905
332.361
332.916
333.353
333.407
333.157
332.82
332.135
331.458
330.826
330.36
330.298
330.381
330.686
324.807
324.429
324.164
324.063
324.133
324.426
324.817
325.163
325.578
325.927
325.939
325.746
325.498
324.927
324.427
323.926
323.584
323.539
323.589
323.824
317.704
317.445
317.234
317.195
317.246
317.46
317.717
317.974
318.255
318.501
318.497
318.373
318.191
317.778
317.446
317.069
316.846
316.808
316.821
317.007
310.635
310.475
310.329
310.34
310.352
310.494
310.631
310.788
310.947
311.104
311.089
311.029
310.914
310.68
310.469
310.258
310.111
310.085
310.088
310.204
303.568
303.498
303.457
303.47
303.466
303.522
303.563
303.617
303.68
303.723
303.709
303.702
303.645
303.584
303.505
303.436
303.383
303.375
303.385
303.427
354.474
353.469
352.841
352.635
352.872
353.473
354.337
355.224
356.162
356.898
357.226
356.804
356.205
355.226
354.091
352.997
352.363
352.09
352.299
352.932
347.203
346.334
345.782
345.623
345.811
346.306
347.058
347.833
348.623
349.227
349.462
349.089
348.567
347.751
346.709
345.77
345.232
344.95
345.143
345.639
339.934
339.223
338.723
338.617
338.72
339.172
339.78
340.468
341.108
341.6
341.78
341.439
340.99
340.324
339.418
338.614
338.18
337.915
338.064
338.451
332.65
332.089
331.67
331.608
331.642
332.056
332.548
333.099
333.611
334.006
334.132
333.845
333.462
332.945
332.192
331.535
331.179
330.964
331.052
331.343
325.366
324.957
324.638
324.586
324.601
324.952
325.323
325.744
326.136
326.439
326.524
326.293
325.971
325.602
325.018
324.498
324.205
324.045
324.11
324.35
318.115
317.819
317.599
317.559
317.582
317.84
318.095
318.373
318.643
318.883
318.932
318.773
318.533
318.294
317.858
317.485
317.277
317.148
317.2
317.39
310.867
310.707
310.567
310.549
310.56
310.726
310.861
311.046
311.188
311.341
311.359
311.259
311.118
310.988
310.748
310.502
310.375
310.292
310.318
310.434
303.637
303.581
303.544
303.54
303.527
303.593
303.65
303.699
303.747
303.806
303.8
303.776
303.727
303.689
303.604
303.519
303.476
303.454
303.451
303.497
355.553
354.763
353.964
353.794
353.993
354.537
355.429
356.366
357.312
357.868
358.179
357.975
357.207
356.24
355.253
354.224
353.511
353.296
353.588
354.266
348.105
347.463
346.765
346.61
346.785
347.239
347.99
348.817
349.586
350.066
350.303
350.127
349.447
348.617
347.729
346.827
346.215
346
346.249
346.795
340.67
340.174
339.574
339.439
339.579
339.94
340.564
341.279
341.91
342.272
342.496
342.321
341.766
341.059
340.244
339.508
338.99
338.811
338.991
339.418
333.267
332.886
332.381
332.272
332.373
332.669
333.165
333.742
334.243
334.542
334.728
334.554
334.143
333.525
332.838
332.241
331.811
331.68
331.822
332.145
325.873
325.597
325.203
325.107
325.188
325.403
325.78
326.221
326.603
326.848
326.981
326.829
326.541
326.036
325.484
325.028
324.698
324.594
324.728
324.943
318.458
318.309
318.008
317.947
317.99
318.148
318.422
318.717
318.995
319.183
319.26
319.154
318.954
318.595
318.175
317.849
317.61
317.553
317.647
317.799
311.074
310.988
310.823
310.769
310.808
310.886
311.068
311.232
311.409
311.516
311.556
311.484
311.374
311.154
310.897
310.708
310.566
310.535
310.582
310.676
303.712
303.68
303.637
303.619
303.624
303.645
303.711
303.768
303.836
303.861
303.868
303.846
303.815
303.724
303.65
303.596
303.53
303.535
303.539
303.569
356.692
355.74
355.188
354.955
355.178
355.705
356.482
357.461
358.229
358.738
359.138
359.014
358.277
357.412
356.347
355.569
354.94
354.589
354.912
355.548
349.088
348.306
347.837
347.612
347.838
348.256
348.91
349.758
350.411
350.824
351.141
351.033
350.372
349.599
348.711
347.984
347.435
347.111
347.4
347.887
341.493
340.874
340.511
340.278
340.488
340.827
341.349
342.059
342.625
342.956
343.197
343.084
342.528
341.883
341.135
340.479
339.995
339.739
339.972
340.348
333.928
333.452
333.173
332.955
333.139
333.388
333.803
334.369
334.869
335.105
335.299
335.196
334.735
334.244
333.598
333.031
332.626
332.428
332.625
332.93
326.386
326.038
325.824
325.627
325.788
325.967
326.253
326.702
327.114
327.308
327.418
327.344
327.001
326.613
326.09
325.651
325.32
325.179
325.316
325.573
318.865
318.611
318.462
318.329
318.438
318.55
318.744
319.055
319.38
319.52
319.548
319.524
319.285
319.012
318.614
318.315
318.06
317.974
318.06
318.254
311.338
311.188
311.087
311.015
311.076
311.149
311.253
311.437
311.637
311.732
311.724
311.739
311.577
311.431
311.165
310.995
310.836
310.769
310.847
310.961
303.807
303.753
303.715
303.693
303.71
303.727
303.768
303.823
303.902
303.927
303.927
303.933
303.879
303.836
303.738
303.694
303.621
303.613
303.642
303.669
357.934
357.08
356.464
356.223
356.351
356.796
357.566
358.445
359.251
359.728
360.146
359.856
359.298
358.424
357.562
356.798
356.11
355.964
356.353
356.882
350.176
349.451
348.942
348.734
348.85
349.198
349.851
350.608
351.283
351.659
352.027
351.758
351.255
350.495
349.746
349.056
348.435
348.296
348.624
349.044
342.442
341.85
341.437
341.26
341.358
341.595
342.15
342.797
343.339
343.63
343.94
343.725
343.273
342.643
342.022
341.401
340.873
340.734
340.992
341.309
334.729
334.255
333.919
333.776
333.847
334.023
334.462
334.995
335.408
335.661
335.91
335.741
335.33
334.86
334.334
333.804
333.359
333.238
333.412
333.654
326.989
326.65
326.394
326.298
326.33
326.457
326.793
327.229
327.534
327.723
327.908
327.78
327.426
327.117
326.683
326.247
325.895
325.812
325.916
326.076
319.276
319.043
318.852
318.804
318.829
318.896
319.132
319.446
319.678
319.812
319.925
319.836
319.577
319.372
319.043
318.72
318.465
318.422
318.478
318.587
311.586
311.453
311.325
311.305
311.31
311.343
311.471
311.694
311.832
311.894
311.949
311.905
311.755
311.62
311.427
311.235
311.097
311.038
311.082
311.156
303.886
303.848
303.791
303.798
303.798
303.797
303.836
303.92
303.966
303.979
304.007
303.988
303.938
303.893
303.821
303.746
303.717
303.686
303.712
303.736
359.017
358.251
357.687
357.383
357.552
357.925
358.606
359.388
360.123
360.603
360.939
360.721
360.221
359.499
358.685
358.004
357.405
357.304
357.66
358.198
351.116
350.479
349.978
349.714
349.862
350.183
350.749
351.41
352.018
352.44
352.73
352.526
352.067
351.447
350.687
350.073
349.566
349.478
349.729
350.185
343.233
342.721
342.285
342.067
342.187
342.429
342.937
343.46
343.96
344.309
344.541
344.383
343.981
343.454
342.771
342.243
341.837
341.748
341.92
342.281
335.353
334.966
334.613
334.427
334.501
334.708
335.1
335.544
335.941
336.207
336.394
336.279
335.927
335.492
334.909
334.505
334.176
334.085
334.193
334.444
327.507
327.202
326.943
326.796
326.82
327.014
327.282
327.631
327.938
328.14
328.28
328.183
327.926
327.579
327.087
326.798
326.547
326.483
326.528
326.699
319.668
319.452
319.269
319.176
319.168
319.306
319.488
319.735
319.953
320.084
320.184
320.111
319.93
319.672
319.314
319.14
318.944
318.899
318.92
319.035
311.813
311.687
311.596
311.521
311.521
311.592
311.725
311.829
311.98
312.072
312.101
312.074
311.957
311.789
311.59
311.49
311.35
311.35
311.369
311.396
303.967
303.927
303.879
303.856
303.87
303.889
303.941
303.965
304.016
304.045
304.058
304.05
304.006
303.957
303.884
303.845
303.793
303.811
303.818
303.815
360.356
359.505
358.955
358.705
358.778
359.109
359.658
360.348
360.928
361.504
361.815
361.664
361.097
360.55
359.767
359.076
358.681
358.66
359.019
359.662
352.283
351.555
351.087
350.841
350.913
351.199
351.669
352.233
352.726
353.207
353.475
353.333
352.82
352.34
351.632
351.022
350.679
350.666
350.929
351.476
344.208
343.615
343.243
343.002
343.068
343.3
343.706
344.148
344.571
344.97
345.18
345.055
344.607
344.209
343.56
343.055
342.767
342.766
342.925
343.372
336.135
335.685
335.404
335.184
335.239
335.413
335.725
336.09
336.447
336.766
336.923
336.832
336.462
336.148
335.54
335.143
334.907
334.924
335.022
335.374
328.067
327.752
327.551
327.373
327.404
327.544
327.783
328.048
328.336
328.582
328.687
328.624
328.367
328.088
327.597
327.279
327.121
327.121
327.183
327.437
320.036
319.83
319.675
319.548
319.584
319.671
319.833
320.021
320.262
320.427
320.475
320.43
320.249
320.061
319.712
319.487
319.373
319.348
319.392
319.56
312.017
311.909
311.822
311.735
311.773
311.807
311.907
312.013
312.168
312.261
312.296
312.267
312.157
312.045
311.84
311.707
311.635
311.606
311.641
311.717
304.02
303.998
303.958
303.934
303.946
303.965
303.99
304.026
304.084
304.115
304.125
304.103
304.069
304.041
303.971
303.914
303.897
303.89
303.903
303.927
361.694
360.881
360.309
359.95
360.04
360.299
360.73
361.269
361.982
362.474
362.633
362.57
362.095
361.508
360.882
360.293
360.04
360.045
360.419
360.864
353.411
352.747
352.27
351.968
352.007
352.219
352.562
353.024
353.633
354.045
354.196
354.114
353.701
353.147
352.621
352.082
351.885
351.844
352.145
352.47
345.16
344.625
344.227
343.976
343.987
344.177
344.446
344.817
345.313
345.657
345.798
345.738
345.371
344.86
344.412
343.934
343.789
343.754
343.952
344.187
336.922
336.486
336.201
335.994
335.969
336.146
336.339
336.641
337.028
337.314
337.424
337.4
337.079
336.638
336.274
335.867
335.772
335.705
335.869
336.035
328.7
328.404
328.172
327.986
327.994
328.128
328.262
328.484
328.77
329.018
329.085
329.082
328.802
328.464
328.178
327.868
327.806
327.723
327.856
327.964
320.49
320.315
320.148
319.986
320.003
320.123
320.182
320.346
320.543
320.725
320.784
320.778
320.59
320.334
320.106
319.886
319.881
319.796
319.891
319.944
312.308
312.211
312.096
311.989
311.997
312.088
312.108
312.211
312.332
312.452
312.469
312.469
312.372
312.211
312.057
311.916
311.933
311.883
311.949
311.966
304.124
304.094
304.058
304.02
304.011
304.062
304.055
304.097
304.129
304.176
304.166
304.186
304.154
304.094
304.034
303.988
304
303.986
304.003
304.004
363.008
362.194
361.582
361.355
361.427
361.518
361.86
362.288
362.906
363.234
363.396
363.326
363.022
362.453
362.029
361.421
361.258
361.375
361.716
362.25
354.554
353.887
353.362
353.16
353.229
353.301
353.549
353.895
354.426
354.713
354.824
354.759
354.472
353.979
353.6
353.052
352.914
353.014
353.275
353.655
346.127
345.597
345.146
344.95
345.033
345.098
345.282
345.543
346.006
346.266
346.322
346.241
345.996
345.572
345.253
344.779
344.649
344.73
344.93
345.215
337.712
337.301
336.924
336.77
336.829
336.889
337.029
337.253
337.591
337.832
337.846
337.784
337.582
337.225
336.961
336.575
336.444
336.514
336.656
336.877
329.298
329.001
328.692
328.605
328.638
328.702
328.803
328.964
329.199
329.429
329.406
329.359
329.211
328.898
328.691
328.437
328.296
328.33
328.443
328.626
320.921
320.707
320.494
320.436
320.448
320.519
320.587
320.684
320.841
321.025
320.992
320.976
320.865
320.618
320.482
320.298
320.186
320.208
320.29
320.43
312.564
312.428
312.311
312.263
312.267
312.317
312.365
312.415
312.517
312.638
312.599
312.598
312.529
312.365
312.311
312.184
312.113
312.118
312.185
312.253
304.207
304.165
304.119
304.097
304.116
304.128
304.14
304.158
304.192
304.23
304.225
304.217
304.193
304.15
304.128
304.077
304.066
304.05
304.101
304.108
364.276
363.571
362.84
362.612
362.614
362.635
362.981
363.282
363.863
364.111
364.286
364.222
363.887
363.568
363.08
362.564
362.477
362.537
363.025
363.504
355.669
355.07
354.443
354.236
354.245
354.25
354.527
354.781
355.251
355.451
355.62
355.523
355.235
354.926
354.506
354.056
353.949
354.025
354.393
354.747
347.068
346.576
346.049
345.899
345.891
345.876
346.093
346.325
346.7
346.856
346.973
346.886
346.613
346.35
346.022
345.648
345.515
345.591
345.871
346.115
338.48
338.072
337.684
337.558
337.548
337.517
337.675
337.877
338.189
338.273
338.39
338.309
338.046
337.835
337.611
337.283
337.143
337.223
337.425
337.606
329.927
329.604
329.312
329.21
329.2
329.177
329.286
329.424
329.704
329.742
329.826
329.765
329.564
329.365
329.223
328.947
328.817
328.91
329.06
329.205
321.38
321.153
320.957
320.875
320.866
320.865
320.917
320.992
321.235
321.242
321.304
321.243
321.111
320.942
320.874
320.666
320.571
320.641
320.737
320.829
312.839
312.696
312.592
312.539
312.54
312.526
312.57
312.603
312.76
312.758
312.801
312.752
312.689
312.567
312.549
312.398
312.339
312.392
312.465
312.489
304.302
304.252
304.215
304.199
304.193
304.196
304.217
304.233
304.283
304.273
304.296
304.269
304.258
304.214
304.208
304.148
304.144
304.157
304.169
304.175
365.669
364.935
364.205
363.86
363.877
363.816
364.188
364.451
364.882
365.169
365.284
365.078
364.705
364.472
364.073
363.726
363.727
363.994
364.399
364.847
356.847
356.237
355.634
355.328
355.319
355.263
355.562
355.774
356.164
356.362
356.466
356.28
355.923
355.703
355.353
355.048
355.024
355.245
355.58
355.884
348.049
347.548
347.07
346.82
346.767
346.737
346.96
347.142
347.45
347.608
347.688
347.546
347.196
347.015
346.716
346.475
346.415
346.575
346.885
347.092
339.283
338.871
338.514
338.279
338.238
338.236
338.406
338.533
338.756
338.911
338.947
338.858
338.541
338.374
338.137
337.968
337.895
337.978
338.258
338.405
330.544
330.221
329.941
329.755
329.737
329.716
329.86
329.96
330.106
330.244
330.261
330.2
329.933
329.805
329.596
329.492
329.398
329.463
329.693
329.814
321.828
321.592
321.402
321.236
321.25
321.225
321.324
321.4
321.508
321.592
321.597
321.561
321.383
321.262
321.102
321.033
320.955
321.004
321.158
321.286
313.112
312.973
312.868
312.749
312.764
312.74
312.788
312.839
312.913
312.98
312.964
312.966
312.838
312.772
312.661
312.612
312.565
312.602
312.685
312.772
304.393
304.346
304.311
304.272
304.283
304.268
304.294
304.296
304.333
304.353
304.337
304.349
304.309
304.28
304.239
304.226
304.206
304.226
304.249
304.28
366.953
366.221
365.573
365.13
365.002
364.924
365.166
365.53
365.739
366.026
366.158
365.923
365.702
365.282
365.087
364.865
364.891
365.14
365.611
366.214
357.934
357.354
356.75
356.389
356.277
356.195
356.386
356.674
356.865
357.085
357.208
356.978
356.788
356.38
356.189
356.016
356.028
356.236
356.603
357.077
348.968
348.506
347.966
347.695
347.573
347.499
347.638
347.886
348.061
348.203
348.321
348.113
347.936
347.573
347.386
347.269
347.26
347.425
347.708
348.083
340.024
339.663
339.195
339.028
338.899
338.84
338.925
339.14
339.292
339.376
339.486
339.297
339.142
338.834
338.677
338.584
338.574
338.677
338.91
339.219
331.096
330.823
330.471
330.372
330.241
330.201
330.259
330.425
330.533
330.594
330.695
330.523
330.389
330.173
330.015
329.943
329.937
330.005
330.169
330.459
322.217
322.012
321.778
321.726
321.606
321.576
321.599
321.739
321.827
321.855
321.931
321.787
321.699
321.527
321.419
321.378
321.355
321.403
321.506
321.742
313.332
313.216
313.071
313.045
312.965
312.962
312.967
313.059
313.121
313.121
313.162
313.072
313.035
312.922
312.844
312.835
312.812
312.833
312.895
313.046
304.47
304.429
304.376
304.366
304.338
304.35
304.343
304.381
304.398
304.396
304.417
304.379
304.373
304.327
304.298
304.294
304.297
304.306
304.32
304.372
368.085
367.211
366.432
366.112
365.862
365.808
365.984
366.174
366.383
366.558
366.789
366.644
366.407
366.073
365.957
365.735
365.748
366.088
366.661
367.309
358.87
358.142
357.457
357.202
356.996
356.931
357.059
357.202
357.378
357.533
357.702
357.562
357.361
357.017
356.925
356.719
356.701
356.979
357.47
358.019
349.719
349.114
348.521
348.346
348.164
348.092
348.197
348.305
348.449
348.589
348.724
348.564
348.402
348.068
347.994
347.818
347.764
348.012
348.404
348.883
340.634
340.135
339.647
339.526
339.38
339.288
339.396
339.445
339.574
339.683
339.798
339.633
339.501
339.206
339.133
339.009
338.942
339.138
339.48
339.857
331.561
331.2
330.813
330.717
330.62
330.535
330.634
330.647
330.753
330.811
330.913
330.774
330.658
330.43
330.365
330.267
330.207
330.359
330.634
330.934
322.54
322.28
321.978
321.931
321.859
321.801
321.874
321.863
321.962
321.982
322.082
321.955
321.868
321.719
321.645
321.569
321.532
321.642
321.836
322.075
313.547
313.381
313.196
313.148
313.12
313.065
313.125
313.112
313.192
313.182
313.258
313.162
313.115
313.042
312.979
312.929
312.902
312.986
313.089
313.246
304.545
304.487
304.428
304.4
304.394
304.367
304.399
304.394
304.431
304.41
304.444
304.408
304.392
304.38
304.337
304.331
304.318
304.352
304.375
304.43
)
;

boundaryField
{
    hotSide
    {
        type            fixedGradient;
        gradient        nonuniform List<scalar> 
400
(
534.32
532.507
533.435
537.033
543.03
551.033
560.627
571.433
583.143
595.522
608.403
621.679
635.293
649.235
663.536
678.26
693.498
709.344
725.873
743.113
516.047
514.488
515.859
520.07
526.789
535.553
545.881
557.352
569.634
582.479
595.717
609.243
623.009
637.014
651.302
665.958
681.096
696.838
713.282
730.469
505.667
504.655
506.536
511.208
518.34
527.469
538.114
549.851
562.342
575.333
588.655
602.2
615.925
629.835
643.982
658.459
673.386
688.893
705.083
722.004
502.685
502.495
504.966
509.993
517.288
526.451
537.055
548.706
561.078
573.921
587.062
600.396
613.881
627.525
641.385
655.553
670.142
685.27
701.033
717.482
505.189
505.992
509.161
514.584
522.02
531.138
541.577
552.986
565.062
577.568
590.334
603.261
616.312
629.502
642.892
656.573
670.65
685.229
700.396
716.203
510.995
512.872
516.859
522.829
530.565
539.779
550.153
561.369
573.146
585.255
597.541
609.915
622.357
634.902
647.622
660.616
673.991
687.849
702.273
717.318
518.277
521.255
526.163
532.859
541.124
550.681
561.219
572.425
584.018
595.773
607.546
619.273
630.965
642.693
654.56
666.69
679.204
692.209
705.792
720.011
525.608
529.656
535.543
543.107
552.115
562.27
573.238
584.672
596.261
607.765
619.045
630.073
640.916
651.702
662.592
673.746
685.311
697.407
710.125
723.524
531.833
536.838
543.667
552.146
562.02
572.961
584.581
596.469
608.246
619.626
630.473
640.806
650.772
660.586
670.48
680.664
691.311
702.555
714.487
727.164
536.015
541.744
549.337
558.615
569.306
581.051
593.402
605.865
617.968
629.357
639.889
649.641
658.855
667.842
676.907
686.305
696.232
706.824
718.172
730.327
537.475
543.57
551.589
561.352
572.581
584.893
597.8
610.745
623.18
634.696
645.135
654.619
663.456
672.025
680.677
689.691
699.273
709.562
720.646
732.57
535.917
541.935
549.933
559.73
571.043
583.481
596.547
609.677
622.318
634.056
644.728
654.444
663.504
672.28
681.117
690.298
700.029
710.452
721.658
733.696
531.523
537.027
544.572
553.973
564.943
577.096
589.955
603.001
615.738
627.795
639.007
649.427
659.273
668.843
678.433
688.302
698.649
709.623
721.322
733.804
524.987
529.633
536.417
545.157
555.567
567.267
579.81
592.728
605.592
618.076
630.009
641.378
652.306
662.994
673.671
684.553
695.828
707.645
720.109
733.29
517.48
521.05
526.931
534.95
544.816
556.144
568.495
581.427
594.547
607.553
620.261
632.61
644.649
656.499
668.327
680.311
692.62
705.402
718.767
732.79
510.642
513.043
518.013
525.392
534.869
546.022
558.385
571.505
584.996
598.557
611.996
625.222
638.236
651.11
663.966
676.955
690.233
703.948
718.215
733.111
506.635
507.887
512.017
518.877
528.112
539.232
551.718
565.086
578.939
592.979
607.005
620.914
634.682
648.35
662.016
675.813
689.892
704.405
719.473
735.171
508.048
508.304
511.689
518.065
527.031
538.04
550.521
563.971
577.989
592.279
606.644
620.974
635.23
649.439
663.677
678.063
692.746
707.877
723.581
739.931
517.171
516.724
519.449
525.221
533.648
544.184
556.269
569.41
583.218
597.406
611.781
626.227
640.696
655.198
669.791
684.577
699.687
715.259
731.41
748.199
534.705
533.883
536.022
541.025
548.568
558.194
569.415
581.795
594.973
608.679
622.722
636.981
651.397
665.961
680.711
695.721
711.093
726.934
743.332
760.331
)
;
    }
    coldSide
    {
        type            mixed;
        refValue        uniform 300;
        refGradient     uniform 0;
        valueFraction   uniform 0.991591;
        source          uniform 0;
        value           nonuniform List<scalar> 
400
(
300.028
300.028
300.028
300.028
300.029
300.029
300.029
300.03
300.031
300.031
300.032
300.033
300.033
300.034
300.035
300.035
300.036
300.037
300.038
300.038
300.027
300.027
300.027
300.028
300.028
300.029
300.029
300.029
300.03
300.031
300.032
300.032
300.033
300.034
300.034
300.035
300.036
300.037